FOO
138240
    1MOL0     O    1   5.543   4.832   6.472  0.6812  0.0569  0.0883
    1MOL0     C    2   5.618   4.917   6.521 -0.6298 -0.5240 -0.4000
    1MOL0     O    3   5.582   5.017   6.598 -0.6717 -0.3314 -0.0661
    1MOL0     C    4   5.444   5.020   6.637 -0.2610  0.2705  0.0364
    1MOL0     C    5   5.365   5.124   6.598 -0.1589 -0.1440  0.0413
    1MOL0     C    6   5.221   5.119   6.621 -1.0789 -1.1369 -0.3062
    1MOL0     C    7   5.161   5.014   6.686  0.2116  0.3030  0.4734
    1MOL0     O    8   5.022   5.012   6.689 -0.0583 -0.2915 -0.0432
    1MOL0     C    9   4.970   4.897   6.756 -0.1046  0.3776  0.4817
    1MOL0     C   10   4.820   4.887   6.736 -0.1763  0.0800  0.4927
    1MOL0     C   11   4.786   4.897   6.589  0.1527  0.4744  0.2109
    1MOL0     C   12   4.644   4.888   6.565  0.2231 -0.2972 -0.4701
    1MOL0     C   13   4.621   4.886   6.413  0.6683 -0.4432 -0.2982
    1MOL0     C   14   4.471   4.875   6.384  0.2216  0.2013  0.9592
    1MOL0     C   15   4.442   4.889   6.238  0.0766  0.4699 -0.3927
    1MOL0     C   16   4.293   4.853   6.210  0.0247 -0.2680  0.1112
    1MOL0     N   17   4.251   4.895   6.071  0.2588  0.3515  0.3506
    1MOL0     C   18   4.172   4.829   5.978  0.1858 -0.3127  0.6335
    1MOL0     C   19   4.165   4.916   5.874  0.2033  0.3588  0.7559
    1MOL0     C   20   4.089   4.902   5.748 -0.5150 -0.0875  0.6467
    1MOL0     C   21   3.942   4.940   5.761  0.3780  0.0671  0.2159
    1MOL0     C   22   3.870   4.951   5.620 -1.2810 -0.2837  0.4109
    1MOL0     C   23   3.728   5.002   5.609 -0.5654 -0.2682 -0.7785
    1MOL0     O   24   3.738   5.142   5.664  0.9958 -0.2214  0.7798
    1MOL0     C   25   3.622   5.188   5.713  0.2275  0.9459  0.4179
    1MOL0     C   26   3.490   5.159   5.667  0.1626  0.8791  0.4572
    1MOL0     C   27   3.378   5.213   5.732 -0.5774  0.0650 -0.2337
    1MOL0     C   28   3.250   5.168   5.676 -0.1418  0.3238  0.4696
    1MOL0     C   29   3.393   5.309   5.840 -0.1890  0.3407 -0.0286
    1MOL0     C   30   3.284   5.378   5.906  0.2970 -0.3468 -0.8912
    1MOL0     O   31   3.175   5.304   5.931  0.1281 -0.1596  0.3317
    1MOL0     C   32   3.062   5.370   5.969  0.1635  0.2899  0.4656
    1MOL0     C   33   2.956   5.354   5.888  0.3396 -0.7489  0.4854
    1MOL0     C   34   2.830   5.418   5.920  0.0536  0.7154  0.7085
    1MOL0     C   35   2.820   5.502   6.024 -0.2633  0.1957  0.1825
    1MOL0     O   36   2.693   5.544   6.044 -0.8103  0.0416 -0.3737
    1MOL0     C   37   2.652   5.621   6.156 -0.0681  0.4716 -0.1699
    1MOL0     C   38   2.518   5.689   6.128  0.8760 -0.2719 -0.2149
    1MOL0     C   39   2.394   5.607   6.158 -0.6940 -1.0294  0.1197
    1MOL0     C   40   2.279   5.707   6.167  0.3436  0.7104 -0.1402
    1MOL0     C   41   2.146   5.634   6.165  0.7596 -0.6181  0.3111
    1MOL0     C   42   2.034   5.741   6.182 -0.3659 -0.0969  0.1093
    1MOL0     C   43   1.914   5.675   6.243 -0.1788 -0.4537 -0.0402
    1MOL0     C   44   1.793   5.766   6.211  0.2462  1.3636 -0.7151
    1MOL0    Cl   45   1.640   5.666   6.207  0.7378 -0.2582 -0.2779
    1MOL0     C   46   2.923   5.520   6.107  0.0209  0.3323 -1.1355
    1MOL0     C   47   3.044   5.452   6.080 -0.2189 -0.6207  0.4353
    1MOL0     O   48   3.285   5.500   5.933  0.5975  0.0353  0.7241
    1MOL0     C   49   3.528   5.344   5.874  0.4111 -0.9418  0.1244
    1MOL0     C   50   3.634   5.284   5.809 -0.3868  0.2512 -0.2272
    1MOL0     N   51   4.232   5.027   5.906 -0.2205 -0.9943  0.6107
    1MOL0     N   52   4.283   5.017   6.018  0.4187 -0.4989 -0.0368
    1MOL0     C   53   5.246   4.922   6.739  0.5462  0.9341  0.3178
    1MOL0     C   54   5.381   4.919   6.714 -0.6269  0.1485  0.6502
    1MOL0     C   55   5.756   4.908   6.495  0.4328  0.0008 -0.2331
    1MOL0     C   56   5.815   4.795   6.432 -0.5425 -1.1377 -0.1016
    1MOL0     C   57   5.952   4.792   6.398 -0.6997  0.5476  0.2674
    1MOL0     C   58   6.040   4.896   6.425 -0.0128 -0.3923  0.0780
    1MOL0     O   59   6.172   4.887   6.384  0.3498 -0.3459 -1.0089
    1MOL0     C   60   6.205   4.797   6.277 -1.5900 -0.0463  0.4300
    1MOL0     C   61   6.350   4.820   6.231  0.4004 -0.5327 -0.3295
    1MOL0     C   62   6.363   4.949   6.152 -0.5317 -0.0940 -0.5330
    1MOL0     C   63   6.344   5.082   6.223  0.8739 -0.4084 -0.9559
    1MOL0     C   64   6.423   5.099   6.350  0.6535  0.6173  0.5102
    1MOL0     C   65   6.504   5.086   6.441 -0.1946 -0.2628  0.6044
    1MOL0     C   66   5.994   4.995   6.500 -0.7285 -0.0963 -1.0177
    1MOL0     C   67   5.860   5.001   6.540  0.0710 -0.1590 -0.3877
    1MOL0     H   68   5.408   5.199   6.533 -0.0459 -1.7354 -1.8330
    1MOL0     H   69   5.159   5.194   6.572 -0.6523 -0.4080  0.2530
    1MOL0     H   70   5.014   4.810   6.705  0.3306  1.2326 -0.6358
    1MOL0     H   71   4.988   4.885   6.863  0.6446 -2.8706  0.1094
    1MOL0     H   72   4.795   4.792   6.784 -0.3520 -0.3677 -0.4502
    1MOL0     H   73   4.769   4.972   6.783 -1.4061 -0.3635  0.0051
    1MOL0     H   74   4.823   4.990   6.545 -0.7940  0.4576 -0.6741
    1MOL0     H   75   4.849   4.824   6.537  0.6342 -0.4652  2.0326
    1MOL0     H   76   4.601   4.794   6.604  0.9146 -0.5325 -0.2582
    1MOL0     H   77   4.592   4.975   6.607  0.4026 -0.7114  0.6703
    1MOL0     H   78   4.666   4.971   6.360  0.5057 -1.3715 -1.9979
    1MOL0     H   79   4.667   4.803   6.358  0.3006  0.4674 -2.0760
    1MOL0     H   80   4.434   4.776   6.412 -0.7434  0.0996 -0.5498
    1MOL0     H   81   4.415   4.946   6.445  0.5121 -0.3029  1.8261
    1MOL0     H   82   4.460   4.995   6.216  3.0092  0.5318  1.7794
    1MOL0     H   83   4.501   4.822   6.176 -2.2142 -1.4894 -0.6058
    1MOL0     H   84   4.238   4.913   6.283 -0.1617  0.4116 -0.5669
    1MOL0     H   85   4.278   4.746   6.224 -0.5928 -0.3782 -1.2210
    1MOL0     H   86   4.131   4.729   5.987 -0.9366 -0.1751 -2.1322
    1MOL0     H   87   4.140   4.954   5.666  0.1114 -0.4342  0.8108
    1MOL0     H   88   4.100   4.800   5.712  2.1505  0.4010 -0.1264
    1MOL0     H   89   3.931   5.038   5.809 -2.5170  0.4767 -1.0483
    1MOL0     H   90   3.892   4.863   5.820  1.3038  0.2204  1.2232
    1MOL0     H   91   3.876   4.856   5.565  3.1768  1.1584 -2.1231
    1MOL0     H   92   3.926   5.014   5.550  1.6311 -1.8687  1.1608
    1MOL0     H   93   3.661   4.937   5.666  0.1694  0.9837  1.6357
    1MOL0     H   94   3.697   5.011   5.504 -1.5929  1.9922 -0.3461
    1MOL0     H   95   3.479   5.108   5.572  0.6996  1.8216 -0.1263
    1MOL0     H   96   3.261   5.104   5.589  0.1592  1.1339 -0.1000
    1MOL0     H   97   3.192   5.109   5.747  1.8495 -0.4025  1.5606
    1MOL0     H   98   3.196   5.261   5.653 -1.1916 -0.6505 -1.1746
    1MOL0     H   99   2.960   5.296   5.796  0.6745  0.1585 -0.0885
    1MOL0     H  100   2.747   5.392   5.856  0.8654 -0.6137  0.1562
    1MOL0     H  101   2.656   5.554   6.242  0.3245 -0.3344 -0.8057
    1MOL0     H  102   2.725   5.700   6.176  0.2245 -0.1135  1.1607
    1MOL0     H  103   2.514   5.784   6.182  1.4018  0.5754 -1.6394
    1MOL0     H  104   2.521   5.716   6.022  0.2502  3.5079  0.5770
    1MOL0     H  105   2.404   5.550   6.251  0.1944  0.3988  0.9368
    1MOL0     H  106   2.372   5.536   6.078  0.0198  0.1450 -1.1706
    1MOL0     H  107   2.274   5.772   6.254 -0.5014  0.1485  0.2425
    1MOL0     H  108   2.293   5.780   6.086  1.5212  2.8473  1.8674
    1MOL0     H  109   2.141   5.573   6.256  1.0316  0.3073  0.9662
    1MOL0     H  110   2.123   5.571   6.079 -1.8673  2.1548 -1.1972
    1MOL0     H  111   2.065   5.831   6.236 -0.7456  0.3849 -0.4611
    1MOL0     H  112   2.012   5.765   6.077 -0.3358 -0.5149  0.0049
    1MOL0     H  113   1.927   5.660   6.351  1.5058  1.4839  0.0683
    1MOL0     H  114   1.894   5.574   6.207  0.2437 -1.2206  1.7448
    1MOL0     H  115   1.798   5.822   6.117  0.6888  2.7256  0.0883
    1MOL0     H  116   1.791   5.839   6.293  0.9138  0.9198 -0.2918
    1MOL0     H  117   2.916   5.588   6.192  1.9300  0.0400 -0.6896
    1MOL0     H  118   3.114   5.462   6.161 -0.0914  2.2943  0.0534
    1MOL0     H  119   3.549   5.415   5.954 -0.9505 -0.6711  0.2598
    1MOL0     H  120   3.732   5.309   5.848  0.9561 -1.8521 -1.9989
    1MOL0     H  121   5.211   4.832   6.788 -2.9409  1.5741 -0.7513
    1MOL0     H  122   5.417   4.823   6.749  1.8966  0.5560 -0.5853
    1MOL0     H  123   5.745   4.717   6.406 -1.7255  0.0846 -0.6920
    1MOL0     H  124   5.993   4.702   6.354  1.1250 -0.2492  3.2869
    1MOL0     H  125   6.198   4.693   6.307  0.4875 -0.8757 -1.6555
    1MOL0     H  126   6.146   4.810   6.186  0.6807  1.4212 -0.9552
    1MOL0     H  127   6.380   4.730   6.176  2.6651 -0.5397  0.8276
    1MOL0     H  128   6.423   4.823   6.312  0.3691 -1.5229 -0.2536
    1MOL0     H  129   6.294   4.957   6.067 -1.1705 -1.0751 -0.1289
    1MOL0     H  130   6.465   4.958   6.115  0.3247  1.0798  1.8943
    1MOL0     H  131   6.239   5.102   6.248  1.1508  2.1331 -1.4799
    1MOL0     H  132   6.369   5.165   6.156  2.3454 -1.0792 -1.2547
    1MOL0     H  133   6.585   5.048   6.501  1.4716  1.9356 -0.1056
    1MOL0     H  134   6.059   5.071   6.541 -0.1779 -0.9182 -0.3133
    1MOL0     H  135   5.827   5.090   6.592 -0.4921 -2.0253  2.7603
    2MOL0     O  136   5.010   5.835   6.209  0.2336 -0.2378  0.3657
    2MOL0     C  137   5.025   5.792   6.091  0.4490 -0.7471 -1.0820
    2MOL0     O  138   4.931   5.787   5.995 -0.5242  0.1453  0.2020
    2MOL0     C  139   4.806   5.833   6.023  0.3589 -0.9226  0.0502
    2MOL0     C  140   4.796   5.971   6.045  1.0224 -0.1064 -0.0104
    2MOL0     C  141   4.672   6.028   6.067 -0.1049 -0.5855  0.1401
    2MOL0     C  142   4.557   5.946   6.066 -0.0232  0.2491  0.0808
    2MOL0     O  143   4.428   5.986   6.061  0.6567 -0.2183  0.1564
    2MOL0     C  144   4.414   6.116   6.013 -0.2705  0.2820  0.6747
    2MOL0     C  145   4.285   6.174   6.058  0.1029 -0.7351 -0.7721
    2MOL0     C  146   4.249   6.168   6.205  0.6292  0.2862  0.3262
    2MOL0     C  147   4.100   6.189   6.239 -0.7640 -0.0533  0.8777
    2MOL0     C  148   4.066   6.197   6.385  0.5765  0.0891  0.0983
    2MOL0     C  149   3.920   6.195   6.418  0.2995  0.7931 -0.2279
    2MOL0     C  150   3.903   6.209   6.570  0.3278  0.8393  1.1784
    2MOL0     C  151   3.760   6.180   6.605  1.3026 -0.2906  0.6049
    2MOL0     N  152   3.701   6.242   6.722 -0.6337 -0.0821  0.4178
    2MOL0     C  153   3.662   6.371   6.720 -0.1689  0.0248  0.2802
    2MOL0     C  154   3.610   6.387   6.846 -0.0062 -0.5079 -0.1295
    2MOL0     C  155   3.554   6.513   6.902 -0.2568  0.2805  0.0302
    2MOL0     C  156   3.401   6.522   6.897  0.3336  0.4701  0.9934
    2MOL0     C  157   3.351   6.572   6.760  1.2590  0.2144  0.3516
    2MOL0     C  158   3.194   6.566   6.765  0.1128 -0.5734  0.8568
    2MOL0     O  159   3.152   6.609   6.627  1.0511 -0.0298 -0.0863
    2MOL0     C  160   3.032   6.665   6.590 -0.6618  0.0597  0.1834
    2MOL0     C  161   3.015   6.706   6.455 -0.4104 -0.3419  0.0352
    2MOL0     C  162   2.899   6.760   6.410  0.5126  0.8132 -0.2502
    2MOL0     C  163   2.890   6.795   6.259  0.2381  0.1497 -0.1780
    2MOL0     C  164   2.794   6.780   6.499 -0.2468 -0.9452  0.1347
    2MOL0     C  165   2.659   6.841   6.469 -0.1805 -0.2260  0.1761
    2MOL0     O  166   2.569   6.846   6.566 -0.0810  0.5267  0.4581
    2MOL0     C  167   2.440   6.879   6.539  0.3096  0.2917  0.3208
    2MOL0     C  168   2.389   6.997   6.480 -0.1370  0.4691  0.3836
    2MOL0     C  169   2.250   7.018   6.452 -0.0478 -0.2060 -0.5698
    2MOL0     C  170   2.155   6.912   6.466 -0.0168 -0.2922  0.3720
    2MOL0     O  171   2.021   6.922   6.427 -0.2168  0.7186  0.0698
    2MOL0     C  172   1.953   7.046   6.445 -0.3296  0.3930  0.6617
    2MOL0     C  173   1.808   7.030   6.424 -0.9643  0.5611  0.0456
    2MOL0     C  174   1.778   6.965   6.284 -0.5582 -0.0145  0.0841
    2MOL0     C  175   1.624   6.976   6.254  0.6344 -0.0320  0.8586
    2MOL0     C  176   1.542   6.856   6.313 -0.1976  0.2942 -0.5850
    2MOL0     C  177   1.393   6.876   6.292  0.2241 -0.3904 -0.6667
    2MOL0     C  178   1.315   6.783   6.388  0.3130 -0.0506 -0.2714
    2MOL0     C  179   1.175   6.831   6.386  0.4423  0.1116  0.2587
    2MOL0    Cl  180   1.082   6.822   6.226 -0.3351  0.0589  0.0029
    2MOL0     C  181   2.204   6.798   6.533  0.1996 -0.2812  0.0034
    2MOL0     C  182   2.343   6.780   6.570  0.6367  1.3011  0.1572
    2MOL0     O  183   2.640   6.880   6.350 -0.5517  0.2853  0.0338
    2MOL0     C  184   2.808   6.758   6.638 -0.3738 -0.0479 -0.5719
    2MOL0     C  185   2.929   6.698   6.688 -0.4060 -0.0007  0.8591
    2MOL0     N  186   3.609   6.267   6.917  0.1497  0.4738 -0.1861
    2MOL0     N  187   3.677   6.179   6.843  0.0429  0.5012 -0.6600
    2MOL0     C  188   4.573   5.814   6.048 -0.2488  0.3863  0.6281
    2MOL0     C  189   4.697   5.748   6.028 -0.0886  0.1102 -0.1421
    2MOL0     C  190   5.150   5.734   6.047  0.5151  0.1240 -0.7496
    2MOL0     C  191   5.270   5.769   6.097 -0.3659 -0.8100 -0.6864
    2MOL0     C  192   5.389   5.712   6.043 -0.4050  0.2274  0.5390
    2MOL0     C  193   5.389   5.614   5.947  0.0629 -0.7089 -0.5199
    2MOL0     O  194   5.502   5.584   5.873  0.8255 -0.5927  0.3118
    2MOL0     C  195   5.506   5.443   5.839 -0.1708 -0.7045 -0.0672
    2MOL0     C  196   5.647   5.394   5.813 -0.8307  0.2798 -0.0778
    2MOL0     C  197   5.709   5.350   5.952 -0.1073  0.5046 -0.3487
    2MOL0     C  198   5.851   5.297   5.927 -0.1499  0.4188 -0.7672
    2MOL0     C  199   5.909   5.237   6.042 -0.1371 -0.1209 -0.6198
    2MOL0     C  200   5.951   5.187   6.150  0.1775  0.8741 -0.4336
    2MOL0     C  201   5.262   5.582   5.893  0.2465  0.1682 -0.8507
    2MOL0     C  202   5.145   5.640   5.940  0.1881  0.5386  0.0929
    2MOL0     H  203   4.878   6.041   6.032 -0.6158  2.2609  1.5597
    2MOL0     H  204   4.683   6.134   6.089  3.5076 -0.8511  0.2038
    2MOL0     H  205   4.494   6.187   6.035  1.7562 -1.6769  0.0164
    2MOL0     H  206   4.410   6.108   5.904  2.6617  1.9287  0.3535
    2MOL0     H  207   4.276   6.278   6.027 -1.4145 -1.1260 -1.7576
    2MOL0     H  208   4.206   6.125   6.001  1.2352 -1.7260 -1.5358
    2MOL0     H  209   4.268   6.067   6.243 -0.3604 -0.7907 -1.8221
    2MOL0     H  210   4.310   6.243   6.256  4.3414 -2.0342 -0.3390
    2MOL0     H  211   4.064   6.280   6.189 -2.0327 -1.5308 -1.0858
    2MOL0     H  212   4.055   6.098   6.199 -1.6641  0.6131  0.3257
    2MOL0     H  213   4.107   6.115   6.445 -3.8279 -2.4476  0.0915
    2MOL0     H  214   4.097   6.296   6.421 -0.1722  0.3551  0.0378
    2MOL0     H  215   3.888   6.287   6.368  3.3751  1.7524 -0.6893
    2MOL0     H  216   3.858   6.115   6.377  1.9950 -0.6683 -0.0761
    2MOL0     H  217   3.957   6.136   6.630  0.7343 -0.6362 -0.8788
    2MOL0     H  218   3.929   6.310   6.604  2.7590  1.0103 -0.9269
    2MOL0     H  219   3.736   6.073   6.612  1.7224 -0.4950 -0.8621
    2MOL0     H  220   3.706   6.220   6.519  1.8780 -2.3519 -0.7942
    2MOL0     H  221   3.668   6.446   6.642  1.1282 -0.0580  0.2748
    2MOL0     H  222   3.582   6.513   7.007  1.3861 -1.0624 -0.3761
    2MOL0     H  223   3.599   6.600   6.852  2.0798 -1.2620 -0.7142
    2MOL0     H  224   3.373   6.587   6.981  0.1619  0.4116  0.9823
    2MOL0     H  225   3.362   6.421   6.910  0.9945  0.2272  1.0938
    2MOL0     H  226   3.392   6.518   6.675 -1.2324  2.1239 -2.2487
    2MOL0     H  227   3.380   6.675   6.739 -1.0757  0.6823 -0.9177
    2MOL0     H  228   3.159   6.632   6.844  0.1219 -0.2838  0.6167
    2MOL0     H  229   3.166   6.462   6.786 -0.1027 -0.7554 -0.2628
    2MOL0     H  230   3.093   6.678   6.385 -0.1131  1.4350 -0.3983
    2MOL0     H  231   2.978   6.754   6.209  0.4898  1.4455 -0.8443
    2MOL0     H  232   2.801   6.744   6.222 -0.1566 -0.5839  1.6799
    2MOL0     H  233   2.879   6.901   6.234 -0.1428  0.3712  0.8820
    2MOL0     H  234   2.458   7.080   6.468  2.0783 -0.6412  3.9913
    2MOL0     H  235   2.231   7.116   6.409 -0.5788  0.8722  1.9594
    2MOL0     H  236   1.970   7.078   6.549  0.1153  1.2317  0.3404
    2MOL0     H  237   1.988   7.115   6.367  0.7783  1.5202  2.0770
    2MOL0     H  238   1.773   6.981   6.515  0.2022 -0.3986  0.0049
    2MOL0     H  239   1.760   7.128   6.418 -1.3136  0.5544  2.1084
    2MOL0     H  240   1.813   6.862   6.280  1.6984  0.6917  0.1454
    2MOL0     H  241   1.827   7.025   6.207  0.7516  0.1190  0.9952
    2MOL0     H  242   1.583   7.071   6.290 -1.0593 -1.1071  1.8799
    2MOL0     H  243   1.621   6.978   6.145 -0.1552  2.9775  0.8215
    2MOL0     H  244   1.567   6.853   6.420 -1.7008 -2.0768 -0.2235
    2MOL0     H  245   1.576   6.763   6.267 -0.9604 -0.0993 -0.3538
    2MOL0     H  246   1.360   6.975   6.324 -0.2952 -0.4000 -1.1621
    2MOL0     H  247   1.371   6.870   6.185  1.3536  0.9879 -1.0029
    2MOL0     H  248   1.347   6.800   6.491 -2.3453  1.4173  0.4023
    2MOL0     H  249   1.324   6.676   6.370  2.3517 -0.0056  0.2393
    2MOL0     H  250   1.155   6.936   6.412 -2.2625  0.9314 -4.0226
    2MOL0     H  251   1.120   6.769   6.457 -0.3902  1.1380  0.5334
    2MOL0     H  252   2.131   6.723   6.558  2.3175 -2.6293 -0.4823
    2MOL0     H  253   2.382   6.693   6.620 -1.1351 -0.3689 -1.2052
    2MOL0     H  254   2.727   6.768   6.709 -0.7340 -2.2685 -0.6256
    2MOL0     H  255   2.944   6.682   6.794  0.8941 -3.5318  0.2841
    2MOL0     H  256   4.483   5.755   6.040 -0.9472  1.1917  2.1919
    2MOL0     H  257   4.705   5.642   6.008  0.7150 -0.1815  1.5338
    2MOL0     H  258   5.272   5.851   6.168  1.2190  0.6818 -2.3628
    2MOL0     H  259   5.483   5.746   6.085  0.0070 -1.3355  0.9329
    2MOL0     H  260   5.457   5.368   5.902 -1.1728 -0.7926 -0.9112
    2MOL0     H  261   5.461   5.431   5.740 -0.9572  2.4385 -0.1795
    2MOL0     H  262   5.713   5.460   5.756 -1.7860  2.3054  1.0470
    2MOL0     H  263   5.639   5.303   5.753 -2.4580  0.6850 -0.5043
    2MOL0     H  264   5.634   5.279   5.989  0.0200 -0.6303 -2.1503
    2MOL0     H  265   5.716   5.433   6.023 -0.5721 -0.4302  0.8304
    2MOL0     H  266   5.908   5.386   5.898 -0.1907  0.6784 -0.0699
    2MOL0     H  267   5.854   5.226   5.844  2.2045  0.3663 -0.6882
    2MOL0     H  268   5.967   5.139   6.244 -0.9416 -0.8923 -1.0986
    2MOL0     H  269   5.245   5.511   5.813  0.8069 -2.0494  0.9010
    2MOL0     H  270   5.054   5.601   5.896  0.5981 -3.0092  2.0367
    3MOL0     O  271   5.484   8.933   1.724  0.0652 -0.1356  0.5593
    3MOL0     C  272   5.534   9.016   1.648  0.2418  0.5184  0.0621
    3MOL0     O  273   5.493   9.061   1.537  0.2027  0.4893  0.6186
    3MOL0     C  274   5.359   9.046   1.505  0.7136 -0.0902  0.0241
    3MOL0     C  275   5.256   9.124   1.572 -0.0406 -0.1684  0.1699
    3MOL0     C  276   5.121   9.118   1.532 -0.9604 -0.7887  0.3450
    3MOL0     C  277   5.090   9.021   1.447 -0.7861 -0.4081 -0.3733
    3MOL0     O  278   4.961   9.001   1.426 -0.0397  0.0111  0.5260
    3MOL0     C  279   4.915   9.062   1.303  0.0525  0.6546 -1.2478
    3MOL0     C  280   4.766   9.046   1.284  0.6930  0.4723 -0.1967
    3MOL0     C  281   4.739   9.122   1.157 -0.4639 -0.9983  0.0428
    3MOL0     C  282   4.594   9.116   1.119 -0.3809  0.0329  0.3335
    3MOL0     C  283   4.563   9.204   0.997 -0.0869  0.2487  0.2034
    3MOL0     C  284   4.420   9.248   0.992  0.0174  0.9110  0.5069
    3MOL0     C  285   4.346   9.281   1.126 -0.2647 -0.0441  0.0583
    3MOL0     C  286   4.198   9.318   1.080 -1.0698  0.2884 -0.3255
    3MOL0     N  287   4.104   9.338   1.196  0.4932 -0.0187  0.7593
    3MOL0     C  288   3.967   9.345   1.190  0.5843  0.2375 -0.2700
    3MOL0     C  289   3.928   9.367   1.319  0.2710  1.5646 -0.3298
    3MOL0     C  290   3.789   9.398   1.364  0.6101 -0.1336  0.7840
    3MOL0     C  291   3.790   9.446   1.508  0.0809  0.0823  1.2546
    3MOL0     C  292   3.647   9.464   1.560 -0.2113  0.1954  0.0785
    3MOL0     C  293   3.652   9.507   1.704  0.8379 -0.2213 -1.0453
    3MOL0     O  294   3.582   9.404   1.777 -0.4013 -0.1019 -0.4386
    3MOL0     C  295   3.453   9.410   1.810 -0.0213 -0.4384  0.7957
    3MOL0     C  296   3.393   9.294   1.831  0.4883  0.9993  0.0923
    3MOL0     C  297   3.255   9.279   1.878 -1.0863 -0.3961 -0.1589
    3MOL0     C  298   3.207   9.140   1.923  0.6206 -0.6453  1.0152
    3MOL0     C  299   3.171   9.397   1.876  0.0535  0.3533 -0.6091
    3MOL0     C  300   3.024   9.405   1.923  0.3768 -0.0377  0.0975
    3MOL0     O  301   2.968   9.534   1.942  0.2437 -0.2735  1.1716
    3MOL0     C  302   2.840   9.529   1.980  0.0477 -0.3451 -0.0191
    3MOL0     C  303   2.743   9.531   1.886 -0.0529 -0.7988  0.4179
    3MOL0     C  304   2.609   9.542   1.920 -0.3407 -0.3246  0.7863
    3MOL0     C  305   2.575   9.551   2.056 -0.4187  0.1540  1.2952
    3MOL0     O  306   2.445   9.581   2.074 -0.3393 -0.1804  0.0332
    3MOL0     C  307   2.398   9.578   2.203  0.0279 -0.0609 -0.1574
    3MOL0     C  308   2.254   9.582   2.205  0.0164  1.3250 -0.3405
    3MOL0     C  309   2.204   9.584   2.348 -0.6584 -0.6465  0.2367
    3MOL0     C  310   2.047   9.549   2.337 -0.3270  0.2488  0.1207
    3MOL0     C  311   1.957   9.677   2.325 -1.5111 -0.1210 -0.7553
    3MOL0     C  312   1.947   9.774   2.446 -0.3888  0.5084  0.5399
    3MOL0     C  313   1.875   9.898   2.410  0.0350 -0.1463  0.1120
    3MOL0     C  314   1.732   9.881   2.371 -0.2301  0.5100 -0.6307
    3MOL0    Cl  315   1.657   9.781   2.504  0.3177 -0.4112 -0.0375
    3MOL0     C  316   2.674   9.551   2.157 -1.3183 -0.8404  0.8317
    3MOL0     C  317   2.810   9.541   2.111  0.3407 -0.0785 -0.3493
    3MOL0     O  318   2.964   9.302   1.930 -0.4241  0.0130  0.3389
    3MOL0     C  319   3.233   9.526   1.836  0.6977  0.5867 -0.1255
    3MOL0     C  320   3.369   9.529   1.814 -0.3693 -0.5131  0.4729
    3MOL0     N  321   4.045   9.374   1.400 -0.4454  0.0095  0.4504
    3MOL0     N  322   4.146   9.344   1.328  1.1089  0.0674  0.8529
    3MOL0     C  323   5.183   8.929   1.385  0.8718 -0.3674 -0.1567
    3MOL0     C  324   5.326   8.945   1.406 -0.0839  0.2892  0.4148
    3MOL0     C  325   5.667   9.048   1.693  0.3669 -1.2215  0.1378
    3MOL0     C  326   5.712   9.040   1.829  0.3869 -0.0594 -0.0526
    3MOL0     C  327   5.836   9.075   1.865 -0.1722 -0.9138 -0.5988
    3MOL0     C  328   5.929   9.118   1.763 -0.1103  0.4836 -0.0728
    3MOL0     O  329   6.059   9.143   1.809  0.7813  1.0038 -0.4698
    3MOL0     C  330   6.153   9.225   1.741 -0.2848 -0.9443 -0.1190
    3MOL0     C  331   6.281   9.214   1.817 -0.6237  0.4711 -0.1091
    3MOL0     C  332   6.390   9.303   1.764 -0.2969 -0.1086 -0.5702
    3MOL0     C  333   6.514   9.312   1.847  0.2382 -0.3772 -0.0555
    3MOL0     C  334   6.564   9.181   1.878 -0.6953 -1.1565  0.1535
    3MOL0     C  335   6.619   9.082   1.918 -0.3758 -0.4099 -0.5338
    3MOL0     C  336   5.891   9.128   1.629  0.3690  0.0863  0.2826
    3MOL0     C  337   5.763   9.094   1.597  0.4117 -0.2153  0.7075
    3MOL0     H  338   5.277   9.197   1.650  0.6795  1.4102 -1.4228
    3MOL0     H  339   5.045   9.182   1.577 -0.9239  0.9954 -1.9275
    3MOL0     H  340   4.943   9.167   1.316  2.4750 -0.1160  0.7396
    3MOL0     H  341   4.966   9.022   1.215  1.4396 -1.2744  0.3422
    3MOL0     H  342   4.750   8.938   1.269  1.5080 -0.1829  2.9005
    3MOL0     H  343   4.705   9.081   1.367  0.9345  0.5320 -0.0417
    3MOL0     H  344   4.780   9.223   1.172 -0.7709 -1.1223  1.9711
    3MOL0     H  345   4.797   9.079   1.074  1.1309 -0.1140  0.6471
    3MOL0     H  346   4.574   9.015   1.084 -1.6066  0.0339  1.0019
    3MOL0     H  347   4.540   9.141   1.211  0.1606 -1.5614  1.1193
    3MOL0     H  348   4.624   9.295   0.992 -3.9320  3.1839  1.2222
    3MOL0     H  349   4.598   9.153   0.907  2.0790 -0.3822  1.3404
    3MOL0     H  350   4.419   9.327   0.917  2.0867  0.5505  0.0215
    3MOL0     H  351   4.380   9.155   0.950 -0.5016  1.4255 -0.1374
    3MOL0     H  352   4.348   9.200   1.199  1.6712  0.2116  0.3370
    3MOL0     H  353   4.403   9.368   1.161  0.7241 -0.0268 -1.5133
    3MOL0     H  354   4.150   9.240   1.020 -0.4416 -0.5337  0.2199
    3MOL0     H  355   4.201   9.413   1.027  0.2215  0.8527  0.6937
    3MOL0     H  356   3.898   9.348   1.107  1.6955  1.6054 -1.1877
    3MOL0     H  357   3.754   9.485   1.309 -0.8461  0.7692  2.9837
    3MOL0     H  358   3.718   9.316   1.349  0.9728  0.0052 -2.4000
    3MOL0     H  359   3.850   9.538   1.508 -0.3001  0.4096 -0.9560
    3MOL0     H  360   3.837   9.365   1.564  0.3247 -1.1378 -0.6143
    3MOL0     H  361   3.587   9.373   1.549  1.7057 -1.5382  2.7521
    3MOL0     H  362   3.611   9.542   1.492 -0.5390 -0.7447 -0.8523
    3MOL0     H  363   3.602   9.603   1.721  2.4188  0.5547 -0.5830
    3MOL0     H  364   3.753   9.511   1.747 -0.3539  0.7112  1.9142
    3MOL0     H  365   3.447   9.203   1.811 -1.9395 -1.2934  2.9553
    3MOL0     H  366   3.292   9.078   1.954 -1.4149 -4.2309 -0.0206
    3MOL0     H  367   3.136   9.126   2.005 -3.2883  0.0120 -1.9511
    3MOL0     H  368   3.152   9.097   1.839  0.0367  0.6424  0.7096
    3MOL0     H  369   2.773   9.516   1.783  0.4935  1.4946  0.2035
    3MOL0     H  370   2.543   9.551   1.834 -0.1006 -2.3317  0.3424
    3MOL0     H  371   2.439   9.498   2.264  0.6331  2.5174  3.1458
    3MOL0     H  372   2.435   9.670   2.250 -1.7192  0.6959 -0.1519
    3MOL0     H  373   2.213   9.663   2.143 -0.0200  0.8130 -0.9877
    3MOL0     H  374   2.221   9.486   2.166  0.7665 -0.1273  2.3696
    3MOL0     H  375   2.216   9.687   2.383  0.3456 -1.4030  2.2558
    3MOL0     H  376   2.257   9.512   2.411  3.1392 -0.1996 -2.1365
    3MOL0     H  377   2.027   9.485   2.251  0.0300 -0.8196  0.8116
    3MOL0     H  378   2.016   9.507   2.433  0.0720 -2.7958 -0.9578
    3MOL0     H  379   1.851   9.653   2.311 -2.1837  2.3221 -0.3419
    3MOL0     H  380   1.990   9.726   2.233 -1.4610 -2.4255 -2.0135
    3MOL0     H  381   1.901   9.731   2.536 -1.3503  2.3375  0.9559
    3MOL0     H  382   2.045   9.812   2.476 -0.1429 -1.2698  2.2270
    3MOL0     H  383   1.935   9.943   2.330  0.9175 -0.0002  0.8359
    3MOL0     H  384   1.881   9.961   2.499 -0.9190 -2.5846  2.0384
    3MOL0     H  385   1.720   9.824   2.278 -0.5438  1.7991 -1.4117
    3MOL0     H  386   1.684   9.976   2.344  1.5338  1.9134  0.8746
    3MOL0     H  387   2.657   9.556   2.264  1.8004 -0.4697  1.3964
    3MOL0     H  388   2.893   9.552   2.180 -0.7079  1.0349  0.7843
    3MOL0     H  389   3.164   9.609   1.820 -0.6202 -0.6248 -1.0192
    3MOL0     H  390   3.411   9.626   1.787 -1.3497 -0.5697 -1.4418
    3MOL0     H  391   5.145   8.857   1.312  0.4472 -0.6216  0.3032
    3MOL0     H  392   5.401   8.884   1.357  0.5059 -0.3085  2.0194
    3MOL0     H  393   5.645   9.002   1.905 -1.2203  1.9891 -0.3722
    3MOL0     H  394   5.874   9.064   1.966  1.0769 -0.0262 -0.9404
    3MOL0     H  395   6.176   9.190   1.640  4.0720  0.5986  0.1626
    3MOL0     H  396   6.116   9.328   1.738 -1.0329 -1.2239 -1.0192
    3MOL0     H  397   6.312   9.109   1.822 -0.4901  0.4584 -1.1084
    3MOL0     H  398   6.263   9.250   1.919  5.1936  0.0136  1.4377
    3MOL0     H  399   6.355   9.407   1.755 -1.8278 -0.2372  2.6179
    3MOL0     H  400   6.428   9.279   1.664 -1.1581 -1.0963 -0.6800
    3MOL0     H  401   6.494   9.372   1.936  2.0567 -1.5970  1.2494
    3MOL0     H  402   6.591   9.371   1.796 -2.5569  2.5030 -1.2598
    3MOL0     H  403   6.671   8.998   1.960  1.8691  2.5432  3.2849
    3MOL0     H  404   5.962   9.156   1.552  2.2552 -0.5044  1.7360
    3MOL0     H  405   5.735   9.104   1.492  3.3108  1.0984 -0.0453
    4MOL0     O  406   2.099   0.943   0.790 -0.3806  0.6581 -0.0161
    4MOL0     C  407   2.212   0.904   0.748  0.1171 -0.0657  0.3486
    4MOL0     O  408   2.231   0.828   0.635  0.2876 -0.2624 -0.4085
    4MOL0     C  409   2.125   0.816   0.547  0.1851  0.2414 -0.1566
    4MOL0     C  410   2.002   0.760   0.567 -0.5774  0.2050 -0.1797
    4MOL0     C  411   1.903   0.760   0.467 -0.7328  0.0619 -0.3637
    4MOL0     C  412   1.914   0.839   0.352 -0.2747 -0.8205  0.0126
    4MOL0     O  413   1.827   0.848   0.246  0.7369  0.5900 -0.1327
    4MOL0     C  414   1.688   0.834   0.300  1.0817 -0.3085  0.3641
    4MOL0     C  415   1.591   0.917   0.204  0.0266 -0.1894  0.5331
    4MOL0     C  416   1.449   0.920   0.250 -0.7778 -0.7188  0.1580
    4MOL0     C  417   1.373   0.994   0.142  0.2671  0.0289 -0.3880
    4MOL0     C  418   1.223   0.984   0.164  0.8102  0.1015 -0.6940
    4MOL0     C  419   1.156   1.065   0.046 -0.1525  0.7855  0.0745
    4MOL0     C  420   1.005   1.097   0.072  0.2915 -0.8590  0.2406
    4MOL0     C  421   0.916   0.992   0.124  0.5832 -0.1517  0.4272
    4MOL0     N  422   0.778   1.044   0.142 -0.4088  0.4768  0.3772
    4MOL0     C  423   0.693   1.008   0.237  0.6767 -0.4507 -0.4288
    4MOL0     C  424   0.577   1.064   0.197 -0.4342  0.0441  1.1721
    4MOL0     C  425   0.435   1.056   0.248  0.6026 -0.1732 -0.8869
    4MOL0     C  426   0.333   0.983   0.163 -0.9317  0.5058  0.6352
    4MOL0     C  427   0.217   0.936   0.249 -0.7865 -0.5238  0.0360
    4MOL0     C  428   0.090   0.920   0.172  0.0906  0.3410 -0.0783
    4MOL0     O  429  -0.022   0.916   0.260 -0.2229 -0.0400 -0.7584
    4MOL0     C  430  -0.143   0.874   0.219 -0.0313 -1.0288 -1.0014
    4MOL0     C  431  -0.233   0.827   0.318  1.4497  0.3955 -0.3621
    4MOL0     C  432  -0.374   0.805   0.291  0.4710 -0.5880 -0.0951
    4MOL0     C  433  -0.454   0.737   0.404  0.6318 -0.6776 -0.6557
    4MOL0     C  434  -0.425   0.822   0.159 -1.2626  0.2103  0.1894
    4MOL0     C  435  -0.559   0.781   0.114  0.1075  0.2940  0.4325
    4MOL0     O  436  -0.650   0.742   0.204  0.2795  0.3291 -0.1903
    4MOL0     C  437  -0.786   0.742   0.177 -0.9955  0.3979  0.1393
    4MOL0     C  438  -0.867   0.658   0.257 -0.8393  0.2778  0.7263
    4MOL0     C  439  -1.008   0.651   0.236  0.1153 -0.0018 -0.6069
    4MOL0     C  440  -1.075   0.740   0.162  0.5305  0.1198  0.2931
    4MOL0     O  441  -1.211   0.741   0.137 -0.1695  0.2350  0.1290
    4MOL0     C  442  -1.290   0.850   0.191  0.3499 -0.5223 -0.1576
    4MOL0     C  443  -1.406   0.794   0.274 -0.1427  0.0146 -0.0661
    4MOL0     C  444  -1.505   0.890   0.316 -0.0876 -0.1610 -0.7212
    4MOL0     C  445  -1.637   0.826   0.366  0.4186  0.2653  0.0163
    4MOL0     C  446  -1.753   0.927   0.388  0.3102 -0.1789 -0.5640
    4MOL0     C  447  -1.868   0.849   0.449  1.0479  0.0163  0.3272
    4MOL0     C  448  -1.984   0.939   0.497 -0.3566  0.2339 -0.2151
    4MOL0     C  449  -2.115   0.849   0.500  0.2513 -0.2175  0.8705
    4MOL0    Cl  450  -2.094   0.698   0.578  0.1884 -0.0439  0.0789
    4MOL0     C  451  -0.994   0.831   0.097 -0.9048  0.1143  0.5336
    4MOL0     C  452  -0.854   0.837   0.097 -0.0869 -0.3971 -0.1664
    4MOL0     O  453  -0.576   0.776  -0.005 -0.5268  0.6991 -0.3316
    4MOL0     C  454  -0.321   0.854   0.060  0.4927 -0.1167  0.2796
    4MOL0     C  455  -0.194   0.887   0.095 -0.2489 -0.3915  0.9164
    4MOL0     N  456   0.601   1.143   0.082  0.2469  0.1640  0.0657
    4MOL0     N  457   0.719   1.129   0.048 -0.6543 -0.3210  0.1502
    4MOL0     C  458   2.042   0.890   0.320  0.4815 -0.4182 -0.8011
    4MOL0     C  459   2.152   0.873   0.418  0.3807 -0.1344  1.3065
    4MOL0     C  460   2.331   0.954   0.810 -1.1772  0.7067  0.3848
    4MOL0     C  461   2.448   0.974   0.731 -0.4266 -0.1210 -0.6507
    4MOL0     C  462   2.561   1.043   0.793  0.4226  0.0498 -0.0625
    4MOL0     C  463   2.556   1.088   0.926 -0.9644  0.1311 -0.8115
    4MOL0     O  464   2.663   1.151   0.984 -0.0024  0.4655 -0.0430
    4MOL0     C  465   2.742   1.065   1.066 -0.5470  0.1630 -0.1673
    4MOL0     C  466   2.888   1.080   1.053  0.2753 -0.6059  0.0429
    4MOL0     C  467   2.948   0.991   1.161 -0.0983  0.3027  0.5940
    4MOL0     C  468   3.097   1.022   1.163  0.3725  0.2836 -0.4071
    4MOL0     C  469   3.164   0.923   1.071  1.6543  0.2526 -0.9041
    4MOL0     C  470   3.218   0.848   0.998  0.0340  0.3931 -0.0404
    4MOL0     C  471   2.435   1.076   0.993  0.4303 -0.2900 -0.2448
    4MOL0     C  472   2.325   1.011   0.938 -0.4423  0.7854 -0.2764
    4MOL0     H  473   1.981   0.709   0.660  0.9276 -0.7307 -0.3251
    4MOL0     H  474   1.811   0.707   0.489 -0.9505  0.9852  1.0207
    4MOL0     H  475   1.656   0.730   0.291 -1.3597  0.5612 -3.3985
    4MOL0     H  476   1.678   0.870   0.403 -1.3727  1.2440 -0.3141
    4MOL0     H  477   1.633   1.018   0.202  0.7172 -0.4038  2.2148
    4MOL0     H  478   1.604   0.871   0.105 -1.4850  3.6473 -1.6533
    4MOL0     H  479   1.415   0.822   0.284  1.4767 -1.4299  0.5377
    4MOL0     H  480   1.451   0.989   0.334  2.5971 -2.8405  2.0176
    4MOL0     H  481   1.403   1.099   0.146 -2.3102  0.7702  1.3784
    4MOL0     H  482   1.400   0.954   0.044  2.8599  1.0697 -0.2012
    4MOL0     H  483   1.192   0.879   0.169 -2.2231  0.9147 -0.6072
    4MOL0     H  484   1.191   1.036   0.255  0.2476 -0.7137 -0.4135
    4MOL0     H  485   1.218   1.155   0.051 -0.0246  0.6305  3.9073
    4MOL0     H  486   1.165   1.025  -0.056 -2.0478  0.0716  0.1465
    4MOL0     H  487   0.997   1.179   0.143  0.2381  3.4837 -4.2512
    4MOL0     H  488   0.966   1.138  -0.021  0.3690 -0.9148  0.1831
    4MOL0     H  489   0.952   0.941   0.214  0.1845  2.3836  2.1426
    4MOL0     H  490   0.904   0.914   0.048  2.1827  0.7198 -0.7670
    4MOL0     H  491   0.689   0.952   0.330 -2.5641  1.4226  0.7361
    4MOL0     H  492   0.439   1.013   0.349  2.6624 -0.5928 -1.1136
    4MOL0     H  493   0.407   1.160   0.265 -2.7245 -1.2773  1.6628
    4MOL0     H  494   0.375   0.897   0.110 -2.2540  0.9957 -1.3012
    4MOL0     H  495   0.295   1.048   0.083  0.9858  0.3510 -0.4445
    4MOL0     H  496   0.201   1.004   0.334  2.7086 -0.8759  1.1076
    4MOL0     H  497   0.247   0.841   0.294 -1.2353 -0.4471  0.5160
    4MOL0     H  498   0.105   0.827   0.116  0.4599  1.0803 -1.2374
    4MOL0     H  499   0.082   0.999   0.096  1.6746 -0.3193 -0.9673
    4MOL0     H  500  -0.198   0.806   0.418 -2.4657  2.4118  1.6518
    4MOL0     H  501  -0.490   0.641   0.364 -0.6396 -1.2326  1.5931
    4MOL0     H  502  -0.405   0.717   0.500 -3.0764  1.7205  2.0423
    4MOL0     H  503  -0.542   0.798   0.426 -0.0682 -1.7577 -0.3469
    4MOL0     H  504  -0.816   0.590   0.325 -0.9154 -0.2872  0.2284
    4MOL0     H  505  -1.071   0.588   0.298 -1.0511 -0.1760 -1.9173
    4MOL0     H  506  -1.220   0.905   0.254 -1.0204  1.0226  0.0930
    4MOL0     H  507  -1.338   0.910   0.114  0.7389  0.4784  0.3609
    4MOL0     H  508  -1.459   0.713   0.222  1.2112 -0.6742 -0.4205
    4MOL0     H  509  -1.358   0.744   0.358  0.7993 -3.3132 -2.3687
    4MOL0     H  510  -1.522   0.957   0.232  4.7809  1.4450 -0.7506
    4MOL0     H  511  -1.461   0.959   0.389  0.7199 -0.1176 -1.2342
    4MOL0     H  512  -1.668   0.757   0.288 -2.6741  0.8875  0.5733
    4MOL0     H  513  -1.607   0.772   0.457 -1.7220  2.6278  2.2693
    4MOL0     H  514  -1.770   0.979   0.293 -1.3676 -0.4525 -0.4384
    4MOL0     H  515  -1.734   0.998   0.469 -4.5747  0.8585 -0.0181
    4MOL0     H  516  -1.911   0.789   0.367 -1.1640  0.5829  0.9902
    4MOL0     H  517  -1.831   0.793   0.535  0.4558 -3.7813 -1.6470
    4MOL0     H  518  -2.001   1.021   0.427  0.8028 -1.0734 -2.1102
    4MOL0     H  519  -1.957   0.979   0.595 -1.7560 -0.2686  0.4087
    4MOL0     H  520  -2.142   0.826   0.397 -0.3998  1.9797  0.5145
    4MOL0     H  521  -2.199   0.902   0.546 -0.6048 -0.2732 -0.5914
    4MOL0     H  522  -1.039   0.902   0.028 -0.5759  1.9406  2.1129
    4MOL0     H  523  -0.799   0.910   0.039  0.8148 -1.7665 -1.0910
    4MOL0     H  524  -0.367   0.855  -0.038  0.9173  2.8914  0.0223
    4MOL0     H  525  -0.126   0.927   0.021  1.5675 -1.9986  1.6353
    4MOL0     H  526   2.051   0.954   0.233 -0.1431  1.9317  0.7695
    4MOL0     H  527   2.249   0.915   0.391  0.3417 -1.2178 -0.8128
    4MOL0     H  528   2.457   0.948   0.626 -0.1630 -0.2013 -0.6094
    4MOL0     H  529   2.649   1.061   0.733  0.7490 -0.6534  0.1955
    4MOL0     H  530   2.726   1.095   1.170  0.8239  2.6417 -0.5909
    4MOL0     H  531   2.714   0.961   1.047  0.2399 -0.3458  1.2442
    4MOL0     H  532   2.897   1.187   1.073 -1.0437  0.2034 -3.0980
    4MOL0     H  533   2.925   1.054   0.953 -2.3500  2.1868 -1.8343
    4MOL0     H  534   2.919   0.888   1.142 -0.4934  0.7824 -1.7516
    4MOL0     H  535   2.908   1.016   1.260 -0.9320 -1.8188  0.8329
    4MOL0     H  536   3.126   1.007   1.267 -1.3718  0.6220  0.1686
    4MOL0     H  537   3.114   1.129   1.146  1.5052  0.2525  0.4032
    4MOL0     H  538   3.261   0.777   0.930  3.1645  1.2375  0.9433
    4MOL0     H  539   2.430   1.122   1.091 -3.0729 -0.7346 -0.1116
    4MOL0     H  540   2.231   0.990   0.988 -0.1320 -1.6337 -0.6113
    5MOL0     O  541  10.680   6.959   6.308 -0.5618 -0.0611 -0.0780
    5MOL0     C  542  10.772   7.047   6.295  0.6068  0.4401  0.1578
    5MOL0     O  543  10.748   7.182   6.271 -1.1115 -0.2718 -0.4488
    5MOL0     C  544  10.643   7.197   6.189  1.0002 -0.4988 -0.1880
    5MOL0     C  545  10.513   7.233   6.237 -0.7413 -0.4010  0.4290
    5MOL0     C  546  10.406   7.240   6.147  0.6028 -1.0846  0.3950
    5MOL0     C  547  10.419   7.194   6.012 -0.8606 -0.2685  0.7730
    5MOL0     O  548  10.305   7.190   5.937  0.2515  0.1231  0.2814
    5MOL0     C  549  10.290   7.090   5.829 -0.9470 -0.0726  0.1256
    5MOL0     C  550  10.142   7.070   5.810  0.1762  0.3448 -0.7841
    5MOL0     C  551  10.078   6.965   5.906  0.9900  0.6183 -0.9025
    5MOL0     C  552   9.928   6.977   5.893 -0.1364  0.7565 -0.1168
    5MOL0     C  553   9.854   6.880   5.988 -0.4758  0.2067  0.0766
    5MOL0     C  554   9.897   6.910   6.136 -0.0968 -0.5181 -0.0052
    5MOL0     C  555   9.806   6.836   6.233 -0.0589 -0.0190  0.4404
    5MOL0     C  556   9.659   6.866   6.236 -0.2305 -1.0027  0.1119
    5MOL0     N  557   9.602   6.775   6.336  0.8104 -0.4817  1.2321
    5MOL0     C  558   9.606   6.801   6.475  0.9128 -0.8358  0.9181
    5MOL0     C  559   9.533   6.701   6.522  0.3930  0.0616 -1.2116
    5MOL0     C  560   9.519   6.699   6.672  0.1367 -0.1576 -0.2756
    5MOL0     C  561   9.419   6.593   6.719  0.3053  0.1357  0.0682
    5MOL0     C  562   9.482   6.448   6.739  0.3843 -0.3521  0.2638
    5MOL0     C  563   9.393   6.335   6.786  0.4363 -0.5072 -0.1893
    5MOL0     O  564   9.291   6.377   6.884 -0.2003 -0.3502  0.4186
    5MOL0     C  565   9.196   6.286   6.926  1.0393  0.0025  0.6395
    5MOL0     C  566   9.077   6.334   6.993 -0.3800  0.4720 -0.4801
    5MOL0     C  567   8.983   6.246   7.054  1.0328 -0.2476 -0.0767
    5MOL0     C  568   8.861   6.305   7.122  0.1446 -0.2511  0.0386
    5MOL0     C  569   9.007   6.106   7.048  0.0724 -0.1487  0.7779
    5MOL0     C  570   8.914   6.005   7.115 -0.0881  0.6593 -0.5871
    5MOL0     O  571   8.821   6.034   7.199 -0.0295 -0.1197 -0.2514
    5MOL0     C  572   8.754   5.929   7.258  0.1829 -0.1795 -0.4637
    5MOL0     C  573   8.769   5.914   7.397 -0.5355  0.0743 -0.2359
    5MOL0     C  574   8.691   5.813   7.457 -0.1883 -0.0718 -0.8528
    5MOL0     C  575   8.594   5.741   7.387 -0.7466 -0.5697 -0.2880
    5MOL0     O  576   8.504   5.648   7.438  0.3922 -0.4551  0.0074
    5MOL0     C  577   8.484   5.646   7.580 -0.2411 -0.2983  0.0625
    5MOL0     C  578   8.414   5.765   7.647 -0.5583 -0.3379 -0.2273
    5MOL0     C  579   8.269   5.793   7.595 -0.6964 -0.0134  0.3325
    5MOL0     C  580   8.208   5.897   7.695 -0.7170 -0.5267 -0.3768
    5MOL0     C  581   8.066   5.932   7.650 -0.9451  0.3829 -1.2624
    5MOL0     C  582   8.001   6.009   7.768  0.1418  0.7932 -0.4975
    5MOL0     C  583   7.856   6.059   7.745 -0.8873  0.4695  0.0666
    5MOL0     C  584   7.755   5.948   7.718 -0.1810 -0.2221 -0.7354
    5MOL0    Cl  585   7.727   5.876   7.864 -0.4611 -0.5037  0.1679
    5MOL0     C  586   8.583   5.759   7.249 -0.2704 -0.0973 -0.3801
    5MOL0     C  587   8.663   5.856   7.183 -0.5879  0.5343 -0.9378
    5MOL0     O  588   8.931   5.896   7.054  0.5262  0.1577 -0.0235
    5MOL0     C  589   9.116   6.067   6.965  0.1873  0.1945 -0.1797
    5MOL0     C  590   9.203   6.153   6.913  0.9442  0.4790  0.0216
    5MOL0     N  591   9.470   6.628   6.421 -0.6723 -0.6984  0.0313
    5MOL0     N  592   9.515   6.676   6.307  0.0070  0.2231  0.7450
    5MOL0     C  593  10.546   7.150   5.976  1.0364 -0.0768 -0.1090
    5MOL0     C  594  10.654   7.162   6.061 -0.9124 -0.0530  0.4945
    5MOL0     C  595  10.912   6.991   6.310  0.4170 -0.2735 -0.2577
    5MOL0     C  596  10.926   6.868   6.379  0.3107  0.3261  0.4823
    5MOL0     C  597  11.048   6.805   6.379  0.1032  0.8609 -0.2142
    5MOL0     C  598  11.161   6.862   6.324  0.8806 -0.3513  0.2006
    5MOL0     O  599  11.277   6.791   6.325  0.0020  0.0311 -0.4664
    5MOL0     C  600  11.402   6.852   6.281  0.6259  0.2882 -0.4300
    5MOL0     C  601  11.535   6.776   6.302  0.6544 -0.1646 -0.1063
    5MOL0     C  602  11.654   6.854   6.252  0.2845 -0.6447 -0.0639
    5MOL0     C  603  11.686   6.993   6.320  0.8253  0.7990  0.1799
    5MOL0     C  604  11.804   7.053   6.263  0.0883 -0.1599  0.9333
    5MOL0     C  605  11.895   7.113   6.219 -0.0280 -0.2906  0.2510
    5MOL0     C  606  11.149   6.982   6.254 -0.0808 -0.4575  0.3726
    5MOL0     C  607  11.026   7.053   6.252  0.0997 -0.1027  0.4766
    5MOL0     H  608  10.502   7.265   6.340  0.9383 -0.4177  0.6374
    5MOL0     H  609  10.309   7.267   6.188 -0.1260 -1.8257 -0.7857
    5MOL0     H  610  10.347   7.122   5.741  0.1172 -1.1293  0.4158
    5MOL0     H  611  10.331   6.995   5.865 -3.4102 -1.6141 -0.8357
    5MOL0     H  612  10.101   7.169   5.831 -0.5753 -0.1831  0.3272
    5MOL0     H  613  10.120   7.043   5.706  1.3537 -0.9149 -0.7274
    5MOL0     H  614  10.112   6.864   5.880 -1.0829 -0.3958  0.1150
    5MOL0     H  615  10.107   6.981   6.010 -5.3214 -1.2921  1.5822
    5MOL0     H  616   9.912   7.079   5.931  0.4891  0.3469  1.3170
    5MOL0     H  617   9.895   6.962   5.790 -1.4152 -0.7936  0.4718
    5MOL0     H  618   9.748   6.899   5.966  0.4120  1.0876 -4.4279
    5MOL0     H  619   9.872   6.775   5.962 -1.1052  0.1828 -0.3004
    5MOL0     H  620   9.999   6.875   6.149  0.2035 -0.2463 -1.4503
    5MOL0     H  621   9.889   7.016   6.161  2.8210 -0.1982 -0.0863
    5MOL0     H  622   9.801   6.729   6.209 -0.3639  0.2348 -0.6564
    5MOL0     H  623   9.848   6.841   6.334 -0.1581 -1.1051  0.5564
    5MOL0     H  624   9.616   6.850   6.137  0.6864  1.8863 -0.8429
    5MOL0     H  625   9.658   6.972   6.264  1.8975 -1.0807  0.6514
    5MOL0     H  626   9.660   6.878   6.529  0.6792 -0.4529  0.6201
    5MOL0     H  627   9.622   6.680   6.704  0.3874  2.5675  0.7522
    5MOL0     H  628   9.498   6.801   6.706 -0.9608  0.5952 -2.9126
    5MOL0     H  629   9.337   6.599   6.647 -0.1832  0.0575  0.6098
    5MOL0     H  630   9.398   6.635   6.818  0.3279 -0.0033  0.1322
    5MOL0     H  631   9.559   6.460   6.815 -0.2005 -0.2666  0.8524
    5MOL0     H  632   9.531   6.424   6.644 -0.1137 -2.3722  0.4679
    5MOL0     H  633   9.460   6.258   6.826 -0.4465 -0.2287  1.9370
    5MOL0     H  634   9.339   6.285   6.706 -0.5751  0.4904 -0.1528
    5MOL0     H  635   9.064   6.441   7.004  3.3690  0.9274  0.9912
    5MOL0     H  636   8.869   6.273   7.226  2.6995  0.1046  0.0090
    5MOL0     H  637   8.875   6.414   7.121 -2.1024  0.1264 -2.8574
    5MOL0     H  638   8.766   6.274   7.078 -1.0112  0.3246  1.9917
    5MOL0     H  639   8.840   5.970   7.458 -1.9781  2.7677 -0.8563
    5MOL0     H  640   8.711   5.811   7.564 -1.1741  1.8976 -0.5822
    5MOL0     H  641   8.431   5.553   7.602 -0.7574 -0.1836 -0.6499
    5MOL0     H  642   8.580   5.634   7.630 -1.1907 -0.7392  1.8630
    5MOL0     H  643   8.412   5.741   7.753  1.6800 -0.7478 -0.2257
    5MOL0     H  644   8.475   5.856   7.640 -2.7327  1.0925 -1.6008
    5MOL0     H  645   8.208   5.703   7.586 -0.2514 -0.2824 -0.0643
    5MOL0     H  646   8.285   5.833   7.494 -0.9064 -1.9759 -0.5186
    5MOL0     H  647   8.209   5.844   7.790 -1.8904  2.2964  1.3533
    5MOL0     H  648   8.278   5.981   7.706 -0.6225 -0.8178  1.5231
    5MOL0     H  649   8.013   5.839   7.628 -1.2731  0.4170 -0.6580
    5MOL0     H  650   8.075   5.994   7.560  0.3772  2.4558  0.2130
    5MOL0     H  651   7.999   5.954   7.863  3.7017 -1.3136 -1.4634
    5MOL0     H  652   8.069   6.095   7.774  0.8048  0.2051  0.9433
    5MOL0     H  653   7.866   6.136   7.668  1.1908 -0.1355 -0.3169
    5MOL0     H  654   7.825   6.108   7.838 -0.2808  0.7960  0.1031
    5MOL0     H  655   7.798   5.879   7.644  3.1779  0.2167  0.6061
    5MOL0     H  656   7.664   5.988   7.673 -0.7843 -1.4270 -0.6364
    5MOL0     H  657   8.507   5.705   7.195  2.7890 -1.9310 -3.2412
    5MOL0     H  658   8.651   5.864   7.075 -1.7121  1.4092 -0.7676
    5MOL0     H  659   9.127   5.963   6.936 -1.6911  0.5141 -2.2872
    5MOL0     H  660   9.284   6.103   6.860  0.4336 -0.6584  0.2693
    5MOL0     H  661  10.558   7.112   5.875 -3.9318 -0.2578 -0.8997
    5MOL0     H  662  10.751   7.141   6.017 -1.4657  1.0631 -1.3491
    5MOL0     H  663  10.848   6.816   6.434  0.7268  1.0944  1.8514
    5MOL0     H  664  11.082   6.717   6.432 -0.2152  0.6755 -0.3173
    5MOL0     H  665  11.401   6.897   6.181 -0.6095  2.0764  0.3422
    5MOL0     H  666  11.416   6.946   6.334 -0.8350  2.0470 -2.9491
    5MOL0     H  667  11.535   6.679   6.253 -0.3189  0.8612 -2.2783
    5MOL0     H  668  11.552   6.757   6.408  2.2905  0.0673 -0.3058
    5MOL0     H  669  11.639   6.880   6.146 -1.3188  1.8709  0.6832
    5MOL0     H  670  11.743   6.794   6.269 -1.3424 -2.8441  1.1976
    5MOL0     H  671  11.695   6.983   6.429  0.4488  0.5884  0.1932
    5MOL0     H  672  11.602   7.058   6.298 -1.8878 -2.2768  0.6719
    5MOL0     H  673  11.976   7.173   6.182 -1.7234  1.1992 -1.2636
    5MOL0     H  674  11.233   7.030   6.205 -0.6843  0.5565  0.2821
    5MOL0     H  675  11.031   7.136   6.182  2.9077  1.8110  2.6845
    6MOL0     O  676   1.335  10.863   3.014 -0.5123 -0.1545 -0.6786
    6MOL0     C  677   1.418  10.919   2.940  0.6914 -0.6175 -0.6066
    6MOL0     O  678   1.388  11.025   2.858 -0.0365  0.6552  0.8688
    6MOL0     C  679   1.269  11.091   2.867  0.2887  0.5194 -0.0247
    6MOL0     C  680   1.212  11.143   2.982 -0.2341  0.6628  0.0478
    6MOL0     C  681   1.096  11.216   2.983 -0.0527 -0.1171  0.3323
    6MOL0     C  682   1.037  11.238   2.856  1.2383 -0.0571  0.7734
    6MOL0     O  683   0.949  11.338   2.835 -0.0239  0.4211 -0.0104
    6MOL0     C  684   0.937  11.434   2.945 -0.4243 -0.2494 -0.1988
    6MOL0     C  685   0.843  11.554   2.907  0.6803 -0.1657 -0.1468
    6MOL0     C  686   0.837  11.653   3.019 -0.1076 -0.5584  0.4492
    6MOL0     C  687   0.729  11.753   2.993 -0.6483 -0.3900  0.0850
    6MOL0     C  688   0.731  11.871   3.104  0.3555  0.0752  0.3540
    6MOL0     C  689   0.597  11.946   3.089  0.4130  0.5251  0.1766
    6MOL0     C  690   0.604  12.070   3.173  0.4304 -0.1812 -0.2058
    6MOL0     C  691   0.483  12.174   3.164 -0.2796 -1.0745 -0.0789
    6MOL0     N  692   0.489  12.284   3.259 -0.5153  0.0591 -0.7549
    6MOL0     C  693   0.485  12.274   3.393 -0.8315  1.0333  0.2171
    6MOL0     C  694   0.515  12.403   3.444 -0.9467  0.7074  0.2296
    6MOL0     C  695   0.534  12.453   3.585 -0.5280  0.3656 -0.0173
    6MOL0     C  696   0.617  12.347   3.659  0.6053 -0.2729 -0.5212
    6MOL0     C  697   0.657  12.394   3.801  0.0165 -0.1431  0.1335
    6MOL0     C  698   0.527  12.430   3.887  0.0256 -0.6682 -0.1463
    6MOL0     O  699   0.493  12.574   3.864  0.1900 -0.1536 -0.5212
    6MOL0     C  700   0.385  12.617   3.932 -0.0736 -0.4130  0.6857
    6MOL0     C  701   0.314  12.540   4.025 -0.0025  0.4462  0.5680
    6MOL0     C  702   0.213  12.593   4.105  0.1266  0.0944  0.8154
    6MOL0     C  703   0.160  12.499   4.212  0.2374  0.0605 -0.4800
    6MOL0     C  704   0.162  12.721   4.075 -0.1077 -0.0151  0.7805
    6MOL0     C  705   0.036  12.782   4.143  0.2299  0.0249 -0.0590
    6MOL0     O  706  -0.044  12.713   4.228 -0.0442 -0.1446  0.4931
    6MOL0     C  707  -0.103  12.793   4.323  0.2963 -0.2448 -0.1614
    6MOL0     C  708  -0.032  12.822   4.440 -0.4138 -0.4642  0.1261
    6MOL0     C  709  -0.086  12.901   4.542 -0.7899 -0.6222  0.7858
    6MOL0     C  710  -0.210  12.964   4.522  0.3780 -0.0635  0.4598
    6MOL0     O  711  -0.254  13.056   4.617 -0.2968 -0.4679 -0.3033
    6MOL0     C  712  -0.326  13.172   4.577  0.4459 -0.8706 -0.0225
    6MOL0     C  713  -0.366  13.253   4.706 -0.7927 -0.2307  0.9146
    6MOL0     C  714  -0.500  13.326   4.682  0.3596 -0.5568 -0.2740
    6MOL0     C  715  -0.612  13.225   4.711 -0.2392 -0.2351  0.9682
    6MOL0     C  716  -0.758  13.292   4.696 -0.3545  0.4533 -0.3855
    6MOL0     C  717  -0.765  13.434   4.745  0.0417 -0.2403  0.1816
    6MOL0     C  718  -0.901  13.475   4.785  1.2601  0.4727  0.4507
    6MOL0     C  719  -0.988  13.467   4.660  0.4927  0.0578  0.0991
    6MOL0    Cl  720  -1.141  13.534   4.689  0.1609  0.0205  0.2933
    6MOL0     C  721  -0.284  12.937   4.408  0.6896 -0.2681 -0.9339
    6MOL0     C  722  -0.226  12.853   4.308 -0.1327 -0.0836 -0.5502
    6MOL0     O  723   0.031  12.902   4.127  0.1910  0.7616 -0.1718
    6MOL0     C  724   0.235  12.797   3.978 -0.6682 -0.4818 -0.3505
    6MOL0     C  725   0.351  12.749   3.910 -0.3918 -0.0353  0.9712
    6MOL0     N  726   0.545  12.485   3.339  0.1715 -0.4583  0.3626
    6MOL0     N  727   0.522  12.415   3.224 -0.3218  0.5042  0.0471
    6MOL0     C  728   1.086  11.173   2.740 -0.5182 -0.2053 -0.3691
    6MOL0     C  729   1.202  11.106   2.751 -0.3457  0.5359  0.8615
    6MOL0     C  730   1.559  10.875   2.945 -0.5641 -0.3748 -0.0587
    6MOL0     C  731   1.660  10.933   2.869 -0.1251 -0.7436 -0.1446
    6MOL0     C  732   1.796  10.900   2.883 -0.0096 -0.5971  0.3153
    6MOL0     C  733   1.835  10.797   2.970 -0.0723  0.4126 -0.2244
    6MOL0     O  734   1.972  10.755   2.985  0.4983  0.3978  0.1427
    6MOL0     C  735   2.009  10.689   3.103  0.0740  0.0147 -0.4525
    6MOL0     C  736   2.157  10.671   3.123 -0.9000  0.5293  0.3596
    6MOL0     C  737   2.222  10.599   3.010 -0.4214 -0.0199 -0.5316
    6MOL0     C  738   2.207  10.443   3.003 -0.5702  0.9751  0.7436
    6MOL0     C  739   2.266  10.374   2.886  0.8875 -0.1531  0.6159
    6MOL0     C  740   2.308  10.326   2.783  0.3479 -0.5173  0.0958
    6MOL0     C  741   1.731  10.729   3.043 -0.6619 -0.3039  1.1686
    6MOL0     C  742   1.598  10.773   3.027  0.9492  0.2301  0.3015
    6MOL0     H  743   1.277  11.130   3.068 -0.0677  1.8237  0.1090
    6MOL0     H  744   1.058  11.262   3.074  3.9655  1.7801  1.2825
    6MOL0     H  745   0.901  11.392   3.039  2.2285 -0.7567  0.6730
    6MOL0     H  746   1.039  11.473   2.956 -0.8437  0.5449  1.1744
    6MOL0     H  747   0.882  11.600   2.816 -2.7235  1.3922 -0.9674
    6MOL0     H  748   0.747  11.511   2.877  1.3138 -1.6519 -0.1436
    6MOL0     H  749   0.808  11.604   3.112  0.6535  1.0263  1.5742
    6MOL0     H  750   0.930  11.711   3.029  1.0039 -2.5665  2.7740
    6MOL0     H  751   0.742  11.798   2.894  0.9137  2.7756  1.5478
    6MOL0     H  752   0.635  11.697   3.002 -0.9052  0.1066  0.6575
    6MOL0     H  753   0.733  11.833   3.206 -0.3876  0.8607  0.6692
    6MOL0     H  754   0.822  11.930   3.086 -0.7222  1.1018 -2.2974
    6MOL0     H  755   0.572  11.973   2.986 -1.8942  1.9755  1.0336
    6MOL0     H  756   0.524  11.877   3.133  1.4042  0.9627  2.6903
    6MOL0     H  757   0.604  12.040   3.279 -1.2426  0.8331  0.1108
    6MOL0     H  758   0.696  12.122   3.144  0.5847 -0.7261 -0.6913
    6MOL0     H  759   0.384  12.129   3.177 -1.2559  1.2964  1.4471
    6MOL0     H  760   0.487  12.207   3.060 -2.0043 -0.0149  0.1447
    6MOL0     H  761   0.461  12.186   3.451 -0.6051  2.1029  2.0029
    6MOL0     H  762   0.583  12.549   3.603 -1.7870  0.9849  0.2030
    6MOL0     H  763   0.434  12.465   3.626 -0.5562  3.5320 -0.7516
    6MOL0     H  764   0.705  12.312   3.605  1.1077 -2.8355  1.7838
    6MOL0     H  765   0.560  12.254   3.668 -2.4445  1.5561  0.7073
    6MOL0     H  766   0.713  12.488   3.803 -2.4581  1.4188 -0.2985
    6MOL0     H  767   0.708  12.315   3.856 -1.0078  0.2530  1.7107
    6MOL0     H  768   0.550  12.420   3.994 -2.6636  0.7691  0.6597
    6MOL0     H  769   0.442  12.371   3.853  0.0779 -1.4428  0.9921
    6MOL0     H  770   0.337  12.438   4.053  1.3334  0.5806  0.0316
    6MOL0     H  771   0.224  12.411   4.222  0.8243  0.7019  2.0213
    6MOL0     H  772   0.164  12.547   4.310  1.4598  0.2657 -0.6195
    6MOL0     H  773   0.059  12.462   4.193 -0.2346  2.1772 -2.5570
    6MOL0     H  774   0.062  12.774   4.465  0.2758  1.1514  0.7756
    6MOL0     H  775  -0.019  12.921   4.625  0.0393 -0.7693  0.1670
    6MOL0     H  776  -0.276  13.229   4.499  0.8299 -1.3417 -0.1270
    6MOL0     H  777  -0.417  13.141   4.525  0.3356  1.1970 -1.1644
    6MOL0     H  778  -0.361  13.194   4.799  1.3159 -0.7047  0.5742
    6MOL0     H  779  -0.285  13.327   4.711 -1.1030  0.7973 -3.9877
    6MOL0     H  780  -0.505  13.358   4.577 -1.8915  0.1353  0.0099
    6MOL0     H  781  -0.504  13.408   4.754 -1.3103 -1.9447  1.2971
    6MOL0     H  782  -0.608  13.145   4.637 -1.6382 -1.2679  1.9443
    6MOL0     H  783  -0.601  13.176   4.808 -0.3137  0.2285  1.2141
    6MOL0     H  784  -0.820  13.237   4.767 -0.5396  1.4999  0.2798
    6MOL0     H  785  -0.810  13.278   4.601 -2.0678 -3.3288  0.8981
    6MOL0     H  786  -0.715  13.432   4.842 -0.3579 -1.8653  0.3703
    6MOL0     H  787  -0.721  13.506   4.674  2.2132 -1.2632  0.4060
    6MOL0     H  788  -0.917  13.577   4.821 -3.9148 -0.4656  1.6462
    6MOL0     H  789  -0.949  13.411   4.860  3.6804  1.0238  2.6001
    6MOL0     H  790  -1.020  13.365   4.636 -1.7766  0.8229 -0.3326
    6MOL0     H  791  -0.950  13.510   4.566 -0.4890  1.8850  0.4958
    6MOL0     H  792  -0.382  12.982   4.396  0.6194  0.3351  1.4475
    6MOL0     H  793  -0.284  12.827   4.220  0.1825  0.4139 -0.9045
    6MOL0     H  794   0.202  12.897   3.952 -0.4087 -0.6036 -1.1876
    6MOL0     H  795   0.407  12.804   3.835 -1.5516 -0.3044 -0.1293
    6MOL0     H  796   1.037  11.197   2.646  0.3259  2.9732 -0.1231
    6MOL0     H  797   1.246  11.053   2.667 -1.1284 -1.6526  1.7326
    6MOL0     H  798   1.625  11.011   2.802  2.2274 -0.6840 -1.3886
    6MOL0     H  799   1.867  10.950   2.818 -0.7621 -0.2625 -0.2597
    6MOL0     H  800   1.959  10.734   3.188 -0.0537 -1.1792  0.1257
    6MOL0     H  801   1.975  10.585   3.106  3.7963 -1.3488 -0.6980
    6MOL0     H  802   2.181  10.620   3.216  0.7225  2.5674  1.1456
    6MOL0     H  803   2.186  10.776   3.135  0.4955  0.0918  0.9847
    6MOL0     H  804   2.327  10.628   3.012 -0.1840 -0.7610 -1.3667
    6MOL0     H  805   2.182  10.633   2.914 -1.2795 -1.5007 -0.7384
    6MOL0     H  806   2.102  10.413   2.997 -1.1178  3.0085 -0.9784
    6MOL0     H  807   2.243  10.395   3.095 -3.2973  1.2305  2.0708
    6MOL0     H  808   2.352  10.287   2.693 -1.2935 -1.1158 -0.4716
    6MOL0     H  809   1.747  10.645   3.109 -1.4427 -1.1696  0.2891
    6MOL0     H  810   1.519  10.718   3.077  0.7560  0.3725  0.1550
    7MOL0     O  811   5.250   9.964   5.434 -0.6393 -0.6162 -0.2837
    7MOL0     C  812   5.257   9.844   5.466  0.0560  0.0774 -0.6674
    7MOL0     O  813   5.147   9.761   5.501  0.0188 -0.0500 -0.3766
    7MOL0     C  814   5.019   9.809   5.508 -0.2851 -0.5117  0.2297
    7MOL0     C  815   4.942   9.791   5.618  0.1630  0.2082  0.6778
    7MOL0     C  816   4.804   9.837   5.610 -0.4300 -0.0651 -0.6818
    7MOL0     C  817   4.761   9.912   5.495 -0.0975  0.6878 -0.8934
    7MOL0     O  818   4.630   9.953   5.473 -0.1565  0.2141  0.0551
    7MOL0     C  819   4.519   9.912   5.572  0.3337 -0.4192  0.9093
    7MOL0     C  820   4.395  10.006   5.569  0.2842  0.4427  0.1171
    7MOL0     C  821   4.337  10.029   5.433  0.0734 -0.0039 -0.6207
    7MOL0     C  822   4.197  10.092   5.442  0.9662 -0.2336 -0.2985
    7MOL0     C  823   4.134  10.099   5.300  0.5571 -0.9155 -1.0632
    7MOL0     C  824   3.996  10.153   5.310  0.0925 -0.1615 -0.2705
    7MOL0     C  825   3.899  10.129   5.196  0.9386 -0.5033  0.6600
    7MOL0     C  826   3.921  10.209   5.068 -0.1551 -0.1813  0.7252
    7MOL0     N  827   3.799  10.232   4.980  0.2311  0.0007 -0.7294
    7MOL0     C  828   3.672  10.273   5.019  1.0651  0.6454 -0.0097
    7MOL0     C  829   3.604  10.303   4.910 -0.2788  0.2189  0.5313
    7MOL0     C  830   3.454  10.339   4.899  0.0424  1.4712 -1.1985
    7MOL0     C  831   3.375  10.273   4.791 -0.0497 -0.5709 -0.0211
    7MOL0     C  832   3.425  10.307   4.647 -0.0081 -0.1681  0.1135
    7MOL0     C  833   3.491  10.194   4.571 -0.6112 -0.5819 -0.1121
    7MOL0     O  834   3.481  10.224   4.432 -0.5918 -0.0426  0.3459
    7MOL0     C  835   3.585  10.304   4.375 -1.4450 -0.7983 -0.4955
    7MOL0     C  836   3.681  10.379   4.441  0.0021 -0.5399 -0.2729
    7MOL0     C  837   3.769  10.471   4.378  0.5914 -0.1704  0.7456
    7MOL0     C  838   3.856  10.554   4.474 -0.4571  0.5729  0.3809
    7MOL0     C  839   3.759  10.486   4.236  0.2186 -0.5968 -0.0628
    7MOL0     C  840   3.864  10.565   4.158  0.7050 -0.3109 -0.7100
    7MOL0     O  841   3.862  10.551   4.022  0.4562  0.5719 -1.1409
    7MOL0     C  842   3.961  10.603   3.948  0.8770  0.3364 -0.2632
    7MOL0     C  843   3.961  10.735   3.919  0.1176 -0.2028  0.0319
    7MOL0     C  844   4.063  10.791   3.838  0.2119  0.4010  0.2052
    7MOL0     C  845   4.164  10.710   3.789 -0.1896  0.8086 -0.5268
    7MOL0     O  846   4.253  10.782   3.707 -0.6571  0.7298 -0.1037
    7MOL0     C  847   4.393  10.759   3.720  0.5330  0.4001 -0.1909
    7MOL0     C  848   4.461  10.826   3.601  0.2837  0.1549  0.1937
    7MOL0     C  849   4.610  10.843   3.620  0.1903  0.7205 -0.5749
    7MOL0     C  850   4.670  10.873   3.486 -0.1964 -0.4286 -0.3409
    7MOL0     C  851   4.827  10.890   3.494 -0.1839 -0.6787 -0.0118
    7MOL0     C  852   4.889  10.934   3.363  0.2493  0.2875  0.2422
    7MOL0     C  853   4.862  11.080   3.320 -0.4305  0.7658 -0.4885
    7MOL0     C  854   4.935  11.104   3.185  0.1216 -0.4873 -0.3680
    7MOL0    Cl  855   4.939  11.282   3.174  0.2514 -0.2962  0.2420
    7MOL0     C  856   4.162  10.568   3.814  0.4278  0.2266  0.3626
    7MOL0     C  857   4.056  10.510   3.894 -0.5534 -0.8524 -1.3005
    7MOL0     O  858   3.925  10.655   4.222  0.0428 -1.0456  0.1494
    7MOL0     C  859   3.656  10.411   4.173 -0.4636 -0.8439  0.9600
    7MOL0     C  860   3.575  10.330   4.241 -0.1893  0.1482 -0.8658
    7MOL0     N  861   3.697  10.301   4.804 -0.1298 -0.3741 -0.6080
    7MOL0     N  862   3.805  10.256   4.851  0.2754  0.2618 -0.0088
    7MOL0     C  863   4.847   9.942   5.394 -0.2862  0.0325  0.8424
    7MOL0     C  864   4.974   9.897   5.402  0.0774  0.2805  0.6820
    7MOL0     C  865   5.388   9.783   5.443 -0.6357 -0.3904  0.7549
    7MOL0     C  866   5.510   9.863   5.459 -0.7767 -0.1318 -1.0137
    7MOL0     C  867   5.638   9.808   5.454  0.6954  0.7878 -0.1056
    7MOL0     C  868   5.645   9.669   5.417  0.0134  0.3168  0.0986
    7MOL0     O  869   5.768   9.609   5.420 -0.1550 -0.7139 -0.4579
    7MOL0     C  870   5.884   9.674   5.481 -0.4601  0.2817 -0.6858
    7MOL0     C  871   6.003   9.585   5.485  0.0608  0.2339  0.8400
    7MOL0     C  872   6.052   9.563   5.336 -0.2246 -0.3095 -0.5360
    7MOL0     C  873   6.149   9.446   5.316 -0.0595  0.5073  0.0553
    7MOL0     C  874   6.082   9.318   5.353 -0.0451  1.1189  0.1791
    7MOL0     C  875   6.048   9.216   5.404 -0.4177 -0.0237 -0.0014
    7MOL0     C  876   5.531   9.593   5.391 -0.2248 -0.2818 -0.7016
    7MOL0     C  877   5.403   9.654   5.407 -0.6742  0.0647  0.5703
    7MOL0     H  878   4.977   9.731   5.702  0.7226  1.2245  1.1915
    7MOL0     H  879   4.740   9.820   5.696 -0.1014  0.3035 -0.3599
    7MOL0     H  880   4.487   9.818   5.527  0.7854 -0.5425  0.8404
    7MOL0     H  881   4.540   9.898   5.678 -1.0877 -1.3940  1.0810
    7MOL0     H  882   4.314   9.956   5.625  1.3699  0.7965  2.1061
    7MOL0     H  883   4.418  10.104   5.613  1.8997  1.2063 -2.2318
    7MOL0     H  884   4.406  10.091   5.373  0.7220 -0.9478 -0.8720
    7MOL0     H  885   4.323   9.933   5.383 -0.2486  0.1205 -0.7721
    7MOL0     H  886   4.127  10.044   5.512 -0.5704  2.0016 -0.2100
    7MOL0     H  887   4.203  10.193   5.484  0.4018 -0.4063  0.2163
    7MOL0     H  888   4.200  10.156   5.234 -1.3351  1.4443 -1.0303
    7MOL0     H  889   4.140  10.000   5.252 -2.0373 -0.5246 -2.3520
    7MOL0     H  890   3.948  10.101   5.394  1.9614 -1.6934 -0.0926
    7MOL0     H  891   3.988  10.262   5.323  0.4672  0.0572 -1.7268
    7MOL0     H  892   3.896  10.023   5.167 -1.7460 -1.4256  3.6934
    7MOL0     H  893   3.805  10.158   5.244  2.0538  3.3334  0.7991
    7MOL0     H  894   4.002  10.177   5.002  0.4902  1.1673  0.8270
    7MOL0     H  895   3.952  10.311   5.092 -2.3051  0.5937  0.3974
    7MOL0     H  896   3.623  10.265   5.116  0.1590  1.0417 -0.4238
    7MOL0     H  897   3.392  10.299   4.980 -1.6323  0.9491 -2.6651
    7MOL0     H  898   3.441  10.448   4.894 -1.0908  1.2946 -3.6141
    7MOL0     H  899   3.269  10.302   4.791 -0.9710 -3.6147  0.4544
    7MOL0     H  900   3.379  10.165   4.805  4.0745 -0.2993  2.4896
    7MOL0     H  901   3.492  10.393   4.644 -2.3736  1.7796 -2.4249
    7MOL0     H  902   3.339  10.343   4.590  0.5510  0.6878 -0.2149
    7MOL0     H  903   3.442  10.100   4.599 -1.3272  0.6096  2.9954
    7MOL0     H  904   3.593  10.190   4.609  0.3601 -3.9107 -2.6293
    7MOL0     H  905   3.686  10.371   4.549  3.7564  1.3010 -0.1497
    7MOL0     H  906   3.959  10.517   4.472  0.0588  1.9720 -0.6842
    7MOL0     H  907   3.855  10.663   4.465 -0.7665  0.5466  0.0775
    7MOL0     H  908   3.817  10.529   4.573 -0.2392  1.7362  0.7640
    7MOL0     H  909   3.887  10.807   3.953 -0.9098  0.7022 -3.6914
    7MOL0     H  910   4.072  10.899   3.827  0.5448  0.1632 -2.8318
    7MOL0     H  911   4.440  10.803   3.808 -2.2079  2.0422  0.5629
    7MOL0     H  912   4.421  10.654   3.724  0.2332  0.2471 -1.6769
    7MOL0     H  913   4.431  10.771   3.511 -2.5728 -0.3416  1.3391
    7MOL0     H  914   4.414  10.923   3.587 -1.6980 -0.9896 -1.8210
    7MOL0     H  915   4.652  10.747   3.650 -0.3280 -0.2407 -2.7178
    7MOL0     H  916   4.633  10.919   3.696  1.2827 -0.5194  0.3895
    7MOL0     H  917   4.638  10.803   3.408  0.9892  0.2762 -1.4844
    7MOL0     H  918   4.629  10.971   3.458 -2.0408 -1.2336 -0.6272
    7MOL0     H  919   4.870  10.797   3.535 -0.6383  0.7814  4.3159
    7MOL0     H  920   4.845  10.970   3.567  0.0255 -1.8001  1.2044
    7MOL0     H  921   4.998  10.930   3.370  0.9797  2.6852 -4.7706
    7MOL0     H  922   4.856  10.865   3.285 -2.4747  1.9927 -0.2742
    7MOL0     H  923   4.891  11.142   3.405  1.6108 -1.0501  0.2242
    7MOL0     H  924   4.757  11.095   3.293 -0.5553 -0.5667 -0.8013
    7MOL0     H  925   4.878  11.054   3.106  1.8408 -1.8215 -0.8288
    7MOL0     H  926   5.039  11.070   3.197  0.3051  0.5643  1.4523
    7MOL0     H  927   4.229  10.497   3.766 -2.4087 -1.4305 -1.4099
    7MOL0     H  928   4.055  10.406   3.926  3.5223 -1.4470 -2.5568
    7MOL0     H  929   3.657  10.426   4.065  0.6458 -0.7936  0.9678
    7MOL0     H  930   3.504  10.282   4.174 -0.3722 -1.0800  0.1771
    7MOL0     H  931   4.817   9.993   5.303 -0.8796 -2.6790 -0.6096
    7MOL0     H  932   5.035   9.926   5.317 -0.7002  0.3623  0.1430
    7MOL0     H  933   5.506   9.969   5.484 -3.5418  0.3913 -3.1333
    7MOL0     H  934   5.718   9.877   5.475 -0.2687  1.7742  0.3943
    7MOL0     H  935   5.903   9.772   5.438 -1.4839  0.3411 -1.0198
    7MOL0     H  936   5.866   9.707   5.584  0.2765 -0.4492 -0.3139
    7MOL0     H  937   5.959   9.492   5.521 -1.4789 -1.2998 -4.1260
    7MOL0     H  938   6.088   9.616   5.546 -0.3243  1.2473  0.8721
    7MOL0     H  939   6.109   9.647   5.296  0.5947 -1.4639 -1.8948
    7MOL0     H  940   5.965   9.548   5.272  0.0065 -1.2261 -0.6483
    7MOL0     H  941   6.241   9.455   5.373  1.3414 -2.2495 -1.5376
    7MOL0     H  942   6.190   9.438   5.215  1.4421 -2.5900  0.7798
    7MOL0     H  943   6.002   9.127   5.443 -1.2183  0.2817 -0.2283
    7MOL0     H  944   5.542   9.488   5.365 -2.6623 -1.3429  2.0034
    7MOL0     H  945   5.317   9.589   5.406 -0.9358  0.4126 -0.1166
    8MOL0     O  946   5.646   1.785   8.485  0.8993 -0.4229 -0.0479
    8MOL0     C  947   5.637   1.796   8.359 -0.2009  0.3623 -0.6202
    8MOL0     O  948   5.545   1.873   8.286 -0.0391 -0.0360  0.6206
    8MOL0     C  949   5.423   1.922   8.338 -0.5186 -0.2769 -1.3176
    8MOL0     C  950   5.322   1.937   8.248 -0.4561 -0.1595  0.2651
    8MOL0     C  951   5.196   1.995   8.277 -0.5982  0.3972 -0.5401
    8MOL0     C  952   5.168   2.012   8.409 -0.6931 -0.3603  0.7644
    8MOL0     O  953   5.059   2.081   8.449  0.4874 -0.4763  0.0898
    8MOL0     C  954   4.939   2.035   8.378  0.4359 -0.3503  0.2605
    8MOL0     C  955   4.812   2.084   8.449  0.0064 -0.2137 -0.4095
    8MOL0     C  956   4.697   2.010   8.389  0.5255 -0.6350  0.2367
    8MOL0     C  957   4.574   2.036   8.486  0.2415  0.2783 -0.4479
    8MOL0     C  958   4.446   2.007   8.402 -0.3514 -0.4468 -0.0148
    8MOL0     C  959   4.439   1.859   8.362  0.5886  0.0065 -0.1128
    8MOL0     C  960   4.307   1.847   8.277  0.5064  0.4126 -0.7170
    8MOL0     C  961   4.178   1.799   8.359  0.2823 -0.4964 -0.2235
    8MOL0     N  962   4.175   1.660   8.396  0.5870 -0.2257  0.6787
    8MOL0     C  963   4.197   1.612   8.520 -0.4579  0.8650 -0.0750
    8MOL0     C  964   4.173   1.476   8.496 -0.5517 -0.1749 -0.3490
    8MOL0     C  965   4.193   1.374   8.600  0.0590 -0.1310  0.1837
    8MOL0     C  966   4.058   1.341   8.659  0.4371 -0.5599 -0.3055
    8MOL0     C  967   4.073   1.234   8.770  0.0361  0.2876  0.2049
    8MOL0     C  968   3.930   1.198   8.811  0.2869  0.1964  0.0683
    8MOL0     O  969   3.862   1.311   8.872 -0.3684  0.0745  0.0256
    8MOL0     C  970   3.736   1.270   8.921 -0.0326  0.3964  0.3296
    8MOL0     C  971   3.626   1.288   8.834 -0.8376  1.0604  0.2155
    8MOL0     C  972   3.509   1.211   8.867 -0.7159  0.0126  0.4675
    8MOL0     C  973   3.410   1.200   8.760  0.6982  0.1634 -0.7090
    8MOL0     C  974   3.486   1.143   8.993 -0.1175 -0.1275 -0.2031
    8MOL0     C  975   3.371   1.058   9.043  0.1949  0.1294 -0.5270
    8MOL0     O  976   3.305   0.994   8.953  0.0916 -0.3849  0.1214
    8MOL0     C  977   3.214   0.900   8.992  0.8505  0.8377 -0.7162
    8MOL0     C  978   3.234   0.794   9.085 -0.4261 -0.6831 -0.2342
    8MOL0     C  979   3.137   0.697   9.110  0.6102 -0.2037  0.3591
    8MOL0     C  980   3.015   0.701   9.039 -0.2813 -0.2954 -0.5508
    8MOL0     O  981   2.932   0.594   9.050  0.2586  1.4890 -0.3410
    8MOL0     C  982   2.802   0.584   8.982 -0.0477 -0.2651  0.1843
    8MOL0     C  983   2.828   0.543   8.837  0.0394 -0.7022  0.0362
    8MOL0     C  984   2.701   0.567   8.752 -0.3746 -0.2133 -0.3816
    8MOL0     C  985   2.583   0.489   8.811 -0.2881 -0.5487 -0.6803
    8MOL0     C  986   2.458   0.484   8.720  0.4859 -0.3351 -0.1753
    8MOL0     C  987   2.457   0.404   8.590  0.3054  0.3076 -0.0708
    8MOL0     C  988   2.500   0.470   8.465  0.3343  0.8665  0.0267
    8MOL0     C  989   2.520   0.376   8.344  0.9703  0.0235  0.1697
    8MOL0    Cl  990   2.361   0.348   8.284  0.2278 -0.0079 -0.0302
    8MOL0     C  991   2.992   0.811   8.957  0.4309 -0.1874 -0.7322
    8MOL0     C  992   3.088   0.907   8.933  1.0443 -0.3419 -0.2086
    8MOL0     O  993   3.362   1.034   9.164 -0.8300 -0.3729  0.3958
    8MOL0     C  994   3.592   1.156   9.077 -0.1274  0.3822  0.4866
    8MOL0     C  995   3.717   1.220   9.047 -1.2359 -0.0905  0.1219
    8MOL0     N  996   4.147   1.449   8.362  0.2468  0.0042 -0.2774
    8MOL0     N  997   4.139   1.561   8.299  0.7882 -0.0343  0.5328
    8MOL0     C  998   5.265   1.994   8.510  0.1311 -0.4638 -0.1087
    8MOL0     C  999   5.396   1.950   8.475  0.0241 -0.2047  0.8320
    8MOL0     C 1000   5.749   1.744   8.275  0.1858  0.1399  0.1270
    8MOL0     C 1001   5.715   1.705   8.137 -0.3905 -0.3441 -1.2414
    8MOL0     C 1002   5.811   1.656   8.048 -0.0451 -0.2202  0.4447
    8MOL0     C 1003   5.936   1.647   8.093 -0.3077 -0.5083  0.3834
    8MOL0     O 1004   6.022   1.591   8.006 -0.3029  0.5682 -0.4308
    8MOL0     C 1005   6.155   1.551   8.036 -0.2231  0.0566 -0.6554
    8MOL0     C 1006   6.260   1.670   8.019 -0.5737  0.1624 -0.4669
    8MOL0     C 1007   6.411   1.629   8.045 -0.3621  0.1453 -0.5693
    8MOL0     C 1008   6.450   1.531   7.925 -0.4357 -0.3294 -0.5398
    8MOL0     C 1009   6.591   1.504   7.916  1.1230 -0.6821 -1.0505
    8MOL0     C 1010   6.710   1.495   7.903  0.0861  0.3450  0.6548
    8MOL0     C 1011   5.970   1.695   8.217 -0.5736 -0.9119  0.4315
    8MOL0     C 1012   5.879   1.739   8.315 -0.4900 -0.5378 -0.0145
    8MOL0     H 1013   5.350   1.906   8.148  1.0396  0.7923  0.3644
    8MOL0     H 1014   5.120   2.010   8.201  0.1978  0.4127 -1.3598
    8MOL0     H 1015   4.928   2.074   8.276  2.4224 -2.8502 -1.0358
    8MOL0     H 1016   4.940   1.926   8.365  1.4623 -0.1823 -1.4653
    8MOL0     H 1017   4.832   2.054   8.552 -0.1425 -0.6437 -0.5010
    8MOL0     H 1018   4.804   2.192   8.436  0.4943  0.0655  1.3443
    8MOL0     H 1019   4.683   2.046   8.287 -1.5378  1.6957  1.2068
    8MOL0     H 1020   4.713   1.902   8.392 -2.4144 -1.1789 -0.3765
    8MOL0     H 1021   4.571   1.971   8.574 -0.3199  3.1029  1.7788
    8MOL0     H 1022   4.574   2.140   8.523  2.3330 -0.8095  3.1140
    8MOL0     H 1023   4.360   2.029   8.467 -0.6039 -3.3667  0.7782
    8MOL0     H 1024   4.456   2.081   8.322 -0.0462 -1.4656 -0.9340
    8MOL0     H 1025   4.530   1.821   8.314  1.3193  0.2974  1.0129
    8MOL0     H 1026   4.437   1.802   8.455  1.6798 -2.7618 -1.6496
    8MOL0     H 1027   4.295   1.938   8.217  0.9310  0.1299 -1.2338
    8MOL0     H 1028   4.313   1.763   8.207  1.2566 -0.2020  0.0727
    8MOL0     H 1029   4.094   1.812   8.291  0.1987  0.0577 -0.0252
    8MOL0     H 1030   4.171   1.868   8.444  2.6659 -0.9567  0.4547
    8MOL0     H 1031   4.228   1.652   8.616 -2.4887  1.4256  0.4033
    8MOL0     H 1032   4.223   1.281   8.552 -2.1665 -1.0158  0.4108
    8MOL0     H 1033   4.264   1.404   8.678  2.2242  0.2187 -1.8068
    8MOL0     H 1034   3.988   1.320   8.579 -0.0031 -2.0053  0.4198
    8MOL0     H 1035   4.024   1.432   8.709 -0.4330 -2.4078  2.7771
    8MOL0     H 1036   4.141   1.266   8.850  2.8792  0.9150 -2.3201
    8MOL0     H 1037   4.117   1.142   8.731 -1.6927 -0.3026 -0.4608
    8MOL0     H 1038   3.937   1.114   8.880  2.1065  2.5345  2.9395
    8MOL0     H 1039   3.868   1.150   8.734 -2.0239  0.3454  1.7379
    8MOL0     H 1040   3.636   1.324   8.733  2.4080  0.2516  0.1421
    8MOL0     H 1041   3.401   1.295   8.706 -0.6723 -0.0174 -0.8309
    8MOL0     H 1042   3.428   1.108   8.704 -0.8767 -0.4753 -0.1911
    8MOL0     H 1043   3.312   1.197   8.808  0.8252 -0.0863 -0.4611
    8MOL0     H 1044   3.322   0.781   9.147 -1.0970  1.2793  1.2157
    8MOL0     H 1045   3.160   0.607   9.166 -2.2392  1.4908  4.8350
    8MOL0     H 1046   2.741   0.501   9.020 -2.2219 -0.8043 -3.9487
    8MOL0     H 1047   2.748   0.679   8.979  1.5003  0.6182 -1.7260
    8MOL0     H 1048   2.916   0.592   8.796 -1.8307  1.6281 -1.4930
    8MOL0     H 1049   2.846   0.436   8.828 -0.1608 -0.5985 -2.1130
    8MOL0     H 1050   2.718   0.540   8.647 -1.0307  2.6719 -1.3290
    8MOL0     H 1051   2.676   0.673   8.749  2.0636  0.4511  0.7509
    8MOL0     H 1052   2.622   0.389   8.832  1.0899  0.4883  2.3431
    8MOL0     H 1053   2.558   0.539   8.905 -0.3314 -2.0246  0.1233
    8MOL0     H 1054   2.423   0.584   8.693 -0.7991 -0.9289 -0.7988
    8MOL0     H 1055   2.373   0.444   8.776 -0.9828 -0.6213 -2.4471
    8MOL0     H 1056   2.525   0.322   8.616  0.4033  0.4257  0.0555
    8MOL0     H 1057   2.359   0.357   8.588  0.7362 -0.8203  2.0036
    8MOL0     H 1058   2.593   0.526   8.478 -0.5291  2.2456  0.5582
    8MOL0     H 1059   2.413   0.532   8.443 -1.4819 -1.8259 -0.9204
    8MOL0     H 1060   2.563   0.278   8.366  2.5299  0.3354 -1.3149
    8MOL0     H 1061   2.589   0.421   8.272  2.1519 -0.2579  1.0985
    8MOL0     H 1062   2.896   0.835   8.913 -1.9930 -0.0266  4.0232
    8MOL0     H 1063   3.065   0.992   8.870 -1.5983  0.0119  1.1020
    8MOL0     H 1064   3.578   1.107   9.173 -1.3004 -1.5017 -0.5777
    8MOL0     H 1065   3.802   1.218   9.115 -1.1872 -0.8192  0.0455
    8MOL0     H 1066   5.241   2.016   8.613  0.7932 -1.3352  0.2512
    8MOL0     H 1067   5.469   1.938   8.555 -1.7715  0.3409  2.6397
    8MOL0     H 1068   5.611   1.701   8.104 -0.3959  0.2006 -1.2989
    8MOL0     H 1069   5.784   1.628   7.946  0.9739 -0.0000  0.1067
    8MOL0     H 1070   6.174   1.506   8.134 -2.1971  0.9967  0.2075
    8MOL0     H 1071   6.174   1.475   7.960  0.6331  1.5596 -1.9799
    8MOL0     H 1072   6.240   1.752   8.088  0.6409 -1.0829  1.4466
    8MOL0     H 1073   6.244   1.718   7.921 -0.5741  0.9247 -0.1001
    8MOL0     H 1074   6.426   1.583   8.143 -2.3869 -0.5796 -0.5497
    8MOL0     H 1075   6.475   1.717   8.052  1.1419 -0.8944 -0.6977
    8MOL0     H 1076   6.420   1.576   7.830 -0.5666 -2.4040 -1.5465
    8MOL0     H 1077   6.395   1.437   7.936  0.5429 -0.7935  0.6046
    8MOL0     H 1078   6.816   1.498   7.886 -0.0802  4.0680 -0.5974
    8MOL0     H 1079   6.068   1.720   8.257 -0.8086 -0.1923  0.5702
    8MOL0     H 1080   5.902   1.788   8.409 -2.3391  0.1014  0.1439
    9MOL0     O 1081   2.631   5.372   9.120  0.4563  0.1345  0.2934
    9MOL0     C 1082   2.685   5.262   9.111 -0.9255  0.4124  0.0575
    9MOL0     O 1083   2.622   5.148   9.060  0.3954 -0.1642  0.1876
    9MOL0     C 1084   2.487   5.171   9.027 -0.4364  0.5467  0.2576
    9MOL0     C 1085   2.449   5.257   8.918 -1.0960  0.8724  0.0131
    9MOL0     C 1086   2.317   5.265   8.873 -0.3083  0.1243 -0.0150
    9MOL0     C 1087   2.213   5.197   8.941 -0.4310  0.4562 -0.2312
    9MOL0     O 1088   2.085   5.196   8.914  0.1759  0.3022 -0.1395
    9MOL0     C 1089   2.031   5.320   8.871 -0.7991 -0.7917 -0.4173
    9MOL0     C 1090   1.889   5.306   8.821  0.3566 -0.0520  0.5190
    9MOL0     C 1091   1.790   5.316   8.931  0.1707  0.2274  1.2267
    9MOL0     C 1092   1.646   5.290   8.876  0.1871 -0.0254  0.3844
    9MOL0     C 1093   1.553   5.392   8.940 -0.2251  0.1815 -0.0959
    9MOL0     C 1094   1.409   5.360   8.899 -0.6293  0.6815  0.3951
    9MOL0     C 1095   1.293   5.438   8.980  0.0821 -0.0411  0.2575
    9MOL0     C 1096   1.168   5.437   8.886 -0.4980  0.3043 -0.0282
    9MOL0     N 1097   1.047   5.514   8.927 -0.4531  0.0936  0.6698
    9MOL0     C 1098   0.979   5.495   9.042  0.2872  0.6459 -0.7556
    9MOL0     C 1099   0.881   5.588   9.040  0.7853  0.0077  0.1975
    9MOL0     C 1100   0.767   5.598   9.135  0.0720  0.5031  0.0657
    9MOL0     C 1101   0.661   5.493   9.122  0.2190 -0.2124 -0.3773
    9MOL0     C 1102   0.574   5.523   9.006  0.0299  0.5573  0.3339
    9MOL0     C 1103   0.486   5.644   9.002  0.1561 -0.7166 -0.0943
    9MOL0     O 1104   0.422   5.652   9.125  0.3863  0.4860 -0.3979
    9MOL0     C 1105   0.292   5.595   9.129 -0.4705 -0.4826  0.4701
    9MOL0     C 1106   0.192   5.630   9.034 -0.0238  0.2565 -0.2316
    9MOL0     C 1107   0.062   5.591   9.032 -0.0538 -0.2204  0.3305
    9MOL0     C 1108  -0.043   5.655   8.941 -0.1218  0.0172 -1.0885
    9MOL0     C 1109   0.019   5.501   9.140 -0.3576 -0.2086  0.2290
    9MOL0     C 1110  -0.118   5.447   9.155 -0.2215  0.4627 -1.3033
    9MOL0     O 1111  -0.217   5.454   9.053 -0.2827  0.5288  0.3742
    9MOL0     C 1112  -0.349   5.430   9.074 -0.4439 -1.2007 -0.6549
    9MOL0     C 1113  -0.401   5.335   9.160 -0.3294  0.5815  0.5370
    9MOL0     C 1114  -0.538   5.337   9.190 -0.7343 -0.0739  0.2496
    9MOL0     C 1115  -0.628   5.431   9.131 -0.5290 -0.5417  0.4247
    9MOL0     O 1116  -0.762   5.421   9.137  0.4170 -0.3305  0.5664
    9MOL0     C 1117  -0.828   5.544   9.156 -0.6128 -0.1624 -1.1429
    9MOL0     C 1118  -0.924   5.518   9.259  0.0267 -0.8856  0.6848
    9MOL0     C 1119  -0.994   5.648   9.311 -0.6539  0.0494 -0.7517
    9MOL0     C 1120  -1.120   5.624   9.392  0.4203 -0.3227 -0.6807
    9MOL0     C 1121  -1.203   5.749   9.422 -0.6339  0.5472  0.0416
    9MOL0     C 1122  -1.319   5.716   9.504  0.1743  0.9120  0.1165
    9MOL0     C 1123  -1.391   5.848   9.552 -0.0201  0.8552  0.1010
    9MOL0     C 1124  -1.462   5.939   9.443 -0.2433  0.3435  0.4806
    9MOL0    Cl 1125  -1.601   5.851   9.380 -0.1040  0.5338 -0.0707
    9MOL0     C 1126  -0.570   5.527   9.051  0.0553 -0.3891  0.1117
    9MOL0     C 1127  -0.437   5.527   9.023 -0.5660  0.4673  0.5456
    9MOL0     O 1128  -0.148   5.401   9.269  0.5449 -0.0720  0.1742
    9MOL0     C 1129   0.120   5.475   9.242 -0.0047 -0.8851  0.0185
    9MOL0     C 1130   0.254   5.525   9.236  0.6034  0.7163 -0.6311
    9MOL0     N 1131   0.889   5.669   8.928  0.3688 -0.3370  0.4973
    9MOL0     N 1132   0.996   5.623   8.865  0.3302 -0.4456  0.0202
    9MOL0     C 1133   2.256   5.109   9.044  0.2447 -0.4213  0.2461
    9MOL0     C 1134   2.382   5.097   9.087 -1.0617  0.5518 -0.2301
    9MOL0     C 1135   2.830   5.249   9.160 -0.2271 -1.0263  0.1205
    9MOL0     C 1136   2.887   5.351   9.230 -1.1466  0.8419 -0.2227
    9MOL0     C 1137   3.018   5.337   9.283 -0.3322  0.5520  0.4960
    9MOL0     C 1138   3.088   5.217   9.287  0.4859  0.2068  0.3817
    9MOL0     O 1139   3.200   5.214   9.370 -0.0721 -0.7465  0.0714
    9MOL0     C 1140   3.295   5.112   9.333  0.1579 -0.6082 -0.0113
    9MOL0     C 1141   3.410   5.111   9.445  1.2427 -0.3650  0.1535
    9MOL0     C 1142   3.489   5.248   9.448 -0.5282  0.3282  0.5790
    9MOL0     C 1143   3.638   5.226   9.494 -0.0700 -0.4726  0.1408
    9MOL0     C 1144   3.653   5.123   9.613 -0.2998 -0.6788  0.2837
    9MOL0     C 1145   3.666   5.044   9.709 -0.2489 -0.0785  0.4647
    9MOL0     C 1146   3.031   5.117   9.207 -0.2614  0.2382 -0.3564
    9MOL0     C 1147   2.908   5.134   9.143 -0.5871  0.3472 -0.5275
    9MOL0     H 1148   2.527   5.304   8.858 -0.2643  1.6740  1.6444
    9MOL0     H 1149   2.300   5.318   8.779 -2.8527 -0.4088  0.0722
    9MOL0     H 1150   2.042   5.391   8.953 -0.7535 -2.2669  0.9029
    9MOL0     H 1151   2.083   5.367   8.786  0.2940  0.3304  0.8341
    9MOL0     H 1152   1.878   5.385   8.746  0.9482 -1.2362 -0.8557
    9MOL0     H 1153   1.882   5.208   8.774 -4.3011 -0.6383  1.9382
    9MOL0     H 1154   1.808   5.228   8.993 -1.0336  0.4030  1.8527
    9MOL0     H 1155   1.784   5.409   8.989 -2.2116  1.7471 -1.2242
    9MOL0     H 1156   1.639   5.278   8.768 -2.7564 -4.2688  0.7826
    9MOL0     H 1157   1.612   5.191   8.906 -0.6863  0.4051  0.8327
    9MOL0     H 1158   1.557   5.395   9.050 -0.8288  1.2847 -0.0892
    9MOL0     H 1159   1.568   5.493   8.900  1.6188 -1.2589 -3.3855
    9MOL0     H 1160   1.395   5.360   8.791  1.4978 -4.8425 -0.2389
    9MOL0     H 1161   1.393   5.254   8.924 -0.3018  0.2545 -1.0899
    9MOL0     H 1162   1.275   5.386   9.075 -0.8079  2.0868  1.3069
    9MOL0     H 1163   1.322   5.541   9.003 -0.2749 -0.2719  1.8320
    9MOL0     H 1164   1.130   5.343   8.844 -2.9578  1.2660 -0.1320
    9MOL0     H 1165   1.204   5.493   8.799 -3.0820 -0.4240 -1.6755
    9MOL0     H 1166   0.986   5.413   9.114 -4.7743  1.6389  1.3336
    9MOL0     H 1167   0.803   5.598   9.238  1.4150 -1.3406 -0.3616
    9MOL0     H 1168   0.729   5.701   9.129 -1.3795  0.2002  2.5707
    9MOL0     H 1169   0.598   5.505   9.211 -0.6744 -3.8460 -0.3789
    9MOL0     H 1170   0.706   5.394   9.118  2.9818  0.9730 -3.5485
    9MOL0     H 1171   0.497   5.444   9.010 -0.3726  0.9703  1.0997
    9MOL0     H 1172   0.626   5.512   8.911  1.2187 -0.5082  1.0818
    9MOL0     H 1173   0.424   5.663   8.914  0.0495 -0.6823 -0.0119
    9MOL0     H 1174   0.552   5.731   8.997  0.4921 -0.9995 -0.6019
    9MOL0     H 1175   0.223   5.693   8.952 -0.0789 -1.7397 -1.8871
    9MOL0     H 1176  -0.118   5.703   9.004 -1.0418 -1.2718 -1.1539
    9MOL0     H 1177   0.008   5.728   8.878  1.4953 -0.4287 -0.3456
    9MOL0     H 1178  -0.097   5.583   8.878  0.1144 -0.9077 -0.2611
    9MOL0     H 1179  -0.346   5.259   9.214 -0.9530  1.4552  2.5323
    9MOL0     H 1180  -0.592   5.267   9.254 -1.5603 -0.6207 -1.0054
    9MOL0     H 1181  -0.767   5.633   9.174  3.1747 -2.5465 -0.9022
    9MOL0     H 1182  -0.882   5.561   9.062 -1.5828  2.4310 -0.1957
    9MOL0     H 1183  -1.002   5.463   9.205 -1.2160  3.6419 -2.7468
    9MOL0     H 1184  -0.875   5.462   9.339  2.4398 -3.5301 -2.3929
    9MOL0     H 1185  -1.007   5.717   9.226  1.1475  0.4758 -0.7346
    9MOL0     H 1186  -0.918   5.696   9.374 -0.4589 -2.2816  0.8760
    9MOL0     H 1187  -1.182   5.559   9.328 -2.4132  2.1470 -0.6837
    9MOL0     H 1188  -1.088   5.584   9.489 -1.5870  2.7414  1.4160
    9MOL0     H 1189  -1.227   5.784   9.321 -0.3086 -0.7048 -0.4929
    9MOL0     H 1190  -1.144   5.825   9.473  0.7140  0.1519 -0.8434
    9MOL0     H 1191  -1.386   5.650   9.449 -0.3055  0.3834  1.3009
    9MOL0     H 1192  -1.288   5.656   9.590  1.4423  0.2992 -0.7285
    9MOL0     H 1193  -1.326   5.918   9.605 -1.2307 -0.8611  4.2523
    9MOL0     H 1194  -1.476   5.819   9.615 -1.3239 -5.2332 -3.6037
    9MOL0     H 1195  -1.387   5.961   9.366  1.5737  1.0938  2.3716
    9MOL0     H 1196  -1.492   6.042   9.466 -0.1797  0.3699  0.4497
    9MOL0     H 1197  -0.629   5.606   9.005 -0.3896 -0.0588  1.2046
    9MOL0     H 1198  -0.402   5.599   8.950 -2.1205  1.5017  0.7852
    9MOL0     H 1199   0.099   5.413   9.329  1.4568 -2.1976 -0.5000
    9MOL0     H 1200   0.322   5.502   9.316 -1.4673 -1.7466  0.5621
    9MOL0     H 1201   2.181   5.061   9.106 -1.0688  0.2430 -0.7950
    9MOL0     H 1202   2.411   5.040   9.174  0.7423 -0.0160 -1.1516
    9MOL0     H 1203   2.832   5.442   9.250 -2.3083  0.4229 -1.3274
    9MOL0     H 1204   3.065   5.429   9.317  1.8188 -0.1043 -0.5195
    9MOL0     H 1205   3.249   5.012   9.331  0.6920 -0.8668  0.5282
    9MOL0     H 1206   3.340   5.146   9.239  0.2335  0.2256  0.3187
    9MOL0     H 1207   3.465   5.017   9.438  1.2011 -0.4446  0.7843
    9MOL0     H 1208   3.365   5.106   9.545 -1.7943  1.3188 -1.0166
    9MOL0     H 1209   3.443   5.320   9.516  0.0687  1.5651 -0.2864
    9MOL0     H 1210   3.479   5.292   9.349 -0.3358 -0.9399 -0.0260
    9MOL0     H 1211   3.686   5.320   9.526 -0.1999  0.4714 -2.2279
    9MOL0     H 1212   3.685   5.184   9.405 -1.2322  1.1346 -1.3087
    9MOL0     H 1213   3.661   4.963   9.779 -2.2650  0.9634  1.6197
    9MOL0     H 1214   3.086   5.023   9.200  0.5115  0.6423  0.2643
    9MOL0     H 1215   2.882   5.044   9.087  3.7208 -0.7431 -1.1160
   10MOL0     O 1216   4.538   8.147   0.492  0.0639 -0.6539  1.0465
   10MOL0     C 1217   4.571   8.039   0.518 -0.3816  0.1873 -0.4784
   10MOL0     O 1218   4.485   7.945   0.560  0.9966  0.3713 -0.0666
   10MOL0     C 1219   4.361   7.924   0.510  0.4657 -0.8503 -0.7874
   10MOL0     C 1220   4.280   7.832   0.573  0.4454  0.3483 -0.2428
   10MOL0     C 1221   4.151   7.803   0.530  0.1728 -0.0981  0.4547
   10MOL0     C 1222   4.100   7.868   0.419 -0.3380 -0.2155 -1.1178
   10MOL0     O 1223   3.970   7.846   0.381  0.5438 -0.3110  0.3659
   10MOL0     C 1224   3.926   7.844   0.243  0.2063 -0.5264  0.1433
   10MOL0     C 1225   3.781   7.797   0.222  0.3056  0.1187 -0.0551
   10MOL0     C 1226   3.688   7.893   0.300 -0.3473  0.6287  0.4316
   10MOL0     C 1227   3.538   7.878   0.264 -0.4086 -0.1278 -0.1643
   10MOL0     C 1228   3.454   7.977   0.343 -0.4102  0.0030  0.2377
   10MOL0     C 1229   3.325   8.002   0.268  1.0592 -0.2474  0.2256
   10MOL0     C 1230   3.212   8.082   0.340 -0.6058 -0.4727  1.0250
   10MOL0     C 1231   3.076   8.074   0.265 -0.1468 -0.3338  1.2803
   10MOL0     N 1232   2.975   8.166   0.319 -0.3567  1.1259  0.3533
   10MOL0     C 1233   2.989   8.302   0.304 -0.0942  0.9730  0.2721
   10MOL0     C 1234   2.869   8.350   0.328  0.5263 -0.1703  0.3541
   10MOL0     C 1235   2.833   8.496   0.326  0.0682  0.8597 -0.8323
   10MOL0     C 1236   2.727   8.533   0.435  0.2132  0.5585  0.0925
   10MOL0     C 1237   2.587   8.493   0.380 -0.2876 -0.2676 -0.0001
   10MOL0     C 1238   2.478   8.514   0.490 -0.1728  0.2092  1.0103
   10MOL0     O 1239   2.385   8.401   0.492  0.7166  0.6651  0.1290
   10MOL0     C 1240   2.264   8.425   0.567 -0.2402 -0.4139 -0.1637
   10MOL0     C 1241   2.248   8.493   0.690 -0.9606 -0.1551  0.9171
   10MOL0     C 1242   2.128   8.513   0.753  0.4546 -0.1153 -0.0059
   10MOL0     C 1243   2.136   8.597   0.878 -1.0225  0.8969  0.2317
   10MOL0     C 1244   2.013   8.455   0.705  0.2717  0.2876  0.3330
   10MOL0     C 1245   1.873   8.471   0.767  0.0955 -0.0311 -0.2600
   10MOL0     O 1246   1.775   8.382   0.742  0.3229 -0.4438 -0.0440
   10MOL0     C 1247   1.644   8.428   0.759 -0.3108  0.0778  0.0757
   10MOL0     C 1248   1.585   8.416   0.887 -0.1342 -0.5092 -0.0513
   10MOL0     C 1249   1.450   8.446   0.907  0.3687  0.3588 -0.6559
   10MOL0     C 1250   1.359   8.469   0.801  0.3512 -0.7902 -0.4267
   10MOL0     O 1251   1.227   8.478   0.829  0.2333  0.7636  0.0883
   10MOL0     C 1252   1.133   8.485   0.724  0.0623  0.2040  0.3222
   10MOL0     C 1253   0.992   8.477   0.765  0.2700 -0.5315 -0.0071
   10MOL0     C 1254   0.901   8.508   0.648  0.4598 -0.0338 -0.0052
   10MOL0     C 1255   0.758   8.462   0.679  0.1044  0.2194 -0.0506
   10MOL0     C 1256   0.673   8.440   0.558 -0.2310  0.7314  0.2164
   10MOL0     C 1257   0.645   8.572   0.483  0.3555  0.0509 -0.0363
   10MOL0     C 1258   0.570   8.536   0.352  0.9157 -0.0963  0.5422
   10MOL0     C 1259   0.659   8.497   0.236  0.0733  0.1341  0.1519
   10MOL0    Cl 1260   0.766   8.625   0.194  0.2003 -0.1522  0.2237
   10MOL0     C 1261   1.422   8.476   0.669  0.2819  0.0020 -0.3382
   10MOL0     C 1262   1.559   8.465   0.657  0.0784 -0.2697  0.7646
   10MOL0     O 1263   1.856   8.572   0.829 -0.5242  0.2907 -0.8517
   10MOL0     C 1264   2.021   8.364   0.599 -0.6724  0.2510  0.4652
   10MOL0     C 1265   2.148   8.354   0.539  0.4046 -0.4077 -0.2159
   10MOL0     N 1266   2.780   8.244   0.353 -0.6474  0.1627  0.1162
   10MOL0     N 1267   2.850   8.132   0.346  0.5830  0.6143 -0.1260
   10MOL0     C 1268   4.183   7.951   0.345 -0.6321 -0.3435 -0.5855
   10MOL0     C 1269   4.311   7.983   0.393 -0.6822 -0.7394  0.2196
   10MOL0     C 1270   4.717   7.995   0.527 -0.6127  0.3656  0.6409
   10MOL0     C 1271   4.816   8.086   0.491 -0.1856  0.2079  0.2572
   10MOL0     C 1272   4.947   8.050   0.488 -0.0023 -0.2231 -0.3675
   10MOL0     C 1273   4.989   7.927   0.526  0.0385  0.1189 -0.1099
   10MOL0     O 1274   5.121   7.886   0.501 -0.2368 -0.5802  0.0576
   10MOL0     C 1275   5.125   7.759   0.436 -0.5246  1.1973  0.5719
   10MOL0     C 1276   5.273   7.738   0.428 -0.7909 -0.6202 -0.2262
   10MOL0     C 1277   5.338   7.702   0.574  0.7269 -0.2224  0.9585
   10MOL0     C 1278   5.485   7.654   0.574  0.6572 -0.0191 -0.1778
   10MOL0     C 1279   5.576   7.759   0.537 -0.4111 -0.1681  0.0388
   10MOL0     C 1280   5.642   7.852   0.504  0.5310  0.1299  0.4475
   10MOL0     C 1281   4.892   7.834   0.566  1.2425 -0.3013  0.3490
   10MOL0     C 1282   4.760   7.860   0.554  0.3237 -0.8451  0.1231
   10MOL0     H 1283   4.331   7.794   0.662  2.9240  2.0032 -0.8315
   10MOL0     H 1284   4.097   7.724   0.583  0.2139 -0.8870 -0.6461
   10MOL0     H 1285   3.936   7.947   0.206 -0.8611 -0.6190 -0.4567
   10MOL0     H 1286   3.994   7.783   0.183 -0.6944  1.0278 -2.6831
   10MOL0     H 1287   3.755   7.813   0.117 -3.2258 -0.0019  0.6729
   10MOL0     H 1288   3.765   7.691   0.245  1.8902 -0.6328 -2.1394
   10MOL0     H 1289   3.691   7.875   0.408  1.5228 -1.7934  0.0623
   10MOL0     H 1290   3.720   7.996   0.281  1.0171  0.1999  0.3296
   10MOL0     H 1291   3.537   7.880   0.155  0.2949 -3.6799 -0.3703
   10MOL0     H 1292   3.503   7.780   0.298 -1.7552  0.9610  1.7986
   10MOL0     H 1293   3.427   7.936   0.441  0.8906 -1.1745  0.1283
   10MOL0     H 1294   3.507   8.072   0.360 -3.0743  1.8932 -1.2599
   10MOL0     H 1295   3.328   8.040   0.165  1.0022  0.5346  0.5091
   10MOL0     H 1296   3.276   7.904   0.260 -1.6957  0.6201  3.8897
   10MOL0     H 1297   3.196   8.049   0.443  0.3566 -0.7479  1.1018
   10MOL0     H 1298   3.248   8.186   0.338 -0.4779 -0.5285 -0.0135
   10MOL0     H 1299   3.027   7.978   0.286 -1.2057  0.3020  1.7775
   10MOL0     H 1300   3.105   8.094   0.162  1.2287  1.7630  2.0093
   10MOL0     H 1301   3.070   8.366   0.269  0.3401  0.2371 -0.0759
   10MOL0     H 1302   2.930   8.545   0.338  0.4662 -0.1982  0.4789
   10MOL0     H 1303   2.785   8.517   0.230 -1.6629  1.9637  0.2085
   10MOL0     H 1304   2.725   8.640   0.456 -2.3412  0.6008  0.0336
   10MOL0     H 1305   2.757   8.485   0.529  0.3049 -3.7210 -1.8586
   10MOL0     H 1306   2.581   8.386   0.354 -0.6975 -0.5554  1.2253
   10MOL0     H 1307   2.565   8.558   0.294 -1.9662 -2.0363 -1.0026
   10MOL0     H 1308   2.428   8.605   0.456 -2.7720 -2.1320 -2.0472
   10MOL0     H 1309   2.520   8.533   0.590  1.0630 -1.3341  0.8257
   10MOL0     H 1310   2.343   8.530   0.729 -1.2003 -0.1972  1.5542
   10MOL0     H 1311   2.236   8.629   0.909  0.6577 -4.2285  0.9773
   10MOL0     H 1312   2.079   8.690   0.866 -0.1089  1.2824 -1.5452
   10MOL0     H 1313   2.090   8.537   0.957 -0.6676 -1.7428 -1.4481
   10MOL0     H 1314   1.647   8.404   0.975 -0.3841  3.1111  0.7904
   10MOL0     H 1315   1.408   8.446   1.007  0.4517 -2.3700 -0.5524
   10MOL0     H 1316   1.142   8.591   0.698 -1.4696  0.6184  1.3881
   10MOL0     H 1317   1.155   8.420   0.638 -2.1000 -1.0450  0.6347
   10MOL0     H 1318   0.983   8.372   0.793  2.1000 -0.0505  2.7090
   10MOL0     H 1319   0.966   8.533   0.856  1.5517  1.4114 -0.7598
   10MOL0     H 1320   0.925   8.443   0.563 -3.4716 -1.4229 -0.2797
   10MOL0     H 1321   0.906   8.614   0.622 -1.2812  0.0178 -0.3033
   10MOL0     H 1322   0.757   8.365   0.730  1.2284 -0.6399 -1.5703
   10MOL0     H 1323   0.694   8.528   0.738  0.7040  1.8651 -1.1646
   10MOL0     H 1324   0.574   8.402   0.587  0.1429 -1.2807 -0.9538
   10MOL0     H 1325   0.708   8.364   0.487 -1.5011 -1.3378  1.6798
   10MOL0     H 1326   0.588   8.644   0.542 -1.2062 -0.5507 -0.7440
   10MOL0     H 1327   0.739   8.619   0.456  0.8860 -0.9662 -0.0217
   10MOL0     H 1328   0.507   8.623   0.327 -0.2624 -0.3192  2.5704
   10MOL0     H 1329   0.501   8.453   0.366 -1.1524  0.7516 -3.1016
   10MOL0     H 1330   0.599   8.462   0.151 -1.8896  0.8478  1.1836
   10MOL0     H 1331   0.722   8.410   0.256 -0.8779 -1.2343 -2.2595
   10MOL0     H 1332   1.360   8.492   0.581 -1.0310  2.5726  0.9479
   10MOL0     H 1333   1.598   8.489   0.559 -1.3657  0.7232  0.4001
   10MOL0     H 1334   1.941   8.310   0.549  2.5593 -2.1653 -2.5775
   10MOL0     H 1335   2.165   8.277   0.465  0.6566 -2.6190  2.0303
   10MOL0     H 1336   4.155   8.005   0.255  0.9592 -1.7157 -1.9890
   10MOL0     H 1337   4.367   8.056   0.336 -2.6302  0.8333  0.2147
   10MOL0     H 1338   4.786   8.186   0.460 -2.3333  0.1286  1.9080
   10MOL0     H 1339   5.020   8.126   0.461 -1.0114  0.7797 -0.3504
   10MOL0     H 1340   5.069   7.680   0.487 -0.3454  1.4662  1.1992
   10MOL0     H 1341   5.088   7.771   0.334  0.7053  1.0460  0.0929
   10MOL0     H 1342   5.335   7.824   0.399  0.1016 -1.7374 -1.7702
   10MOL0     H 1343   5.277   7.660   0.352 -0.6354 -1.6931  0.8605
   10MOL0     H 1344   5.275   7.626   0.621 -0.7483 -1.6712 -2.9547
   10MOL0     H 1345   5.344   7.799   0.626 -0.4371 -0.4051  1.4732
   10MOL0     H 1346   5.498   7.562   0.516  0.9686 -0.1432  0.0828
   10MOL0     H 1347   5.510   7.625   0.677  0.3504 -2.1976 -0.6703
   10MOL0     H 1348   5.695   7.936   0.461  0.4441  0.2160  0.5087
   10MOL0     H 1349   4.907   7.739   0.617 -0.5491 -0.2116  1.1290
   10MOL0     H 1350   4.688   7.793   0.599 -0.6489  0.7768  1.0939
   11MOL0     O 1351   0.789   2.967   2.346  0.1633 -0.3710 -0.1442
   11MOL0     C 1352   0.797   2.964   2.222 -0.0152  0.0996 -0.6177
   11MOL0     O 1353   0.696   2.983   2.138  0.2741 -0.0117  0.8500
   11MOL0     C 1354   0.571   3.025   2.171  0.5623 -0.1573  0.1544
   11MOL0     C 1355   0.464   2.957   2.109  0.5028 -1.0331 -0.5018
   11MOL0     C 1356   0.331   2.984   2.156 -0.5885 -0.0275  1.5527
   11MOL0     C 1357   0.304   3.082   2.247  0.9853 -0.7960  0.0951
   11MOL0     O 1358   0.170   3.100   2.279 -0.0089  0.6543  0.7083
   11MOL0     C 1359   0.133   3.155   2.405  0.6387  0.4138  0.1736
   11MOL0     C 1360  -0.016   3.160   2.407  0.3014  0.2059  0.3106
   11MOL0     C 1361  -0.065   3.282   2.324 -0.2698 -0.1382  0.9228
   11MOL0     C 1362  -0.217   3.271   2.271  0.7297 -0.0959 -0.6426
   11MOL0     C 1363  -0.313   3.357   2.359 -0.1994 -0.1579 -0.0925
   11MOL0     C 1364  -0.458   3.347   2.310  0.6470 -0.2718  0.5072
   11MOL0     C 1365  -0.561   3.418   2.398  0.4112 -0.4771 -0.5554
   11MOL0     C 1366  -0.536   3.567   2.393 -0.5686 -0.0509  0.5496
   11MOL0     N 1367  -0.651   3.646   2.436  0.3447 -0.0706 -0.6990
   11MOL0     C 1368  -0.679   3.643   2.571 -0.5446  0.3091  0.7930
   11MOL0     C 1369  -0.779   3.736   2.584 -0.3407 -0.9307 -0.5826
   11MOL0     C 1370  -0.854   3.765   2.704  0.5598 -0.5144  0.1395
   11MOL0     C 1371  -1.006   3.769   2.670  0.4931 -0.8069 -0.6996
   11MOL0     C 1372  -1.096   3.801   2.789 -0.2136 -0.1100  0.3528
   11MOL0     C 1373  -1.248   3.818   2.758 -0.3077 -1.5394  0.7524
   11MOL0     O 1374  -1.262   3.874   2.626 -0.2068 -0.1314  0.0844
   11MOL0     C 1375  -1.389   3.890   2.567 -0.4245  0.6565  0.8140
   11MOL0     C 1376  -1.382   3.925   2.433  0.2208 -0.5061  0.9848
   11MOL0     C 1377  -1.499   3.946   2.357 -0.1415  0.5272  0.7289
   11MOL0     C 1378  -1.491   3.971   2.207  0.9193  0.3088  0.3259
   11MOL0     C 1379  -1.624   3.933   2.416  1.2950 -0.0903  0.2732
   11MOL0     C 1380  -1.760   3.965   2.358  0.4976 -0.0224 -0.7517
   11MOL0     O 1381  -1.864   3.966   2.454 -0.2860  0.2286 -0.3305
   11MOL0     C 1382  -1.987   4.008   2.429  0.6807  0.3335  1.2424
   11MOL0     C 1383  -2.026   4.139   2.383 -0.2697 -0.3828  0.3499
   11MOL0     C 1384  -2.167   4.160   2.368 -0.0332 -0.1679  0.4511
   11MOL0     C 1385  -2.270   4.068   2.389 -0.0605  0.8457  0.4599
   11MOL0     O 1386  -2.406   4.089   2.365  0.0738  0.1542  1.3429
   11MOL0     C 1387  -2.504   4.000   2.428 -0.8629 -0.0661 -0.7883
   11MOL0     C 1388  -2.640   4.059   2.416 -0.1948 -0.4934  0.5778
   11MOL0     C 1389  -2.648   4.217   2.436 -0.8938  0.8658  0.6770
   11MOL0     C 1390  -2.588   4.270   2.568 -0.9349 -0.2410 -0.0025
   11MOL0     C 1391  -2.622   4.424   2.600 -0.8161  0.0234 -0.9007
   11MOL0     C 1392  -2.539   4.458   2.723 -0.3070 -0.9698 -0.3197
   11MOL0     C 1393  -2.559   4.598   2.778 -0.4891  0.0974  0.1192
   11MOL0     C 1394  -2.689   4.599   2.859  0.0886  0.6329 -0.1171
   11MOL0    Cl 1395  -2.711   4.750   2.950 -0.2711  0.1081 -0.3488
   11MOL0     C 1396  -2.220   3.947   2.445  0.8082  0.5916  1.1123
   11MOL0     C 1397  -2.084   3.913   2.450  0.1191 -0.1236  0.1230
   11MOL0     O 1398  -1.780   3.967   2.235 -0.0709  0.2142 -0.0609
   11MOL0     C 1399  -1.628   3.889   2.552  0.2257  0.3119  0.1454
   11MOL0     C 1400  -1.509   3.865   2.627  0.3247  0.1543 -0.7152
   11MOL0     N 1401  -0.786   3.815   2.476  0.7628  0.5419  0.0865
   11MOL0     N 1402  -0.703   3.766   2.390 -0.0114  0.2781 -0.0522
   11MOL0     C 1403   0.408   3.150   2.308  0.3576  0.0747 -1.0131
   11MOL0     C 1404   0.541   3.124   2.275  0.3926 -0.0384  0.0208
   11MOL0     C 1405   0.935   2.932   2.167  0.8139  0.2899 -0.5031
   11MOL0     C 1406   0.981   2.995   2.047  1.1058  0.6539  0.1582
   11MOL0     C 1407   1.106   2.974   2.006 -0.2084 -0.0710 -1.2114
   11MOL0     C 1408   1.187   2.880   2.061  0.2351  0.3953 -0.3132
   11MOL0     O 1409   1.297   2.851   1.981 -0.4984  1.0162  0.4774
   11MOL0     C 1410   1.387   2.757   2.029 -0.9176 -0.5713  0.0184
   11MOL0     C 1411   1.529   2.779   1.964  0.0472 -0.2841  0.0753
   11MOL0     C 1412   1.592   2.908   2.021 -0.3021 -0.2912 -0.6735
   11MOL0     C 1413   1.690   2.883   2.147 -0.2807  0.1151  0.3335
   11MOL0     C 1414   1.798   2.790   2.112  0.2036  0.4381 -0.0864
   11MOL0     C 1415   1.891   2.729   2.061 -0.1413  0.4744 -0.3818
   11MOL0     C 1416   1.150   2.813   2.183  0.3314 -0.1447 -0.4945
   11MOL0     C 1417   1.023   2.840   2.232  0.3396 -0.1503  0.4496
   11MOL0     H 1418   0.476   2.874   2.039 -0.0828 -1.3691 -0.2128
   11MOL0     H 1419   0.252   2.925   2.112 -1.7230  2.8720 -0.6297
   11MOL0     H 1420   0.160   3.081   2.481  1.2933 -1.2679 -1.6144
   11MOL0     H 1421   0.165   3.258   2.425 -2.8506  1.4145  1.3103
   11MOL0     H 1422  -0.050   3.066   2.361 -1.2919  1.1037 -0.4167
   11MOL0     H 1423  -0.043   3.158   2.513  2.7879  1.7440  1.0438
   11MOL0     H 1424  -0.054   3.364   2.395 -1.0870 -0.0145  0.9191
   11MOL0     H 1425   0.001   3.297   2.238 -0.3706  2.8192  1.2542
   11MOL0     H 1426  -0.216   3.291   2.163 -0.0393 -2.8018 -1.2257
   11MOL0     H 1427  -0.242   3.166   2.284  0.1130  0.2629  1.3389
   11MOL0     H 1428  -0.325   3.310   2.457 -0.6184 -0.9590 -0.5209
   11MOL0     H 1429  -0.280   3.461   2.369 -0.1067 -0.1503 -0.4682
   11MOL0     H 1430  -0.460   3.376   2.205 -1.4990 -1.3921  0.1721
   11MOL0     H 1431  -0.484   3.240   2.315 -2.3108  0.3940  3.8326
   11MOL0     H 1432  -0.661   3.387   2.367 -0.1334 -0.3163  0.9297
   11MOL0     H 1433  -0.544   3.384   2.501  0.2818  1.7932  0.2819
   11MOL0     H 1434  -0.529   3.592   2.287 -0.0073 -1.0372  0.3406
   11MOL0     H 1435  -0.444   3.582   2.449  0.1685  1.4396 -0.9794
   11MOL0     H 1436  -0.644   3.574   2.647 -1.0559  0.3088  1.0312
   11MOL0     H 1437  -0.839   3.688   2.780 -1.3269 -2.7636 -1.5994
   11MOL0     H 1438  -0.813   3.858   2.744  0.7043 -1.3029  1.9164
   11MOL0     H 1439  -1.038   3.674   2.626 -1.7395 -0.1962 -0.5444
   11MOL0     H 1440  -1.017   3.846   2.594  2.9618  2.6107  2.1096
   11MOL0     H 1441  -1.077   3.899   2.835 -1.2821 -0.1929  1.0154
   11MOL0     H 1442  -1.079   3.726   2.867  0.7181  2.9444  3.3507
   11MOL0     H 1443  -1.297   3.884   2.831  0.1645 -0.5057  0.1569
   11MOL0     H 1444  -1.292   3.718   2.757 -1.3181 -1.1279 -1.0471
   11MOL0     H 1445  -1.283   3.936   2.388 -0.2061 -3.5740 -1.0304
   11MOL0     H 1446  -1.385   3.978   2.179  0.6385 -0.4269 -0.9826
   11MOL0     H 1447  -1.535   3.883   2.160 -1.2350  0.9564  1.0204
   11MOL0     H 1448  -1.555   4.059   2.189 -0.9212 -0.7814  1.2419
   11MOL0     H 1449  -1.948   4.210   2.357 -2.2237  2.3505  1.4404
   11MOL0     H 1450  -2.202   4.250   2.319 -1.7984 -1.1797 -0.2479
   11MOL0     H 1451  -2.492   3.898   2.388  2.0698  0.1320 -0.6319
   11MOL0     H 1452  -2.473   4.007   2.533  2.8864  2.4027 -1.8838
   11MOL0     H 1453  -2.677   4.032   2.316  0.0260 -1.3953  0.7297
   11MOL0     H 1454  -2.701   4.015   2.495  0.6122 -1.3506  0.7375
   11MOL0     H 1455  -2.755   4.239   2.437 -2.7881 -5.9958 -0.4839
   11MOL0     H 1456  -2.615   4.267   2.344 -0.3722  2.2769  1.6014
   11MOL0     H 1457  -2.620   4.208   2.652  1.0708 -1.2683  0.0442
   11MOL0     H 1458  -2.481   4.261   2.552 -0.8859 -0.6121  0.5388
   11MOL0     H 1459  -2.728   4.439   2.621 -1.0153  1.1165 -2.5057
   11MOL0     H 1460  -2.586   4.485   2.516  4.4228  0.6925  1.3884
   11MOL0     H 1461  -2.556   4.388   2.805 -2.2246 -0.0224  0.1402
   11MOL0     H 1462  -2.434   4.451   2.691 -0.2440 -0.3720 -0.2591
   11MOL0     H 1463  -2.555   4.674   2.699 -0.4036  0.8469  0.8302
   11MOL0     H 1464  -2.474   4.620   2.844 -0.9277 -1.8056  1.3914
   11MOL0     H 1465  -2.681   4.519   2.933  1.3719  0.8174 -0.0292
   11MOL0     H 1466  -2.775   4.583   2.795 -1.3800  2.1784  1.3545
   11MOL0     H 1467  -2.287   3.864   2.465 -1.7976  1.8187 -1.8310
   11MOL0     H 1468  -2.031   3.818   2.460 -0.5613 -0.5354 -0.0914
   11MOL0     H 1469  -1.724   3.875   2.602 -0.3909 -0.3056 -1.1706
   11MOL0     H 1470  -1.524   3.818   2.723  0.1104  4.1195  1.4155
   11MOL0     H 1471   0.377   3.220   2.386  2.2741 -2.4707  2.2857
   11MOL0     H 1472   0.624   3.174   2.323  1.0639  0.0141 -1.1564
   11MOL0     H 1473   0.930   3.076   1.995 -0.7796  0.1799  1.1701
   11MOL0     H 1474   1.138   3.014   1.911  1.1400  0.9658 -0.3633
   11MOL0     H 1475   1.401   2.762   2.137 -0.6825  1.5431 -0.0673
   11MOL0     H 1476   1.357   2.658   1.993 -0.7831 -0.1776 -1.2264
   11MOL0     H 1477   1.527   2.788   1.855  1.9185  0.9766  0.0864
   11MOL0     H 1478   1.591   2.690   1.980  0.9913 -0.5474 -3.8698
   11MOL0     H 1479   1.514   2.977   2.053 -0.8030 -1.8864  1.8391
   11MOL0     H 1480   1.658   2.954   1.947 -1.2197  0.5229 -0.9916
   11MOL0     H 1481   1.628   2.851   2.231 -2.1893 -1.0645 -1.4311
   11MOL0     H 1482   1.739   2.971   2.188 -2.2633  0.1145  2.9510
   11MOL0     H 1483   1.960   2.661   2.015 -2.2296 -1.3711 -0.9241
   11MOL0     H 1484   1.211   2.741   2.237 -2.5996 -1.7585  0.8826
   11MOL0     H 1485   1.000   2.777   2.318  2.7727 -1.0209  0.5284
   12MOL0     O 1486   1.295   9.603  11.297  0.2220  0.5915 -0.2384
   12MOL0     C 1487   1.346   9.606  11.407  1.1284 -0.1117  0.0598
   12MOL0     O 1488   1.326   9.699  11.506  0.2850 -0.3983 -0.0022
   12MOL0     C 1489   1.207   9.764  11.495  0.3261  0.6800 -0.4600
   12MOL0     C 1490   1.181   9.857  11.404 -0.7876  0.3762  0.7889
   12MOL0     C 1491   1.062   9.931  11.406  0.4927 -0.5095  1.4015
   12MOL0     C 1492   0.964   9.905  11.504 -0.1049 -0.6824 -0.8174
   12MOL0     O 1493   0.847   9.971  11.516  0.3123  0.0603  0.2110
   12MOL0     C 1494   0.730   9.921  11.448  0.5028 -0.6006  0.7446
   12MOL0     C 1495   0.662  10.034  11.366  0.1823  0.2351  0.2197
   12MOL0     C 1496   0.522   9.977  11.305 -0.0982  0.5890 -0.5675
   12MOL0     C 1497   0.531   9.908  11.174  0.7141 -0.7238  0.5380
   12MOL0     C 1498   0.406   9.831  11.146 -0.5460  0.7472 -0.6826
   12MOL0     C 1499   0.405   9.781  11.001 -0.0003 -0.3256 -0.6329
   12MOL0     C 1500   0.292   9.685  10.971 -0.8457 -0.6244 -0.0003
   12MOL0     C 1501   0.326   9.642  10.828 -0.8594 -0.3089  0.0284
   12MOL0     N 1502   0.228   9.551  10.771  0.3421 -0.2990  0.0621
   12MOL0     C 1503   0.099   9.574  10.731 -0.9672  0.4958 -0.1486
   12MOL0     C 1504   0.055   9.457  10.674 -0.2396 -0.2644 -0.1629
   12MOL0     C 1505  -0.072   9.430  10.601  0.2889  0.9913 -1.1049
   12MOL0     C 1506  -0.192   9.391  10.691  0.3084 -0.2070  0.7072
   12MOL0     C 1507  -0.292   9.317  10.614  0.6047 -0.0061 -0.1255
   12MOL0     C 1508  -0.399   9.276  10.714  0.2425  0.1607 -0.9367
   12MOL0     O 1509  -0.514   9.219  10.643 -0.2248  0.8033 -0.0796
   12MOL0     C 1510  -0.623   9.187  10.715 -0.1394 -0.6246  0.9527
   12MOL0     C 1511  -0.745   9.178  10.639 -0.7981  0.2260  0.0069
   12MOL0     C 1512  -0.867   9.139  10.699 -0.5520  0.1928 -0.6664
   12MOL0     C 1513  -0.979   9.139  10.602  1.1771  0.2093  0.2920
   12MOL0     C 1514  -0.863   9.114  10.840  0.4751 -1.4790  0.0768
   12MOL0     C 1515  -0.987   9.069  10.911 -0.2512 -0.5691 -0.2329
   12MOL0     O 1516  -0.979   9.061  11.046  0.6018 -0.1305  0.1867
   12MOL0     C 1517  -1.093   9.031  11.118  0.4753  1.0658 -0.1134
   12MOL0     C 1518  -1.073   8.953  11.233  0.0700  0.5338 -0.3823
   12MOL0     C 1519  -1.181   8.905  11.312  0.0997  0.2103  0.3905
   12MOL0     C 1520  -1.317   8.938  11.281 -0.8159 -0.2344 -0.2079
   12MOL0     O 1521  -1.415   8.898  11.360  0.1962 -0.5921 -0.1585
   12MOL0     C 1522  -1.531   8.839  11.293 -0.0663 -0.4457  1.1943
   12MOL0     C 1523  -1.639   8.804  11.398 -0.3618  0.1339  0.0985
   12MOL0     C 1524  -1.763   8.749  11.320 -0.0309  0.1767 -0.7923
   12MOL0     C 1525  -1.872   8.727  11.433 -0.9714 -0.3632  0.0831
   12MOL0     C 1526  -1.998   8.660  11.363 -0.7805 -0.1368 -0.1235
   12MOL0     C 1527  -2.123   8.628  11.446  0.2261 -0.2736  0.0499
   12MOL0     C 1528  -2.227   8.559  11.353 -0.1483 -0.0313 -0.0288
   12MOL0     C 1529  -2.368   8.567  11.419 -1.1215 -0.3474  0.0706
   12MOL0    Cl 1530  -2.493   8.532  11.298  0.5221 -0.2668  0.1480
   12MOL0     C 1531  -1.340   9.030  11.182  0.3704  0.6339  0.1875
   12MOL0     C 1532  -1.222   9.078  11.103  0.4159  0.4708  0.7113
   12MOL0     O 1533  -1.086   9.038  10.841  0.5302 -0.5238  0.1694
   12MOL0     C 1534  -0.735   9.121  10.908  0.2084  0.3704  0.4795
   12MOL0     C 1535  -0.616   9.171  10.853 -0.5719  0.0031 -0.3600
   12MOL0     N 1536   0.163   9.366  10.674  0.7994  0.2168  0.6574
   12MOL0     N 1537   0.260   9.422  10.740  0.4424 -0.8668 -0.4774
   12MOL0     C 1538   0.991   9.807  11.595  0.4154 -0.6637 -0.0705
   12MOL0     C 1539   1.114   9.743  11.598  0.8817  0.5289  0.2271
   12MOL0     C 1540   1.452   9.511  11.436 -0.0812  0.4409 -0.0583
   12MOL0     C 1541   1.471   9.401  11.359  0.4665  1.1230  0.0123
   12MOL0     C 1542   1.582   9.316  11.392  0.2381  0.2875  0.7519
   12MOL0     C 1543   1.649   9.319  11.515  0.5566  0.9779 -0.8213
   12MOL0     O 1544   1.752   9.223  11.531  0.1392 -0.4909 -0.8379
   12MOL0     C 1545   1.845   9.257  11.626 -0.1849  0.1612  0.5272
   12MOL0     C 1546   1.929   9.358  11.563 -0.0582 -0.0259  1.0702
   12MOL0     C 1547   2.069   9.355  11.630 -0.3348 -0.0507 -0.0398
   12MOL0     C 1548   2.155   9.242  11.579 -0.7533  0.1020 -0.8003
   12MOL0     C 1549   2.295   9.265  11.590 -0.2425  0.9224  0.1251
   12MOL0     C 1550   2.411   9.284  11.606 -0.5898 -0.6648 -0.4617
   12MOL0     C 1551   1.613   9.424  11.597  0.2217  0.4056  0.7129
   12MOL0     C 1552   1.518   9.517  11.559  0.4842 -0.3065  0.4744
   12MOL0     H 1553   1.262   9.866  11.332  0.4581 -0.9268  1.9734
   12MOL0     H 1554   1.030  10.007  11.336 -2.4920 -1.0975  1.9654
   12MOL0     H 1555   0.757   9.830  11.393  1.3794  0.7878 -1.2426
   12MOL0     H 1556   0.660   9.891  11.527 -1.7838 -0.3670 -1.0762
   12MOL0     H 1557   0.638  10.120  11.429 -2.9268 -0.6722  0.4709
   12MOL0     H 1558   0.732  10.065  11.289 -2.9400  1.4921 -2.3338
   12MOL0     H 1559   0.478   9.904  11.374  0.3351  0.4643 -0.4228
   12MOL0     H 1560   0.455  10.064  11.302  1.2518  1.7652  1.0655
   12MOL0     H 1561   0.543   9.991  11.104 -2.9842  0.6484  1.3463
   12MOL0     H 1562   0.620   9.845  11.164  1.0905 -0.0920 -0.1764
   12MOL0     H 1563   0.407   9.746  11.214  0.1022 -0.5392 -2.2212
   12MOL0     H 1564   0.317   9.890  11.170  0.6886  2.0943  0.7748
   12MOL0     H 1565   0.400   9.876  10.946  0.9328  0.9982  1.4472
   12MOL0     H 1566   0.500   9.732  10.979  0.0357  0.0322 -1.3000
   12MOL0     H 1567   0.302   9.594  11.031  0.6745  2.0842  4.3572
   12MOL0     H 1568   0.192   9.728  10.975 -0.6801 -0.1436 -0.8808
   12MOL0     H 1569   0.422   9.591  10.821 -2.0572 -2.4799 -2.9419
   12MOL0     H 1570   0.324   9.723  10.754 -0.1695  0.1936  0.5511
   12MOL0     H 1571   0.052   9.671  10.717  0.3092  0.8940 -2.1591
   12MOL0     H 1572  -0.095   9.529  10.561 -2.2567  1.0892  0.4073
   12MOL0     H 1573  -0.052   9.355  10.524  2.2904  1.7207 -1.3628
   12MOL0     H 1574  -0.234   9.485  10.728  0.3779  0.6284 -1.2131
   12MOL0     H 1575  -0.147   9.336  10.774 -0.5707 -0.5176  0.9829
   12MOL0     H 1576  -0.250   9.229  10.564 -0.5273 -0.2751 -0.6221
   12MOL0     H 1577  -0.348   9.388  10.553 -1.4612 -0.8612  0.6938
   12MOL0     H 1578  -0.423   9.362  10.777  3.8113  0.7832 -0.1859
   12MOL0     H 1579  -0.358   9.205  10.787  0.4523  1.9692  0.7832
   12MOL0     H 1580  -0.745   9.198  10.532 -0.9448  2.5495  0.3906
   12MOL0     H 1581  -0.958   9.166  10.498 -0.7637  0.5241 -0.0435
   12MOL0     H 1582  -1.019   9.038  10.597 -0.5291  0.9069 -1.3720
   12MOL0     H 1583  -1.063   9.199  10.637  0.6810  0.3310 -1.0347
   12MOL0     H 1584  -0.975   8.921  11.268  0.2707  1.3156 -0.2020
   12MOL0     H 1585  -1.170   8.850  11.405  1.3554 -0.8815 -0.3701
   12MOL0     H 1586  -1.571   8.895  11.208  0.4528 -2.1998 -0.2766
   12MOL0     H 1587  -1.497   8.753  11.234 -0.3249  0.9602 -1.1376
   12MOL0     H 1588  -1.609   8.733  11.475  0.4424  0.9653  0.5711
   12MOL0     H 1589  -1.664   8.897  11.451 -0.7530 -1.1291  2.2170
   12MOL0     H 1590  -1.742   8.655  11.268  3.8227 -0.2667  1.2728
   12MOL0     H 1591  -1.801   8.821  11.246  0.5768  0.3314 -0.9534
   12MOL0     H 1592  -1.829   8.684  11.523  0.3309  0.3093 -0.1964
   12MOL0     H 1593  -1.897   8.830  11.458  2.1981  0.4445  0.3187
   12MOL0     H 1594  -1.962   8.567  11.319  0.7765 -0.2919  1.4064
   12MOL0     H 1595  -2.037   8.734  11.292 -2.6161  0.8656  1.8198
   12MOL0     H 1596  -2.079   8.558  11.519  0.5930 -2.2444 -1.9484
   12MOL0     H 1597  -2.160   8.721  11.489  0.4193 -0.3106  0.2963
   12MOL0     H 1598  -2.204   8.453  11.338  2.1771  0.1694  1.6003
   12MOL0     H 1599  -2.223   8.604  11.254 -0.5658  1.1378  0.4689
   12MOL0     H 1600  -2.390   8.668  11.453 -1.0939 -0.1896 -0.3754
   12MOL0     H 1601  -2.377   8.498  11.504  2.7075 -1.6122 -0.3879
   12MOL0     H 1602  -1.437   9.062  11.143  0.1950  1.0731  0.9687
   12MOL0     H 1603  -1.248   9.149  11.025  1.5458  0.4527  0.2948
   12MOL0     H 1604  -0.736   9.112  11.016  0.4111 -2.0999  0.3324
   12MOL0     H 1605  -0.527   9.181  10.914 -2.2691  1.5947  2.0182
   12MOL0     H 1606   0.917   9.788  11.673 -1.2730  0.4256 -1.3356
   12MOL0     H 1607   1.148   9.684  11.683 -1.6800 -0.2703  0.7814
   12MOL0     H 1608   1.413   9.361  11.276 -0.3683 -0.3989  1.2716
   12MOL0     H 1609   1.600   9.242  11.315 -0.1961  2.9096 -2.0607
   12MOL0     H 1610   1.804   9.296  11.719 -1.2294 -1.4327  0.7768
   12MOL0     H 1611   1.901   9.165  11.646 -2.5193 -1.2618  0.9561
   12MOL0     H 1612   1.885   9.458  11.563 -1.1170 -0.3258 -3.0364
   12MOL0     H 1613   1.927   9.336  11.456 -4.0807  0.9859  0.7492
   12MOL0     H 1614   2.060   9.355  11.738  2.7325  0.7587  0.3342
   12MOL0     H 1615   2.125   9.446  11.606  0.1564 -0.1436  0.7301
   12MOL0     H 1616   2.143   9.243  11.470 -0.4857  0.5134 -0.8264
   12MOL0     H 1617   2.130   9.144  11.621 -2.0152  0.5025 -0.5780
   12MOL0     H 1618   2.515   9.307  11.619 -0.9289  0.1077  1.2928
   12MOL0     H 1619   1.665   9.453  11.688 -0.1985  2.5562  0.3264
   12MOL0     H 1620   1.512   9.601  11.627  0.4208 -0.1310  0.2560
   13MOL0     O 1621  10.864   3.153   3.351  0.1679 -0.1878 -0.2567
   13MOL0     C 1622  10.914   3.261   3.381 -0.0333  0.4550 -0.3639
   13MOL0     O 1623  10.849   3.369   3.432  0.7513  0.2092  0.3089
   13MOL0     C 1624  10.713   3.383   3.445 -0.6538  0.1169  0.0563
   13MOL0     C 1625  10.619   3.279   3.469 -0.7006 -0.5828  0.9208
   13MOL0     C 1626  10.479   3.308   3.488 -0.2461 -0.6390  0.0590
   13MOL0     C 1627  10.440   3.437   3.473 -0.2080 -1.7286  1.0752
   13MOL0     O 1628  10.308   3.474   3.494 -0.1105  0.7313 -0.7572
   13MOL0     C 1629  10.203   3.401   3.560  0.7040 -0.0653 -0.1446
   13MOL0     C 1630  10.072   3.470   3.543 -0.1146  0.0555 -0.1429
   13MOL0     C 1631   9.956   3.375   3.589  0.0611  0.4037 -0.6996
   13MOL0     C 1632   9.828   3.448   3.582  1.3090 -0.6752 -0.0459
   13MOL0     C 1633   9.792   3.490   3.726 -0.2963 -0.2319 -0.0122
   13MOL0     C 1634   9.679   3.586   3.743  0.8120  0.1005  0.1414
   13MOL0     C 1635   9.555   3.531   3.660 -0.5527  0.5138  0.4881
   13MOL0     C 1636   9.423   3.592   3.686 -0.0015 -0.3466 -0.3818
   13MOL0     N 1637   9.343   3.595   3.561  0.3276  0.3652  0.6424
   13MOL0     C 1638   9.263   3.492   3.512 -0.3360 -0.7922 -0.1208
   13MOL0     C 1639   9.239   3.518   3.380  0.3879 -0.3934  0.8626
   13MOL0     C 1640   9.172   3.431   3.272  0.0888  0.8548 -0.2575
   13MOL0     C 1641   9.019   3.419   3.273 -0.6200 -0.4556 -1.0400
   13MOL0     C 1642   8.940   3.549   3.253 -0.2999  0.0645 -1.0828
   13MOL0     C 1643   8.787   3.510   3.250 -0.9804 -0.1541  0.3422
   13MOL0     O 1644   8.749   3.410   3.353  0.4271 -0.6127  0.5226
   13MOL0     C 1645   8.634   3.352   3.320 -0.2244 -0.5647  0.7452
   13MOL0     C 1646   8.630   3.213   3.312 -0.0620 -0.1034  0.0295
   13MOL0     C 1647   8.513   3.148   3.271  0.5748 -0.1103 -0.5332
   13MOL0     C 1648   8.531   3.000   3.250 -0.0886 -0.4278 -1.5675
   13MOL0     C 1649   8.390   3.217   3.240  0.5074  0.2329 -1.0918
   13MOL0     C 1650   8.254   3.153   3.202 -0.0001 -0.9494  0.0997
   13MOL0     O 1651   8.250   3.018   3.190 -0.2027 -0.6985  0.8881
   13MOL0     C 1652   8.136   2.957   3.139  0.2765  0.0822 -0.1742
   13MOL0     C 1653   8.012   2.953   3.206  0.7830  0.8783  0.0009
   13MOL0     C 1654   7.894   2.891   3.149  0.1962  0.0951 -0.7303
   13MOL0     C 1655   7.908   2.819   3.028 -0.5035  0.4746  1.2418
   13MOL0     O 1656   7.807   2.753   2.960 -0.2330  0.1703  0.2151
   13MOL0     C 1657   7.674   2.729   3.018 -0.7058 -0.1105 -0.5148
   13MOL0     C 1658   7.674   2.623   3.122  0.1853 -0.1468  0.3627
   13MOL0     C 1659   7.535   2.585   3.177  0.5598 -0.1677  0.1002
   13MOL0     C 1660   7.450   2.706   3.224  0.1856  0.8066  0.0703
   13MOL0     C 1661   7.499   2.766   3.361  0.1567  0.4339 -0.0068
   13MOL0     C 1662   7.507   2.918   3.366  0.5869  0.2811  0.2767
   13MOL0     C 1663   7.546   2.962   3.506 -0.5573 -0.4249 -0.5659
   13MOL0     C 1664   7.506   3.112   3.526 -0.3549 -0.2756 -0.1280
   13MOL0    Cl 1665   7.558   3.124   3.693 -0.0871  0.1079 -0.0899
   13MOL0     C 1666   8.030   2.832   2.959 -0.7615  0.0907 -0.7659
   13MOL0     C 1667   8.141   2.899   3.011  0.6841  0.0220 -0.7596
   13MOL0     O 1668   8.154   3.226   3.219  0.7951  0.3360 -0.2579
   13MOL0     C 1669   8.403   3.357   3.230  0.1084 -0.7521 -0.2879
   13MOL0     C 1670   8.514   3.418   3.283  0.3723 -0.6258  0.8982
   13MOL0     N 1671   9.310   3.635   3.350  0.7063  0.3825 -0.0205
   13MOL0     N 1672   9.369   3.679   3.460 -0.2909  0.2431 -0.5304
   13MOL0     C 1673  10.529   3.536   3.440 -0.4798 -0.3331  0.3815
   13MOL0     C 1674  10.658   3.507   3.428 -0.4823 -0.7763  0.6895
   13MOL0     C 1675  11.058   3.270   3.391 -0.1588  0.3192 -0.5363
   13MOL0     C 1676  11.128   3.392   3.370  0.1978 -0.1504  0.1828
   13MOL0     C 1677  11.272   3.385   3.382 -0.6960 -0.9814  1.3644
   13MOL0     C 1678  11.349   3.274   3.415 -0.8179  0.0005  0.8138
   13MOL0     O 1679  11.483   3.277   3.445 -0.1569  0.2057  0.1310
   13MOL0     C 1680  11.553   3.144   3.449  0.2964 -0.1601  0.0516
   13MOL0     C 1681  11.700   3.192   3.455 -0.5718  0.3622  1.3306
   13MOL0     C 1682  11.805   3.087   3.442 -0.9171  0.6859 -0.0307
   13MOL0     C 1683  11.817   2.985   3.558 -0.1548  0.2108 -0.4330
   13MOL0     C 1684  11.826   3.053   3.687 -1.0640 -0.3398  0.5509
   13MOL0     C 1685  11.805   3.119   3.788 -0.3663 -0.9670 -0.5862
   13MOL0     C 1686  11.272   3.160   3.433  0.0633  0.4377 -0.2247
   13MOL0     C 1687  11.136   3.155   3.413 -0.2969  0.5865  0.7649
   13MOL0     H 1688  10.652   3.176   3.468  1.0783 -0.0517 -0.2385
   13MOL0     H 1689  10.409   3.231   3.519 -3.8124  2.3051 -0.0159
   13MOL0     H 1690  10.200   3.307   3.503 -0.1011  1.9151 -3.7108
   13MOL0     H 1691  10.231   3.393   3.665  0.8480 -0.9153 -0.2403
   13MOL0     H 1692  10.074   3.564   3.598  0.5367 -0.0339 -0.0063
   13MOL0     H 1693  10.055   3.505   3.441 -0.5822 -0.8432 -0.3873
   13MOL0     H 1694   9.959   3.292   3.517  1.2147  1.7846 -2.3218
   13MOL0     H 1695   9.976   3.337   3.689 -1.7588  0.5830 -0.2303
   13MOL0     H 1696   9.841   3.537   3.520  0.2446 -0.1215  0.5066
   13MOL0     H 1697   9.752   3.386   3.534  1.3811 -1.3858  0.7258
   13MOL0     H 1698   9.767   3.405   3.791  2.0791 -0.3140  0.8816
   13MOL0     H 1699   9.873   3.542   3.776 -1.0171  0.5556  0.3578
   13MOL0     H 1700   9.651   3.608   3.846  2.1763 -2.3375  1.1170
   13MOL0     H 1701   9.702   3.680   3.692 -2.5667  1.0217  0.0817
   13MOL0     H 1702   9.586   3.556   3.558  0.6357 -0.7061  0.5184
   13MOL0     H 1703   9.561   3.422   3.666  0.6110  0.4639 -0.9106
   13MOL0     H 1704   9.431   3.690   3.734  0.7110  1.0811 -3.1967
   13MOL0     H 1705   9.375   3.527   3.760  2.6823 -0.0797  1.7434
   13MOL0     H 1706   9.223   3.406   3.565 -1.8823  0.9059  1.6150
   13MOL0     H 1707   9.202   3.465   3.173  0.4793 -1.5641 -1.0230
   13MOL0     H 1708   9.205   3.328   3.284  0.1414  0.9667  0.6658
   13MOL0     H 1709   8.993   3.364   3.364  3.1452 -1.3743 -0.3568
   13MOL0     H 1710   8.998   3.352   3.189  1.0256  1.0671 -2.7638
   13MOL0     H 1711   8.974   3.605   3.165  0.1391  2.6044  0.5913
   13MOL0     H 1712   8.947   3.607   3.345 -2.1471 -1.2194 -0.0814
   13MOL0     H 1713   8.757   3.475   3.151 -2.9154  0.6216  0.6031
   13MOL0     H 1714   8.728   3.598   3.275  0.8941  0.9188  1.1917
   13MOL0     H 1715   8.719   3.161   3.346 -0.4082  0.5217  2.0234
   13MOL0     H 1716   8.510   2.966   3.149 -0.7258 -1.4675 -1.0965
   13MOL0     H 1717   8.637   2.979   3.271 -0.2043 -0.2999 -0.8124
   13MOL0     H 1718   8.468   2.945   3.320  1.4615  0.3670  0.5622
   13MOL0     H 1719   8.003   3.002   3.303 -1.9710  1.8016 -0.6080
   13MOL0     H 1720   7.800   2.909   3.201  0.9679  1.3665  0.3081
   13MOL0     H 1721   7.635   2.823   3.058 -2.2310 -1.0318  0.2442
   13MOL0     H 1722   7.614   2.678   2.942 -0.7986 -0.4837 -0.1899
   13MOL0     H 1723   7.700   2.526   3.080 -0.0863 -1.0260  2.1157
   13MOL0     H 1724   7.753   2.642   3.195  0.5936  3.0953 -0.7759
   13MOL0     H 1725   7.544   2.524   3.267 -2.8596  1.0709  1.4471
   13MOL0     H 1726   7.489   2.523   3.100  4.9019 -1.2352 -1.9605
   13MOL0     H 1727   7.449   2.778   3.141 -0.0084 -0.9571 -1.5503
   13MOL0     H 1728   7.347   2.670   3.237  0.2745  0.8240  0.8312
   13MOL0     H 1729   7.605   2.738   3.368 -0.4762 -1.9263  0.7091
   13MOL0     H 1730   7.446   2.719   3.444  0.3748 -1.8031 -1.0736
   13MOL0     H 1731   7.587   2.950   3.299 -1.6513  3.2330 -1.2661
   13MOL0     H 1732   7.410   2.958   3.333  0.0400 -1.6553 -0.6422
   13MOL0     H 1733   7.651   2.953   3.535  0.3131 -1.8021 -3.7003
   13MOL0     H 1734   7.487   2.904   3.578 -2.8657  0.1007 -1.9408
   13MOL0     H 1735   7.398   3.132   3.515 -0.3120  0.2367  0.3383
   13MOL0     H 1736   7.568   3.180   3.466  2.1141 -3.2156 -1.1180
   13MOL0     H 1737   8.036   2.784   2.862 -4.1667  1.0170 -1.5570
   13MOL0     H 1738   8.236   2.912   2.959  0.7317  0.1980 -0.6279
   13MOL0     H 1739   8.326   3.424   3.194 -0.0941 -0.0797  1.3141
   13MOL0     H 1740   8.503   3.526   3.293 -0.4484 -0.8930  4.0699
   13MOL0     H 1741  10.487   3.634   3.422 -0.6499 -0.7171 -1.5405
   13MOL0     H 1742  10.732   3.583   3.405  2.6491 -2.6573  3.5746
   13MOL0     H 1743  11.079   3.488   3.354 -1.0139 -0.9070 -0.8850
   13MOL0     H 1744  11.323   3.481   3.379 -1.1616 -0.7326  1.2770
   13MOL0     H 1745  11.526   3.070   3.524  1.8588 -0.7756  0.0409
   13MOL0     H 1746  11.548   3.097   3.350 -1.9804 -3.2184  1.4901
   13MOL0     H 1747  11.716   3.257   3.541 -0.5771  1.6631  0.3803
   13MOL0     H 1748  11.714   3.248   3.362  0.4904 -1.5082  0.2929
   13MOL0     H 1749  11.905   3.132   3.435 -1.5694  2.2616  0.3497
   13MOL0     H 1750  11.795   3.025   3.352  0.4147  1.2336 -0.5854
   13MOL0     H 1751  11.894   2.908   3.553  0.9611  1.3524 -1.7341
   13MOL0     H 1752  11.722   2.931   3.559  1.1651 -2.3194 -1.7297
   13MOL0     H 1753  11.810   3.195   3.863  4.3039 -1.3004 -0.2564
   13MOL0     H 1754  11.322   3.066   3.455  1.9910  1.1204 -1.4349
   13MOL0     H 1755  11.089   3.060   3.437  0.0509 -0.3712 -2.0408
   14MOL0     O 1756   3.615   4.650   5.179  0.0198  0.1271  0.3276
   14MOL0     C 1757   3.689   4.715   5.257  0.4657 -0.1667  0.3442
   14MOL0     O 1758   3.650   4.798   5.352  0.3926  0.8498 -0.0803
   14MOL0     C 1759   3.525   4.806   5.408 -0.6260 -0.3552  0.2115
   14MOL0     C 1760   3.418   4.868   5.333  0.0524 -0.4106  0.4926
   14MOL0     C 1761   3.286   4.871   5.383 -0.6121  0.8364  0.1103
   14MOL0     C 1762   3.258   4.822   5.506 -0.8060  0.1548  0.7576
   14MOL0     O 1763   3.138   4.842   5.560  0.0289  0.3172  0.3208
   14MOL0     C 1764   3.054   4.753   5.511 -0.1514 -0.0174  0.4982
   14MOL0     C 1765   2.934   4.825   5.443 -0.2004  0.2215 -0.0606
   14MOL0     C 1766   2.844   4.914   5.522  0.0676 -0.3683  0.5094
   14MOL0     C 1767   2.771   4.838   5.635  0.8704  0.1720  0.7125
   14MOL0     C 1768   2.654   4.926   5.687 -0.9113  0.5652 -0.1482
   14MOL0     C 1769   2.524   4.914   5.619  1.0314  0.1866  0.4061
   14MOL0     C 1770   2.411   5.007   5.679  0.1098 -0.3332 -0.7446
   14MOL0     C 1771   2.362   4.953   5.820 -0.2422 -0.2117 -0.1385
   14MOL0     N 1772   2.318   4.814   5.818 -0.6100 -0.5071 -0.0914
   14MOL0     C 1773   2.188   4.782   5.773 -0.5517  0.1333  0.4236
   14MOL0     C 1774   2.178   4.654   5.816  0.0560 -0.4777 -0.3293
   14MOL0     C 1775   2.069   4.554   5.782  0.2113 -0.2123  0.1410
   14MOL0     C 1776   1.940   4.601   5.850 -0.2452  0.8354 -1.1301
   14MOL0     C 1777   1.829   4.529   5.776 -0.3992 -0.0535  0.1677
   14MOL0     C 1778   1.695   4.592   5.805  0.1656 -0.5581 -0.6764
   14MOL0     O 1779   1.679   4.565   5.946 -0.3660  0.3285  0.1858
   14MOL0     C 1780   1.562   4.587   6.011 -0.0975 -0.0054  0.8837
   14MOL0     C 1781   1.464   4.665   5.968 -0.1820  0.7696  0.2512
   14MOL0     C 1782   1.337   4.673   6.023  0.6957 -0.0744 -0.2609
   14MOL0     C 1783   1.234   4.746   5.939 -0.9126  0.1080  0.1869
   14MOL0     C 1784   1.320   4.617   6.152  0.3417 -0.5481 -0.4426
   14MOL0     C 1785   1.198   4.633   6.231 -0.1422 -0.5379 -0.0114
   14MOL0     O 1786   1.218   4.614   6.369  0.3934  0.5656  0.5819
   14MOL0     C 1787   1.108   4.643   6.450  0.8620  0.0214  0.3083
   14MOL0     C 1788   1.115   4.768   6.513  0.3090 -0.0549 -0.1663
   14MOL0     C 1789   1.000   4.806   6.591  0.5609  0.0907 -0.5675
   14MOL0     C 1790   0.882   4.723   6.601  0.4043 -0.2769  0.7555
   14MOL0     O 1791   0.767   4.751   6.667 -0.4218  0.1392  0.6786
   14MOL0     C 1792   0.761   4.854   6.762 -0.1577  0.1097  0.3063
   14MOL0     C 1793   0.612   4.865   6.805  0.0825 -0.8309  0.4292
   14MOL0     C 1794   0.520   4.901   6.691 -0.6704 -0.6552  0.6542
   14MOL0     C 1795   0.477   5.050   6.674 -0.3601 -0.5277 -0.2630
   14MOL0     C 1796   0.580   5.125   6.602 -0.5374 -0.2035  1.0732
   14MOL0     C 1797   0.534   5.246   6.523  0.0109  0.3064 -0.2176
   14MOL0     C 1798   0.648   5.333   6.472  0.4861 -0.3661  0.0379
   14MOL0     C 1799   0.609   5.402   6.334  0.0926 -0.3218 -0.4713
   14MOL0    Cl 1800   0.555   5.276   6.219  0.0349 -0.1593  0.2718
   14MOL0     C 1801   0.885   4.605   6.534 -0.5276 -0.0648 -0.0741
   14MOL0     C 1802   0.989   4.573   6.452  0.9724 -0.0930 -0.9238
   14MOL0     O 1803   1.085   4.640   6.175 -0.4855  0.2549  0.1250
   14MOL0     C 1804   1.433   4.559   6.206 -0.0944  0.1844 -0.5198
   14MOL0     C 1805   1.553   4.541   6.139  0.2664 -0.9927  0.1092
   14MOL0     N 1806   2.276   4.623   5.913  0.1728  0.4416  0.0069
   14MOL0     N 1807   2.370   4.709   5.892  0.1475 -0.4290 -0.7704
   14MOL0     C 1808   3.363   4.752   5.578 -0.2615  0.5775  0.5591
   14MOL0     C 1809   3.498   4.753   5.529 -0.2360  0.4437 -0.2823
   14MOL0     C 1810   3.833   4.682   5.233  1.4238 -0.1424  0.2643
   14MOL0     C 1811   3.940   4.774   5.261  0.4021 -0.1926 -0.8760
   14MOL0     C 1812   4.071   4.739   5.228  0.4207  0.3764  0.7305
   14MOL0     C 1813   4.100   4.620   5.164 -0.4031 -0.2956  0.0374
   14MOL0     O 1814   4.223   4.597   5.116 -0.0774 -0.3146  0.1021
   14MOL0     C 1815   4.252   4.476   5.041 -0.0552 -0.4749 -0.5732
   14MOL0     C 1816   4.389   4.488   4.963 -0.5488 -0.2859 -0.1860
   14MOL0     C 1817   4.513   4.539   5.037  0.0859  0.2658  0.5068
   14MOL0     C 1818   4.627   4.563   4.934 -0.3699  0.1634 -0.8425
   14MOL0     C 1819   4.667   4.436   4.865 -0.3351 -0.0855 -0.9032
   14MOL0     C 1820   4.689   4.322   4.820 -0.0482 -0.2251  0.2341
   14MOL0     C 1821   4.000   4.522   5.155  0.2753 -0.2219  0.0892
   14MOL0     C 1822   3.866   4.550   5.196  0.8258  0.0344  0.2913
   14MOL0     H 1823   3.429   4.923   5.240 -4.7966  2.4200  1.2376
   14MOL0     H 1824   3.204   4.921   5.334 -0.4878  2.3377  1.3700
   14MOL0     H 1825   3.095   4.679   5.441 -0.5494 -2.0006  2.2680
   14MOL0     H 1826   3.027   4.684   5.592  0.6040  0.5558  1.2640
   14MOL0     H 1827   2.975   4.888   5.364  0.4943 -1.3031 -0.9485
   14MOL0     H 1828   2.873   4.757   5.383  1.9044 -0.6839 -1.2895
   14MOL0     H 1829   2.899   4.996   5.568 -3.0657  1.0652  1.9857
   14MOL0     H 1830   2.764   4.952   5.458 -1.8127 -4.4346  0.0856
   14MOL0     H 1831   2.727   4.750   5.588 -1.0497  0.9151  0.9938
   14MOL0     H 1832   2.834   4.815   5.722 -2.1196  0.5320  3.1894
   14MOL0     H 1833   2.631   4.898   5.790 -0.1473  0.5401  0.0262
   14MOL0     H 1834   2.695   5.025   5.665  0.5162 -0.4640 -2.5885
   14MOL0     H 1835   2.528   4.932   5.512 -2.8797  0.8409  0.2302
   14MOL0     H 1836   2.489   4.811   5.629 -1.0490  0.7427 -0.6503
   14MOL0     H 1837   2.461   5.102   5.698  0.5236 -0.6049 -0.4744
   14MOL0     H 1838   2.338   5.015   5.598  2.0748 -0.4404 -2.6235
   14MOL0     H 1839   2.288   5.021   5.863  0.7608  0.7039  0.1874
   14MOL0     H 1840   2.452   4.951   5.883  2.4926 -2.2003 -3.7202
   14MOL0     H 1841   2.126   4.847   5.713  0.7193 -0.5698 -1.7537
   14MOL0     H 1842   2.059   4.560   5.673 -0.6310  1.5387  0.2879
   14MOL0     H 1843   2.106   4.458   5.817  2.2313  1.7656  4.0853
   14MOL0     H 1844   1.925   4.709   5.847  0.8759  1.1618  1.5371
   14MOL0     H 1845   1.950   4.574   5.956 -1.9989 -0.2548 -1.1944
   14MOL0     H 1846   1.824   4.424   5.808  0.1454 -0.7742 -1.9544
   14MOL0     H 1847   1.840   4.519   5.668  0.4817  1.7886  0.0450
   14MOL0     H 1848   1.608   4.551   5.753 -1.3129  0.7927  0.5866
   14MOL0     H 1849   1.697   4.702   5.807  2.0241 -0.5585  1.9340
   14MOL0     H 1850   1.480   4.702   5.868  2.3027 -3.1628 -1.0486
   14MOL0     H 1851   1.282   4.816   5.869 -2.1379  0.1371 -0.6738
   14MOL0     H 1852   1.194   4.677   5.864 -2.1104 -1.4345  2.1463
   14MOL0     H 1853   1.150   4.791   5.994 -2.1942 -2.1099  0.1506
   14MOL0     H 1854   1.206   4.826   6.523 -0.8795  1.5119  2.8062
   14MOL0     H 1855   1.007   4.897   6.650  0.0052 -1.8859  2.8680
   14MOL0     H 1856   0.825   4.827   6.847  0.5851 -1.5561 -0.7204
   14MOL0     H 1857   0.804   4.948   6.728  1.3292 -0.6731 -0.0674
   14MOL0     H 1858   0.571   4.781   6.861 -2.6541  1.3986  2.0589
   14MOL0     H 1859   0.608   4.952   6.871  0.1779  0.4445 -1.1876
   14MOL0     H 1860   0.423   4.854   6.708 -0.9350 -0.1919  0.4292
   14MOL0     H 1861   0.548   4.858   6.595  1.3717  0.3502  0.7354
   14MOL0     H 1862   0.385   5.065   6.618  0.2730  0.6089 -1.0314
   14MOL0     H 1863   0.464   5.082   6.778  0.4949 -3.0324  0.6988
   14MOL0     H 1864   0.643   5.073   6.529  0.5972  3.0418 -0.4657
   14MOL0     H 1865   0.639   5.160   6.687 -0.0542  4.7382 -0.9735
   14MOL0     H 1866   0.462   5.225   6.444 -0.3604  0.3590  0.1047
   14MOL0     H 1867   0.477   5.293   6.604 -2.3475 -0.0164 -1.6058
   14MOL0     H 1868   0.740   5.275   6.465  2.8271  2.9451  0.9221
   14MOL0     H 1869   0.680   5.412   6.541  1.4159  0.2476 -1.0667
   14MOL0     H 1870   0.686   5.464   6.286 -0.3141  0.9324  0.4376
   14MOL0     H 1871   0.520   5.459   6.361  0.4231 -0.1024  0.1789
   14MOL0     H 1872   0.805   4.532   6.538  1.1892 -2.1543 -1.4915
   14MOL0     H 1873   0.979   4.479   6.399 -2.2441 -0.0181 -0.6219
   14MOL0     H 1874   1.426   4.529   6.310 -0.8806 -0.8238 -0.8530
   14MOL0     H 1875   1.643   4.509   6.192 -0.2049  1.4294  2.5649
   14MOL0     H 1876   3.334   4.701   5.670  2.0535 -1.5559  0.2126
   14MOL0     H 1877   3.568   4.699   5.592 -1.5417  0.0333  0.8641
   14MOL0     H 1878   3.913   4.863   5.318  0.5815 -1.5606  1.4788
   14MOL0     H 1879   4.152   4.812   5.235 -0.8646  2.3753 -2.6024
   14MOL0     H 1880   4.267   4.397   5.115 -1.2509 -0.6171 -0.4703
   14MOL0     H 1881   4.162   4.462   4.980 -0.5946 -0.9270  0.3161
   14MOL0     H 1882   4.372   4.559   4.881 -2.3019 -2.4005 -1.7957
   14MOL0     H 1883   4.417   4.390   4.922  1.5336  0.3191 -0.3056
   14MOL0     H 1884   4.554   4.468   5.109 -0.6986  0.0205  0.7195
   14MOL0     H 1885   4.483   4.629   5.091  0.8210  0.6445  0.2973
   14MOL0     H 1886   4.717   4.596   4.987 -0.6328  1.0781 -0.9387
   14MOL0     H 1887   4.588   4.636   4.863  1.1657  0.3594 -1.5249
   14MOL0     H 1888   4.718   4.223   4.792 -0.5569  0.2677 -2.2548
   14MOL0     H 1889   4.021   4.422   5.119 -3.1426 -1.1911  0.4431
   14MOL0     H 1890   3.787   4.477   5.183  1.1067 -0.0645 -0.9563
   15MOL0     O 1891   5.280   1.683   2.980  0.2724 -0.6543  0.4953
   15MOL0     C 1892   5.298   1.664   3.102 -0.5030  0.4158  0.9026
   15MOL0     O 1893   5.198   1.684   3.193 -0.3115 -0.7597  0.4212
   15MOL0     C 1894   5.065   1.696   3.149  0.6342 -0.1731 -0.3491
   15MOL0     C 1895   5.008   1.608   3.056 -0.4998 -0.9741 -0.5149
   15MOL0     C 1896   4.876   1.624   3.004  0.5257  0.3509 -0.7723
   15MOL0     C 1897   4.810   1.744   3.034  0.0891  0.9295 -0.2097
   15MOL0     O 1898   4.686   1.774   2.984 -0.7951  0.3787  0.2374
   15MOL0     C 1899   4.580   1.713   3.058 -0.5393  0.8442  0.1086
   15MOL0     C 1900   4.458   1.809   3.060 -0.0207  0.2218  0.5063
   15MOL0     C 1901   4.402   1.828   2.919 -0.0210 -0.0983  0.5348
   15MOL0     C 1902   4.270   1.890   2.917  0.6889 -0.2425 -0.0263
   15MOL0     C 1903   4.209   1.891   2.771 -0.9557  1.1244 -0.5527
   15MOL0     C 1904   4.059   1.947   2.776 -0.2348 -0.4774 -0.0264
   15MOL0     C 1905   4.019   2.002   2.641 -0.0653 -0.3824  0.7309
   15MOL0     C 1906   4.035   1.898   2.525  0.5550 -0.1569  0.2990
   15MOL0     N 1907   3.998   1.967   2.398  1.0082  0.2850 -0.4813
   15MOL0     C 1908   4.043   2.080   2.353  0.0755 -0.9684 -0.1490
   15MOL0     C 1909   4.000   2.092   2.223 -0.1430  0.6190 -0.2256
   15MOL0     C 1910   3.993   2.219   2.138 -0.7582 -0.4693 -0.3617
   15MOL0     C 1911   3.882   2.312   2.175  0.2382 -0.0977 -0.2333
   15MOL0     C 1912   3.750   2.274   2.111 -0.6338  0.4014  0.8228
   15MOL0     C 1913   3.643   2.367   2.144  0.9331  0.1504 -0.5741
   15MOL0     O 1914   3.662   2.508   2.119  0.1623  0.0080  0.0466
   15MOL0     C 1915   3.577   2.566   2.027  0.6991  1.0102  0.4158
   15MOL0     C 1916   3.535   2.496   1.906 -0.0103 -0.3353 -0.5488
   15MOL0     C 1917   3.434   2.547   1.826  0.5980  0.2169  1.1837
   15MOL0     C 1918   3.390   2.461   1.712  0.0134 -0.5644  0.8544
   15MOL0     C 1919   3.382   2.680   1.849 -0.0495  0.8905  0.3447
   15MOL0     C 1920   3.269   2.736   1.773 -0.4813  0.0045 -0.1373
   15MOL0     O 1921   3.253   2.721   1.639 -0.0171  0.3129 -0.3789
   15MOL0     C 1922   3.140   2.783   1.581 -1.0098 -0.0773 -0.7746
   15MOL0     C 1923   3.067   2.703   1.501  0.0105 -0.2986 -0.7337
   15MOL0     C 1924   2.951   2.751   1.434  1.2220 -0.0343  0.2221
   15MOL0     C 1925   2.910   2.880   1.452 -0.6710 -0.1142  0.0499
   15MOL0     O 1926   2.807   2.934   1.377  0.2158 -0.5706  0.5116
   15MOL0     C 1927   2.777   2.884   1.247 -0.3940  0.0312  0.7355
   15MOL0     C 1928   2.697   2.993   1.170 -0.0550  0.9823 -0.2793
   15MOL0     C 1929   2.559   3.032   1.220 -0.5378 -0.0560  0.1938
   15MOL0     C 1930   2.471   2.908   1.220  0.4169  0.9317 -0.6875
   15MOL0     C 1931   2.327   2.934   1.275  0.3697 -0.2376  0.1344
   15MOL0     C 1932   2.247   2.807   1.282 -0.2452 -0.8298  0.2256
   15MOL0     C 1933   2.097   2.834   1.308 -0.3574  0.5787  0.0809
   15MOL0     C 1934   2.004   2.866   1.188 -0.3460 -0.2397 -0.1572
   15MOL0    Cl 1935   1.973   2.721   1.082  0.3677 -0.2513 -0.3443
   15MOL0     C 1936   2.991   2.966   1.532  1.0469 -0.3762 -0.4226
   15MOL0     C 1937   3.101   2.914   1.598 -0.5585 -1.0924 -0.0274
   15MOL0     O 1938   3.195   2.802   1.850  0.2016 -0.3206 -0.6338
   15MOL0     C 1939   3.424   2.738   1.970 -0.2611 -0.4496  0.6733
   15MOL0     C 1940   3.527   2.692   2.052 -0.8651  0.0330 -0.6876
   15MOL0     N 1941   3.939   1.974   2.191  0.6102 -0.1117 -1.1865
   15MOL0     N 1942   3.938   1.905   2.294 -0.6185  0.3824  0.4916
   15MOL0     C 1943   4.867   1.830   3.133  0.4494  0.4039  0.3284
   15MOL0     C 1944   4.992   1.815   3.185 -0.7699  0.1469 -0.4252
   15MOL0     C 1945   5.439   1.641   3.140 -0.0464  0.0596 -0.3943
   15MOL0     C 1946   5.471   1.627   3.279  0.8301 -0.0479  0.7656
   15MOL0     C 1947   5.609   1.613   3.323  0.1983  0.0233  0.2448
   15MOL0     C 1948   5.698   1.581   3.225 -0.6136  0.6200  0.2903
   15MOL0     O 1949   5.827   1.541   3.258  0.0938 -0.1368 -0.7180
   15MOL0     C 1950   5.888   1.612   3.368  0.2318 -0.6652 -0.7275
   15MOL0     C 1951   6.028   1.541   3.392  1.0048  0.2191  0.2382
   15MOL0     C 1952   6.099   1.581   3.521 -0.2668 -0.0984 -0.2273
   15MOL0     C 1953   6.225   1.497   3.544 -0.4181  0.8830  0.3953
   15MOL0     C 1954   6.326   1.512   3.436  0.1341  0.4603 -0.2611
   15MOL0     C 1955   6.401   1.529   3.341  0.8123 -0.3290 -0.4892
   15MOL0     C 1956   5.673   1.588   3.087  0.7219 -1.3196  0.1960
   15MOL0     C 1957   5.539   1.616   3.045 -0.2745 -0.5223 -0.3195
   15MOL0     H 1958   5.071   1.523   3.028  0.7918 -0.6864  1.3253
   15MOL0     H 1959   4.841   1.560   2.924  0.7902  0.2897 -0.8407
   15MOL0     H 1960   4.547   1.618   3.016 -1.1092  1.6068 -1.2520
   15MOL0     H 1961   4.596   1.694   3.164  2.4436 -0.2212 -0.4480
   15MOL0     H 1962   4.374   1.766   3.115 -3.1259  2.5523 -1.9964
   15MOL0     H 1963   4.474   1.914   3.086 -2.7248  1.1821 -1.2516
   15MOL0     H 1964   4.474   1.872   2.850  1.0842  0.9367  2.2690
   15MOL0     H 1965   4.398   1.723   2.888 -0.8650 -0.7285  2.5742
   15MOL0     H 1966   4.203   1.837   2.986  2.2032 -1.2339  0.7217
   15MOL0     H 1967   4.285   1.995   2.943  0.4907 -0.6837  2.0810
   15MOL0     H 1968   4.272   1.945   2.700  2.0717  1.0610  1.8907
   15MOL0     H 1969   4.209   1.788   2.736  4.1187  0.9176 -0.5426
   15MOL0     H 1970   3.993   1.870   2.815 -0.9530 -0.5255 -1.3086
   15MOL0     H 1971   4.061   2.029   2.849  3.1965 -1.4242  1.1410
   15MOL0     H 1972   3.917   2.039   2.638 -1.0335 -2.8397  0.2066
   15MOL0     H 1973   4.093   2.081   2.625  1.0960 -1.5096  0.1937
   15MOL0     H 1974   3.972   1.811   2.541 -1.9292  1.1536 -1.5268
   15MOL0     H 1975   4.135   1.856   2.513  0.1192 -0.7665 -1.4629
   15MOL0     H 1976   4.097   2.151   2.415  3.4439 -0.6630 -3.0799
   15MOL0     H 1977   4.090   2.270   2.146  1.7474 -4.3042 -2.9314
   15MOL0     H 1978   3.984   2.201   2.031 -0.4604  0.5668 -0.5706
   15MOL0     H 1979   3.895   2.418   2.151 -2.8080  0.8491  1.6941
   15MOL0     H 1980   3.859   2.314   2.282 -2.3337 -2.2875 -0.6180
   15MOL0     H 1981   3.724   2.173   2.144 -0.9988  0.5549  1.0105
   15MOL0     H 1982   3.760   2.274   2.002  0.2432 -0.8409  0.8814
   15MOL0     H 1983   3.638   2.369   2.253  4.0300  4.3575 -0.2782
   15MOL0     H 1984   3.545   2.339   2.103  0.4421 -0.8898  1.1825
   15MOL0     H 1985   3.582   2.405   1.872  0.3235 -0.0790 -0.7816
   15MOL0     H 1986   3.453   2.486   1.626  0.0153  2.8140  1.7288
   15MOL0     H 1987   3.403   2.353   1.728  1.6014 -0.8723 -1.8542
   15MOL0     H 1988   3.288   2.474   1.675  0.5476  0.7818 -0.2232
   15MOL0     H 1989   3.110   2.604   1.489  0.4057 -0.2754  0.3818
   15MOL0     H 1990   2.898   2.682   1.369 -1.0007 -0.1062  1.9736
   15MOL0     H 1991   2.876   2.882   1.202  0.0218 -1.8554  1.6165
   15MOL0     H 1992   2.725   2.788   1.255  0.3117 -0.4899 -0.6265
   15MOL0     H 1993   2.766   3.078   1.159 -0.8433  1.5648 -0.8334
   15MOL0     H 1994   2.677   2.965   1.066 -3.0321  2.8695 -0.3378
   15MOL0     H 1995   2.521   3.112   1.156  0.1342 -0.8923 -1.3161
   15MOL0     H 1996   2.571   3.067   1.322 -0.5579 -0.8737  0.4837
   15MOL0     H 1997   2.460   2.861   1.123 -0.8931 -0.9290  0.3033
   15MOL0     H 1998   2.513   2.832   1.286 -0.0298 -0.8190 -2.3562
   15MOL0     H 1999   2.274   2.998   1.203  2.1897  1.3237  0.0833
   15MOL0     H 2000   2.333   2.980   1.374 -2.5694 -2.0597  1.2919
   15MOL0     H 2001   2.252   2.741   1.195 -1.8829  0.4185 -0.8578
   15MOL0     H 2002   2.284   2.750   1.368  0.5185 -1.8738 -0.7690
   15MOL0     H 2003   2.081   2.917   1.377 -4.0406  2.2803 -2.5193
   15MOL0     H 2004   2.065   2.741   1.355 -0.6202 -0.1692 -1.5340
   15MOL0     H 2005   2.028   2.957   1.132 -2.7682 -0.2829 -1.4072
   15MOL0     H 2006   1.906   2.894   1.226 -0.4378 -0.2882 -0.3520
   15MOL0     H 2007   2.966   3.071   1.544 -1.0844 -0.9102  0.1094
   15MOL0     H 2008   3.168   2.976   1.657 -0.0550 -2.7548  1.2221
   15MOL0     H 2009   3.383   2.834   1.999  0.1104  0.1040 -0.5799
   15MOL0     H 2010   3.560   2.757   2.131  0.4791 -1.2367 -0.1489
   15MOL0     H 2011   4.797   1.906   3.166  0.2240  0.2401  0.2256
   15MOL0     H 2012   5.039   1.886   3.252  4.1805 -1.5571 -1.6382
   15MOL0     H 2013   5.396   1.638   3.356 -2.6107 -1.9867 -2.0155
   15MOL0     H 2014   5.612   1.603   3.431  0.7211  0.3851  0.2667
   15MOL0     H 2015   5.902   1.718   3.344 -0.1142 -0.6969 -1.0960
   15MOL0     H 2016   5.836   1.602   3.463  1.8524  2.3888  0.6311
   15MOL0     H 2017   6.091   1.562   3.305  0.6022 -3.2171 -1.0388
   15MOL0     H 2018   6.009   1.434   3.405  2.6542 -0.1464 -0.1539
   15MOL0     H 2019   6.045   1.559   3.613 -1.3220  1.4719 -0.4372
   15MOL0     H 2020   6.124   1.687   3.518  2.3066 -0.6189 -3.1220
   15MOL0     H 2021   6.197   1.391   3.549  2.5580 -0.1234 -1.3423
   15MOL0     H 2022   6.276   1.507   3.640  0.9238  1.9364 -0.3943
   15MOL0     H 2023   6.461   1.559   3.257  0.1061 -0.7886 -1.1762
   15MOL0     H 2024   5.758   1.559   3.026  1.0884 -0.2793  0.1927
   15MOL0     H 2025   5.512   1.610   2.940 -1.8270  0.2021  0.0210
   16MOL0     O 2026   9.965   0.012   3.301 -0.3894  0.0256 -0.2457
   16MOL0     C 2027   9.998   0.050   3.184  1.3248  0.8228 -0.8789
   16MOL0     O 2028   9.913   0.103   3.094 -0.5935  0.5754 -0.1828
   16MOL0     C 2029   9.786   0.135   3.139  0.7205  0.2862  0.1604
   16MOL0     C 2030   9.748   0.224   3.235  0.3677 -1.2169  0.1931
   16MOL0     C 2031   9.616   0.250   3.274 -0.2645  0.1324  0.3628
   16MOL0     C 2032   9.517   0.166   3.232  0.3719 -0.6430 -0.0085
   16MOL0     O 2033   9.384   0.187   3.271  0.0795 -0.5021  0.2147
   16MOL0     C 2034   9.267   0.106   3.226 -1.1638 -0.3584  0.2759
   16MOL0     C 2035   9.124   0.149   3.270  0.0709 -0.0829  0.3972
   16MOL0     C 2036   9.007   0.070   3.201  0.7597  0.2193 -0.3937
   16MOL0     C 2037   8.883   0.071   3.285  0.3573 -0.2230 -0.0741
   16MOL0     C 2038   8.767   0.009   3.207  0.1767  0.5485  0.5236
   16MOL0     C 2039   8.637   0.028   3.291 -0.0624  0.0628  0.3360
   16MOL0     C 2040   8.516  -0.021   3.222  0.2553  0.8249  1.2450
   16MOL0     C 2041   8.392  -0.037   3.311  0.4135  0.0522 -0.0253
   16MOL0     N 2042   8.321   0.082   3.352  0.5524 -0.0776 -0.1563
   16MOL0     C 2043   8.254   0.101   3.463  0.3776 -0.2673  0.2562
   16MOL0     C 2044   8.193   0.223   3.457  0.2853 -0.2558  1.1467
   16MOL0     C 2045   8.100   0.290   3.555  0.0398 -0.3186  0.0163
   16MOL0     C 2046   7.977   0.198   3.575 -0.1043  0.6578 -0.7684
   16MOL0     C 2047   7.880   0.188   3.456 -0.0071 -0.1486  0.4408
   16MOL0     C 2048   7.733   0.173   3.496 -0.3246 -0.3346  0.8445
   16MOL0     O 2049   7.726   0.059   3.580 -0.0987 -0.2501  0.2503
   16MOL0     C 2050   7.597   0.018   3.613 -0.6825 -1.2138 -0.0883
   16MOL0     C 2051   7.584  -0.101   3.676 -0.0737  0.1818 -0.8655
   16MOL0     C 2052   7.460  -0.147   3.707  0.3414  0.1757 -0.7792
   16MOL0     C 2053   7.474  -0.271   3.792 -0.6537  0.0081  0.3952
   16MOL0     C 2054   7.344  -0.079   3.674  0.1256 -0.5984 -0.2187
   16MOL0     C 2055   7.203  -0.119   3.700 -0.9242  0.5202 -0.6989
   16MOL0     O 2056   7.113  -0.028   3.744 -0.3017 -0.5859  0.0384
   16MOL0     C 2057   6.980  -0.051   3.757 -0.5060  0.1726 -0.3310
   16MOL0     C 2058   6.917  -0.000   3.875  0.2105 -0.3837  0.2926
   16MOL0     C 2059   6.779  -0.020   3.903 -0.7620 -0.5888  0.0815
   16MOL0     C 2060   6.705  -0.085   3.804  0.0717  0.3751 -1.0989
   16MOL0     O 2061   6.569  -0.098   3.826 -0.6536  0.2968 -0.4685
   16MOL0     C 2062   6.488  -0.189   3.748 -0.4133 -0.0413  0.0773
   16MOL0     C 2063   6.340  -0.199   3.793 -0.2125 -0.0899  0.0433
   16MOL0     C 2064   6.250  -0.175   3.665 -0.3174 -0.0261  0.2037
   16MOL0     C 2065   6.105  -0.161   3.712  0.7438 -0.2989 -0.2214
   16MOL0     C 2066   6.017  -0.159   3.589 -0.0055  0.0925  0.4552
   16MOL0     C 2067   5.868  -0.110   3.610 -0.0894 -0.9760 -0.6319
   16MOL0     C 2068   5.807  -0.066   3.485  0.9569 -0.7859 -0.5073
   16MOL0     C 2069   5.824  -0.157   3.358 -0.4254 -0.3700 -0.5525
   16MOL0    Cl 2070   5.798  -0.329   3.389  0.2559  0.2244 -0.6039
   16MOL0     C 2071   6.767  -0.138   3.692 -0.8668 -0.4813  0.2438
   16MOL0     C 2072   6.906  -0.131   3.672  0.5822 -0.3757  0.4844
   16MOL0     O 2073   7.176  -0.239   3.694  0.7602 -0.4669 -0.9641
   16MOL0     C 2074   7.359   0.047   3.628  0.7755  0.0802  0.9655
   16MOL0     C 2075   7.483   0.092   3.589  0.0098 -0.3570  0.4552
   16MOL0     N 2076   8.223   0.283   3.334  0.4888  0.7533  0.1725
   16MOL0     N 2077   8.294   0.191   3.273 -0.7615 -0.0687 -0.9724
   16MOL0     C 2078   9.553   0.060   3.146 -0.0336  0.4104 -0.4429
   16MOL0     C 2079   9.683   0.042   3.098  0.1586 -0.2870  0.0819
   16MOL0     C 2080  10.137   0.021   3.141  0.0006  0.0863 -0.9248
   16MOL0     C 2081  10.235  -0.008   3.229  0.0448  0.2820 -0.0897
   16MOL0     C 2082  10.366  -0.036   3.194 -0.6386 -1.0687  0.4118
   16MOL0     C 2083  10.400  -0.037   3.063 -0.4883 -0.4518  0.0914
   16MOL0     O 2084  10.522  -0.073   3.012 -0.9190  0.1415  0.1691
   16MOL0     C 2085  10.612  -0.134   3.108  0.0575 -0.3588 -0.0698
   16MOL0     C 2086  10.733  -0.200   3.033  0.8976 -0.6191  0.1548
   16MOL0     C 2087  10.856  -0.223   3.124 -0.1050  0.4732 -0.3085
   16MOL0     C 2088  10.958  -0.326   3.062  0.4654 -0.8631 -0.6744
   16MOL0     C 2089  10.995  -0.267   2.942 -0.2965  0.7069  1.3194
   16MOL0     C 2090  11.017  -0.219   2.836 -0.4229 -0.4418 -0.4248
   16MOL0     C 2091  10.303  -0.002   2.966  0.0666 -0.4577  0.2134
   16MOL0     C 2092  10.170   0.029   3.003  0.1686  0.6488  0.2924
   16MOL0     H 2093   9.830   0.279   3.282  0.7826 -2.6983  1.2957
   16MOL0     H 2094   9.601   0.341   3.331  3.1863  2.0938 -1.4866
   16MOL0     H 2095   9.284   0.104   3.118  4.1460  1.8087  0.7172
   16MOL0     H 2096   9.270   0.005   3.268 -1.0318 -0.0926  0.9201
   16MOL0     H 2097   9.129   0.124   3.376 -0.4144  1.1139  0.7212
   16MOL0     H 2098   9.111   0.257   3.269  1.5754  0.1612  2.2061
   16MOL0     H 2099   8.995   0.117   3.103 -1.4670 -2.1592 -1.3845
   16MOL0     H 2100   9.044  -0.032   3.186 -0.8454 -0.2197 -1.7168
   16MOL0     H 2101   8.903   0.013   3.376  1.7795  1.3406  0.6624
   16MOL0     H 2102   8.854   0.174   3.305  0.1778  0.6904 -4.2604
   16MOL0     H 2103   8.760   0.065   3.113  1.0743 -0.7074 -0.3242
   16MOL0     H 2104   8.793  -0.093   3.179 -1.6703  0.2626 -0.2420
   16MOL0     H 2105   8.654  -0.034   3.380 -0.3894  0.0025  0.3577
   16MOL0     H 2106   8.623   0.135   3.308 -0.8669  0.0342 -0.0998
   16MOL0     H 2107   8.499   0.043   3.135 -1.1824 -2.5364 -1.1663
   16MOL0     H 2108   8.544  -0.121   3.187  0.2979  0.6979  1.6335
   16MOL0     H 2109   8.436  -0.082   3.400 -0.5844  1.6702  1.3258
   16MOL0     H 2110   8.313  -0.098   3.265 -0.1892  0.6995  0.1418
   16MOL0     H 2111   8.236   0.031   3.545 -0.4728 -0.5600 -0.1785
   16MOL0     H 2112   8.161   0.298   3.645 -0.8178  1.5097  0.4667
   16MOL0     H 2113   8.078   0.392   3.521  0.0011 -0.4098 -0.2384
   16MOL0     H 2114   7.923   0.224   3.667  0.2197  0.7613 -0.6037
   16MOL0     H 2115   8.019   0.099   3.596  0.1111  1.2627  2.1355
   16MOL0     H 2116   7.914   0.102   3.398 -0.9646  0.8981 -1.7874
   16MOL0     H 2117   7.867   0.278   3.394  0.3623 -1.4751 -1.6540
   16MOL0     H 2118   7.678   0.179   3.402  1.0713  1.4869  0.0845
   16MOL0     H 2119   7.693   0.261   3.548  1.3916  0.8589  0.2548
   16MOL0     H 2120   7.675  -0.157   3.697 -2.0317 -3.0992 -0.4526
   16MOL0     H 2121   7.408  -0.275   3.879  1.5336 -0.6967  2.0975
   16MOL0     H 2122   7.461  -0.356   3.724 -0.0962  1.7386 -2.0148
   16MOL0     H 2123   7.577  -0.283   3.824  0.9941  2.1889 -3.4124
   16MOL0     H 2124   6.989   0.062   3.928  1.3703 -0.3485 -1.2378
   16MOL0     H 2125   6.729   0.030   3.986  0.6433  0.7357  0.1756
   16MOL0     H 2126   6.492  -0.149   3.646 -1.0916 -0.4282 -0.1066
   16MOL0     H 2127   6.531  -0.290   3.741  1.3848  0.7016 -0.2587
   16MOL0     H 2128   6.306  -0.292   3.840 -2.4452  0.1018 -1.0780
   16MOL0     H 2129   6.326  -0.119   3.865  0.0895 -0.5419  0.6091
   16MOL0     H 2130   6.248  -0.267   3.606  0.4290 -0.6709  1.1349
   16MOL0     H 2131   6.277  -0.080   3.619 -2.5774  2.3194  3.2502
   16MOL0     H 2132   6.076  -0.248   3.772 -1.6040  0.5423 -0.0320
   16MOL0     H 2133   6.096  -0.080   3.785 -1.0605 -1.4802  0.9383
   16MOL0     H 2134   6.020  -0.260   3.548 -0.2884  0.0137  0.6208
   16MOL0     H 2135   6.052  -0.087   3.515 -3.2841  0.8207 -0.5820
   16MOL0     H 2136   5.813  -0.188   3.663  2.9092 -2.4825  0.5227
   16MOL0     H 2137   5.878  -0.023   3.675  3.2651 -1.5709 -0.1779
   16MOL0     H 2138   5.838   0.037   3.466  2.3728 -1.3793 -1.5802
   16MOL0     H 2139   5.700  -0.053   3.508  0.5098 -1.8763 -1.8007
   16MOL0     H 2140   5.926  -0.151   3.319 -0.8081 -1.6336 -1.8247
   16MOL0     H 2141   5.758  -0.123   3.277 -1.2741  1.3195  0.7999
   16MOL0     H 2142   6.709  -0.196   3.621 -1.0039  1.2540 -1.1301
   16MOL0     H 2143   6.946  -0.168   3.577 -3.2991 -2.1838 -0.6331
   16MOL0     H 2144   7.280   0.118   3.607  1.4270  1.2409  2.2920
   16MOL0     H 2145   7.475   0.192   3.548  2.5828  0.2332  1.1431
   16MOL0     H 2146   9.479  -0.008   3.104  1.2276  0.3198 -2.7229
   16MOL0     H 2147   9.720  -0.042   3.039 -0.5817 -1.9778  1.8838
   16MOL0     H 2148  10.216  -0.004   3.335 -1.0398  3.0281 -0.2849
   16MOL0     H 2149  10.428  -0.065   3.279  0.1392  1.8611  0.9872
   16MOL0     H 2150  10.628  -0.058   3.185 -1.7000 -0.2855  0.2611
   16MOL0     H 2151  10.575  -0.222   3.163  0.6781 -0.1665  0.6809
   16MOL0     H 2152  10.756  -0.129   2.952 -1.4628 -0.5614 -0.5521
   16MOL0     H 2153  10.692  -0.292   2.990  2.8511 -2.0313  1.1522
   16MOL0     H 2154  10.815  -0.262   3.218 -0.9498  3.7608  0.7998
   16MOL0     H 2155  10.896  -0.122   3.137 -0.9836  0.7482  0.3219
   16MOL0     H 2156  10.899  -0.415   3.038  0.6011 -1.6189  1.5235
   16MOL0     H 2157  11.043  -0.353   3.125 -1.4445 -2.1869  1.5187
   16MOL0     H 2158  11.052  -0.170   2.748  1.2918  1.9509  1.4455
   16MOL0     H 2159  10.320  -0.014   2.859 -3.3239  0.4775 -0.5571
   16MOL0     H 2160  10.088   0.045   2.934 -1.5960 -0.6505  1.9783
   17MOL0     O 2161  10.501  10.564   6.655  0.2249  0.4046  0.1251
   17MOL0     C 2162  10.409  10.490   6.628 -0.0128  0.2492 -0.4537
   17MOL0     O 2163  10.278  10.507   6.667  0.5596 -0.1200  0.6849
   17MOL0     C 2164  10.230  10.616   6.735  0.0685  0.5242 -0.0183
   17MOL0     C 2165  10.095  10.613   6.772  0.3313 -0.2958 -0.1406
   17MOL0     C 2166  10.036  10.713   6.854  0.5151 -0.3220 -0.2549
   17MOL0     C 2167  10.111  10.818   6.898  0.1129  0.2084  0.2419
   17MOL0     O 2168  10.066  10.938   6.958  0.0931  0.6909 -0.1165
   17MOL0     C 2169   9.920  10.958   6.976  0.1079  0.3340 -0.1521
   17MOL0     C 2170   9.884  11.102   7.030  0.4128  0.2834  1.0689
   17MOL0     C 2171   9.926  11.127   7.179  0.3425 -0.1288 -0.3587
   17MOL0     C 2172   9.868  11.256   7.229  0.2517 -0.2539 -0.3233
   17MOL0     C 2173   9.724  11.246   7.272  0.4345 -0.4935 -0.2939
   17MOL0     C 2174   9.689  11.370   7.362 -0.0930 -0.2799  0.4136
   17MOL0     C 2175   9.559  11.348   7.444  0.0296  0.5243  0.9244
   17MOL0     C 2176   9.520  11.483   7.497  0.4063 -0.1388  0.7400
   17MOL0     N 2177   9.430  11.471   7.609  0.2836 -0.2088 -0.5995
   17MOL0     C 2178   9.296  11.489   7.618 -0.8358  0.5509 -0.0294
   17MOL0     C 2179   9.276  11.497   7.755 -0.3671 -0.9081 -0.5226
   17MOL0     C 2180   9.144  11.504   7.829  0.9885 -0.3128  0.3067
   17MOL0     C 2181   9.113  11.374   7.896  0.0160 -0.6163  0.2275
   17MOL0     C 2182   9.005  11.372   8.007 -0.0175 -0.4659 -0.4083
   17MOL0     C 2183   8.859  11.378   7.967  1.4478  0.7204 -0.0549
   17MOL0     O 2184   8.775  11.391   8.088 -0.8034  0.6226 -0.1133
   17MOL0     C 2185   8.642  11.354   8.076 -0.0987  0.0481 -0.3208
   17MOL0     C 2186   8.575  11.292   7.968  1.2696 -0.2075 -0.7757
   17MOL0     C 2187   8.441  11.249   7.985  0.1464  0.4385 -0.2940
   17MOL0     C 2188   8.393  11.177   7.866 -0.2391 -0.2333  0.2146
   17MOL0     C 2189   8.363  11.279   8.107 -1.0339 -0.2546  0.5299
   17MOL0     C 2190   8.219  11.260   8.131  0.5249 -1.1981  0.6148
   17MOL0     O 2191   8.165  11.347   8.229  0.0196  0.6240  0.5143
   17MOL0     C 2192   8.027  11.360   8.215  0.5197  0.5363 -0.8862
   17MOL0     C 2193   7.951  11.248   8.249  0.4641 -0.0042 -0.8093
   17MOL0     C 2194   7.813  11.257   8.255 -0.4002  0.3527 -0.3242
   17MOL0     C 2195   7.747  11.373   8.214 -1.2812 -0.1970  0.6415
   17MOL0     O 2196   7.613  11.383   8.202  0.5514  0.7855 -0.2001
   17MOL0     C 2197   7.533  11.283   8.275 -0.2457 -0.2913  0.3671
   17MOL0     C 2198   7.390  11.331   8.236 -0.0313 -0.4743 -0.4090
   17MOL0     C 2199   7.356  11.467   8.305  0.4830  0.3519 -0.8189
   17MOL0     C 2200   7.221  11.525   8.258  0.3846  0.2031  0.4598
   17MOL0     C 2201   7.093  11.442   8.309  0.3030 -0.4821  0.2125
   17MOL0     C 2202   7.072  11.441   8.466  0.4523  0.5159 -0.1012
   17MOL0     C 2203   6.922  11.423   8.497  1.1708  0.3153  0.3288
   17MOL0     C 2204   6.895  11.394   8.642  0.4122  0.6367 -0.7378
   17MOL0    Cl 2205   6.731  11.326   8.665  0.2213  0.5124  0.4522
   17MOL0     C 2206   7.823  11.488   8.184  0.1287  0.2167 -0.8701
   17MOL0     C 2207   7.963  11.479   8.191  0.2585 -0.4938 -0.5632
   17MOL0     O 2208   8.155  11.185   8.060 -0.1354  0.7649 -0.2329
   17MOL0     C 2209   8.429  11.366   8.202 -0.2917 -0.1392  0.4355
   17MOL0     C 2210   8.568  11.389   8.188 -0.0810 -0.3856  0.3286
   17MOL0     N 2211   9.397  11.484   7.817 -0.0764 -0.0471 -0.5201
   17MOL0     N 2212   9.492  11.479   7.732  0.2536  1.1697 -0.3671
   17MOL0     C 2213  10.247  10.814   6.886 -0.3042 -0.3518  0.9282
   17MOL0     C 2214  10.306  10.723   6.801  0.7267  0.8547  0.4548
   17MOL0     C 2215  10.452  10.383   6.541  0.0248 -0.6661  0.3171
   17MOL0     C 2216  10.573  10.403   6.465  1.3858  0.3141  0.5437
   17MOL0     C 2217  10.615  10.302   6.372  0.1417  0.7077 -0.7027
   17MOL0     C 2218  10.541  10.182   6.362 -0.1099  0.1585  0.5089
   17MOL0     O 2219  10.571  10.066   6.290 -0.3606 -0.4591  1.0190
   17MOL0     C 2220  10.690  10.072   6.209  0.0537  0.3678 -0.1640
   17MOL0     C 2221  10.719   9.955   6.118  0.9603  1.2171 -0.1185
   17MOL0     C 2222  10.839   9.982   6.029  0.4123  0.1784 -0.0575
   17MOL0     C 2223  10.871   9.878   5.915 -0.2585  0.1226  0.7940
   17MOL0     C 2224  10.761   9.881   5.817 -0.9728 -0.3632  0.1331
   17MOL0     C 2225  10.701   9.877   5.712 -0.6839  0.5834 -0.7356
   17MOL0     C 2226  10.429  10.172   6.439 -1.0985  0.4651  0.2482
   17MOL0     C 2227  10.387  10.263   6.529  0.9473 -0.3879 -0.1189
   17MOL0     H 2228  10.030  10.548   6.715 -0.6834  0.1664  0.4608
   17MOL0     H 2229   9.928  10.720   6.852  0.5731  1.0116  0.3149
   17MOL0     H 2230   9.872  10.945   6.879  0.8173 -2.3118 -0.2393
   17MOL0     H 2231   9.889  10.883   7.050  0.1931  0.2849 -0.1659
   17MOL0     H 2232   9.928  11.181   6.969  0.5224  2.0016  3.2269
   17MOL0     H 2233   9.779  11.117   7.006  0.5232  1.3226  1.2239
   17MOL0     H 2234   9.893  11.037   7.232 -3.3789  0.5654 -1.2088
   17MOL0     H 2235  10.034  11.142   7.184  0.0748  1.9918 -0.1812
   17MOL0     H 2236   9.935  11.274   7.314  0.5752  1.2121 -0.8634
   17MOL0     H 2237   9.881  11.337   7.157  0.0146 -1.7062 -2.0640
   17MOL0     H 2238   9.659  11.241   7.185  0.6485 -0.8167 -0.4395
   17MOL0     H 2239   9.724  11.154   7.331  1.1509  0.2134  0.8456
   17MOL0     H 2240   9.768  11.379   7.438 -3.1588  1.1944  3.6867
   17MOL0     H 2241   9.681  11.462   7.303 -1.3731 -0.8286 -0.3020
   17MOL0     H 2242   9.481  11.306   7.379  0.8339 -1.4213  1.1742
   17MOL0     H 2243   9.574  11.271   7.519 -0.3484 -2.5625 -1.9398
   17MOL0     H 2244   9.466  11.542   7.423  0.3466 -1.8448 -0.6366
   17MOL0     H 2245   9.608  11.545   7.515  0.4003  0.9262 -2.3510
   17MOL0     H 2246   9.227  11.477   7.535 -0.9513 -1.3298  0.2960
   17MOL0     H 2247   9.154  11.577   7.910 -0.1203  1.6428 -1.2478
   17MOL0     H 2248   9.062  11.529   7.761  0.0670  0.0554  1.5131
   17MOL0     H 2249   9.200  11.333   7.947 -1.4925 -0.6197  2.9436
   17MOL0     H 2250   9.078  11.299   7.824 -0.1315 -0.7751  0.4649
   17MOL0     H 2251   9.018  11.457   8.075  1.8743 -0.8596 -0.2176
   17MOL0     H 2252   9.033  11.281   8.061  3.7202  0.3398 -0.7148
   17MOL0     H 2253   8.835  11.287   7.912 -0.5400  0.8352  0.5418
   17MOL0     H 2254   8.847  11.460   7.896 -1.5330  1.7085  1.4288
   17MOL0     H 2255   8.619  11.266   7.873 -2.4677 -1.5178 -2.3515
   17MOL0     H 2256   8.382  11.070   7.884  3.4682 -0.5424  1.5403
   17MOL0     H 2257   8.300  11.227   7.838  1.0026  1.3189 -1.3800
   17MOL0     H 2258   8.459  11.182   7.779 -0.1389  1.1662  0.3477
   17MOL0     H 2259   8.007  11.156   8.263  0.2562 -0.8099 -4.3876
   17MOL0     H 2260   7.766  11.162   8.279  2.2600 -1.4851 -1.8468
   17MOL0     H 2261   7.560  11.184   8.236 -1.6027  1.0707 -4.6977
   17MOL0     H 2262   7.544  11.298   8.383 -4.3576  3.1770  0.5734
   17MOL0     H 2263   7.376  11.344   8.129 -0.7498 -0.9757 -0.3804
   17MOL0     H 2264   7.324  11.253   8.273  2.1016 -2.0293  0.3405
   17MOL0     H 2265   7.433  11.542   8.289  0.0352  0.9303 -0.3110
   17MOL0     H 2266   7.356  11.439   8.411  0.5606  1.6526 -0.4591
   17MOL0     H 2267   7.224  11.618   8.316  0.6635  0.4244  0.0916
   17MOL0     H 2268   7.218  11.545   8.151  0.4154  0.9412  0.5948
   17MOL0     H 2269   7.086  11.343   8.262  0.2252  0.5938 -2.2198
   17MOL0     H 2270   7.014  11.500   8.260  1.7405 -1.1708 -3.1850
   17MOL0     H 2271   7.138  11.364   8.508  0.3093 -0.1093 -0.9860
   17MOL0     H 2272   7.104  11.535   8.511 -0.4849  0.6703  0.2679
   17MOL0     H 2273   6.877  11.338   8.446 -0.3841 -0.4740  2.8280
   17MOL0     H 2274   6.882  11.517   8.459 -2.0836 -1.7751 -1.9220
   17MOL0     H 2275   6.911  11.483   8.703  0.5440  0.5681 -0.6722
   17MOL0     H 2276   6.963  11.321   8.687  2.3447  3.7898  1.8749
   17MOL0     H 2277   7.793  11.591   8.163 -0.4658  0.5659  1.4670
   17MOL0     H 2278   8.022  11.570   8.189 -0.6917  0.1632  0.0404
   17MOL0     H 2279   8.379  11.405   8.290 -0.3883  2.1308 -0.5647
   17MOL0     H 2280   8.621  11.434   8.271 -2.5465 -3.3711  3.8153
   17MOL0     H 2281  10.315  10.889   6.927  0.8665 -0.2988 -0.9712
   17MOL0     H 2282  10.408  10.745   6.770  0.6288 -0.3509 -0.8486
   17MOL0     H 2283  10.629  10.495   6.475 -0.9412  1.5361  5.5598
   17MOL0     H 2284  10.707  10.328   6.321  0.6730  1.5243  0.6012
   17MOL0     H 2285  10.674  10.158   6.143  1.3556  0.1121 -0.8261
   17MOL0     H 2286  10.779  10.081   6.271  0.9823 -1.5896 -1.1391
   17MOL0     H 2287  10.638   9.939   6.046  1.2600 -2.8996  0.2259
   17MOL0     H 2288  10.726   9.862   6.174 -2.0883  2.4745  2.6795
   17MOL0     H 2289  10.924   9.987   6.097  0.0260  0.3467  0.4189
   17MOL0     H 2290  10.826  10.077   5.977  1.9973 -0.0096 -0.8377
   17MOL0     H 2291  10.888   9.775   5.947 -1.0465 -0.5524 -0.8485
   17MOL0     H 2292  10.953   9.911   5.851 -0.3581 -1.8840 -0.4517
   17MOL0     H 2293  10.652   9.861   5.618  2.2933  2.8578 -2.8689
   17MOL0     H 2294  10.371  10.080   6.439  0.8344 -0.9174  3.1087
   17MOL0     H 2295  10.307  10.248   6.601  3.3906 -1.0271  2.6346
   18MOL0     O 2296   2.741   9.470   3.888 -0.5215  0.0783 -0.6082
   18MOL0     C 2297   2.861   9.480   3.912  0.9736 -0.5620  0.5000
   18MOL0     O 2298   2.915   9.589   3.970  0.0884  1.4313  0.3781
   18MOL0     C 2299   2.831   9.667   4.049 -0.5062  0.5208  0.1599
   18MOL0     C 2300   2.840   9.663   4.190 -0.7374 -0.2790  0.8939
   18MOL0     C 2301   2.766   9.758   4.265 -0.9795 -0.0615 -0.1452
   18MOL0     C 2302   2.683   9.849   4.203 -0.2632 -0.2044  0.6233
   18MOL0     O 2303   2.620   9.943   4.273 -0.4235  0.2018 -0.7182
   18MOL0     C 2304   2.701  10.024   4.360  0.3985  0.1227 -0.3537
   18MOL0     C 2305   2.617  10.079   4.479 -0.5870  0.6384  0.2368
   18MOL0     C 2306   2.535   9.974   4.552 -0.3920  0.0479  0.4811
   18MOL0     C 2307   2.465  10.040   4.670  0.3719  0.0683 -0.0858
   18MOL0     C 2308   2.341   9.949   4.712 -0.3529  0.0125 -0.2233
   18MOL0     C 2309   2.262  10.014   4.826  0.3407  0.3011 -0.2924
   18MOL0     C 2310   2.187  10.142   4.765 -0.1839  0.5155 -0.4045
   18MOL0     C 2311   2.123  10.223   4.881 -0.5768 -0.0558 -0.1890
   18MOL0     N 2312   2.025  10.330   4.843  0.0802 -0.0759  0.6788
   18MOL0     C 2313   1.891  10.315   4.811  0.3328  0.0290  0.3686
   18MOL0     C 2314   1.845  10.444   4.799 -0.4727  0.6619  0.2114
   18MOL0     C 2315   1.706  10.482   4.746 -0.0950  0.4080  0.1095
   18MOL0     C 2316   1.621  10.558   4.856 -0.5087  0.6117  0.7259
   18MOL0     C 2317   1.597  10.470   4.980  0.0466  0.5488 -0.0398
   18MOL0     C 2318   1.527  10.554   5.084  0.1934 -0.4458 -0.6897
   18MOL0     O 2319   1.463  10.463   5.170 -0.2913  0.2491 -0.6775
   18MOL0     C 2320   1.351  10.502   5.249 -0.3593  0.8165  0.3302
   18MOL0     C 2321   1.271  10.391   5.279 -0.6219 -0.3608 -0.0176
   18MOL0     C 2322   1.154  10.405   5.344  0.7525 -0.0646  0.1636
   18MOL0     C 2323   1.090  10.271   5.391  0.2512  0.6089 -0.0273
   18MOL0     C 2324   1.126  10.532   5.401 -0.3285 -0.2933  0.0457
   18MOL0     C 2325   1.012  10.563   5.484 -0.1070 -0.2989 -0.5295
   18MOL0     O 2326   1.023  10.685   5.548  0.6333 -0.4946  0.0596
   18MOL0     C 2327   0.926  10.723   5.640  0.1067 -0.7264 -0.1620
   18MOL0     C 2328   0.790  10.762   5.609 -0.0117 -0.2979  0.0160
   18MOL0     C 2329   0.724  10.830   5.711 -0.3323 -0.0588  0.5893
   18MOL0     C 2330   0.780  10.851   5.834  0.7439  0.2286 -0.2117
   18MOL0     O 2331   0.690  10.900   5.933 -0.0195 -0.1011 -0.5248
   18MOL0     C 2332   0.740  10.952   6.061 -0.8744  0.4412 -0.3934
   18MOL0     C 2333   0.627  10.980   6.158 -0.1666 -0.1324 -0.2296
   18MOL0     C 2334   0.588  11.136   6.175 -0.6788  0.2608 -0.1680
   18MOL0     C 2335   0.471  11.142   6.279 -0.8529 -0.1109  0.7876
   18MOL0     C 2336   0.415  11.287   6.277  0.6838 -0.9049  0.6692
   18MOL0     C 2337   0.321  11.301   6.401 -0.1968 -0.4376 -0.0908
   18MOL0     C 2338   0.303  11.448   6.438  0.4569  0.1600  0.0943
   18MOL0     C 2339   0.194  11.473   6.552  0.8708 -0.4221 -0.7858
   18MOL0    Cl 2340   0.186  11.653   6.566 -0.7163  0.3231  0.1714
   18MOL0     C 2341   0.915  10.814   5.859 -1.3949 -0.3076 -0.9819
   18MOL0     C 2342   0.984  10.746   5.765 -1.0036  0.0099  1.0151
   18MOL0     O 2343   0.913  10.487   5.488  0.2950 -0.6430  0.1622
   18MOL0     C 2344   1.207  10.639   5.373 -0.9309 -0.3608 -0.4188
   18MOL0     C 2345   1.323  10.623   5.303 -0.9012  0.0873  0.8823
   18MOL0     N 2346   1.953  10.532   4.818 -0.1938  1.1283 -0.2275
   18MOL0     N 2347   2.055  10.463   4.828 -0.0394 -0.4414 -0.3858
   18MOL0     C 2348   2.663   9.841   4.066  0.2030 -0.1744 -0.2617
   18MOL0     C 2349   2.745   9.752   3.987 -0.2110 -1.0783  0.9202
   18MOL0     C 2350   2.951   9.370   3.868  0.4773 -0.3072 -0.3039
   18MOL0     C 2351   2.898   9.238   3.850 -0.5031  0.2241 -0.1103
   18MOL0     C 2352   2.979   9.130   3.825 -0.1992  0.4108  0.5226
   18MOL0     C 2353   3.117   9.149   3.829 -0.4920  0.7422 -0.0315
   18MOL0     O 2354   3.187   9.035   3.798 -0.1997 -0.4495 -0.4664
   18MOL0     C 2355   3.328   9.031   3.819 -0.3704  0.4437  0.4409
   18MOL0     C 2356   3.362   9.010   3.967  0.0748 -0.1820  0.3564
   18MOL0     C 2357   3.277   8.912   4.049 -0.2015  0.2647  0.6207
   18MOL0     C 2358   3.349   8.858   4.168  0.5655  0.2631  0.0112
   18MOL0     C 2359   3.247   8.797   4.251  0.8609 -0.0626  0.6951
   18MOL0     C 2360   3.159   8.755   4.321  0.3639  0.3148 -0.0854
   18MOL0     C 2361   3.178   9.273   3.859 -0.3867 -0.4551 -0.0437
   18MOL0     C 2362   3.093   9.380   3.876  0.7102  0.0333  0.4097
   18MOL0     H 2363   2.895   9.585   4.240  0.3161 -1.1524 -1.4793
   18MOL0     H 2364   2.784   9.762   4.372  0.2320  2.5922 -0.3746
   18MOL0     H 2365   2.778   9.972   4.418 -1.5973  1.1891  3.6886
   18MOL0     H 2366   2.745  10.108   4.306  1.1249  0.8326  1.2493
   18MOL0     H 2367   2.688  10.130   4.545 -1.0618  1.7603 -0.0924
   18MOL0     H 2368   2.555  10.162   4.443  0.4898  1.3833  0.0361
   18MOL0     H 2369   2.465   9.926   4.483  1.5414 -1.5197 -0.5225
   18MOL0     H 2370   2.598   9.891   4.585 -1.8531 -0.9062  0.9501
   18MOL0     H 2371   2.539  10.044   4.751 -0.9180  1.5433  1.0758
   18MOL0     H 2372   2.422  10.133   4.633 -1.8431 -1.1674 -0.8316
   18MOL0     H 2373   2.272   9.932   4.629  0.9853  4.5346 -2.6204
   18MOL0     H 2374   2.367   9.851   4.753  1.6727  0.9570  0.9017
   18MOL0     H 2375   2.185   9.952   4.873  1.0440 -1.1603 -1.0248
   18MOL0     H 2376   2.338  10.045   4.898  1.9068 -1.2934 -1.2089
   18MOL0     H 2377   2.249  10.215   4.712 -2.8696  2.5497 -1.0049
   18MOL0     H 2378   2.118  10.100   4.691  0.9198 -1.3287 -0.4263
   18MOL0     H 2379   2.213  10.263   4.928  0.5498 -0.3091 -2.0358
   18MOL0     H 2380   2.078  10.160   4.959 -0.9924  2.0548  1.3528
   18MOL0     H 2381   1.842  10.221   4.788  1.0515  0.2816 -2.5431
   18MOL0     H 2382   1.719  10.561   4.672  0.2391  0.7499  0.5296
   18MOL0     H 2383   1.654  10.399   4.696  1.4479 -0.6192  0.1352
   18MOL0     H 2384   1.532  10.605   4.815  0.5978  2.7623  0.6524
   18MOL0     H 2385   1.685  10.639   4.892  1.8959 -0.3650 -1.0681
   18MOL0     H 2386   1.692  10.434   5.022 -0.0721  2.6974  2.3085
   18MOL0     H 2387   1.536  10.382   4.956  1.8079 -1.5325  2.4889
   18MOL0     H 2388   1.445  10.613   5.042 -0.8155 -0.0508  1.6657
   18MOL0     H 2389   1.596  10.624   5.133 -0.4648  0.3779 -0.9081
   18MOL0     H 2390   1.303  10.292   5.248 -0.4792 -0.6257  0.9547
   18MOL0     H 2391   1.099  10.209   5.301 -3.6846  1.8337 -1.4770
   18MOL0     H 2392   1.143  10.227   5.476  0.0102  3.2091  1.5653
   18MOL0     H 2393   0.983  10.280   5.408 -0.2076  0.7190 -2.5056
   18MOL0     H 2394   0.745  10.752   5.511  0.1278 -0.7072 -0.0100
   18MOL0     H 2395   0.626  10.871   5.690 -1.2045 -1.7679  1.0979
   18MOL0     H 2396   0.808  10.880   6.108  0.4548  2.8427  1.6050
   18MOL0     H 2397   0.788  11.050   6.052  3.1574 -1.1105  1.7360
   18MOL0     H 2398   0.546  10.910   6.139 -1.2191  0.3899  2.0277
   18MOL0     H 2399   0.655  10.937   6.255  3.3931 -0.6102 -1.3270
   18MOL0     H 2400   0.560  11.186   6.082 -1.0922 -0.0105 -0.1889
   18MOL0     H 2401   0.673  11.188   6.220 -1.8315  0.9562  1.2920
   18MOL0     H 2402   0.388  11.075   6.253  0.2183 -0.2974 -2.7532
   18MOL0     H 2403   0.508  11.106   6.376 -0.4478 -3.7853 -0.5481
   18MOL0     H 2404   0.364  11.300   6.181  1.0485 -1.3800  0.4044
   18MOL0     H 2405   0.483  11.371   6.291  0.2992 -0.6165  0.8088
   18MOL0     H 2406   0.222  11.264   6.371 -0.5047  0.7968 -0.6823
   18MOL0     H 2407   0.349  11.236   6.485 -2.0997  1.8024  2.4848
   18MOL0     H 2408   0.281  11.488   6.339 -1.1011 -1.7325 -0.3616
   18MOL0     H 2409   0.397  11.482   6.483 -0.2053  0.3856  1.3503
   18MOL0     H 2410   0.214  11.428   6.650  0.3777  1.0215  0.0015
   18MOL0     H 2411   0.095  11.437   6.522  2.0414 -2.2707 -2.7049
   18MOL0     H 2412   0.956  10.847   5.954 -4.1635  0.6206 -0.0181
   18MOL0     H 2413   1.091  10.729   5.773 -0.3069  2.8268 -0.6777
   18MOL0     H 2414   1.191  10.741   5.409  0.7919 -0.3559  0.4157
   18MOL0     H 2415   1.375  10.715   5.278 -1.4797  0.1645 -0.1261
   18MOL0     H 2416   2.591   9.909   4.021 -2.5581 -0.6087  3.0650
   18MOL0     H 2417   2.740   9.749   3.878 -2.0705  0.4735  0.8942
   18MOL0     H 2418   2.792   9.219   3.836 -0.0414 -2.7893 -0.0127
   18MOL0     H 2419   2.938   9.037   3.788 -1.7322  1.1986  0.1458
   18MOL0     H 2420   3.368   8.948   3.761 -2.0796  0.9725 -1.6107
   18MOL0     H 2421   3.377   9.118   3.774  0.2278 -0.6230 -1.0342
   18MOL0     H 2422   3.345   9.104   4.021 -2.2858 -1.2448  1.6496
   18MOL0     H 2423   3.467   8.982   3.974  2.0632  5.5071 -1.2362
   18MOL0     H 2424   3.245   8.835   3.978 -2.2979 -0.4037  2.1970
   18MOL0     H 2425   3.181   8.956   4.076 -1.8309 -3.8116  2.2221
   18MOL0     H 2426   3.388   8.937   4.233 -1.0497 -0.0299  1.4153
   18MOL0     H 2427   3.426   8.786   4.137 -0.2229  0.5533 -2.8953
   18MOL0     H 2428   3.086   8.714   4.389 -1.2311 -0.6762 -2.2851
   18MOL0     H 2429   3.285   9.290   3.862  0.1594 -2.8564 -2.1563
   18MOL0     H 2430   3.121   9.483   3.897 -1.7101  0.7387  0.5624
   19MOL0     O 2431   0.068   7.057   2.431 -0.0172  0.9680  0.2646
   19MOL0     C 2432   0.108   7.167   2.407 -0.4514 -0.0365 -0.3289
   19MOL0     O 2433   0.230   7.210   2.345  0.2618  0.1332  0.3821
   19MOL0     C 2434   0.316   7.112   2.297  0.0981  0.0357 -0.0888
   19MOL0     C 2435   0.285   7.060   2.165  0.0326 -0.0807 -0.5505
   19MOL0     C 2436   0.375   6.966   2.117 -0.0161 -0.7180 -0.4806
   19MOL0     C 2437   0.487   6.922   2.188 -0.9202 -0.3825  0.6860
   19MOL0     O 2438   0.548   6.813   2.127 -0.2826 -0.2425 -0.8286
   19MOL0     C 2439   0.631   6.725   2.208 -0.6691 -0.7480  0.4098
   19MOL0     C 2440   0.721   6.655   2.109 -1.0471 -0.3323  0.2361
   19MOL0     C 2441   0.802   6.543   2.173  0.1110  0.2397 -0.7314
   19MOL0     C 2442   0.882   6.444   2.086  0.4300 -0.2695  0.1905
   19MOL0     C 2443   0.930   6.323   2.165  0.2921 -0.1902  0.5901
   19MOL0     C 2444   0.999   6.223   2.067  0.4077  0.3104 -0.1028
   19MOL0     C 2445   1.031   6.094   2.143 -0.2840  0.4308  0.2685
   19MOL0     C 2446   1.048   5.971   2.056  0.3921  0.3539 -1.1750
   19MOL0     N 2447   0.950   5.955   1.947 -0.8985  0.5102  0.0393
   19MOL0     C 2448   0.816   5.932   1.972 -0.8395 -0.0011 -0.1540
   19MOL0     C 2449   0.767   5.922   1.852  0.2053 -0.6109  0.8930
   19MOL0     C 2450   0.625   5.883   1.821  0.2289 -0.0853  0.4493
   19MOL0     C 2451   0.538   5.990   1.764  0.3724 -0.3623  0.1892
   19MOL0     C 2452   0.530   6.118   1.852  0.4534  0.1837 -0.6784
   19MOL0     C 2453   0.415   6.206   1.814 -0.3253 -0.6251 -0.3515
   19MOL0     O 2454   0.424   6.321   1.892 -0.3874 -0.6210 -0.5467
   19MOL0     C 2455   0.317   6.405   1.906 -0.1950  0.7107  0.0710
   19MOL0     C 2456   0.179   6.373   1.877  0.4291 -0.2123 -0.2060
   19MOL0     C 2457   0.082   6.476   1.894  0.0975  0.2259 -0.2368
   19MOL0     C 2458  -0.053   6.424   1.866  0.5020 -0.7156 -0.0428
   19MOL0     C 2459   0.114   6.603   1.938  0.1726 -0.3483  0.0918
   19MOL0     C 2460   0.012   6.705   1.965  0.0461  0.3749  0.1393
   19MOL0     O 2461   0.037   6.841   1.956 -0.2479  0.6185  0.3213
   19MOL0     C 2462  -0.074   6.927   1.986 -1.3943  0.2160  0.5502
   19MOL0     C 2463  -0.164   6.968   1.895 -0.8327 -0.7071  0.3026
   19MOL0     C 2464  -0.271   7.060   1.938 -0.1978  1.4229  0.1515
   19MOL0     C 2465  -0.282   7.096   2.069  1.1451  0.3268  0.1961
   19MOL0     O 2466  -0.385   7.176   2.095  1.0044 -0.4221  0.5924
   19MOL0     C 2467  -0.376   7.247   2.221 -0.4963  0.0998  0.0602
   19MOL0     C 2468  -0.472   7.366   2.207 -0.7853 -0.1546  0.2432
   19MOL0     C 2469  -0.481   7.454   2.336  0.1563  0.5974  0.4901
   19MOL0     C 2470  -0.597   7.562   2.318  0.7469  0.0825 -0.3108
   19MOL0     C 2471  -0.603   7.639   2.450  0.3911 -0.3322 -0.4420
   19MOL0     C 2472  -0.683   7.769   2.456  0.1652  0.3892  0.0714
   19MOL0     C 2473  -0.749   7.778   2.601 -0.5422  0.4881  0.2637
   19MOL0     C 2474  -0.642   7.785   2.717  0.4863 -0.3289  0.1769
   19MOL0    Cl 2475  -0.744   7.787   2.872 -0.4151  0.6290 -0.4581
   19MOL0     C 2476  -0.189   7.054   2.161  0.1512  0.0807  0.0568
   19MOL0     C 2477  -0.092   6.962   2.121 -0.0711 -0.6719  0.6875
   19MOL0     O 2478  -0.088   6.663   2.019  0.4187  0.3485 -0.2978
   19MOL0     C 2479   0.249   6.629   1.965  0.0893  0.4577 -0.9049
   19MOL0     C 2480   0.356   6.530   1.954  0.6754 -0.9065 -0.6965
   19MOL0     N 2481   0.857   5.951   1.747 -0.8470 -0.3826 -0.5996
   19MOL0     N 2482   0.971   5.970   1.817  0.0132  0.0409  0.5535
   19MOL0     C 2483   0.516   6.972   2.308  0.0073 -0.7663 -0.6020
   19MOL0     C 2484   0.436   7.067   2.360  0.3824 -0.3270  0.0373
   19MOL0     C 2485   0.027   7.279   2.454  0.2913 -0.8074  0.4038
   19MOL0     C 2486   0.080   7.412   2.462 -0.2621  0.0815  0.1270
   19MOL0     C 2487   0.010   7.520   2.502 -1.5726 -0.6095  0.3678
   19MOL0     C 2488  -0.120   7.506   2.542  0.0126 -0.7552 -0.0458
   19MOL0     O 2489  -0.207   7.600   2.586  0.0346  0.2635  0.1091
   19MOL0     C 2490  -0.184   7.739   2.564 -0.9761  0.3732  0.8577
   19MOL0     C 2491  -0.152   7.804   2.703  0.4652  0.4273 -0.2579
   19MOL0     C 2492  -0.282   7.783   2.791  1.1991  0.5244 -0.2225
   19MOL0     C 2493  -0.228   7.722   2.923  0.4197 -0.3511  0.6206
   19MOL0     C 2494  -0.347   7.660   2.984  0.0428  0.1210  0.1308
   19MOL0     C 2495  -0.452   7.604   3.014 -0.0278 -0.0506 -0.0362
   19MOL0     C 2496  -0.177   7.383   2.523  0.6723 -0.2181 -0.6431
   19MOL0     C 2497  -0.105   7.269   2.497  0.3495  0.6843 -0.0600
   19MOL0     H 2498   0.192   7.083   2.115 -0.2253  3.0049  1.0731
   19MOL0     H 2499   0.349   6.920   2.022 -2.4469  0.8116 -0.6404
   19MOL0     H 2500   0.689   6.794   2.270 -1.3146  0.6813 -0.5267
   19MOL0     H 2501   0.581   6.650   2.271  1.1149 -1.1467  1.4267
   19MOL0     H 2502   0.664   6.614   2.025  2.1159  0.5232 -2.5206
   19MOL0     H 2503   0.793   6.733   2.081 -0.7280  0.7139  3.5844
   19MOL0     H 2504   0.867   6.594   2.245 -0.9059 -0.0048  0.3968
   19MOL0     H 2505   0.737   6.478   2.234 -0.6668  1.8021  0.1687
   19MOL0     H 2506   0.820   6.407   2.003 -0.0514 -1.8279  1.2040
   19MOL0     H 2507   0.973   6.488   2.044 -2.0585  5.7687  0.1637
   19MOL0     H 2508   0.996   6.352   2.247 -2.0152 -0.0249  2.5079
   19MOL0     H 2509   0.845   6.274   2.215  0.3633 -2.7823 -1.6040
   19MOL0     H 2510   0.936   6.205   1.980  0.7187  2.2882 -0.7914
   19MOL0     H 2511   1.094   6.262   2.028 -1.2527  2.5868 -2.1358
   19MOL0     H 2512   1.109   6.095   2.220 -2.6669 -0.9222  2.8705
   19MOL0     H 2513   0.940   6.067   2.198 -0.7227  1.9416  0.3326
   19MOL0     H 2514   1.055   5.876   2.110  1.4817  1.3840  0.6290
   19MOL0     H 2515   1.146   5.984   2.010  0.9214 -0.8687 -0.4549
   19MOL0     H 2516   0.780   5.935   2.074  1.8668  1.6000  0.8651
   19MOL0     H 2517   0.615   5.800   1.750 -3.0231 -0.2003  0.8802
   19MOL0     H 2518   0.574   5.851   1.912  1.6139 -0.3961  1.1423
   19MOL0     H 2519   0.438   5.946   1.757  0.1480  0.2552 -0.8169
   19MOL0     H 2520   0.568   6.006   1.660 -1.8396 -1.8857 -0.7692
   19MOL0     H 2521   0.626   6.168   1.838  0.1738  1.4735  1.5664
   19MOL0     H 2522   0.516   6.105   1.960 -0.0477 -1.2815 -0.8967
   19MOL0     H 2523   0.324   6.149   1.835 -0.7057 -0.3956 -1.3485
   19MOL0     H 2524   0.413   6.235   1.709  1.2185 -1.5570 -0.6842
   19MOL0     H 2525   0.145   6.275   1.844 -2.1210  0.8311 -0.9333
   19MOL0     H 2526  -0.063   6.317   1.845 -0.6600 -0.1785 -2.5821
   19MOL0     H 2527  -0.111   6.434   1.958  2.2042  1.6784  0.8875
   19MOL0     H 2528  -0.101   6.475   1.782  0.4885 -1.6822 -0.6295
   19MOL0     H 2529  -0.160   6.936   1.791 -2.2221 -2.3794  0.7305
   19MOL0     H 2530  -0.352   7.078   1.868 -2.0773  0.3861  1.9487
   19MOL0     H 2531  -0.402   7.176   2.300 -1.7548 -1.2690 -1.4936
   19MOL0     H 2532  -0.274   7.285   2.232 -0.4119 -0.2588  0.5274
   19MOL0     H 2533  -0.446   7.427   2.120 -0.3915 -0.2701  0.2795
   19MOL0     H 2534  -0.567   7.323   2.175  0.3941 -1.9824 -0.9724
   19MOL0     H 2535  -0.389   7.506   2.362 -0.6438  2.5333 -0.3491
   19MOL0     H 2536  -0.513   7.381   2.411  1.0233 -1.4668 -1.0548
   19MOL0     H 2537  -0.560   7.633   2.243  1.4760  1.2925  1.1442
   19MOL0     H 2538  -0.702   7.541   2.296  0.7124 -0.9350  0.7527
   19MOL0     H 2539  -0.497   7.660   2.462  0.5371 -0.8942 -0.7039
   19MOL0     H 2540  -0.636   7.566   2.525 -1.6406 -1.4901 -2.3391
   19MOL0     H 2541  -0.616   7.852   2.431 -0.9732  0.8077 -1.7644
   19MOL0     H 2542  -0.769   7.768   2.389 -0.9833 -1.7714  1.4321
   19MOL0     H 2543  -0.815   7.691   2.611 -1.8027  1.2717 -0.8493
   19MOL0     H 2544  -0.806   7.871   2.608  2.4417  2.3031  2.6022
   19MOL0     H 2545  -0.584   7.877   2.704 -1.3487  0.6242 -1.9595
   19MOL0     H 2546  -0.580   7.696   2.724  0.0441 -0.5445  2.3496
   19MOL0     H 2547  -0.186   7.085   2.265  1.1112  3.0792 -0.7569
   19MOL0     H 2548  -0.020   6.921   2.192  1.4598 -0.5853 -0.7500
   19MOL0     H 2549   0.289   6.721   2.006  0.9481 -1.5445  3.2456
   19MOL0     H 2550   0.458   6.561   1.977  0.4335 -0.4394 -0.2209
   19MOL0     H 2551   0.604   6.940   2.363 -2.0345 -2.5436  1.8881
   19MOL0     H 2552   0.477   7.120   2.446  3.2006  0.7633 -1.8027
   19MOL0     H 2553   0.180   7.435   2.428  0.0781 -0.2778  0.8687
   19MOL0     H 2554   0.060   7.614   2.520  0.2888 -1.4048 -0.3000
   19MOL0     H 2555  -0.098   7.751   2.497 -0.9580  0.0784  0.8290
   19MOL0     H 2556  -0.278   7.785   2.530 -0.8652  0.2998  0.4448
   19MOL0     H 2557  -0.149   7.913   2.699  0.0548  0.4105 -2.4122
   19MOL0     H 2558  -0.061   7.761   2.746 -0.6423 -0.6919  1.0641
   19MOL0     H 2559  -0.364   7.726   2.747  0.3071 -1.1479  3.1986
   19MOL0     H 2560  -0.322   7.872   2.841  1.2350 -1.8996  4.8504
   19MOL0     H 2561  -0.184   7.795   2.992  1.9000 -1.7809  1.2529
   19MOL0     H 2562  -0.158   7.641   2.901  0.1950 -0.4058  0.0872
   19MOL0     H 2563  -0.552   7.570   3.033 -0.8155  2.2062  0.2214
   19MOL0     H 2564  -0.281   7.373   2.553  0.9628 -1.0006  0.1548
   19MOL0     H 2565  -0.149   7.173   2.519 -1.5167  1.1516 -1.4718
   20MOL0     O 2566   4.034   4.642   8.347  0.4196 -1.0916  0.0748
   20MOL0     C 2567   3.921   4.616   8.388  0.5336 -0.2613 -0.3824
   20MOL0     O 2568   3.892   4.523   8.489  0.2674 -0.0616  0.9405
   20MOL0     C 2569   3.980   4.412   8.504 -0.0550 -0.2591  0.7029
   20MOL0     C 2570   4.108   4.412   8.546 -0.6087  0.5956 -0.3266
   20MOL0     C 2571   4.191   4.293   8.547 -0.6308 -1.1684 -0.3052
   20MOL0     C 2572   4.128   4.177   8.516  0.6208  0.0723 -0.4976
   20MOL0     O 2573   4.200   4.064   8.506  0.1552  0.4344  0.6513
   20MOL0     C 2574   4.281   4.042   8.624 -0.2147  0.5865 -0.4818
   20MOL0     C 2575   4.324   3.896   8.614  0.1432  0.1838 -0.5866
   20MOL0     C 2576   4.195   3.811   8.605 -0.3571  0.4100 -0.3060
   20MOL0     C 2577   4.229   3.663   8.617  0.5780  0.7227 -0.1379
   20MOL0     C 2578   4.102   3.562   8.612 -1.0505  0.9032  0.4324
   20MOL0     C 2579   4.016   3.569   8.488  0.3576 -0.5121 -0.4965
   20MOL0     C 2580   3.869   3.514   8.521  0.8645  0.1945  0.6805
   20MOL0     C 2581   3.777   3.610   8.594  0.4032 -0.3581  0.0513
   20MOL0     N 2582   3.743   3.736   8.519 -0.3174 -0.1660 -0.0797
   20MOL0     C 2583   3.651   3.739   8.417 -0.9325 -0.1074  0.4103
   20MOL0     C 2584   3.654   3.862   8.364 -0.3126 -0.0247  1.1926
   20MOL0     C 2585   3.589   3.884   8.226 -0.3644  0.1240 -0.5659
   20MOL0     C 2586   3.443   3.907   8.238 -0.3703  0.2609 -0.5096
   20MOL0     C 2587   3.411   4.055   8.275  0.1743 -0.4558  0.4832
   20MOL0     C 2588   3.263   4.078   8.299 -0.9254 -0.0568 -1.2035
   20MOL0     O 2589   3.169   4.065   8.188 -0.2001  0.5915 -0.2237
   20MOL0     C 2590   3.057   4.132   8.197  1.1977  0.2257 -0.2974
   20MOL0     C 2591   2.982   4.140   8.075 -0.4447 -0.4834 -0.3233
   20MOL0     C 2592   2.857   4.206   8.063  1.8706 -0.2264 -0.1057
   20MOL0     C 2593   2.795   4.217   7.926  0.1387  0.8284  1.2576
   20MOL0     C 2594   2.795   4.263   8.174  0.1421 -0.1238 -0.6792
   20MOL0     C 2595   2.657   4.315   8.185  0.6877  0.1841  0.2287
   20MOL0     O 2596   2.582   4.329   8.071 -0.1261 -0.0489  0.2812
   20MOL0     C 2597   2.445   4.332   8.091 -0.2044  0.2574  0.9597
   20MOL0     C 2598   2.385   4.459   8.101  0.1260  0.4143  0.9248
   20MOL0     C 2599   2.250   4.471   8.106  0.2642 -0.6220 -0.3163
   20MOL0     C 2600   2.157   4.361   8.100  0.8369 -0.6143 -0.5998
   20MOL0     O 2601   2.010   4.360   8.107  0.0709  0.1395  0.0565
   20MOL0     C 2602   1.950   4.486   8.128 -0.2621  0.9870 -0.4881
   20MOL0     C 2603   1.797   4.477   8.139  0.2489  0.2341  0.7235
   20MOL0     C 2604   1.753   4.613   8.194  0.2375 -0.1038  0.5924
   20MOL0     C 2605   1.598   4.610   8.207 -0.7790  0.0960  0.1875
   20MOL0     C 2606   1.553   4.733   8.281  0.0773  0.0090 -0.4771
   20MOL0     C 2607   1.389   4.738   8.300 -0.6524 -0.1695 -0.2597
   20MOL0     C 2608   1.320   4.765   8.169 -0.4798  0.3740  0.2951
   20MOL0     C 2609   1.167   4.752   8.187 -0.1596 -0.4079  0.2955
   20MOL0    Cl 2610   1.126   4.589   8.263 -0.2394 -0.5722  0.1959
   20MOL0     C 2611   2.217   4.239   8.080 -1.3829 -0.2958  0.6810
   20MOL0     C 2612   2.361   4.221   8.075  0.7442 -0.4562 -1.1379
   20MOL0     O 2613   2.611   4.331   8.298 -0.1421 -0.1853  0.0650
   20MOL0     C 2614   2.869   4.252   8.293  0.6023 -0.7235  0.6703
   20MOL0     C 2615   2.991   4.191   8.306 -0.5885  0.7249  0.2741
   20MOL0     N 2616   3.738   3.938   8.446  0.5868  0.6361 -0.5262
   20MOL0     N 2617   3.793   3.862   8.539  0.5488 -0.6609 -0.1060
   20MOL0     C 2618   3.993   4.166   8.486 -0.5114  0.9710  0.5585
   20MOL0     C 2619   3.922   4.291   8.468 -0.3782 -1.0473  0.5424
   20MOL0     C 2620   3.812   4.703   8.339  0.2741 -0.2727 -1.5427
   20MOL0     C 2621   3.835   4.828   8.287 -1.2642  0.4820 -0.0761
   20MOL0     C 2622   3.726   4.910   8.244  0.0217 -0.2856  0.0958
   20MOL0     C 2623   3.599   4.874   8.258  0.6097 -0.1031  0.2520
   20MOL0     O 2624   3.508   4.969   8.215  0.0488  0.8569  0.0720
   20MOL0     C 2625   3.367   4.953   8.205  0.3391 -0.5266  0.9103
   20MOL0     C 2626   3.310   5.073   8.154  0.0163 -0.2860 -0.0863
   20MOL0     C 2627   3.154   5.072   8.160 -1.0625 -0.6459 -0.1639
   20MOL0     C 2628   3.111   5.213   8.133  0.3057  0.3326 -0.6053
   20MOL0     C 2629   2.963   5.211   8.135  0.4619  0.4988  1.2006
   20MOL0     C 2630   2.840   5.206   8.130 -0.4208 -0.2700  1.0094
   20MOL0     C 2631   3.579   4.746   8.315 -0.5241  0.4307 -0.0980
   20MOL0     C 2632   3.682   4.662   8.352 -0.5447  0.2063 -0.4265
   20MOL0     H 2633   4.144   4.512   8.570  1.2285  0.0886 -0.8074
   20MOL0     H 2634   4.294   4.308   8.577 -1.2866  2.5848  0.5921
   20MOL0     H 2635   4.375   4.098   8.636 -0.8804  2.9600 -4.5440
   20MOL0     H 2636   4.220   4.054   8.714  1.1658 -1.8626  0.8837
   20MOL0     H 2637   4.371   3.897   8.515 -2.2362  1.6076 -1.7931
   20MOL0     H 2638   4.389   3.861   8.695 -2.7620 -1.1173  1.3149
   20MOL0     H 2639   4.133   3.844   8.689 -0.7364 -0.9758 -0.0132
   20MOL0     H 2640   4.144   3.816   8.508  0.7054 -0.9166 -0.9550
   20MOL0     H 2641   4.302   3.626   8.544 -0.9877 -1.3871 -0.7312
   20MOL0     H 2642   4.283   3.643   8.710  1.0132  0.4612 -0.4479
   20MOL0     H 2643   4.137   3.459   8.620  1.9289  1.6463 -1.1856
   20MOL0     H 2644   4.041   3.584   8.700 -2.8860 -0.3471 -0.4583
   20MOL0     H 2645   4.004   3.671   8.449 -2.1292  0.6672  2.8840
   20MOL0     H 2646   4.058   3.512   8.404  3.1317  0.2293  0.2717
   20MOL0     H 2647   3.815   3.502   8.427  1.0018 -2.0165  0.8305
   20MOL0     H 2648   3.878   3.419   8.576  0.1921  0.1185  0.6639
   20MOL0     H 2649   3.814   3.629   8.695 -1.2925  1.2939  0.4165
   20MOL0     H 2650   3.685   3.554   8.608  1.0699 -1.2253  1.0743
   20MOL0     H 2651   3.599   3.657   8.368 -1.2438  1.4975 -2.1121
   20MOL0     H 2652   3.638   3.970   8.180 -1.5050  0.6084 -0.9095
   20MOL0     H 2653   3.617   3.797   8.166  0.5920 -0.4395  0.6490
   20MOL0     H 2654   3.400   3.840   8.314 -0.7015  0.4930 -0.4891
   20MOL0     H 2655   3.386   3.878   8.149 -0.7036 -3.5198  0.7584
   20MOL0     H 2656   3.437   4.127   8.198 -2.2335 -2.2400 -2.1876
   20MOL0     H 2657   3.459   4.094   8.365  1.2537  1.4673 -0.8554
   20MOL0     H 2658   3.260   4.185   8.322 -2.5316  0.0133 -1.6002
   20MOL0     H 2659   3.227   4.021   8.385 -0.7414  1.4711 -0.0685
   20MOL0     H 2660   3.029   4.095   7.988 -1.1381 -0.9783 -0.4454
   20MOL0     H 2661   2.866   4.181   7.851 -0.6796 -0.4923  1.0842
   20MOL0     H 2662   2.700   4.167   7.904 -0.5014  1.7946  1.7221
   20MOL0     H 2663   2.769   4.322   7.909 -1.1332  0.2090 -1.2235
   20MOL0     H 2664   2.445   4.548   8.119  0.1214  0.5815  0.1663
   20MOL0     H 2665   2.215   4.569   8.138  1.8377  0.0646 -0.6012
   20MOL0     H 2666   1.992   4.517   8.225 -2.2962 -0.6897  1.0187
   20MOL0     H 2667   1.972   4.561   8.051 -3.0776  2.7875  0.2864
   20MOL0     H 2668   1.753   4.460   8.040 -1.3651 -1.0074  1.6035
   20MOL0     H 2669   1.764   4.392   8.199  0.7893 -1.7236 -1.5957
   20MOL0     H 2670   1.787   4.693   8.128 -0.4262  1.0118  1.5608
   20MOL0     H 2671   1.798   4.627   8.293  1.2253  1.3455 -0.0142
   20MOL0     H 2672   1.553   4.598   8.109  2.1139 -0.8129 -1.1456
   20MOL0     H 2673   1.559   4.525   8.263 -2.1266  1.6829  1.7960
   20MOL0     H 2674   1.591   4.821   8.229  0.0215 -0.0270 -0.5787
   20MOL0     H 2675   1.603   4.728   8.378  0.9916  2.9110 -0.7289
   20MOL0     H 2676   1.355   4.647   8.350  0.2130 -1.0320 -1.2035
   20MOL0     H 2677   1.380   4.821   8.371  0.6416 -1.2898  1.2944
   20MOL0     H 2678   1.350   4.692   8.094 -0.6762  1.0466 -0.4543
   20MOL0     H 2679   1.358   4.862   8.135 -0.3450  0.2159 -0.0111
   20MOL0     H 2680   1.116   4.759   8.090  1.2082  0.9130 -0.3709
   20MOL0     H 2681   1.120   4.836   8.239  0.8065  1.4883 -1.7206
   20MOL0     H 2682   2.139   4.166   8.064 -4.4815  2.7231  0.7523
   20MOL0     H 2683   2.393   4.117   8.073  0.2054 -0.6822  0.6679
   20MOL0     H 2684   2.831   4.300   8.382  0.7798  1.7560 -0.4968
   20MOL0     H 2685   3.037   4.188   8.404 -1.5403 -0.4501  0.7184
   20MOL0     H 2686   3.960   4.066   8.460  1.7230 -0.2506  2.0675
   20MOL0     H 2687   3.820   4.307   8.434 -0.5248  0.6272  1.6172
   20MOL0     H 2688   3.940   4.852   8.271 -0.4635 -1.2856  1.9973
   20MOL0     H 2689   3.744   5.004   8.193 -1.4778 -0.1751 -0.2893
   20MOL0     H 2690   3.336   4.870   8.142 -2.1215 -0.0264  1.3673
   20MOL0     H 2691   3.336   4.931   8.307  0.5120 -0.1004  1.0598
   20MOL0     H 2692   3.334   5.087   8.048  1.1217 -0.1349  0.1728
   20MOL0     H 2693   3.353   5.153   8.215 -1.1845  0.9239 -0.7597
   20MOL0     H 2694   3.116   5.038   8.256 -0.4736 -0.3853  0.1626
   20MOL0     H 2695   3.117   5.006   8.081 -1.8232 -0.9540  0.4424
   20MOL0     H 2696   3.147   5.256   8.039 -1.3218  0.3231 -1.2654
   20MOL0     H 2697   3.152   5.275   8.213  2.3608 -1.1849 -0.3873
   20MOL0     H 2698   2.733   5.198   8.132 -0.3292 -1.6335  2.6100
   20MOL0     H 2699   3.476   4.722   8.338 -1.0631  3.2628  0.8726
   20MOL0     H 2700   3.658   4.566   8.397  0.9314  1.2828  2.9750
   21MOL0     O 2701   3.937   3.015   4.063  0.0293  0.3676  0.2061
   21MOL0     C 2702   3.968   3.131   4.098  0.5725  0.5588  0.1449
   21MOL0     O 2703   3.883   3.242   4.092  0.6306  0.3455 -0.1898
   21MOL0     C 2704   3.757   3.222   4.050  1.0979 -0.4327  0.7768
   21MOL0     C 2705   3.710   3.315   3.955  0.0196  0.1338 -0.4076
   21MOL0     C 2706   3.573   3.309   3.920 -0.5734  0.0416  0.0948
   21MOL0     C 2707   3.481   3.225   3.978 -0.4421  0.3825 -0.1292
   21MOL0     O 2708   3.345   3.232   3.962  0.1716  0.2151  0.7839
   21MOL0     C 2709   3.296   3.217   3.827 -0.2296  0.2640 -0.9257
   21MOL0     C 2710   3.156   3.163   3.844 -0.5765 -1.5226  0.3320
   21MOL0     C 2711   3.062   3.277   3.875 -1.1346 -0.8164  0.0979
   21MOL0     C 2712   2.930   3.205   3.914 -0.1166  0.0796  0.4215
   21MOL0     C 2713   2.819   3.315   3.948 -0.0578  1.0653 -0.4701
   21MOL0     C 2714   2.680   3.251   3.979  0.1660  0.8055 -0.4563
   21MOL0     C 2715   2.688   3.151   4.090 -0.6883  0.2586  0.1380
   21MOL0     C 2716   2.562   3.074   4.114 -0.0660 -0.5380 -0.0870
   21MOL0     N 2717   2.445   3.163   4.130  0.1936  0.2734  0.2731
   21MOL0     C 2718   2.411   3.254   4.215  0.4337 -1.4778 -0.1676
   21MOL0     C 2719   2.299   3.319   4.165  0.0649  0.6015  1.0344
   21MOL0     C 2720   2.232   3.446   4.211 -0.0187 -0.5211 -0.1535
   21MOL0     C 2721   2.079   3.449   4.178 -0.8222 -0.4520 -0.2528
   21MOL0     C 2722   2.002   3.355   4.276 -0.3429 -0.5245 -0.2111
   21MOL0     C 2723   1.852   3.365   4.258 -0.4576  0.3982  0.6940
   21MOL0     O 2724   1.815   3.316   4.132 -0.4220  0.3798  0.4343
   21MOL0     C 2725   1.678   3.337   4.102  0.1498 -0.0145 -0.2251
   21MOL0     C 2726   1.643   3.434   4.006 -0.4828  0.4342 -0.5143
   21MOL0     C 2727   1.513   3.461   3.966  0.5960 -0.0766  0.2662
   21MOL0     C 2728   1.499   3.575   3.863  0.9734  0.9311  0.4496
   21MOL0     C 2729   1.410   3.377   4.015  1.1355  0.2575  0.2861
   21MOL0     C 2730   1.274   3.373   3.961  0.5208  0.0060 -0.5278
   21MOL0     O 2731   1.176   3.302   4.031 -0.5313  0.2429 -0.0966
   21MOL0     C 2732   1.045   3.345   4.024 -0.7447 -0.6641 -0.0901
   21MOL0     C 2733   1.019   3.476   4.047  0.2058  0.1180 -1.1134
   21MOL0     C 2734   0.887   3.520   4.033  0.7318  0.2180  0.1530
   21MOL0     C 2735   0.782   3.428   4.024 -0.4713 -0.6022  0.9330
   21MOL0     O 2736   0.654   3.468   4.045  0.3941 -0.0784  0.6434
   21MOL0     C 2737   0.610   3.602   4.040 -0.4774 -0.3246  0.3074
   21MOL0     C 2738   0.478   3.608   4.123 -0.2711 -0.9269  0.1660
   21MOL0     C 2739   0.444   3.755   4.170  0.1944  0.0354  0.0245
   21MOL0     C 2740   0.297   3.785   4.210 -0.5039 -0.0637  0.1384
   21MOL0     C 2741   0.271   3.939   4.224 -0.7257  0.0858 -0.4759
   21MOL0     C 2742   0.117   3.967   4.232 -0.0786  1.0770  0.5623
   21MOL0     C 2743   0.082   4.114   4.244 -0.4082 -0.2693 -1.1245
   21MOL0     C 2744  -0.070   4.122   4.253 -0.1731 -0.3389 -0.0650
   21MOL0    Cl 2745  -0.110   4.286   4.302  0.0009 -0.5548  0.4575
   21MOL0     C 2746   0.801   3.298   4.021 -1.1408  0.5522 -0.1424
   21MOL0     C 2747   0.943   3.259   4.006  1.3040  0.8396 -0.3111
   21MOL0     O 2748   1.257   3.417   3.849  0.3051 -0.0964  0.3607
   21MOL0     C 2749   1.439   3.273   4.110 -0.0683 -0.3914  0.5320
   21MOL0     C 2750   1.574   3.259   4.154 -0.5295  0.8092 -1.0991
   21MOL0     N 2751   2.254   3.245   4.052  0.2280  0.1415  0.2449
   21MOL0     N 2752   2.346   3.156   4.038 -0.5263  0.9734 -0.2708
   21MOL0     C 2753   3.538   3.131   4.068 -0.2744  0.9251  0.1000
   21MOL0     C 2754   3.674   3.125   4.101 -0.8923 -0.0404  0.1064
   21MOL0     C 2755   4.099   3.137   4.176 -0.1352  0.1005  0.0102
   21MOL0     C 2756   4.183   3.028   4.183  0.5111  0.9203  0.7323
   21MOL0     C 2757   4.297   3.035   4.261  0.5397  0.2717 -0.6009
   21MOL0     C 2758   4.325   3.152   4.329 -0.2051 -0.2111 -0.2955
   21MOL0     O 2759   4.443   3.161   4.407  0.1216 -0.4766 -0.0445
   21MOL0     C 2760   4.479   3.038   4.472 -0.5848  0.7053  0.8595
   21MOL0     C 2761   4.544   3.050   4.613  0.2992  0.4096  1.0550
   21MOL0     C 2762   4.519   2.930   4.703 -0.2483  1.0095  0.0291
   21MOL0     C 2763   4.565   2.797   4.638  0.4005  0.1019  0.0665
   21MOL0     C 2764   4.540   2.675   4.722  0.1167  0.6989  0.0825
   21MOL0     C 2765   4.509   2.572   4.783 -0.8133  0.1261  0.2011
   21MOL0     C 2766   4.232   3.258   4.336  0.3985 -0.6768  0.2847
   21MOL0     C 2767   4.117   3.249   4.259  0.2669  0.3717 -0.0711
   21MOL0     H 2768   3.772   3.402   3.934  0.5040 -0.0710  0.1598
   21MOL0     H 2769   3.530   3.386   3.858 -2.6412  0.0319  1.4282
   21MOL0     H 2770   3.313   3.306   3.766 -0.6044 -0.7672 -2.6023
   21MOL0     H 2771   3.351   3.135   3.780  0.0066  0.5608 -1.1712
   21MOL0     H 2772   3.128   3.111   3.753  1.2304 -0.9700 -0.5943
   21MOL0     H 2773   3.161   3.098   3.932  0.7810 -1.0979  0.5987
   21MOL0     H 2774   3.095   3.328   3.966 -0.4848  0.1792 -0.6705
   21MOL0     H 2775   3.049   3.346   3.790 -3.4256 -1.0407  0.1901
   21MOL0     H 2776   2.882   3.147   3.834 -2.3490 -1.0187  2.4304
   21MOL0     H 2777   2.955   3.140   3.998  0.1789  0.6878  0.8125
   21MOL0     H 2778   2.843   3.358   4.045  1.8637  0.4444 -0.6315
   21MOL0     H 2779   2.821   3.392   3.870  1.1898 -1.2126 -2.8709
   21MOL0     H 2780   2.606   3.327   4.007 -1.3616 -0.2784 -1.4035
   21MOL0     H 2781   2.640   3.197   3.892  0.8043  0.1882 -0.3685
   21MOL0     H 2782   2.768   3.083   4.058  0.4099  2.5020 -2.2814
   21MOL0     H 2783   2.727   3.214   4.170  1.9099 -1.9834  0.7967
   21MOL0     H 2784   2.570   3.021   4.210  0.5238 -0.1167  0.1057
   21MOL0     H 2785   2.550   3.003   4.032 -3.8509  1.6881 -1.7042
   21MOL0     H 2786   2.466   3.301   4.296  1.1168 -0.3040 -1.2680
   21MOL0     H 2787   2.246   3.461   4.318 -3.4383 -0.4808  0.3674
   21MOL0     H 2788   2.279   3.535   4.167 -1.0676  1.7704  3.0382
   21MOL0     H 2789   2.058   3.427   4.073 -0.5671  0.7413 -0.5662
   21MOL0     H 2790   2.038   3.549   4.195  0.7381  0.2005 -0.1540
   21MOL0     H 2791   2.030   3.361   4.382  2.8249  2.6149 -1.0069
   21MOL0     H 2792   2.035   3.256   4.244 -0.0995 -0.3656 -0.4568
   21MOL0     H 2793   1.836   3.473   4.258  2.6686  0.9800 -0.1687
   21MOL0     H 2794   1.799   3.322   4.343  1.2922  1.2451  2.2998
   21MOL0     H 2795   1.729   3.479   3.958  0.5686  1.8710  2.4774
   21MOL0     H 2796   1.497   3.542   3.759 -1.0014  2.6284 -0.1245
   21MOL0     H 2797   1.406   3.627   3.885  0.3730  1.0607 -2.0475
   21MOL0     H 2798   1.581   3.646   3.878  0.8230  0.8187  1.9295
   21MOL0     H 2799   1.095   3.546   4.080  0.6364 -1.3228  1.1868
   21MOL0     H 2800   0.873   3.627   4.045 -0.9171  0.4349 -2.8428
   21MOL0     H 2801   0.689   3.673   4.068 -0.6261 -0.0236 -0.0344
   21MOL0     H 2802   0.588   3.640   3.940  2.7499  2.2405  0.4157
   21MOL0     H 2803   0.395   3.572   4.061 -1.2703 -1.1798  1.6210
   21MOL0     H 2804   0.475   3.540   4.208 -0.9386 -1.2946 -0.1471
   21MOL0     H 2805   0.457   3.822   4.084  0.7667 -1.6945 -1.2984
   21MOL0     H 2806   0.512   3.779   4.252  0.8230  2.6634 -1.1253
   21MOL0     H 2807   0.239   3.757   4.122 -0.7858 -2.7276  1.0758
   21MOL0     H 2808   0.257   3.725   4.293  2.5748 -1.7628  0.5678
   21MOL0     H 2809   0.319   3.994   4.142 -0.3341  0.8422  0.2423
   21MOL0     H 2810   0.311   3.975   4.319  0.9835  1.4024 -1.6069
   21MOL0     H 2811   0.080   3.929   4.136 -0.3138  4.6504 -0.9462
   21MOL0     H 2812   0.074   3.909   4.313 -1.9349  2.4744  0.6504
   21MOL0     H 2813   0.121   4.168   4.157 -3.2860  2.1789 -1.0700
   21MOL0     H 2814   0.116   4.159   4.338  1.7242 -2.0408 -0.9820
   21MOL0     H 2815  -0.097   4.052   4.332 -0.0253 -2.4359 -1.7642
   21MOL0     H 2816  -0.114   4.090   4.158  1.9343  2.2688 -2.0902
   21MOL0     H 2817   0.722   3.224   4.014 -1.0653  0.6013 -3.0153
   21MOL0     H 2818   0.961   3.154   3.985  1.4472  1.0577 -1.3572
   21MOL0     H 2819   1.375   3.190   4.137 -0.8383 -0.5416 -1.5742
   21MOL0     H 2820   1.609   3.178   4.218 -3.3187  1.0047  0.8710
   21MOL0     H 2821   3.478   3.054   4.115  3.0016 -3.1042 -1.7283
   21MOL0     H 2822   3.711   3.052   4.172  1.5964  0.4485 -0.5839
   21MOL0     H 2823   4.166   2.930   4.140  1.8393  1.2857 -0.7296
   21MOL0     H 2824   4.347   2.941   4.278 -2.9685 -1.5319  0.6837
   21MOL0     H 2825   4.397   2.966   4.476 -0.6651  0.5201 -2.0374
   21MOL0     H 2826   4.552   2.992   4.405  0.2811 -1.0235  2.8795
   21MOL0     H 2827   4.501   3.137   4.665 -2.5006 -1.8799  2.8578
   21MOL0     H 2828   4.652   3.060   4.594 -0.1432 -0.4368 -2.5656
   21MOL0     H 2829   4.412   2.907   4.708 -0.2021  0.0883 -2.1202
   21MOL0     H 2830   4.565   2.946   4.800  1.7765  1.8182 -1.0071
   21MOL0     H 2831   4.673   2.796   4.618  0.5164 -1.3737  0.6506
   21MOL0     H 2832   4.519   2.772   4.542 -0.8975  1.3093  0.3362
   21MOL0     H 2833   4.502   2.480   4.837  2.3346  0.6207  1.6370
   21MOL0     H 2834   4.256   3.341   4.401 -2.7855  1.8804 -1.5062
   21MOL0     H 2835   4.041   3.326   4.265 -2.0148 -1.4280 -3.2069
   22MOL0     O 2836  11.025   6.178   3.170 -0.8370  0.2437 -0.5349
   22MOL0     C 2837  11.008   6.059   3.182 -0.3190  0.3372 -0.5888
   22MOL0     O 2838  10.895   6.002   3.230 -0.2552 -0.5744  0.1289
   22MOL0     C 2839  10.804   6.082   3.295 -0.0370 -1.0050  0.3096
   22MOL0     C 2840  10.679   6.098   3.233 -0.0867 -1.0986 -0.8897
   22MOL0     C 2841  10.581   6.160   3.310  0.7447  0.4926  0.1070
   22MOL0     C 2842  10.598   6.216   3.442 -0.3766  0.4767  0.0100
   22MOL0     O 2843  10.497   6.270   3.511 -0.1040 -0.4082 -0.0883
   22MOL0     C 2844  10.500   6.295   3.654 -0.2777  0.3114 -0.4486
   22MOL0     C 2845  10.378   6.380   3.687  0.2856 -0.3389 -0.2079
   22MOL0     C 2846  10.382   6.407   3.839  0.5164  0.3485 -0.2176
   22MOL0     C 2847  10.281   6.516   3.878 -1.0047 -0.1984  0.2745
   22MOL0     C 2848  10.267   6.508   4.031 -0.1808  0.0323 -0.6862
   22MOL0     C 2849  10.205   6.638   4.090 -0.2541 -0.1862  0.4978
   22MOL0     C 2850  10.192   6.634   4.242 -0.0866  0.3709 -0.5510
   22MOL0     C 2851  10.067   6.563   4.277 -0.4179 -0.7496  0.0291
   22MOL0     N 2852  10.053   6.571   4.423 -0.3013 -0.7178 -0.5420
   22MOL0     C 2853   9.954   6.632   4.497 -0.0808  0.5930  0.3318
   22MOL0     C 2854   9.966   6.589   4.625  0.0405  0.0754 -0.2248
   22MOL0     C 2855   9.882   6.626   4.740 -0.5331 -1.0908 -0.1326
   22MOL0     C 2856   9.758   6.546   4.741 -0.8840 -0.0177  0.4554
   22MOL0     C 2857   9.720   6.494   4.881  0.3371 -0.3969 -0.2046
   22MOL0     C 2858   9.581   6.429   4.871 -0.3923 -0.0400  0.3138
   22MOL0     O 2859   9.577   6.352   4.990  0.7567 -0.2412  0.2212
   22MOL0     C 2860   9.466   6.279   5.013  0.3697 -0.0050  0.9365
   22MOL0     C 2861   9.452   6.218   5.136  0.3838  0.2263  0.0600
   22MOL0     C 2862   9.333   6.147   5.176  0.1374 -1.0182  0.0197
   22MOL0     C 2863   9.308   6.103   5.316  1.0466 -0.2255  0.8015
   22MOL0     C 2864   9.244   6.113   5.073 -0.6011  0.2253 -0.0209
   22MOL0     C 2865   9.118   6.037   5.096 -0.2591  0.3847 -0.7307
   22MOL0     O 2866   9.034   6.090   5.197 -0.4209 -0.3858  0.9642
   22MOL0     C 2867   8.920   6.027   5.232 -0.8598  1.1545  0.7798
   22MOL0     C 2868   8.891   5.890   5.198 -0.2942 -0.1299 -0.4865
   22MOL0     C 2869   8.779   5.824   5.240  0.5467 -0.7700 -0.2143
   22MOL0     C 2870   8.683   5.904   5.305  0.3315 -0.4046  0.6557
   22MOL0     O 2871   8.564   5.854   5.354 -0.1305 -0.2390 -0.2059
   22MOL0     C 2872   8.556   5.709   5.370 -0.1790 -0.3311 -0.3990
   22MOL0     C 2873   8.433   5.673   5.442 -0.5186 -0.4178 -0.1434
   22MOL0     C 2874   8.399   5.521   5.440 -0.4074  1.2476 -0.2195
   22MOL0     C 2875   8.355   5.475   5.579  0.1914 -0.6640 -0.3155
   22MOL0     C 2876   8.316   5.332   5.584 -0.0615 -0.4131 -0.3180
   22MOL0     C 2877   8.236   5.288   5.711  1.3551 -0.4728 -0.2781
   22MOL0     C 2878   8.184   5.145   5.702  0.1791 -0.2421 -0.0353
   22MOL0     C 2879   8.055   5.123   5.784  0.3509  0.2177 -0.8482
   22MOL0    Cl 2880   7.917   5.174   5.678 -0.6578 -0.1533 -0.1525
   22MOL0     C 2881   8.707   6.040   5.337 -0.4178  0.6287  0.5352
   22MOL0     C 2882   8.830   6.101   5.305  0.3056 -0.2682  0.0927
   22MOL0     O 2883   9.089   5.951   5.020 -0.3485  0.3375  0.0006
   22MOL0     C 2884   9.260   6.165   4.945 -0.5080  0.7367 -0.4000
   22MOL0     C 2885   9.364   6.260   4.916  0.6771  0.2531  0.4310
   22MOL0     N 2886  10.071   6.500   4.619 -0.0089  0.7474  0.2643
   22MOL0     N 2887  10.118   6.490   4.503 -0.4412 -0.5669 -0.9591
   22MOL0     C 2888  10.734   6.222   3.487  0.0692  0.6642 -0.3225
   22MOL0     C 2889  10.835   6.154   3.417  0.6515 -0.0558  0.1948
   22MOL0     C 2890  11.110   5.963   3.143 -0.4679  0.4979 -0.0319
   22MOL0     C 2891  11.083   5.826   3.152 -0.1262 -0.1228  0.2128
   22MOL0     C 2892  11.178   5.731   3.122 -0.4014 -0.1904  0.4104
   22MOL0     C 2893  11.305   5.768   3.082  0.5713  0.5971  0.0824
   22MOL0     O 2894  11.399   5.662   3.058 -0.2498 -0.1233 -0.4540
   22MOL0     C 2895  11.526   5.716   3.046  0.4656 -0.0943  0.5123
   22MOL0     C 2896  11.617   5.599   3.032 -0.3206 -0.2450 -0.4438
   22MOL0     C 2897  11.770   5.638   3.040 -0.5177 -0.6129 -0.1398
   22MOL0     C 2898  11.817   5.707   2.912 -1.0363  0.7166  0.0226
   22MOL0     C 2899  11.863   5.603   2.816  1.1888  0.5231 -0.0557
   22MOL0     C 2900  11.913   5.515   2.743 -0.3923 -0.8165  0.3812
   22MOL0     C 2901  11.325   5.902   3.049  0.3061 -0.1410 -0.1861
   22MOL0     C 2902  11.234   5.997   3.081 -0.0960  0.2675  1.1128
   22MOL0     H 2903  10.661   6.048   3.139  0.0574  0.7857 -1.9676
   22MOL0     H 2904  10.483   6.179   3.267  1.0366  0.7745 -0.4420
   22MOL0     H 2905  10.488   6.202   3.711 -2.5579  1.4782  1.1810
   22MOL0     H 2906  10.591   6.346   3.687 -0.3570 -0.5807  1.3081
   22MOL0     H 2907  10.392   6.473   3.632 -0.4288  0.3002  0.6717
   22MOL0     H 2908  10.280   6.344   3.655  0.3832 -0.5114 -0.3158
   22MOL0     H 2909  10.344   6.315   3.884  1.3718 -0.8384 -1.8027
   22MOL0     H 2910  10.480   6.425   3.884  0.6040 -0.0834 -0.2274
   22MOL0     H 2911  10.327   6.613   3.859 -1.5353  0.2955  1.3818
   22MOL0     H 2912  10.188   6.509   3.821 -0.5275 -1.6705 -0.3695
   22MOL0     H 2913  10.213   6.416   4.057  0.3509 -0.6307 -1.8858
   22MOL0     H 2914  10.370   6.504   4.068  0.7637  1.4103 -3.0019
   22MOL0     H 2915  10.263   6.723   4.053 -0.3068 -0.7356 -0.9133
   22MOL0     H 2916  10.105   6.666   4.055  0.9617  1.7081 -1.7376
   22MOL0     H 2917  10.274   6.586   4.297 -2.8260 -2.8538  1.1194
   22MOL0     H 2918  10.190   6.738   4.273 -2.5709 -0.4511  2.5225
   22MOL0     H 2919  10.073   6.456   4.257  0.1635 -1.0787  1.7994
   22MOL0     H 2920   9.982   6.614   4.231  1.6611  3.5274  0.4165
   22MOL0     H 2921   9.885   6.711   4.468 -0.5182 -0.3146 -1.1668
   22MOL0     H 2922   9.930   6.600   4.834 -3.7974  0.2343  2.1172
   22MOL0     H 2923   9.865   6.734   4.742 -2.9883 -1.4182 -0.0102
   22MOL0     H 2924   9.778   6.452   4.689  0.5198 -0.0558  1.0301
   22MOL0     H 2925   9.680   6.605   4.693  0.5789  0.8926 -0.8685
   22MOL0     H 2926   9.723   6.572   4.958 -2.1697 -1.7098  1.3246
   22MOL0     H 2927   9.794   6.422   4.918 -2.4597 -2.4115  1.8390
   22MOL0     H 2928   9.576   6.361   4.786  0.6655  1.8341 -1.3536
   22MOL0     H 2929   9.504   6.506   4.862 -2.0765 -1.5824  0.9399
   22MOL0     H 2930   9.532   6.248   5.203  0.3053  1.2516 -0.2836
   22MOL0     H 2931   9.397   6.113   5.379  1.4732  0.3059  0.1217
   22MOL0     H 2932   9.223   6.155   5.362  1.6529  1.8510 -0.2974
   22MOL0     H 2933   9.278   5.997   5.318  1.7430 -0.5193 -1.4075
   22MOL0     H 2934   8.965   5.815   5.173 -1.6294 -2.4204  1.8329
   22MOL0     H 2935   8.769   5.716   5.227 -2.2391 -0.7550  1.0671
   22MOL0     H 2936   8.561   5.657   5.274  1.5310 -1.2963  0.1662
   22MOL0     H 2937   8.630   5.670   5.441  0.5913 -2.4258 -2.2490
   22MOL0     H 2938   8.436   5.719   5.541  1.9136  2.0649 -1.2434
   22MOL0     H 2939   8.358   5.726   5.382  1.6199  1.0962 -1.6748
   22MOL0     H 2940   8.492   5.475   5.404  0.3419  1.9177  0.7661
   22MOL0     H 2941   8.317   5.504   5.371 -0.8936 -2.1167  1.0110
   22MOL0     H 2942   8.437   5.495   5.648  0.9847 -1.4682 -0.9860
   22MOL0     H 2943   8.267   5.534   5.606 -1.4502 -0.6315 -4.7853
   22MOL0     H 2944   8.412   5.279   5.582  0.8558  1.1909 -0.3244
   22MOL0     H 2945   8.257   5.315   5.493  0.6201  0.1809 -0.8863
   22MOL0     H 2946   8.308   5.306   5.791  0.6913  1.3245 -0.0448
   22MOL0     H 2947   8.148   5.350   5.731  1.8436 -0.6921  3.2042
   22MOL0     H 2948   8.260   5.077   5.743  1.5583  0.5344 -1.2223
   22MOL0     H 2949   8.173   5.129   5.594 -2.7633  0.8352  0.0153
   22MOL0     H 2950   8.061   5.174   5.881 -0.2459 -0.0333 -0.6742
   22MOL0     H 2951   8.048   5.016   5.806  0.2022  0.5853  1.0594
   22MOL0     H 2952   8.630   6.094   5.392 -1.3367  0.7656 -0.8171
   22MOL0     H 2953   8.851   6.207   5.321 -0.5325 -0.5679  3.8897
   22MOL0     H 2954   9.186   6.147   4.868 -0.7917  0.4213 -0.0601
   22MOL0     H 2955   9.373   6.275   4.809 -1.5923 -0.5442  0.0628
   22MOL0     H 2956  10.759   6.269   3.582 -1.8686 -0.1103  0.6238
   22MOL0     H 2957  10.937   6.156   3.453  0.3232 -1.0215  1.2335
   22MOL0     H 2958  10.991   5.791   3.197 -1.6669  1.1911 -1.7671
   22MOL0     H 2959  11.152   5.626   3.130 -3.9033  0.4577 -0.7231
   22MOL0     H 2960  11.530   5.767   2.949 -3.6263 -2.0131 -0.8998
   22MOL0     H 2961  11.561   5.778   3.128  2.3044  0.9536 -0.9686
   22MOL0     H 2962  11.606   5.560   2.931  1.1422 -0.1429 -0.6673
   22MOL0     H 2963  11.598   5.520   3.105 -0.0959  0.1374  0.0337
   22MOL0     H 2964  11.827   5.546   3.059  1.6068  0.4226 -1.1133
   22MOL0     H 2965  11.789   5.700   3.128 -2.3437 -0.7004  0.3456
   22MOL0     H 2966  11.897   5.777   2.935  0.6665 -1.0939 -0.0964
   22MOL0     H 2967  11.729   5.759   2.873 -1.4978 -0.3394 -0.3839
   22MOL0     H 2968  11.944   5.457   2.658  0.5605 -0.7032  0.6394
   22MOL0     H 2969  11.414   5.930   2.993  1.3667 -0.9064  1.0540
   22MOL0     H 2970  11.241   6.105   3.070 -2.0464  0.4252  1.0729
   23MOL0     O 2971   2.065   8.089   2.447  0.3228 -0.0904 -0.5625
   23MOL0     C 2972   2.146   8.083   2.537  0.3504 -0.2238  0.5034
   23MOL0     O 2973   2.131   8.131   2.664 -0.1781 -0.0328  0.3971
   23MOL0     C 2974   2.006   8.185   2.686 -0.5266 -0.1601  0.7492
   23MOL0     C 2975   1.973   8.316   2.655  0.6210  0.8899  0.1861
   23MOL0     C 2976   1.844   8.359   2.674 -0.4281 -0.3709 -0.0018
   23MOL0     C 2977   1.744   8.278   2.735 -0.1031  0.2599 -0.2269
   23MOL0     O 2978   1.625   8.339   2.762 -0.5144  0.5315 -0.9003
   23MOL0     C 2979   1.553   8.293   2.885  0.0962 -0.4330 -0.1712
   23MOL0     C 2980   1.451   8.404   2.923  0.1933  0.0841 -0.3155
   23MOL0     C 2981   1.335   8.349   2.999  1.2350  0.0826  0.0686
   23MOL0     C 2982   1.225   8.445   3.041  0.0745  0.2200  0.1393
   23MOL0     C 2983   1.222   8.555   2.934 -0.0622  1.1469 -0.2784
   23MOL0     C 2984   1.092   8.640   2.936 -0.4209  0.4109 -0.6488
   23MOL0     C 2985   1.099   8.746   3.052  0.3974  1.2491 -1.3013
   23MOL0     C 2986   0.984   8.835   3.047  0.1897  0.4490  0.7757
   23MOL0     N 2987   0.998   8.912   3.167 -0.2358  0.0562 -0.6060
   23MOL0     C 2988   1.078   9.024   3.180 -0.3235 -0.6281 -0.6469
   23MOL0     C 2989   1.071   9.065   3.312  0.1576 -0.3151  0.3950
   23MOL0     C 2990   1.150   9.185   3.363  0.5489 -0.1091  0.3441
   23MOL0     C 2991   1.077   9.291   3.437  0.2457 -0.5719  0.9518
   23MOL0     C 2992   0.986   9.380   3.358  0.1608 -0.8864  1.0727
   23MOL0     C 2993   0.880   9.443   3.447  0.1421  0.0306 -0.3535
   23MOL0     O 2994   0.791   9.522   3.362  0.0344  0.8137  0.7943
   23MOL0     C 2995   0.690   9.583   3.427 -0.9673  0.1497 -0.0661
   23MOL0     C 2996   0.622   9.521   3.523  0.5126 -0.4568  0.0136
   23MOL0     C 2997   0.517   9.572   3.593 -0.0085 -0.0070  0.6081
   23MOL0     C 2998   0.453   9.487   3.693  0.4444 -0.5900 -0.1433
   23MOL0     C 2999   0.479   9.705   3.563 -0.2388  0.3870 -0.4965
   23MOL0     C 3000   0.360   9.768   3.619 -0.7242 -0.1394 -0.2400
   23MOL0     O 3001   0.331   9.726   3.750 -0.1807  0.3466  0.3647
   23MOL0     C 3002   0.237   9.789   3.837  0.5252 -0.1383 -0.3768
   23MOL0     C 3003   0.247   9.757   3.971 -0.7288  0.9374 -0.0198
   23MOL0     C 3004   0.154   9.808   4.066 -0.1534  0.0573  0.2314
   23MOL0     C 3005   0.049   9.890   4.024 -0.1367  0.8111  0.4712
   23MOL0     O 3006  -0.040   9.936   4.115  0.5627  0.2478 -0.3603
   23MOL0     C 3007  -0.179   9.967   4.083  0.7430  0.2199 -0.2549
   23MOL0     C 3008  -0.258   9.991   4.211  0.4446 -0.1074 -0.1988
   23MOL0     C 3009  -0.384  10.068   4.184  0.3472 -1.4046  0.0734
   23MOL0     C 3010  -0.457  10.090   4.317 -0.1588  0.4606  0.8358
   23MOL0     C 3011  -0.584  10.169   4.300 -0.0399 -0.7515 -0.1249
   23MOL0     C 3012  -0.683  10.113   4.205  0.5752  0.5971  0.3913
   23MOL0     C 3013  -0.815  10.190   4.222 -0.0987 -0.4182 -0.1582
   23MOL0     C 3014  -0.908  10.170   4.106  0.1248  0.0040  0.1830
   23MOL0    Cl 3015  -1.037  10.286   4.124 -0.0656  0.1817 -0.1311
   23MOL0     C 3016   0.041   9.925   3.890 -0.9743  0.1659  0.2530
   23MOL0     C 3017   0.134   9.872   3.799  0.1237 -1.2797  0.0000
   23MOL0     O 3018   0.297   9.855   3.562  0.2062 -0.1713  0.2374
   23MOL0     C 3019   0.548   9.771   3.463 -0.4373 -0.0472 -0.4189
   23MOL0     C 3020   0.659   9.713   3.401 -0.9579 -0.7104 -0.1639
   23MOL0     N 3021   0.980   8.989   3.376 -0.4337  0.5110  0.4830
   23MOL0     N 3022   0.940   8.890   3.294  0.4422  0.0043  0.7145
   23MOL0     C 3023   1.782   8.140   2.760 -0.5442  0.7846  0.4670
   23MOL0     C 3024   1.912   8.099   2.740 -1.2581  1.2740  0.0086
   23MOL0     C 3025   2.277   8.044   2.489 -0.7845 -0.2822 -0.1399
   23MOL0     C 3026   2.309   7.984   2.369  0.0723  0.6853  0.4445
   23MOL0     C 3027   2.434   7.943   2.328 -0.3590  1.2961  0.2176
   23MOL0     C 3028   2.548   7.969   2.412 -0.1802 -0.7891  1.0069
   23MOL0     O 3029   2.678   7.944   2.376 -0.8125  0.4509 -0.0791
   23MOL0     C 3030   2.715   7.863   2.259  0.1423 -1.4986  0.7769
   23MOL0     C 3031   2.806   7.753   2.307 -0.2692 -0.1793 -0.9094
   23MOL0     C 3032   2.928   7.806   2.388 -0.6075 -0.3113 -0.1702
   23MOL0     C 3033   2.910   7.793   2.540  0.3265 -0.9450  0.1528
   23MOL0     C 3034   2.925   7.654   2.591 -0.7807  0.1144  0.1118
   23MOL0     C 3035   2.953   7.553   2.636  0.1130 -0.3706  0.2439
   23MOL0     C 3036   2.519   8.033   2.532 -0.2262 -0.2593 -0.5018
   23MOL0     C 3037   2.388   8.051   2.575 -0.5446 -0.0883 -0.7151
   23MOL0     H 3038   2.038   8.395   2.619  1.9414 -0.4791 -0.5335
   23MOL0     H 3039   1.811   8.459   2.645 -0.6200 -0.4688 -0.1253
   23MOL0     H 3040   1.496   8.204   2.857 -1.9627  0.4634  0.9606
   23MOL0     H 3041   1.613   8.266   2.972 -0.1581 -1.2361 -0.2356
   23MOL0     H 3042   1.489   8.487   2.984  1.5861 -0.5730 -0.2567
   23MOL0     H 3043   1.421   8.447   2.826 -2.0136  1.1234  0.7533
   23MOL0     H 3044   1.294   8.263   2.946  1.3066  0.1926 -0.1671
   23MOL0     H 3045   1.375   8.297   3.087  0.0537 -1.5688 -0.3191
   23MOL0     H 3046   1.124   8.405   3.050 -0.2109  1.3092  2.3733
   23MOL0     H 3047   1.253   8.500   3.132  2.6747 -2.0297  0.8333
   23MOL0     H 3048   1.309   8.617   2.954  0.5995 -0.1586  1.1293
   23MOL0     H 3049   1.225   8.501   2.839 -0.7924 -1.2868  0.9950
   23MOL0     H 3050   1.092   8.691   2.839  3.5153 -0.1307 -1.1226
   23MOL0     H 3051   1.015   8.564   2.948  1.9808 -1.8525  1.9769
   23MOL0     H 3052   1.097   8.689   3.145  0.0663  1.9685 -0.8586
   23MOL0     H 3053   1.190   8.806   3.051  2.3414 -1.4829 -0.6856
   23MOL0     H 3054   0.897   8.769   3.041  1.1459 -0.8171  0.3714
   23MOL0     H 3055   0.987   8.896   2.956  0.0888 -0.3723  0.2108
   23MOL0     H 3056   1.145   9.061   3.102  0.6061 -0.7659  0.0698
   23MOL0     H 3057   1.227   9.147   3.430 -0.7743 -3.1959  0.3311
   23MOL0     H 3058   1.196   9.238   3.279  1.3543  1.2178  1.5897
   23MOL0     H 3059   1.147   9.361   3.482 -0.7090 -0.5119  2.4482
   23MOL0     H 3060   1.038   9.228   3.518 -0.2721 -0.2831  0.9331
   23MOL0     H 3061   0.928   9.328   3.281  0.6487  0.3164 -0.1639
   23MOL0     H 3062   1.051   9.446   3.299 -0.2921 -2.2534 -1.0602
   23MOL0     H 3063   0.928   9.496   3.529 -0.2106 -1.0404  0.5650
   23MOL0     H 3064   0.831   9.349   3.476  2.1918 -1.0258 -0.1238
   23MOL0     H 3065   0.664   9.424   3.550  1.9102 -0.0148 -0.4469
   23MOL0     H 3066   0.345   9.499   3.681  0.0279 -2.4777  1.2142
   23MOL0     H 3067   0.485   9.383   3.678  0.9911 -0.7942  2.0453
   23MOL0     H 3068   0.477   9.513   3.796 -0.6080  1.4501 -0.3595
   23MOL0     H 3069   0.321   9.685   4.004 -0.1141  2.2929  1.6676
   23MOL0     H 3070   0.172   9.772   4.167 -1.8307  0.6277  0.7623
   23MOL0     H 3071  -0.190  10.062   4.029 -1.1892  0.6003  0.7267
   23MOL0     H 3072  -0.222   9.890   4.018  0.1686  2.2344 -2.3856
   23MOL0     H 3073  -0.281   9.903   4.271  1.6575 -0.1499  0.2204
   23MOL0     H 3074  -0.196  10.057   4.272 -0.2018  2.2323 -1.9185
   23MOL0     H 3075  -0.444  10.024   4.104 -0.2675  0.7520 -0.7238
   23MOL0     H 3076  -0.364  10.168   4.144 -3.1117  0.3289  2.2280
   23MOL0     H 3077  -0.469   9.992   4.365 -0.8624 -0.9810 -2.0548
   23MOL0     H 3078  -0.393  10.151   4.382  3.5140  1.2550 -3.0925
   23MOL0     H 3079  -0.566  10.271   4.264 -1.4317 -0.5385 -0.2908
   23MOL0     H 3080  -0.625  10.186   4.401 -0.2661  1.0565 -0.4890
   23MOL0     H 3081  -0.648  10.126   4.103  1.6537 -1.2808  0.4702
   23MOL0     H 3082  -0.681  10.008   4.234 -2.4194  0.6126  0.9201
   23MOL0     H 3083  -0.791  10.297   4.229 -3.3576  0.4407 -0.5837
   23MOL0     H 3084  -0.866  10.151   4.310 -1.9760  1.1828 -0.4549
   23MOL0     H 3085  -0.948  10.071   4.084 -0.9916  0.2704  0.8949
   23MOL0     H 3086  -0.854  10.209   4.019 -1.5271  1.4502 -0.2677
   23MOL0     H 3087  -0.037   9.989   3.850 -2.3094 -0.3760  1.8648
   23MOL0     H 3088   0.119   9.905   3.697 -0.9822 -0.8526  0.2834
   23MOL0     H 3089   0.518   9.865   3.416  1.1923 -0.3144 -2.1213
   23MOL0     H 3090   0.720   9.777   3.337  0.1363 -1.6884 -0.1493
   23MOL0     H 3091   1.716   8.068   2.808  1.6799 -1.8247 -0.1399
   23MOL0     H 3092   1.928   7.994   2.761  1.6905  0.9134 -3.0204
   23MOL0     H 3093   2.236   7.979   2.289 -0.6868  0.9850  1.1015
   23MOL0     H 3094   2.430   7.896   2.230 -0.1707 -1.1858  1.3209
   23MOL0     H 3095   2.637   7.821   2.195  1.9916  0.3456 -3.0169
   23MOL0     H 3096   2.775   7.930   2.197  0.3462 -2.4216 -0.0365
   23MOL0     H 3097   2.841   7.699   2.218  3.7174  4.0370 -2.2739
   23MOL0     H 3098   2.757   7.694   2.385  3.2129  0.3463  1.9085
   23MOL0     H 3099   2.947   7.913   2.373 -0.9492 -0.3406 -0.8763
   23MOL0     H 3100   3.018   7.752   2.358  0.0492 -0.4429  1.9241
   23MOL0     H 3101   2.812   7.829   2.573  1.0921 -0.3728  1.8756
   23MOL0     H 3102   2.982   7.861   2.585 -1.6084  2.7445 -1.8922
   23MOL0     H 3103   2.961   7.452   2.671  0.5136  0.6409  3.3801
   23MOL0     H 3104   2.597   8.076   2.595  1.2469  0.0597 -2.4636
   23MOL0     H 3105   2.384   8.103   2.671 -0.6463  1.5512 -1.5711
   24MOL0     O 3106   9.843   1.290   8.778 -0.4045  0.4827 -0.0490
   24MOL0     C 3107   9.875   1.303   8.895 -0.0610  0.2123  0.0875
   24MOL0     O 3108   9.802   1.341   9.000 -0.5297 -1.1572 -0.1227
   24MOL0     C 3109   9.676   1.390   8.980 -0.7659 -0.8084  0.0315
   24MOL0     C 3110   9.575   1.317   9.038 -0.9512  0.8992  0.4481
   24MOL0     C 3111   9.438   1.360   9.014  0.4660 -0.1700  0.3131
   24MOL0     C 3112   9.416   1.484   8.958  0.5841 -0.6494 -0.3637
   24MOL0     O 3113   9.294   1.538   8.984  0.0808  0.4536 -0.0601
   24MOL0     C 3114   9.236   1.644   8.915 -1.0361  0.1285  0.4596
   24MOL0     C 3115   9.084   1.631   8.934  0.1838 -0.6483  0.0606
   24MOL0     C 3116   9.021   1.496   8.908 -0.1355 -0.1360  0.6086
   24MOL0     C 3117   8.871   1.488   8.949 -0.5353 -0.1407  0.0464
   24MOL0     C 3118   8.781   1.598   8.882  0.3176  0.6170  0.2582
   24MOL0     C 3119   8.638   1.567   8.899 -0.0765 -0.6055  0.7773
   24MOL0     C 3120   8.540   1.659   8.833  0.6504 -0.1400  0.1737
   24MOL0     C 3121   8.412   1.583   8.799  0.4875  0.9185  0.4276
   24MOL0     N 3122   8.317   1.569   8.906  0.4336 -0.5320 -0.6077
   24MOL0     C 3123   8.342   1.493   9.012 -0.5306  0.2500  0.5213
   24MOL0     C 3124   8.240   1.510   9.092 -0.4114  0.2311  0.1411
   24MOL0     C 3125   8.222   1.455   9.225 -0.5923  0.2587 -0.4753
   24MOL0     C 3126   8.169   1.552   9.339 -0.6352  0.0105 -0.4589
   24MOL0     C 3127   8.067   1.477   9.431  0.6844  0.1472 -0.5980
   24MOL0     C 3128   7.928   1.489   9.370  0.5417 -0.1504 -0.5287
   24MOL0     O 3129   7.829   1.464   9.476 -0.1357  0.1645  0.0088
   24MOL0     C 3130   7.701   1.432   9.447  0.3865 -0.7020 -0.6113
   24MOL0     C 3131   7.619   1.410   9.561 -0.2373 -0.3913  0.3108
   24MOL0     C 3132   7.480   1.399   9.554 -0.1424  0.6080 -0.0918
   24MOL0     C 3133   7.406   1.380   9.684 -0.0496 -0.2437 -0.6553
   24MOL0     C 3134   7.419   1.414   9.425  0.1128 -0.4498  0.2000
   24MOL0     C 3135   7.266   1.404   9.400 -0.2953 -0.7753 -0.3359
   24MOL0     O 3136   7.222   1.369   9.272 -0.1044 -0.3748 -0.7554
   24MOL0     C 3137   7.088   1.352   9.250 -0.2075  0.7451 -0.4137
   24MOL0     C 3138   7.010   1.468   9.241  0.0338  0.2459  0.4215
   24MOL0     C 3139   6.875   1.448   9.225  0.7464 -0.7079  0.6670
   24MOL0     C 3140   6.803   1.332   9.218 -0.3639  0.5035  0.6949
   24MOL0     O 3141   6.668   1.333   9.203  0.2831 -0.1770  0.7459
   24MOL0     C 3142   6.596   1.219   9.256  0.3947  1.2058 -0.0838
   24MOL0     C 3143   6.558   1.234   9.408 -0.2637 -0.4061  0.8328
   24MOL0     C 3144   6.454   1.130   9.454  0.6133  0.3656  0.5283
   24MOL0     C 3145   6.308   1.177   9.413  0.0423 -0.5425 -0.5943
   24MOL0     C 3146   6.218   1.062   9.369 -0.0850  0.7518  0.5194
   24MOL0     C 3147   6.087   1.126   9.315  0.4718  0.5818  0.3721
   24MOL0     C 3148   5.989   1.014   9.266  0.2180 -1.0969  1.4109
   24MOL0     C 3149   5.858   1.089   9.223  0.1977  0.4984  0.1191
   24MOL0    Cl 3150   5.736   0.985   9.148  0.2017  0.1628  0.0489
   24MOL0     C 3151   6.886   1.214   9.220  0.2248 -0.3819  0.4306
   24MOL0     C 3152   7.025   1.221   9.229  0.2649 -0.3371  0.8900
   24MOL0     O 3153   7.195   1.424   9.496 -0.3088 -0.3699 -0.0266
   24MOL0     C 3154   7.495   1.422   9.305  0.1736 -0.1615  0.3430
   24MOL0     C 3155   7.633   1.438   9.324 -0.3761  0.0229  0.1207
   24MOL0     N 3156   8.148   1.596   9.041 -0.5013 -0.0327 -0.0693
   24MOL0     N 3157   8.190   1.619   8.929 -0.0796 -0.4216  0.2180
   24MOL0     C 3158   9.519   1.557   8.904 -0.4733 -0.0116 -0.4195
   24MOL0     C 3159   9.654   1.504   8.913  0.0588  1.0817  1.4927
   24MOL0     C 3160  10.012   1.272   8.932 -0.0206 -0.0849 -0.2990
   24MOL0     C 3161  10.057   1.275   9.067 -0.5604  0.2663 -0.8522
   24MOL0     C 3162  10.193   1.246   9.093  0.3066 -0.1633  0.1191
   24MOL0     C 3163  10.285   1.243   8.985 -0.9325 -0.3316  0.0515
   24MOL0     O 3164  10.416   1.239   9.024 -0.5745  0.0971  0.9885
   24MOL0     C 3165  10.509   1.201   8.922 -0.5396 -0.6385 -0.2168
   24MOL0     C 3166  10.649   1.171   8.981  0.3116 -0.0195  0.0670
   24MOL0     C 3167  10.710   1.285   9.063 -0.3806 -0.1300 -0.4913
   24MOL0     C 3168  10.832   1.244   9.136  0.1230  0.0154 -0.9348
   24MOL0     C 3169  10.944   1.215   9.048  0.3300 -0.2481  0.3599
   24MOL0     C 3170  11.021   1.168   8.972 -0.3634 -0.1095  1.3742
   24MOL0     C 3171  10.233   1.234   8.848  0.5592  0.1245  0.0265
   24MOL0     C 3172  10.100   1.243   8.828 -0.0951 -0.7797  0.8582
   24MOL0     H 3173   9.599   1.217   9.074 -2.0023 -0.2095 -1.7388
   24MOL0     H 3174   9.349   1.302   9.036 -0.7127  0.7873 -1.6376
   24MOL0     H 3175   9.279   1.737   8.952  2.0810 -1.6052  1.6314
   24MOL0     H 3176   9.246   1.635   8.806 -1.9046  0.8869  0.3065
   24MOL0     H 3177   9.064   1.670   9.034 -0.9632  1.7445 -1.0261
   24MOL0     H 3178   9.042   1.700   8.860 -2.6415 -1.1442  1.1078
   24MOL0     H 3179   9.023   1.477   8.800 -1.7693 -2.7630  0.9490
   24MOL0     H 3180   9.067   1.413   8.961  0.4421  0.3777  0.9213
   24MOL0     H 3181   8.841   1.389   8.914 -1.1918  0.9807 -2.8573
   24MOL0     H 3182   8.845   1.498   9.055 -1.6284  0.6980 -0.2874
   24MOL0     H 3183   8.802   1.694   8.929  1.6972  0.9691 -0.9968
   24MOL0     H 3184   8.799   1.609   8.775 -2.1127  1.1561 -0.1622
   24MOL0     H 3185   8.625   1.466   8.859 -0.0381 -0.8371  1.3357
   24MOL0     H 3186   8.613   1.569   9.005  2.4961  2.4666  1.4783
   24MOL0     H 3187   8.515   1.747   8.891  0.9943  0.0559  0.0233
   24MOL0     H 3188   8.589   1.701   8.744  2.2623  1.0787  1.5749
   24MOL0     H 3189   8.440   1.481   8.769 -0.6442  0.5770  0.4722
   24MOL0     H 3190   8.359   1.639   8.722 -0.1321 -0.9373 -0.5683
   24MOL0     H 3191   8.431   1.431   9.016 -0.0059  1.0443  2.7184
   24MOL0     H 3192   8.156   1.368   9.216 -0.6472  0.2328  0.1453
   24MOL0     H 3193   8.319   1.411   9.250  0.3887  1.2294 -2.3075
   24MOL0     H 3194   8.115   1.635   9.292 -0.0366  1.7770  1.7778
   24MOL0     H 3195   8.253   1.586   9.400 -2.9319 -0.9049  3.6257
   24MOL0     H 3196   8.072   1.528   9.528  3.8965 -0.4674 -0.3251
   24MOL0     H 3197   8.088   1.371   9.445  0.3321  0.4299  3.6364
   24MOL0     H 3198   7.911   1.425   9.283  0.4917  1.4426 -1.7463
   24MOL0     H 3199   7.908   1.590   9.332  1.2698  0.4486  0.6341
   24MOL0     H 3200   7.664   1.413   9.659  0.1137  2.6797  0.1701
   24MOL0     H 3201   7.313   1.435   9.700  0.0494  0.7463 -3.1186
   24MOL0     H 3202   7.377   1.276   9.704  0.4721  0.4013  5.1737
   24MOL0     H 3203   7.470   1.407   9.769 -0.9445 -2.1851  0.7154
   24MOL0     H 3204   7.050   1.568   9.254 -0.1299  0.2107  1.2978
   24MOL0     H 3205   6.815   1.539   9.219 -0.4552 -1.5551 -0.8991
   24MOL0     H 3206   6.512   1.203   9.188  1.1404  1.1166 -1.0019
   24MOL0     H 3207   6.652   1.126   9.249  0.4771  1.3704 -3.3242
   24MOL0     H 3208   6.648   1.209   9.465  1.9002  2.9179 -0.7770
   24MOL0     H 3209   6.527   1.337   9.430 -0.5089 -0.0615 -0.9514
   24MOL0     H 3210   6.442   1.111   9.561 -1.7727 -0.7699  0.1347
   24MOL0     H 3211   6.486   1.036   9.407  0.8292  0.9843 -0.6161
   24MOL0     H 3212   6.269   1.224   9.503  1.5032  0.9999 -0.7174
   24MOL0     H 3213   6.322   1.251   9.333  1.4243 -2.1377 -1.9213
   24MOL0     H 3214   6.197   1.001   9.457 -0.6276  0.1209 -0.0296
   24MOL0     H 3215   6.269   0.996   9.298 -1.4980  0.2128 -0.0444
   24MOL0     H 3216   6.033   1.187   9.388 -0.2555  1.6034 -0.9673
   24MOL0     H 3217   6.100   1.190   9.227 -5.1035  0.6274 -0.7589
   24MOL0     H 3218   5.983   0.940   9.346  0.0795 -0.5873  1.8788
   24MOL0     H 3219   6.030   0.967   9.176  0.2736  2.1482 -0.4227
   24MOL0     H 3220   5.878   1.168   9.151  0.1628 -0.6308 -1.1728
   24MOL0     H 3221   5.818   1.141   9.311 -0.2966 -1.2399  0.9844
   24MOL0     H 3222   6.837   1.118   9.217 -1.6523  0.4921  1.4588
   24MOL0     H 3223   7.097   1.141   9.225 -1.8933 -2.3845  1.0753
   24MOL0     H 3224   7.449   1.424   9.207 -0.7114  2.1596  0.7246
   24MOL0     H 3225   7.697   1.424   9.238  1.5729 -5.9707  2.0306
   24MOL0     H 3226   9.506   1.655   8.860 -1.3356 -1.1015 -2.7448
   24MOL0     H 3227   9.739   1.548   8.862 -0.2746 -0.7506 -0.8494
   24MOL0     H 3228   9.986   1.308   9.142 -1.4281 -1.8729 -0.6602
   24MOL0     H 3229  10.234   1.235   9.193 -1.1160  0.2710  0.7644
   24MOL0     H 3230  10.465   1.109   8.884 -3.6777  0.7445 -0.2185
   24MOL0     H 3231  10.512   1.278   8.844 -0.6738  0.5147  0.8792
   24MOL0     H 3232  10.720   1.162   8.898  2.8084  1.3541  1.9001
   24MOL0     H 3233  10.649   1.081   9.042  0.7762  1.1283  1.8537
   24MOL0     H 3234  10.645   1.322   9.143 -0.6177  3.5058 -2.1429
   24MOL0     H 3235  10.711   1.368   8.992  1.5032 -0.4330 -0.8652
   24MOL0     H 3236  10.806   1.145   9.175 -0.1199 -0.3198 -1.9160
   24MOL0     H 3237  10.854   1.307   9.222  2.4372 -0.2365 -1.2537
   24MOL0     H 3238  11.085   1.119   8.901 -1.4486 -1.2361  1.1295
   24MOL0     H 3239  10.303   1.222   8.766 -0.5048 -1.8400 -0.6489
   24MOL0     H 3240  10.071   1.227   8.725  1.1534 -2.0793  0.6819
   25MOL0     O 3241   1.968   1.102   5.914  0.0873 -0.9138 -0.1758
   25MOL0     C 3242   2.030   1.113   5.805  0.1350 -0.1190  0.4851
   25MOL0     O 3243   1.974   1.135   5.680 -0.0801 -0.0818 -0.3173
   25MOL0     C 3244   1.845   1.114   5.669  0.1480  0.7225  0.6630
   25MOL0     C 3245   1.792   0.984   5.663 -0.3278 -0.3574  1.2738
   25MOL0     C 3246   1.655   0.959   5.647 -0.8838 -0.1941  0.4416
   25MOL0     C 3247   1.562   1.064   5.652 -0.4676  0.3097  0.0170
   25MOL0     O 3248   1.431   1.026   5.661 -0.5584 -0.0315 -0.1590
   25MOL0     C 3249   1.336   1.129   5.675 -0.6434  0.4768 -0.1471
   25MOL0     C 3250   1.198   1.063   5.674  0.2669 -0.5373  0.3821
   25MOL0     C 3251   1.085   1.166   5.674  0.1902 -0.2615 -0.4323
   25MOL0     C 3252   0.948   1.110   5.729 -0.3995 -1.2585 -1.0207
   25MOL0     C 3253   0.849   1.229   5.754 -0.2766 -0.2859 -0.8852
   25MOL0     C 3254   0.718   1.179   5.803  0.7654  0.0361 -0.2438
   25MOL0     C 3255   0.616   1.295   5.839 -0.1576  0.5445  0.0843
   25MOL0     C 3256   0.502   1.247   5.924  0.0700  0.4414 -0.2380
   25MOL0     N 3257   0.408   1.160   5.856  0.3367  0.0008 -0.4611
   25MOL0     C 3258   0.287   1.196   5.804  0.3138  0.0707  0.2306
   25MOL0     C 3259   0.239   1.078   5.750 -0.3049 -0.1974 -0.6837
   25MOL0     C 3260   0.119   1.077   5.653  0.2746 -0.3372  0.3457
   25MOL0     C 3261   0.142   1.006   5.523  0.4092 -0.4280 -0.3553
   25MOL0     C 3262   0.020   1.006   5.435 -0.0981 -1.2890 -0.3181
   25MOL0     C 3263  -0.101   0.939   5.503  0.2759 -0.1516 -0.2168
   25MOL0     O 3264  -0.194   0.900   5.400 -0.1485 -0.6686  0.9564
   25MOL0     C 3265  -0.309   0.848   5.445  0.2398  0.4764 -0.7688
   25MOL0     C 3266  -0.337   0.813   5.583  0.1439 -0.9293 -0.5558
   25MOL0     C 3267  -0.471   0.769   5.621 -0.1874 -0.2938 -0.3989
   25MOL0     C 3268  -0.484   0.761   5.771 -0.2567 -0.4655  0.5277
   25MOL0     C 3269  -0.578   0.744   5.529 -0.2820 -0.4717 -0.0891
   25MOL0     C 3270  -0.710   0.702   5.572  0.0648  0.1019  0.4142
   25MOL0     O 3271  -0.823   0.773   5.539 -0.2126 -0.3453  0.3803
   25MOL0     C 3272  -0.947   0.718   5.516  0.9624  0.2715 -1.3199
   25MOL0     C 3273  -1.057   0.795   5.541 -0.4437  0.5426  0.6877
   25MOL0     C 3274  -1.185   0.751   5.540  0.2347 -0.5565 -0.0246
   25MOL0     C 3275  -1.217   0.626   5.504 -0.4267  0.2864 -0.2550
   25MOL0     O 3276  -1.350   0.591   5.510 -0.3559  0.1956  0.9519
   25MOL0     C 3277  -1.397   0.463   5.465  0.1053 -0.1878 -0.9596
   25MOL0     C 3278  -1.541   0.451   5.526  0.3837  0.2344  0.0177
   25MOL0     C 3279  -1.649   0.538   5.445 -0.6801 -0.1295 -0.5971
   25MOL0     C 3280  -1.722   0.461   5.336  0.1602 -0.5439  0.2494
   25MOL0     C 3281  -1.809   0.566   5.260  0.4413 -0.4896  0.2386
   25MOL0     C 3282  -1.913   0.482   5.172 -0.3712 -0.1570 -0.4125
   25MOL0     C 3283  -2.013   0.570   5.078  0.3342 -0.6597  0.1224
   25MOL0     C 3284  -2.091   0.465   5.010 -0.0570  0.2122 -0.6945
   25MOL0    Cl 3285  -2.190   0.360   5.120  0.3777  0.2511 -0.3429
   25MOL0     C 3286  -1.109   0.542   5.471 -0.3035 -0.6712 -0.0493
   25MOL0     C 3287  -0.973   0.584   5.475 -0.5937 -0.2912 -0.0415
   25MOL0     O 3288  -0.709   0.592   5.643  1.3373 -0.6015 -0.0814
   25MOL0     C 3289  -0.539   0.762   5.396 -0.1406  0.0788  0.0425
   25MOL0     C 3290  -0.414   0.810   5.353 -0.0270  0.0936 -0.5213
   25MOL0     N 3291   0.317   0.973   5.796  0.4707 -0.9897  0.6778
   25MOL0     N 3292   0.421   1.029   5.860 -0.3099 -0.8347  0.2004
   25MOL0     C 3293   1.610   1.197   5.650  0.1147  0.5218  0.5607
   25MOL0     C 3294   1.753   1.217   5.663 -0.0684  0.0450 -0.4547
   25MOL0     C 3295   2.177   1.098   5.810  0.3875 -0.0004  1.2538
   25MOL0     C 3296   2.242   1.073   5.929 -1.2013  0.6789  0.1990
   25MOL0     C 3297   2.390   1.055   5.925  0.5828  0.2059 -0.0648
   25MOL0     C 3298   2.460   1.051   5.806  0.3222 -0.6239  0.3386
   25MOL0     O 3299   2.580   0.989   5.807 -0.2643 -0.5070  0.2895
   25MOL0     C 3300   2.642   0.962   5.689  1.0484  0.1623  0.8109
   25MOL0     C 3301   2.800   0.933   5.703 -0.6062 -0.2179  1.1011
   25MOL0     C 3302   2.884   0.985   5.581  0.9029  0.6666 -0.6555
   25MOL0     C 3303   3.032   0.943   5.603 -0.2631  0.4106 -0.2489
   25MOL0     C 3304   3.052   0.797   5.586 -0.0963  0.3837 -0.8357
   25MOL0     C 3305   3.085   0.678   5.596 -0.2625  0.7568  0.5203
   25MOL0     C 3306   2.393   1.089   5.691  0.2897 -0.2095  0.5345
   25MOL0     C 3307   2.257   1.104   5.692  0.6856 -0.3422 -0.3187
   25MOL0     H 3308   1.852   0.895   5.663 -0.3706 -0.4620 -1.4685
   25MOL0     H 3309   1.629   0.854   5.637  0.9429 -0.8591  2.0741
   25MOL0     H 3310   1.336   1.177   5.773 -1.7381 -1.2273  0.7210
   25MOL0     H 3311   1.342   1.202   5.593 -1.3814  1.9268  1.0252
   25MOL0     H 3312   1.194   1.006   5.580  3.4263  1.0648 -0.8939
   25MOL0     H 3313   1.182   0.989   5.753  0.5249 -1.3349 -0.2901
   25MOL0     H 3314   1.113   1.246   5.743  1.1759 -1.5987  0.7967
   25MOL0     H 3315   1.073   1.194   5.569 -0.9212  1.7191  0.1725
   25MOL0     H 3316   0.910   1.051   5.646 -3.4912 -1.0382  0.1256
   25MOL0     H 3317   0.978   1.059   5.821  0.6583  2.2316  0.7937
   25MOL0     H 3318   0.884   1.308   5.821  1.7498 -0.4383 -1.7092
   25MOL0     H 3319   0.827   1.282   5.661  0.2655 -2.1427 -2.1407
   25MOL0     H 3320   0.668   1.116   5.729  0.7558  0.3922 -0.5356
   25MOL0     H 3321   0.729   1.122   5.896  1.5351  0.6474  0.0502
   25MOL0     H 3322   0.687   1.354   5.899 -0.9198  0.8736  0.6725
   25MOL0     H 3323   0.580   1.348   5.751  0.4052 -1.3660 -1.3481
   25MOL0     H 3324   0.449   1.336   5.959  0.6188  1.6368 -2.2972
   25MOL0     H 3325   0.536   1.197   6.015 -0.5983 -1.0658 -0.7831
   25MOL0     H 3326   0.253   1.299   5.803  1.5206  0.5258 -2.1705
   25MOL0     H 3327   0.026   1.037   5.693 -1.0113  0.8682 -1.2959
   25MOL0     H 3328   0.086   1.180   5.640 -1.2553 -0.6306  1.6542
   25MOL0     H 3329   0.165   0.900   5.539  1.2979 -0.2137 -0.1842
   25MOL0     H 3330   0.231   1.049   5.476  0.9499 -0.4455  0.6398
   25MOL0     H 3331   0.058   0.952   5.348  1.8693 -2.3049  1.0804
   25MOL0     H 3332  -0.020   1.102   5.403  0.0389 -0.6966  1.2101
   25MOL0     H 3333  -0.145   1.016   5.567  0.9518 -1.0208  1.3411
   25MOL0     H 3334  -0.071   0.851   5.560 -0.0379 -0.9657 -1.2709
   25MOL0     H 3335  -0.255   0.822   5.654 -0.6696 -0.0474  0.3030
   25MOL0     H 3336  -0.417   0.828   5.827  0.0477 -3.5430  4.2138
   25MOL0     H 3337  -0.585   0.789   5.801  0.0569  2.6065 -0.8934
   25MOL0     H 3338  -0.462   0.661   5.810  1.5145 -0.1169  0.5468
   25MOL0     H 3339  -1.035   0.897   5.572  2.0096 -0.6154  3.1960
   25MOL0     H 3340  -1.261   0.816   5.582  0.3696 -1.3172  1.4756
   25MOL0     H 3341  -1.402   0.457   5.356 -0.5049  1.6578 -1.0838
   25MOL0     H 3342  -1.340   0.377   5.500 -1.7944 -1.0568  0.2000
   25MOL0     H 3343  -1.559   0.345   5.507  0.7430  0.3173 -0.8352
   25MOL0     H 3344  -1.542   0.473   5.633  3.0971  0.7771  0.0091
   25MOL0     H 3345  -1.609   0.638   5.425 -1.3885  0.2337 -0.2324
   25MOL0     H 3346  -1.720   0.560   5.525  0.2511 -1.1425  0.5569
   25MOL0     H 3347  -1.655   0.411   5.266  0.5319 -2.0727  1.6391
   25MOL0     H 3348  -1.787   0.389   5.386 -0.6807  1.5993  2.4770
   25MOL0     H 3349  -1.740   0.631   5.205 -1.0157 -0.8584 -2.1467
   25MOL0     H 3350  -1.874   0.626   5.324 -0.0402 -0.6039 -0.1379
   25MOL0     H 3351  -1.870   0.412   5.100  1.1500  1.0786 -0.7754
   25MOL0     H 3352  -1.972   0.408   5.227 -0.4819  0.5577  0.4467
   25MOL0     H 3353  -1.969   0.650   5.018  0.2015 -0.4379  0.3160
   25MOL0     H 3354  -2.084   0.621   5.144  1.9466 -0.3348  1.6870
   25MOL0     H 3355  -2.018   0.396   4.967  2.9970  0.8645  2.9739
   25MOL0     H 3356  -2.161   0.494   4.931 -0.4986  1.1003 -0.0032
   25MOL0     H 3357  -1.119   0.435   5.455 -0.6968 -0.7355  0.6010
   25MOL0     H 3358  -0.891   0.517   5.453 -1.2530 -0.8215 -1.0045
   25MOL0     H 3359  -0.615   0.738   5.322 -2.3246 -0.6571  2.3960
   25MOL0     H 3360  -0.397   0.819   5.246 -1.7478 -3.8734 -1.3072
   25MOL0     H 3361   1.543   1.281   5.638  0.7959  1.1141  0.8885
   25MOL0     H 3362   1.788   1.318   5.682 -2.0595  0.3252  2.3345
   25MOL0     H 3363   2.188   1.072   6.023 -1.8181  1.3512 -0.1389
   25MOL0     H 3364   2.439   1.032   6.019 -1.2873 -3.0471  0.2584
   25MOL0     H 3365   2.590   0.884   5.633 -0.3393  1.9287 -0.4812
   25MOL0     H 3366   2.631   1.053   5.630  0.9124  0.0684  0.6905
   25MOL0     H 3367   2.807   0.824   5.705 -2.9163 -0.4192  0.4334
   25MOL0     H 3368   2.839   0.981   5.793 -0.3220  1.9209 -0.0859
   25MOL0     H 3369   2.879   1.094   5.571 -0.9466  1.0210  2.6768
   25MOL0     H 3370   2.840   0.927   5.499 -1.3431 -0.8354  1.4805
   25MOL0     H 3371   3.065   0.970   5.703  0.7970  1.4293 -0.8425
   25MOL0     H 3372   3.097   1.006   5.541  1.9827 -0.1991  1.3605
   25MOL0     H 3373   3.122   0.578   5.599  0.2619  0.9185 -0.2769
   25MOL0     H 3374   2.451   1.089   5.599 -1.2689  0.6515 -0.4773
   25MOL0     H 3375   2.213   1.116   5.594 -0.2349  3.1021  0.3731
   26MOL0     O 3376   8.561   9.555   9.678  0.0687 -0.4840 -0.4565
   26MOL0     C 3377   8.556   9.571   9.805  0.3821 -0.3498 -0.3410
   26MOL0     O 3378   8.439   9.591   9.883  1.0986 -0.1711  0.1555
   26MOL0     C 3379   8.312   9.603   9.812  0.5202 -0.7002 -0.3580
   26MOL0     C 3380   8.196   9.581   9.888 -0.7214  0.3690  0.0940
   26MOL0     C 3381   8.066   9.599   9.834 -0.0357 -0.8265  0.3092
   26MOL0     C 3382   8.053   9.640   9.701  0.3710  0.1996  0.1141
   26MOL0     O 3383   7.939   9.656   9.644  0.8361 -0.7770 -0.2007
   26MOL0     C 3384   7.819   9.606   9.697 -0.1309  0.9960  0.3079
   26MOL0     C 3385   7.705   9.634   9.591 -0.3352 -0.1320  0.3032
   26MOL0     C 3386   7.576   9.572   9.630  0.2348  0.5274 -0.2306
   26MOL0     C 3387   7.470   9.603   9.525 -0.2920  0.0245  0.2488
   26MOL0     C 3388   7.333   9.537   9.565  0.7474 -0.2093 -0.9276
   26MOL0     C 3389   7.223   9.579   9.476  0.6571 -0.7748 -1.2419
   26MOL0     C 3390   7.101   9.513   9.510 -0.3715  0.3034 -1.0966
   26MOL0     C 3391   6.985   9.558   9.420 -0.3221 -0.1262  0.3288
   26MOL0     N 3392   6.865   9.489   9.453 -0.2088 -0.4836  0.0483
   26MOL0     C 3393   6.772   9.456   9.356 -0.5664 -0.0667 -0.4142
   26MOL0     C 3394   6.647   9.438   9.411 -1.4275  0.3888 -0.3928
   26MOL0     C 3395   6.522   9.381   9.349  0.4252  1.0220  0.0437
   26MOL0     C 3396   6.508   9.418   9.204  0.0928  1.2124  0.2668
   26MOL0     C 3397   6.366   9.378   9.144 -0.1025 -0.3145 -0.9169
   26MOL0     C 3398   6.339   9.230   9.129 -0.1791  0.3421  0.5789
   26MOL0     O 3399   6.278   9.193   9.002  0.2756 -0.4061 -0.5297
   26MOL0     C 3400   6.149   9.232   8.981 -0.2056 -0.3068 -0.4012
   26MOL0     C 3401   6.086   9.178   8.868 -0.0393  0.3063  0.0670
   26MOL0     C 3402   5.953   9.205   8.830 -0.0628 -0.8814  0.9596
   26MOL0     C 3403   5.898   9.137   8.706  0.4170 -0.3751  0.7145
   26MOL0     C 3404   5.872   9.286   8.909  0.9780 -0.0677  0.7412
   26MOL0     C 3405   5.733   9.328   8.879  0.5634  0.6801 -0.0651
   26MOL0     O 3406   5.715   9.458   8.878 -0.3417 -0.3688 -0.3953
   26MOL0     C 3407   5.581   9.511   8.864 -0.0272  0.6478 -0.8367
   26MOL0     C 3408   5.483   9.479   8.770 -0.2564 -0.6614 -0.1984
   26MOL0     C 3409   5.361   9.554   8.776 -0.0698 -0.2280  0.7936
   26MOL0     C 3410   5.325   9.650   8.876 -0.0284  0.4790 -0.5371
   26MOL0     O 3411   5.207   9.717   8.889 -0.2634  0.4790  0.0883
   26MOL0     C 3412   5.085   9.654   8.847  0.0292  0.6292  0.0937
   26MOL0     C 3413   4.978   9.756   8.821 -0.3826 -0.2880 -0.6707
   26MOL0     C 3414   4.847   9.686   8.814 -0.5014 -0.4383 -0.5398
   26MOL0     C 3415   4.773   9.653   8.947  0.1474  0.2641 -0.5789
   26MOL0     C 3416   4.636   9.590   8.925  0.1940 -0.3248 -0.1343
   26MOL0     C 3417   4.594   9.528   9.060  0.6717  0.6366  0.2220
   26MOL0     C 3418   4.452   9.476   9.037 -0.4939 -0.1774  0.4727
   26MOL0     C 3419   4.409   9.403   9.168  0.4178 -0.0488 -1.2454
   26MOL0    Cl 3420   4.385   9.520   9.296 -0.6207  0.2285  0.2213
   26MOL0     C 3421   5.429   9.676   8.964  0.6431  0.5333 -0.7946
   26MOL0     C 3422   5.551   9.611   8.955  0.0098  0.3181  0.2721
   26MOL0     O 3423   5.651   9.241   8.854 -0.1158 -0.3917  0.1736
   26MOL0     C 3424   5.931   9.343   9.023 -0.5434 -0.6642 -0.9444
   26MOL0     C 3425   6.064   9.319   9.056  0.6626 -0.6601 -0.7424
   26MOL0     N 3426   6.666   9.452   9.547 -0.0305  0.1896 -0.5363
   26MOL0     N 3427   6.797   9.485   9.575  0.0157  0.6118  0.2662
   26MOL0     C 3428   8.168   9.672   9.624 -0.5257 -0.5376 -0.2440
   26MOL0     C 3429   8.298   9.660   9.684  0.6015 -0.4901  0.1556
   26MOL0     C 3430   8.685   9.544   9.879 -0.3431 -0.2011  0.9689
   26MOL0     C 3431   8.694   9.578  10.016 -0.1462  0.2261 -0.0315
   26MOL0     C 3432   8.800   9.538  10.093 -1.1945 -0.0487 -0.6668
   26MOL0     C 3433   8.916   9.473  10.032  0.2592 -0.6549 -1.0510
   26MOL0     O 3434   9.024   9.437  10.112  0.3358  0.4001  0.2370
   26MOL0     C 3435   9.136   9.524  10.136  0.3191  0.7951  0.6119
   26MOL0     C 3436   9.233   9.539  10.024  0.0667  0.8629  0.0361
   26MOL0     C 3437   9.316   9.412   9.993 -0.6297  0.3800  0.2432
   26MOL0     C 3438   9.430   9.450   9.894  0.5577  0.4095  0.6095
   26MOL0     C 3439   9.386   9.478   9.752  0.3643  0.5155 -1.3731
   26MOL0     C 3440   9.351   9.490   9.641  0.3404  0.4067 -0.5444
   26MOL0     C 3441   8.909   9.441   9.892 -0.7475 -1.2367 -0.2268
   26MOL0     C 3442   8.802   9.482   9.815  0.4031 -0.2638  0.7496
   26MOL0     H 3443   8.217   9.541   9.986  0.5496  1.1811  0.1795
   26MOL0     H 3444   7.984   9.583   9.904 -0.2069  1.7673  0.7861
   26MOL0     H 3445   7.837   9.500   9.715 -2.0133  0.3169 -1.4141
   26MOL0     H 3446   7.792   9.647   9.795  2.4122  2.4812  0.4685
   26MOL0     H 3447   7.691   9.743   9.588  1.0811  0.0714  0.5749
   26MOL0     H 3448   7.731   9.588   9.496 -0.6769  1.2310 -0.4845
   26MOL0     H 3449   7.606   9.466   9.633  4.8500  1.6264  0.8327
   26MOL0     H 3450   7.539   9.601   9.728  2.9127  2.1143  0.4233
   26MOL0     H 3451   7.462   9.712   9.521  0.0858  0.0452 -3.4446
   26MOL0     H 3452   7.500   9.572   9.424 -0.2032  1.0587 -0.0536
   26MOL0     H 3453   7.352   9.429   9.574 -0.2966 -0.4672 -1.6461
   26MOL0     H 3454   7.329   9.561   9.671  0.8712 -2.2894 -0.4081
   26MOL0     H 3455   7.219   9.684   9.508 -0.4059 -1.3551  0.6442
   26MOL0     H 3456   7.251   9.566   9.371  0.0454 -1.2606 -1.3451
   26MOL0     H 3457   7.115   9.404   9.514 -0.6608  0.1897 -2.5018
   26MOL0     H 3458   7.073   9.541   9.612  0.3790  1.4391 -1.1905
   26MOL0     H 3459   7.007   9.528   9.317 -3.5288 -1.0831 -0.1823
   26MOL0     H 3460   6.974   9.666   9.426  2.6822  0.2155  1.3488
   26MOL0     H 3461   6.804   9.452   9.253 -0.7449  0.4449 -0.4936
   26MOL0     H 3462   6.534   9.273   9.368 -4.0714  0.5565  1.5939
   26MOL0     H 3463   6.437   9.414   9.409  0.3752  1.7507 -0.4207
   26MOL0     H 3464   6.584   9.367   9.143 -1.1218  0.1578 -0.4110
   26MOL0     H 3465   6.514   9.526   9.189  0.8937  1.0194 -0.9670
   26MOL0     H 3466   6.359   9.429   9.048  1.6658  4.1575  1.0774
   26MOL0     H 3467   6.291   9.405   9.218 -0.0953 -4.3149  0.8078
   26MOL0     H 3468   6.284   9.175   9.206  0.7509  1.3846  2.0361
   26MOL0     H 3469   6.438   9.184   9.130  0.3242  1.3624  2.7217
   26MOL0     H 3470   6.142   9.109   8.806  2.6128  1.0718  1.4726
   26MOL0     H 3471   5.975   9.066   8.673  2.0145  1.8284 -0.6142
   26MOL0     H 3472   5.810   9.082   8.741 -1.2306  1.0421 -1.0098
   26MOL0     H 3473   5.863   9.197   8.621 -0.5533  1.0670  2.0812
   26MOL0     H 3474   5.505   9.407   8.692  0.2580 -0.2777 -0.4110
   26MOL0     H 3475   5.297   9.532   8.691  1.6988  1.9118 -1.2110
   26MOL0     H 3476   5.103   9.597   8.756 -1.0717 -4.1431  2.5110
   26MOL0     H 3477   5.050   9.588   8.927 -1.7112 -1.8764 -2.5402
   26MOL0     H 3478   4.975   9.836   8.896  1.0667 -0.9541  0.1486
   26MOL0     H 3479   5.009   9.811   8.732  4.5128 -1.0998  0.2353
   26MOL0     H 3480   4.847   9.598   8.749  1.5234 -3.5665  3.2708
   26MOL0     H 3481   4.783   9.750   8.753 -1.4234  0.1940  1.0361
   26MOL0     H 3482   4.842   9.586   9.000 -0.4013  0.2108  0.0751
   26MOL0     H 3483   4.764   9.744   9.007 -0.5158  0.0711 -0.3831
   26MOL0     H 3484   4.642   9.515   8.847 -1.7397 -1.3531  0.6467
   26MOL0     H 3485   4.577   9.675   8.889  2.8079  1.5089 -0.4150
   26MOL0     H 3486   4.659   9.444   9.086 -0.9057 -1.9140 -3.2580
   26MOL0     H 3487   4.583   9.607   9.135  1.1752  0.6814  0.2500
   26MOL0     H 3488   4.450   9.403   8.956 -0.2174 -0.9574  1.1552
   26MOL0     H 3489   4.378   9.551   9.007 -1.8091 -1.0791  1.3228
   26MOL0     H 3490   4.490   9.336   9.197 -1.0350 -1.4713 -0.3241
   26MOL0     H 3491   4.317   9.344   9.172  1.5258 -1.8326  3.1927
   26MOL0     H 3492   5.416   9.753   9.040 -4.0627  1.1107 -1.8912
   26MOL0     H 3493   5.633   9.648   9.016  0.8686  1.0304 -1.2506
   26MOL0     H 3494   5.882   9.423   9.077  3.2392  1.6833 -0.6627
   26MOL0     H 3495   6.099   9.388   9.132  3.3505 -1.4372 -1.1765
   26MOL0     H 3496   8.158   9.707   9.521  1.3543  0.8258 -0.0144
   26MOL0     H 3497   8.386   9.698   9.635  1.6506 -1.8742  0.8802
   26MOL0     H 3498   8.610   9.623  10.067 -1.4160 -0.9246 -1.0169
   26MOL0     H 3499   8.801   9.562  10.198 -4.0315  1.2767 -0.8494
   26MOL0     H 3500   9.088   9.621  10.150 -3.3258 -0.8041  0.1025
   26MOL0     H 3501   9.199   9.494  10.220  0.4250 -1.1354 -0.0962
   26MOL0     H 3502   9.306   9.611  10.063 -0.6541  0.0771  3.1028
   26MOL0     H 3503   9.177   9.574   9.938 -1.0383 -0.5024  0.1631
   26MOL0     H 3504   9.256   9.335   9.943 -0.4974 -0.2396  1.0102
   26MOL0     H 3505   9.355   9.366  10.084  0.4999  1.0504  0.1180
   26MOL0     H 3506   9.494   9.362   9.892 -0.7618 -0.5853 -1.1935
   26MOL0     H 3507   9.486   9.540   9.922  0.0821  0.3125  1.9549
   26MOL0     H 3508   9.343   9.497   9.534 -2.0355 -2.6770 -0.6850
   26MOL0     H 3509   8.988   9.394   9.834 -0.2232  0.7869 -1.2369
   26MOL0     H 3510   8.794   9.471   9.708 -0.3780  2.0680  0.5039
   27MOL0     O 3511   5.861   0.812   9.585  0.0269 -0.3428 -0.1303
   27MOL0     C 3512   5.880   0.916   9.641 -0.2627 -0.2173  0.2045
   27MOL0     O 3513   5.787   0.999   9.666 -0.0038 -0.0895  0.1031
   27MOL0     C 3514   5.658   0.957   9.629  0.0056  0.2346 -0.0193
   27MOL0     C 3515   5.619   0.933   9.497 -0.5120 -0.4652  0.6328
   27MOL0     C 3516   5.489   0.910   9.452  0.6569  0.1943 -0.4331
   27MOL0     C 3517   5.387   0.920   9.552  0.1511  0.4252 -0.4778
   27MOL0     O 3518   5.253   0.906   9.517  0.0622  0.5071 -0.0592
   27MOL0     C 3519   5.229   0.815   9.418  0.3684 -1.0446 -0.5733
   27MOL0     C 3520   5.085   0.753   9.414 -0.2437  0.5594 -0.2847
   27MOL0     C 3521   4.995   0.860   9.359 -0.0037  0.9175  0.9883
   27MOL0     C 3522   4.853   0.807   9.389  0.5120 -0.2635 -0.0169
   27MOL0     C 3523   4.747   0.890   9.317 -0.1104 -0.8005 -0.0472
   27MOL0     C 3524   4.600   0.851   9.327  0.0692 -0.6445  0.6559
   27MOL0     C 3525   4.580   0.708   9.296  0.0721 -0.1043 -0.2898
   27MOL0     C 3526   4.445   0.655   9.254 -0.5571 -0.6787  0.7265
   27MOL0     N 3527   4.459   0.510   9.252  0.1307 -0.3888 -0.9333
   27MOL0     C 3528   4.446   0.428   9.361 -0.0629 -0.0851 -0.2492
   27MOL0     C 3529   4.476   0.306   9.313  0.6990 -0.4434 -1.2300
   27MOL0     C 3530   4.439   0.181   9.380 -0.8145  0.4846 -0.7486
   27MOL0     C 3531   4.348   0.097   9.289  0.3514 -0.4850  0.1997
   27MOL0     C 3532   4.299  -0.013   9.376  0.4826  0.1960  0.3698
   27MOL0     C 3533   4.250  -0.124   9.286 -0.0675  0.7511  0.3284
   27MOL0     O 3534   4.153  -0.080   9.196 -0.1505 -0.5300  0.4471
   27MOL0     C 3535   4.046  -0.159   9.148  0.4724  0.9838 -0.3040
   27MOL0     C 3536   4.046  -0.301   9.158  0.5904  0.0318 -0.0547
   27MOL0     C 3537   3.947  -0.392   9.116 -0.7599 -0.3804  0.0456
   27MOL0     C 3538   3.982  -0.543   9.129  0.3567  0.2167  0.1942
   27MOL0     C 3539   3.829  -0.328   9.058 -0.2048 -0.0782 -0.1787
   27MOL0     C 3540   3.716  -0.408   9.001 -0.6943 -0.5492 -0.3657
   27MOL0     O 3541   3.608  -0.334   8.983  0.0608  0.3871  0.3612
   27MOL0     C 3542   3.504  -0.389   8.911 -0.3481 -0.1647 -0.7609
   27MOL0     C 3543   3.516  -0.420   8.780 -0.2913  0.0145 -0.5275
   27MOL0     C 3544   3.431  -0.495   8.706  0.1325  0.4172 -0.5302
   27MOL0     C 3545   3.307  -0.519   8.765 -0.1054 -0.3979  0.4728
   27MOL0     O 3546   3.196  -0.574   8.699 -0.2411  0.3310 -0.6548
   27MOL0     C 3547   3.217  -0.626   8.567  0.5062 -0.6949 -0.3821
   27MOL0     C 3548   3.095  -0.680   8.515  0.6322  0.1188 -0.3424
   27MOL0     C 3549   2.974  -0.572   8.495  0.7556  0.7002  0.1384
   27MOL0     C 3550   2.873  -0.653   8.407 -0.4429 -0.2419 -0.2385
   27MOL0     C 3551   2.748  -0.570   8.391  0.0189  0.1444 -0.3498
   27MOL0     C 3552   2.643  -0.636   8.302  0.6733  0.0748  0.1953
   27MOL0     C 3553   2.503  -0.571   8.296  0.3524 -0.7903  0.5968
   27MOL0     C 3554   2.407  -0.655   8.205 -0.4637  0.0285 -0.0524
   27MOL0    Cl 3555   2.389  -0.603   8.026 -0.2186  0.1282  0.1065
   27MOL0     C 3556   3.279  -0.480   8.895 -0.9739 -1.1840  0.6905
   27MOL0     C 3557   3.377  -0.414   8.973  0.3595  0.0916  0.0897
   27MOL0     O 3558   3.726  -0.527   8.974  0.0918  0.6120 -0.5929
   27MOL0     C 3559   3.825  -0.190   9.053  0.3810  0.6096 -0.3556
   27MOL0     C 3560   3.934  -0.109   9.091 -0.2111 -0.1156 -0.9393
   27MOL0     N 3561   4.505   0.315   9.182  0.0528 -1.5435  0.5257
   27MOL0     N 3562   4.503   0.444   9.144 -0.5011  0.0980  0.4288
   27MOL0     C 3563   5.422   0.951   9.688  0.6871 -0.3836  0.5655
   27MOL0     C 3564   5.557   0.973   9.716 -0.6601 -0.3907 -0.2808
   27MOL0     C 3565   6.011   0.954   9.680  0.0110 -0.0932 -0.3136
   27MOL0     C 3566   6.049   1.094   9.684  0.1856  0.6041 -0.1967
   27MOL0     C 3567   6.164   1.134   9.733 -0.4718  0.4914  0.1033
   27MOL0     C 3568   6.262   1.039   9.772 -0.0442  1.2840  0.4755
   27MOL0     O 3569   6.391   1.065   9.830 -0.4539 -0.0164  0.1812
   27MOL0     C 3570   6.435   1.200   9.830 -0.0643  0.2903 -0.3298
   27MOL0     C 3571   6.581   1.219   9.891 -0.5216 -0.0262 -0.1713
   27MOL0     C 3572   6.680   1.189   9.781 -0.6189 -0.8313  0.3218
   27MOL0     C 3573   6.771   1.311   9.739 -0.1757  0.4045  0.7715
   27MOL0     C 3574   6.904   1.315   9.795  0.4299  0.9072 -0.1462
   27MOL0     C 3575   7.024   1.318   9.826  0.4595  1.0954  0.3126
   27MOL0     C 3576   6.238   0.904   9.740 -0.1710 -0.0500  0.2428
   27MOL0     C 3577   6.113   0.856   9.702 -0.2482 -0.9196 -0.2741
   27MOL0     H 3578   5.696   0.924   9.421  0.1516 -2.1196  1.4564
   27MOL0     H 3579   5.478   0.880   9.348  1.6725 -1.2388 -0.1568
   27MOL0     H 3580   5.239   0.871   9.325  0.6192 -0.2638 -0.0804
   27MOL0     H 3581   5.295   0.727   9.422 -0.0086 -1.2796  0.8573
   27MOL0     H 3582   5.090   0.662   9.353 -0.0939 -0.6085  1.4131
   27MOL0     H 3583   5.043   0.723   9.510 -0.2216 -2.2623 -1.0718
   27MOL0     H 3584   5.013   0.956   9.408  1.1344 -0.5439  3.6474
   27MOL0     H 3585   5.012   0.867   9.251 -6.5930 -0.7794 -0.5899
   27MOL0     H 3586   4.844   0.707   9.344  2.6511 -0.8946  0.8084
   27MOL0     H 3587   4.839   0.794   9.497  3.2792  1.6051  0.6656
   27MOL0     H 3588   4.756   0.993   9.352  1.1483 -0.7067 -0.5864
   27MOL0     H 3589   4.783   0.896   9.213 -1.0378 -0.7885 -0.3735
   27MOL0     H 3590   4.565   0.869   9.429  0.4752  0.5373  0.6066
   27MOL0     H 3591   4.538   0.919   9.267  1.9622  1.3434  0.8273
   27MOL0     H 3592   4.649   0.668   9.221  0.9476 -3.5703  2.1053
   27MOL0     H 3593   4.591   0.663   9.395  2.3005 -0.9440 -0.8545
   27MOL0     H 3594   4.427   0.696   9.154  0.3322 -1.3009  0.2952
   27MOL0     H 3595   4.377   0.699   9.328 -0.7856  0.1011  0.0712
   27MOL0     H 3596   4.406   0.444   9.460 -1.2703 -4.5247  0.1934
   27MOL0     H 3597   4.534   0.130   9.397 -1.5475 -1.0512 -1.0969
   27MOL0     H 3598   4.388   0.192   9.476 -2.1705 -1.3451 -1.2110
   27MOL0     H 3599   4.420   0.062   9.214  1.6741 -0.8986  1.6007
   27MOL0     H 3600   4.267   0.158   9.249 -1.1809 -2.0039  0.8546
   27MOL0     H 3601   4.216   0.016   9.441  0.3541  2.5927 -0.7729
   27MOL0     H 3602   4.380  -0.053   9.438  0.1510 -2.8628 -0.9830
   27MOL0     H 3603   4.212  -0.202   9.353  2.0971 -0.5272  0.1820
   27MOL0     H 3604   4.334  -0.166   9.230 -0.2479  0.3464  0.3596
   27MOL0     H 3605   4.134  -0.337   9.210  0.9948  1.8057  0.5883
   27MOL0     H 3606   4.076  -0.567   9.180  0.5966  0.1457 -0.2662
   27MOL0     H 3607   3.908  -0.597   9.188  1.4196 -0.0217  1.3612
   27MOL0     H 3608   3.993  -0.589   9.030  4.0549 -0.2404  0.6428
   27MOL0     H 3609   3.608  -0.392   8.731  0.1371 -1.5405 -0.6801
   27MOL0     H 3610   3.466  -0.524   8.608 -0.1208 -1.7962 -0.0345
   27MOL0     H 3611   3.250  -0.554   8.491  0.7679 -1.1870 -0.7417
   27MOL0     H 3612   3.298  -0.700   8.573 -0.3346 -1.8049 -2.0686
   27MOL0     H 3613   3.126  -0.727   8.421 -0.3018  0.6298 -0.9211
   27MOL0     H 3614   3.074  -0.767   8.578  3.1256 -1.6720 -1.7843
   27MOL0     H 3615   2.999  -0.480   8.441 -3.2821  3.1011  1.9022
   27MOL0     H 3616   2.936  -0.553   8.596  0.0295 -2.3433  0.5127
   27MOL0     H 3617   2.922  -0.676   8.312  2.5511  1.6162  0.7051
   27MOL0     H 3618   2.845  -0.750   8.448 -0.9240 -1.3137 -2.9028
   27MOL0     H 3619   2.768  -0.478   8.335 -1.2157  0.9604  0.4903
   27MOL0     H 3620   2.705  -0.546   8.489 -0.1178  1.8270 -0.7930
   27MOL0     H 3621   2.680  -0.658   8.201  0.2582  0.9520 -0.1582
   27MOL0     H 3622   2.628  -0.735   8.346  1.6438 -0.2437 -0.1772
   27MOL0     H 3623   2.503  -0.465   8.266 -1.1451 -0.4609  1.6389
   27MOL0     H 3624   2.463  -0.563   8.397 -0.8120  0.2609  0.0781
   27MOL0     H 3625   2.310  -0.652   8.255  0.6398 -3.3557  2.6274
   27MOL0     H 3626   2.432  -0.761   8.202  0.7314  0.2959 -0.3598
   27MOL0     H 3627   3.177  -0.493   8.930 -1.4490 -1.0723 -0.5914
   27MOL0     H 3628   3.365  -0.372   9.073  1.3373  0.3011  0.1344
   27MOL0     H 3629   3.744  -0.137   9.004 -0.1388  0.7524  0.6392
   27MOL0     H 3630   3.918  -0.002   9.075 -1.2451 -0.5064 -2.8931
   27MOL0     H 3631   5.349   0.961   9.767  0.4599 -0.3508  0.3525
   27MOL0     H 3632   5.580   0.987   9.821 -0.3573  0.3819 -0.4448
   27MOL0     H 3633   5.977   1.170   9.657  1.2009  1.5677 -0.2390
   27MOL0     H 3634   6.186   1.240   9.736  1.6218  0.0845  1.4651
   27MOL0     H 3635   6.426   1.244   9.730  1.1917 -0.5219 -0.8295
   27MOL0     H 3636   6.362   1.258   9.886 -0.8036  1.4358 -2.3730
   27MOL0     H 3637   6.609   1.151   9.972  2.5840  1.5338  0.2255
   27MOL0     H 3638   6.598   1.321   9.929 -1.2663 -0.0515  0.2380
   27MOL0     H 3639   6.630   1.166   9.686 -0.2426  2.0480 -0.6711
   27MOL0     H 3640   6.746   1.109   9.815  1.5193  0.1915 -1.1742
   27MOL0     H 3641   6.722   1.405   9.764 -3.2731 -0.4939 -1.3567
   27MOL0     H 3642   6.785   1.312   9.631 -0.7135 -0.2564  0.6891
   27MOL0     H 3643   7.129   1.318   9.846  0.2214  0.5565  1.7049
   27MOL0     H 3644   6.303   0.818   9.752 -0.1808 -0.1629 -0.4751
   27MOL0     H 3645   6.088   0.751   9.690 -3.4323 -0.3142  0.0217
   28MOL0     O 3646   5.005  10.401   0.370 -0.0769 -0.0351 -0.1201
   28MOL0     C 3647   5.003  10.336   0.270 -0.1936  0.5976  0.1643
   28MOL0     O 3648   4.922  10.229   0.248  0.1742 -0.7836 -0.0435
   28MOL0     C 3649   4.828  10.179   0.344 -0.4740 -0.3372 -0.5381
   28MOL0     C 3650   4.819  10.199   0.479 -0.0141  0.2648 -0.0708
   28MOL0     C 3651   4.715  10.139   0.551  0.3218 -0.1196 -0.8363
   28MOL0     C 3652   4.611  10.058   0.497  0.7036  1.1620  1.1450
   28MOL0     O 3653   4.506   9.993   0.575  0.8809 -0.2557  0.4134
   28MOL0     C 3654   4.407   9.925   0.502  0.0375  0.0547  0.1505
   28MOL0     C 3655   4.304   9.868   0.599  0.1460  0.7335  0.3509
   28MOL0     C 3656   4.172   9.943   0.603 -0.6948  0.5302 -0.4806
   28MOL0     C 3657   4.071   9.884   0.702  0.7823 -1.1147 -0.3252
   28MOL0     C 3658   3.929   9.957   0.710  0.5451  0.2707  0.4804
   28MOL0     C 3659   3.847   9.940   0.839 -0.2213  0.4346 -0.0368
   28MOL0     C 3660   3.718  10.021   0.840  0.0990 -0.9846  0.0379
   28MOL0     C 3661   3.604  10.003   0.731 -0.0945 -0.0670  1.1041
   28MOL0     N 3662   3.490  10.081   0.768  0.2258  0.0362 -0.5023
   28MOL0     C 3663   3.371  10.038   0.829 -0.2172 -0.5835 -0.2775
   28MOL0     C 3664   3.302  10.145   0.843 -0.1770  0.7769  1.0215
   28MOL0     C 3665   3.161  10.143   0.888 -1.0059  0.0103 -0.0243
   28MOL0     C 3666   3.071  10.218   0.796  0.9583 -0.7139 -0.2439
   28MOL0     C 3667   3.056  10.147   0.669  0.4971  0.1037 -0.0121
   28MOL0     C 3668   2.920  10.175   0.592  0.3982  0.1912 -0.1553
   28MOL0     O 3669   2.915  10.322   0.562 -0.4350  0.0664  0.4129
   28MOL0     C 3670   2.795  10.375   0.510 -0.4807  0.2236  0.4348
   28MOL0     C 3671   2.706  10.295   0.433 -0.0388  0.6849  0.0420
   28MOL0     C 3672   2.587  10.345   0.366 -0.8931  0.2719 -0.0449
   28MOL0     C 3673   2.520  10.254   0.277 -0.1843 -0.2361 -0.4328
   28MOL0     C 3674   2.553  10.479   0.395 -0.2819  0.4614 -0.4685
   28MOL0     C 3675   2.429  10.548   0.331 -0.5787 -0.3304 -0.1250
   28MOL0     O 3676   2.398  10.665   0.389 -0.1110  0.5619  0.0102
   28MOL0     C 3677   2.274  10.719   0.361 -0.5324 -0.1784 -0.1171
   28MOL0     C 3678   2.160  10.701   0.446 -0.1276 -1.0426  0.5455
   28MOL0     C 3679   2.045  10.763   0.398  0.7015  0.7380  0.2066
   28MOL0     C 3680   2.042  10.844   0.279 -0.3039 -0.0280 -0.2738
   28MOL0     O 3681   1.927  10.911   0.244  0.2172 -0.2318  0.1365
   28MOL0     C 3682   1.835  10.954   0.343  0.2543  0.5809  0.8184
   28MOL0     C 3683   1.698  11.002   0.297  0.5909 -0.4969  0.4819
   28MOL0     C 3684   1.706  11.121   0.201  0.0191 -0.6876 -0.5290
   28MOL0     C 3685   1.563  11.166   0.170  0.5964  0.1050  0.0352
   28MOL0     C 3686   1.572  11.271   0.057 -0.0097 -0.0680 -0.2218
   28MOL0     C 3687   1.426  11.309   0.007  1.5304 -0.5873  0.5476
   28MOL0     C 3688   1.435  11.419  -0.102 -0.0098  0.5193  0.1354
   28MOL0     C 3689   1.404  11.350  -0.242  0.9982 -0.0255 -0.2858
   28MOL0    Cl 3690   1.522  11.234  -0.299  0.3020  0.0375 -0.3327
   28MOL0     C 3691   2.156  10.872   0.212  0.6618 -0.1553 -0.2498
   28MOL0     C 3692   2.271  10.798   0.240 -0.5425  0.8090  0.3808
   28MOL0     O 3693   2.370  10.498   0.242 -0.5183  0.3262  0.0916
   28MOL0     C 3694   2.639  10.555   0.473  0.7516 -0.7075 -0.4341
   28MOL0     C 3695   2.756  10.508   0.524 -0.2970 -0.3379 -0.3576
   28MOL0     N 3696   3.367  10.257   0.791  0.3564  0.5154 -0.6541
   28MOL0     N 3697   3.481  10.219   0.736 -0.5102  0.5268  1.0077
   28MOL0     C 3698   4.630  10.034   0.357 -0.5859  0.4210  1.2867
   28MOL0     C 3699   4.739  10.082   0.283  0.3557 -0.2091  0.3718
   28MOL0     C 3700   5.123  10.344   0.187  0.7293 -0.5620 -0.0268
   28MOL0     C 3701   5.251  10.348   0.248 -0.3918  0.3697 -0.4954
   28MOL0     C 3702   5.373  10.336   0.177 -0.0045 -1.0743  0.8539
   28MOL0     C 3703   5.374  10.310   0.041  0.2204  0.8185  0.0112
   28MOL0     O 3704   5.474  10.293  -0.046  0.0681  0.3007  0.9926
   28MOL0     C 3705   5.594  10.339   0.006 -0.1418  0.6846  0.5933
   28MOL0     C 3706   5.665  10.387  -0.124 -0.2341  0.2449 -0.0116
   28MOL0     C 3707   5.811  10.409  -0.089 -0.4357  0.1167 -0.3380
   28MOL0     C 3708   5.904  10.441  -0.212  0.7290 -0.7236 -0.1333
   28MOL0     C 3709   5.851  10.573  -0.258 -0.2020  0.1439  0.0182
   28MOL0     C 3710   5.810  10.682  -0.278  0.2336  0.3259  0.3711
   28MOL0     C 3711   5.245  10.308  -0.016  0.1449 -0.3546 -0.5982
   28MOL0     C 3712   5.121  10.326   0.048 -0.0326  0.1940  0.4748
   28MOL0     H 3713   4.891  10.263   0.529 -0.6171  0.0913  1.0554
   28MOL0     H 3714   4.705  10.148   0.658 -2.3937 -0.7794 -0.9648
   28MOL0     H 3715   4.359   9.993   0.432 -0.1913 -0.5883 -0.3332
   28MOL0     H 3716   4.454   9.845   0.444  1.4070  1.8865 -1.3995
   28MOL0     H 3717   4.278   9.769   0.561  2.0568 -0.5716  2.2361
   28MOL0     H 3718   4.351   9.849   0.695 -2.0185  2.8213  1.9404
   28MOL0     H 3719   4.197  10.045   0.636  0.9377 -0.4659  1.6574
   28MOL0     H 3720   4.128   9.955   0.504 -1.6009 -2.6953 -0.5578
   28MOL0     H 3721   4.056   9.778   0.680 -0.9590 -0.8502 -0.5960
   28MOL0     H 3722   4.123   9.890   0.798  0.5977  0.1898 -0.2854
   28MOL0     H 3723   3.960  10.061   0.699  0.7028  0.4459  2.3261
   28MOL0     H 3724   3.865   9.921   0.629 -0.6524  0.1158  1.4670
   28MOL0     H 3725   3.820   9.835   0.850  1.9081 -0.0011  1.4655
   28MOL0     H 3726   3.913   9.981   0.916  0.5482  2.4140 -1.6436
   28MOL0     H 3727   3.665  10.003   0.934  0.4929 -1.1465  0.2294
   28MOL0     H 3728   3.754  10.125   0.846  1.6577 -1.5731  2.0303
   28MOL0     H 3729   3.577   9.897   0.723 -0.8051  0.1527  0.5707
   28MOL0     H 3730   3.628  10.044   0.632 -4.2868  1.2421  0.4636
   28MOL0     H 3731   3.346   9.939   0.866 -3.9121 -0.1321 -1.1811
   28MOL0     H 3732   3.129  10.039   0.897  0.1318 -0.2840  0.8393
   28MOL0     H 3733   3.149  10.199   0.982  0.7566  1.9018 -0.8569
   28MOL0     H 3734   3.104  10.319   0.772 -0.6765 -0.4686 -1.5758
   28MOL0     H 3735   2.976  10.211   0.850  0.1412  0.0647 -1.5318
   28MOL0     H 3736   3.049  10.040   0.694 -2.1991 -0.2726 -1.9558
   28MOL0     H 3737   3.139  10.163   0.600  1.4824 -3.3811  0.1819
   28MOL0     H 3738   2.833  10.141   0.648 -0.4769  2.7106  0.1277
   28MOL0     H 3739   2.929  10.121   0.497  0.3393  1.9506 -1.2013
   28MOL0     H 3740   2.742  10.196   0.406  0.3109  0.8396 -0.0695
   28MOL0     H 3741   2.413  10.272   0.292  0.1849  3.2461 -1.2528
   28MOL0     H 3742   2.539  10.270   0.171  0.0141 -0.8485 -0.4957
   28MOL0     H 3743   2.542  10.148   0.294  0.4802  0.0516  0.6436
   28MOL0     H 3744   2.170  10.648   0.540  1.2078  3.1440  3.0332
   28MOL0     H 3745   1.961  10.744   0.465  2.1362 -3.1691  1.1192
   28MOL0     H 3746   1.807  10.871   0.409 -2.6235  0.7532 -0.0528
   28MOL0     H 3747   1.892  11.035   0.390 -0.2493  1.4865 -0.0913
   28MOL0     H 3748   1.662  10.917   0.239 -0.1434  0.2320 -0.1729
   28MOL0     H 3749   1.631  11.020   0.381  2.2865  2.1108  1.4219
   28MOL0     H 3750   1.765  11.102   0.111  3.9611  2.0207  1.2392
   28MOL0     H 3751   1.752  11.210   0.244  2.6210 -2.1028 -0.1987
   28MOL0     H 3752   1.500  11.084   0.134 -0.3639  1.5229 -1.6784
   28MOL0     H 3753   1.514  11.209   0.258 -0.7596  0.8529 -1.0395
   28MOL0     H 3754   1.638  11.230  -0.021  1.5326  0.3830  0.7911
   28MOL0     H 3755   1.623  11.355   0.105  3.9218 -2.2911 -0.0276
   28MOL0     H 3756   1.370  11.225  -0.034 -0.4376  0.9709 -0.1119
   28MOL0     H 3757   1.370  11.342   0.095  1.5509  0.3671  0.2161
   28MOL0     H 3758   1.534  11.464  -0.108  0.1456  0.0039 -3.1889
   28MOL0     H 3759   1.373  11.504  -0.074  0.3382  0.4957  1.0215
   28MOL0     H 3760   1.399  11.427  -0.319 -0.2123 -0.1348 -0.3274
   28MOL0     H 3761   1.309  11.295  -0.239 -1.0956  3.2750  3.4830
   28MOL0     H 3762   2.160  10.934   0.123 -0.1739  0.3991  0.0906
   28MOL0     H 3763   2.358  10.811   0.176  0.2991 -0.2164  1.2865
   28MOL0     H 3764   2.614  10.657   0.498 -0.7427 -0.8571 -1.2476
   28MOL0     H 3765   2.815  10.581   0.577  3.1628 -2.3573 -1.0847
   28MOL0     H 3766   4.573   9.959   0.304  0.6200  0.6348 -0.3639
   28MOL0     H 3767   4.753  10.051   0.179 -0.8718 -3.3174  1.0406
   28MOL0     H 3768   5.253  10.383   0.350  0.7561  0.8328 -0.6702
   28MOL0     H 3769   5.464  10.356   0.233  1.6450 -1.2335 -1.6253
   28MOL0     H 3770   5.581  10.417   0.081 -1.7201 -1.7181  3.0429
   28MOL0     H 3771   5.633  10.247   0.052 -0.5339  0.8136  1.2030
   28MOL0     H 3772   5.604  10.475  -0.145  0.4140  0.2964 -1.8485
   28MOL0     H 3773   5.657  10.307  -0.198  0.5646  1.0444 -0.9764
   28MOL0     H 3774   5.859  10.319  -0.049  0.8253  0.7872 -0.2942
   28MOL0     H 3775   5.826  10.477  -0.005 -1.7969 -1.3190  1.1393
   28MOL0     H 3776   5.902  10.367  -0.293  0.7191 -2.1621  1.1436
   28MOL0     H 3777   6.008  10.456  -0.182  0.8240  2.2693 -1.6179
   28MOL0     H 3778   5.775  10.780  -0.302  0.8069  0.5546  0.4516
   28MOL0     H 3779   5.243  10.294  -0.123  2.3994  2.7289 -1.1750
   28MOL0     H 3780   5.028  10.337  -0.006  0.2134  0.1680  0.0452
   29MOL0     O 3781   1.401   5.096   6.983 -0.1277 -0.3569 -0.4370
   29MOL0     C 3782   1.449   4.987   6.958 -0.6396  0.5953  0.5369
   29MOL0     O 3783   1.380   4.868   6.947 -0.4383  0.2133 -0.0375
   29MOL0     C 3784   1.259   4.867   7.011 -0.0359  0.1044  1.1553
   29MOL0     C 3785   1.153   4.944   6.958 -0.9565  0.1467 -0.1166
   29MOL0     C 3786   1.033   4.944   7.021  0.4029 -0.3811 -0.0939
   29MOL0     C 3787   1.012   4.878   7.141 -0.7993 -0.7651  0.4396
   29MOL0     O 3788   0.886   4.873   7.195 -0.1251 -0.4321 -0.4682
   29MOL0     C 3789   0.870   4.814   7.318 -0.3281  0.2413  0.7081
   29MOL0     C 3790   0.730   4.844   7.357  0.3387  0.7706 -0.1708
   29MOL0     C 3791   0.711   4.819   7.506  0.1512  0.1409  0.1758
   29MOL0     C 3792   0.561   4.831   7.537 -0.0770  0.3508  0.1547
   29MOL0     C 3793   0.519   4.767   7.672  0.0979  0.0923 -0.4065
   29MOL0     C 3794   0.372   4.767   7.694 -0.0226  0.3329  0.1096
   29MOL0     C 3795   0.340   4.759   7.842  0.6402 -0.7057  0.3088
   29MOL0     C 3796   0.352   4.618   7.894  0.1553  0.5397  0.5170
   29MOL0     N 3797   0.442   4.593   8.008 -0.2422 -0.1148 -0.7489
   29MOL0     C 3798   0.576   4.613   7.999 -0.5092 -0.1877  0.2906
   29MOL0     C 3799   0.622   4.558   8.114  0.4179 -0.1109  0.0644
   29MOL0     C 3800   0.763   4.556   8.167 -0.0251 -0.4525  1.0201
   29MOL0     C 3801   0.785   4.430   8.245  1.0643  0.1902  0.4162
   29MOL0     C 3802   0.766   4.303   8.147 -0.7007 -0.6462 -0.5580
   29MOL0     C 3803   0.851   4.185   8.183 -0.6140 -0.2965 -0.3513
   29MOL0     O 3804   0.993   4.219   8.179  0.4436  0.1046  0.1784
   29MOL0     C 3805   1.086   4.117   8.203  1.5402 -1.5592 -0.5875
   29MOL0     C 3806   1.219   4.145   8.178 -0.0217 -0.9183 -0.2076
   29MOL0     C 3807   1.312   4.038   8.184 -0.7666 -0.2114  0.6440
   29MOL0     C 3808   1.451   4.077   8.139 -0.2488  0.6627  0.3333
   29MOL0     C 3809   1.276   3.911   8.213  0.4199  0.5198 -0.2815
   29MOL0     C 3810   1.363   3.788   8.229  0.2889  0.5704  0.0771
   29MOL0     O 3811   1.309   3.667   8.268  0.3781 -0.6004  0.9732
   29MOL0     C 3812   1.375   3.550   8.276  0.7433  0.8084  0.3437
   29MOL0     C 3813   1.301   3.441   8.216  0.3462  1.0848  0.0581
   29MOL0     C 3814   1.356   3.312   8.225  0.7841  0.4181 -0.5012
   29MOL0     C 3815   1.466   3.286   8.307  0.1317 -0.6630  0.1270
   29MOL0     O 3816   1.497   3.156   8.325  0.3154 -0.0208  0.4300
   29MOL0     C 3817   1.558   3.119   8.446 -0.4558  0.0656  0.0989
   29MOL0     C 3818   1.558   2.971   8.448 -1.2345 -0.0648 -0.5956
   29MOL0     C 3819   1.646   2.914   8.552 -0.1080  0.1916  0.1772
   29MOL0     C 3820   1.796   2.902   8.520 -0.0916 -0.5560 -0.4148
   29MOL0     C 3821   1.847   2.759   8.487  0.3623  0.2466  0.0065
   29MOL0     C 3822   1.813   2.714   8.347 -0.3622 -0.0883 -0.8628
   29MOL0     C 3823   1.899   2.591   8.306  0.3329  0.1471 -0.2747
   29MOL0     C 3824   1.874   2.460   8.398 -0.1412 -0.0395  0.5865
   29MOL0    Cl 3825   1.702   2.428   8.411  0.1611 -0.0510  0.2489
   29MOL0     C 3826   1.531   3.388   8.373  0.3286  0.0276 -0.1646
   29MOL0     C 3827   1.487   3.516   8.349 -1.0406  0.1275 -0.0316
   29MOL0     O 3828   1.479   3.799   8.194 -0.4149  0.0204  0.4925
   29MOL0     C 3829   1.138   3.886   8.242 -0.4872 -0.6143 -0.5814
   29MOL0     C 3830   1.048   3.994   8.249 -0.3103  0.3265 -0.4903
   29MOL0     N 3831   0.509   4.510   8.192  0.2227  0.0863 -0.4321
   29MOL0     N 3832   0.402   4.549   8.131 -0.0761 -0.2224 -0.4574
   29MOL0     C 3833   1.122   4.808   7.202  0.5578 -0.7519 -0.1054
   29MOL0     C 3834   1.245   4.808   7.135  0.0010 -0.2122  0.2778
   29MOL0     C 3835   1.589   4.975   6.920 -0.3418  0.8067 -0.0697
   29MOL0     C 3836   1.655   5.092   6.871  1.2295 -0.7592  0.2305
   29MOL0     C 3837   1.790   5.089   6.847 -0.1147  0.1972  1.2972
   29MOL0     C 3838   1.867   4.973   6.849  0.7614  0.1355 -0.4507
   29MOL0     O 3839   1.998   4.979   6.818  0.1663  0.3309  0.3326
   29MOL0     C 3840   2.035   4.919   6.691 -0.7047 -0.6029 -0.0493
   29MOL0     C 3841   2.178   4.953   6.668 -0.8225 -0.4164  0.2527
   29MOL0     C 3842   2.231   4.916   6.529 -0.6298  0.0599  0.3181
   29MOL0     C 3843   2.382   4.937   6.504  0.2042  0.0922 -0.3121
   29MOL0     C 3844   2.422   4.865   6.384 -0.2411  0.0655 -0.4841
   29MOL0     C 3845   2.462   4.806   6.285  0.2670 -0.1819  0.0074
   29MOL0     C 3846   1.804   4.854   6.883  0.0475  0.3108 -0.1878
   29MOL0     C 3847   1.666   4.857   6.924 -1.1890 -0.0349 -0.4214
   29MOL0     H 3848   1.163   4.981   6.856 -2.0731 -0.7265 -0.5671
   29MOL0     H 3849   0.946   4.996   6.982  1.0621  0.6351 -0.2514
   29MOL0     H 3850   0.893   4.707   7.313  0.1210  0.3648 -0.0687
   29MOL0     H 3851   0.936   4.872   7.383 -0.8431  0.1619  1.3010
   29MOL0     H 3852   0.707   4.948   7.333 -0.4701  0.9741  1.3116
   29MOL0     H 3853   0.668   4.777   7.296 -0.7219  0.2701  1.3765
   29MOL0     H 3854   0.737   4.715   7.526 -3.4541 -1.0143 -0.3198
   29MOL0     H 3855   0.777   4.885   7.563  3.0146 -2.0104 -0.4234
   29MOL0     H 3856   0.542   4.939   7.543  3.0446  0.9417  1.3833
   29MOL0     H 3857   0.502   4.793   7.454 -1.7297  1.1771  0.8990
   29MOL0     H 3858   0.557   4.665   7.678 -0.2570  0.0388  1.8056
   29MOL0     H 3859   0.571   4.821   7.752  0.8342  1.4541 -1.7320
   29MOL0     H 3860   0.325   4.855   7.649  1.2348  0.0499 -1.8729
   29MOL0     H 3861   0.326   4.688   7.634 -0.7067  3.8819 -4.5398
   29MOL0     H 3862   0.395   4.830   7.905  1.9539  0.7551 -2.3034
   29MOL0     H 3863   0.235   4.788   7.844  0.1795 -2.1666 -0.9364
   29MOL0     H 3864   0.388   4.549   7.817 -0.4424 -0.8694  1.4761
   29MOL0     H 3865   0.247   4.589   7.909  0.4491 -2.2210 -1.7991
   29MOL0     H 3866   0.638   4.649   7.917 -1.7095  1.1267 -0.0741
   29MOL0     H 3867   0.839   4.569   8.089 -0.2321  1.6535  1.0883
   29MOL0     H 3868   0.787   4.643   8.230  2.5074  0.3060 -0.7774
   29MOL0     H 3869   0.713   4.420   8.327  0.4118  1.7513  0.0657
   29MOL0     H 3870   0.884   4.434   8.292  1.5213 -1.9773 -0.2540
   29MOL0     H 3871   0.788   4.336   8.045 -2.2406  0.3088 -0.6049
   29MOL0     H 3872   0.661   4.277   8.163 -0.7005  0.6000  1.7713
   29MOL0     H 3873   0.834   4.106   8.110  1.2466  1.3007 -2.6900
   29MOL0     H 3874   0.825   4.156   8.285 -0.1592  2.1488  0.5447
   29MOL0     H 3875   1.252   4.242   8.142  1.0291 -0.9196  0.6823
   29MOL0     H 3876   1.509   4.056   8.229  0.8510  0.8737 -0.3070
   29MOL0     H 3877   1.488   4.015   8.057 -0.8353  0.2810  0.3503
   29MOL0     H 3878   1.464   4.180   8.105  1.4950 -0.1969 -1.8444
   29MOL0     H 3879   1.210   3.474   8.167 -2.4771  0.2805  4.2369
   29MOL0     H 3880   1.291   3.231   8.194 -1.2284  1.4057  0.8812
   29MOL0     H 3881   1.662   3.152   8.438 -1.0235  1.6062 -1.5496
   29MOL0     H 3882   1.514   3.154   8.540  2.1051 -2.8377  2.6354
   29MOL0     H 3883   1.461   2.937   8.485 -0.1856 -1.5551  0.9312
   29MOL0     H 3884   1.583   2.922   8.353 -3.4748 -0.2271 -1.1613
   29MOL0     H 3885   1.601   2.824   8.594 -0.1270 -0.2300 -0.7298
   29MOL0     H 3886   1.642   2.976   8.642  1.4666  2.3706 -1.1400
   29MOL0     H 3887   1.820   2.967   8.436  1.2399  0.2420  0.5292
   29MOL0     H 3888   1.862   2.922   8.606  2.3067 -1.9225 -1.8247
   29MOL0     H 3889   1.823   2.692   8.570 -0.3980  0.3999 -0.0862
   29MOL0     H 3890   1.956   2.767   8.487  0.5745 -0.8938  3.5814
   29MOL0     H 3891   1.706   2.696   8.350 -0.2348 -1.0759 -1.5595
   29MOL0     H 3892   1.834   2.799   8.281 -2.4436  1.7277  0.6946
   29MOL0     H 3893   2.004   2.619   8.293  0.8742 -1.2092  0.9524
   29MOL0     H 3894   1.869   2.562   8.204 -1.9389  0.5668  0.2121
   29MOL0     H 3895   1.917   2.472   8.497  0.0498 -0.2798  0.5322
   29MOL0     H 3896   1.925   2.375   8.352  0.1755  0.3611  0.1744
   29MOL0     H 3897   1.619   3.389   8.436  1.5967 -1.2889 -1.8170
   29MOL0     H 3898   1.528   3.601   8.402 -0.0500  0.9955 -2.0506
   29MOL0     H 3899   1.099   3.789   8.272 -0.3404 -1.1971 -2.1590
   29MOL0     H 3900   0.947   3.976   8.285  0.5476  1.9407  3.2941
   29MOL0     H 3901   1.123   4.737   7.284  1.8552 -1.4390 -0.6797
   29MOL0     H 3902   1.329   4.745   7.163  0.9523  1.3183  0.9955
   29MOL0     H 3903   1.593   5.181   6.874  0.8360 -1.0534  2.4140
   29MOL0     H 3904   1.832   5.178   6.803 -1.2541 -0.1485 -0.5721
   29MOL0     H 3905   2.008   4.813   6.689 -0.5664 -0.6270 -1.9881
   29MOL0     H 3906   1.984   4.965   6.607  1.1054 -1.5885 -1.7635
   29MOL0     H 3907   2.233   4.906   6.750 -1.2862 -1.5349 -0.0634
   29MOL0     H 3908   2.190   5.062   6.666  1.2071 -0.5804 -1.9447
   29MOL0     H 3909   2.178   4.967   6.448 -2.6548 -2.1202  0.1671
   29MOL0     H 3910   2.201   4.811   6.518 -0.0769 -0.0195 -0.5168
   29MOL0     H 3911   2.445   4.905   6.587  0.8101 -0.5045 -0.9887
   29MOL0     H 3912   2.393   5.044   6.484  2.2896  0.6550  3.0926
   29MOL0     H 3913   2.491   4.764   6.191  0.2950  4.1916 -2.1913
   29MOL0     H 3914   1.867   4.766   6.884 -0.3159  0.0035 -1.9277
   29MOL0     H 3915   1.626   4.767   6.969  0.4256  0.2444  1.7427
   30MOL0     O 3916  10.251   1.684   8.512 -0.7361 -0.0518 -0.0979
   30MOL0     C 3917  10.272   1.748   8.613 -0.0611  0.1484  0.1017
   30MOL0     O 3918  10.173   1.799   8.688  0.1314 -0.0475  0.1016
   30MOL0     C 3919  10.044   1.779   8.657 -0.3226  0.5918 -0.2784
   30MOL0     C 3920   9.972   1.883   8.599  0.3651  0.4933  0.6663
   30MOL0     C 3921   9.847   1.857   8.554 -0.2089  0.0648  0.7163
   30MOL0     C 3922   9.782   1.733   8.582 -0.5077  0.0985  0.9050
   30MOL0     O 3923   9.649   1.705   8.562  0.1582  0.0242  0.3259
   30MOL0     C 3924   9.619   1.608   8.463  0.0839 -0.5397  0.5260
   30MOL0     C 3925   9.477   1.639   8.406 -1.0211  0.5163 -0.5156
   30MOL0     C 3926   9.476   1.775   8.340 -0.0471 -0.5568 -0.1571
   30MOL0     C 3927   9.343   1.822   8.301 -0.6887 -0.3552  0.0161
   30MOL0     C 3928   9.320   1.875   8.156  0.0620 -0.1979 -0.3294
   30MOL0     C 3929   9.182   1.923   8.119  0.3347  0.6522 -0.0457
   30MOL0     C 3930   9.077   1.813   8.151  0.1642  0.3272 -0.2632
   30MOL0     C 3931   9.066   1.724   8.025  1.0417  0.2294 -0.2814
   30MOL0     N 3932   8.947   1.639   8.036  0.0887 -0.2161 -0.8833
   30MOL0     C 3933   8.821   1.693   8.048 -0.2604 -0.1234  0.3683
   30MOL0     C 3934   8.744   1.589   8.080 -0.6116  0.6329  1.4729
   30MOL0     C 3935   8.602   1.612   8.112 -0.6960  0.3191  0.4009
   30MOL0     C 3936   8.513   1.507   8.070  0.1979 -0.3348  0.2560
   30MOL0     C 3937   8.362   1.549   8.066 -0.8167 -0.2402 -0.7725
   30MOL0     C 3938   8.274   1.426   8.073  0.3532  0.1026  0.3993
   30MOL0     O 3939   8.142   1.479   8.064 -0.1322  0.3616  0.2849
   30MOL0     C 3940   8.033   1.393   8.080 -0.0881 -0.0295 -0.2509
   30MOL0     C 3941   8.054   1.263   8.117  0.0685 -0.9913  0.4676
   30MOL0     C 3942   7.938   1.177   8.139 -0.9590 -0.5174 -0.3409
   30MOL0     C 3943   7.969   1.050   8.196 -0.5706  0.6559 -0.5613
   30MOL0     C 3944   7.803   1.232   8.130 -0.4450 -0.1058  0.6685
   30MOL0     C 3945   7.681   1.171   8.177 -0.2220  0.2982  0.3282
   30MOL0     O 3946   7.683   1.050   8.238  0.1274  1.0731 -0.6991
   30MOL0     C 3947   7.564   1.002   8.289 -0.8343 -0.6373 -0.2034
   30MOL0     C 3948   7.512   1.039   8.413  0.1220  0.2390 -0.1138
   30MOL0     C 3949   7.392   0.983   8.458 -0.1108 -0.5502  0.4205
   30MOL0     C 3950   7.330   0.891   8.383  1.0446  0.2897  0.5360
   30MOL0     O 3951   7.214   0.821   8.419 -0.5464 -0.5324  0.0900
   30MOL0     C 3952   7.130   0.868   8.523 -0.0580 -0.2294  0.5144
   30MOL0     C 3953   7.056   0.745   8.580  0.6640  0.7229 -0.2863
   30MOL0     C 3954   7.149   0.637   8.643  1.0731 -0.6414 -0.1425
   30MOL0     C 3955   7.062   0.529   8.725 -0.5850 -0.1534  0.9192
   30MOL0     C 3956   7.155   0.399   8.736  0.4233  0.0504  0.0983
   30MOL0     C 3957   7.268   0.415   8.834  0.1261  1.0235 -0.0779
   30MOL0     C 3958   7.301   0.270   8.884  1.3090 -0.7169  0.2528
   30MOL0     C 3959   7.426   0.277   8.986 -0.4358  0.5449 -0.4467
   30MOL0    Cl 3960   7.485   0.117   9.045 -0.6685  0.0579  0.0589
   30MOL0     C 3961   7.386   0.847   8.263  0.4354  1.3332 -0.2116
   30MOL0     C 3962   7.502   0.899   8.218 -0.4903 -0.3853 -0.2524
   30MOL0     O 3963   7.583   1.245   8.175 -0.1747 -0.2417  0.8492
   30MOL0     C 3964   7.798   1.357   8.068  0.1885 -0.1504 -1.3356
   30MOL0     C 3965   7.909   1.436   8.056 -0.1952  0.6609  0.0996
   30MOL0     N 3966   8.818   1.469   8.090 -0.7962 -0.1869 -0.0545
   30MOL0     N 3967   8.938   1.514   8.079 -0.7617 -0.2634  0.2559
   30MOL0     C 3968   9.859   1.625   8.639 -0.4814  0.2507  0.6272
   30MOL0     C 3969   9.984   1.653   8.685 -0.1909  0.1860  0.2205
   30MOL0     C 3970  10.407   1.785   8.651  0.9533 -0.4397  0.1939
   30MOL0     C 3971  10.512   1.754   8.570 -0.2812 -0.7459 -0.8693
   30MOL0     C 3972  10.645   1.782   8.610  0.6715 -1.2982  0.3581
   30MOL0     C 3973  10.673   1.836   8.740  0.6593 -0.2166 -0.1777
   30MOL0     O 3974  10.803   1.869   8.778  0.3179  0.5019 -0.2371
   30MOL0     C 3975  10.915   1.825   8.701  0.2135 -0.2090 -0.2710
   30MOL0     C 3976  11.044   1.882   8.754 -0.0197 -0.6142  0.1574
   30MOL0     C 3977  11.068   2.034   8.715 -0.0477 -0.2315 -0.5366
   30MOL0     C 3978  11.184   2.103   8.773 -0.0750  0.4860  0.7057
   30MOL0     C 3979  11.179   2.247   8.783  0.3838 -0.0823  0.1682
   30MOL0     C 3980  11.182   2.373   8.800 -0.0825 -0.1998 -0.5814
   30MOL0     C 3981  10.562   1.869   8.824 -0.3097  0.4300 -0.1725
   30MOL0     C 3982  10.429   1.841   8.778 -1.0689 -0.1099  0.1466
   30MOL0     H 3983  10.008   1.984   8.584 -0.7049  0.8212  0.2100
   30MOL0     H 3984   9.777   1.930   8.516 -0.8960  0.9459  3.4815
   30MOL0     H 3985   9.687   1.598   8.378  0.4919  1.0544  0.6469
   30MOL0     H 3986   9.613   1.516   8.522  2.0885 -0.1015  1.5099
   30MOL0     H 3987   9.448   1.560   8.337 -1.3684  1.1134 -1.0626
   30MOL0     H 3988   9.399   1.644   8.483 -1.3240 -1.6205 -0.6281
   30MOL0     H 3989   9.512   1.855   8.405 -2.2649  1.1872 -0.9697
   30MOL0     H 3990   9.542   1.783   8.253  0.8063 -0.8816  0.4431
   30MOL0     H 3991   9.279   1.734   8.313  0.1927 -1.0685 -0.3758
   30MOL0     H 3992   9.309   1.904   8.365  0.0778 -0.5880  0.7321
   30MOL0     H 3993   9.386   1.963   8.152 -0.1568 -0.0273 -0.2400
   30MOL0     H 3994   9.357   1.799   8.087  1.2816  1.3260 -1.4552
   30MOL0     H 3995   9.166   2.015   8.175  2.9358  0.1128  1.7898
   30MOL0     H 3996   9.190   1.954   8.014  2.3263  1.5706  0.3394
   30MOL0     H 3997   9.075   1.753   8.242 -2.4447  0.0848 -0.3922
   30MOL0     H 3998   8.989   1.874   8.173  1.6665  2.1879  0.9563
   30MOL0     H 3999   9.153   1.658   8.019  0.0443 -1.1114 -0.4436
   30MOL0     H 4000   9.062   1.783   7.934  0.0805  0.0674 -0.3556
   30MOL0     H 4001   8.791   1.797   8.040  2.7872  0.7862 -0.6901
   30MOL0     H 4002   8.600   1.626   8.221  3.7142  0.9342  0.5858
   30MOL0     H 4003   8.581   1.713   8.077 -1.9847 -0.4857 -1.2656
   30MOL0     H 4004   8.522   1.422   8.139  1.2686  0.3394  0.9729
   30MOL0     H 4005   8.535   1.469   7.969  1.4138 -2.4197  1.2167
   30MOL0     H 4006   8.336   1.609   7.978 -0.6006  2.0079  0.6204
   30MOL0     H 4007   8.348   1.616   8.152  1.2710  0.9947 -1.3367
   30MOL0     H 4008   8.298   1.387   8.172  1.1542 -0.2789  0.0598
   30MOL0     H 4009   8.291   1.358   7.989  4.5953  2.1864 -0.7082
   30MOL0     H 4010   8.154   1.220   8.125 -0.2937 -2.4171 -1.6965
   30MOL0     H 4011   7.936   1.034   8.299  2.0921  3.2641  0.8541
   30MOL0     H 4012   7.931   0.975   8.125  0.8103  0.7694 -1.4644
   30MOL0     H 4013   8.076   1.030   8.196 -0.8387 -0.8845 -0.7105
   30MOL0     H 4014   7.567   1.113   8.471  2.4233 -2.1287  0.9660
   30MOL0     H 4015   7.348   1.023   8.549 -5.1103  2.3841 -2.7921
   30MOL0     H 4016   7.183   0.922   8.602 -0.8063 -0.7647  1.4015
   30MOL0     H 4017   7.062   0.932   8.466  1.1850  0.4142 -0.2845
   30MOL0     H 4018   6.984   0.766   8.660 -0.8115 -1.3009 -1.0047
   30MOL0     H 4019   6.990   0.711   8.500 -2.2898  1.9255  1.4750
   30MOL0     H 4020   7.221   0.681   8.713 -0.5370  0.0814  1.1323
   30MOL0     H 4021   7.219   0.588   8.575  1.8552 -0.2866  0.3834
   30MOL0     H 4022   7.041   0.576   8.822 -2.6723  4.1603 -1.3147
   30MOL0     H 4023   6.973   0.504   8.667 -0.5004  2.3389 -0.4334
   30MOL0     H 4024   7.195   0.375   8.637 -2.2774 -2.4871 -0.5428
   30MOL0     H 4025   7.086   0.317   8.757 -0.5409  0.5987 -0.7815
   30MOL0     H 4026   7.354   0.457   8.782  2.7604 -3.0159  0.5732
   30MOL0     H 4027   7.249   0.479   8.921  0.5060  0.8995  0.0961
   30MOL0     H 4028   7.317   0.207   8.796  1.8900  0.4157 -0.4891
   30MOL0     H 4029   7.218   0.229   8.941 -0.0154  3.0388  1.3100
   30MOL0     H 4030   7.395   0.339   9.071 -0.1129 -0.4827  0.4419
   30MOL0     H 4031   7.507   0.323   8.929  1.7999 -3.9284 -1.3755
   30MOL0     H 4032   7.326   0.783   8.200  1.3717  1.1050 -0.9064
   30MOL0     H 4033   7.547   0.860   8.127 -1.7691 -1.6627 -0.3818
   30MOL0     H 4034   7.700   1.382   8.028  0.5933 -1.7927 -3.6011
   30MOL0     H 4035   7.883   1.538   8.029  1.9476  0.6618 -2.3756
   30MOL0     H 4036   9.812   1.530   8.662 -1.8262  1.1788  1.8121
   30MOL0     H 4037  10.054   1.580   8.724  1.6243  0.8596 -1.6530
   30MOL0     H 4038  10.490   1.721   8.469  1.3524 -1.3316 -1.0659
   30MOL0     H 4039  10.717   1.769   8.531  0.2361  0.2974 -0.3250
   30MOL0     H 4040  10.914   1.716   8.695 -1.0492 -0.3112  1.1992
   30MOL0     H 4041  10.909   1.853   8.595 -1.1002 -1.5122 -0.5722
   30MOL0     H 4042  11.129   1.831   8.706  1.3381  1.3075  0.3998
   30MOL0     H 4043  11.048   1.866   8.862  1.4723  1.4843  0.4753
   30MOL0     H 4044  10.981   2.094   8.743 -0.0901 -0.7455  0.4865
   30MOL0     H 4045  11.072   2.032   8.606 -2.7700  1.6656 -0.7717
   30MOL0     H 4046  11.281   2.073   8.733  0.3704  1.6895  0.8532
   30MOL0     H 4047  11.197   2.081   8.880  5.1811  1.7215  0.5930
   30MOL0     H 4048  11.189   2.479   8.815 -0.2074 -0.3838  0.8613
   30MOL0     H 4049  10.579   1.918   8.919 -0.9137  1.7837 -0.7339
   30MOL0     H 4050  10.355   1.865   8.853 -0.3863 -0.4179  0.9292
   31MOL0     O 4051   1.555   6.874   0.732  0.1511  0.4349  0.0008
   31MOL0     C 4052   1.630   6.964   0.712  0.5371 -0.6111  0.1038
   31MOL0     O 4053   1.583   7.077   0.663  0.3761  0.0905  0.1644
   31MOL0     C 4054   1.457   7.130   0.656 -0.2947 -0.4359 -1.1507
   31MOL0     C 4055   1.445   7.256   0.596  0.7376 -0.5955 -0.6996
   31MOL0     C 4056   1.318   7.320   0.596  0.6495  0.4122  0.1602
   31MOL0     C 4057   1.202   7.277   0.650 -0.3867 -0.1814 -0.6679
   31MOL0     O 4058   1.098   7.365   0.644 -0.0608  0.0550 -0.0617
   31MOL0     C 4059   1.018   7.361   0.756 -0.1020  0.4233 -0.1142
   31MOL0     C 4060   0.945   7.498   0.769 -1.2198 -0.4948 -0.0035
   31MOL0     C 4061   0.856   7.536   0.663  0.0520 -0.2223  0.5156
   31MOL0     C 4062   0.764   7.429   0.611  0.0472  1.1824  0.0906
   31MOL0     C 4063   0.646   7.493   0.542 -0.2135 -0.4303 -0.0162
   31MOL0     C 4064   0.574   7.417   0.424 -0.7725  0.7128  0.1228
   31MOL0     C 4065   0.474   7.509   0.366  0.3543 -0.5650  0.2052
   31MOL0     C 4066   0.420   7.457   0.234 -0.6034  0.0370 -0.1467
   31MOL0     N 4067   0.318   7.539   0.173  0.2916 -0.7361 -0.0962
   31MOL0     C 4068   0.326   7.675   0.134  0.4646  0.3052 -0.3957
   31MOL0     C 4069   0.207   7.711   0.076  0.2513 -0.3573 -0.1665
   31MOL0     C 4070   0.174   7.845   0.012 -0.4435  0.1652 -0.0747
   31MOL0     C 4071   0.027   7.883   0.007  0.0172 -0.7617 -0.2264
   31MOL0     C 4072  -0.048   7.891   0.139  0.2512 -0.3725 -0.0564
   31MOL0     C 4073  -0.066   8.029   0.200 -0.1783  0.2323  0.4034
   31MOL0     O 4074  -0.131   8.120   0.113 -0.1492 -0.7032  1.0158
   31MOL0     C 4075  -0.263   8.119   0.127  0.5759 -0.4787 -0.5599
   31MOL0     C 4076  -0.324   8.228   0.060  0.3612  0.8237  0.5798
   31MOL0     C 4077  -0.455   8.234   0.040  1.5047  0.3574  0.1363
   31MOL0     C 4078  -0.525   8.363   0.001 -0.2007  0.2379 -0.0453
   31MOL0     C 4079  -0.534   8.125   0.087 -0.1142 -0.5657 -0.5021
   31MOL0     C 4080  -0.681   8.119   0.058  0.2359  0.3296 -0.4116
   31MOL0     O 4081  -0.731   8.161  -0.054 -0.1773 -0.2519  0.4752
   31MOL0     C 4082  -0.863   8.158  -0.087 -0.3318 -0.4304  0.1538
   31MOL0     C 4083  -0.975   8.182  -0.002 -0.5872  0.7174  0.7518
   31MOL0     C 4084  -1.100   8.180  -0.058  0.2883  0.7298  0.0742
   31MOL0     C 4085  -1.131   8.148  -0.189 -0.1723 -0.2036 -0.0075
   31MOL0     O 4086  -1.259   8.150  -0.233  0.2312 -0.4388  0.2257
   31MOL0     C 4087  -1.288   8.151  -0.372  0.3501 -0.0920  0.7067
   31MOL0     C 4088  -1.442   8.141  -0.387 -0.2004 -0.1789 -0.0836
   31MOL0     C 4089  -1.478   8.128  -0.538  0.3139  0.2805  0.1663
   31MOL0     C 4090  -1.635   8.124  -0.567  0.2831  0.1483  0.7462
   31MOL0     C 4091  -1.675   8.123  -0.719 -0.5356 -0.1649 -0.0993
   31MOL0     C 4092  -1.802   8.052  -0.759 -0.0341  0.3192 -0.5945
   31MOL0     C 4093  -1.832   8.090  -0.904 -0.4176  0.2926  0.9095
   31MOL0     C 4094  -1.881   8.230  -0.938 -0.3021  0.9517 -0.1563
   31MOL0    Cl 4095  -2.045   8.258  -0.877 -0.5823  0.2843 -0.2124
   31MOL0     C 4096  -1.020   8.116  -0.272  0.4321 -0.6762 -1.4698
   31MOL0     C 4097  -0.889   8.125  -0.220  0.3494 -0.0679 -0.0346
   31MOL0     O 4098  -0.752   8.065   0.146  0.1023 -0.3390  0.0635
   31MOL0     C 4099  -0.482   8.036   0.180 -0.2998  0.3513  0.2887
   31MOL0     C 4100  -0.342   8.022   0.197  1.3499  0.7745 -0.3861
   31MOL0     N 4101   0.119   7.602   0.089 -0.3669 -0.2615  0.9528
   31MOL0     N 4102   0.190   7.498   0.142 -0.2640 -0.7279 -0.5113
   31MOL0     C 4103   1.206   7.151   0.715 -1.0573 -0.5743 -0.8548
   31MOL0     C 4104   1.334   7.083   0.718 -0.4785 -0.3797 -0.6797
   31MOL0     C 4105   1.775   6.949   0.714  0.5453  0.9900  0.9599
   31MOL0     C 4106   1.861   7.062   0.704 -0.8518  0.4049 -0.6598
   31MOL0     C 4107   1.999   7.045   0.698  0.9767  0.2566  0.1855
   31MOL0     C 4108   2.060   6.917   0.706  0.5107  0.2616  0.1034
   31MOL0     O 4109   2.191   6.899   0.685  0.4827 -0.8610 -0.1327
   31MOL0     C 4110   2.229   6.926   0.548 -0.0073  0.5423 -0.7232
   31MOL0     C 4111   2.387   6.910   0.523  0.6038  0.5264 -0.5229
   31MOL0     C 4112   2.469   7.033   0.571  0.4923 -0.8083 -0.3990
   31MOL0     C 4113   2.607   6.984   0.610 -1.0558  0.3113 -0.6077
   31MOL0     C 4114   2.680   6.914   0.504 -0.0487 -0.0743  0.1177
   31MOL0     C 4115   2.731   6.856   0.412 -0.2771 -0.1223  0.6875
   31MOL0     C 4116   1.979   6.803   0.720 -0.4741  0.1334  0.1009
   31MOL0     C 4117   1.839   6.821   0.722 -0.3707 -0.2148  0.0147
   31MOL0     H 4118   1.524   7.308   0.543 -1.0469  1.0836 -1.8299
   31MOL0     H 4119   1.319   7.420   0.552  1.6997 -0.2853 -1.5178
   31MOL0     H 4120   0.941   7.284   0.745 -0.3376  0.5971  0.2973
   31MOL0     H 4121   1.073   7.352   0.850  3.2510  1.7420 -1.7845
   31MOL0     H 4122   0.900   7.498   0.869 -0.4245 -5.2673  0.6045
   31MOL0     H 4123   1.019   7.577   0.782  1.2637 -2.6933  0.1090
   31MOL0     H 4124   0.804   7.622   0.707 -2.3214 -2.1872  1.8303
   31MOL0     H 4125   0.923   7.568   0.583 -0.3901  3.6381  1.4586
   31MOL0     H 4126   0.808   7.358   0.540 -4.6754 -0.1455 -1.8773
   31MOL0     H 4127   0.727   7.362   0.690  0.9883 -2.0849 -2.0420
   31MOL0     H 4128   0.578   7.519   0.623  1.2764 -3.6398  2.5021
   31MOL0     H 4129   0.677   7.591   0.505  0.3649 -0.9449 -0.9486
   31MOL0     H 4130   0.649   7.386   0.352  0.4021  0.3506  1.4583
   31MOL0     H 4131   0.518   7.326   0.448  1.9924 -1.3493 -0.8045
   31MOL0     H 4132   0.393   7.521   0.439 -0.3622 -1.2062 -0.4684
   31MOL0     H 4133   0.515   7.609   0.350  1.2702 -0.7839  1.0812
   31MOL0     H 4134   0.376   7.359   0.255 -2.9654  1.5126  2.4960
   31MOL0     H 4135   0.498   7.460   0.158 -0.5991  1.1163 -0.1173
   31MOL0     H 4136   0.410   7.742   0.136 -1.0467  2.3162 -0.8684
   31MOL0     H 4137   0.215   7.915   0.084 -0.4951 -0.8280  0.9512
   31MOL0     H 4138   0.218   7.849  -0.088 -0.6653 -0.8605 -0.2302
   31MOL0     H 4139  -0.020   7.805  -0.054  1.9962  0.4631 -3.5564
   31MOL0     H 4140   0.012   7.974  -0.052 -1.8758 -0.7231  0.2479
   31MOL0     H 4141   0.009   7.825   0.206  0.0538 -1.9947 -1.4259
   31MOL0     H 4142  -0.146   7.845   0.122  0.7401 -0.9606 -1.4157
   31MOL0     H 4143   0.031   8.074   0.219 -1.5715  2.6517  2.4823
   31MOL0     H 4144  -0.118   8.013   0.296  1.3988  0.7517  1.3763
   31MOL0     H 4145  -0.269   8.302   0.003  0.7943  1.1102  1.3655
   31MOL0     H 4146  -0.555   8.360  -0.104 -0.1793  3.4636 -0.2250
   31MOL0     H 4147  -0.614   8.369   0.063  0.2460 -2.8309  1.1036
   31MOL0     H 4148  -0.462   8.451   0.016  2.4087 -0.8044 -3.4855
   31MOL0     H 4149  -0.959   8.209   0.103  0.0842  2.2546  0.2923
   31MOL0     H 4150  -1.179   8.198   0.014 -0.9229  2.0801 -1.5191
   31MOL0     H 4151  -1.252   8.241  -0.423  0.0335 -0.6167 -0.4736
   31MOL0     H 4152  -1.235   8.060  -0.400  3.8904  0.2027  5.2738
   31MOL0     H 4153  -1.468   8.057  -0.321  2.3427  0.2611  1.6488
   31MOL0     H 4154  -1.488   8.228  -0.341  1.0429  2.6466 -3.7407
   31MOL0     H 4155  -1.433   8.038  -0.581 -1.2492 -0.2472 -0.4467
   31MOL0     H 4156  -1.432   8.214  -0.587  0.1371  1.0738  1.3523
   31MOL0     H 4157  -1.672   8.034  -0.516 -1.5452  0.7526  0.5815
   31MOL0     H 4158  -1.681   8.214  -0.524  3.3946  0.2974  4.3404
   31MOL0     H 4159  -1.601   8.061  -0.770 -1.3293 -0.2430 -1.1866
   31MOL0     H 4160  -1.672   8.227  -0.750  1.4682 -0.3292 -0.5737
   31MOL0     H 4161  -1.789   7.944  -0.746 -2.4763 -0.0954 -1.0778
   31MOL0     H 4162  -1.882   8.072  -0.687  1.8405  0.3791  1.5448
   31MOL0     H 4163  -1.912   8.020  -0.931  1.4988 -1.9645  0.7731
   31MOL0     H 4164  -1.747   8.065  -0.969 -0.5102 -1.9104  1.5830
   31MOL0     H 4165  -1.869   8.240  -1.046  1.5584  0.8081 -0.0060
   31MOL0     H 4166  -1.813   8.301  -0.889 -2.0347 -0.1948  4.4729
   31MOL0     H 4167  -1.032   8.097  -0.378 -1.1159 -1.2184 -1.2333
   31MOL0     H 4168  -0.815   8.083  -0.288 -0.4019 -1.8499  0.1832
   31MOL0     H 4169  -0.536   7.956   0.231  1.3266  0.1426  1.8014
   31MOL0     H 4170  -0.307   7.937   0.255 -0.7323  0.1101 -0.0198
   31MOL0     H 4171   1.118   7.106   0.761 -0.7119 -0.7156 -0.3277
   31MOL0     H 4172   1.342   6.986   0.765  0.3761 -0.2318 -0.5044
   31MOL0     H 4173   1.838   7.168   0.696  0.0484  0.5150 -2.2271
   31MOL0     H 4174   2.061   7.130   0.673  1.6603  0.2076  1.6458
   31MOL0     H 4175   2.191   6.847   0.483  1.3220 -0.2385 -0.5807
   31MOL0     H 4176   2.199   7.020   0.500 -0.0704 -0.1307 -2.0477
   31MOL0     H 4177   2.403   6.911   0.415 -1.7068 -1.9207 -0.9894
   31MOL0     H 4178   2.429   6.817   0.562  1.8292  0.8944 -0.8960
   31MOL0     H 4179   2.427   7.079   0.661  2.1223 -1.6918  0.8666
   31MOL0     H 4180   2.474   7.118   0.502 -1.5058  0.6314  1.1129
   31MOL0     H 4181   2.601   6.912   0.693  1.0986 -0.8164 -1.3325
   31MOL0     H 4182   2.674   7.065   0.640 -0.6745 -0.7921  1.7580
   31MOL0     H 4183   2.778   6.826   0.320  2.0047  5.2199 -0.2444
   31MOL0     H 4184   2.015   6.701   0.718  1.5757  0.7841  0.8592
   31MOL0     H 4185   1.783   6.728   0.725 -0.6324 -0.0339  1.8170
   32MOL0     O 4186   7.550   6.562   9.097  0.4052 -0.0113 -0.2449
   32MOL0     C 4187   7.486   6.449   9.097 -0.1223  0.2295 -0.3958
   32MOL0     O 4188   7.543   6.324   9.107  0.5978  0.4477 -0.8088
   32MOL0     C 4189   7.674   6.320   9.106 -0.7913  0.4889  0.1304
   32MOL0     C 4190   7.732   6.304   8.978 -1.2294  0.5212  0.4206
   32MOL0     C 4191   7.868   6.290   8.970 -0.2986 -0.0514  0.8712
   32MOL0     C 4192   7.947   6.290   9.083  1.0048  0.1103  0.1914
   32MOL0     O 4193   8.084   6.273   9.075  0.6101 -0.0565  0.3966
   32MOL0     C 4194   8.157   6.376   9.003  1.2072  0.3515  0.4568
   32MOL0     C 4195   8.153   6.519   9.069 -0.5113  0.2398 -0.3602
   32MOL0     C 4196   8.207   6.629   8.976  0.0405  0.4537 -0.5607
   32MOL0     C 4197   8.214   6.763   9.065  0.6022 -0.5652  0.3239
   32MOL0     C 4198   8.207   6.872   8.954  0.1066 -0.0625 -0.7315
   32MOL0     C 4199   8.200   7.017   9.006  0.7787  0.7093  0.0514
   32MOL0     C 4200   8.065   7.043   9.065 -0.1880 -0.4722 -0.4166
   32MOL0     C 4201   8.077   7.179   9.137  0.3551  0.0916 -0.5204
   32MOL0     N 4202   7.947   7.205   9.209 -0.9975  0.9441 -0.0172
   32MOL0     C 4203   7.846   7.288   9.173 -0.6237  0.4114  0.1848
   32MOL0     C 4204   7.760   7.290   9.274  0.7539 -1.3154  0.0689
   32MOL0     C 4205   7.628   7.366   9.282  0.2177  0.3080  0.1443
   32MOL0     C 4206   7.518   7.257   9.299  0.1365  0.7986  0.0976
   32MOL0     C 4207   7.382   7.333   9.309 -0.3744  0.5871  0.4356
   32MOL0     C 4208   7.277   7.259   9.376  0.5356 -0.9733 -0.0920
   32MOL0     O 4209   7.159   7.348   9.380 -1.5535 -0.1471  0.7070
   32MOL0     C 4210   7.041   7.285   9.390 -0.4383  0.5779 -0.9460
   32MOL0     C 4211   6.931   7.365   9.394  0.0435 -0.1627  1.3462
   32MOL0     C 4212   6.809   7.321   9.438  0.3775 -0.1160  0.6769
   32MOL0     C 4213   6.702   7.419   9.430  0.3163 -0.8627  0.0810
   32MOL0     C 4214   6.789   7.188   9.471  0.1986  0.1832  0.4046
   32MOL0     C 4215   6.659   7.129   9.510 -0.6691 -0.8819 -0.1862
   32MOL0     O 4216   6.581   7.187   9.610 -0.4061 -0.2858  0.2804
   32MOL0     C 4217   6.460   7.137   9.647 -0.5580 -0.8081  0.0189
   32MOL0     C 4218   6.366   7.083   9.564  0.1768  0.4453 -0.6939
   32MOL0     C 4219   6.259   7.011   9.617  0.3368  0.7677  0.2992
   32MOL0     C 4220   6.231   7.022   9.756 -0.5640  0.3803  0.5047
   32MOL0     O 4221   6.124   6.958   9.814  0.3572  0.4247  0.0938
   32MOL0     C 4222   5.990   7.014   9.795  0.1479  0.8940 -0.2075
   32MOL0     C 4223   5.980   7.140   9.876  0.5867 -0.2458  0.3859
   32MOL0     C 4224   5.839   7.214   9.860 -1.6807 -0.1456  0.0157
   32MOL0     C 4225   5.781   7.238   9.993 -0.6437  0.5143 -0.1930
   32MOL0     C 4226   5.674   7.340   9.993  0.7145  0.8315 -0.4157
   32MOL0     C 4227   5.586   7.349  10.115 -0.4582 -0.4788  0.0568
   32MOL0     C 4228   5.498   7.473  10.119  0.4319 -0.4494  0.0299
   32MOL0     C 4229   5.386   7.438  10.210 -0.8555  0.2442 -0.4786
   32MOL0    Cl 4230   5.272   7.315  10.138 -0.2647 -0.1772  0.0965
   32MOL0     C 4231   6.319   7.087   9.841 -0.3472 -0.0847 -0.2474
   32MOL0     C 4232   6.438   7.138   9.786  0.9244 -0.3091 -0.6019
   32MOL0     O 4233   6.629   7.028   9.446  0.1134 -0.9636  0.5731
   32MOL0     C 4234   6.900   7.096   9.457 -0.2039 -0.0415 -0.8063
   32MOL0     C 4235   7.025   7.150   9.427  0.3659 -0.5482 -0.1815
   32MOL0     N 4236   7.816   7.210   9.374  0.6561  0.8284  0.5789
   32MOL0     N 4237   7.921   7.156   9.332  0.0389 -0.0758  0.6562
   32MOL0     C 4238   7.892   6.305   9.207 -0.2048 -0.0228  0.0155
   32MOL0     C 4239   7.755   6.317   9.220  1.4146  0.2945  0.1818
   32MOL0     C 4240   7.343   6.458   9.076  0.0831  0.1404 -0.1547
   32MOL0     C 4241   7.279   6.578   9.044  0.5742 -0.1786 -0.4262
   32MOL0     C 4242   7.133   6.579   9.053 -0.6169  0.3639  0.1699
   32MOL0     C 4243   7.062   6.459   9.074 -0.0598  0.1246  0.7090
   32MOL0     O 4244   6.923   6.461   9.071  0.4962  0.1653  0.9651
   32MOL0     C 4245   6.857   6.341   9.131 -0.4034  0.4553  0.1097
   32MOL0     C 4246   6.710   6.380   9.161 -0.1005  0.6703 -0.1924
   32MOL0     C 4247   6.632   6.263   9.217  0.0372 -0.8877 -0.2096
   32MOL0     C 4248   6.630   6.125   9.152  0.1812  0.8385 -0.0188
   32MOL0     C 4249   6.498   6.064   9.129  1.0643 -0.1208  0.0298
   32MOL0     C 4250   6.380   6.030   9.140 -0.0528 -0.7857 -0.4177
   32MOL0     C 4251   7.133   6.346   9.103 -0.1094  0.7046  1.3106
   32MOL0     C 4252   7.265   6.340   9.106 -0.1885 -0.4064 -0.2638
   32MOL0     H 4253   7.673   6.283   8.889  0.2256 -1.4139 -0.1448
   32MOL0     H 4254   7.926   6.274   8.880  3.5291 -0.7420  3.2501
   32MOL0     H 4255   8.262   6.344   8.997  1.7228  2.1528 -1.1987
   32MOL0     H 4256   8.123   6.387   8.900  3.6791  0.7238 -0.3980
   32MOL0     H 4257   8.054   6.545   9.107  0.1156 -0.0487  1.5977
   32MOL0     H 4258   8.214   6.510   9.159  2.3733  0.8797 -2.1240
   32MOL0     H 4259   8.302   6.601   8.929  1.6279 -0.1384  2.7146
   32MOL0     H 4260   8.134   6.652   8.898 -1.7812  1.7128  1.4151
   32MOL0     H 4261   8.135   6.759   9.141  0.4563 -0.8586  0.1607
   32MOL0     H 4262   8.312   6.773   9.112  1.2446  3.6122 -1.4572
   32MOL0     H 4263   8.287   6.861   8.881  0.8947  0.0044  0.1066
   32MOL0     H 4264   8.113   6.861   8.898  0.1687 -0.3045 -0.7900
   32MOL0     H 4265   8.277   7.014   9.083 -0.2269  0.0846  1.0643
   32MOL0     H 4266   8.233   7.085   8.927  1.3430  1.1623  0.6669
   32MOL0     H 4267   7.989   7.045   8.986  0.0137  0.4509 -0.6034
   32MOL0     H 4268   8.032   6.968   9.137 -0.0340 -1.2075 -1.1008
   32MOL0     H 4269   8.111   7.260   9.073  2.6206 -0.3692  0.0212
   32MOL0     H 4270   8.152   7.170   9.216  0.5597  2.3367 -0.4175
   32MOL0     H 4271   7.831   7.341   9.080 -1.8422  1.0485  0.7282
   32MOL0     H 4272   7.637   7.440   9.361  1.7431 -2.2354  2.5499
   32MOL0     H 4273   7.601   7.408   9.185 -1.2580 -2.5937 -0.8478
   32MOL0     H 4274   7.539   7.187   9.380 -0.3303 -0.0024 -0.4713
   32MOL0     H 4275   7.503   7.198   9.209 -2.5061  1.5692 -0.0496
   32MOL0     H 4276   7.343   7.357   9.210  0.6397 -0.2568 -0.1914
   32MOL0     H 4277   7.402   7.424   9.367  1.4402 -0.6942  1.9398
   32MOL0     H 4278   7.303   7.232   9.478  1.4387  2.3188  0.6881
   32MOL0     H 4279   7.243   7.171   9.321 -1.0837 -0.7890  0.5593
   32MOL0     H 4280   6.941   7.470   9.366 -3.5539  0.1396  0.7382
   32MOL0     H 4281   6.608   7.387   9.476  0.7060 -1.1852  0.6765
   32MOL0     H 4282   6.723   7.515   9.479 -1.8321 -0.9596  1.3283
   32MOL0     H 4283   6.673   7.430   9.326 -2.5665 -3.2934  0.5000
   32MOL0     H 4284   6.398   7.068   9.462  0.1559 -0.5367 -0.5736
   32MOL0     H 4285   6.203   6.943   9.554  2.2516 -0.9935  0.3940
   32MOL0     H 4286   5.981   7.046   9.691  0.1803  1.1607 -0.1269
   32MOL0     H 4287   5.922   6.936   9.831  3.2238 -1.7584  0.2863
   32MOL0     H 4288   5.985   7.109   9.981 -0.4378  0.2011  0.5824
   32MOL0     H 4289   6.062   7.201   9.835 -1.3430  0.3528 -2.9647
   32MOL0     H 4290   5.775   7.152   9.796 -0.7510 -3.5175  2.0916
   32MOL0     H 4291   5.864   7.308   9.810 -0.3836  0.1430  1.1554
   32MOL0     H 4292   5.744   7.147  10.040 -1.2567  1.2465  0.7668
   32MOL0     H 4293   5.865   7.275  10.053 -2.5451  0.6303  2.5730
   32MOL0     H 4294   5.609   7.314   9.909 -1.0928  0.8897  0.8851
   32MOL0     H 4295   5.730   7.433   9.977  2.8476 -0.0702  1.2931
   32MOL0     H 4296   5.521   7.261  10.108 -1.9389  0.6024 -0.2711
   32MOL0     H 4297   5.644   7.344  10.208 -0.0673 -1.0433 -0.2144
   32MOL0     H 4298   5.458   7.505  10.022 -0.6738  0.9951  0.9154
   32MOL0     H 4299   5.537   7.566  10.161  0.7851  1.2838 -3.6667
   32MOL0     H 4300   5.330   7.527  10.240  0.4679  0.2149  2.3856
   32MOL0     H 4301   5.436   7.391  10.296 -0.2570 -2.8592 -2.3378
   32MOL0     H 4302   6.285   7.103   9.943 -0.4226 -1.4953 -0.0397
   32MOL0     H 4303   6.515   7.193   9.839  1.6192  0.3630 -2.2277
   32MOL0     H 4304   6.901   6.990   9.477  0.5533 -0.3974 -2.5231
   32MOL0     H 4305   7.103   7.075   9.413 -0.5054 -1.3126 -1.2152
   32MOL0     H 4306   7.950   6.291   9.299  0.9493 -2.7642 -0.9973
   32MOL0     H 4307   7.715   6.318   9.321  5.8056 -0.6122  2.1569
   32MOL0     H 4308   7.324   6.674   9.019 -1.8590  1.6671  1.7296
   32MOL0     H 4309   7.075   6.667   9.027 -0.7146  0.6893  1.4316
   32MOL0     H 4310   6.873   6.261   9.058  0.7819 -1.0806  1.9628
   32MOL0     H 4311   6.895   6.299   9.224 -0.5726 -1.0529 -0.4623
   32MOL0     H 4312   6.662   6.407   9.067 -1.8765  2.3198  1.1208
   32MOL0     H 4313   6.700   6.464   9.229  0.0014  0.9062 -0.4656
   32MOL0     H 4314   6.530   6.297   9.234  0.4763  1.6183 -2.0609
   32MOL0     H 4315   6.669   6.254   9.319  1.0158  0.2450 -0.4443
   32MOL0     H 4316   6.678   6.055   9.221  0.0341 -0.5758 -1.2924
   32MOL0     H 4317   6.681   6.131   9.055 -0.0845  0.1218 -0.2038
   32MOL0     H 4318   6.285   5.980   9.137  0.0570 -1.1662  1.1720
   32MOL0     H 4319   7.084   6.251   9.124  1.6342 -0.3026  0.9906
   32MOL0     H 4320   7.322   6.253   9.135  3.9675  2.2112  0.2850
   33MOL0     O 4321   6.409   0.009  10.536  0.2315  0.2509 -0.0623
   33MOL0     C 4322   6.471  -0.100  10.533  0.3370 -0.6658 -0.8530
   33MOL0     O 4323   6.469  -0.189  10.429 -0.6989  0.5052 -0.4114
   33MOL0     C 4324   6.403  -0.163  10.319 -0.3056  0.6258  0.5821
   33MOL0     C 4325   6.460  -0.181  10.185 -0.3513  0.1366  0.3961
   33MOL0     C 4326   6.382  -0.159  10.071  0.3159  0.3852 -0.4394
   33MOL0     C 4327   6.244  -0.131  10.076  0.3746  0.4873  0.5321
   33MOL0     O 4328   6.182  -0.101   9.955 -0.3885 -0.2960 -0.6502
   33MOL0     C 4329   6.122  -0.207   9.882  0.5392  0.1411 -0.4303
   33MOL0     C 4330   6.076  -0.164   9.733  0.0313 -0.1984 -0.9608
   33MOL0     C 4331   6.190  -0.098   9.646 -0.7924  0.1988 -0.3378
   33MOL0     C 4332   6.325  -0.156   9.666  0.5717  0.7171 -0.3912
   33MOL0     C 4333   6.428  -0.091   9.563  0.6874 -1.1539 -0.6201
   33MOL0     C 4334   6.582  -0.127   9.592  0.0437 -0.0248  0.5710
   33MOL0     C 4335   6.672  -0.018   9.516  0.8052 -0.5159  0.5120
   33MOL0     C 4336   6.820  -0.045   9.535  0.6265  0.8569  1.3378
   33MOL0     N 4337   6.904   0.050   9.452  0.1458  0.4843  0.4384
   33MOL0     C 4338   6.941   0.029   9.316  0.4478 -0.2454 -0.1541
   33MOL0     C 4339   6.984   0.150   9.277 -0.4260  0.3721 -0.7110
   33MOL0     C 4340   7.040   0.183   9.145 -0.7160  0.1783  0.0501
   33MOL0     C 4341   6.952   0.293   9.082  0.0477  0.0103  0.0581
   33MOL0     C 4342   6.853   0.224   8.989 -0.2910 -0.5843  0.2645
   33MOL0     C 4343   6.763   0.331   8.932 -0.6046 -1.0791  0.7496
   33MOL0     O 4344   6.649   0.357   9.016  0.4326  0.3792  0.3824
   33MOL0     C 4345   6.529   0.283   9.006 -0.6777  0.7111  0.4361
   33MOL0     C 4346   6.513   0.164   8.930 -0.3072 -0.4844 -0.6585
   33MOL0     C 4347   6.393   0.086   8.915 -0.6872 -0.3275  0.0965
   33MOL0     C 4348   6.376  -0.025   8.818  0.5635  0.0325  0.4420
   33MOL0     C 4349   6.279   0.118   8.998  0.2421  0.3250  0.4316
   33MOL0     C 4350   6.150   0.041   8.985 -0.3607  0.4355  0.5085
   33MOL0     O 4351   6.038   0.119   8.967 -0.8440  0.2032  0.0654
   33MOL0     C 4352   5.931   0.046   8.947 -0.1215  0.0650  0.0530
   33MOL0     C 4353   5.835   0.028   9.046 -0.6257 -0.6637  0.7565
   33MOL0     C 4354   5.715  -0.046   9.024  0.2948  0.2037  0.8591
   33MOL0     C 4355   5.672  -0.085   8.893 -0.1503 -0.2104  0.4854
   33MOL0     O 4356   5.544  -0.128   8.875 -0.5209  0.0860 -0.6512
   33MOL0     C 4357   5.497  -0.201   8.761 -0.0739  0.5002  0.6050
   33MOL0     C 4358   5.350  -0.190   8.742  0.4806 -0.3141 -0.2079
   33MOL0     C 4359   5.274  -0.253   8.866 -0.3438 -0.5029  0.1467
   33MOL0     C 4360   5.122  -0.232   8.852  0.2930  1.0596  0.1477
   33MOL0     C 4361   5.044  -0.238   8.984 -0.9546  0.4082 -0.5997
   33MOL0     C 4362   4.894  -0.214   8.967 -0.1053 -0.0619  0.4147
   33MOL0     C 4363   4.825  -0.217   9.109  0.6136  0.0124 -0.1936
   33MOL0     C 4364   4.706  -0.125   9.109 -1.1173 -0.0737 -0.4132
   33MOL0    Cl 4365   4.554  -0.210   9.061  0.4536  0.2156 -0.4463
   33MOL0     C 4366   5.773  -0.065   8.792  0.9619 -0.8227  0.2761
   33MOL0     C 4367   5.898  -0.006   8.811 -0.5485 -0.0242 -0.0974
   33MOL0     O 4368   6.147  -0.075   9.010 -0.3867  0.6796  0.3126
   33MOL0     C 4369   6.287   0.248   9.075 -1.3325 -0.2397  0.3955
   33MOL0     C 4370   6.414   0.324   9.074  0.8241  1.1366 -0.2262
   33MOL0     N 4371   6.987   0.233   9.395  0.3482 -0.6444  0.2529
   33MOL0     N 4372   6.939   0.176   9.499  0.1874  0.5243 -0.9380
   33MOL0     C 4373   6.186  -0.127  10.200  0.1713 -0.3485  0.0463
   33MOL0     C 4374   6.267  -0.143  10.322 -0.6770 -0.9155 -0.3238
   33MOL0     C 4375   6.563  -0.125  10.645  1.1667 -0.3495 -0.3614
   33MOL0     C 4376   6.567  -0.027  10.745  0.2575 -0.8630  0.1985
   33MOL0     C 4377   6.662  -0.026  10.846 -0.1873 -0.1900  0.3599
   33MOL0     C 4378   6.759  -0.126  10.847  0.4426 -0.0467 -0.0589
   33MOL0     O 4379   6.856  -0.128  10.946  0.2284  0.2838 -0.3513
   33MOL0     C 4380   6.987  -0.136  10.890  0.4169  0.0068  0.1455
   33MOL0     C 4381   7.075  -0.086  11.002  0.3704 -0.2619 -0.4200
   33MOL0     C 4382   7.230  -0.099  10.962  0.2235 -0.4707 -0.0562
   33MOL0     C 4383   7.293  -0.210  11.045  0.4174  0.7002 -1.0784
   33MOL0     C 4384   7.436  -0.203  11.017 -1.0577  0.0886 -0.2078
   33MOL0     C 4385   7.554  -0.207  10.984 -0.6013  0.2233 -0.1160
   33MOL0     C 4386   6.748  -0.222  10.748 -0.3317  0.5268  0.4814
   33MOL0     C 4387   6.652  -0.229  10.649 -0.7547 -0.4549 -0.4875
   33MOL0     H 4388   6.566  -0.204  10.180 -0.3324 -0.1032  1.6106
   33MOL0     H 4389   6.423  -0.173   9.971  1.1235 -0.7911  0.0339
   33MOL0     H 4390   6.198  -0.286   9.881  0.8672  0.4162  0.7144
   33MOL0     H 4391   6.036  -0.253   9.930  0.1106  0.3051 -1.0283
   33MOL0     H 4392   6.033  -0.251   9.682  0.1682  1.3329 -3.9304
   33MOL0     H 4393   5.997  -0.089   9.745 -0.8648 -1.4356  1.3523
   33MOL0     H 4394   6.177  -0.112   9.538  1.0039  0.6397 -0.6384
   33MOL0     H 4395   6.194   0.010   9.660  0.8238  0.2705 -1.1639
   33MOL0     H 4396   6.359  -0.129   9.766  2.9176  2.1741 -1.5093
   33MOL0     H 4397   6.324  -0.265   9.654 -0.3639  0.7972 -1.2185
   33MOL0     H 4398   6.396  -0.112   9.460  1.2498 -0.4597 -0.9409
   33MOL0     H 4399   6.411   0.014   9.588 -1.1587 -1.1722 -1.6435
   33MOL0     H 4400   6.579  -0.129   9.701 -2.1854 -0.0653  0.5439
   33MOL0     H 4401   6.594  -0.231   9.562 -3.7627 -0.3929 -0.1940
   33MOL0     H 4402   6.642  -0.022   9.411 -1.1532  2.5573  0.8435
   33MOL0     H 4403   6.643   0.081   9.552  1.0367 -0.1932 -0.1747
   33MOL0     H 4404   6.840  -0.150   9.515 -0.2272  1.1118 -1.1047
   33MOL0     H 4405   6.845  -0.045   9.642  0.1292  2.8051  1.4983
   33MOL0     H 4406   6.941  -0.060   9.255 -2.4304 -1.8728  2.0086
   33MOL0     H 4407   7.137   0.231   9.162  0.3155 -2.3481  1.9027
   33MOL0     H 4408   7.075   0.094   9.092  1.1680  1.6262 -1.2871
   33MOL0     H 4409   7.017   0.362   9.027 -0.9638  1.9884  1.2194
   33MOL0     H 4410   6.906   0.349   9.164 -2.7260 -0.9649 -0.7381
   33MOL0     H 4411   6.793   0.172   9.065  0.3313 -2.5459 -0.5333
   33MOL0     H 4412   6.899   0.159   8.915  0.5921  1.6762 -1.2858
   33MOL0     H 4413   6.727   0.291   8.836  0.6898 -0.4097 -0.0497
   33MOL0     H 4414   6.824   0.420   8.918 -1.9906  0.2647  2.7681
   33MOL0     H 4415   6.600   0.144   8.867 -0.8266  1.5166 -2.1262
   33MOL0     H 4416   6.470  -0.041   8.764  0.2894 -0.8113  0.2026
   33MOL0     H 4417   6.348  -0.121   8.863  1.4237 -2.3571 -3.6275
   33MOL0     H 4418   6.303  -0.009   8.739  0.2413  2.4884  1.1607
   33MOL0     H 4419   5.850   0.079   9.140  0.6497  2.2157 -0.8626
   33MOL0     H 4420   5.648  -0.048   9.109  1.1024  1.2349  1.5574
   33MOL0     H 4421   5.550  -0.170   8.670 -1.2768  2.6581  0.5597
   33MOL0     H 4422   5.521  -0.307   8.776  1.2875  0.4165 -1.7044
   33MOL0     H 4423   5.317  -0.088   8.720  0.8502 -0.3340 -0.8665
   33MOL0     H 4424   5.311  -0.258   8.665 -2.9255 -1.0944  1.9644
   33MOL0     H 4425   5.317  -0.203   8.953 -0.3888  0.2210 -0.2326
   33MOL0     H 4426   5.305  -0.357   8.868 -0.7302 -0.6155  0.3767
   33MOL0     H 4427   5.094  -0.134   8.812 -2.6722  0.0026 -0.6023
   33MOL0     H 4428   5.080  -0.305   8.783  0.2288  2.3951 -1.2878
   33MOL0     H 4429   5.085  -0.167   9.057 -1.1220 -0.1849  0.0929
   33MOL0     H 4430   5.058  -0.339   9.022 -2.5347  0.5486  0.4973
   33MOL0     H 4431   4.877  -0.115   8.924  2.4986  0.4586  0.3965
   33MOL0     H 4432   4.854  -0.286   8.895  0.1073  0.5474 -0.3241
   33MOL0     H 4433   4.894  -0.184   9.187  0.9111 -0.2940 -0.3211
   33MOL0     H 4434   4.788  -0.318   9.130 -1.8745  1.2443  1.9385
   33MOL0     H 4435   4.730  -0.034   9.053  3.8419  0.6387  2.3154
   33MOL0     H 4436   4.693  -0.087   9.211 -2.3177  0.0547 -0.5943
   33MOL0     H 4437   5.743  -0.091   8.691 -2.1724  0.4606  0.7563
   33MOL0     H 4438   5.959  -0.007   8.722 -1.3822 -1.1050 -0.6840
   33MOL0     H 4439   6.198   0.285   9.126 -1.5268  1.1378 -0.8706
   33MOL0     H 4440   6.416   0.414   9.135  1.7682  0.2360  1.1440
   33MOL0     H 4441   6.079  -0.106  10.198 -0.0270 -1.2856  0.4998
   33MOL0     H 4442   6.211  -0.136  10.415 -0.7069 -1.3260 -0.3088
   33MOL0     H 4443   6.501   0.058  10.757  2.2692  1.0638 -1.4568
   33MOL0     H 4444   6.658   0.047  10.925  0.3569  1.8675 -1.4041
   33MOL0     H 4445   7.007  -0.240  10.863 -0.8832  0.2638 -2.0514
   33MOL0     H 4446   7.002  -0.069  10.805 -0.1681 -1.6590 -1.3365
   33MOL0     H 4447   7.062  -0.125  11.103 -0.7559  0.5741 -0.2343
   33MOL0     H 4448   7.053   0.020  11.009  1.6613  0.0199 -0.2733
   33MOL0     H 4449   7.284  -0.013  11.002 -1.1145 -0.8389  2.7993
   33MOL0     H 4450   7.246  -0.123  10.857  0.1897 -0.1994 -0.1222
   33MOL0     H 4451   7.265  -0.314  11.025 -0.5448  0.9016 -0.8285
   33MOL0     H 4452   7.264  -0.200  11.151 -2.5252 -1.2972 -1.5677
   33MOL0     H 4453   7.651  -0.208  10.937 -1.7503  1.0795 -2.6631
   33MOL0     H 4454   6.819  -0.304  10.743 -0.9323  0.0441 -0.4831
   33MOL0     H 4455   6.648  -0.306  10.572 -3.5277 -1.0816  0.1813
   34MOL0     O 4456   8.817   3.718   8.641 -0.4624  0.2618  0.3016
   34MOL0     C 4457   8.882   3.718   8.746 -1.4122 -0.0101  0.4360
   34MOL0     O 4458   8.835   3.689   8.873 -0.4519  0.6103  0.5863
   34MOL0     C 4459   8.702   3.669   8.889 -0.4596 -0.6298  0.7232
   34MOL0     C 4460   8.625   3.779   8.941 -0.1472  0.6187  0.7752
   34MOL0     C 4461   8.488   3.762   8.952  0.8190  0.9379 -0.0775
   34MOL0     C 4462   8.422   3.640   8.912 -0.6111 -0.2560  0.5381
   34MOL0     O 4463   8.289   3.625   8.927  0.2178  0.5577 -0.3065
   34MOL0     C 4464   8.237   3.649   9.063 -0.6413  1.0275  0.4661
   34MOL0     C 4465   8.104   3.580   9.063 -0.3626 -0.3813 -0.3596
   34MOL0     C 4466   8.048   3.585   9.208 -0.3812  0.3416  0.4679
   34MOL0     C 4467   7.917   3.517   9.212  0.7219 -0.6169  0.1195
   34MOL0     C 4468   7.870   3.546   9.355  0.7747 -0.1502 -0.1926
   34MOL0     C 4469   7.748   3.470   9.384 -0.4182 -0.3427 -0.1315
   34MOL0     C 4470   7.620   3.522   9.319 -0.7306  0.0653  0.2243
   34MOL0     C 4471   7.507   3.520   9.413 -0.7852 -0.8134 -0.4288
   34MOL0     N 4472   7.382   3.559   9.338  0.4701  0.1450 -0.4977
   34MOL0     C 4473   7.282   3.473   9.302  0.5926 -0.0630  0.1603
   34MOL0     C 4474   7.186   3.547   9.229 -0.4296  0.3343 -0.6605
   34MOL0     C 4475   7.064   3.499   9.160  0.5217 -0.1998 -0.4539
   34MOL0     C 4476   6.937   3.498   9.249 -0.1406 -0.6551  0.1878
   34MOL0     C 4477   6.821   3.433   9.173 -0.0709 -0.3807  0.0974
   34MOL0     C 4478   6.700   3.407   9.257 -0.5025  0.8415  0.1348
   34MOL0     O 4479   6.640   3.533   9.289 -0.3443 -0.3159 -0.1996
   34MOL0     C 4480   6.538   3.503   9.370  0.8518 -1.2661 -0.4818
   34MOL0     C 4481   6.565   3.507   9.511 -0.1179 -0.7965  0.0067
   34MOL0     C 4482   6.454   3.486   9.597  0.2998  0.6537  0.1045
   34MOL0     C 4483   6.489   3.473   9.750 -0.1215  0.1471  0.0781
   34MOL0     C 4484   6.317   3.461   9.548  0.0080 -0.1567 -0.3973
   34MOL0     C 4485   6.187   3.442   9.636  0.3072  0.0461  0.1208
   34MOL0     O 4486   6.076   3.410   9.557 -0.7644 -0.7158  0.3524
   34MOL0     C 4487   5.962   3.383   9.616 -0.1745 -0.5116 -0.6887
   34MOL0     C 4488   5.940   3.252   9.671  0.0077  0.9153  0.6179
   34MOL0     C 4489   5.818   3.226   9.729  0.4675  0.6131 -0.5399
   34MOL0     C 4490   5.720   3.334   9.741 -0.2408 -0.0825  0.5257
   34MOL0     O 4491   5.594   3.317   9.775 -0.1541 -0.1036  0.3291
   34MOL0     C 4492   5.513   3.208   9.721  0.1103  0.5881  0.2225
   34MOL0     C 4493   5.442   3.254   9.594  0.7340  0.0079 -0.2412
   34MOL0     C 4494   5.353   3.155   9.517 -0.5599  0.4130 -0.8995
   34MOL0     C 4495   5.223   3.144   9.592  0.3940  1.0373  0.3704
   34MOL0     C 4496   5.139   3.023   9.550 -0.4153 -0.5035  0.8364
   34MOL0     C 4497   4.997   3.023   9.603 -0.6133  0.0998  0.5582
   34MOL0     C 4498   4.926   2.892   9.568 -0.1034  0.0057  0.4691
   34MOL0     C 4499   4.779   2.898   9.550 -0.5666  0.2853  0.8819
   34MOL0    Cl 4500   4.695   2.989   9.671  0.3791  0.5905  0.4620
   34MOL0     C 4501   5.751   3.462   9.696 -1.0428 -0.0234  1.2629
   34MOL0     C 4502   5.877   3.488   9.641  0.0861 -0.0660 -0.1352
   34MOL0     O 4503   6.187   3.442   9.756  0.4095 -0.1508  0.2858
   34MOL0     C 4504   6.304   3.470   9.404 -0.6079 -0.2938  0.8276
   34MOL0     C 4505   6.411   3.498   9.319 -0.6533 -0.1914 -1.0479
   34MOL0     N 4506   7.229   3.682   9.250 -0.0425  0.5636 -0.8740
   34MOL0     N 4507   7.342   3.685   9.307 -0.1287 -0.4818  0.1145
   34MOL0     C 4508   8.497   3.532   8.870  0.7468  0.7200  0.2205
   34MOL0     C 4509   8.637   3.552   8.859  0.2111  0.6637 -1.3024
   34MOL0     C 4510   9.031   3.756   8.737  0.4673  0.1458  0.1282
   34MOL0     C 4511   9.118   3.764   8.854  0.3917  0.3926  1.1816
   34MOL0     C 4512   9.253   3.792   8.833  0.5891 -0.0262 -0.5007
   34MOL0     C 4513   9.301   3.845   8.708 -0.6482  0.0398  0.2479
   34MOL0     O 4514   9.430   3.896   8.691 -0.1620  0.1676 -0.3224
   34MOL0     C 4515   9.541   3.872   8.786 -0.4541  1.1480 -0.3810
   34MOL0     C 4516   9.676   3.908   8.711 -0.2827  0.3762 -0.1638
   34MOL0     C 4517   9.711   3.835   8.577 -0.4658  0.2943  0.2405
   34MOL0     C 4518   9.715   3.685   8.590  0.0119  0.1822  1.4975
   34MOL0     C 4519   9.778   3.618   8.477  0.6209 -0.5928 -0.6063
   34MOL0     C 4520   9.822   3.561   8.377  0.1321  0.1591  0.3438
   34MOL0     C 4521   9.202   3.866   8.606  0.9606  0.1090  0.0407
   34MOL0     C 4522   9.068   3.820   8.625  0.2435 -0.8696  0.2604
   34MOL0     H 4523   8.679   3.869   8.970  1.1431  0.2505 -0.3485
   34MOL0     H 4524   8.432   3.845   8.995  0.0010 -1.6033  4.4222
   34MOL0     H 4525   8.309   3.606   9.134  1.1497 -0.1007 -1.9142
   34MOL0     H 4526   8.230   3.756   9.083  0.0618  1.3310 -0.8349
   34MOL0     H 4527   8.033   3.633   8.999 -0.7094 -1.4976 -0.9264
   34MOL0     H 4528   8.126   3.478   9.031 -0.8008 -0.2803 -1.0097
   34MOL0     H 4529   8.120   3.528   9.267 -0.7759  1.4793  2.1280
   34MOL0     H 4530   8.046   3.688   9.243  1.4640  1.5694 -2.5637
   34MOL0     H 4531   7.847   3.547   9.134  0.3479  2.0553  1.3617
   34MOL0     H 4532   7.935   3.411   9.194 -0.1096 -0.5235 -1.3954
   34MOL0     H 4533   7.951   3.513   9.421  0.9350  3.3526  1.5447
   34MOL0     H 4534   7.853   3.653   9.361 -2.5714 -0.5979  0.1866
   34MOL0     H 4535   7.752   3.368   9.346  0.3506  0.0902 -1.2581
   34MOL0     H 4536   7.748   3.470   9.494  0.4313  2.7523 -0.0361
   34MOL0     H 4537   7.635   3.629   9.301  1.8445 -0.6976 -3.1242
   34MOL0     H 4538   7.616   3.473   9.221  0.6257 -0.5535  0.4566
   34MOL0     H 4539   7.532   3.584   9.498  1.8122  1.0411 -2.4182
   34MOL0     H 4540   7.495   3.419   9.453 -1.2255 -1.2681 -1.6684
   34MOL0     H 4541   7.279   3.366   9.318  0.5541 -0.2609 -1.1226
   34MOL0     H 4542   7.051   3.573   9.080  0.1305  3.5688  2.7878
   34MOL0     H 4543   7.074   3.399   9.116  1.4050 -0.8064  1.0758
   34MOL0     H 4544   6.902   3.599   9.269 -3.2219 -1.2454 -1.5266
   34MOL0     H 4545   6.960   3.450   9.345  0.0440  1.9566  1.5140
   34MOL0     H 4546   6.856   3.345   9.119  1.6518 -0.3207  1.0354
   34MOL0     H 4547   6.798   3.498   9.089 -2.3011 -1.3498 -0.1099
   34MOL0     H 4548   6.732   3.349   9.345 -0.0438 -3.4075 -2.5587
   34MOL0     H 4549   6.633   3.339   9.204  2.9432 -2.7906 -0.0313
   34MOL0     H 4550   6.668   3.527   9.539 -0.3515  2.2344 -0.9766
   34MOL0     H 4551   6.461   3.558   9.812  1.2947  0.6582  0.0515
   34MOL0     H 4552   6.431   3.388   9.786 -1.4267  0.7205 -0.6157
   34MOL0     H 4553   6.595   3.447   9.762 -0.3998  0.1496  3.1183
   34MOL0     H 4554   6.015   3.176   9.652  0.3382  1.1901  0.7993
   34MOL0     H 4555   5.791   3.128   9.769 -1.1706  1.4874  0.6485
   34MOL0     H 4556   5.574   3.120   9.703 -0.2431  0.6616 -1.4924
   34MOL0     H 4557   5.441   3.179   9.798 -1.3545  4.8750  0.7687
   34MOL0     H 4558   5.383   3.344   9.613  0.0694  0.0318 -2.1871
   34MOL0     H 4559   5.530   3.271   9.532  1.5662 -0.7436  0.6911
   34MOL0     H 4560   5.402   3.057   9.511 -0.0606  0.7113 -1.8056
   34MOL0     H 4561   5.342   3.184   9.412 -0.6967  2.5708 -0.3173
   34MOL0     H 4562   5.231   3.138   9.701  2.5701 -1.3365  0.1748
   34MOL0     H 4563   5.168   3.234   9.562 -1.0731  0.1933  0.4490
   34MOL0     H 4564   5.199   2.942   9.594 -0.3706 -0.8148  0.2129
   34MOL0     H 4565   5.132   3.010   9.442  1.4978  2.0429  0.2966
   34MOL0     H 4566   4.995   3.040   9.711  0.9502 -0.2142  0.6482
   34MOL0     H 4567   4.941   3.099   9.548 -1.4814 -0.6297  0.4035
   34MOL0     H 4568   4.948   2.823   9.651  1.1101  0.8687  0.8854
   34MOL0     H 4569   4.969   2.851   9.476 -0.5003 -0.8298  0.6410
   34MOL0     H 4570   4.747   2.794   9.558  2.5999 -0.6876  2.7475
   34MOL0     H 4571   4.761   2.939   9.450  0.7097 -0.6179  0.2510
   34MOL0     H 4572   5.679   3.543   9.704 -0.2283  0.9860 -0.9711
   34MOL0     H 4573   5.904   3.586   9.605 -1.7438  0.3451 -0.5135
   34MOL0     H 4574   6.211   3.465   9.348  1.1049  1.0094 -2.3913
   34MOL0     H 4575   6.396   3.510   9.212 -0.4521  1.3440 -0.9357
   34MOL0     H 4576   8.444   3.443   8.838  0.7833  0.8776 -0.2842
   34MOL0     H 4577   8.699   3.468   8.830  0.9140  0.0148  1.6900
   34MOL0     H 4578   9.072   3.732   8.947  0.2132 -3.2002 -0.0057
   34MOL0     H 4579   9.315   3.775   8.920 -0.2253 -3.9952 -0.4803
   34MOL0     H 4580   9.522   3.935   8.873  1.9956  0.0044  1.0772
   34MOL0     H 4581   9.547   3.763   8.798  0.1214  1.4151  2.1292
   34MOL0     H 4582   9.763   3.904   8.777  0.3524  0.8129 -0.9523
   34MOL0     H 4583   9.676   4.014   8.683  2.6577 -0.2645 -3.2956
   34MOL0     H 4584   9.812   3.857   8.541  0.9229 -4.3945  0.6226
   34MOL0     H 4585   9.633   3.852   8.502 -1.1363 -1.2728  0.5443
   34MOL0     H 4586   9.612   3.650   8.596  0.4844 -1.0864  2.8428
   34MOL0     H 4587   9.771   3.654   8.679 -0.6124 -3.5097  0.7719
   34MOL0     H 4588   9.862   3.498   8.300  1.4990 -2.0298  2.6677
   34MOL0     H 4589   9.225   3.917   8.513  0.0668  0.7953  0.1797
   34MOL0     H 4590   9.010   3.830   8.534  0.6793  5.5500  0.2755
   35MOL0     O 4591   0.805   9.414   7.391 -0.0055 -0.4502  0.3109
   35MOL0     C 4592   0.911   9.407   7.328  0.7255 -0.0378 -0.1533
   35MOL0     O 4593   0.922   9.421   7.198  0.5383 -0.5747  0.0548
   35MOL0     C 4594   0.805   9.434   7.131  0.5827  0.5765  0.5353
   35MOL0     C 4595   0.751   9.318   7.073  0.4200 -0.5101 -0.1978
   35MOL0     C 4596   0.615   9.327   7.029  0.8011  0.5396  0.6361
   35MOL0     C 4597   0.542   9.448   7.033 -0.2188 -0.2786 -0.5160
   35MOL0     O 4598   0.427   9.463   6.968 -0.0292 -0.1436  0.1737
   35MOL0     C 4599   0.355   9.345   6.933 -0.5274  0.1048 -0.3854
   35MOL0     C 4600   0.225   9.389   6.865 -0.2630  0.0527 -0.9972
   35MOL0     C 4601   0.123   9.445   6.968 -0.8236 -0.0253 -0.4995
   35MOL0     C 4602   0.006   9.517   6.899 -0.4618  0.0909  0.0118
   35MOL0     C 4603  -0.064   9.598   7.006 -0.0410  0.1433  0.1064
   35MOL0     C 4604  -0.159   9.696   6.938  0.5249 -0.1626  0.6754
   35MOL0     C 4605  -0.260   9.757   7.020  0.4028 -0.6207  0.8387
   35MOL0     C 4606  -0.343   9.855   6.943 -0.4722 -0.6551 -0.2062
   35MOL0     N 4607  -0.459   9.903   7.020  0.9131 -0.3746  0.4635
   35MOL0     C 4608  -0.585   9.843   7.023  0.3804 -0.1203 -0.0111
   35MOL0     C 4609  -0.668   9.927   7.080  0.2933 -0.2946  0.3448
   35MOL0     C 4610  -0.817   9.915   7.093 -0.4279 -0.2248 -0.9221
   35MOL0     C 4611  -0.882   9.855   7.224  0.5367 -0.7462  0.9142
   35MOL0     C 4612  -1.036   9.837   7.222 -0.4310  0.7023  0.2205
   35MOL0     C 4613  -1.094   9.775   7.352  0.5584 -0.7508 -0.4202
   35MOL0     O 4614  -1.093   9.855   7.468 -0.0031  0.1172 -0.4612
   35MOL0     C 4615  -1.188   9.954   7.484  0.4403 -0.6765 -0.5835
   35MOL0     C 4616  -1.151  10.068   7.559  0.1356  0.5474  0.9158
   35MOL0     C 4617  -1.242  10.170   7.601  0.0450  0.3126 -0.2762
   35MOL0     C 4618  -1.180  10.274   7.688  0.0050 -0.2302 -0.0917
   35MOL0     C 4619  -1.378  10.151   7.560  0.1139  0.0982 -0.7162
   35MOL0     C 4620  -1.482  10.258   7.584  0.0059  0.2580  0.7883
   35MOL0     O 4621  -1.605  10.223   7.573  0.0061 -0.3799 -0.2355
   35MOL0     C 4622  -1.706  10.318   7.579 -0.0086  0.8685 -0.0837
   35MOL0     C 4623  -1.749  10.362   7.703 -0.3647  0.0977 -1.0861
   35MOL0     C 4624  -1.864  10.435   7.710 -0.1751 -0.3052 -0.8587
   35MOL0     C 4625  -1.947  10.466   7.597 -0.2542 -0.6227  0.8691
   35MOL0     O 4626  -2.053  10.547   7.623 -0.9239  0.5931  0.1295
   35MOL0     C 4627  -2.161  10.570   7.522 -0.4697  0.8178 -0.2960
   35MOL0     C 4628  -2.274  10.655   7.577  0.0469 -0.0144 -0.2593
   35MOL0     C 4629  -2.378  10.675   7.459 -0.2887  0.5604 -0.1990
   35MOL0     C 4630  -2.514  10.724   7.513 -0.0099  0.6159  0.4005
   35MOL0     C 4631  -2.599  10.790   7.401 -0.7644  0.8991 -0.4311
   35MOL0     C 4632  -2.730  10.837   7.462 -0.5752 -0.1626  0.2559
   35MOL0     C 4633  -2.796  10.923   7.351 -0.4410  0.7927 -0.6429
   35MOL0     C 4634  -2.881  10.833   7.260 -0.2633  0.8703 -0.5821
   35MOL0    Cl 4635  -2.938  10.915   7.114 -0.5226 -0.1362  0.2851
   35MOL0     C 4636  -1.905  10.416   7.474  0.5421 -0.0274  0.1514
   35MOL0     C 4637  -1.786  10.332   7.464 -0.1626  0.3382  0.3698
   35MOL0     O 4638  -1.443  10.370   7.608  0.1526 -0.2339  0.6998
   35MOL0     C 4639  -1.419  10.032   7.496  0.0243  0.2881 -0.8282
   35MOL0     C 4640  -1.326   9.940   7.450  0.0787  0.9200 -0.0428
   35MOL0     N 4641  -0.593  10.039   7.124  0.4751  0.0403  0.3253
   35MOL0     N 4642  -0.469  10.021   7.086  0.3200 -0.4362  0.3323
   35MOL0     C 4643   0.608   9.564   7.082  0.8530  0.4173 -0.1184
   35MOL0     C 4644   0.736   9.556   7.126 -0.4707 -0.7172  0.3120
   35MOL0     C 4645   1.024   9.375   7.407 -0.4377  0.3387  0.0938
   35MOL0     C 4646   1.013   9.330   7.540 -1.0576 -0.6441  0.5140
   35MOL0     C 4647   1.131   9.289   7.607  0.2696 -0.5051  0.4198
   35MOL0     C 4648   1.255   9.298   7.550  0.4486  0.0542  0.5524
   35MOL0     O 4649   1.372   9.272   7.615  0.2624  0.6075 -0.1333
   35MOL0     C 4650   1.387   9.125   7.620 -0.2677  0.5778 -0.9068
   35MOL0     C 4651   1.526   9.077   7.621  0.0494 -0.1394 -0.1169
   35MOL0     C 4652   1.587   9.011   7.505 -0.9598  0.1117 -0.0474
   35MOL0     C 4653   1.584   9.109   7.383  0.4441 -0.2114  0.2183
   35MOL0     C 4654   1.683   9.211   7.399 -0.5051 -0.8576 -0.0809
   35MOL0     C 4655   1.759   9.303   7.392  0.2080 -0.0669  0.9327
   35MOL0     C 4656   1.262   9.353   7.422 -0.4479 -0.0810 -0.2325
   35MOL0     C 4657   1.154   9.387   7.345  0.4090  0.0532  0.3321
   35MOL0     H 4658   0.816   9.232   7.082  1.1987 -0.1133 -1.7432
   35MOL0     H 4659   0.572   9.229   7.009  1.5028 -0.1994  2.4252
   35MOL0     H 4660   0.410   9.288   6.857  1.7626  1.0857  0.4172
   35MOL0     H 4661   0.347   9.283   7.022  1.3000  0.7778  0.2945
   35MOL0     H 4662   0.250   9.472   6.800 -0.5938  2.6578  1.9502
   35MOL0     H 4663   0.186   9.304   6.808  0.9423 -0.8555 -0.5085
   35MOL0     H 4664   0.081   9.368   7.033 -0.8406 -2.1010 -2.7905
   35MOL0     H 4665   0.187   9.501   7.037 -2.0016 -1.9640  2.3408
   35MOL0     H 4666   0.049   9.579   6.820  5.2505  0.8138  3.1731
   35MOL0     H 4667  -0.054   9.440   6.849  0.6459  0.4069 -1.9536
   35MOL0     H 4668  -0.122   9.532   7.072 -3.2770  2.1493 -0.5385
   35MOL0     H 4669   0.009   9.649   7.069  0.2607 -1.4550  1.1155
   35MOL0     H 4670  -0.089   9.774   6.906 -1.4733  1.3723 -0.2274
   35MOL0     H 4671  -0.208   9.649   6.853  0.9427 -0.0013  0.3401
   35MOL0     H 4672  -0.329   9.683   7.063 -0.8643  0.8201  1.3971
   35MOL0     H 4673  -0.210   9.811   7.101  0.0765  2.0049 -0.5946
   35MOL0     H 4674  -0.375   9.804   6.852 -0.9805 -0.9382  0.1234
   35MOL0     H 4675  -0.280   9.936   6.906  2.2329 -2.8917 -0.8283
   35MOL0     H 4676  -0.612   9.747   6.980  0.7397 -0.0161 -0.4752
   35MOL0     H 4677  -0.861  10.011   7.063 -4.1634 -1.9440 -1.4639
   35MOL0     H 4678  -0.843   9.841   7.017 -0.1852  0.5369 -1.7642
   35MOL0     H 4679  -0.847   9.916   7.308 -0.5648  0.2515  0.6785
   35MOL0     H 4680  -0.841   9.754   7.232 -2.8502 -2.4028 -0.9462
   35MOL0     H 4681  -1.056   9.774   7.135  1.5220  0.7428 -0.3061
   35MOL0     H 4682  -1.091   9.929   7.200 -0.8162  0.6283  0.8605
   35MOL0     H 4683  -1.050   9.683   7.393 -2.7793 -1.8378  1.0178
   35MOL0     H 4684  -1.192   9.733   7.331  0.5352 -1.7485  1.4713
   35MOL0     H 4685  -1.048  10.068   7.592 -0.1690  2.8599  2.0487
   35MOL0     H 4686  -1.084  10.239   7.728  0.3053  0.1891 -0.4392
   35MOL0     H 4687  -1.157  10.363   7.629  2.2972 -0.0459  0.9927
   35MOL0     H 4688  -1.251  10.301   7.767 -2.9845 -2.5130 -1.7598
   35MOL0     H 4689  -1.685  10.336   7.787  1.5446  0.5326 -2.3322
   35MOL0     H 4690  -1.887  10.480   7.806  0.2684  0.6937 -1.2096
   35MOL0     H 4691  -2.118  10.610   7.430 -1.0789  2.3955  0.0735
   35MOL0     H 4692  -2.201  10.472   7.493 -1.9153  1.0491  0.7728
   35MOL0     H 4693  -2.314  10.599   7.661  1.5594 -0.9566 -0.1378
   35MOL0     H 4694  -2.228  10.748   7.610  0.6070  0.3193 -1.8689
   35MOL0     H 4695  -2.382  10.580   7.405 -2.4241  0.4740  0.0384
   35MOL0     H 4696  -2.336  10.751   7.392  1.0676  1.2737  1.3800
   35MOL0     H 4697  -2.568  10.641   7.560 -0.0606 -2.2162 -4.0869
   35MOL0     H 4698  -2.496  10.804   7.585  2.8596  1.4463 -1.0955
   35MOL0     H 4699  -2.621  10.719   7.321  2.2053 -2.4199  1.4370
   35MOL0     H 4700  -2.542  10.875   7.363  1.4685  0.2517  1.3020
   35MOL0     H 4701  -2.797  10.751   7.471  0.1703 -0.7739  0.0846
   35MOL0     H 4702  -2.717  10.892   7.556  1.1115  0.4005 -0.2645
   35MOL0     H 4703  -2.718  10.970   7.291  1.4719 -2.1808 -0.6997
   35MOL0     H 4704  -2.870  10.999   7.377  1.3044  1.7280  1.9892
   35MOL0     H 4705  -2.967  10.788   7.312  0.7482 -0.2626  0.1559
   35MOL0     H 4706  -2.818  10.750   7.226 -1.0059  1.0887 -2.6236
   35MOL0     H 4707  -1.980  10.427   7.397 -2.1496  0.4992  2.6787
   35MOL0     H 4708  -1.772  10.281   7.369 -1.9562  1.0712 -0.3386
   35MOL0     H 4709  -1.525  10.017   7.483 -0.2070 -0.5532  1.6318
   35MOL0     H 4710  -1.361   9.846   7.409  2.1620 -0.9263  2.1508
   35MOL0     H 4711   0.580   9.669   7.078 -0.4150  0.2564  2.5785
   35MOL0     H 4712   0.795   9.643   7.153 -3.2643  1.7000 -0.9466
   35MOL0     H 4713   0.920   9.307   7.591  0.0673 -2.4887  1.8611
   35MOL0     H 4714   1.114   9.240   7.702  2.9348 -0.0338  1.2180
   35MOL0     H 4715   1.346   9.098   7.718 -1.0102  1.7798 -0.8613
   35MOL0     H 4716   1.325   9.073   7.547 -1.2389  0.6122 -0.1280
   35MOL0     H 4717   1.532   9.014   7.711  0.9200  1.5840  1.1115
   35MOL0     H 4718   1.598   9.158   7.638  0.3309 -0.4518  0.1923
   35MOL0     H 4719   1.545   8.912   7.485  2.1120 -2.1687  3.5930
   35MOL0     H 4720   1.693   8.985   7.516 -1.0184 -0.4102 -0.6303
   35MOL0     H 4721   1.483   9.151   7.379  0.6562  0.2989  0.1450
   35MOL0     H 4722   1.598   9.055   7.289  1.2051 -2.2622  1.4528
   35MOL0     H 4723   1.829   9.384   7.390  0.2535 -0.0005 -3.1963
   35MOL0     H 4724   1.358   9.359   7.373  2.1006 -2.0661  3.9509
   35MOL0     H 4725   1.168   9.416   7.242 -0.5378 -1.7377 -0.3431
   36MOL0     O 4726  10.593   9.339  10.318 -0.0163  0.0145 -0.6663
   36MOL0     C 4727  10.600   9.427  10.238 -0.7103 -0.3717 -0.1820
   36MOL0     O 4728  10.520   9.451  10.127 -0.5495  0.0680  0.0963
   36MOL0     C 4729  10.402   9.383  10.105  0.2260 -0.9696  0.8144
   36MOL0     C 4730  10.332   9.279  10.174 -0.3857  0.4135 -0.1815
   36MOL0     C 4731  10.202   9.239  10.137  0.6978 -0.4146 -0.2600
   36MOL0     C 4732  10.145   9.299  10.023 -0.1781 -0.0844  0.6969
   36MOL0     O 4733  10.021   9.276   9.969  0.8408  0.1610  0.0647
   36MOL0     C 4734   9.960   9.141   9.975  0.3219 -0.6160 -0.2831
   36MOL0     C 4735   9.850   9.156  10.077 -0.1558  0.2952 -0.4987
   36MOL0     C 4736   9.764   9.032  10.095 -0.1106  0.5023 -0.4878
   36MOL0     C 4737   9.694   8.972   9.969 -0.0464 -0.4983  0.1464
   36MOL0     C 4738   9.575   8.877  10.000  0.1158  0.1385 -0.3869
   36MOL0     C 4739   9.494   8.867   9.873 -0.0025  0.6084 -0.1961
   36MOL0     C 4740   9.375   8.768   9.897 -0.0312  1.3419  0.4661
   36MOL0     C 4741   9.282   8.769   9.778  0.6291  0.3921 -0.2276
   36MOL0     N 4742   9.143   8.805   9.818 -0.0674 -0.1642 -0.6294
   36MOL0     C 4743   9.035   8.728   9.788  0.1739  0.0454 -0.1218
   36MOL0     C 4744   8.926   8.784   9.852  0.2064 -0.7925  0.4631
   36MOL0     C 4745   8.788   8.732   9.870 -0.3832 -0.7292  0.8051
   36MOL0     C 4746   8.684   8.804   9.779 -0.5987  0.4555 -0.2371
   36MOL0     C 4747   8.555   8.728   9.799 -0.9897 -1.2488 -0.8151
   36MOL0     C 4748   8.426   8.802   9.751 -0.1361  0.8135  0.1227
   36MOL0     O 4749   8.320   8.744   9.816  0.6720 -0.7473  0.1937
   36MOL0     C 4750   8.194   8.787   9.786  0.0729  0.0480 -1.0483
   36MOL0     C 4751   8.089   8.725   9.863 -0.5445  0.3524 -0.2121
   36MOL0     C 4752   7.953   8.764   9.864 -0.1709  0.4538  0.8296
   36MOL0     C 4753   7.863   8.702   9.961  0.3413  0.2874 -0.3491
   36MOL0     C 4754   7.909   8.863   9.770  0.2452  0.4955  0.0609
   36MOL0     C 4755   7.769   8.914   9.756 -0.1273 -0.2120  1.2030
   36MOL0     O 4756   7.675   8.866   9.835  0.0848 -0.6552 -0.4414
   36MOL0     C 4757   7.547   8.898   9.807  0.2407  0.2515  1.0515
   36MOL0     C 4758   7.486   8.856   9.680 -0.6230 -0.4190  0.9113
   36MOL0     C 4759   7.352   8.889   9.645 -0.2560 -0.1849 -0.0635
   36MOL0     C 4760   7.278   8.959   9.748 -0.2212 -0.3072  0.2407
   36MOL0     O 4761   7.144   8.980   9.732  0.1365  0.7449  0.0080
   36MOL0     C 4762   7.102   9.011   9.599 -0.3074  0.8651 -0.5780
   36MOL0     C 4763   6.972   9.098   9.599 -0.2596 -0.4069 -0.4156
   36MOL0     C 4764   6.851   9.024   9.648 -0.5288  0.5558 -0.0092
   36MOL0     C 4765   6.722   9.097   9.625 -0.0959 -0.3424 -0.2838
   36MOL0     C 4766   6.595   9.033   9.683  0.2294  0.1246  1.1614
   36MOL0     C 4767   6.483   9.135   9.671  0.3071  0.5793  0.2298
   36MOL0     C 4768   6.346   9.079   9.712 -0.9105 -0.0161  0.2608
   36MOL0     C 4769   6.253   9.072   9.589 -0.4296  0.1592  0.6127
   36MOL0    Cl 4770   6.311   8.983   9.441 -0.1341 -0.0359 -0.2808
   36MOL0     C 4771   7.337   8.999   9.863 -0.3768 -0.4638  0.5751
   36MOL0     C 4772   7.470   8.973   9.896  0.1431  0.4571  0.4580
   36MOL0     O 4773   7.755   8.982   9.656 -0.2441  0.0641 -0.0032
   36MOL0     C 4774   8.013   8.918   9.682  0.4240 -0.9814 -0.8871
   36MOL0     C 4775   8.147   8.878   9.692  0.0221 -0.0073  0.2176
   36MOL0     N 4776   8.974   8.910   9.897  0.4321  0.6646 -0.3573
   36MOL0     N 4777   9.107   8.919   9.888 -0.2751  0.4946  0.2710
   36MOL0     C 4778  10.211   9.399   9.960  0.0868 -0.2056 -0.5943
   36MOL0     C 4779  10.340   9.437   9.995 -0.1589 -0.0818 -0.0522
   36MOL0     C 4780  10.709   9.523  10.251 -0.3101  0.3305 -0.1661
   36MOL0     C 4781  10.734   9.621  10.153 -1.1641 -0.2440 -0.0677
   36MOL0     C 4782  10.843   9.713  10.167  0.5232 -0.5473 -0.0273
   36MOL0     C 4783  10.923   9.705  10.274  0.0430 -0.5300 -0.3057
   36MOL0     O 4784  11.044   9.775  10.281  0.2975  0.5655 -0.2291
   36MOL0     C 4785  11.108   9.802  10.155 -0.2189 -0.4063 -0.2922
   36MOL0     C 4786  11.260   9.835  10.141 -0.2494  0.3821  0.1190
   36MOL0     C 4787  11.346   9.750  10.236  0.1574 -1.2179  0.5802
   36MOL0     C 4788  11.488   9.801  10.238 -0.4209  0.0581 -0.6961
   36MOL0     C 4789  11.565   9.723  10.334  0.2564  0.3508  0.5224
   36MOL0     C 4790  11.641   9.666  10.412  0.7104  0.0657 -0.0183
   36MOL0     C 4791  10.898   9.608  10.373  0.1833  0.8714  1.8245
   36MOL0     C 4792  10.791   9.515  10.357 -0.0816 -0.6736 -0.7030
   36MOL0     H 4793  10.375   9.241  10.266 -0.1207  2.9265  0.8186
   36MOL0     H 4794  10.147   9.166  10.196 -1.6597  3.3856  2.7556
   36MOL0     H 4795   9.926   9.118   9.873  2.6094 -2.9326 -0.6216
   36MOL0     H 4796  10.036   9.068  10.005  1.1296  0.7221  1.0480
   36MOL0     H 4797   9.892   9.182  10.174 -0.2783 -3.9466  0.8770
   36MOL0     H 4798   9.786   9.242  10.056 -0.0182  0.1756 -1.4692
   36MOL0     H 4799   9.821   8.943  10.123 -0.2977 -0.5709 -3.2098
   36MOL0     H 4800   9.696   9.053  10.178  0.9699  0.1069  0.5239
   36MOL0     H 4801   9.654   9.054   9.908 -1.8878 -0.9613  0.6751
   36MOL0     H 4802   9.780   8.933   9.914  0.2693  1.9623 -1.2644
   36MOL0     H 4803   9.619   8.783  10.034 -1.1803  0.9978  4.4621
   36MOL0     H 4804   9.513   8.919  10.080  0.0631 -3.2735  1.5801
   36MOL0     H 4805   9.460   8.966   9.843  2.4526  1.3605 -0.7707
   36MOL0     H 4806   9.548   8.812   9.795 -0.7679 -4.1211  2.2363
   36MOL0     H 4807   9.413   8.666   9.909  0.4645  1.5025  0.2846
   36MOL0     H 4808   9.325   8.789   9.992 -1.8182  0.4406 -0.2340
   36MOL0     H 4809   9.283   8.667   9.737 -0.2770  0.4737 -0.4629
   36MOL0     H 4810   9.306   8.841   9.700 -2.9603  1.9239 -0.0811
   36MOL0     H 4811   9.036   8.627   9.748  1.7963 -0.2597  0.6329
   36MOL0     H 4812   8.786   8.625   9.850  2.0430 -1.0684  2.0211
   36MOL0     H 4813   8.757   8.743   9.975  0.3392  0.1949  0.9327
   36MOL0     H 4814   8.695   8.786   9.672 -3.3089 -1.0904 -0.3546
   36MOL0     H 4815   8.677   8.911   9.803 -0.1320 -0.6214  6.7558
   36MOL0     H 4816   8.534   8.700   9.903 -2.5741 -0.1947 -0.8261
   36MOL0     H 4817   8.567   8.631   9.749 -0.1016 -1.4600 -0.2186
   36MOL0     H 4818   8.427   8.801   9.642  1.2363  1.1579  0.1227
   36MOL0     H 4819   8.422   8.905   9.787 -1.3597  0.0851  2.2512
   36MOL0     H 4820   8.120   8.654   9.939 -1.9803 -1.7440 -1.4710
   36MOL0     H 4821   7.919   8.623  10.013  0.5546 -2.1401 -3.8916
   36MOL0     H 4822   7.856   8.779  10.038  1.0521  1.9969 -1.9137
   36MOL0     H 4823   7.765   8.675   9.922 -0.4205 -1.3035  2.3604
   36MOL0     H 4824   7.552   8.804   9.611 -1.0594  0.2331 -0.0162
   36MOL0     H 4825   7.296   8.859   9.557 -3.0836  1.8301  0.9145
   36MOL0     H 4826   7.171   9.078   9.547  0.3805  0.0588 -0.7267
   36MOL0     H 4827   7.074   8.921   9.544  0.6468 -1.2785  2.1949
   36MOL0     H 4828   6.994   9.180   9.668 -0.1412 -1.0682  0.3512
   36MOL0     H 4829   6.944   9.129   9.498 -2.2376  0.0075  0.2136
   36MOL0     H 4830   6.856   8.999   9.755 -1.2223 -0.5214 -0.2141
   36MOL0     H 4831   6.857   8.935   9.585  0.9622 -0.3893  1.3666
   36MOL0     H 4832   6.728   9.200   9.662  3.5288 -1.2447  2.2871
   36MOL0     H 4833   6.711   9.106   9.517  2.0312  0.3413 -0.4869
   36MOL0     H 4834   6.604   9.009   9.790  3.6263 -2.8200  0.4254
   36MOL0     H 4835   6.578   8.939   9.630  1.5173  0.5589 -0.0885
   36MOL0     H 4836   6.510   9.228   9.721  2.3582  1.4712 -2.3406
   36MOL0     H 4837   6.481   9.162   9.565  2.0314  1.8357  0.4751
   36MOL0     H 4838   6.307   9.150   9.786  0.9937  0.2563  1.0455
   36MOL0     H 4839   6.359   8.984   9.764  1.0531 -0.4266 -0.8862
   36MOL0     H 4840   6.223   9.172   9.558  1.0444 -0.0559 -1.7759
   36MOL0     H 4841   6.161   9.020   9.617  0.0460 -0.4444  1.0728
   36MOL0     H 4842   7.280   9.058   9.933  1.3563  2.8583 -0.5907
   36MOL0     H 4843   7.500   9.009   9.994  1.1781  3.0658 -0.7197
   36MOL0     H 4844   7.994   8.997   9.610  3.5886  2.7024  1.9145
   36MOL0     H 4845   8.214   8.939   9.633 -3.5325  3.7928 -0.2849
   36MOL0     H 4846  10.151   9.440   9.879  0.0613  0.7898 -0.0826
   36MOL0     H 4847  10.394   9.517   9.947  0.8609 -0.2170  0.8298
   36MOL0     H 4848  10.669   9.633  10.067 -1.3989 -1.3952 -0.0668
   36MOL0     H 4849  10.847   9.797  10.098 -0.2574  0.5329  1.1951
   36MOL0     H 4850  11.099   9.717  10.087  1.2339 -0.3471 -0.5786
   36MOL0     H 4851  11.053   9.884  10.107 -0.2602  0.1453  0.6764
   36MOL0     H 4852  11.291   9.934  10.177  0.6165 -0.5515  2.0675
   36MOL0     H 4853  11.306   9.829  10.042 -0.0653 -1.5331  0.2793
   36MOL0     H 4854  11.349   9.647  10.199  1.6421 -1.2933  0.8216
   36MOL0     H 4855  11.293   9.754  10.332 -1.3160  0.4690 -0.2469
   36MOL0     H 4856  11.489   9.909  10.254  1.5555  0.2242 -1.6329
   36MOL0     H 4857  11.535   9.812  10.139  2.3732  1.1303  0.6172
   36MOL0     H 4858  11.712   9.612  10.471  0.2711  1.1840  1.5746
   36MOL0     H 4859  10.983   9.600  10.440  0.3551  3.4551  2.0104
   36MOL0     H 4860  10.788   9.437  10.432 -0.3596 -1.7380 -1.7802
   37MOL0     O 4861   2.553   8.192   9.080  0.3394  0.1115  0.1963
   37MOL0     C 4862   2.472   8.274   9.028  0.1438  0.6588 -0.7448
   37MOL0     O 4863   2.502   8.372   8.943  0.2444 -0.0233  0.1795
   37MOL0     C 4864   2.643   8.396   8.918 -0.6670  0.5032  0.4332
   37MOL0     C 4865   2.736   8.432   9.020  0.1252  0.4784  0.4847
   37MOL0     C 4866   2.869   8.454   8.988  0.1079  0.2849 -0.8152
   37MOL0     C 4867   2.915   8.450   8.854 -0.2162  0.4639  0.3722
   37MOL0     O 4868   3.052   8.463   8.848 -0.8832  0.0034  0.0005
   37MOL0     C 4869   3.130   8.472   8.723  0.3776 -0.3678  0.7252
   37MOL0     C 4870   3.151   8.623   8.691 -0.3116  0.8372  0.3819
   37MOL0     C 4871   3.261   8.669   8.790 -0.5095 -0.2441  0.7278
   37MOL0     C 4872   3.293   8.818   8.764 -0.2833  0.4184 -0.2140
   37MOL0     C 4873   3.427   8.863   8.828  0.7708 -0.0832  0.5466
   37MOL0     C 4874   3.402   8.882   8.980  0.2368  0.7736  0.2717
   37MOL0     C 4875   3.531   8.921   9.050 -0.1278  0.6202  0.1754
   37MOL0     C 4876   3.495   8.968   9.200  0.0758  0.6083  0.1559
   37MOL0     N 4877   3.590   9.074   9.247 -0.7339 -0.3209 -0.0077
   37MOL0     C 4878   3.718   9.058   9.297  0.3903  0.0732  0.1056
   37MOL0     C 4879   3.772   9.186   9.310 -0.8169  0.9373 -0.0163
   37MOL0     C 4880   3.892   9.239   9.390  0.1040  0.4621 -0.5944
   37MOL0     C 4881   3.844   9.257   9.539 -0.5238 -0.3026  0.5170
   37MOL0     C 4882   3.919   9.372   9.609  1.0590  0.7582 -0.1062
   37MOL0     C 4883   3.875   9.368   9.753  0.3902 -0.4345  0.3935
   37MOL0     O 4884   3.920   9.249   9.819 -0.1075 -0.3547 -0.1549
   37MOL0     C 4885   3.883   9.230   9.948 -0.2129 -1.0875  0.1019
   37MOL0     C 4886   3.840   9.331  10.037 -0.3781  0.3883  0.1390
   37MOL0     C 4887   3.797   9.299  10.167 -0.1206 -0.1977 -0.6563
   37MOL0     C 4888   3.754   9.419  10.242 -0.0413 -0.4687 -0.2673
   37MOL0     C 4889   3.801   9.163  10.214  0.3634 -0.5833 -1.3640
   37MOL0     C 4890   3.769   9.118  10.355 -0.3106 -0.7377 -0.6274
   37MOL0     O 4891   3.810   8.986  10.375  0.3679 -0.3994 -1.0079
   37MOL0     C 4892   3.833   8.934  10.501  0.5850  0.2370  0.4917
   37MOL0     C 4893   3.848   8.789  10.506 -0.4193 -0.7524 -0.3827
   37MOL0     C 4894   3.887   8.723  10.626 -0.4546  0.0865  0.2144
   37MOL0     C 4895   3.896   8.790  10.745  0.2106 -0.0451 -0.2236
   37MOL0     O 4896   3.924   8.734  10.870  0.1342  0.1103  0.0498
   37MOL0     C 4897   3.816   8.719  10.969 -0.3577 -0.6292  0.5845
   37MOL0     C 4898   3.728   8.602  10.928 -0.8787  0.5855 -0.4364
   37MOL0     C 4899   3.793   8.474  10.886 -0.3697  0.6556 -0.2797
   37MOL0     C 4900   3.689   8.385  10.803 -0.4833  0.1386 -0.6504
   37MOL0     C 4901   3.752   8.257  10.764  0.7905  0.7751  0.7952
   37MOL0     C 4902   3.640   8.156  10.734  0.1038  0.0319 -0.0966
   37MOL0     C 4903   3.684   8.028  10.665 -0.4506 -0.9582 -0.8644
   37MOL0     C 4904   3.580   7.918  10.668  0.6114 -0.3860  0.8620
   37MOL0    Cl 4905   3.497   7.907  10.826 -0.3842 -0.2443  0.2911
   37MOL0     C 4906   3.873   8.927  10.737 -0.1300  0.6302 -0.9641
   37MOL0     C 4907   3.831   8.995  10.626 -0.4722 -0.0893 -0.6267
   37MOL0     O 4908   3.704   9.193  10.431  0.2662  0.2873  0.2548
   37MOL0     C 4909   3.849   9.063  10.123  0.3077 -0.4721 -0.0023
   37MOL0     C 4910   3.894   9.103  10.000  0.3436  0.2876  0.9060
   37MOL0     N 4911   3.692   9.271   9.243  0.1327 -0.7263 -0.7961
   37MOL0     N 4912   3.579   9.206   9.220 -0.4523  0.0006  0.2657
   37MOL0     C 4913   2.826   8.432   8.754  0.1692  0.5860 -0.2702
   37MOL0     C 4914   2.689   8.406   8.784  0.2107 -0.1528 -0.4332
   37MOL0     C 4915   2.328   8.246   9.047  0.4841 -0.5669 -0.1116
   37MOL0     C 4916   2.296   8.153   9.146 -0.6995  0.7309 -0.7881
   37MOL0     C 4917   2.161   8.113   9.151 -0.1617 -0.1153  0.1234
   37MOL0     C 4918   2.061   8.163   9.066  0.1934 -0.1623  0.2923
   37MOL0     O 4919   1.928   8.124   9.057 -0.1400 -0.1133 -0.6448
   37MOL0     C 4920   1.901   7.985   9.079  0.7174  0.5520  0.5969
   37MOL0     C 4921   1.755   7.968   9.051 -0.1528  0.1215 -0.8744
   37MOL0     C 4922   1.670   8.033   9.160  0.0889  0.0164 -0.4235
   37MOL0     C 4923   1.523   7.997   9.142 -0.9660  0.6834 -0.3698
   37MOL0     C 4924   1.435   8.071   9.226 -0.4873 -0.1179 -1.1229
   37MOL0     C 4925   1.355   8.129   9.290  0.0561 -0.8273 -0.4817
   37MOL0     C 4926   2.101   8.269   8.978 -0.1620  0.3035 -0.0565
   37MOL0     C 4927   2.232   8.315   8.976 -0.0555  0.1905 -0.2434
   37MOL0     H 4928   2.686   8.430   9.117 -0.7622  1.0060  0.0531
   37MOL0     H 4929   2.934   8.447   9.075  0.4630 -1.0425 -1.1681
   37MOL0     H 4930   3.227   8.421   8.722  0.7211  0.2347 -1.6658
   37MOL0     H 4931   3.066   8.422   8.649 -2.4348  0.2691  2.5842
   37MOL0     H 4932   3.193   8.638   8.591  3.3067  1.6552  1.8831
   37MOL0     H 4933   3.057   8.678   8.705 -0.3864  0.2589  2.4453
   37MOL0     H 4934   3.228   8.652   8.893 -4.3376 -1.7820 -0.5616
   37MOL0     H 4935   3.344   8.603   8.762 -1.5367 -0.5242 -1.9463
   37MOL0     H 4936   3.284   8.825   8.656  0.6862 -1.2696 -0.4423
   37MOL0     H 4937   3.215   8.878   8.813 -0.9706  0.8425 -1.7618
   37MOL0     H 4938   3.505   8.788   8.810  1.0350  0.6559 -1.6330
   37MOL0     H 4939   3.465   8.956   8.786  0.6396 -0.5615 -0.6737
   37MOL0     H 4940   3.323   8.956   8.997  0.7898  1.9850 -2.0218
   37MOL0     H 4941   3.373   8.788   9.027  0.2214 -0.2317 -1.6527
   37MOL0     H 4942   3.609   8.845   9.050 -2.1561 -1.5901  0.5731
   37MOL0     H 4943   3.584   9.009   9.011 -0.5155  1.6073  1.7568
   37MOL0     H 4944   3.494   8.878   9.263  1.4534 -0.0914 -0.7717
   37MOL0     H 4945   3.401   9.023   9.202 -0.3096  0.0357 -1.0797
   37MOL0     H 4946   3.765   8.967   9.335 -1.6413 -0.5917  1.1737
   37MOL0     H 4947   3.981   9.176   9.390 -1.0457 -1.2779  0.4342
   37MOL0     H 4948   3.912   9.336   9.344  4.0678  1.4032  2.5370
   37MOL0     H 4949   3.862   9.164   9.593  0.5592  0.0397  0.7552
   37MOL0     H 4950   3.735   9.269   9.548 -0.4575 -0.5546  1.8012
   37MOL0     H 4951   3.889   9.473   9.578  1.7102  1.6631  2.0305
   37MOL0     H 4952   4.026   9.368   9.586  0.8139  0.4142 -1.2522
   37MOL0     H 4953   3.768   9.384   9.768  0.7126 -0.6592  4.0415
   37MOL0     H 4954   3.924   9.453   9.804  2.4737 -1.1200 -0.3602
   37MOL0     H 4955   3.831   9.435  10.007 -0.8674  0.1786 -0.4640
   37MOL0     H 4956   3.657   9.394  10.287  0.3100 -0.7324  0.3554
   37MOL0     H 4957   3.832   9.442  10.315  0.7141  2.3141 -1.8363
   37MOL0     H 4958   3.733   9.504  10.176  0.6629  1.8066  2.2878
   37MOL0     H 4959   3.841   8.743  10.408  0.5421  0.4159 -1.0262
   37MOL0     H 4960   3.917   8.619  10.626 -0.3896  0.0613  2.1510
   37MOL0     H 4961   3.854   8.703  11.071 -0.1973 -0.0323  0.6211
   37MOL0     H 4962   3.754   8.809  10.973  0.6703  0.1236  0.2317
   37MOL0     H 4963   3.665   8.571  11.012  3.1271  0.6002  2.9433
   37MOL0     H 4964   3.673   8.629  10.838 -0.3264 -1.6332 -1.5182
   37MOL0     H 4965   3.815   8.414  10.975  0.6831  1.4436  0.0070
   37MOL0     H 4966   3.883   8.488  10.827 -0.5012  0.7098 -0.4677
   37MOL0     H 4967   3.586   8.392  10.839 -1.5692  1.8700 -3.6754
   37MOL0     H 4968   3.674   8.442  10.711  0.0726  2.1236  0.4394
   37MOL0     H 4969   3.816   8.227  10.847 -0.7318 -0.4137  1.5912
   37MOL0     H 4970   3.808   8.271  10.672 -0.6945 -1.4482 -0.5209
   37MOL0     H 4971   3.595   8.132  10.831  0.3031  0.2168  0.0419
   37MOL0     H 4972   3.565   8.205  10.671  0.8198  3.1823  1.3278
   37MOL0     H 4973   3.771   7.996  10.723 -2.3008 -1.1190  2.0647
   37MOL0     H 4974   3.727   8.048  10.567  2.8153 -1.5847  0.3062
   37MOL0     H 4975   3.617   7.821  10.634 -0.7741 -0.7080  0.1776
   37MOL0     H 4976   3.501   7.951  10.600  1.5710 -0.2706 -0.2382
   37MOL0     H 4977   3.875   8.985  10.828  3.5377 -1.3391  0.3801
   37MOL0     H 4978   3.803   9.100  10.632 -1.7093 -0.4726  1.3324
   37MOL0     H 4979   3.866   8.961  10.158  2.8182  0.1389  0.7915
   37MOL0     H 4980   3.934   9.020   9.942 -0.5411 -1.0930  2.2050
   37MOL0     H 4981   2.857   8.433   8.650  3.1850 -1.5918  0.4523
   37MOL0     H 4982   2.620   8.386   8.703  1.7956 -2.0249 -1.3790
   37MOL0     H 4983   2.364   8.099   9.210 -2.1017  0.7725  0.8200
   37MOL0     H 4984   2.142   8.041   9.230  2.5351  1.0840  2.0302
   37MOL0     H 4985   1.955   7.930   9.002 -0.4938 -0.6477  0.5576
   37MOL0     H 4986   1.922   7.953   9.181  3.1863  0.4267  0.1102
   37MOL0     H 4987   1.735   7.863   9.031  0.4085 -0.1008 -0.2944
   37MOL0     H 4988   1.719   8.007   8.955 -0.5613 -2.2831 -1.7574
   37MOL0     H 4989   1.678   8.141   9.146 -3.7397  0.4297 -0.5334
   37MOL0     H 4990   1.708   8.010   9.259 -0.7091  2.0300  0.4018
   37MOL0     H 4991   1.524   7.894   9.178 -0.7781  0.6525 -0.4652
   37MOL0     H 4992   1.491   8.024   9.040  0.4321  0.9340 -0.7567
   37MOL0     H 4993   1.296   8.187   9.357  2.1776  0.5104  0.3179
   37MOL0     H 4994   2.033   8.310   8.905  0.9848  2.8235  0.1914
   37MOL0     H 4995   2.252   8.397   8.908 -0.6873 -0.3564 -1.1150
   38MOL0     O 4996   4.286   7.396  11.319  0.2007 -0.5861 -0.4168
   38MOL0     C 4997   4.318   7.317  11.241  0.3568  0.0224  0.0777
   38MOL0     O 4998   4.233   7.219  11.189 -0.0080  0.0614  0.4035
   38MOL0     C 4999   4.101   7.208  11.233  0.5362 -0.0322 -0.5627
   38MOL0     C 5000   3.983   7.273  11.180 -0.6261  0.0239 -0.0149
   38MOL0     C 5001   3.848   7.239  11.203 -0.6194  0.2716  1.4698
   38MOL0     C 5002   3.829   7.128  11.282  0.7461 -0.3840  0.0522
   38MOL0     O 5003   3.697   7.082  11.310 -0.2802 -0.0254  0.2139
   38MOL0     C 5004   3.580   7.158  11.304 -0.5313 -0.3584  0.1126
   38MOL0     C 5005   3.480   7.050  11.328 -0.2866 -0.5475  0.1195
   38MOL0     C 5006   3.351   7.120  11.397 -0.8631 -0.2717 -0.4354
   38MOL0     C 5007   3.284   7.237  11.321  0.1065  0.3222  0.9305
   38MOL0     C 5008   3.184   7.310  11.396 -0.5717 -0.2263 -0.1702
   38MOL0     C 5009   3.054   7.225  11.418 -0.3944  0.2058 -0.1247
   38MOL0     C 5010   2.942   7.311  11.475 -0.4805 -0.2268  0.4705
   38MOL0     C 5011   2.809   7.235  11.502 -0.7322  0.0471  0.7793
   38MOL0     N 5012   2.701   7.318  11.558 -0.2814  0.3317 -0.8689
   38MOL0     C 5013   2.589   7.355  11.488 -0.7714 -0.2391 -0.2318
   38MOL0     C 5014   2.512   7.415  11.579 -0.1095 -0.3087 -0.5641
   38MOL0     C 5015   2.376   7.467  11.555 -0.3858  0.3755 -0.3459
   38MOL0     C 5016   2.252   7.376  11.568 -1.0698 -0.1067  0.1569
   38MOL0     C 5017   2.217   7.331  11.711  0.0192 -0.0339 -0.0648
   38MOL0     C 5018   2.073   7.284  11.744  0.0700 -0.3319  1.1181
   38MOL0     O 5019   2.024   7.182  11.653 -0.8884  0.1514 -0.5265
   38MOL0     C 5020   1.900   7.173  11.618  0.1204  0.0638 -0.8419
   38MOL0     C 5021   1.884   7.103  11.504  0.2825 -0.2058  0.0354
   38MOL0     C 5022   1.758   7.089  11.445 -0.0868 -0.4185 -0.7298
   38MOL0     C 5023   1.747   7.026  11.308 -0.3633 -0.2532 -1.1115
   38MOL0     C 5024   1.640   7.138  11.511 -0.1052 -0.0537  0.2676
   38MOL0     C 5025   1.498   7.111  11.479  0.0121 -0.6667 -0.2394
   38MOL0     O 5026   1.404   7.200  11.525  0.4879  0.2029  0.5396
   38MOL0     C 5027   1.274   7.167  11.506 -0.0438 -1.0296 -0.1591
   38MOL0     C 5028   1.211   7.186  11.381 -0.0124 -0.0325 -0.3015
   38MOL0     C 5029   1.076   7.132  11.370 -0.6240  0.2948  0.1425
   38MOL0     C 5030   1.000   7.110  11.476  0.2357  0.1080 -0.1078
   38MOL0     O 5031   0.864   7.082  11.481  0.2660  0.0315 -0.6240
   38MOL0     C 5032   0.788   7.126  11.371 -0.5746  0.2857  0.1465
   38MOL0     C 5033   0.644   7.172  11.414  0.5984  0.2380 -0.1678
   38MOL0     C 5034   0.552   7.057  11.469 -0.2552  0.8122 -0.0468
   38MOL0     C 5035   0.414   7.047  11.408  0.0085 -0.3753  0.0984
   38MOL0     C 5036   0.338   6.927  11.465 -0.0647  0.2283  0.0320
   38MOL0     C 5037   0.195   6.939  11.424  0.1915  0.1757 -0.1297
   38MOL0     C 5038   0.184   6.885  11.275 -0.0875  0.8029  0.0040
   38MOL0     C 5039   0.034   6.895  11.233  0.1858 -0.7310  0.3748
   38MOL0    Cl 5040   0.026   6.833  11.066 -0.1837 -0.5149  0.5431
   38MOL0     C 5041   1.059   7.107  11.598  0.4097  0.3377 -0.1024
   38MOL0     C 5042   1.199   7.134  11.618  0.3786 -0.2629  0.2992
   38MOL0     O 5043   1.474   7.014  11.411 -0.2943 -0.3195  0.5705
   38MOL0     C 5044   1.661   7.204  11.632  0.6002 -0.4374 -0.0510
   38MOL0     C 5045   1.786   7.222  11.686 -0.3785 -0.8729 -0.3402
   38MOL0     N 5046   2.585   7.432  11.698 -0.0404  0.1350 -0.7883
   38MOL0     N 5047   2.702   7.381  11.684 -1.1176  1.0193 -0.4869
   38MOL0     C 5048   3.941   7.063  11.347  0.0697 -0.6920  0.6349
   38MOL0     C 5049   4.076   7.101  11.321 -0.7966 -0.0019 -0.3496
   38MOL0     C 5050   4.455   7.313  11.203  0.4513  0.7997 -0.0593
   38MOL0     C 5051   4.498   7.227  11.098 -0.5309 -0.3160 -0.5020
   38MOL0     C 5052   4.623   7.224  11.053 -0.1288 -0.0111 -0.0682
   38MOL0     C 5053   4.716   7.319  11.101 -0.8136  0.1197  0.6623
   38MOL0     O 5054   4.846   7.331  11.063  0.8272 -0.0669 -0.1117
   38MOL0     C 5055   4.861   7.318  10.922  0.0249 -0.4310 -0.3420
   38MOL0     C 5056   5.012   7.298  10.892  0.2802 -0.9184  0.6654
   38MOL0     C 5057   5.047   7.158  10.940  0.2839  0.1527 -0.0677
   38MOL0     C 5058   5.196   7.130  10.935 -0.8454  0.1572 -0.7846
   38MOL0     C 5059   5.259   7.169  11.062  0.2836  0.3892 -0.1347
   38MOL0     C 5060   5.325   7.186  11.154  0.5007 -0.2576 -0.9347
   38MOL0     C 5061   4.675   7.403  11.203  0.4028 -1.0519  0.2686
   38MOL0     C 5062   4.551   7.395  11.264  0.2923 -0.9930  0.3249
   38MOL0     H 5063   4.011   7.344  11.103  0.5287 -0.0318  0.3327
   38MOL0     H 5064   3.765   7.282  11.147 -0.3823 -0.3837  0.6051
   38MOL0     H 5065   3.605   7.236  11.376  0.6210 -1.0118  0.4364
   38MOL0     H 5066   3.563   7.205  11.206  0.4885 -3.9117 -1.9727
   38MOL0     H 5067   3.457   7.014  11.226  0.9115  4.7318 -2.3413
   38MOL0     H 5068   3.516   6.965  11.386 -0.3384 -0.8759 -0.3169
   38MOL0     H 5069   3.270   7.047  11.409  0.6083 -1.6049  2.8328
   38MOL0     H 5070   3.378   7.159  11.496 -3.1368 -0.3454  0.2645
   38MOL0     H 5071   3.364   7.306  11.291  2.4448 -0.9466  3.7012
   38MOL0     H 5072   3.240   7.197  11.229 -2.1414  1.2785  1.5206
   38MOL0     H 5073   3.214   7.353  11.492 -2.7733 -1.5326  1.2163
   38MOL0     H 5074   3.171   7.393  11.326  2.0691 -1.0691 -1.8143
   38MOL0     H 5075   3.017   7.181  11.325  0.0149 -1.1818  0.3449
   38MOL0     H 5076   3.070   7.149  11.495  0.4553 -0.9148 -1.3342
   38MOL0     H 5077   2.968   7.356  11.572 -3.2262  1.2558  0.6380
   38MOL0     H 5078   2.916   7.389  11.403 -1.3281 -0.6445  0.3175
   38MOL0     H 5079   2.833   7.162  11.579  3.4686 -0.8722 -1.0944
   38MOL0     H 5080   2.772   7.180  11.415  1.1683  0.3432 -0.2864
   38MOL0     H 5081   2.568   7.343  11.382 -1.9589  1.4432 -0.2386
   38MOL0     H 5082   2.376   7.551  11.625 -0.0501 -0.9998  1.3638
   38MOL0     H 5083   2.386   7.507  11.454  0.1729 -1.6514 -1.1369
   38MOL0     H 5084   2.258   7.290  11.501  1.7381  1.9540 -2.5468
   38MOL0     H 5085   2.185   7.455  11.533 -0.7287 -0.4442 -1.3608
   38MOL0     H 5086   2.236   7.410  11.783  0.1632 -2.3060  2.5757
   38MOL0     H 5087   2.282   7.246  11.735 -1.2217 -1.0076 -0.0182
   38MOL0     H 5088   2.006   7.369  11.729  0.3871 -0.3646 -0.7183
   38MOL0     H 5089   2.062   7.246  11.846 -1.8029 -1.1107  0.6712
   38MOL0     H 5090   1.972   7.072  11.448  0.8704  0.4685  0.5609
   38MOL0     H 5091   1.706   6.930  11.342 -0.0975  0.5692  1.8541
   38MOL0     H 5092   1.664   7.066  11.249 -1.7315 -0.0628  0.8060
   38MOL0     H 5093   1.844   7.013  11.260 -0.2238  0.2004 -0.9483
   38MOL0     H 5094   1.261   7.214  11.289  0.9186 -0.9988 -0.1063
   38MOL0     H 5095   1.025   7.113  11.276 -1.9150 -1.4373  1.1185
   38MOL0     H 5096   0.833   7.215  11.328 -1.6191 -0.2888 -2.2975
   38MOL0     H 5097   0.784   7.046  11.297 -0.6988  0.5835 -0.1684
   38MOL0     H 5098   0.640   7.252  11.488 -0.7770  0.4199 -0.4156
   38MOL0     H 5099   0.593   7.213  11.326 -1.2706  2.3904  1.7708
   38MOL0     H 5100   0.531   7.073  11.575  0.0554 -0.0354  0.1504
   38MOL0     H 5101   0.609   6.964  11.472 -0.6176  0.6119  1.1382
   38MOL0     H 5102   0.363   7.141  11.433 -1.4712 -1.1422  0.0809
   38MOL0     H 5103   0.426   7.040  11.300  0.0466 -0.9366  0.1333
   38MOL0     H 5104   0.351   6.934  11.573  3.0540 -0.0700 -0.2171
   38MOL0     H 5105   0.375   6.829  11.435 -0.7235 -0.7506  2.2156
   38MOL0     H 5106   0.138   6.873  11.489 -0.2864 -1.2841 -1.9473
   38MOL0     H 5107   0.155   7.040  11.436 -1.4059 -0.6766  2.6500
   38MOL0     H 5108   0.195   6.777  11.286 -3.1352  0.6663  4.8612
   38MOL0     H 5109   0.240   6.937  11.197  1.0292 -0.5180 -0.1088
   38MOL0     H 5110  -0.001   6.999  11.232 -1.6781 -1.2594 -2.8101
   38MOL0     H 5111  -0.021   6.835  11.306 -2.0871  0.2946 -0.4172
   38MOL0     H 5112   0.997   7.093  11.686 -0.6079  1.9107 -0.5398
   38MOL0     H 5113   1.235   7.144  11.720  1.5230  0.3615 -0.1438
   38MOL0     H 5114   1.578   7.250  11.684  3.6620  3.4303  1.9438
   38MOL0     H 5115   1.805   7.263  11.785  1.9027 -0.5743 -0.8548
   38MOL0     H 5116   3.931   6.968  11.397 -0.0874 -2.0384 -1.8152
   38MOL0     H 5117   4.159   7.051  11.370  0.8016  0.5909 -2.2970
   38MOL0     H 5118   4.418   7.169  11.053 -1.1790 -0.4442  0.7715
   38MOL0     H 5119   4.647   7.148  10.979  1.1324  0.6110 -0.3272
   38MOL0     H 5120   4.806   7.232  10.881 -3.5068  1.9336 -0.9899
   38MOL0     H 5121   4.811   7.401  10.873 -0.1290 -0.5418 -0.3747
   38MOL0     H 5122   5.063   7.376  10.948 -1.6350  2.6005 -2.0818
   38MOL0     H 5123   5.020   7.307  10.783  1.2572  0.5450  0.8277
   38MOL0     H 5124   5.001   7.081  10.877  0.7408  0.9702 -1.4547
   38MOL0     H 5125   5.010   7.144  11.042 -1.3153  3.2204 -0.1243
   38MOL0     H 5126   5.252   7.185  10.858  1.9320  0.7778  1.4751
   38MOL0     H 5127   5.208   7.023  10.914 -6.2642 -0.7831 -0.3958
   38MOL0     H 5128   5.378   7.210  11.244 -0.3740 -0.5576 -0.3200
   38MOL0     H 5129   4.738   7.476  11.254 -0.2871  0.9221 -1.5578
   38MOL0     H 5130   4.520   7.463  11.343 -1.3422  0.3817 -1.4060
   39MOL0     O 5131   1.298   9.887  10.405 -0.5081  0.3206 -0.3332
   39MOL0     C 5132   1.306   9.978  10.491 -0.4061  1.3467  0.0241
   39MOL0     O 5133   1.217  10.066  10.526  0.0018 -0.1311 -0.1472
   39MOL0     C 5134   1.095  10.073  10.467 -0.0782  0.1258 -1.0473
   39MOL0     C 5135   1.010   9.962  10.468 -0.5177 -0.7538  0.0065
   39MOL0     C 5136   0.872   9.982  10.421  0.3489  1.5333  0.2572
   39MOL0     C 5137   0.825  10.105  10.371 -1.6457  0.3830  0.6452
   39MOL0     O 5138   0.707  10.130  10.312 -0.0671  0.4094 -0.1844
   39MOL0     C 5139   0.613  10.022  10.318  0.4414  0.4581  0.7030
   39MOL0     C 5140   0.482  10.072  10.272  0.2021 -0.9821 -0.2898
   39MOL0     C 5141   0.448  10.201  10.343  0.0709  0.4978 -0.7388
   39MOL0     C 5142   0.299  10.225  10.337 -0.2439 -0.1749 -0.1242
   39MOL0     C 5143   0.254  10.319  10.452 -0.3614 -0.1322 -0.2738
   39MOL0     C 5144   0.124  10.396  10.432 -0.0702 -0.3633  0.9545
   39MOL0     C 5145  -0.004  10.312  10.453 -0.1583  0.3609 -0.1870
   39MOL0     C 5146  -0.119  10.359  10.361  0.4330  0.1805 -0.4777
   39MOL0     N 5147  -0.255  10.330  10.415  1.2297  0.2641 -1.3578
   39MOL0     C 5148  -0.320  10.214  10.394  0.6946 -0.0825 -0.7620
   39MOL0     C 5149  -0.452  10.240  10.418  0.6303  0.4509  0.0990
   39MOL0     C 5150  -0.568  10.145  10.413  0.7208 -0.4369  0.1488
   39MOL0     C 5151  -0.647  10.205  10.287 -0.9422 -0.1089  0.0754
   39MOL0     C 5152  -0.769  10.124  10.241  1.6619 -0.9948 -0.2636
   39MOL0     C 5153  -0.904  10.150  10.330  0.0720  0.1533 -0.3722
   39MOL0     O 5154  -1.008  10.081  10.249 -0.7649 -0.0514 -0.2658
   39MOL0     C 5155  -1.140  10.098  10.278  0.2408  0.2818  0.7024
   39MOL0     C 5156  -1.239  10.068  10.192 -0.1699  0.3152 -0.3509
   39MOL0     C 5157  -1.378  10.102  10.219  1.0823  0.3674  0.0648
   39MOL0     C 5158  -1.472  10.042  10.121  0.8234  0.2340  0.5146
   39MOL0     C 5159  -1.419  10.167  10.337  0.0478 -0.1283 -0.0660
   39MOL0     C 5160  -1.563  10.218  10.379  0.0762  0.0907 -0.2953
   39MOL0     O 5161  -1.658  10.253  10.286  0.0751 -0.4469 -0.1742
   39MOL0     C 5162  -1.791  10.295  10.312 -0.6715 -0.7849 -0.3813
   39MOL0     C 5163  -1.825  10.395  10.414  0.3007 -0.0553 -0.1154
   39MOL0     C 5164  -1.963  10.407  10.445  0.7203 -0.4374 -0.2836
   39MOL0     C 5165  -2.053  10.335  10.367  0.0759  0.6664 -0.7127
   39MOL0     O 5166  -2.185  10.359  10.387  0.0862 -0.7656 -0.7167
   39MOL0     C 5167  -2.270  10.238  10.391 -0.6592  0.1691 -0.1112
   39MOL0     C 5168  -2.391  10.275  10.464  0.2700 -0.0671 -1.0030
   39MOL0     C 5169  -2.371  10.290  10.610 -0.4446  0.1756 -0.6293
   39MOL0     C 5170  -2.331  10.156  10.685 -0.0097 -0.3720 -0.2227
   39MOL0     C 5171  -2.298  10.200  10.827  0.4250  0.3011  1.0437
   39MOL0     C 5172  -2.161  10.261  10.850  0.4327  0.0187  0.5170
   39MOL0     C 5173  -2.145  10.278  11.003 -0.1250 -0.8504 -0.0340
   39MOL0     C 5174  -2.029  10.367  11.045 -0.0892 -0.0454 -1.3398
   39MOL0    Cl 5175  -2.082  10.531  11.010  0.4146 -0.1990 -0.3034
   39MOL0     C 5176  -2.019  10.253  10.265  0.0383  0.1115 -0.1751
   39MOL0     C 5177  -1.882  10.230  10.237  0.2734  0.1916  0.3718
   39MOL0     O 5178  -1.580  10.217  10.497 -0.2973 -0.1344 -0.4950
   39MOL0     C 5179  -1.314  10.213  10.416 -0.1139  0.2297 -0.0260
   39MOL0     C 5180  -1.176  10.180  10.386  0.3792  0.0086 -0.7259
   39MOL0     N 5181  -0.455  10.363  10.474  0.3995 -0.4393 -0.6236
   39MOL0     N 5182  -0.341  10.420  10.466 -0.3339 -0.7028  0.0067
   39MOL0     C 5183   0.915  10.213  10.388  0.3385 -0.0272 -0.0939
   39MOL0     C 5184   1.049  10.197  10.427 -0.0434 -0.4963 -0.7231
   39MOL0     C 5185   1.437   9.974  10.565 -0.1806  0.0773  0.4380
   39MOL0     C 5186   1.542   9.914  10.498 -0.1174  0.4538 -0.0569
   39MOL0     C 5187   1.668   9.905  10.565  0.3077  0.6895 -1.4981
   39MOL0     C 5188   1.683   9.951  10.699 -0.1387  0.1700 -0.5376
   39MOL0     O 5189   1.796   9.926  10.776 -0.5634  0.0124  0.5765
   39MOL0     C 5190   1.872   9.808  10.746 -0.6573  0.7458 -0.3555
   39MOL0     C 5191   1.993   9.848  10.669 -0.5687  0.6480  0.8092
   39MOL0     C 5192   2.096   9.731  10.639  0.5140 -0.2533 -0.2906
   39MOL0     C 5193   2.234   9.770  10.588  0.4828 -0.3240 -0.8179
   39MOL0     C 5194   2.303   9.862  10.684  0.2007 -0.1775 -1.1650
   39MOL0     C 5195   2.335   9.929  10.777 -0.6673 -0.6504 -0.4364
   39MOL0     C 5196   1.576  10.021  10.760 -0.2941  0.4452  0.9373
   39MOL0     C 5197   1.455  10.034  10.694 -0.6030  0.7716  0.6002
   39MOL0     H 5198   1.052   9.868  10.502  0.7399 -0.6433 -1.2127
   39MOL0     H 5199   0.804   9.897  10.420  0.3733  1.3642 -3.7333
   39MOL0     H 5200   0.652   9.938  10.260  0.6223 -1.9911  4.0706
   39MOL0     H 5201   0.609   9.988  10.422 -0.6855 -0.0968  0.4893
   39MOL0     H 5202   0.488  10.098  10.166 -0.8403 -1.0938 -0.3851
   39MOL0     H 5203   0.404   9.996  10.281 -0.4153 -0.3034  0.1704
   39MOL0     H 5204   0.477  10.186  10.447 -1.7832  0.3050 -0.2199
   39MOL0     H 5205   0.504  10.288  10.308 -0.7142  2.1159  1.8202
   39MOL0     H 5206   0.264  10.276  10.247  3.0487  2.1795 -0.2537
   39MOL0     H 5207   0.258  10.125  10.355  2.1382 -1.0384  0.9346
   39MOL0     H 5208   0.232  10.262  10.542 -5.2178  3.6501  1.3595
   39MOL0     H 5209   0.335  10.389  10.475 -0.1959  0.2836 -2.0137
   39MOL0     H 5210   0.127  10.483  10.499 -4.7609 -0.5436  1.7806
   39MOL0     H 5211   0.116  10.451  10.338  0.9024 -1.1609  0.3933
   39MOL0     H 5212   0.024  10.209  10.432  0.7766 -0.2821  3.5458
   39MOL0     H 5213  -0.035  10.306  10.557  1.5839 -1.7640  0.2829
   39MOL0     H 5214  -0.111  10.302  10.268 -1.5746  1.2310 -1.3744
   39MOL0     H 5215  -0.105  10.464  10.333  0.6910  0.6912  1.4360
   39MOL0     H 5216  -0.284  10.117  10.361 -0.9967 -0.2067 -2.3978
   39MOL0     H 5217  -0.536  10.044  10.385 -0.9310 -0.4623 -1.9224
   39MOL0     H 5218  -0.628  10.140  10.504  3.5819  0.5946  2.2199
   39MOL0     H 5219  -0.569  10.209  10.211  0.7185  1.2444  1.7775
   39MOL0     H 5220  -0.666  10.311  10.302  1.8815  0.2807  1.5700
   39MOL0     H 5221  -0.751  10.016  10.233  2.5457 -1.0190  1.4650
   39MOL0     H 5222  -0.784  10.168  10.142 -2.4253  2.6215  1.6509
   39MOL0     H 5223  -0.921  10.258  10.327  2.0140  0.4850 -0.1318
   39MOL0     H 5224  -0.890  10.117  10.433  2.7706 -2.9624 -1.5659
   39MOL0     H 5225  -1.220  10.014  10.100  1.0926 -0.6227  0.4222
   39MOL0     H 5226  -1.554  10.106  10.088  0.5089 -0.0524  0.7264
   39MOL0     H 5227  -1.424   9.996  10.034  1.6771  1.2891  0.4048
   39MOL0     H 5228  -1.529   9.966  10.177 -2.7307  2.7455  0.6413
   39MOL0     H 5229  -1.750  10.441  10.477  3.1690 -1.9295 -1.9079
   39MOL0     H 5230  -1.998  10.488  10.507  0.3696  0.4570 -1.6024
   39MOL0     H 5231  -2.304  10.206  10.292 -1.7572 -2.2974  0.9839
   39MOL0     H 5232  -2.219  10.154  10.438  1.4540  1.5551  0.2119
   39MOL0     H 5233  -2.449  10.363  10.434 -0.9385  0.2175  1.7679
   39MOL0     H 5234  -2.456  10.188  10.455 -0.8363  0.6060  0.0625
   39MOL0     H 5235  -2.462  10.332  10.656 -0.1260  2.6725 -2.0739
   39MOL0     H 5236  -2.292  10.365  10.620 -1.1818  0.6614  3.0037
   39MOL0     H 5237  -2.421  10.093  10.689  0.1590 -0.6378  3.6662
   39MOL0     H 5238  -2.248  10.100  10.640  2.7784 -1.3567  5.2567
   39MOL0     H 5239  -2.300  10.116  10.897  2.0694 -0.8797 -0.2354
   39MOL0     H 5240  -2.375  10.267  10.867 -1.0970 -1.3186  0.9059
   39MOL0     H 5241  -2.084  10.201  10.801 -0.7340  0.6985 -2.3893
   39MOL0     H 5242  -2.162  10.365  10.815 -0.2239 -0.4011 -0.8244
   39MOL0     H 5243  -2.124  10.181  11.048 -0.0912 -1.9461 -2.2398
   39MOL0     H 5244  -2.244  10.302  11.044  0.1722 -1.6527  1.1854
   39MOL0     H 5245  -1.938  10.342  10.990  1.4204  1.5341  0.2927
   39MOL0     H 5246  -2.011  10.365  11.153 -0.1386  3.0377 -1.1617
   39MOL0     H 5247  -2.089  10.211  10.193  2.1121 -0.4247 -1.9863
   39MOL0     H 5248  -1.851  10.156  10.164 -1.4016 -2.8079  2.4854
   39MOL0     H 5249  -1.322  10.271  10.507  2.0945  1.8781 -0.8123
   39MOL0     H 5250  -1.105  10.226  10.454 -1.5134 -1.4058  2.4335
   39MOL0     H 5251   0.878  10.309  10.356 -4.0259 -1.2953  0.4486
   39MOL0     H 5252   1.116  10.283  10.423  0.8025 -0.8551  2.7730
   39MOL0     H 5253   1.538   9.878  10.396 -0.0142 -2.9875  1.0244
   39MOL0     H 5254   1.759   9.878  10.512  1.2614  0.8009  0.0277
   39MOL0     H 5255   1.906   9.772  10.844  1.1340  2.7129 -0.2001
   39MOL0     H 5256   1.810   9.728  10.705 -0.7810  0.5014  0.2996
   39MOL0     H 5257   2.043   9.922  10.732  2.3087 -0.0767 -0.4822
   39MOL0     H 5258   1.969   9.898  10.574  0.7208  2.0498  1.1816
   39MOL0     H 5259   2.042   9.668  10.567  0.9170  0.5165 -1.2837
   39MOL0     H 5260   2.109   9.668  10.728  0.8923  0.0652 -0.1197
   39MOL0     H 5261   2.213   9.813  10.490 -0.8083  2.4123  0.5256
   39MOL0     H 5262   2.297   9.681  10.584  0.4749 -0.6399  2.6257
   39MOL0     H 5263   2.367   9.974  10.868 -2.1634 -1.8580  0.7380
   39MOL0     H 5264   1.588  10.045  10.865 -0.6271 -3.4715  2.0532
   39MOL0     H 5265   1.373  10.074  10.754 -2.2927  2.1574 -2.4309
   40MOL0     O 5266   0.280   8.475   2.529 -0.2865 -0.3140 -0.1606
   40MOL0     C 5267   0.372   8.403   2.562  0.1521 -0.5321 -0.6208
   40MOL0     O 5268   0.416   8.369   2.686  0.1349  0.0122 -0.7237
   40MOL0     C 5269   0.350   8.410   2.802  0.2551 -0.0399 -0.8646
   40MOL0     C 5270   0.319   8.315   2.892 -0.3319  0.6334  0.2710
   40MOL0     C 5271   0.250   8.352   3.008  0.7682  0.3970  0.3105
   40MOL0     C 5272   0.217   8.485   3.040 -0.8026 -0.3808  1.0585
   40MOL0     O 5273   0.145   8.505   3.155 -0.0658  0.3534 -0.0542
   40MOL0     C 5274   0.083   8.627   3.181 -1.2023 -0.8163  0.2764
   40MOL0     C 5275  -0.006   8.609   3.306  0.4536 -0.0709  0.0245
   40MOL0     C 5276   0.070   8.640   3.436  0.5110 -0.0254 -0.0172
   40MOL0     C 5277   0.210   8.569   3.451  0.2805 -0.5423  0.5901
   40MOL0     C 5278   0.291   8.626   3.574 -0.6893  0.5679  0.6856
   40MOL0     C 5279   0.221   8.657   3.707  0.2626  0.2045  0.4047
   40MOL0     C 5280   0.112   8.561   3.767  0.3617 -0.4450 -0.0410
   40MOL0     C 5281   0.160   8.462   3.880  0.0737  0.4106 -0.8133
   40MOL0     N 5282   0.154   8.527   4.009 -0.2755  0.3919 -0.2420
   40MOL0     C 5283   0.044   8.591   4.070  0.5234  0.0537  0.4011
   40MOL0     C 5284   0.084   8.619   4.198 -0.2804 -0.2130  0.7426
   40MOL0     C 5285   0.002   8.689   4.302  0.1512  0.2511 -0.5489
   40MOL0     C 5286   0.092   8.787   4.386 -0.3331  0.4833 -0.0385
   40MOL0     C 5287   0.087   8.930   4.317 -0.3107 -0.7273 -0.2819
   40MOL0     C 5288   0.190   9.028   4.385  0.4281 -0.0682  0.2654
   40MOL0     O 5289   0.155   9.169   4.386  0.0808 -0.0830  0.2020
   40MOL0     C 5290   0.039   9.206   4.460  0.0743  1.0024 -1.0118
   40MOL0     C 5291  -0.054   9.126   4.531 -0.6335 -0.2058 -0.0605
   40MOL0     C 5292  -0.164   9.191   4.588 -0.5528 -0.2561 -0.4767
   40MOL0     C 5293  -0.251   9.086   4.663 -0.0846  0.4294  0.1024
   40MOL0     C 5294  -0.188   9.335   4.583 -0.5989  0.0047 -0.4077
   40MOL0     C 5295  -0.304   9.396   4.643  0.7590  0.4285  0.2564
   40MOL0     O 5296  -0.291   9.524   4.656 -0.7212 -0.1989  0.0344
   40MOL0     C 5297  -0.397   9.606   4.685 -0.0009  1.0191 -0.8101
   40MOL0     C 5298  -0.389   9.728   4.622  0.3452 -0.0909 -0.0994
   40MOL0     C 5299  -0.471   9.833   4.659 -0.6204  0.6185 -0.2112
   40MOL0     C 5300  -0.563   9.816   4.760  0.0705  0.4028  0.4634
   40MOL0     O 5301  -0.650   9.917   4.789  0.9031  0.4641  0.3290
   40MOL0     C 5302  -0.788   9.873   4.811 -0.3868 -0.2852 -0.1596
   40MOL0     C 5303  -0.871   9.971   4.735 -0.0763 -0.5197 -0.2860
   40MOL0     C 5304  -1.011   9.931   4.693  0.2241  0.4183 -0.6681
   40MOL0     C 5305  -1.094   9.886   4.811 -0.0354 -0.2423  0.2599
   40MOL0     C 5306  -1.217   9.800   4.770  0.3874  0.7580  0.1732
   40MOL0     C 5307  -1.314   9.888   4.684  0.5916  0.2412 -0.5870
   40MOL0     C 5308  -1.443   9.816   4.641 -0.3525  0.2229 -0.1495
   40MOL0     C 5309  -1.524   9.890   4.537  0.3083  0.6418  0.0454
   40MOL0    Cl 5310  -1.589  10.043   4.595  0.3843  0.2698  0.4049
   40MOL0     C 5311  -0.571   9.693   4.822 -0.6412 -0.1380 -0.2811
   40MOL0     C 5312  -0.486   9.584   4.789  0.1126  0.8820 -0.5594
   40MOL0     O 5313  -0.408   9.331   4.653 -0.4426 -0.6442  0.0990
   40MOL0     C 5314  -0.104   9.401   4.502 -0.4824 -0.0448 -0.2807
   40MOL0     C 5315   0.008   9.334   4.447 -0.2484  0.1151  0.3494
   40MOL0     N 5316   0.210   8.567   4.213  0.1668 -0.2457 -0.2951
   40MOL0     N 5317   0.251   8.505   4.109  0.3989  0.1205  0.5786
   40MOL0     C 5318   0.240   8.584   2.935  0.2892  0.0048  0.1666
   40MOL0     C 5319   0.306   8.546   2.821  0.3699  0.3783  0.3647
   40MOL0     C 5320   0.461   8.344   2.455  0.1948 -0.3681 -0.6704
   40MOL0     C 5321   0.573   8.267   2.480  0.1558 -0.5452 -0.4904
   40MOL0     C 5322   0.655   8.223   2.382 -0.4175  0.3991  0.2964
   40MOL0     C 5323   0.638   8.241   2.242  0.6613 -0.2098 -0.0534
   40MOL0     O 5324   0.708   8.201   2.135 -0.5133 -0.3092  0.4162
   40MOL0     C 5325   0.820   8.111   2.154 -0.1167  0.0088 -0.2412
   40MOL0     C 5326   0.870   8.084   2.013  0.0476 -0.4281  0.5986
   40MOL0     C 5327   0.936   8.221   1.962  0.7647  0.3410 -0.1186
   40MOL0     C 5328   1.006   8.207   1.829  0.1196  0.3462  0.2519
   40MOL0     C 5329   1.125   8.129   1.844 -0.1417  0.0847  0.0793
   40MOL0     C 5330   1.230   8.062   1.863  0.3738  0.3191  0.4662
   40MOL0     C 5331   0.519   8.315   2.214 -0.1128  0.4673 -0.5195
   40MOL0     C 5332   0.439   8.367   2.320  0.2490  0.6085  0.5710
   40MOL0     H 5333   0.345   8.210   2.885 -1.6156  0.3928 -1.4205
   40MOL0     H 5334   0.226   8.279   3.085  2.1387 -1.2149 -0.7178
   40MOL0     H 5335   0.156   8.707   3.197 -0.2159 -2.0870  2.6021
   40MOL0     H 5336   0.015   8.650   3.098 -1.6710 -1.5044  0.4615
   40MOL0     H 5337  -0.096   8.671   3.298  1.5304  1.5083 -0.1872
   40MOL0     H 5338  -0.038   8.505   3.315  2.1199 -0.4748  1.7878
   40MOL0     H 5339   0.080   8.748   3.451  0.9487  0.1421 -1.3618
   40MOL0     H 5340   0.008   8.607   3.519  2.0997  1.2826  1.7897
   40MOL0     H 5341   0.201   8.461   3.470  0.0484 -0.4591  0.9587
   40MOL0     H 5342   0.278   8.584   3.366  0.8637 -0.8130  1.0015
   40MOL0     H 5343   0.364   8.546   3.588  1.1368  2.1125  0.5028
   40MOL0     H 5344   0.345   8.713   3.535 -0.1795 -1.5214 -3.9419
   40MOL0     H 5345   0.292   8.662   3.791  0.1923 -0.7041  0.5323
   40MOL0     H 5346   0.173   8.754   3.696 -1.3091 -0.5601  0.3461
   40MOL0     H 5347   0.034   8.628   3.804 -2.1775 -2.4092 -1.4842
   40MOL0     H 5348   0.068   8.507   3.683 -1.4364  2.4430 -1.1072
   40MOL0     H 5349   0.258   8.424   3.853 -0.1860 -1.2284  0.4046
   40MOL0     H 5350   0.088   8.380   3.875 -1.3702  1.6997 -2.9257
   40MOL0     H 5351  -0.048   8.613   4.018  0.0764  0.5583  1.3835
   40MOL0     H 5352  -0.077   8.733   4.240 -0.4371 -0.3666 -0.2445
   40MOL0     H 5353  -0.044   8.618   4.371 -0.7906  1.7155  0.3795
   40MOL0     H 5354   0.196   8.756   4.405 -1.2707 -2.8257  0.3147
   40MOL0     H 5355   0.050   8.804   4.485 -0.4524  0.7105 -0.1275
   40MOL0     H 5356  -0.014   8.973   4.325  0.1187  0.4572 -0.9902
   40MOL0     H 5357   0.104   8.924   4.209  0.5357 -0.0640 -0.1944
   40MOL0     H 5358   0.285   9.024   4.332  0.1008  0.6406 -0.3964
   40MOL0     H 5359   0.203   8.987   4.486  1.0359 -2.9871 -0.8775
   40MOL0     H 5360  -0.049   9.019   4.549 -1.6725 -0.4125 -0.8997
   40MOL0     H 5361  -0.193   8.998   4.693  0.7824  0.1153 -2.3179
   40MOL0     H 5362  -0.307   9.128   4.748 -1.8285 -2.2878  0.4017
   40MOL0     H 5363  -0.328   9.044   4.598 -0.8766  2.7483 -0.5647
   40MOL0     H 5364  -0.328   9.752   4.536 -0.9272  1.9689 -0.5050
   40MOL0     H 5365  -0.442   9.921   4.604 -1.0099 -0.3125 -1.9657
   40MOL0     H 5366  -0.812   9.779   4.761 -4.6985 -0.1216  1.2433
   40MOL0     H 5367  -0.821   9.865   4.915  0.7092  1.6248  0.3847
   40MOL0     H 5368  -0.887  10.065   4.788 -1.8570 -0.0556 -1.5282
   40MOL0     H 5369  -0.828   9.984   4.635  0.6191  1.6375  0.2387
   40MOL0     H 5370  -0.985   9.843   4.633  3.7799 -0.3895  1.7340
   40MOL0     H 5371  -1.053  10.015   4.637  0.5449  0.5454 -0.7241
   40MOL0     H 5372  -1.040   9.833   4.891  1.2115 -0.7592 -0.8765
   40MOL0     H 5373  -1.124   9.973   4.870 -2.3912 -0.9843  0.2481
   40MOL0     H 5374  -1.266   9.754   4.856  1.7234 -0.5661  0.2653
   40MOL0     H 5375  -1.173   9.728   4.701  1.7927  1.0763  0.6985
   40MOL0     H 5376  -1.335   9.986   4.729 -1.5056  0.2535 -1.4531
   40MOL0     H 5377  -1.254   9.898   4.594 -0.4555  2.0616 -1.1329
   40MOL0     H 5378  -1.509   9.795   4.726 -1.7620  0.3933 -1.1591
   40MOL0     H 5379  -1.419   9.725   4.585 -2.3292  0.0922 -0.8817
   40MOL0     H 5380  -1.612   9.828   4.517  1.0136 -0.1394 -0.7212
   40MOL0     H 5381  -1.464   9.912   4.448  1.8390  0.1792  0.9263
   40MOL0     H 5382  -0.649   9.682   4.898 -1.7894  4.1345 -0.6157
   40MOL0     H 5383  -0.493   9.493   4.846 -0.4250  1.9038  1.0697
   40MOL0     H 5384  -0.124   9.505   4.478 -1.9724 -0.1249  0.5029
   40MOL0     H 5385   0.072   9.394   4.383  1.2826 -0.8385  0.9246
   40MOL0     H 5386   0.206   8.687   2.937  0.5705  0.1529 -1.4464
   40MOL0     H 5387   0.330   8.619   2.745 -0.2951  0.6149  0.3745
   40MOL0     H 5388   0.609   8.259   2.582  0.9137  1.7461 -0.5393
   40MOL0     H 5389   0.736   8.166   2.427  0.8988  2.7523  1.0856
   40MOL0     H 5390   0.891   8.160   2.222 -2.1813 -0.3362  2.3296
   40MOL0     H 5391   0.788   8.021   2.205 -0.6683 -1.3335 -2.7808
   40MOL0     H 5392   0.786   8.053   1.950  1.5769 -0.9548 -1.2691
   40MOL0     H 5393   0.949   8.009   2.021  1.5996  1.1300  0.5511
   40MOL0     H 5394   1.009   8.256   2.034  1.1859  1.7292 -1.1753
   40MOL0     H 5395   0.854   8.293   1.956  1.6120  1.6348  2.4443
   40MOL0     H 5396   1.031   8.306   1.789 -2.1731  0.1460 -1.9456
   40MOL0     H 5397   0.942   8.157   1.756  1.2413  1.3601 -1.5068
   40MOL0     H 5398   1.330   8.022   1.869  0.6906  0.3310 -2.8615
   40MOL0     H 5399   0.493   8.353   2.116 -0.5659  2.8073  0.4535
   40MOL0     H 5400   0.356   8.432   2.292  0.3076  0.6244  0.4299
   41MOL0     O 5401   3.283   7.129   8.472 -0.1813 -0.0384 -0.0904
   41MOL0     C 5402   3.339   7.022   8.479 -0.1793  1.9253 -0.4762
   41MOL0     O 5403   3.275   6.904   8.492  0.0553  0.0300  0.0355
   41MOL0     C 5404   3.139   6.913   8.496  0.3992 -0.1932 -0.1073
   41MOL0     C 5405   3.072   6.867   8.607  0.2171 -0.1178 -0.2175
   41MOL0     C 5406   2.938   6.862   8.625  0.2549 -0.6860  0.0808
   41MOL0     C 5407   2.859   6.906   8.518  0.4180 -0.0646  0.5477
   41MOL0     O 5408   2.719   6.930   8.532 -0.3946  0.1644  0.3258
   41MOL0     C 5409   2.650   6.809   8.572 -0.4961 -0.7682  0.1458
   41MOL0     C 5410   2.508   6.810   8.527  0.5992  0.5421  1.2508
   41MOL0     C 5411   2.413   6.912   8.590 -0.0638 -0.9546 -0.8457
   41MOL0     C 5412   2.264   6.889   8.555  0.5875  0.5887 -0.3595
   41MOL0     C 5413   2.159   6.943   8.659 -0.3375  0.7509  0.1976
   41MOL0     C 5414   2.017   6.913   8.619 -0.2481  0.0536  0.2074
   41MOL0     C 5415   1.922   6.975   8.733  0.0517 -0.4924  0.2703
   41MOL0     C 5416   1.781   6.962   8.697 -0.0745  0.7370 -0.0704
   41MOL0     N 5417   1.685   7.035   8.792  0.4559  0.2614  0.3681
   41MOL0     C 5418   1.637   6.985   8.920 -0.2202 -0.3311  0.6674
   41MOL0     C 5419   1.525   7.055   8.941  1.3878 -0.0371 -0.1404
   41MOL0     C 5420   1.433   7.033   9.058  0.2342 -0.6005  0.1886
   41MOL0     C 5421   1.290   7.077   9.056 -0.1328 -0.8995  0.0897
   41MOL0     C 5422   1.256   7.220   9.038 -0.1709  0.1207 -0.2786
   41MOL0     C 5423   1.109   7.249   9.020  0.6806 -0.1095 -0.7454
   41MOL0     O 5424   1.082   7.390   8.990  0.4571  0.0799 -0.3537
   41MOL0     C 5425   0.963   7.415   8.927 -0.1536  0.6741 -0.2248
   41MOL0     C 5426   0.855   7.323   8.916  0.5609  0.2851 -0.8049
   41MOL0     C 5427   0.728   7.358   8.874  0.4008 -0.8919 -0.8847
   41MOL0     C 5428   0.626   7.248   8.841 -0.1135 -0.1209 -0.9800
   41MOL0     C 5429   0.706   7.496   8.838 -0.1998 -0.7632  0.1816
   41MOL0     C 5430   0.571   7.561   8.799 -0.0746 -0.1492 -0.0201
   41MOL0     O 5431   0.581   7.664   8.712  0.5686 -1.2812  0.4106
   41MOL0     C 5432   0.476   7.749   8.669  0.3105 -0.3829  0.2437
   41MOL0     C 5433   0.351   7.770   8.728 -0.4066  0.8548  0.2824
   41MOL0     C 5434   0.254   7.865   8.681 -0.2744 -0.3807  0.0646
   41MOL0     C 5435   0.284   7.937   8.566  0.0672 -0.2360 -0.0249
   41MOL0     O 5436   0.204   8.028   8.502 -0.3911  0.0123 -0.0818
   41MOL0     C 5437   0.067   8.049   8.547 -0.1189 -0.2824  0.5009
   41MOL0     C 5438   0.022   8.195   8.518 -0.1185 -0.6795  1.0441
   41MOL0     C 5439  -0.122   8.217   8.559  0.4091  0.3851 -0.0612
   41MOL0     C 5440  -0.212   8.155   8.453 -1.1571 -0.6731 -0.7298
   41MOL0     C 5441  -0.355   8.180   8.481 -0.3806 -0.4330  0.2409
   41MOL0     C 5442  -0.448   8.137   8.367  0.5040  0.5612  0.3475
   41MOL0     C 5443  -0.595   8.146   8.404 -0.3394  0.1727  0.1682
   41MOL0     C 5444  -0.690   8.132   8.287 -0.0477  0.0302 -0.7506
   41MOL0    Cl 5445  -0.652   7.978   8.208 -0.4953  0.0207  0.3504
   41MOL0     C 5446   0.407   7.908   8.498 -0.0775  0.3577 -0.4109
   41MOL0     C 5447   0.502   7.817   8.550  0.1923  0.1022  0.1416
   41MOL0     O 5448   0.468   7.521   8.849 -0.4673 -0.2139 -0.2802
   41MOL0     C 5449   0.818   7.589   8.844  0.5286  0.3310 -0.5747
   41MOL0     C 5450   0.943   7.544   8.890  0.1869 -0.5905  1.0059
   41MOL0     N 5451   1.503   7.142   8.837  0.8374 -0.4690 -0.3350
   41MOL0     N 5452   1.599   7.139   8.754  0.1694 -0.1761  0.4280
   41MOL0     C 5453   2.918   6.954   8.402 -0.6011  0.7836  0.0813
   41MOL0     C 5454   3.055   6.960   8.392  0.1833  0.4210 -0.5916
   41MOL0     C 5455   3.485   7.008   8.476 -0.1808  1.0721  0.7164
   41MOL0     C 5456   3.576   7.103   8.517  0.3547  0.3063  0.3780
   41MOL0     C 5457   3.712   7.076   8.526 -0.3186 -0.7534 -0.6233
   41MOL0     C 5458   3.767   6.954   8.490  0.1083 -0.1301 -0.3779
   41MOL0     O 5459   3.887   6.911   8.537 -0.3932 -0.4877  0.0192
   41MOL0     C 5460   3.997   7.015   8.536  0.7679  0.9758 -0.0968
   41MOL0     C 5461   4.137   6.960   8.520  0.0532  0.8376 -0.2457
   41MOL0     C 5462   4.255   7.051   8.466 -0.2055 -0.1256 -0.2248
   41MOL0     C 5463   4.228   7.130   8.334 -0.0577  0.1680  0.0876
   41MOL0     C 5464   4.356   7.202   8.319 -0.3280  0.0715 -0.5418
   41MOL0     C 5465   4.458   7.262   8.327  0.1087 -0.1954 -0.3802
   41MOL0     C 5466   3.681   6.866   8.425  0.3184 -0.3303 -0.4972
   41MOL0     C 5467   3.544   6.891   8.424  0.2541  0.4165 -0.4207
   41MOL0     H 5468   3.137   6.835   8.688 -1.1276 -0.4439  0.7516
   41MOL0     H 5469   2.904   6.838   8.725  1.0258  2.0294  1.0849
   41MOL0     H 5470   2.709   6.720   8.546 -0.3067 -2.0047  4.1400
   41MOL0     H 5471   2.661   6.795   8.680  1.9985 -3.8591 -0.3458
   41MOL0     H 5472   2.504   6.831   8.420  0.9060 -1.8241  0.7351
   41MOL0     H 5473   2.468   6.711   8.550  0.3169 -0.0956 -1.6164
   41MOL0     H 5474   2.422   6.917   8.699 -2.5426 -1.8162 -0.5255
   41MOL0     H 5475   2.445   7.009   8.551 -2.3275 -0.3475 -1.3876
   41MOL0     H 5476   2.243   6.914   8.450 -2.8574 -2.7340 -0.6931
   41MOL0     H 5477   2.245   6.781   8.553 -2.7099  1.0696 -1.6037
   41MOL0     H 5478   2.174   6.886   8.752  0.1608 -1.2270 -1.0374
   41MOL0     H 5479   2.168   7.052   8.662 -1.8558  1.0159 -2.5813
   41MOL0     H 5480   1.998   6.953   8.519  0.4595  0.9466  0.4203
   41MOL0     H 5481   1.995   6.808   8.596 -1.8689  0.3883  0.1208
   41MOL0     H 5482   1.942   6.920   8.825  2.2275  0.7578  0.6008
   41MOL0     H 5483   1.950   7.079   8.754  0.6212 -0.9482  1.8920
   41MOL0     H 5484   1.752   6.857   8.691  0.2558  0.6092  0.5807
   41MOL0     H 5485   1.772   6.999   8.594  2.4832 -1.2788 -1.1273
   41MOL0     H 5486   1.687   6.904   8.972  0.8846 -1.0259 -1.3717
   41MOL0     H 5487   1.438   6.927   9.086 -2.6900 -1.3272 -1.5750
   41MOL0     H 5488   1.476   7.103   9.130  3.1001 -1.2558 -0.7685
   41MOL0     H 5489   1.248   7.030   9.145  1.3875 -0.6124  0.9940
   41MOL0     H 5490   1.250   7.031   8.965 -1.8055  3.5511 -1.7399
   41MOL0     H 5491   1.304   7.265   8.950 -0.1731  0.8918  0.1062
   41MOL0     H 5492   1.282   7.289   9.119  0.4896 -1.2100  0.6837
   41MOL0     H 5493   1.058   7.246   9.116 -0.2384  4.8983 -0.8167
   41MOL0     H 5494   1.064   7.176   8.951 -1.3395  0.4773 -0.1026
   41MOL0     H 5495   0.855   7.223   8.959 -1.5578  0.8770  0.7668
   41MOL0     H 5496   0.554   7.258   8.923  0.3176  1.4751 -0.7818
   41MOL0     H 5497   0.582   7.268   8.743 -0.3387  1.0619 -0.6494
   41MOL0     H 5498   0.653   7.142   8.846  0.1919 -0.0467 -1.0223
   41MOL0     H 5499   0.313   7.708   8.808  0.3786 -0.9715 -0.7031
   41MOL0     H 5500   0.168   7.886   8.744 -0.7459  1.1762 -1.0365
   41MOL0     H 5501   0.004   7.986   8.483 -0.3398  1.0257 -0.6235
   41MOL0     H 5502   0.052   8.029   8.653 -0.4407  0.2375  0.5534
   41MOL0     H 5503   0.078   8.272   8.572 -0.8749  0.8282 -0.2339
   41MOL0     H 5504   0.036   8.216   8.412 -2.1152 -2.9344  0.2327
   41MOL0     H 5505  -0.139   8.326   8.562 -1.5544  0.1346 -0.5500
   41MOL0     H 5506  -0.135   8.175   8.659 -0.9418  1.5637  0.2906
   41MOL0     H 5507  -0.191   8.193   8.353 -1.1115  1.1649 -0.0641
   41MOL0     H 5508  -0.190   8.048   8.447  0.9216 -0.2283 -2.1302
   41MOL0     H 5509  -0.370   8.287   8.495 -0.5445 -0.7034  2.7032
   41MOL0     H 5510  -0.369   8.138   8.581 -2.0057  0.5274  0.4539
   41MOL0     H 5511  -0.444   8.211   8.287  0.2260 -0.4674 -0.6355
   41MOL0     H 5512  -0.417   8.039   8.328 -2.0714 -0.5901  0.9986
   41MOL0     H 5513  -0.605   8.245   8.449 -1.0979 -0.3572  1.2216
   41MOL0     H 5514  -0.622   8.075   8.483  1.4595 -0.2731  0.4269
   41MOL0     H 5515  -0.665   8.211   8.216  1.5765 -1.0066 -1.3953
   41MOL0     H 5516  -0.790   8.135   8.332  1.1777 -0.7174  2.2441
   41MOL0     H 5517   0.429   7.963   8.407  1.1464  1.6478  0.6041
   41MOL0     H 5518   0.589   7.805   8.486 -0.7837 -3.8185 -0.6958
   41MOL0     H 5519   0.801   7.694   8.824 -1.6440 -0.2391 -2.0479
   41MOL0     H 5520   1.017   7.620   8.912 -0.4557 -0.7579  4.2639
   41MOL0     H 5521   2.855   7.001   8.327  0.9005  0.2538 -1.5588
   41MOL0     H 5522   3.097   6.995   8.298 -0.0398  1.5100 -0.3013
   41MOL0     H 5523   3.532   7.198   8.545  0.5479  0.6935 -0.5829
   41MOL0     H 5524   3.763   7.139   8.598 -0.5292 -2.1434  0.8000
   41MOL0     H 5525   3.967   7.093   8.465 -1.5155 -1.5091 -2.0806
   41MOL0     H 5526   3.973   7.059   8.634 -1.5947  1.5115 -0.8360
   41MOL0     H 5527   4.125   6.874   8.453  1.4132 -0.2422  0.8236
   41MOL0     H 5528   4.173   6.922   8.616 -0.4517  0.4886 -0.1861
   41MOL0     H 5529   4.342   6.988   8.451  0.4270  1.0604 -1.8030
   41MOL0     H 5530   4.294   7.122   8.539  0.6805 -0.5930 -0.2292
   41MOL0     H 5531   4.143   7.196   8.353  1.5851  1.6070  3.3056
   41MOL0     H 5532   4.209   7.059   8.253  1.2760  1.0645 -1.0626
   41MOL0     H 5533   4.549   7.319   8.334  0.3165 -0.5473 -0.1797
   41MOL0     H 5534   3.719   6.768   8.398  0.4045 -0.6969  0.8597
   41MOL0     H 5535   3.473   6.814   8.391 -1.6486  1.5552  0.8314
   42MOL0     O 5536   2.317   3.868   4.773  0.0313 -0.0325 -0.3137
   42MOL0     C 5537   2.369   3.807   4.870  0.7527 -0.1339  0.1710
   42MOL0     O 5538   2.324   3.819   4.998  0.7146 -0.3847 -0.8549
   42MOL0     C 5539   2.200   3.866   5.035  0.4502 -0.6129 -0.1120
   42MOL0     C 5540   2.087   3.862   4.960  0.0273 -0.7731  0.4508
   42MOL0     C 5541   1.963   3.904   5.018  0.2671 -1.1280 -0.1462
   42MOL0     C 5542   1.963   3.950   5.153 -0.0918  0.6884  0.1527
   42MOL0     O 5543   1.855   3.963   5.231  0.2436 -0.4921  0.7118
   42MOL0     C 5544   1.721   3.942   5.181 -0.3086 -1.4141 -0.4165
   42MOL0     C 5545   1.618   3.950   5.296  0.2359  0.6499 -0.2669
   42MOL0     C 5546   1.501   3.854   5.274 -0.7764 -0.5317 -0.3733
   42MOL0     C 5547   1.447   3.780   5.398  0.3535 -0.6131  0.5115
   42MOL0     C 5548   1.414   3.876   5.511  0.1348  0.2931 -0.9863
   42MOL0     C 5549   1.304   3.973   5.469  0.4381  0.2708 -0.2309
   42MOL0     C 5550   1.270   4.059   5.591  0.0247  0.2730 -1.2215
   42MOL0     C 5551   1.174   4.177   5.542 -0.5298  0.4003 -0.2204
   42MOL0     N 5552   1.145   4.283   5.633  0.1131 -0.6356 -0.0237
   42MOL0     C 5553   1.109   4.263   5.763 -0.2192  0.8341  1.6005
   42MOL0     C 5554   1.074   4.387   5.807  0.1933  1.0774 -0.6445
   42MOL0     C 5555   1.000   4.409   5.940  0.0966 -0.0945  0.0129
   42MOL0     C 5556   0.890   4.296   5.959  0.1313 -0.3838 -0.0386
   42MOL0     C 5557   0.799   4.365   6.074  0.0826  0.6716 -0.5006
   42MOL0     C 5558   0.677   4.286   6.115 -0.1201  0.0155  0.4672
   42MOL0     O 5559   0.712   4.161   6.181  0.7887 -0.1694 -0.2038
   42MOL0     C 5560   0.628   4.114   6.277 -0.3950 -0.4541  0.6126
   42MOL0     C 5561   0.685   4.026   6.370  0.7267 -0.2076  0.0301
   42MOL0     C 5562   0.613   3.994   6.488 -0.2026 -0.1847 -1.0892
   42MOL0     C 5563   0.681   3.911   6.595  0.2268  0.0817  1.0455
   42MOL0     C 5564   0.483   4.046   6.506 -0.3342 -0.5820  0.5352
   42MOL0     C 5565   0.407   4.042   6.636  0.2035 -0.2962 -0.1678
   42MOL0     O 5566   0.455   3.990   6.751 -0.3633 -0.0228  0.2858
   42MOL0     C 5567   0.362   3.989   6.852 -0.0147 -0.8442  0.3283
   42MOL0     C 5568   0.361   4.087   6.957  0.1983  0.2681  0.4167
   42MOL0     C 5569   0.276   4.067   7.074 -0.3058  0.1872  0.9737
   42MOL0     C 5570   0.196   3.954   7.089  0.4025  0.5988  0.5252
   42MOL0     O 5571   0.130   3.914   7.209  0.4743  1.2997  1.1095
   42MOL0     C 5572   0.090   4.015   7.295 -0.4918  0.1922 -0.6996
   42MOL0     C 5573  -0.038   4.078   7.248  0.4884  0.2218 -1.0895
   42MOL0     C 5574  -0.141   3.965   7.241  0.5823 -0.1336 -0.3583
   42MOL0     C 5575  -0.259   4.010   7.154 -0.0876  0.6217 -0.1644
   42MOL0     C 5576  -0.334   3.894   7.091  0.3260  0.4196 -0.1355
   42MOL0     C 5577  -0.382   3.795   7.193  0.0964  0.0088  0.0552
   42MOL0     C 5578  -0.452   3.677   7.130 -0.7429 -0.4268  1.0102
   42MOL0     C 5579  -0.574   3.640   7.215 -0.2480  0.1821  0.0954
   42MOL0    Cl 5580  -0.557   3.655   7.387 -0.0894 -0.3643 -0.4876
   42MOL0     C 5581   0.191   3.857   6.981 -0.8622  0.0393 -0.0049
   42MOL0     C 5582   0.277   3.879   6.871 -1.1108 -0.1523 -0.2319
   42MOL0     O 5583   0.301   4.103   6.629  0.9562 -0.3870  0.2245
   42MOL0     C 5584   0.425   4.116   6.406 -0.1437  0.1455  0.1078
   42MOL0     C 5585   0.497   4.161   6.297 -0.8914  0.4476 -0.3646
   42MOL0     N 5586   1.077   4.482   5.711 -0.3653  0.5264  0.0624
   42MOL0     N 5587   1.128   4.423   5.609 -0.2508 -0.8771 -0.3210
   42MOL0     C 5588   2.078   3.958   5.224  0.2832  0.1811 -0.0553
   42MOL0     C 5589   2.193   3.919   5.165 -0.7305 -0.8097 -0.0131
   42MOL0     C 5590   2.494   3.732   4.849 -0.0176 -0.0490 -0.3039
   42MOL0     C 5591   2.557   3.662   4.953 -0.4708  0.0140 -0.1054
   42MOL0     C 5592   2.676   3.594   4.929 -0.2423 -0.5464 -0.4879
   42MOL0     C 5593   2.750   3.616   4.815 -0.7341 -0.0178 -0.0261
   42MOL0     O 5594   2.878   3.558   4.803  0.4081 -0.5077 -0.3417
   42MOL0     C 5595   2.981   3.630   4.722  0.9353  0.9793  0.8053
   42MOL0     C 5596   3.119   3.566   4.745  0.8832 -0.3289 -0.6239
   42MOL0     C 5597   3.120   3.423   4.699  0.4421  0.1668 -0.5059
   42MOL0     C 5598   3.218   3.333   4.775  0.3701 -0.2969  0.5327
   42MOL0     C 5599   3.352   3.389   4.761  0.5229  0.1451  0.8044
   42MOL0     C 5600   3.466   3.429   4.743 -0.3751 -0.2969 -0.4053
   42MOL0     C 5601   2.693   3.683   4.709 -0.0228  0.2613 -0.8504
   42MOL0     C 5602   2.565   3.738   4.725 -0.4275  0.3514  0.1741
   42MOL0     H 5603   2.095   3.820   4.860  0.5934 -0.6810  0.4548
   42MOL0     H 5604   1.868   3.907   4.967  0.0119  3.9808  0.1494
   42MOL0     H 5605   1.695   4.017   5.105  4.7835 -1.3467 -2.5170
   42MOL0     H 5606   1.719   3.845   5.130  2.1382 -1.5418 -0.4128
   42MOL0     H 5607   1.670   3.913   5.385  0.7672  1.4435 -0.2333
   42MOL0     H 5608   1.585   4.052   5.316 -1.3005 -0.4754  4.1030
   42MOL0     H 5609   1.414   3.910   5.236 -0.2449  1.6193  1.3769
   42MOL0     H 5610   1.529   3.779   5.200 -1.4887 -0.0616 -1.1468
   42MOL0     H 5611   1.355   3.726   5.376  0.6249 -0.7436 -0.3434
   42MOL0     H 5612   1.516   3.698   5.424 -1.8506 -3.3442 -1.5619
   42MOL0     H 5613   1.396   3.824   5.606  0.1199  0.2407 -1.0181
   42MOL0     H 5614   1.500   3.937   5.540  0.3522 -0.3713 -0.1892
   42MOL0     H 5615   1.330   4.047   5.392  0.4717  0.7668  0.2469
   42MOL0     H 5616   1.214   3.919   5.439 -1.3765  2.6386  0.6443
   42MOL0     H 5617   1.220   3.991   5.660  0.2344 -0.3661 -1.6829
   42MOL0     H 5618   1.362   4.095   5.638  0.7211  1.0091 -3.0526
   42MOL0     H 5619   1.080   4.134   5.508  0.5189 -4.3715  2.0326
   42MOL0     H 5620   1.210   4.226   5.451 -0.3381  1.8748  0.6089
   42MOL0     H 5621   1.109   4.168   5.815 -0.4662  1.1224  2.1303
   42MOL0     H 5622   1.069   4.386   6.022 -0.5965 -3.2833 -0.1526
   42MOL0     H 5623   0.966   4.512   5.953  3.7493  1.1047  1.1039
   42MOL0     H 5624   0.942   4.205   5.990 -1.2437 -1.3297 -0.3876
   42MOL0     H 5625   0.835   4.282   5.865 -3.0957  1.2176  1.4451
   42MOL0     H 5626   0.762   4.459   6.033 -3.0599 -1.4183 -3.0565
   42MOL0     H 5627   0.854   4.376   6.168  1.5394 -1.2287 -1.0527
   42MOL0     H 5628   0.598   4.278   6.040 -0.6677 -2.2229  1.2036
   42MOL0     H 5629   0.631   4.349   6.191  1.3706 -0.2333  1.6210
   42MOL0     H 5630   0.780   3.973   6.367 -0.7410 -3.0347  0.2997
   42MOL0     H 5631   0.774   3.869   6.557  0.0737  1.3176 -0.8548
   42MOL0     H 5632   0.702   3.971   6.684 -2.4422  1.6389  0.7424
   42MOL0     H 5633   0.622   3.827   6.633  0.8916 -0.5651  0.6681
   42MOL0     H 5634   0.407   4.181   6.931  0.7701 -0.0452  0.2934
   42MOL0     H 5635   0.298   4.142   7.149  0.6494  1.5400 -0.5911
   42MOL0     H 5636   0.074   3.971   7.394 -3.4754  0.4701 -0.9512
   42MOL0     H 5637   0.169   4.089   7.307  1.0275 -1.1430 -1.9814
   42MOL0     H 5638  -0.062   4.158   7.318  0.1960  0.0622 -1.0058
   42MOL0     H 5639  -0.022   4.133   7.154 -2.2444  2.7479 -0.2531
   42MOL0     H 5640  -0.175   3.937   7.340 -0.2654 -0.3689 -0.7114
   42MOL0     H 5641  -0.106   3.872   7.195  0.4381 -0.1307 -0.4730
   42MOL0     H 5642  -0.321   4.068   7.223  0.9584  1.0644  0.4383
   42MOL0     H 5643  -0.216   4.057   7.065  0.9139 -3.6359 -2.2062
   42MOL0     H 5644  -0.274   3.846   7.013  1.1432  2.3375 -0.7317
   42MOL0     H 5645  -0.428   3.926   7.045 -0.9965  1.0483  2.7562
   42MOL0     H 5646  -0.298   3.762   7.255 -0.0426  0.5887  0.5600
   42MOL0     H 5647  -0.461   3.853   7.241  1.2206  1.6939 -0.0404
   42MOL0     H 5648  -0.385   3.591   7.128 -0.9235 -0.5531  0.2654
   42MOL0     H 5649  -0.493   3.693   7.030 -1.3066 -0.7966  1.1784
   42MOL0     H 5650  -0.609   3.539   7.191 -2.1625 -0.0143  3.2236
   42MOL0     H 5651  -0.657   3.708   7.189 -1.4157 -0.7031  1.3671
   42MOL0     H 5652   0.138   3.765   6.999 -0.3671 -0.9411 -3.0838
   42MOL0     H 5653   0.289   3.797   6.801 -2.4584 -1.3437  0.8530
   42MOL0     H 5654   0.324   4.157   6.404 -0.1215  0.2805  1.3058
   42MOL0     H 5655   0.455   4.242   6.238 -1.1980  1.4965  1.2321
   42MOL0     H 5656   2.077   4.004   5.322  2.6268  1.3361 -0.5054
   42MOL0     H 5657   2.287   3.929   5.218 -0.4286  0.1184 -0.6874
   42MOL0     H 5658   2.496   3.661   5.043  1.0055  0.9611  0.9611
   42MOL0     H 5659   2.719   3.530   5.004  1.4935  0.9425 -0.1417
   42MOL0     H 5660   2.970   3.626   4.613  0.8233  0.6838  0.8267
   42MOL0     H 5661   2.987   3.733   4.757 -0.6486  0.6389  2.1959
   42MOL0     H 5662   3.148   3.568   4.850 -1.6027  0.9048  0.1110
   42MOL0     H 5663   3.191   3.621   4.683 -2.3431  2.0515 -2.5931
   42MOL0     H 5664   3.140   3.422   4.591 -0.0959 -1.7596 -0.6170
   42MOL0     H 5665   3.026   3.370   4.718  0.7067 -0.7803 -1.7237
   42MOL0     H 5666   3.229   3.231   4.738  0.0089 -0.2852  0.3946
   42MOL0     H 5667   3.200   3.341   4.883  1.6409  2.7417  0.6240
   42MOL0     H 5668   3.566   3.458   4.719 -0.7096  0.7078 -0.6016
   42MOL0     H 5669   2.749   3.691   4.616  2.4700 -0.2566  0.5175
   42MOL0     H 5670   2.517   3.781   4.637 -2.1743 -1.0222  0.3872
   43MOL0     O 5671   1.512   2.225   9.765  0.3946  0.0952  0.2399
   43MOL0     C 5672   1.586   2.303   9.830  0.4434 -0.6392  0.9410
   43MOL0     O 5673   1.553   2.349   9.954 -0.3962  0.5288 -0.3329
   43MOL0     C 5674   1.430   2.311  10.001 -0.0866 -0.6179  0.7312
   43MOL0     C 5675   1.414   2.184  10.061 -0.5661  0.3700 -0.2991
   43MOL0     C 5676   1.285   2.141  10.096  0.4577  1.1540  0.3563
   43MOL0     C 5677   1.170   2.214  10.066 -0.0197 -0.2834 -0.2188
   43MOL0     O 5678   1.049   2.152  10.083 -0.2263  0.3372 -0.3865
   43MOL0     C 5679   0.934   2.235  10.091  0.1562  0.6588  0.3033
   43MOL0     C 5680   0.820   2.134  10.130  0.1013 -0.5815  0.1969
   43MOL0     C 5681   0.685   2.210  10.159  0.2360  0.0069  0.1940
   43MOL0     C 5682   0.573   2.105  10.185 -0.2506 -0.5834 -0.3165
   43MOL0     C 5683   0.449   2.177  10.230  0.9668  0.4437 -0.1950
   43MOL0     C 5684   0.401   2.289  10.134 -0.2569  0.6037  0.1763
   43MOL0     C 5685   0.248   2.300  10.128  0.3523 -0.0976  0.1301
   43MOL0     C 5686   0.190   2.335  10.265 -0.1523  0.2505 -0.5992
   43MOL0     N 5687   0.049   2.338  10.261  0.5229  0.6742  0.9745
   43MOL0     C 5688  -0.035   2.422  10.192  0.2388 -0.5059 -0.1609
   43MOL0     C 5689  -0.164   2.396  10.240 -0.3774 -0.1767 -0.1428
   43MOL0     C 5690  -0.288   2.449  10.185  0.0520 -0.1351  0.0797
   43MOL0     C 5691  -0.361   2.519  10.290 -0.0293  0.5025 -0.0114
   43MOL0     C 5692  -0.491   2.591  10.242 -0.2103  0.5937  0.2858
   43MOL0     C 5693  -0.619   2.510  10.237 -0.9994  0.1266  0.1488
   43MOL0     O 5694  -0.629   2.406  10.135  0.1152 -0.4944 -0.1069
   43MOL0     C 5695  -0.748   2.331  10.135 -0.4020  0.2307  0.0014
   43MOL0     C 5696  -0.774   2.245  10.028 -0.2565 -0.5684  0.0049
   43MOL0     C 5697  -0.878   2.157  10.018  0.8082  0.3671  0.5686
   43MOL0     C 5698  -0.892   2.081   9.890 -0.0247  0.5019 -0.2041
   43MOL0     C 5699  -0.978   2.154  10.124 -0.1335  0.4977  0.4812
   43MOL0     C 5700  -1.094   2.067  10.140  0.5459 -1.1443  0.1129
   43MOL0     O 5701  -1.102   1.972  10.046  0.9283 -0.2245 -0.4595
   43MOL0     C 5702  -1.191   1.871  10.065 -1.2209 -0.3352 -0.0240
   43MOL0     C 5703  -1.249   1.834   9.945  0.1553 -0.6439 -0.8805
   43MOL0     C 5704  -1.348   1.738   9.933  0.0373  0.3625  0.1386
   43MOL0     C 5705  -1.381   1.667  10.052  0.1732  0.3103  0.2425
   43MOL0     O 5706  -1.479   1.570  10.057 -0.1573 -0.3743  0.1796
   43MOL0     C 5707  -1.524   1.516   9.935 -0.1236 -0.6519 -0.9312
   43MOL0     C 5708  -1.612   1.395   9.970 -1.1017  0.1587 -0.2728
   43MOL0     C 5709  -1.735   1.430  10.060 -0.1112 -1.3216 -0.5532
   43MOL0     C 5710  -1.815   1.300  10.094  0.0609 -0.0923  0.3188
   43MOL0     C 5711  -1.918   1.303  10.208 -0.3782 -0.1350 -0.1507
   43MOL0     C 5712  -1.855   1.361  10.342  0.0391 -0.2446 -0.3387
   43MOL0     C 5713  -1.960   1.342  10.456 -0.7737 -0.6148 -0.0733
   43MOL0     C 5714  -2.096   1.399  10.431 -0.2439 -1.0120 -0.2107
   43MOL0    Cl 5715  -2.182   1.391  10.583 -0.2286 -0.2484 -0.3510
   43MOL0     C 5716  -1.316   1.695  10.175 -0.3832  0.0479 -0.5027
   43MOL0     C 5717  -1.218   1.800  10.184  0.2388  0.8022 -0.0941
   43MOL0     O 5718  -1.167   2.082  10.241  0.1636  0.3500 -0.1205
   43MOL0     C 5719  -0.951   2.232  10.245 -0.5605  0.7332  0.2774
   43MOL0     C 5720  -0.838   2.321  10.239  0.8777  0.6810  0.6711
   43MOL0     N 5721  -0.145   2.298  10.330 -0.5291 -0.7496 -0.5955
   43MOL0     N 5722  -0.027   2.259  10.345 -0.0062  0.4878 -0.2740
   43MOL0     C 5723   1.189   2.344  10.016  0.3933  0.2781 -0.1650
   43MOL0     C 5724   1.312   2.394   9.987 -1.0848 -0.5125  0.5515
   43MOL0     C 5725   1.701   2.356   9.768 -0.4130 -0.0169  0.4164
   43MOL0     C 5726   1.745   2.310   9.648 -0.0020 -0.4242 -0.0099
   43MOL0     C 5727   1.845   2.370   9.578 -0.5879 -0.1106 -0.8644
   43MOL0     C 5728   1.912   2.485   9.626  0.5460  0.3991 -0.4647
   43MOL0     O 5729   2.007   2.552   9.569  0.5571 -0.5210  0.3651
   43MOL0     C 5730   2.030   2.540   9.426  0.1840 -0.0502 -0.3713
   43MOL0     C 5731   2.131   2.644   9.370 -0.6519 -0.2136  0.9105
   43MOL0     C 5732   2.266   2.609   9.435  0.0551  0.3998  0.5990
   43MOL0     C 5733   2.379   2.690   9.361 -0.1114  0.3498 -0.7323
   43MOL0     C 5734   2.506   2.622   9.412 -0.3984 -0.2215  0.0247
   43MOL0     C 5735   2.605   2.567   9.452  0.3410 -0.1496  0.5894
   43MOL0     C 5736   1.882   2.528   9.757  0.0997  0.4452  0.1568
   43MOL0     C 5737   1.779   2.463   9.830  0.2835  0.4750  0.9058
   43MOL0     H 5738   1.497   2.119  10.084 -0.4103  1.3083  2.0665
   43MOL0     H 5739   1.273   2.041  10.137  2.9803  0.6410 -0.0225
   43MOL0     H 5740   0.948   2.323  10.155  0.7912  2.2036 -1.8720
   43MOL0     H 5741   0.909   2.271   9.991  2.0561 -0.6462 -0.6997
   43MOL0     H 5742   0.809   2.068  10.044  2.5030  1.8496 -2.1958
   43MOL0     H 5743   0.856   2.079  10.218  0.7918  1.8652  1.5437
   43MOL0     H 5744   0.707   2.263  10.252  2.6711  0.1803 -0.4126
   43MOL0     H 5745   0.657   2.270  10.072 -2.9346 -1.9735 -0.3032
   43MOL0     H 5746   0.539   2.059  10.092  1.0535 -2.3357  0.0195
   43MOL0     H 5747   0.603   2.020  10.247  1.7176  0.1017 -0.2453
   43MOL0     H 5748   0.364   2.109  10.246  2.3885 -1.7253 -1.4102
   43MOL0     H 5749   0.458   2.222  10.330  2.0329 -1.6029  0.6988
   43MOL0     H 5750   0.443   2.384  10.168  3.4180 -0.0222 -2.1143
   43MOL0     H 5751   0.446   2.271  10.036 -1.3959 -0.1411 -0.2339
   43MOL0     H 5752   0.230   2.389  10.068  0.9567  0.8891  1.3648
   43MOL0     H 5753   0.209   2.203  10.095 -2.8078  1.4776 -1.1216
   43MOL0     H 5754   0.213   2.438  10.294 -2.5152  0.0551  2.4427
   43MOL0     H 5755   0.219   2.261  10.341 -1.9098  1.4241  1.3259
   43MOL0     H 5756  -0.002   2.487  10.111 -0.9510  1.4613  0.8367
   43MOL0     H 5757  -0.279   2.507  10.093 -1.5592  0.9858  0.5939
   43MOL0     H 5758  -0.353   2.366  10.155  1.3271 -1.1660  0.0502
   43MOL0     H 5759  -0.296   2.598  10.328 -2.1223  1.9726  0.7216
   43MOL0     H 5760  -0.383   2.439  10.360 -0.2165  1.5370  1.1579
   43MOL0     H 5761  -0.473   2.630  10.141  2.8711 -2.4546 -0.5355
   43MOL0     H 5762  -0.508   2.674  10.311 -2.5346 -1.2351  2.0859
   43MOL0     H 5763  -0.710   2.570  10.229 -0.9109  0.3963  1.1103
   43MOL0     H 5764  -0.623   2.458  10.333  0.6641 -1.6048 -0.6523
   43MOL0     H 5765  -0.714   2.249   9.937 -3.7377  1.8663 -2.4258
   43MOL0     H 5766  -0.996   2.083   9.855 -0.9833 -1.7701  2.1752
   43MOL0     H 5767  -0.827   2.122   9.812 -0.5848  1.2856 -0.2766
   43MOL0     H 5768  -0.857   1.978   9.899  1.2304  1.0081  1.0727
   43MOL0     H 5769  -1.201   1.876   9.858  2.0000  0.3477  0.5514
   43MOL0     H 5770  -1.389   1.712   9.835  1.5011 -0.5949 -0.2598
   43MOL0     H 5771  -1.584   1.591   9.883 -0.0632  0.4306  0.5029
   43MOL0     H 5772  -1.443   1.494   9.865 -0.6416 -0.6869 -1.5262
   43MOL0     H 5773  -1.649   1.358   9.874 -2.1220  1.6668 -0.4994
   43MOL0     H 5774  -1.551   1.321  10.024  1.6728  1.8040 -0.9995
   43MOL0     H 5775  -1.792   1.499   9.997 -0.3744  0.6928  1.7137
   43MOL0     H 5776  -1.708   1.490  10.148  0.9302  1.2455 -2.4989
   43MOL0     H 5777  -1.865   1.263  10.004  0.9797 -2.0220  0.5506
   43MOL0     H 5778  -1.740   1.225  10.121  0.5506  0.9077  1.8737
   43MOL0     H 5779  -1.947   1.202  10.237 -3.2156  0.6763  0.1179
   43MOL0     H 5780  -2.003   1.367  10.183  0.4730  2.1882  2.4173
   43MOL0     H 5781  -1.766   1.299  10.355  0.7968  0.5392 -1.5342
   43MOL0     H 5782  -1.817   1.464  10.342  0.5938 -0.4469 -0.1248
   43MOL0     H 5783  -1.921   1.399  10.541 -2.8223  3.0911 -1.3689
   43MOL0     H 5784  -1.957   1.237  10.483 -0.6625 -0.6508 -0.2195
   43MOL0     H 5785  -2.142   1.332  10.358 -0.5602  0.6341 -1.5850
   43MOL0     H 5786  -2.095   1.503  10.398 -0.9672 -0.8963  0.1104
   43MOL0     H 5787  -1.329   1.639  10.267  1.1590  1.3987  0.6059
   43MOL0     H 5788  -1.169   1.817  10.280  1.0551  1.7358 -0.6514
   43MOL0     H 5789  -1.005   2.243  10.339  0.3488 -0.9464  1.0483
   43MOL0     H 5790  -0.818   2.373  10.332 -0.6344  0.4661  1.1397
   43MOL0     H 5791   1.102   2.405   9.990 -1.1754 -0.8136  2.1294
   43MOL0     H 5792   1.325   2.491   9.939 -3.5065 -0.6201 -0.4630
   43MOL0     H 5793   1.694   2.231   9.595 -1.4408  0.6769 -0.3257
   43MOL0     H 5794   1.880   2.335   9.481  2.3045  0.5645 -0.1745
   43MOL0     H 5795   2.078   2.442   9.418  0.6649  0.0455  1.0785
   43MOL0     H 5796   1.936   2.526   9.372  0.6709 -2.2023 -0.7217
   43MOL0     H 5797   2.106   2.747   9.397  0.3069 -0.1578  1.6470
   43MOL0     H 5798   2.128   2.627   9.262 -1.9164  0.0879  0.8852
   43MOL0     H 5799   2.280   2.501   9.436 -0.3627  0.2643 -2.0388
   43MOL0     H 5800   2.265   2.645   9.538  1.1660 -0.6022  0.9856
   43MOL0     H 5801   2.371   2.797   9.383 -2.1092  0.1233 -0.1646
   43MOL0     H 5802   2.363   2.679   9.254  0.9630  1.8729 -1.0808
   43MOL0     H 5803   2.694   2.520   9.488 -0.6053 -2.3977  0.1890
   43MOL0     H 5804   1.934   2.613   9.798  1.8830 -0.9006  0.7796
   43MOL0     H 5805   1.755   2.502   9.929  1.5208 -0.1785  1.5026
   44MOL0     O 5806   3.111   9.768   0.537  0.0203  0.6810  0.7580
   44MOL0     C 5807   3.153   9.716   0.428  0.9351 -0.0267 -0.9280
   44MOL0     O 5808   3.104   9.596   0.378 -0.2915 -0.0654 -0.5231
   44MOL0     C 5809   2.981   9.557   0.427 -0.0484 -0.1212 -0.4781
   44MOL0     C 5810   2.973   9.522   0.561 -0.1037 -0.4666  0.5383
   44MOL0     C 5811   2.852   9.473   0.613 -0.1723 -0.3947 -0.6162
   44MOL0     C 5812   2.743   9.449   0.532  0.1432 -0.5361  0.2471
   44MOL0     O 5813   2.610   9.415   0.565  0.4515 -0.0764 -0.9279
   44MOL0     C 5814   2.575   9.411   0.703  0.1389 -0.6810  0.8112
   44MOL0     C 5815   2.429   9.391   0.702  0.2349  0.3895 -0.5199
   44MOL0     C 5816   2.349   9.515   0.671  0.5602  0.5549 -0.1899
   44MOL0     C 5817   2.199   9.496   0.686  0.9852  0.4881 -0.0273
   44MOL0     C 5818   2.128   9.562   0.568  0.7199 -0.2911  0.0803
   44MOL0     C 5819   2.119   9.717   0.583  0.0764  0.1833 -0.4431
   44MOL0     C 5820   1.980   9.776   0.578  0.1368  0.2778  0.2693
   44MOL0     C 5821   1.936   9.800   0.431  0.2354 -0.1570  0.3253
   44MOL0     N 5822   1.792   9.842   0.423 -0.2070  0.0570 -0.3442
   44MOL0     C 5823   1.744   9.966   0.454 -0.4375 -0.5057 -0.1887
   44MOL0     C 5824   1.607   9.953   0.454  0.2077 -0.5962  1.2049
   44MOL0     C 5825   1.515  10.072   0.486 -0.1784 -0.1659  0.1501
   44MOL0     C 5826   1.490  10.180   0.383 -0.8074  0.3610 -0.3946
   44MOL0     C 5827   1.364  10.165   0.290 -0.1575 -0.3002  0.4315
   44MOL0     C 5828   1.246  10.228   0.372 -0.1672  0.6685  0.0967
   44MOL0     O 5829   1.123  10.229   0.301  0.1735 -0.1973 -0.4842
   44MOL0     C 5830   1.025  10.328   0.322 -0.1739 -0.6516  0.2129
   44MOL0     C 5831   1.032  10.434   0.419  0.0890  0.0489 -0.9453
   44MOL0     C 5832   0.925  10.525   0.436 -0.0900  0.9087  0.6054
   44MOL0     C 5833   0.942  10.619   0.549  0.0642  0.6436 -0.4857
   44MOL0     C 5834   0.812  10.523   0.349  0.5773 -0.5861  0.4522
   44MOL0     C 5835   0.709  10.623   0.351  1.1488 -0.2595  0.1069
   44MOL0     O 5836   0.665  10.675   0.474  0.7841  0.1595  0.0807
   44MOL0     C 5837   0.558  10.760   0.465 -0.8008  0.0347 -0.1515
   44MOL0     C 5838   0.435  10.708   0.434 -0.3123  0.1157  0.3373
   44MOL0     C 5839   0.330  10.805   0.439 -0.1744 -1.6182  0.3345
   44MOL0     C 5840   0.335  10.940   0.481 -0.0569 -0.0770  0.3635
   44MOL0     O 5841   0.222  11.029   0.482 -0.6502  0.2600 -0.5908
   44MOL0     C 5842   0.099  10.960   0.509 -0.6269  0.1993 -0.0827
   44MOL0     C 5843   0.001  11.079   0.537 -0.3999  0.2058 -0.2357
   44MOL0     C 5844  -0.065  11.138   0.411  0.2579  0.6691  0.1940
   44MOL0     C 5845  -0.190  11.222   0.437  0.0855 -0.5007  1.0453
   44MOL0     C 5846  -0.234  11.304   0.314 -0.0998  0.0651 -0.2513
   44MOL0     C 5847  -0.297  11.233   0.191  0.4767  0.2585 -0.1157
   44MOL0     C 5848  -0.395  11.121   0.231 -0.7221  0.0135 -0.6405
   44MOL0     C 5849  -0.453  11.037   0.120 -0.0465 -0.2455 -0.5940
   44MOL0    Cl 5850  -0.563  10.899   0.185 -0.1808  0.2405  0.2035
   44MOL0     C 5851   0.464  10.985   0.509 -1.1043 -0.2873 -0.4172
   44MOL0     C 5852   0.575  10.893   0.502  0.2027 -0.7037  0.5541
   44MOL0     O 5853   0.686  10.667   0.239 -0.7924 -0.1440  0.0318
   44MOL0     C 5854   0.815  10.422   0.251  0.0950 -0.1148  0.0750
   44MOL0     C 5855   0.918  10.324   0.236 -0.4684 -0.6620  0.1721
   44MOL0     N 5856   1.578   9.821   0.436  0.4754 -0.4403  1.0794
   44MOL0     N 5857   1.689   9.759   0.427 -0.1697 -0.1206  0.0316
   44MOL0     C 5858   2.758   9.472   0.391 -0.1677 -1.7916 -0.0765
   44MOL0     C 5859   2.875   9.527   0.344 -0.9975  0.9938 -0.6264
   44MOL0     C 5860   3.257   9.785   0.359  0.2565  0.5992  0.1933
   44MOL0     C 5861   3.283   9.758   0.221 -0.2935  0.5140  0.3162
   44MOL0     C 5862   3.368   9.848   0.158  0.8578  0.9215 -0.3740
   44MOL0     C 5863   3.427   9.955   0.220 -0.1160  0.2062 -0.6894
   44MOL0     O 5864   3.505  10.043   0.154 -1.7221 -0.0198 -0.5549
   44MOL0     C 5865   3.573  10.008   0.030  0.0617  0.5421  0.7598
   44MOL0     C 5866   3.700  10.091   0.016 -0.4292 -0.0299 -0.1373
   44MOL0     C 5867   3.789  10.030  -0.097  0.1053 -1.0337  0.6118
   44MOL0     C 5868   3.915  10.109  -0.090 -0.5148  0.1696 -0.1700
   44MOL0     C 5869   3.984  10.093  -0.215  0.2637 -0.0769 -0.4836
   44MOL0     C 5870   4.043  10.085  -0.322  0.0812 -1.0436  0.0304
   44MOL0     C 5871   3.399   9.983   0.353 -0.2841 -0.0481 -0.2182
   44MOL0     C 5872   3.319   9.891   0.424  0.0656  0.0099  1.2859
   44MOL0     H 5873   3.052   9.533   0.634  0.4579 -2.8451  0.3773
   44MOL0     H 5874   2.849   9.453   0.720  1.6559 -0.8477 -0.6127
   44MOL0     H 5875   2.625   9.325   0.749 -0.3146 -0.9947  0.7179
   44MOL0     H 5876   2.613   9.501   0.753 -1.6093 -0.0422  1.0376
   44MOL0     H 5877   2.402   9.313   0.630  1.8927 -1.0543  0.3692
   44MOL0     H 5878   2.403   9.365   0.805  2.2921  0.2448  0.0022
   44MOL0     H 5879   2.378   9.587   0.748 -1.7386 -1.9209  3.3167
   44MOL0     H 5880   2.382   9.557   0.576  3.4283 -2.0933 -0.5383
   44MOL0     H 5881   2.180   9.389   0.693  0.1002  0.3298 -3.2856
   44MOL0     H 5882   2.164   9.542   0.779  0.8606 -1.8356  1.1313
   44MOL0     H 5883   2.164   9.520   0.474 -0.2067  0.8852 -0.8269
   44MOL0     H 5884   2.023   9.535   0.577  0.8521 -0.9835 -0.3872
   44MOL0     H 5885   2.174   9.754   0.669 -0.5337  2.0749 -0.8274
   44MOL0     H 5886   2.176   9.752   0.496  0.1600 -1.1595 -0.9536
   44MOL0     H 5887   1.902   9.715   0.624 -0.3427  1.3922  0.9707
   44MOL0     H 5888   1.979   9.872   0.630  0.9965  0.8956 -0.8221
   44MOL0     H 5889   1.942   9.707   0.373 -1.9994  0.5598 -1.1853
   44MOL0     H 5890   2.000   9.876   0.385 -0.4048  0.1017 -0.1492
   44MOL0     H 5891   1.796  10.057   0.483  0.1328 -1.4505  1.9665
   44MOL0     H 5892   1.424  10.018   0.512  0.9793 -2.0548  0.4556
   44MOL0     H 5893   1.552  10.121   0.577  0.7680  1.0005 -0.8188
   44MOL0     H 5894   1.580  10.167   0.321 -0.6193 -0.0196 -0.0453
   44MOL0     H 5895   1.493  10.282   0.423 -2.3026 -0.1965  1.2432
   44MOL0     H 5896   1.353  10.065   0.247  1.3866 -0.3104  0.0036
   44MOL0     H 5897   1.384  10.234   0.207  0.3310  0.2833  1.0290
   44MOL0     H 5898   1.288  10.327   0.395  2.0451  0.8163 -3.7195
   44MOL0     H 5899   1.228  10.176   0.467 -2.0886 -1.8614 -1.5237
   44MOL0     H 5900   1.120  10.467   0.473 -0.7847  0.5057  0.2359
   44MOL0     H 5901   1.044  10.628   0.587 -0.3754 -1.4168  1.4017
   44MOL0     H 5902   0.907  10.721   0.527  0.9413  0.7477 -1.4876
   44MOL0     H 5903   0.884  10.580   0.633  2.4727  1.0280  1.4649
   44MOL0     H 5904   0.403  10.611   0.397 -1.7026 -0.0193  1.7277
   44MOL0     H 5905   0.238  10.750   0.421 -0.5879 -0.9633  0.4300
   44MOL0     H 5906   0.066  10.910   0.417  0.9569  1.1138 -1.2047
   44MOL0     H 5907   0.114  10.895   0.596 -0.3875  0.0552 -0.2297
   44MOL0     H 5908  -0.076  11.043   0.606  1.8506  0.5493  2.6085
   44MOL0     H 5909   0.055  11.154   0.596 -2.1287  0.3894  1.2093
   44MOL0     H 5910  -0.092  11.058   0.341 -2.1292  1.7278 -0.2098
   44MOL0     H 5911   0.009  11.191   0.350 -2.2419 -0.0495 -3.8402
   44MOL0     H 5912  -0.276  11.158   0.460  0.0839 -0.7571  0.3498
   44MOL0     H 5913  -0.167  11.289   0.521  0.3982  0.0834  0.5078
   44MOL0     H 5914  -0.150  11.361   0.275 -2.3005  4.1907  0.5265
   44MOL0     H 5915  -0.306  11.377   0.351 -0.3750 -0.2742 -0.1095
   44MOL0     H 5916  -0.341  11.294   0.111 -0.8309 -0.3279  0.1298
   44MOL0     H 5917  -0.217  11.175   0.144  1.3980  0.7611  0.8115
   44MOL0     H 5918  -0.472  11.161   0.296  0.3296 -0.7618  1.1470
   44MOL0     H 5919  -0.329  11.050   0.281  2.5355  2.0812 -1.7183
   44MOL0     H 5920  -0.375  10.992   0.057  0.1562  0.9049 -1.1987
   44MOL0     H 5921  -0.509  11.106   0.057  1.8132 -0.4419 -2.5725
   44MOL0     H 5922   0.457  11.076   0.568 -0.9529 -1.3879  1.3883
   44MOL0     H 5923   0.677  10.926   0.521  1.6212 -4.3611  0.2879
   44MOL0     H 5924   0.736  10.428   0.177 -0.7686  0.7826  1.0380
   44MOL0     H 5925   0.929  10.245   0.163  3.8448 -1.3373  1.2875
   44MOL0     H 5926   2.669   9.456   0.331 -1.6843 -1.2927  1.9487
   44MOL0     H 5927   2.883   9.560   0.240  1.0749  5.3067  0.6759
   44MOL0     H 5928   3.223   9.683   0.170 -0.7152 -0.7435  2.5431
   44MOL0     H 5929   3.383   9.838   0.051  2.5981 -0.3263 -0.0607
   44MOL0     H 5930   3.598   9.901   0.031 -1.9837  0.0012 -0.0073
   44MOL0     H 5931   3.512  10.033  -0.057  0.8274  1.5216  0.4900
   44MOL0     H 5932   3.747  10.075   0.114  0.5588 -1.0590 -0.7550
   44MOL0     H 5933   3.668  10.193  -0.006 -1.4228 -0.3192 -0.0842
   44MOL0     H 5934   3.744  10.043  -0.195  2.4700 -2.4163 -0.7574
   44MOL0     H 5935   3.817   9.925  -0.081 -0.2671 -0.7840  3.4435
   44MOL0     H 5936   3.983  10.075  -0.011 -0.1898  0.2894 -0.3957
   44MOL0     H 5937   3.890  10.215  -0.076  1.1727  0.5564  0.1231
   44MOL0     H 5938   4.110  10.091  -0.406 -1.1258  0.5393 -0.8841
   44MOL0     H 5939   3.442  10.070   0.402  0.3847 -1.2292  1.3789
   44MOL0     H 5940   3.309   9.912   0.529 -2.0544 -2.2018  1.6044
   45MOL0     O 5941   5.101   2.791   5.443  0.0262 -0.2877  0.0793
   45MOL0     C 5942   5.121   2.714   5.541 -0.1229  0.5834  0.2322
   45MOL0     O 5943   5.024   2.641   5.609 -0.1855  0.2780  0.0917
   45MOL0     C 5944   4.899   2.639   5.551  0.0885  0.4877  0.7333
   45MOL0     C 5945   4.846   2.527   5.492  0.3602  0.2424 -0.7095
   45MOL0     C 5946   4.722   2.525   5.436 -0.1875  0.0535 -0.1387
   45MOL0     C 5947   4.636   2.639   5.441 -0.3336 -1.1716 -0.5629
   45MOL0     O 5948   4.512   2.659   5.381  0.5700  0.0367 -0.5525
   45MOL0     C 5949   4.456   2.557   5.303  1.1381 -0.3640  0.2192
   45MOL0     C 5950   4.315   2.596   5.236 -0.2347 -0.2623  0.3163
   45MOL0     C 5951   4.194   2.592   5.332  0.6813  0.3785  0.3733
   45MOL0     C 5952   4.076   2.665   5.265  0.4023 -0.0032 -0.6593
   45MOL0     C 5953   3.950   2.636   5.350  0.6677 -0.3013 -0.7573
   45MOL0     C 5954   3.817   2.688   5.287  0.4246 -0.0852 -0.6174
   45MOL0     C 5955   3.703   2.644   5.377  0.1407  0.0505 -0.4098
   45MOL0     C 5956   3.578   2.628   5.298 -0.9298  0.0872  0.7251
   45MOL0     N 5957   3.477   2.560   5.380 -0.6850 -0.0387  0.3900
   45MOL0     C 5958   3.420   2.437   5.340  0.7722  0.0091  0.1913
   45MOL0     C 5959   3.296   2.430   5.405  0.0512 -0.5959 -0.4116
   45MOL0     C 5960   3.185   2.324   5.402 -0.1341 -0.1770  0.5205
   45MOL0     C 5961   3.046   2.376   5.394 -0.2208  0.4076 -0.2370
   45MOL0     C 5962   3.017   2.461   5.261 -0.1445 -0.2929 -0.4658
   45MOL0     C 5963   2.894   2.539   5.268 -0.2608  0.1348 -0.0652
   45MOL0     O 5964   2.788   2.450   5.305 -0.5091 -0.0114  0.3805
   45MOL0     C 5965   2.661   2.503   5.320 -0.2171 -0.0225 -0.0896
   45MOL0     C 5966   2.586   2.449   5.415  0.5272 -0.1839 -0.2641
   45MOL0     C 5967   2.452   2.500   5.440  0.5589 -0.4370 -0.1793
   45MOL0     C 5968   2.351   2.424   5.526 -0.0389  0.8379 -0.0837
   45MOL0     C 5969   2.406   2.611   5.378  0.1708 -0.2522 -0.7324
   45MOL0     C 5970   2.280   2.675   5.404 -0.3027 -0.4964  0.0679
   45MOL0     O 5971   2.206   2.685   5.292  0.2068 -0.1323 -0.0241
   45MOL0     C 5972   2.082   2.733   5.311 -0.0535 -0.1287 -0.0204
   45MOL0     C 5973   2.056   2.856   5.255  0.2597  0.0131 -0.1877
   45MOL0     C 5974   1.938   2.928   5.277 -1.0316  0.2019 -0.1552
   45MOL0     C 5975   1.840   2.878   5.362  0.1716 -0.3400  0.0721
   45MOL0     O 5976   1.726   2.937   5.407  0.0426  0.4006  0.2056
   45MOL0     C 5977   1.690   3.070   5.366 -0.6242  0.0351 -0.0250
   45MOL0     C 5978   1.599   3.125   5.483 -1.1169  0.1289 -0.4077
   45MOL0     C 5979   1.482   3.209   5.439  0.8188 -0.1266  0.0256
   45MOL0     C 5980   1.402   3.268   5.563  0.4363  0.3052  0.2736
   45MOL0     C 5981   1.260   3.308   5.529  0.0645 -0.1192  0.7339
   45MOL0     C 5982   1.191   3.362   5.647  0.5824 -0.3822 -1.8098
   45MOL0     C 5983   1.234   3.510   5.676 -0.5783 -0.0525  0.1663
   45MOL0     C 5984   1.157   3.568   5.789  0.6273  0.3682 -0.1020
   45MOL0    Cl 5985   1.240   3.717   5.861 -0.7842  0.1847  0.0880
   45MOL0     C 5986   1.860   2.750   5.419  0.4016  0.4756  0.4709
   45MOL0     C 5987   1.978   2.680   5.391  0.1253 -1.0274  0.1660
   45MOL0     O 5988   2.252   2.708   5.517 -0.4995 -0.8600  0.4173
   45MOL0     C 5989   2.496   2.671   5.286 -0.7427 -0.0757  0.1281
   45MOL0     C 5990   2.620   2.612   5.246 -0.5316 -0.2727 -0.1065
   45MOL0     N 5991   3.297   2.545   5.485  0.4224  0.2713 -0.4763
   45MOL0     N 5992   3.403   2.618   5.477 -0.4142 -0.3079  0.8862
   45MOL0     C 5993   4.691   2.756   5.503  0.2649  0.6671  0.1931
   45MOL0     C 5994   4.817   2.754   5.560 -0.8036 -0.1582  0.6680
   45MOL0     C 5995   5.259   2.690   5.588 -0.7343  0.2815 -0.2249
   45MOL0     C 5996   5.364   2.705   5.506  0.2119 -0.3298 -0.1823
   45MOL0     C 5997   5.489   2.682   5.544 -0.5460 -0.3272  0.1456
   45MOL0     C 5998   5.523   2.661   5.675  0.4337  0.8372  0.1842
   45MOL0     O 5999   5.648   2.666   5.707 -0.1108  0.2409  0.5698
   45MOL0     C 6000   5.684   2.666   5.849 -0.4673 -0.2915  0.4641
   45MOL0     C 6001   5.837   2.697   5.844 -1.0618 -0.6535  0.4569
   45MOL0     C 6002   5.884   2.711   5.989 -0.2225 -0.6572 -0.3222
   45MOL0     C 6003   6.023   2.779   5.995  0.2042 -0.4258 -0.5146
   45MOL0     C 6004   6.139   2.694   5.979 -0.2296 -0.5907  0.1194
   45MOL0     C 6005   6.237   2.628   5.978 -0.6597 -0.1367  0.6183
   45MOL0     C 6006   5.412   2.641   5.763 -0.5596  0.4463 -0.3897
   45MOL0     C 6007   5.279   2.656   5.720 -0.6095 -0.1575 -0.0164
   45MOL0     H 6008   4.925   2.452   5.482  1.0200  0.6540  1.0005
   45MOL0     H 6009   4.689   2.441   5.375  0.9758 -0.6994  0.2203
   45MOL0     H 6010   4.514   2.519   5.218 -1.3665 -4.0986 -0.0766
   45MOL0     H 6011   4.437   2.467   5.363  0.7586  0.5358  1.4780
   45MOL0     H 6012   4.316   2.694   5.186 -1.0906 -0.6985 -0.5932
   45MOL0     H 6013   4.302   2.516   5.162 -0.6410  0.0381  0.0524
   45MOL0     H 6014   4.170   2.486   5.344  0.5364  0.5530  1.6944
   45MOL0     H 6015   4.219   2.635   5.429  1.3861  0.0221  0.3539
   45MOL0     H 6016   4.089   2.774   5.265 -1.3763  0.2380 -0.1894
   45MOL0     H 6017   4.081   2.625   5.163  0.3398  0.5157 -0.8737
   45MOL0     H 6018   3.944   2.528   5.367 -1.4390 -0.4031 -1.7781
   45MOL0     H 6019   3.965   2.684   5.447  1.0529 -0.0810 -0.9259
   45MOL0     H 6020   3.809   2.797   5.286  1.0731 -0.0283 -1.6738
   45MOL0     H 6021   3.805   2.645   5.187  1.7985 -2.1565  0.0413
   45MOL0     H 6022   3.733   2.549   5.421 -1.3776  0.6322  2.0561
   45MOL0     H 6023   3.683   2.721   5.452 -0.1730 -0.6877  0.2816
   45MOL0     H 6024   3.598   2.584   5.200 -0.8728 -0.8709  1.1586
   45MOL0     H 6025   3.530   2.724   5.277 -1.7336 -0.3474  0.5219
   45MOL0     H 6026   3.457   2.367   5.265 -2.2001  1.4266 -2.8489
   45MOL0     H 6027   3.217   2.265   5.316 -0.8108 -0.2607  0.3202
   45MOL0     H 6028   3.194   2.260   5.490  0.0831 -0.4160  0.3249
   45MOL0     H 6029   3.010   2.438   5.477  1.4299  0.5690  0.3956
   45MOL0     H 6030   2.983   2.287   5.392  2.1845 -1.3585 -2.1639
   45MOL0     H 6031   3.022   2.398   5.171 -2.3189  0.9041 -1.5022
   45MOL0     H 6032   3.097   2.534   5.253 -1.2609  1.0606  0.3058
   45MOL0     H 6033   2.891   2.592   5.173  0.2253  1.4277  0.6080
   45MOL0     H 6034   2.906   2.618   5.343 -2.6131  0.8251 -0.3231
   45MOL0     H 6035   2.624   2.373   5.482 -0.0611  1.4018  1.9883
   45MOL0     H 6036   2.338   2.482   5.618 -1.1038  3.7412 -1.9232
   45MOL0     H 6037   2.256   2.401   5.477 -0.2182 -1.0339  1.0261
   45MOL0     H 6038   2.390   2.328   5.560  0.9189  1.2017 -0.1401
   45MOL0     H 6039   2.131   2.892   5.185  2.3294  0.2464  1.9929
   45MOL0     H 6040   1.928   3.025   5.229  1.5644  1.5773  1.8057
   45MOL0     H 6041   1.770   3.140   5.342 -1.8041  1.1331 -0.8894
   45MOL0     H 6042   1.637   3.062   5.270  1.6557 -1.1906 -1.2532
   45MOL0     H 6043   1.570   3.035   5.538 -0.2767  0.9193  1.4426
   45MOL0     H 6044   1.669   3.183   5.544  0.5729 -0.2124 -1.9418
   45MOL0     H 6045   1.423   3.144   5.374  3.9833 -2.1171 -1.0800
   45MOL0     H 6046   1.511   3.292   5.373 -1.3262  0.9274  0.2917
   45MOL0     H 6047   1.393   3.188   5.637 -1.1010  0.5813  0.4239
   45MOL0     H 6048   1.456   3.353   5.606 -0.1935  1.1862 -0.6314
   45MOL0     H 6049   1.204   3.220   5.497 -1.0789 -0.1885  2.7835
   45MOL0     H 6050   1.261   3.377   5.443  0.4569 -1.7342 -0.6018
   45MOL0     H 6051   1.084   3.356   5.625  0.2247 -1.0860 -0.0196
   45MOL0     H 6052   1.204   3.296   5.733 -1.9317  0.0748 -1.0083
   45MOL0     H 6053   1.224   3.575   5.589 -3.3484 -0.7648 -0.1277
   45MOL0     H 6054   1.335   3.509   5.720 -0.1369 -0.6174 -0.8358
   45MOL0     H 6055   1.143   3.486   5.861  3.1244 -0.3507 -0.3380
   45MOL0     H 6056   1.053   3.595   5.768  0.4418 -0.2501 -0.0132
   45MOL0     H 6057   1.786   2.706   5.485  1.6014 -0.2867  1.3481
   45MOL0     H 6058   1.991   2.594   5.457  0.2051 -0.2742  1.1598
   45MOL0     H 6059   2.482   2.766   5.237 -1.0539 -0.4609 -0.5452
   45MOL0     H 6060   2.685   2.667   5.179  0.1082 -2.8691 -1.7350
   45MOL0     H 6061   4.621   2.835   5.529  1.9705  1.8478  1.3801
   45MOL0     H 6062   4.859   2.843   5.607  1.4911 -1.0404  0.4391
   45MOL0     H 6063   5.346   2.724   5.400  1.0270  2.2147  0.0763
   45MOL0     H 6064   5.568   2.691   5.470  0.5448 -2.5281  0.9600
   45MOL0     H 6065   5.638   2.747   5.906  1.7727  2.5737 -1.5306
   45MOL0     H 6066   5.656   2.569   5.893  1.2478 -0.5678  1.0213
   45MOL0     H 6067   5.841   2.786   5.780 -2.0137  0.7505  2.2486
   45MOL0     H 6068   5.895   2.616   5.800 -3.3681 -1.8543 -0.5790
   45MOL0     H 6069   5.886   2.614   6.040  1.5231  0.4253  1.8638
   45MOL0     H 6070   5.807   2.773   6.036  2.0021  1.3800  0.8846
   45MOL0     H 6071   6.035   2.824   6.094  0.7740  0.0544 -0.8010
   45MOL0     H 6072   6.039   2.858   5.921 -1.1302 -0.3317 -0.7306
   45MOL0     H 6073   6.317   2.559   5.964  0.1224  0.7386  0.6960
   45MOL0     H 6074   5.426   2.611   5.867  2.4963 -0.3622 -0.9372
   45MOL0     H 6075   5.190   2.657   5.781 -1.9214 -0.4689 -1.8249
   46MOL0     O 6076  10.624   7.478   1.023 -0.4321 -0.2902  0.4255
   46MOL0     C 6077  10.609   7.396   1.115  0.6257  0.5225  1.2027
   46MOL0     O 6078  10.633   7.259   1.104 -0.3456 -0.3942 -0.1838
   46MOL0     C 6079  10.698   7.227   0.983 -0.0017 -0.8047 -0.8757
   46MOL0     C 6080  10.625   7.152   0.885 -0.1306 -0.3457 -0.4676
   46MOL0     C 6081  10.693   7.118   0.760  0.4086  0.4904  0.0228
   46MOL0     C 6082  10.819   7.165   0.726  0.3191 -0.0700 -0.2585
   46MOL0     O 6083  10.863   7.135   0.602 -0.6102 -0.0830 -0.5552
   46MOL0     C 6084  10.907   7.245   0.521  0.5922 -0.1258 -0.7198
   46MOL0     C 6085  10.834   7.250   0.385  0.5328  0.2264  0.2135
   46MOL0     C 6086  10.684   7.238   0.410  0.7220  0.2129  0.0702
   46MOL0     C 6087  10.608   7.233   0.283 -0.0827 -0.1212  0.4219
   46MOL0     C 6088  10.457   7.226   0.308 -0.6522  0.6654  0.6092
   46MOL0     C 6089  10.403   7.088   0.351  0.0068  0.6364 -0.5881
   46MOL0     C 6090  10.267   7.101   0.410  0.8377  0.0632 -0.2262
   46MOL0     C 6091  10.240   6.972   0.497  0.0908  0.3360  0.2284
   46MOL0     N 6092  10.103   6.971   0.534  0.6749 -0.4875 -0.5534
   46MOL0     C 6093   9.997   6.909   0.470  0.3625  0.5073 -0.5406
   46MOL0     C 6094   9.882   6.951   0.531  0.1824  0.4025 -0.5240
   46MOL0     C 6095   9.737   6.916   0.502  0.1932  0.7700 -0.1743
   46MOL0     C 6096   9.692   6.820   0.611  0.0313  0.9742 -0.1245
   46MOL0     C 6097   9.537   6.792   0.609 -0.4952  0.7808 -0.5370
   46MOL0     C 6098   9.485   6.709   0.714  0.3729 -0.3776  1.6144
   46MOL0     O 6099   9.489   6.789   0.832 -0.4264 -0.4634 -0.4758
   46MOL0     C 6100   9.452   6.729   0.947 -0.3392  0.5434 -0.4328
   46MOL0     C 6101   9.362   6.621   0.960 -0.0457  0.6216 -0.5280
   46MOL0     C 6102   9.330   6.557   1.079 -0.1674  0.2657 -0.2462
   46MOL0     C 6103   9.244   6.431   1.084 -1.0369 -1.0215  0.0470
   46MOL0     C 6104   9.401   6.606   1.205  0.0492  0.1954  0.5283
   46MOL0     C 6105   9.390   6.532   1.328  0.4190 -0.0098 -0.0006
   46MOL0     O 6106   9.274   6.459   1.360 -0.1206  0.5884  0.1143
   46MOL0     C 6107   9.274   6.368   1.468  0.4715 -0.1637  0.6494
   46MOL0     C 6108   9.164   6.351   1.544  1.0203  0.1882 -0.0552
   46MOL0     C 6109   9.157   6.257   1.641 -0.4419 -0.6568  0.5763
   46MOL0     C 6110   9.271   6.179   1.675 -0.0131  0.0114  0.6564
   46MOL0     O 6111   9.278   6.086   1.770  0.1488 -0.4219 -0.5584
   46MOL0     C 6112   9.195   5.966   1.761 -0.6185 -0.7374  0.4160
   46MOL0     C 6113   9.248   5.849   1.846  0.4369  0.5723  0.3551
   46MOL0     C 6114   9.171   5.720   1.814  0.7791 -0.3781  0.1612
   46MOL0     C 6115   9.222   5.586   1.864  0.2163  0.3998 -0.5169
   46MOL0     C 6116   9.140   5.471   1.826 -0.2245  0.5644 -0.3442
   46MOL0     C 6117   9.200   5.333   1.857 -0.4055 -0.1191 -0.2049
   46MOL0     C 6118   9.091   5.225   1.830  0.2000 -0.3497  1.0720
   46MOL0     C 6119   9.149   5.089   1.852  0.1801  0.7825  1.3298
   46MOL0    Cl 6120   9.291   5.063   1.750  0.1265 -0.0826 -0.4771
   46MOL0     C 6121   9.386   6.190   1.593 -0.4215 -0.2993 -0.0575
   46MOL0     C 6122   9.375   6.279   1.487 -0.2093  0.1420 -0.2234
   46MOL0     O 6123   9.483   6.549   1.401  0.4149 -0.3792  0.2226
   46MOL0     C 6124   9.490   6.715   1.185  0.4295 -0.0984 -0.0798
   46MOL0     C 6125   9.516   6.769   1.062  0.4187 -0.4168 -1.0916
   46MOL0     N 6126   9.918   7.047   0.622  1.0585 -0.3938  0.0087
   46MOL0     N 6127  10.046   7.070   0.616  0.1422  0.0788  0.6252
   46MOL0     C 6128  10.889   7.235   0.822  0.3890  0.7991 -0.4151
   46MOL0     C 6129  10.823   7.271   0.949 -0.0050 -0.0518  0.0618
   46MOL0     C 6130  10.554   7.450   1.243  0.0328  0.4159  0.4501
   46MOL0     C 6131  10.498   7.578   1.249 -0.4288 -0.7950 -0.0603
   46MOL0     C 6132  10.432   7.617   1.373 -0.7420  0.3034  0.1252
   46MOL0     C 6133  10.442   7.543   1.483  0.1855  0.5659 -1.1711
   46MOL0     O 6134  10.376   7.589   1.594 -0.5211 -0.2594  0.3401
   46MOL0     C 6135  10.356   7.510   1.711 -0.2585 -0.3585  0.5014
   46MOL0     C 6136  10.231   7.426   1.704  0.3654  1.0361  0.1068
   46MOL0     C 6137  10.107   7.516   1.654  0.0372  0.1387 -0.9552
   46MOL0     C 6138  10.003   7.432   1.577 -1.0158 -0.2422  0.4288
   46MOL0     C 6139   9.916   7.348   1.663 -1.0784 -0.1678  0.5702
   46MOL0     C 6140   9.842   7.276   1.728  0.1406 -0.1499  0.4090
   46MOL0     C 6141  10.505   7.414   1.474 -1.6066  0.4566 -0.7749
   46MOL0     C 6142  10.557   7.367   1.355  0.0651  0.1781 -0.3937
   46MOL0     H 6143  10.524   7.119   0.907  0.6290 -1.6612  1.3342
   46MOL0     H 6144  10.645   7.061   0.681 -3.1026  0.1853  2.1437
   46MOL0     H 6145  10.897   7.341   0.574  0.9869 -0.4281 -0.0850
   46MOL0     H 6146  11.016   7.234   0.510  0.8340 -2.2934  2.4871
   46MOL0     H 6147  10.872   7.335   0.327  2.2605 -0.6370  0.0134
   46MOL0     H 6148  10.873   7.164   0.330  1.2479  0.7898 -0.1941
   46MOL0     H 6149  10.668   7.142   0.459 -0.1946 -0.1137 -0.8402
   46MOL0     H 6150  10.645   7.318   0.474 -0.6461 -0.0118 -0.4674
   46MOL0     H 6151  10.639   7.324   0.232  0.2109 -1.0262 -1.0596
   46MOL0     H 6152  10.633   7.143   0.227 -2.2224  0.3793 -1.4918
   46MOL0     H 6153  10.439   7.291   0.394  1.1191 -2.0563  3.2435
   46MOL0     H 6154  10.403   7.261   0.220  0.5152  1.9876  0.3930
   46MOL0     H 6155  10.399   7.026   0.260  4.6386 -0.8667 -0.0213
   46MOL0     H 6156  10.467   7.043   0.427  0.8348  0.5660 -1.3173
   46MOL0     H 6157  10.256   7.192   0.470 -0.6204 -0.2486  0.0343
   46MOL0     H 6158  10.204   7.094   0.320  0.6294 -2.4749  0.0352
   46MOL0     H 6159  10.307   6.967   0.583  1.5099 -1.1825 -0.9059
   46MOL0     H 6160  10.271   6.888   0.434  2.0414  1.4685 -0.3926
   46MOL0     H 6161   9.998   6.830   0.396 -2.0156 -0.3104  0.2166
   46MOL0     H 6162   9.686   7.012   0.508  0.5546  0.9377  0.3370
   46MOL0     H 6163   9.721   6.874   0.402  1.8552  3.2834 -1.5804
   46MOL0     H 6164   9.734   6.864   0.702 -0.7876 -2.2673  1.9741
   46MOL0     H 6165   9.755   6.732   0.594  1.6159  1.7947  1.1824
   46MOL0     H 6166   9.517   6.739   0.515 -2.5151  0.3565  0.0892
   46MOL0     H 6167   9.475   6.882   0.599 -3.0137 -0.9223 -1.3151
   46MOL0     H 6168   9.554   6.625   0.727  0.5537 -0.1830  1.9359
   46MOL0     H 6169   9.385   6.672   0.689  0.0900  0.4950  1.4294
   46MOL0     H 6170   9.313   6.583   0.871 -0.1057 -0.3351 -0.0913
   46MOL0     H 6171   9.148   6.443   1.134 -1.9356 -1.4337 -1.5277
   46MOL0     H 6172   9.213   6.404   0.983  0.9589  2.7814 -1.8057
   46MOL0     H 6173   9.310   6.351   1.121  0.0624 -0.0284  0.3036
   46MOL0     H 6174   9.076   6.413   1.529  1.2343  0.6290  0.4900
   46MOL0     H 6175   9.072   6.237   1.705  1.1235 -3.2457  1.9962
   46MOL0     H 6176   9.090   5.987   1.782 -0.4018 -1.4508  2.3516
   46MOL0     H 6177   9.201   5.932   1.657  0.8513  1.8786 -0.4452
   46MOL0     H 6178   9.354   5.833   1.825  0.1617  0.4234 -1.0424
   46MOL0     H 6179   9.243   5.860   1.954 -1.3928  2.4638  0.1330
   46MOL0     H 6180   9.140   5.714   1.710  0.3812 -0.2430  0.2718
   46MOL0     H 6181   9.074   5.738   1.861 -1.4121  0.9036 -4.3125
   46MOL0     H 6182   9.319   5.566   1.817 -0.1938 -1.1332 -0.7551
   46MOL0     H 6183   9.230   5.581   1.973 -1.1153 -3.3582 -0.4358
   46MOL0     H 6184   9.125   5.480   1.718  2.9288  1.6100 -0.8072
   46MOL0     H 6185   9.047   5.472   1.883 -1.2522 -3.0883 -1.6876
   46MOL0     H 6186   9.294   5.316   1.804 -1.5587 -0.4886 -2.2179
   46MOL0     H 6187   9.233   5.334   1.962 -0.4485  0.4448 -0.1946
   46MOL0     H 6188   9.057   5.231   1.726 -1.5735  2.6624  1.6868
   46MOL0     H 6189   9.001   5.237   1.891 -0.5962 -0.9642  0.0447
   46MOL0     H 6190   9.083   5.004   1.831  0.6749 -0.0553  2.9905
   46MOL0     H 6191   9.176   5.063   1.955 -3.2354 -2.7681  1.5932
   46MOL0     H 6192   9.471   6.126   1.612 -0.7236 -1.5403 -2.5232
   46MOL0     H 6193   9.448   6.287   1.408 -1.5991 -2.3820 -1.9187
   46MOL0     H 6194   9.542   6.747   1.275  1.0335  1.3613 -0.9276
   46MOL0     H 6195   9.588   6.851   1.065 -1.4769  1.3213 -1.3836
   46MOL0     H 6196  10.988   7.271   0.797  0.9392 -1.3398 -1.5271
   46MOL0     H 6197  10.874   7.327   1.027 -0.6825 -0.6009  0.9243
   46MOL0     H 6198  10.497   7.652   1.169 -0.6382  0.0989  0.7411
   46MOL0     H 6199  10.372   7.707   1.384  1.4604  1.5925  2.8209
   46MOL0     H 6200  10.434   7.434   1.723 -0.9771 -0.8589  2.4218
   46MOL0     H 6201  10.356   7.566   1.805 -2.3986 -1.9559  1.5302
   46MOL0     H 6202  10.223   7.369   1.797  1.2351 -1.0367 -1.0214
   46MOL0     H 6203  10.243   7.352   1.625 -1.1349  2.1730 -1.2554
   46MOL0     H 6204  10.149   7.579   1.575  1.3126 -1.8227 -1.9390
   46MOL0     H 6205  10.072   7.577   1.738 -1.2635 -1.5737 -0.1819
   46MOL0     H 6206  10.054   7.366   1.507 -0.3600  0.5684  0.1284
   46MOL0     H 6207   9.942   7.506   1.523  0.8022 -0.4217 -2.0660
   46MOL0     H 6208   9.777   7.221   1.793 -0.1366 -1.1246 -0.6658
   46MOL0     H 6209  10.514   7.342   1.555  1.6694 -1.5792 -2.6980
   46MOL0     H 6210  10.592   7.265   1.353 -0.6822 -0.1178  0.5904
   47MOL0     O 6211   5.137   0.461   4.218  0.0750 -0.6760 -0.0574
   47MOL0     C 6212   5.182   0.562   4.269 -0.2891 -0.5694  0.0998
   47MOL0     O 6213   5.110   0.658   4.325 -0.0413  0.2897 -0.6535
   47MOL0     C 6214   4.974   0.669   4.283  0.4574 -0.4602 -0.3621
   47MOL0     C 6215   4.942   0.684   4.150  0.2702  0.1293  0.7988
   47MOL0     C 6216   4.809   0.699   4.103 -0.1102 -0.3891 -0.0225
   47MOL0     C 6217   4.704   0.699   4.194  0.4196  0.3681 -0.7600
   47MOL0     O 6218   4.577   0.713   4.148  0.0528 -0.3924  0.1807
   47MOL0     C 6219   4.469   0.751   4.240 -0.1251 -0.0408  0.5534
   47MOL0     C 6220   4.347   0.733   4.144  0.7637  0.0544  0.1341
   47MOL0     C 6221   4.336   0.835   4.028  0.3133  0.6260 -0.8003
   47MOL0     C 6222   4.188   0.832   3.971 -0.6136  0.1008 -1.0051
   47MOL0     C 6223   4.163   0.928   3.847 -0.0796  0.3419 -0.1002
   47MOL0     C 6224   4.022   0.892   3.790  0.4225 -0.0558 -0.4329
   47MOL0     C 6225   3.996   0.955   3.657  0.7348  0.5698 -0.3881
   47MOL0     C 6226   3.864   0.888   3.615 -0.1275 -0.4731  0.3861
   47MOL0     N 6227   3.751   0.921   3.690  0.6845  0.6539 -0.4356
   47MOL0     C 6228   3.709   1.049   3.702  0.4843 -0.1922  0.2441
   47MOL0     C 6229   3.603   1.035   3.789  0.3296  0.2327 -0.8645
   47MOL0     C 6230   3.508   1.142   3.840  0.1159  0.4619 -0.7640
   47MOL0     C 6231   3.432   1.210   3.722  0.0034 -0.0099  0.7390
   47MOL0     C 6232   3.323   1.126   3.664 -0.1290 -0.0070  0.4643
   47MOL0     C 6233   3.192   1.137   3.745 -0.4577 -0.0245 -0.8537
   47MOL0     O 6234   3.124   1.265   3.731 -0.2102  0.2851  0.3470
   47MOL0     C 6235   3.004   1.251   3.663  0.3087  0.2463 -0.1546
   47MOL0     C 6236   2.975   1.333   3.558  0.1019 -0.4993 -0.0180
   47MOL0     C 6237   2.856   1.345   3.488  0.7001  0.1231 -0.2215
   47MOL0     C 6238   2.859   1.436   3.364 -0.1372  0.0609 -0.9610
   47MOL0     C 6239   2.740   1.269   3.530 -0.1730  0.1589  0.3615
   47MOL0     C 6240   2.604   1.297   3.480 -0.6734 -0.1802  0.1035
   47MOL0     O 6241   2.594   1.372   3.363 -0.1597  0.1456  0.3863
   47MOL0     C 6242   2.480   1.443   3.335 -0.5173  0.0371  0.7273
   47MOL0     C 6243   2.464   1.574   3.368 -0.1169 -0.7100  0.3595
   47MOL0     C 6244   2.346   1.651   3.330  0.3292  1.7343 -0.3561
   47MOL0     C 6245   2.248   1.583   3.258 -0.8435  0.1137 -0.5719
   47MOL0     O 6246   2.132   1.661   3.215 -0.6585  0.1229 -0.7502
   47MOL0     C 6247   2.013   1.589   3.175 -0.0993  0.1281 -0.0849
   47MOL0     C 6248   1.897   1.690   3.166 -0.4407 -0.0772 -0.1364
   47MOL0     C 6249   1.760   1.630   3.144  0.1533  0.8997 -0.2973
   47MOL0     C 6250   1.738   1.585   2.997  0.5019  0.5016  0.4484
   47MOL0     C 6251   1.592   1.565   2.963 -0.6198 -0.3365 -0.0602
   47MOL0     C 6252   1.528   1.452   3.046 -0.2945 -0.1953 -0.7177
   47MOL0     C 6253   1.389   1.424   2.988 -0.5897  0.7344 -0.4887
   47MOL0     C 6254   1.337   1.298   3.034  1.2626  0.6102  0.3001
   47MOL0    Cl 6255   1.161   1.292   2.994  0.0085  0.1710  0.3423
   47MOL0     C 6256   2.269   1.447   3.219 -0.4586  0.4070  0.3943
   47MOL0     C 6257   2.387   1.377   3.254 -0.0410  0.0696 -0.4390
   47MOL0     O 6258   2.515   1.265   3.554  0.2514 -0.2627  0.2728
   47MOL0     C 6259   2.769   1.185   3.642  0.9049 -0.9618 -1.0455
   47MOL0     C 6260   2.897   1.168   3.706 -0.0423 -0.0971 -0.1124
   47MOL0     N 6261   3.582   0.909   3.827 -0.5950  0.5011  0.7086
   47MOL0     N 6262   3.675   0.832   3.764 -0.3322 -0.2583  0.2903
   47MOL0     C 6263   4.740   0.678   4.329  0.6613  0.4204 -0.1648
   47MOL0     C 6264   4.867   0.665   4.378  0.1267 -0.0099 -0.1975
   47MOL0     C 6265   5.329   0.592   4.274  0.1829  0.5633 -0.0116
   47MOL0     C 6266   5.376   0.679   4.369  0.1445  0.9007 -0.6733
   47MOL0     C 6267   5.507   0.710   4.388  0.2383 -0.8948  0.4294
   47MOL0     C 6268   5.611   0.646   4.309 -1.1158 -0.2569 -0.6209
   47MOL0     O 6269   5.742   0.664   4.323 -0.0979 -0.4016 -0.7598
   47MOL0     C 6270   5.796   0.744   4.433  0.0036 -0.0564  0.7307
   47MOL0     C 6271   5.940   0.689   4.467 -0.6314  0.3157  0.7356
   47MOL0     C 6272   6.000   0.717   4.608 -0.2500  0.1860  0.6997
   47MOL0     C 6273   6.043   0.870   4.610 -0.2308 -0.1400  0.0035
   47MOL0     C 6274   6.131   0.902   4.720 -0.1106 -0.2171  0.0592
   47MOL0     C 6275   6.199   0.943   4.806 -0.0154  0.1687  0.9113
   47MOL0     C 6276   5.569   0.562   4.212  0.3798  0.2645 -0.3863
   47MOL0     C 6277   5.430   0.531   4.194  0.2252 -0.0607 -0.2290
   47MOL0     H 6278   5.018   0.692   4.073 -1.8241  3.8532 -1.1761
   47MOL0     H 6279   4.775   0.721   4.002 -6.6595 -1.2695  1.5368
   47MOL0     H 6280   4.457   0.684   4.326 -1.3116  0.2435  0.6233
   47MOL0     H 6281   4.480   0.855   4.274 -1.8849  0.5759 -0.6373
   47MOL0     H 6282   4.347   0.631   4.102 -0.2466  0.0127  0.2129
   47MOL0     H 6283   4.260   0.746   4.209  0.1955  1.1889 -0.8194
   47MOL0     H 6284   4.346   0.936   4.070  2.2449 -0.5156  1.7345
   47MOL0     H 6285   4.409   0.817   3.948 -0.5501  0.6060 -1.6011
   47MOL0     H 6286   4.174   0.730   3.934  0.4515 -0.6311  0.4826
   47MOL0     H 6287   4.120   0.853   4.055  2.5176  0.9016  1.5323
   47MOL0     H 6288   4.162   1.034   3.874 -0.6530  0.0032  1.2813
   47MOL0     H 6289   4.245   0.913   3.776 -0.6755  2.1434 -1.2562
   47MOL0     H 6290   4.023   0.783   3.776  3.2676 -0.0990 -0.4946
   47MOL0     H 6291   3.945   0.927   3.859  1.7366  0.7782  0.6703
   47MOL0     H 6292   3.979   1.062   3.673  0.2919  0.1680  2.2569
   47MOL0     H 6293   4.077   0.931   3.588  0.0311 -1.0938 -0.6769
   47MOL0     H 6294   3.873   0.780   3.601 -1.5275 -0.4112 -1.4043
   47MOL0     H 6295   3.847   0.936   3.518  1.1193 -1.1297 -0.1969
   47MOL0     H 6296   3.745   1.138   3.651 -0.7432 -0.7576 -1.7515
   47MOL0     H 6297   3.437   1.108   3.916 -1.5482  2.5928 -1.2477
   47MOL0     H 6298   3.566   1.223   3.884 -0.0388 -0.9875  2.3400
   47MOL0     H 6299   3.497   1.229   3.636 -1.1488  0.2480 -0.1080
   47MOL0     H 6300   3.400   1.310   3.753 -4.3126 -0.8883 -0.1604
   47MOL0     H 6301   3.358   1.023   3.649 -1.9642 -0.6714  0.5697
   47MOL0     H 6302   3.305   1.162   3.562  2.4785 -0.3920 -0.2276
   47MOL0     H 6303   3.216   1.111   3.849 -0.5203  0.3595 -0.7418
   47MOL0     H 6304   3.133   1.052   3.710  1.2956 -0.4394 -3.0541
   47MOL0     H 6305   3.060   1.396   3.531 -0.9367  1.0296  0.1111
   47MOL0     H 6306   2.959   1.472   3.338  0.7524  0.7290  2.8892
   47MOL0     H 6307   2.815   1.391   3.274 -1.2234  1.4875 -1.1965
   47MOL0     H 6308   2.807   1.524   3.403  1.9292 -0.9925  5.1042
   47MOL0     H 6309   2.541   1.624   3.426  1.5950  2.0998 -3.8471
   47MOL0     H 6310   2.319   1.753   3.355  0.6224  1.3713  1.6210
   47MOL0     H 6311   2.019   1.534   3.080  2.8964 -0.7751  0.5167
   47MOL0     H 6312   1.983   1.528   3.260  0.0171  3.2704  2.4016
   47MOL0     H 6313   1.895   1.735   3.265 -3.6081 -1.6839  0.6455
   47MOL0     H 6314   1.922   1.765   3.090  0.7517 -0.1431  0.1823
   47MOL0     H 6315   1.695   1.717   3.159 -1.6616  0.0479 -2.5568
   47MOL0     H 6316   1.733   1.547   3.209 -2.1207 -0.6120 -2.9654
   47MOL0     H 6317   1.779   1.647   2.917 -0.6483 -1.7390 -2.0628
   47MOL0     H 6318   1.783   1.487   2.976  0.5491  1.0527 -2.5215
   47MOL0     H 6319   1.586   1.531   2.859  2.4948  0.2682 -0.5329
   47MOL0     H 6320   1.535   1.658   2.973 -0.1798 -0.1657  0.8932
   47MOL0     H 6321   1.592   1.364   3.035 -1.7626 -1.1967 -1.5990
   47MOL0     H 6322   1.520   1.484   3.151 -0.3128  1.8560 -1.3093
   47MOL0     H 6323   1.400   1.419   2.879  1.5514 -3.3081 -0.2932
   47MOL0     H 6324   1.317   1.500   3.019 -1.6603 -1.5167  3.2000
   47MOL0     H 6325   1.362   1.290   3.140  0.7424 -0.6582  0.3375
   47MOL0     H 6326   1.388   1.213   2.986  0.8302  0.6031 -0.1488
   47MOL0     H 6327   2.198   1.399   3.153 -0.7404  1.5949 -0.1997
   47MOL0     H 6328   2.406   1.270   3.253 -0.3553 -0.0651  2.0295
   47MOL0     H 6329   2.689   1.135   3.696 -0.7279  2.1770 -0.3085
   47MOL0     H 6330   2.910   1.097   3.786  2.9372 -1.1256 -1.3915
   47MOL0     H 6331   4.661   0.676   4.404  1.6674 -0.3601  0.9040
   47MOL0     H 6332   4.894   0.651   4.482  2.4402  3.3778 -0.1846
   47MOL0     H 6333   5.302   0.732   4.428 -0.2524  0.3731 -0.6876
   47MOL0     H 6334   5.531   0.795   4.452  1.4380 -2.4040  2.0570
   47MOL0     H 6335   5.811   0.848   4.404  1.1457  0.2743  2.3415
   47MOL0     H 6336   5.726   0.739   4.517  0.4246  2.1365  1.2855
   47MOL0     H 6337   6.005   0.734   4.392  0.0133 -1.4745  0.1648
   47MOL0     H 6338   5.939   0.580   4.453 -0.6657  0.3432  0.5283
   47MOL0     H 6339   6.087   0.656   4.632 -0.0888  0.0700 -0.1548
   47MOL0     H 6340   5.923   0.698   4.684  0.5115  1.1196  1.7314
   47MOL0     H 6341   5.958   0.936   4.591  0.8915  1.2305 -0.4484
   47MOL0     H 6342   6.103   0.897   4.522 -0.5742  2.2502  0.4210
   47MOL0     H 6343   6.254   0.987   4.887  1.0974  3.6804 -1.5364
   47MOL0     H 6344   5.641   0.506   4.153 -1.9433 -1.3756 -1.8932
   47MOL0     H 6345   5.403   0.453   4.124 -3.2819  0.5637  0.2481
   48MOL0     O 6346  10.471   3.439  10.035  0.0055 -1.1755 -0.1201
   48MOL0     C 6347  10.484   3.540   9.971 -0.1048  0.2909  0.1308
   48MOL0     O 6348  10.382   3.617   9.932  0.6407  0.1293  0.3162
   48MOL0     C 6349  10.253   3.579   9.947  0.0713 -0.0728 -0.1855
   48MOL0     C 6350  10.186   3.468   9.887  1.2176  0.1935 -0.2591
   48MOL0     C 6351  10.050   3.453   9.906  0.4965 -0.0043 -0.0183
   48MOL0     C 6352   9.971   3.550   9.962  0.0986  0.0131 -0.8201
   48MOL0     O 6353   9.837   3.538   9.954 -0.7465 -0.4079  0.8916
   48MOL0     C 6354   9.761   3.650   9.968 -0.2618 -0.2206 -0.0578
   48MOL0     C 6355   9.630   3.637   9.892  0.3265 -0.5790 -0.0555
   48MOL0     C 6356   9.531   3.743   9.918 -0.2629  0.0393 -0.3997
   48MOL0     C 6357   9.428   3.747   9.806 -0.3043  0.8382  0.2036
   48MOL0     C 6358   9.335   3.862   9.830  0.4557 -0.7291 -0.7957
   48MOL0     C 6359   9.254   3.883   9.708  0.2136 -0.2668  0.2472
   48MOL0     C 6360   9.149   3.992   9.727 -0.0277  0.2860  0.1067
   48MOL0     C 6361   9.028   3.967   9.631  0.2225  0.0707 -0.0077
   48MOL0     N 6362   8.939   4.084   9.647  0.2326  0.1578  0.2060
   48MOL0     C 6363   8.806   4.090   9.682  0.1072 -0.4064 -0.1492
   48MOL0     C 6364   8.772   4.220   9.654 -0.3035 -1.0787  1.1970
   48MOL0     C 6365   8.628   4.267   9.633  0.2660  0.1106  0.1595
   48MOL0     C 6366   8.557   4.306   9.761 -1.1430 -1.0344 -0.1570
   48MOL0     C 6367   8.421   4.380   9.737  0.2217  0.6565 -0.2109
   48MOL0     C 6368   8.311   4.306   9.665 -0.1537  0.8482  0.8626
   48MOL0     O 6369   8.217   4.401   9.632  0.3254 -0.6640  0.5838
   48MOL0     C 6370   8.111   4.374   9.541 -0.0046  0.2321  0.7489
   48MOL0     C 6371   8.077   4.477   9.452 -0.4907  0.0865  0.2316
   48MOL0     C 6372   7.962   4.478   9.368 -0.1327 -0.2168 -0.5524
   48MOL0     C 6373   7.928   4.593   9.265 -0.1213 -0.0512 -0.1084
   48MOL0     C 6374   7.875   4.364   9.374 -0.8424 -0.4208  0.7714
   48MOL0     C 6375   7.737   4.346   9.306 -0.0063  0.1726 -0.6071
   48MOL0     O 6376   7.711   4.405   9.191 -0.0051 -0.2883  0.5681
   48MOL0     C 6377   7.573   4.403   9.158 -1.1451  0.0488  0.9764
   48MOL0     C 6378   7.482   4.500   9.200 -0.7352 -0.1374  0.6416
   48MOL0     C 6379   7.343   4.491   9.178  0.8016 -0.5164 -0.7272
   48MOL0     C 6380   7.295   4.378   9.104 -0.2081 -1.4502  0.7283
   48MOL0     O 6381   7.159   4.365   9.062 -0.0390  0.5951  0.0420
   48MOL0     C 6382   7.079   4.248   9.106  0.2011 -0.2358 -0.0192
   48MOL0     C 6383   6.980   4.208   8.996 -1.1974 -0.0524 -0.9608
   48MOL0     C 6384   6.943   4.065   9.029 -0.8705 -0.1577  0.2395
   48MOL0     C 6385   6.808   4.037   8.959 -0.4934  0.8064 -0.1928
   48MOL0     C 6386   6.780   3.884   8.969  0.8738 -0.1189 -0.0388
   48MOL0     C 6387   6.645   3.850   8.907 -0.7814  0.4287 -0.6179
   48MOL0     C 6388   6.617   3.696   8.919 -0.8213  0.1762 -0.1017
   48MOL0     C 6389   6.487   3.669   8.849  0.3524  0.5757 -0.2202
   48MOL0    Cl 6390   6.410   3.512   8.894 -0.1454 -0.2844 -0.2767
   48MOL0     C 6391   7.386   4.291   9.053  0.4226 -0.6925 -0.1362
   48MOL0     C 6392   7.519   4.299   9.081 -0.4339 -0.6901 -0.8642
   48MOL0     O 6393   7.651   4.298   9.380 -0.2973  0.2225  0.7071
   48MOL0     C 6394   7.904   4.267   9.471 -0.2987  0.3070 -0.0870
   48MOL0     C 6395   8.019   4.274   9.553  0.1815 -0.3459  0.7141
   48MOL0     N 6396   8.882   4.291   9.606 -0.3208  0.9492  0.7627
   48MOL0     N 6397   8.968   4.202   9.607  0.0784 -0.7382  0.3506
   48MOL0     C 6398  10.030   3.656  10.024 -0.4176 -0.5546 -0.1045
   48MOL0     C 6399  10.166   3.668  10.019  0.1484 -0.0977  0.8376
   48MOL0     C 6400  10.625   3.590   9.960 -0.3312  0.0998  0.5285
   48MOL0     C 6401  10.739   3.505   9.984 -0.2232 -0.2932 -0.7196
   48MOL0     C 6402  10.868   3.555   9.965  0.0403 -0.4482 -0.3611
   48MOL0     C 6403  10.888   3.688   9.918 -0.0318  0.2206 -0.0849
   48MOL0     O 6404  11.016   3.716   9.879 -0.4843  0.1782 -0.3679
   48MOL0     C 6405  11.055   3.847   9.907 -0.3760  0.4686 -0.1874
   48MOL0     C 6406  11.196   3.847   9.973 -0.4052  0.4050 -0.7767
   48MOL0     C 6407  11.300   3.779   9.887  0.7166  0.1530 -0.9043
   48MOL0     C 6408  11.438   3.757   9.957 -0.6835 -0.5933  0.3361
   48MOL0     C 6409  11.535   3.711   9.859  0.3526 -0.1000 -0.1723
   48MOL0     C 6410  11.613   3.667   9.785 -0.2072  0.1589 -0.3220
   48MOL0     C 6411  10.776   3.773   9.885 -0.3784  0.6891 -0.0488
   48MOL0     C 6412  10.644   3.725   9.904 -0.2321  0.4867  0.3323
   48MOL0     H 6413  10.244   3.398   9.828 -0.0360 -1.5656  0.4930
   48MOL0     H 6414  10.014   3.364   9.855  3.0280 -0.0218 -1.9318
   48MOL0     H 6415   9.734   3.669  10.072  0.8239 -0.8708  0.3592
   48MOL0     H 6416   9.813   3.737   9.925  0.4995 -0.4057  0.4704
   48MOL0     H 6417   9.661   3.636   9.787  1.4773 -0.1347  0.2674
   48MOL0     H 6418   9.580   3.541   9.908 -1.3797  0.4122  0.7860
   48MOL0     H 6419   9.480   3.712  10.010  1.4535  1.3937  1.0752
   48MOL0     H 6420   9.576   3.841   9.934 -2.0707  0.7776  0.4400
   48MOL0     H 6421   9.492   3.751   9.717  0.6281  0.4211  0.8353
   48MOL0     H 6422   9.372   3.653   9.802  1.0972 -0.0444  0.5766
   48MOL0     H 6423   9.279   3.833   9.920 -0.6240 -0.6389 -1.4204
   48MOL0     H 6424   9.387   3.958   9.845 -2.1424  1.1131 -2.6545
   48MOL0     H 6425   9.317   3.898   9.619 -1.3838  1.3747 -0.6778
   48MOL0     H 6426   9.202   3.789   9.686  0.9286 -0.7467  0.5807
   48MOL0     H 6427   9.121   3.993   9.833  1.6385 -3.4548  0.7290
   48MOL0     H 6428   9.204   4.085   9.708 -0.9411  1.6402  3.3519
   48MOL0     H 6429   8.982   3.876   9.671  3.0095 -0.7307  1.6002
   48MOL0     H 6430   9.057   3.961   9.526  2.0879 -1.6704  0.5450
   48MOL0     H 6431   8.735   4.010   9.699  0.9594 -1.1370  0.0122
   48MOL0     H 6432   8.621   4.347   9.559  2.1840 -0.6639 -0.9159
   48MOL0     H 6433   8.578   4.182   9.585  0.8949 -0.3522  0.3193
   48MOL0     H 6434   8.627   4.373   9.812 -1.8353  1.2001 -1.9564
   48MOL0     H 6435   8.542   4.217   9.822  0.6709 -0.5878  1.0083
   48MOL0     H 6436   8.438   4.467   9.673 -0.1157  0.3791 -0.6799
   48MOL0     H 6437   8.386   4.422   9.832 -0.1422  0.2999 -0.1845
   48MOL0     H 6438   8.268   4.242   9.742 -0.3850  1.1045  0.9476
   48MOL0     H 6439   8.331   4.245   9.576 -1.1793  0.8020  0.6423
   48MOL0     H 6440   8.152   4.555   9.446  0.7284 -0.8343  2.4311
   48MOL0     H 6441   7.997   4.677   9.259  0.2123 -0.1651  1.6551
   48MOL0     H 6442   7.902   4.549   9.168 -2.3887  0.3503  0.2582
   48MOL0     H 6443   7.836   4.642   9.299  0.1400  0.3456  0.0335
   48MOL0     H 6444   7.515   4.580   9.265 -0.0087  1.2831 -1.3920
   48MOL0     H 6445   7.271   4.563   9.216  0.7125 -1.8506  1.8289
   48MOL0     H 6446   7.146   4.167   9.136 -2.2592 -1.6504  2.0873
   48MOL0     H 6447   7.030   4.271   9.201  0.6516  1.0355 -0.0766
   48MOL0     H 6448   6.892   4.273   9.003 -3.0086 -2.4572 -0.0307
   48MOL0     H 6449   7.029   4.223   8.900  2.0065 -5.8655 -0.6590
   48MOL0     H 6450   6.925   4.046   9.136 -1.1039 -1.5429 -0.0322
   48MOL0     H 6451   7.022   4.000   8.990 -0.0504  0.4658  0.8204
   48MOL0     H 6452   6.725   4.094   9.001 -1.5577  0.3243 -1.5807
   48MOL0     H 6453   6.805   4.055   8.851  1.5252 -0.1997 -0.4764
   48MOL0     H 6454   6.782   3.841   9.069 -0.5409 -2.5390 -0.9777
   48MOL0     H 6455   6.857   3.826   8.918  1.0741 -1.6786  1.9264
   48MOL0     H 6456   6.571   3.920   8.946  0.3899 -0.4101  3.5659
   48MOL0     H 6457   6.651   3.881   8.802 -0.0990  1.0456 -0.4084
   48MOL0     H 6458   6.620   3.668   9.025  0.9508 -2.4400 -0.7686
   48MOL0     H 6459   6.701   3.642   8.875 -0.7252 -0.4109  0.7735
   48MOL0     H 6460   6.487   3.676   8.740 -0.6330 -2.6578 -0.5334
   48MOL0     H 6461   6.417   3.744   8.887 -1.0703 -1.5106  1.5573
   48MOL0     H 6462   7.351   4.213   8.986 -1.1547 -0.7524  0.6993
   48MOL0     H 6463   7.589   4.237   9.025  0.7079 -2.4289  2.2241
   48MOL0     H 6464   7.842   4.179   9.478 -0.9268  0.8122  0.9705
   48MOL0     H 6465   8.029   4.189   9.620  1.4717 -1.9051 -1.3637
   48MOL0     H 6466   9.982   3.746  10.061  2.0764  0.8401 -0.0052
   48MOL0     H 6467  10.213   3.757  10.060 -1.4637  2.2633 -2.0053
   48MOL0     H 6468  10.726   3.407  10.029 -2.6686  0.3116  0.0301
   48MOL0     H 6469  10.960   3.500   9.981  0.8330  0.8929 -0.1429
   48MOL0     H 6470  11.048   3.899   9.811 -0.1835  0.2180 -0.3370
   48MOL0     H 6471  10.984   3.907   9.965 -1.6031 -1.9753  0.9943
   48MOL0     H 6472  11.205   3.806  10.074  2.4608 -0.4358 -1.2779
   48MOL0     H 6473  11.224   3.952   9.984  0.6179  0.0149  0.6234
   48MOL0     H 6474  11.316   3.843   9.799  0.1396  0.6390 -0.6594
   48MOL0     H 6475  11.260   3.684   9.851  1.6967 -1.4733  1.9768
   48MOL0     H 6476  11.416   3.671  10.021 -1.7520 -1.9619 -1.7238
   48MOL0     H 6477  11.469   3.847  10.010  0.0403 -1.0824  0.7583
   48MOL0     H 6478  11.685   3.620   9.721 -0.3512 -0.9659  0.3283
   48MOL0     H 6479  10.783   3.871   9.839 -2.2807  0.9711  0.1588
   48MOL0     H 6480  10.551   3.768   9.865 -0.3282 -1.4177 -1.7482
   49MOL0     O 6481   9.573   1.148   2.952 -0.5163  0.3671 -0.1687
   49MOL0     C 6482   9.595   1.232   3.037  1.0619 -1.0464 -0.5002
   49MOL0     O 6483   9.501   1.293   3.113  0.3913 -0.3771 -0.0520
   49MOL0     C 6484   9.364   1.276   3.087 -0.4287 -1.3903 -0.0778
   49MOL0     C 6485   9.310   1.311   2.963 -0.2937  0.6996  0.6244
   49MOL0     C 6486   9.166   1.316   2.943 -0.4758  0.4334 -0.2544
   49MOL0     C 6487   9.083   1.281   3.055 -0.0428  0.0239  0.3163
   49MOL0     O 6488   8.953   1.255   3.049 -0.1639  0.0115  0.4262
   49MOL0     C 6489   8.896   1.242   2.920  0.0751 -0.3561  0.2933
   49MOL0     C 6490   8.752   1.172   2.913 -0.1924  0.1547 -0.4473
   49MOL0     C 6491   8.749   1.024   2.952 -0.4312 -0.6373 -0.3368
   49MOL0     C 6492   8.614   0.958   2.938  0.2894  0.5064  0.1842
   49MOL0     C 6493   8.508   1.029   3.025 -0.7158 -0.0829  0.0973
   49MOL0     C 6494   8.366   0.957   3.045  0.8261 -0.2469  1.0083
   49MOL0     C 6495   8.313   0.934   3.186 -1.0685  0.0136 -0.1167
   49MOL0     C 6496   8.294   1.065   3.267 -0.5145 -0.3600  0.3567
   49MOL0     N 6497   8.199   1.152   3.195 -0.2015 -0.6263 -0.0636
   49MOL0     C 6498   8.065   1.143   3.186  0.3577 -0.0338  1.5011
   49MOL0     C 6499   8.035   1.252   3.111  0.5962  0.0520 -0.1124
   49MOL0     C 6500   7.896   1.280   3.089 -0.2149  0.4916 -0.0085
   49MOL0     C 6501   7.793   1.281   3.207  0.2706 -0.6088 -0.2633
   49MOL0     C 6502   7.666   1.361   3.161 -0.6964  0.5018 -0.2931
   49MOL0     C 6503   7.541   1.283   3.200 -0.8371 -0.2946 -0.0036
   49MOL0     O 6504   7.425   1.354   3.150  0.3316 -0.0150 -0.1239
   49MOL0     C 6505   7.297   1.307   3.187  0.8417 -0.6520  0.0353
   49MOL0     C 6506   7.279   1.211   3.288 -0.5137  0.7726  0.6222
   49MOL0     C 6507   7.151   1.160   3.325  0.0547 -0.0065  0.0884
   49MOL0     C 6508   7.139   1.050   3.431 -0.6677 -0.2028  0.3928
   49MOL0     C 6509   7.040   1.193   3.247  1.1751 -0.1383  0.7887
   49MOL0     C 6510   6.898   1.136   3.262  0.2184 -0.3895 -0.2802
   49MOL0     O 6511   6.795   1.212   3.208  0.9014  0.0911 -0.4093
   49MOL0     C 6512   6.667   1.167   3.223 -0.5813  0.8291 -0.2255
   49MOL0     C 6513   6.574   1.249   3.287  0.1605  0.0413 -0.9305
   49MOL0     C 6514   6.441   1.207   3.291  0.0403  0.4206 -0.3274
   49MOL0     C 6515   6.394   1.086   3.227 -0.0773 -0.3777 -0.5060
   49MOL0     O 6516   6.263   1.051   3.245  0.5314  1.2103  1.0320
   49MOL0     C 6517   6.165   1.152   3.264 -0.0974  0.3411  0.3729
   49MOL0     C 6518   6.048   1.105   3.181 -0.0066 -0.6661 -0.6208
   49MOL0     C 6519   5.989   0.969   3.227 -0.7841 -0.4808  0.6790
   49MOL0     C 6520   5.881   0.923   3.124  0.5777  0.0901 -0.1294
   49MOL0     C 6521   5.745   0.998   3.132 -0.1507  0.1354 -0.2081
   49MOL0     C 6522   5.669   0.944   3.257 -1.0596 -0.3097  0.0041
   49MOL0     C 6523   5.589   1.059   3.324  0.4822 -0.1353 -0.5743
   49MOL0     C 6524   5.566   1.023   3.468  0.0883 -0.2268  0.3103
   49MOL0    Cl 6525   5.719   1.016   3.550  0.2887 -0.0504 -0.4645
   49MOL0     C 6526   6.489   1.008   3.169  0.2075  0.4297  0.9310
   49MOL0     C 6527   6.625   1.044   3.165  0.9430  0.3976  0.3576
   49MOL0     O 6528   6.878   1.025   3.309 -0.3055  0.4050 -0.2603
   49MOL0     C 6529   7.051   1.292   3.148 -0.1922  0.3352 -0.0697
   49MOL0     C 6530   7.180   1.355   3.133  0.6002  0.4583  0.8087
   49MOL0     N 6531   8.152   1.310   3.065  0.4035  0.5938 -0.1651
   49MOL0     N 6532   8.254   1.254   3.116  0.1741  0.3445  0.1596
   49MOL0     C 6533   9.141   1.270   3.181 -0.5512  0.3621 -0.3314
   49MOL0     C 6534   9.279   1.240   3.190 -0.1857 -0.7187 -0.0700
   49MOL0     C 6535   9.731   1.283   3.042 -0.6219 -0.6464 -0.7222
   49MOL0     C 6536   9.808   1.274   2.933 -0.1313 -0.0104  0.5709
   49MOL0     C 6537   9.936   1.335   2.920  0.2825  0.4492 -0.3235
   49MOL0     C 6538   9.991   1.388   3.039  0.0044 -0.1268  0.4528
   49MOL0     O 6539  10.117   1.439   3.053  0.1707 -0.3768  0.3499
   49MOL0     C 6540  10.205   1.459   2.943  0.3290 -0.4830 -0.0774
   49MOL0     C 6541  10.277   1.332   2.902  0.5436  0.0837  0.2670
   49MOL0     C 6542  10.345   1.350   2.766  0.2350  0.9213 -0.3992
   49MOL0     C 6543  10.405   1.211   2.711  0.0475 -0.7134  0.2503
   49MOL0     C 6544  10.530   1.175   2.771  0.6775 -0.6096  0.8420
   49MOL0     C 6545  10.636   1.126   2.803  0.1814  0.1673  0.0464
   49MOL0     C 6546   9.914   1.386   3.160 -0.3251 -0.5990  0.3275
   49MOL0     C 6547   9.784   1.337   3.163 -0.1060  0.7372  0.2041
   49MOL0     H 6548   9.377   1.343   2.884 -1.2867 -1.3167 -1.1100
   49MOL0     H 6549   9.139   1.327   2.839  1.4217  1.6014 -0.6868
   49MOL0     H 6550   8.870   1.341   2.883  0.0389 -0.9019 -1.2435
   49MOL0     H 6551   8.972   1.189   2.861  2.1966 -0.4280  2.8708
   49MOL0     H 6552   8.691   1.240   2.973  0.2329 -1.1972  1.6236
   49MOL0     H 6553   8.712   1.183   2.812 -0.2322  0.4042 -0.4067
   49MOL0     H 6554   8.818   0.972   2.885 -2.2306 -2.9677 -0.4865
   49MOL0     H 6555   8.782   1.019   3.056 -0.1835 -3.0826 -0.4804
   49MOL0     H 6556   8.586   0.969   2.833  1.4331  0.1680 -0.1745
   49MOL0     H 6557   8.623   0.850   2.948 -0.8207  0.4139  0.2309
   49MOL0     H 6558   8.550   1.061   3.121  2.1425  0.3342 -1.1726
   49MOL0     H 6559   8.490   1.123   2.972 -0.4551 -0.5816 -0.8899
   49MOL0     H 6560   8.291   1.013   2.989 -1.9802 -2.7097  2.0934
   49MOL0     H 6561   8.355   0.864   2.989 -1.1731  0.2331  0.5197
   49MOL0     H 6562   8.217   0.883   3.179 -1.0513  0.0238 -0.4302
   49MOL0     H 6563   8.381   0.858   3.228  3.4351  0.1049 -5.9815
   49MOL0     H 6564   8.382   1.129   3.284 -0.5956  0.7966 -2.8597
   49MOL0     H 6565   8.258   1.042   3.368 -2.1520 -1.6100 -0.4761
   49MOL0     H 6566   8.006   1.069   3.238 -2.6676  1.4949  0.5645
   49MOL0     H 6567   7.884   1.383   3.056  1.1948  1.1414  1.4195
   49MOL0     H 6568   7.849   1.218   3.012 -2.9504  2.6179 -0.2138
   49MOL0     H 6569   7.849   1.334   3.286 -1.4485  2.1208 -0.7303
   49MOL0     H 6570   7.776   1.175   3.225  1.8683 -0.5664  1.9334
   49MOL0     H 6571   7.665   1.381   3.053  0.7587 -0.1050 -0.4498
   49MOL0     H 6572   7.658   1.448   3.226 -1.0506 -2.3926  3.8789
   49MOL0     H 6573   7.536   1.270   3.309 -2.3881 -0.7867 -0.1102
   49MOL0     H 6574   7.543   1.184   3.154 -0.3920  0.1507 -0.9769
   49MOL0     H 6575   7.365   1.164   3.335  0.1827  0.3459 -1.0153
   49MOL0     H 6576   7.224   1.073   3.496 -0.3266 -0.0810 -0.0922
   49MOL0     H 6577   7.046   1.054   3.488 -0.6699 -0.2807  0.3942
   49MOL0     H 6578   7.160   0.951   3.389  1.7146 -0.6148  2.3180
   49MOL0     H 6579   6.605   1.338   3.340  0.1522 -0.2074 -0.5013
   49MOL0     H 6580   6.383   1.262   3.364  0.1392  2.3826 -1.6729
   49MOL0     H 6581   6.140   1.175   3.368  1.3614  2.9203  0.2572
   49MOL0     H 6582   6.220   1.238   3.224  1.9389 -1.1827 -0.2817
   49MOL0     H 6583   5.975   1.184   3.197  1.5248  0.9160 -1.1022
   49MOL0     H 6584   6.084   1.101   3.078 -1.6019 -0.3469 -1.2153
   49MOL0     H 6585   5.959   0.985   3.330 -1.8527 -0.8133  0.4382
   49MOL0     H 6586   6.077   0.904   3.220 -0.2596  0.2527  0.4001
   49MOL0     H 6587   5.917   0.929   3.021  2.2867 -2.2773  0.2532
   49MOL0     H 6588   5.869   0.817   3.148  2.2753 -0.1277 -0.1266
   49MOL0     H 6589   5.680   0.985   3.045 -1.0211  2.5820 -0.0107
   49MOL0     H 6590   5.772   1.104   3.141 -1.1980  0.2689  2.0940
   49MOL0     H 6591   5.605   0.860   3.231  0.2617 -0.4439 -3.2165
   49MOL0     H 6592   5.747   0.906   3.324  0.6734  3.1066  0.1540
   49MOL0     H 6593   5.493   1.076   3.273  0.2924  2.1472  0.4231
   49MOL0     H 6594   5.648   1.151   3.332 -0.2515  0.6870 -3.3593
   49MOL0     H 6595   5.507   0.932   3.485 -1.3168  0.4521 -0.6971
   49MOL0     H 6596   5.511   1.104   3.518 -0.6978 -1.5325  1.6225
   49MOL0     H 6597   6.448   0.915   3.129  1.8759 -0.5521  1.4174
   49MOL0     H 6598   6.695   0.987   3.106 -1.6139 -0.3325 -2.1941
   49MOL0     H 6599   6.976   1.341   3.087 -1.2037  0.5745  1.3180
   49MOL0     H 6600   7.197   1.434   3.061  0.2955  1.5211  1.8633
   49MOL0     H 6601   9.082   1.240   3.268  2.0675 -1.6825  0.8922
   49MOL0     H 6602   9.325   1.225   3.288  1.5727  2.9996 -0.1182
   49MOL0     H 6603   9.775   1.225   2.842  1.9351 -1.4331  0.5012
   49MOL0     H 6604   9.999   1.312   2.834 -3.2497 -0.6224 -2.8335
   49MOL0     H 6605  10.148   1.491   2.855 -0.7091 -1.5789  0.1787
   49MOL0     H 6606  10.275   1.536   2.975  0.0363  0.6238 -1.9435
   49MOL0     H 6607  10.220   1.239   2.895  4.1557 -2.2880 -0.1101
   49MOL0     H 6608  10.359   1.323   2.973  2.2113 -1.8714 -1.7870
   49MOL0     H 6609  10.431   1.418   2.765  3.0715 -2.3581 -1.1981
   49MOL0     H 6610  10.275   1.392   2.693  0.3293  1.6543 -0.0791
   49MOL0     H 6611  10.423   1.230   2.605 -0.6813  0.1930  0.2752
   49MOL0     H 6612  10.337   1.126   2.717  0.1592 -0.8513 -0.3459
   49MOL0     H 6613  10.739   1.098   2.800  1.0952  3.2759 -1.9000
   49MOL0     H 6614   9.956   1.422   3.253 -1.8707 -0.8597  1.1615
   49MOL0     H 6615   9.719   1.339   3.250  0.0624  2.7369  0.3388
   50MOL0     O 6616   4.107   9.147   4.090  0.2508 -0.4874  0.4761
   50MOL0     C 6617   4.107   9.035   4.140 -0.3949 -0.2646 -0.7078
   50MOL0     O 6618   4.022   8.995   4.233 -0.1819  0.4428 -0.1137
   50MOL0     C 6619   3.910   9.074   4.254  0.0997  1.0716 -0.8227
   50MOL0     C 6620   3.815   9.093   4.150 -0.7868  0.7353  0.4820
   50MOL0     C 6621   3.692   9.144   4.179  0.4877 -0.0615  0.7859
   50MOL0     C 6622   3.654   9.175   4.313  0.0781 -0.2974  0.0035
   50MOL0     O 6623   3.536   9.241   4.345  0.4505 -0.7444 -0.4987
   50MOL0     C 6624   3.485   9.253   4.478  0.3327  1.0676 -0.1641
   50MOL0     C 6625   3.363   9.352   4.503 -0.7925 -0.5986 -0.2800
   50MOL0     C 6626   3.256   9.345   4.401 -0.1682 -0.4867 -0.1520
   50MOL0     C 6627   3.189   9.200   4.394 -0.3556  0.0482  0.0839
   50MOL0     C 6628   3.093   9.201   4.276 -0.3929 -0.3421 -0.1813
   50MOL0     C 6629   2.989   9.094   4.299 -0.1776 -0.4203  0.0301
   50MOL0     C 6630   2.890   9.087   4.174  0.2715 -0.2618  0.5478
   50MOL0     C 6631   2.793   9.204   4.180  0.1602 -0.1768  0.3208
   50MOL0     N 6632   2.740   9.232   4.315 -0.2487 -0.3458 -0.3772
   50MOL0     C 6633   2.631   9.173   4.369  0.8417 -0.7532 -0.1657
   50MOL0     C 6634   2.609   9.238   4.490 -0.3382 -0.4110  0.0890
   50MOL0     C 6635   2.493   9.214   4.576 -0.6316 -0.9213 -0.5470
   50MOL0     C 6636   2.386   9.325   4.561 -0.3608  0.0913 -0.1116
   50MOL0     C 6637   2.285   9.308   4.682 -0.3345 -0.2131  0.1241
   50MOL0     C 6638   2.163   9.403   4.652 -0.8947  0.6247 -0.1392
   50MOL0     O 6639   2.087   9.358   4.533 -0.7047 -0.4794  0.1839
   50MOL0     C 6640   2.000   9.449   4.486 -0.2061  0.1893  0.4636
   50MOL0     C 6641   2.038   9.499   4.364  0.4145  0.3467 -0.5874
   50MOL0     C 6642   1.953   9.588   4.291 -0.4030 -0.2767 -0.1434
   50MOL0     C 6643   2.009   9.635   4.153 -0.6002  0.5636  0.1510
   50MOL0     C 6644   1.826   9.626   4.341  0.3285 -1.0750 -0.3923
   50MOL0     C 6645   1.734   9.716   4.272  0.5013 -0.3628  0.0211
   50MOL0     O 6646   1.615   9.749   4.334 -0.3679  0.3814 -0.2906
   50MOL0     C 6647   1.516   9.837   4.280  0.4806  1.1021 -1.2743
   50MOL0     C 6648   1.389   9.810   4.341 -0.2671  0.2204  0.0550
   50MOL0     C 6649   1.277   9.881   4.287  0.3187 -0.5577 -0.4131
   50MOL0     C 6650   1.283   9.965   4.179  0.4509  0.6095 -1.2081
   50MOL0     O 6651   1.170  10.018   4.132  0.2269 -0.4495  0.1170
   50MOL0     C 6652   1.175  10.149   4.068  0.3117  1.2517 -0.7439
   50MOL0     C 6653   1.038  10.180   4.003 -0.5845 -0.7421 -0.5668
   50MOL0     C 6654   1.014  10.329   3.962  0.3763 -1.2150  0.9988
   50MOL0     C 6655   0.878  10.341   3.868  0.2084  0.8389  0.2331
   50MOL0     C 6656   0.831  10.492   3.855 -0.7097 -0.5108 -0.2331
   50MOL0     C 6657   0.776  10.552   3.986  0.2506  0.0709  0.0490
   50MOL0     C 6658   0.639  10.487   4.014 -0.6203 -0.9058 -0.1937
   50MOL0     C 6659   0.599  10.538   4.148  0.4062 -0.8937 -0.5870
   50MOL0    Cl 6660   0.626  10.723   4.161  0.1397 -0.2694  0.0913
   50MOL0     C 6661   1.409   9.987   4.115 -0.3559  0.5460  0.4309
   50MOL0     C 6662   1.518   9.916   4.163 -0.5303  0.4830 -0.8484
   50MOL0     O 6663   1.766   9.743   4.153  0.4942  0.0795  0.3042
   50MOL0     C 6664   1.787   9.572   4.468 -1.0886  0.4744 -0.2921
   50MOL0     C 6665   1.875   9.492   4.542 -0.3139 -0.0056 -0.3611
   50MOL0     N 6666   2.711   9.332   4.510  0.3327 -0.0753  0.2700
   50MOL0     N 6667   2.788   9.327   4.402  0.0511  0.4117 -0.1859
   50MOL0     C 6668   3.733   9.123   4.422  0.0156 -0.1042  0.4479
   50MOL0     C 6669   3.867   9.075   4.389 -0.0581 -0.4123  0.0209
   50MOL0     C 6670   4.221   8.948   4.109  0.2155  0.6827  0.8797
   50MOL0     C 6671   4.238   8.827   4.183 -0.5143 -0.4737 -0.9840
   50MOL0     C 6672   4.343   8.741   4.152  0.0969 -0.2385 -0.7225
   50MOL0     C 6673   4.427   8.758   4.050 -0.5897  0.5160 -0.1516
   50MOL0     O 6674   4.521   8.652   4.034  0.4706 -0.4868  0.2159
   50MOL0     C 6675   4.635   8.678   3.952 -0.1316  0.1914 -0.8362
   50MOL0     C 6676   4.746   8.578   3.992 -0.1003 -0.1037  0.1681
   50MOL0     C 6677   4.777   8.574   4.141 -0.7319 -0.5269 -0.1130
   50MOL0     C 6678   4.888   8.476   4.169 -0.5934 -0.0933  0.3980
   50MOL0     C 6679   4.928   8.479   4.308 -0.2814  0.4105 -0.7218
   50MOL0     C 6680   4.952   8.483   4.430  0.5830  0.0027  0.0802
   50MOL0     C 6681   4.418   8.877   3.983  0.2612 -0.2075 -0.3026
   50MOL0     C 6682   4.317   8.969   4.007 -0.5374 -0.8551  0.2081
   50MOL0     H 6683   3.844   9.095   4.046 -0.9357 -0.3798  0.4025
   50MOL0     H 6684   3.622   9.185   4.107 -0.8715 -0.2844  1.9380
   50MOL0     H 6685   3.451   9.154   4.511  1.2601  1.0267  0.7125
   50MOL0     H 6686   3.561   9.291   4.546 -0.0607 -0.3750  1.1399
   50MOL0     H 6687   3.320   9.331   4.602 -0.0906 -1.0922 -0.0699
   50MOL0     H 6688   3.400   9.454   4.510 -0.8531 -0.6247  0.4528
   50MOL0     H 6689   3.187   9.421   4.440  0.7164  2.9883 -4.4648
   50MOL0     H 6690   3.295   9.384   4.306  0.0490 -2.0989 -0.7626
   50MOL0     H 6691   3.257   9.116   4.374  0.5477  1.2529 -2.4203
   50MOL0     H 6692   3.133   9.174   4.484 -1.3080  0.4888 -0.3607
   50MOL0     H 6693   3.045   9.299   4.270 -0.4141 -0.3794 -0.6266
   50MOL0     H 6694   3.151   9.187   4.185  0.4589  0.2468  0.2571
   50MOL0     H 6695   3.046   9.002   4.309 -2.0829 -1.4399  2.4815
   50MOL0     H 6696   2.934   9.110   4.392  0.5992  1.7783  0.1856
   50MOL0     H 6697   2.941   9.086   4.077  1.1698 -3.7121  0.9335
   50MOL0     H 6698   2.842   8.989   4.165 -0.8450  0.2821  0.3659
   50MOL0     H 6699   2.704   9.185   4.119 -0.3589  2.4540  0.1277
   50MOL0     H 6700   2.850   9.291   4.145 -0.4775  0.1455  0.0560
   50MOL0     H 6701   2.570   9.094   4.327  2.4910 -2.2448  0.1688
   50MOL0     H 6702   2.458   9.113   4.554 -1.1450 -0.6202 -1.1567
   50MOL0     H 6703   2.524   9.206   4.680 -0.4097 -2.4054 -0.7140
   50MOL0     H 6704   2.322   9.305   4.475  1.9525  0.1453 -1.9411
   50MOL0     H 6705   2.433   9.424   4.557  1.6991 -0.8711 -0.8007
   50MOL0     H 6706   2.335   9.330   4.777 -2.0725  2.3171  0.5500
   50MOL0     H 6707   2.245   9.207   4.680 -2.0082  0.4286 -0.2189
   50MOL0     H 6708   2.205   9.504   4.646  1.4754 -0.2691  0.2508
   50MOL0     H 6709   2.095   9.398   4.738 -0.7584 -0.6715 -0.0849
   50MOL0     H 6710   2.141   9.472   4.343  1.1021  2.0598  0.4371
   50MOL0     H 6711   1.962   9.576   4.074 -0.8779  0.7172  0.2013
   50MOL0     H 6712   2.009   9.742   4.133 -0.7056  0.3388 -1.1498
   50MOL0     H 6713   2.114   9.604   4.146 -1.4321 -3.7410  3.0396
   50MOL0     H 6714   1.377   9.747   4.428 -1.1207  2.4219  1.6065
   50MOL0     H 6715   1.178   9.856   4.323 -0.7228  1.5939 -1.5779
   50MOL0     H 6716   1.188  10.225   4.145  1.3494  1.3970 -1.0486
   50MOL0     H 6717   1.248  10.158   3.987  0.6212  1.7593 -0.4108
   50MOL0     H 6718   1.027  10.109   3.921 -0.3430  0.2585 -1.5014
   50MOL0     H 6719   0.964  10.151   4.078 -1.1720 -1.8997 -1.5592
   50MOL0     H 6720   1.093  10.382   3.907 -1.3688  1.5116  0.9017
   50MOL0     H 6721   1.002  10.385   4.055  1.8513  0.5847  0.1871
   50MOL0     H 6722   0.900  10.294   3.772 -0.4113 -1.1294  0.9915
   50MOL0     H 6723   0.804  10.288   3.929 -0.1982  1.1875  0.0444
   50MOL0     H 6724   0.770  10.502   3.764  0.8599  2.2912 -1.1064
   50MOL0     H 6725   0.923  10.545   3.830 -0.9116  0.9522  1.8798
   50MOL0     H 6726   0.843  10.540   4.072 -0.5309 -0.7096  0.5656
   50MOL0     H 6727   0.769  10.659   3.965 -0.5422 -0.2429 -1.4031
   50MOL0     H 6728   0.659  10.380   4.027  1.7558 -0.4576  0.4278
   50MOL0     H 6729   0.560  10.508   3.941  0.5757  1.0642 -1.0175
   50MOL0     H 6730   0.664  10.482   4.216 -0.3401 -2.7112 -1.3123
   50MOL0     H 6731   0.497  10.516   4.181  0.1490  2.7159  1.5906
   50MOL0     H 6732   1.409  10.044   4.023 -1.9976 -0.8094 -0.4600
   50MOL0     H 6733   1.610   9.938   4.110  2.3655 -1.5466  2.8616
   50MOL0     H 6734   1.690   9.597   4.511 -0.8624  0.2938  0.3311
   50MOL0     H 6735   1.850   9.442   4.635 -0.8702  3.4590  1.5041
   50MOL0     H 6736   3.710   9.132   4.528  0.4428 -0.7910  0.6027
   50MOL0     H 6737   3.923   9.045   4.477 -1.4470  2.7451  2.1952
   50MOL0     H 6738   4.167   8.789   4.256  0.8729  0.8085  1.1282
   50MOL0     H 6739   4.357   8.649   4.209 -1.0428 -0.2446 -0.4302
   50MOL0     H 6740   4.609   8.660   3.848  1.8725  0.6261 -1.4638
   50MOL0     H 6741   4.664   8.783   3.965 -3.2877  1.1070 -0.2564
   50MOL0     H 6742   4.828   8.603   3.924 -2.3248 -1.4584 -3.3027
   50MOL0     H 6743   4.713   8.475   3.971  1.5060 -0.5516 -0.2977
   50MOL0     H 6744   4.683   8.534   4.182 -0.5023 -0.1982  0.7600
   50MOL0     H 6745   4.804   8.674   4.177 -0.2269 -0.8106  0.3066
   50MOL0     H 6746   4.977   8.496   4.108  1.3577 -2.5326  2.2626
   50MOL0     H 6747   4.867   8.372   4.142  1.8603 -1.2136  2.4190
   50MOL0     H 6748   4.958   8.485   4.537 -3.1596  4.0337  0.5179
   50MOL0     H 6749   4.495   8.884   3.906 -2.5062  1.0915 -3.1515
   50MOL0     H 6750   4.303   9.047   3.933  0.8202 -5.4908 -5.6006
   51MOL0     O 6751   1.751   2.719   9.371  0.1419  0.1605  0.5596
   51MOL0     C 6752   1.673   2.814   9.383  0.1964  0.6730  0.3870
   51MOL0     O 6753   1.701   2.943   9.341 -0.7795 -0.3502 -0.2041
   51MOL0     C 6754   1.824   2.980   9.302 -0.4510  0.1951 -0.4442
   51MOL0     C 6755   1.898   2.933   9.195  0.0310 -0.0603 -0.1973
   51MOL0     C 6756   2.027   2.976   9.171  0.0396  0.5932  0.0418
   51MOL0     C 6757   2.092   3.066   9.252  0.1126  0.5015  0.9207
   51MOL0     O 6758   2.219   3.095   9.230 -1.0352 -0.3064  0.0978
   51MOL0     C 6759   2.260   3.140   9.098  0.4878  0.1615 -0.2055
   51MOL0     C 6760   2.403   3.094   9.077  0.5418  0.8293  0.2062
   51MOL0     C 6761   2.412   2.939   9.112  0.4307 -0.3661 -0.6981
   51MOL0     C 6762   2.539   2.890   9.056  0.1661  0.4608 -0.1922
   51MOL0     C 6763   2.670   2.956   9.110  0.0603  0.1252 -0.4583
   51MOL0     C 6764   2.794   2.863   9.090 -0.3107 -0.7576  0.2386
   51MOL0     C 6765   2.937   2.929   9.099  0.6741 -0.7233 -0.1696
   51MOL0     C 6766   3.035   2.820   9.057 -0.0457 -0.4273 -0.2204
   51MOL0     N 6767   3.170   2.867   9.035 -0.7507  0.4317 -0.6161
   51MOL0     C 6768   3.250   2.926   9.120 -0.6094  0.2701  0.5372
   51MOL0     C 6769   3.372   2.946   9.056 -0.6252  0.2674  0.0031
   51MOL0     C 6770   3.500   2.994   9.112  0.6737  0.0638  0.4525
   51MOL0     C 6771   3.534   3.144   9.086  0.7401  0.4409 -0.7322
   51MOL0     C 6772   3.667   3.197   9.143 -0.0295  0.2908 -0.1930
   51MOL0     C 6773   3.708   3.338   9.106 -0.4844 -0.1655  0.3710
   51MOL0     O 6774   3.700   3.349   8.965 -0.0387 -0.5974  0.6457
   51MOL0     C 6775   3.639   3.463   8.921  0.3595 -0.2195 -0.1775
   51MOL0     C 6776   3.693   3.584   8.948 -0.6780  0.1493 -0.3899
   51MOL0     C 6777   3.634   3.704   8.918  0.3562  0.3095  0.3121
   51MOL0     C 6778   3.689   3.839   8.951 -0.1154 -0.0276  0.3632
   51MOL0     C 6779   3.515   3.695   8.838 -0.0773  0.1617 -0.0659
   51MOL0     C 6780   3.429   3.811   8.799 -0.0347 -0.3415  0.2868
   51MOL0     O 6781   3.360   3.800   8.688 -0.3896  0.0582 -0.2295
   51MOL0     C 6782   3.250   3.867   8.659  0.0939  0.4214  0.5661
   51MOL0     C 6783   3.170   3.954   8.743 -0.0734  0.0480  0.7124
   51MOL0     C 6784   3.046   3.998   8.693 -0.0862 -0.5907 -0.2637
   51MOL0     C 6785   2.992   3.937   8.575 -0.6269 -0.3413  0.0515
   51MOL0     O 6786   2.875   3.978   8.517  0.1011  0.3274  0.4384
   51MOL0     C 6787   2.782   4.036   8.603 -0.7150  0.0741 -0.2096
   51MOL0     C 6788   2.642   4.032   8.545 -0.0331  0.2051  0.0145
   51MOL0     C 6789   2.574   3.898   8.515  0.3650  0.2299 -0.1361
   51MOL0     C 6790   2.590   3.785   8.619  0.4650  0.5928 -0.2978
   51MOL0     C 6791   2.476   3.681   8.607 -0.0165  0.2548  0.2863
   51MOL0     C 6792   2.481   3.565   8.709 -0.0581  0.5962  0.2736
   51MOL0     C 6793   2.585   3.455   8.667  0.4984  0.1707 -0.2133
   51MOL0     C 6794   2.599   3.356   8.778 -0.3177 -0.3439 -0.0821
   51MOL0    Cl 6795   2.721   3.422   8.882 -0.7554  0.1639  0.1025
   51MOL0     C 6796   3.065   3.838   8.504  0.5138 -0.5309  0.2250
   51MOL0     C 6797   3.203   3.813   8.539 -0.0779 -0.2920  0.0164
   51MOL0     O 6798   3.410   3.900   8.880  0.5080  0.1642  0.2646
   51MOL0     C 6799   3.453   3.573   8.820  0.4049  0.7129 -0.1051
   51MOL0     C 6800   3.515   3.452   8.865 -0.0605 -0.7233  0.8426
   51MOL0     N 6801   3.353   2.889   8.932 -0.2989  0.5900  0.1734
   51MOL0     N 6802   3.240   2.827   8.927  0.2970  0.1332 -0.0181
   51MOL0     C 6803   2.020   3.116   9.351  0.5327 -0.2929 -0.2447
   51MOL0     C 6804   1.884   3.082   9.373 -0.0712 -0.6262  0.8161
   51MOL0     C 6805   1.550   2.789   9.440 -0.9633  0.5991  0.2071
   51MOL0     C 6806   1.452   2.879   9.420  0.6977 -0.1657 -0.7459
   51MOL0     C 6807   1.327   2.855   9.470 -0.3008  0.0794  0.4239
   51MOL0     C 6808   1.297   2.749   9.556 -0.4542 -0.5768  0.0546
   51MOL0     O 6809   1.175   2.720   9.614  0.7024  0.1935 -0.1428
   51MOL0     C 6810   1.055   2.791   9.570 -0.1653  0.3352 -0.0245
   51MOL0     C 6811   0.924   2.771   9.665  0.3905 -0.1450 -0.0057
   51MOL0     C 6812   0.787   2.802   9.602  0.2821  0.4849 -0.4855
   51MOL0     C 6813   0.767   2.950   9.573 -0.7452  0.1175  0.0467
   51MOL0     C 6814   0.654   2.966   9.486  0.4558 -0.2094  0.4681
   51MOL0     C 6815   0.567   2.981   9.406 -0.6601  0.7211 -0.5673
   51MOL0     C 6816   1.396   2.655   9.584 -0.0130 -0.7684  0.9472
   51MOL0     C 6817   1.525   2.679   9.529  0.0539 -0.1954 -1.2156
   51MOL0     H 6818   1.845   2.865   9.129  0.4329 -0.6717  0.0948
   51MOL0     H 6819   2.075   2.922   9.090  0.8326  2.0477 -0.5091
   51MOL0     H 6820   2.197   3.093   9.021 -1.0210 -0.2855  1.2464
   51MOL0     H 6821   2.266   3.249   9.091  1.0877  0.2071  0.8372
   51MOL0     H 6822   2.420   3.110   8.970 -2.2144  0.8101 -0.3108
   51MOL0     H 6823   2.483   3.146   9.132  3.4420 -2.5108 -0.4687
   51MOL0     H 6824   2.428   2.938   9.221  1.2281 -1.3968 -0.7985
   51MOL0     H 6825   2.329   2.874   9.084 -2.6824  1.4595  3.2905
   51MOL0     H 6826   2.546   2.784   9.084 -1.0744  0.3073 -0.3720
   51MOL0     H 6827   2.537   2.901   8.948 -1.3009 -2.8379 -0.6252
   51MOL0     H 6828   2.694   3.053   9.064 -1.3914 -0.0054 -1.5939
   51MOL0     H 6829   2.670   2.964   9.219  0.8450 -1.9908 -0.2637
   51MOL0     H 6830   2.800   2.794   9.175  1.8895  0.4379  1.1449
   51MOL0     H 6831   2.779   2.800   9.002 -0.0859 -0.8800  0.2844
   51MOL0     H 6832   2.952   3.014   9.032  0.1642 -2.2630 -2.3706
   51MOL0     H 6833   2.959   2.959   9.202  0.1589 -2.2595  0.4233
   51MOL0     H 6834   2.994   2.769   8.969 -1.7624  1.5519 -0.6403
   51MOL0     H 6835   3.031   2.744   9.136 -0.0336  2.6921  3.0146
   51MOL0     H 6836   3.231   2.960   9.221  0.9854 -0.2011  1.0358
   51MOL0     H 6837   3.489   2.990   9.221 -2.8018  0.9502  0.2386
   51MOL0     H 6838   3.574   2.929   9.064 -0.2390 -2.4788  2.2671
   51MOL0     H 6839   3.457   3.213   9.120  1.3207  0.2548  1.0550
   51MOL0     H 6840   3.539   3.145   8.977 -2.2343 -0.5775 -0.9723
   51MOL0     H 6841   3.743   3.121   9.121  0.9829  1.5274 -1.0816
   51MOL0     H 6842   3.669   3.209   9.252  3.2729 -0.4719 -0.0637
   51MOL0     H 6843   3.813   3.354   9.133 -0.0305 -0.4481 -1.1640
   51MOL0     H 6844   3.648   3.411   9.162 -1.6207  0.7885 -1.9586
   51MOL0     H 6845   3.788   3.588   9.001  0.5717  5.3268 -2.4167
   51MOL0     H 6846   3.679   3.904   8.863  1.7084  2.8591  2.1207
   51MOL0     H 6847   3.636   3.905   9.021  1.4724 -0.3262  1.8974
   51MOL0     H 6848   3.792   3.835   8.987  0.1174 -0.3509 -0.3215
   51MOL0     H 6849   3.203   3.995   8.839  3.0007  1.6705 -0.8680
   51MOL0     H 6850   2.994   4.076   8.747 -0.0552 -0.0230 -1.0326
   51MOL0     H 6851   2.774   3.983   8.698 -0.2203  2.4668  1.2772
   51MOL0     H 6852   2.806   4.139   8.632 -0.1746 -0.5731  1.8065
   51MOL0     H 6853   2.575   4.102   8.596 -0.8288  1.1820 -2.2191
   51MOL0     H 6854   2.656   4.081   8.447  0.3880  1.4655  0.6749
   51MOL0     H 6855   2.605   3.854   8.420 -0.1451 -1.9249  0.6260
   51MOL0     H 6856   2.465   3.908   8.507 -0.0163 -3.2073 -1.3007
   51MOL0     H 6857   2.685   3.732   8.615  1.0126  1.6256 -2.3498
   51MOL0     H 6858   2.587   3.831   8.719  2.0803  1.3846 -0.5823
   51MOL0     H 6859   2.476   3.645   8.504  0.0142  2.5678 -0.5698
   51MOL0     H 6860   2.383   3.734   8.629  0.5808  1.9133 -1.0214
   51MOL0     H 6861   2.507   3.612   8.804 -1.8709  0.5996  0.7974
   51MOL0     H 6862   2.386   3.511   8.720 -1.0475  2.4901  1.6483
   51MOL0     H 6863   2.685   3.482   8.632 -0.4502 -0.2415 -3.6062
   51MOL0     H 6864   2.540   3.410   8.578  1.1449 -3.7845  1.2334
   51MOL0     H 6865   2.627   3.261   8.732  0.4595 -0.4052  0.5092
   51MOL0     H 6866   2.505   3.343   8.832  0.7926  3.6629  3.3201
   51MOL0     H 6867   3.011   3.806   8.415 -0.4628 -1.9839  1.2848
   51MOL0     H 6868   3.269   3.755   8.476  0.2305  1.6479 -1.5198
   51MOL0     H 6869   3.355   3.564   8.773  2.1220 -1.9510 -3.6498
   51MOL0     H 6870   3.464   3.357   8.864  1.1725 -1.4136 -0.2865
   51MOL0     H 6871   2.079   3.172   9.423 -0.3920  0.6919 -0.2145
   51MOL0     H 6872   1.831   3.099   9.466  1.5318 -1.4097  1.9343
   51MOL0     H 6873   1.467   2.973   9.367  1.0864  0.1448 -0.1015
   51MOL0     H 6874   1.250   2.924   9.437 -0.9767 -0.1428  1.5134
   51MOL0     H 6875   1.084   2.896   9.562 -0.9858  0.5810  0.1183
   51MOL0     H 6876   1.028   2.750   9.473 -1.9548  1.6675 -0.1442
   51MOL0     H 6877   0.938   2.833   9.754 -1.7206  1.2649 -0.5685
   51MOL0     H 6878   0.922   2.666   9.694 -1.9977  0.5249  2.6910
   51MOL0     H 6879   0.702   2.769   9.663  0.7584  2.2339  1.2409
   51MOL0     H 6880   0.790   2.753   9.504  2.5460 -0.3288 -0.0642
   51MOL0     H 6881   0.857   2.999   9.534 -0.6344 -1.2565 -1.5076
   51MOL0     H 6882   0.737   2.994   9.669  0.3683  1.3928 -0.1617
   51MOL0     H 6883   0.502   2.999   9.324 -0.5591  2.8177 -0.2453
   51MOL0     H 6884   1.378   2.572   9.652  0.4041 -0.6221  1.2392
   51MOL0     H 6885   1.609   2.618   9.557 -0.0208 -0.4377 -1.5133
   52MOL0     O 6886   6.452   1.812   4.511 -0.5537 -0.5353 -0.2269
   52MOL0     C 6887   6.518   1.765   4.417 -0.2048 -0.5288  0.3755
   52MOL0     O 6888   6.470   1.666   4.326  0.4578 -0.5396 -0.4178
   52MOL0     C 6889   6.338   1.641   4.313 -0.9332 -0.2834  0.1157
   52MOL0     C 6890   6.288   1.517   4.346  0.7477 -0.6589  0.3578
   52MOL0     C 6891   6.148   1.496   4.352  0.0117  0.5070 -0.3931
   52MOL0     C 6892   6.058   1.606   4.323 -0.5100 -0.0114 -0.1739
   52MOL0     O 6893   5.926   1.577   4.322  0.2455 -0.7621 -0.6899
   52MOL0     C 6894   5.820   1.655   4.251 -0.5754 -0.1383 -0.0324
   52MOL0     C 6895   5.715   1.555   4.213  1.1630  0.6829 -0.0059
   52MOL0     C 6896   5.604   1.618   4.129 -0.1695  0.1368  0.3833
   52MOL0     C 6897   5.489   1.520   4.140  0.0118 -0.6144  0.3381
   52MOL0     C 6898   5.358   1.571   4.066  0.1464 -0.8849  0.1427
   52MOL0     C 6899   5.239   1.477   4.074  0.4849  0.1246 -0.8821
   52MOL0     C 6900   5.109   1.545   4.014  0.5676 -0.1324  0.4020
   52MOL0     C 6901   5.002   1.439   4.015  0.4309  0.4002 -0.1271
   52MOL0     N 6902   4.878   1.481   3.947  0.4575 -0.2215 -0.5879
   52MOL0     C 6903   4.856   1.468   3.811 -0.6843  0.2788 -0.0157
   52MOL0     C 6904   4.726   1.503   3.798 -0.0767  0.1600 -0.6126
   52MOL0     C 6905   4.649   1.513   3.670  0.3555 -0.2318 -0.3308
   52MOL0     C 6906   4.622   1.381   3.598 -0.0372 -0.2637  0.5402
   52MOL0     C 6907   4.607   1.406   3.446  0.2627  0.2891  0.0134
   52MOL0     C 6908   4.466   1.450   3.401  0.6830 -0.1901  0.4487
   52MOL0     O 6909   4.453   1.421   3.260 -0.5662  0.0609 -0.0983
   52MOL0     C 6910   4.333   1.452   3.204 -0.0636  0.0622  0.4125
   52MOL0     C 6911   4.333   1.432   3.065  0.4367 -0.3973 -0.2325
   52MOL0     C 6912   4.220   1.462   2.982 -0.5557 -0.7926  0.1598
   52MOL0     C 6913   4.219   1.433   2.832  1.0342 -0.3226  0.4943
   52MOL0     C 6914   4.105   1.520   3.047  0.5110  0.6760  0.0723
   52MOL0     C 6915   3.986   1.571   2.975 -0.0988 -0.0158  0.6767
   52MOL0     O 6916   3.875   1.558   3.042  0.2006  0.7563 -0.4836
   52MOL0     C 6917   3.758   1.592   2.997  0.0067 -0.9124 -0.0824
   52MOL0     C 6918   3.732   1.705   2.922  0.0600 -0.3208  0.7352
   52MOL0     C 6919   3.607   1.718   2.868  0.4689  0.2716  0.0985
   52MOL0     C 6920   3.501   1.637   2.903 -0.4431 -0.2711 -0.3139
   52MOL0     O 6921   3.380   1.639   2.839  0.7621  0.1914  0.2064
   52MOL0     C 6922   3.288   1.728   2.903  0.2527 -0.5807 -0.2110
   52MOL0     C 6923   3.135   1.701   2.874 -0.0629  0.0011  0.7533
   52MOL0     C 6924   3.090   1.753   2.738  0.6513 -0.2309  0.4299
   52MOL0     C 6925   2.944   1.727   2.719 -0.1843  0.0179  0.1485
   52MOL0     C 6926   2.914   1.705   2.573  0.1314 -0.4922 -0.6058
   52MOL0     C 6927   2.912   1.838   2.485  0.6301  0.7174 -1.3614
   52MOL0     C 6928   2.786   1.923   2.508 -0.0389 -0.5223 -0.6076
   52MOL0     C 6929   2.794   2.050   2.422  0.1686 -0.6569  0.4396
   52MOL0    Cl 6930   2.664   2.181   2.469 -0.0092 -0.0993  0.2067
   52MOL0     C 6931   3.524   1.524   2.979 -0.5668 -0.1946 -0.5267
   52MOL0     C 6932   3.658   1.501   3.022  0.1483 -0.0305 -0.0383
   52MOL0     O 6933   4.008   1.628   2.866  0.1227 -0.0928 -0.8080
   52MOL0     C 6934   4.112   1.545   3.190  0.3323 -0.1465  0.0101
   52MOL0     C 6935   4.226   1.523   3.264  0.0517  0.5541 -0.5014
   52MOL0     N 6936   4.679   1.543   3.925 -0.7796 -0.1131 -1.0584
   52MOL0     N 6937   4.769   1.530   4.020  0.3787 -0.3783  0.1975
   52MOL0     C 6938   6.119   1.737   4.302 -0.8618  0.6016  0.0536
   52MOL0     C 6939   6.262   1.745   4.287  0.3627 -0.9688  0.6414
   52MOL0     C 6940   6.659   1.823   4.404 -0.7670 -0.1379  0.2663
   52MOL0     C 6941   6.743   1.796   4.294 -0.2279  0.2775 -0.3045
   52MOL0     C 6942   6.875   1.858   4.282  0.4255  0.8428  0.2626
   52MOL0     C 6943   6.930   1.933   4.391  0.9024  0.2431 -0.1204
   52MOL0     O 6944   7.061   1.975   4.375 -0.2402 -0.0556 -0.2753
   52MOL0     C 6945   7.133   1.988   4.498 -0.0012 -0.2008  0.0183
   52MOL0     C 6946   7.133   2.125   4.566 -0.9238  0.6693 -0.1394
   52MOL0     C 6947   7.157   2.240   4.469 -0.2480 -0.6584 -0.1703
   52MOL0     C 6948   7.285   2.324   4.504  0.3616 -0.1626 -0.0848
   52MOL0     C 6949   7.397   2.236   4.474 -0.4230  0.1732  0.0398
   52MOL0     C 6950   7.482   2.155   4.449 -0.2712  0.1559  0.5048
   52MOL0     C 6951   6.846   1.954   4.502 -0.3086  0.1736  0.3185
   52MOL0     C 6952   6.719   1.901   4.515 -0.1068  0.6726 -0.6353
   52MOL0     H 6953   6.364   1.453   4.390  2.3935  0.1222 -1.2187
   52MOL0     H 6954   6.116   1.394   4.372 -0.8677  0.3842 -2.2470
   52MOL0     H 6955   5.787   1.738   4.315 -2.8138 -1.5801  0.7877
   52MOL0     H 6956   5.862   1.702   4.161 -0.0686 -0.5265  0.0005
   52MOL0     H 6957   5.766   1.479   4.154  4.4134  1.5225  1.5104
   52MOL0     H 6958   5.674   1.500   4.299 -1.2201  0.3149 -1.3042
   52MOL0     H 6959   5.582   1.721   4.160  0.3588  0.8781 -1.5866
   52MOL0     H 6960   5.641   1.625   4.027  1.1187  0.2328  0.8396
   52MOL0     H 6961   5.521   1.424   4.098  1.6949  1.2933 -3.1691
   52MOL0     H 6962   5.468   1.516   4.247  2.3833  2.4371  1.0578
   52MOL0     H 6963   5.337   1.667   4.114  1.6060  0.6392 -2.0596
   52MOL0     H 6964   5.375   1.586   3.959  1.4036 -3.3539 -0.0698
   52MOL0     H 6965   5.251   1.381   4.022 -1.0529 -0.8998  0.5836
   52MOL0     H 6966   5.220   1.460   4.180  0.8034  3.3756 -0.1929
   52MOL0     H 6967   5.072   1.639   4.055 -2.0286 -0.0358 -1.8476
   52MOL0     H 6968   5.135   1.570   3.910  2.4140 -0.1676  0.8190
   52MOL0     H 6969   4.979   1.413   4.119 -1.2177 -1.3880 -0.8888
   52MOL0     H 6970   5.029   1.345   3.967 -1.5212 -0.2622 -0.0352
   52MOL0     H 6971   4.926   1.439   3.733  0.8767 -0.7806  1.6880
   52MOL0     H 6972   4.550   1.554   3.694  0.9572  1.4296 -0.5796
   52MOL0     H 6973   4.720   1.573   3.612  1.4038 -1.4590 -0.3513
   52MOL0     H 6974   4.529   1.334   3.632 -0.7985  0.0296 -1.0412
   52MOL0     H 6975   4.697   1.306   3.626 -0.4433 -1.5499 -1.6196
   52MOL0     H 6976   4.632   1.315   3.391  4.3365  0.9837  0.4556
   52MOL0     H 6977   4.669   1.486   3.405  0.1253  2.0786  2.9857
   52MOL0     H 6978   4.451   1.556   3.424 -0.8325 -0.3615  0.3385
   52MOL0     H 6979   4.391   1.395   3.458 -0.2506  0.8742  0.2722
   52MOL0     H 6980   4.419   1.401   3.007  0.9847  2.0681 -0.8635
   52MOL0     H 6981   4.135   1.364   2.825  1.1953 -0.5651  0.8654
   52MOL0     H 6982   4.207   1.520   2.768 -2.0551 -1.7181 -1.0149
   52MOL0     H 6983   4.303   1.379   2.787 -1.8804 -2.7022 -2.6026
   52MOL0     H 6984   3.801   1.788   2.907 -0.9709  0.5176  0.4957
   52MOL0     H 6985   3.579   1.804   2.808  1.2547  0.9130  0.6269
   52MOL0     H 6986   3.294   1.716   3.012 -3.0690 -5.0951 -0.2713
   52MOL0     H 6987   3.312   1.833   2.885 -0.2494 -0.6794 -1.5293
   52MOL0     H 6988   3.128   1.591   2.878  1.6151 -0.2005 -0.6358
   52MOL0     H 6989   3.073   1.757   2.944 -0.7908 -0.4152  0.4544
   52MOL0     H 6990   3.143   1.715   2.651 -0.6809 -1.5808  0.1708
   52MOL0     H 6991   3.104   1.862   2.745 -0.9361  0.2463 -2.3465
   52MOL0     H 6992   2.924   1.633   2.771  0.1576 -0.3257 -0.3225
   52MOL0     H 6993   2.871   1.797   2.760 -1.4211  0.9103 -3.2002
   52MOL0     H 6994   2.814   1.661   2.566  0.7311 -1.8039 -1.5016
   52MOL0     H 6995   2.986   1.633   2.531 -1.5711 -3.4551  1.2049
   52MOL0     H 6996   3.005   1.891   2.506 -0.5432  1.6854  2.0934
   52MOL0     H 6997   2.917   1.808   2.380 -0.7455  1.0001 -1.5298
   52MOL0     H 6998   2.780   1.958   2.612 -0.0294  0.0930 -0.8092
   52MOL0     H 6999   2.696   1.869   2.478  0.1772 -0.6055 -1.1144
   52MOL0     H 7000   2.780   2.031   2.315 -0.3754 -0.6459  0.5034
   52MOL0     H 7001   2.892   2.095   2.439  0.5083 -1.5986  1.0206
   52MOL0     H 7002   3.453   1.442   2.987  2.4912 -3.1844 -1.8770
   52MOL0     H 7003   3.681   1.415   3.085  3.5408  1.8974  1.6182
   52MOL0     H 7004   4.028   1.581   3.248 -0.8470 -0.4734 -1.4221
   52MOL0     H 7005   4.234   1.540   3.371 -1.0174 -0.6943 -0.1887
   52MOL0     H 7006   6.067   1.831   4.284 -1.8460  0.6296  2.6658
   52MOL0     H 7007   6.289   1.849   4.268 -1.5333 -0.6288 -0.4970
   52MOL0     H 7008   6.707   1.732   4.214 -0.3301  2.0998 -1.7922
   52MOL0     H 7009   6.942   1.847   4.197 -1.5150  1.8934 -1.4986
   52MOL0     H 7010   7.118   1.903   4.565  0.8533 -2.7370 -2.8063
   52MOL0     H 7011   7.228   1.967   4.449  0.3606  0.2803  0.5051
   52MOL0     H 7012   7.208   2.131   4.646  0.4728 -1.6313 -1.1937
   52MOL0     H 7013   7.038   2.136   4.620 -0.0999  1.2685  1.2358
   52MOL0     H 7014   7.073   2.309   4.480  0.3503 -0.0553  0.7905
   52MOL0     H 7015   7.161   2.211   4.364 -1.3520  1.4810 -0.8561
   52MOL0     H 7016   7.287   2.353   4.610  2.7207 -0.7714  0.0963
   52MOL0     H 7017   7.297   2.412   4.440  0.8294 -0.8163 -0.9045
   52MOL0     H 7018   7.558   2.085   4.422  0.3334  1.4798 -1.4785
   52MOL0     H 7019   6.884   2.020   4.579  2.4012  0.1590 -0.8771
   52MOL0     H 7020   6.669   1.907   4.611  0.9423 -0.0954 -0.0219
   53MOL0     O 7021   6.621   0.070   3.374 -0.5167  0.6561 -0.2599
   53MOL0     C 7022   6.667   0.168   3.313  1.0920 -1.5326  1.0486
   53MOL0     O 7023   6.597   0.247   3.221  0.5468  0.3669  0.1688
   53MOL0     C 7024   6.461   0.226   3.210 -0.1952 -0.4119  0.5695
   53MOL0     C 7025   6.377   0.224   3.321  0.4134 -0.1096 -0.3604
   53MOL0     C 7026   6.237   0.222   3.300 -0.8022  0.3236  0.2095
   53MOL0     C 7027   6.182   0.213   3.171 -0.4633  0.1955 -0.4028
   53MOL0     O 7028   6.045   0.190   3.146  0.7645  0.6257 -1.0483
   53MOL0     C 7029   5.949   0.232   3.248  0.1934 -0.2298 -0.5639
   53MOL0     C 7030   5.807   0.202   3.190  0.5643 -0.3395  0.6545
   53MOL0     C 7031   5.689   0.243   3.281  0.1088 -0.5930 -0.0778
   53MOL0     C 7032   5.553   0.189   3.232 -0.3563 -0.2185  0.3378
   53MOL0     C 7033   5.436   0.215   3.330 -0.3404  0.2640  0.4416
   53MOL0     C 7034   5.287   0.204   3.284 -0.4018 -0.1087  0.8124
   53MOL0     C 7035   5.262   0.314   3.178  0.1948 -0.0527 -0.0109
   53MOL0     C 7036   5.107   0.332   3.153  0.0304 -0.1383  0.8887
   53MOL0     N 7037   5.071   0.383   3.022 -0.9238 -0.4076  0.3477
   53MOL0     C 7038   5.136   0.353   2.908 -0.3535 -0.1040 -0.0141
   53MOL0     C 7039   5.091   0.423   2.801  0.8068 -0.6038 -0.3998
   53MOL0     C 7040   5.138   0.428   2.657  0.4280  0.3677 -0.2217
   53MOL0     C 7041   5.274   0.502   2.650  1.0395  0.5293  0.4920
   53MOL0     C 7042   5.336   0.488   2.507  0.5583  0.0135  0.0778
   53MOL0     C 7043   5.249   0.516   2.395  0.8037  0.0968  0.4975
   53MOL0     O 7044   5.325   0.506   2.273 -0.5122 -0.1914 -0.2707
   53MOL0     C 7045   5.279   0.559   2.156  0.0068  0.4154 -0.5404
   53MOL0     C 7046   5.143   0.594   2.129 -0.9713 -0.3163 -0.7255
   53MOL0     C 7047   5.113   0.673   2.019 -0.5380 -0.0733 -0.4488
   53MOL0     C 7048   4.964   0.712   2.000  0.0314 -0.1546 -0.4070
   53MOL0     C 7049   5.227   0.718   1.942 -0.1962 -1.2662 -0.6467
   53MOL0     C 7050   5.213   0.819   1.829 -0.5334 -0.0996  0.4957
   53MOL0     O 7051   5.322   0.829   1.742  0.2701  0.0195  0.1530
   53MOL0     C 7052   5.305   0.921   1.639 -0.7678 -0.4123 -0.0476
   53MOL0     C 7053   5.395   1.027   1.631 -0.0859  0.0771  0.4938
   53MOL0     C 7054   5.377   1.132   1.537 -0.3362  0.0933 -0.4925
   53MOL0     C 7055   5.274   1.126   1.443  0.0269 -0.7717  0.0285
   53MOL0     O 7056   5.278   1.213   1.339 -0.1297 -0.1330  0.7590
   53MOL0     C 7057   5.308   1.355   1.365 -1.2131  0.7378  0.1539
   53MOL0     C 7058   5.266   1.452   1.249 -0.4486 -0.3482 -0.0857
   53MOL0     C 7059   5.341   1.411   1.115  0.8918  0.1100  0.2746
   53MOL0     C 7060   5.310   1.495   0.998  0.2751 -0.3826  0.6926
   53MOL0     C 7061   5.383   1.442   0.870  0.2644  0.1285  0.0257
   53MOL0     C 7062   5.351   1.537   0.760 -0.2006  0.0584  0.8513
   53MOL0     C 7063   5.426   1.505   0.635  0.4806 -0.0390 -0.6207
   53MOL0     C 7064   5.416   1.610   0.526  0.1798 -0.2267  0.2973
   53MOL0    Cl 7065   5.243   1.625   0.475  0.6691  0.2412  0.4120
   53MOL0     C 7066   5.196   1.010   1.434 -0.1643  1.4149 -0.0489
   53MOL0     C 7067   5.209   0.906   1.534  0.5999 -0.3507  1.0987
   53MOL0     O 7068   5.119   0.899   1.828  0.4498 -0.1902  0.7133
   53MOL0     C 7069   5.357   0.676   1.971  0.7654 -1.0026  0.0737
   53MOL0     C 7070   5.385   0.598   2.082  0.0738  0.2193  0.0179
   53MOL0     N 7071   5.007   0.518   2.865  0.5112 -0.0447  0.1757
   53MOL0     N 7072   4.999   0.495   2.993 -0.3121  0.0509  0.0406
   53MOL0     C 7073   6.265   0.227   3.058 -0.2991  0.5278 -0.2130
   53MOL0     C 7074   6.408   0.221   3.077 -0.0118 -0.4447 -0.6604
   53MOL0     C 7075   6.808   0.188   3.308 -0.8154 -0.6131  0.1980
   53MOL0     C 7076   6.874   0.276   3.221 -0.7701  0.8582 -0.1322
   53MOL0     C 7077   7.010   0.294   3.219 -0.4670  0.7277  0.4203
   53MOL0     C 7078   7.098   0.218   3.303 -0.5278 -0.2930 -0.0599
   53MOL0     O 7079   7.236   0.234   3.288 -0.0645 -0.2161 -0.0231
   53MOL0     C 7080   7.299   0.260   3.156 -0.8827  1.2924 -0.2631
   53MOL0     C 7081   7.334   0.405   3.138  0.2326  0.6408  0.2324
   53MOL0     C 7082   7.443   0.446   3.238  0.4665  0.1885  0.0050
   53MOL0     C 7083   7.582   0.412   3.202  0.4418 -0.2702 -0.8067
   53MOL0     C 7084   7.621   0.486   3.081 -0.6192  0.1302 -0.0342
   53MOL0     C 7085   7.640   0.551   2.978  0.6848  0.7625 -0.4357
   53MOL0     C 7086   7.039   0.136   3.405  0.5266  0.2819 -0.4332
   53MOL0     C 7087   6.897   0.124   3.400 -0.3636  0.5399  0.1502
   53MOL0     H 7088   6.418   0.246   3.419  0.5196 -0.7381 -0.2622
   53MOL0     H 7089   6.189   0.208   3.396 -0.3408 -1.2533  0.2564
   53MOL0     H 7090   5.960   0.180   3.344  0.9452  0.7322 -0.1104
   53MOL0     H 7091   5.977   0.336   3.265  3.4371 -1.1263  0.3616
   53MOL0     H 7092   5.780   0.258   3.100 -3.2909 -0.4309  1.5626
   53MOL0     H 7093   5.822   0.094   3.180  0.5748 -0.1780 -1.4910
   53MOL0     H 7094   5.704   0.194   3.378  0.1035 -1.6373 -0.5846
   53MOL0     H 7095   5.688   0.351   3.296 -1.7125 -0.2759 -2.0332
   53MOL0     H 7096   5.524   0.220   3.131  0.9428  3.2633  0.8961
   53MOL0     H 7097   5.561   0.080   3.236  0.5960 -0.1253  1.2641
   53MOL0     H 7098   5.454   0.141   3.408  2.0935 -0.4409 -0.6968
   53MOL0     H 7099   5.448   0.311   3.380 -3.0542 -0.4600  2.7317
   53MOL0     H 7100   5.262   0.104   3.247 -2.5060 -0.8459  3.8757
   53MOL0     H 7101   5.215   0.212   3.365 -1.7086  0.5172 -0.3804
   53MOL0     H 7102   5.307   0.408   3.211 -0.4914  0.2194  0.1736
   53MOL0     H 7103   5.318   0.281   3.090 -0.4064 -0.6404 -0.1900
   53MOL0     H 7104   5.074   0.402   3.230  0.2639  0.9851 -0.0192
   53MOL0     H 7105   5.065   0.232   3.172  1.3086 -1.1887 -1.4165
   53MOL0     H 7106   5.197   0.264   2.896 -1.9762 -0.9166 -3.7334
   53MOL0     H 7107   5.147   0.322   2.633  0.5585 -0.3459  2.6200
   53MOL0     H 7108   5.065   0.483   2.597 -0.9573  2.0545  2.7850
   53MOL0     H 7109   5.355   0.462   2.712  1.3716  0.2553 -0.1105
   53MOL0     H 7110   5.250   0.607   2.666 -2.6753 -0.2280  0.7824
   53MOL0     H 7111   5.364   0.383   2.492 -0.5879 -0.0962 -1.5188
   53MOL0     H 7112   5.425   0.551   2.506  0.2922  0.5702  2.8268
   53MOL0     H 7113   5.210   0.616   2.415  1.1930 -0.0810  2.3527
   53MOL0     H 7114   5.164   0.448   2.385 -1.8982  3.1272  1.2595
   53MOL0     H 7115   5.057   0.574   2.192 -0.3665  0.0077  0.2260
   53MOL0     H 7116   4.939   0.745   1.899  1.1665  0.2143 -0.5848
   53MOL0     H 7117   4.894   0.631   2.024 -0.4766  0.2986 -0.3466
   53MOL0     H 7118   4.955   0.803   2.060  2.9262  1.5363 -2.3027
   53MOL0     H 7119   5.472   1.036   1.707 -1.2108 -2.2641  2.0522
   53MOL0     H 7120   5.451   1.211   1.547 -2.2495  1.9408 -0.3062
   53MOL0     H 7121   5.270   1.398   1.459  0.2971  2.9543 -0.1766
   53MOL0     H 7122   5.416   1.366   1.373 -0.8324 -1.6963 -0.8202
   53MOL0     H 7123   5.159   1.431   1.235  0.0623 -4.1175  0.6233
   53MOL0     H 7124   5.293   1.556   1.271  2.0929 -1.4503  2.6752
   53MOL0     H 7125   5.287   1.320   1.090 -1.5318  1.8321 -1.1482
   53MOL0     H 7126   5.450   1.398   1.115  0.9515  0.3799 -1.4087
   53MOL0     H 7127   5.207   1.483   0.963  1.6014 -0.9645 -3.4628
   53MOL0     H 7128   5.336   1.598   1.023  2.6203 -0.8842  0.5203
   53MOL0     H 7129   5.356   1.339   0.847  0.8447 -0.1656  0.6240
   53MOL0     H 7130   5.491   1.451   0.883  0.7707  0.4858 -3.5169
   53MOL0     H 7131   5.243   1.544   0.745 -0.3351  1.4567  2.2487
   53MOL0     H 7132   5.387   1.636   0.787 -1.4600  1.1089 -1.1054
   53MOL0     H 7133   5.387   1.411   0.595 -0.5816  0.4288 -0.7327
   53MOL0     H 7134   5.534   1.492   0.649  0.4218 -0.4114 -0.5194
   53MOL0     H 7135   5.481   1.587   0.442  0.2830  2.8308 -0.5626
   53MOL0     H 7136   5.447   1.709   0.561  1.2390  1.7714 -5.3685
   53MOL0     H 7137   5.133   1.005   1.346 -0.9338  1.0334  0.5072
   53MOL0     H 7138   5.129   0.832   1.525 -0.5105  0.8650  0.5675
   53MOL0     H 7139   5.442   0.709   1.913  0.6752 -0.8669  0.0184
   53MOL0     H 7140   5.488   0.580   2.111 -0.3834 -2.5474  0.1886
   53MOL0     H 7141   6.239   0.214   2.953  1.4144 -0.5825 -0.5296
   53MOL0     H 7142   6.482   0.233   2.999  0.2043 -0.7248 -0.5026
   53MOL0     H 7143   6.809   0.333   3.155 -0.6848 -1.0008 -1.9248
   53MOL0     H 7144   7.055   0.361   3.147 -0.4231 -0.7109 -0.9452
   53MOL0     H 7145   7.393   0.204   3.147 -0.8794  1.2770 -0.1303
   53MOL0     H 7146   7.232   0.226   3.076 -0.0029 -3.0894  0.5816
   53MOL0     H 7147   7.243   0.464   3.157  0.8648  1.1068  2.0765
   53MOL0     H 7148   7.358   0.424   3.033 -1.1595 -0.3147 -0.2937
   53MOL0     H 7149   7.429   0.406   3.339 -0.5530  0.5819  0.0403
   53MOL0     H 7150   7.428   0.554   3.249 -0.6551 -0.1849  3.1867
   53MOL0     H 7151   7.591   0.303   3.202  2.1061 -0.2257  1.7137
   53MOL0     H 7152   7.654   0.439   3.280 -0.3868  1.6124 -0.6642
   53MOL0     H 7153   7.639   0.622   2.898 -0.7925  0.9316 -0.3031
   53MOL0     H 7154   7.104   0.078   3.469  1.1938  0.4326 -0.9536
   53MOL0     H 7155   6.850   0.055   3.470 -4.0514  2.7206  0.0744
   54MOL0     O 7156   6.497   5.353   4.998  0.3642  0.1629  1.1516
   54MOL0     C 7157   6.524   5.457   4.933 -0.2196 -0.4176  0.7779
   54MOL0     O 7158   6.442   5.515   4.836  0.1764  0.5551  0.3393
   54MOL0     C 7159   6.320   5.458   4.812  1.3309  0.8983  0.5657
   54MOL0     C 7160   6.291   5.318   4.805  0.6950 -0.7337  0.2195
   54MOL0     C 7161   6.160   5.276   4.798  0.8715  0.0181  0.0949
   54MOL0     C 7162   6.055   5.364   4.786 -0.0289  0.3460  1.0131
   54MOL0     O 7163   5.924   5.325   4.766  0.4646 -1.0531  0.3224
   54MOL0     C 7164   5.898   5.185   4.731  0.5061  1.1314 -0.5627
   54MOL0     C 7165   5.752   5.169   4.690 -0.5570 -0.1136  0.4770
   54MOL0     C 7166   5.738   5.239   4.546 -0.0017  0.4973  0.9600
   54MOL0     C 7167   5.591   5.236   4.501 -0.0370  0.1182 -0.0517
   54MOL0     C 7168   5.579   5.256   4.348 -0.0450  0.6053 -0.1981
   54MOL0     C 7169   5.440   5.308   4.302  0.8863 -0.4500 -0.3053
   54MOL0     C 7170   5.438   5.373   4.153 -0.1493  0.7614  0.3991
   54MOL0     C 7171   5.308   5.425   4.108  0.4184 -0.5706  0.1137
   54MOL0     N 7172   5.195   5.329   4.099  0.4605 -0.0559  0.7904
   54MOL0     C 7173   5.098   5.307   4.196 -1.3518 -0.7349  0.8712
   54MOL0     C 7174   5.005   5.235   4.139  0.3284  0.3801 -0.3284
   54MOL0     C 7175   4.871   5.191   4.178 -0.4437 -0.5516 -0.1984
   54MOL0     C 7176   4.862   5.038   4.165  0.6699 -0.5455  0.5677
   54MOL0     C 7177   4.819   4.975   4.300 -0.5447  0.0819  0.3991
   54MOL0     C 7178   4.675   5.025   4.343  0.2466  0.0287 -0.2726
   54MOL0     O 7179   4.577   4.997   4.247 -0.0797 -0.1697  0.4336
   54MOL0     C 7180   4.449   5.052   4.258  0.0344 -0.0059  0.1387
   54MOL0     C 7181   4.413   5.162   4.338  0.1508 -0.6316 -0.0177
   54MOL0     C 7182   4.275   5.182   4.361 -0.2926 -0.2466  0.1129
   54MOL0     C 7183   4.243   5.313   4.431  0.3612  0.5952 -0.0671
   54MOL0     C 7184   4.177   5.095   4.304 -0.2505 -0.2753 -0.4260
   54MOL0     C 7185   4.028   5.103   4.330  0.1278  0.2324 -0.0424
   54MOL0     O 7186   3.955   5.010   4.260  0.0961 -0.4728  0.6080
   54MOL0     C 7187   3.830   5.000   4.303 -0.1461  0.1001  0.5402
   54MOL0     C 7188   3.737   5.093   4.252  0.0947  0.1563 -0.3480
   54MOL0     C 7189   3.611   5.105   4.305  0.6275 -0.1041 -0.4334
   54MOL0     C 7190   3.563   5.021   4.411  0.3230  0.6244 -0.0524
   54MOL0     O 7191   3.446   5.032   4.475  0.1019 -0.0054  0.0266
   54MOL0     C 7192   3.350   5.122   4.428  0.1750 -0.4314 -0.1470
   54MOL0     C 7193   3.226   5.066   4.500  0.6498 -0.1316  0.7702
   54MOL0     C 7194   3.094   5.138   4.473 -0.1370 -0.6359 -0.0451
   54MOL0     C 7195   2.964   5.077   4.539  0.0249  0.1837  0.0145
   54MOL0     C 7196   2.825   5.149   4.532 -0.4340  0.9941  0.1870
   54MOL0     C 7197   2.723   5.079   4.640  0.1013  0.9080 -0.3524
   54MOL0     C 7198   2.585   5.143   4.614  0.1164 -0.3575 -0.2646
   54MOL0     C 7199   2.498   5.101   4.733  0.1200 -0.5599  0.0982
   54MOL0    Cl 7200   2.338   5.171   4.720  0.4529 -0.0416  0.3289
   54MOL0     C 7201   3.646   4.907   4.439 -0.3742 -0.0186 -0.1463
   54MOL0     C 7202   3.787   4.907   4.392 -0.5463 -0.7733  0.0078
   54MOL0     O 7203   3.979   5.195   4.397  0.3872  0.7260  0.6488
   54MOL0     C 7204   4.220   4.986   4.223 -0.0176  0.0024 -0.2176
   54MOL0     C 7205   4.353   4.969   4.194  0.5587  0.1698  0.2037
   54MOL0     N 7206   5.032   5.219   4.000 -0.5153 -0.6160 -0.2025
   54MOL0     N 7207   5.151   5.277   3.984 -0.3387 -0.6357  0.3689
   54MOL0     C 7208   6.079   5.504   4.794 -0.2429  0.5155  0.1285
   54MOL0     C 7209   6.210   5.551   4.807  0.1953  0.8209 -0.1784
   54MOL0     C 7210   6.660   5.505   4.942 -1.3124 -0.1077 -0.4042
   54MOL0     C 7211   6.761   5.443   5.023  0.8635  0.3504 -0.0625
   54MOL0     C 7212   6.887   5.494   5.047  1.0224 -0.3952 -0.6396
   54MOL0     C 7213   6.930   5.615   4.982 -0.1416  0.7748 -0.0748
   54MOL0     O 7214   7.045   5.671   5.022  0.1878  0.4257 -1.1345
   54MOL0     C 7215   7.139   5.614   4.940  0.0341 -0.9607 -0.2279
   54MOL0     C 7216   7.275   5.634   4.990 -0.0715  0.7147  0.0598
   54MOL0     C 7217   7.296   5.569   5.129 -0.1343  0.7903 -0.8096
   54MOL0     C 7218   7.447   5.560   5.183  0.1843 -0.4163  0.8465
   54MOL0     C 7219   7.511   5.431   5.149  0.0642  0.3676  0.2903
   54MOL0     C 7220   7.563   5.320   5.144 -0.7034  0.1822  0.1731
   54MOL0     C 7221   6.838   5.672   4.898  0.0322 -0.7898  0.0235
   54MOL0     C 7222   6.703   5.629   4.881  0.6302  0.2685 -0.8177
   54MOL0     H 7223   6.376   5.251   4.811 -0.2137 -1.9049  0.4152
   54MOL0     H 7224   6.150   5.168   4.803  2.9726 -0.2171  0.0730
   54MOL0     H 7225   5.963   5.160   4.647  2.2023  1.1845  0.6797
   54MOL0     H 7226   5.910   5.124   4.821  2.2652  0.1038 -1.4279
   54MOL0     H 7227   5.731   5.062   4.676  1.4116 -0.5489  0.5291
   54MOL0     H 7228   5.691   5.216   4.767 -1.8129  0.2143 -0.6726
   54MOL0     H 7229   5.782   5.338   4.548  4.3512 -1.2207  2.9578
   54MOL0     H 7230   5.801   5.199   4.466 -1.6860  1.2957 -0.8531
   54MOL0     H 7231   5.551   5.138   4.526  3.0926 -0.8286  1.6964
   54MOL0     H 7232   5.528   5.309   4.553 -0.2885  0.3730 -0.6968
   54MOL0     H 7233   5.653   5.331   4.319  0.9563  1.0127  3.0191
   54MOL0     H 7234   5.600   5.162   4.296 -0.7589  0.5269 -0.3552
   54MOL0     H 7235   5.370   5.226   4.318  0.9523 -0.4040  0.2729
   54MOL0     H 7236   5.399   5.380   4.373 -1.5273  0.1472 -2.1809
   54MOL0     H 7237   5.512   5.453   4.151 -0.8780  1.5094  1.8551
   54MOL0     H 7238   5.474   5.297   4.083  0.1216  2.9206 -1.9672
   54MOL0     H 7239   5.316   5.453   4.003 -1.7556 -2.1671 -0.5366
   54MOL0     H 7240   5.286   5.505   4.180  1.3298  0.0417 -0.2679
   54MOL0     H 7241   5.093   5.351   4.295 -1.8661  0.8468  0.1774
   54MOL0     H 7242   4.859   5.216   4.284  1.2372  1.2460 -0.3932
   54MOL0     H 7243   4.799   5.243   4.114  2.4850  2.3358 -1.4353
   54MOL0     H 7244   4.961   4.998   4.142  1.6831  1.7294  0.6603
   54MOL0     H 7245   4.787   5.002   4.093 -0.2520  0.2030  1.1279
   54MOL0     H 7246   4.888   5.008   4.378 -0.5962 -0.9583  0.8997
   54MOL0     H 7247   4.826   4.868   4.278  0.1094  0.3607 -0.8184
   54MOL0     H 7248   4.684   5.133   4.357 -0.5381  0.2671 -1.4553
   54MOL0     H 7249   4.654   4.983   4.442  1.3276  0.7498  0.2780
   54MOL0     H 7250   4.484   5.219   4.397 -1.2531 -0.0485  1.1987
   54MOL0     H 7251   4.214   5.301   4.535 -0.3278 -0.7147 -0.3915
   54MOL0     H 7252   4.328   5.382   4.424  0.6182  0.4197  1.0802
   54MOL0     H 7253   4.159   5.351   4.372 -1.4902 -0.9439  1.4684
   54MOL0     H 7254   3.768   5.162   4.174  2.8058 -0.8473 -0.2845
   54MOL0     H 7255   3.537   5.175   4.267 -1.2250 -1.9421 -0.3933
   54MOL0     H 7256   3.374   5.225   4.456 -0.0223 -0.5847  0.6166
   54MOL0     H 7257   3.339   5.128   4.319  0.8627  1.0824 -0.1565
   54MOL0     H 7258   3.210   4.965   4.462 -0.1522 -0.2342  1.3638
   54MOL0     H 7259   3.232   5.074   4.609 -1.8224 -3.9622  1.3460
   54MOL0     H 7260   3.087   5.154   4.365  0.8551  0.5592  0.0514
   54MOL0     H 7261   3.102   5.235   4.521  2.4631 -2.0897  2.7992
   54MOL0     H 7262   2.944   4.982   4.489 -1.7082  0.2827  0.4746
   54MOL0     H 7263   2.989   5.056   4.643 -1.0485  2.0819  0.6977
   54MOL0     H 7264   2.778   5.147   4.434 -2.6338  2.1377  1.1548
   54MOL0     H 7265   2.831   5.257   4.546 -0.3454  1.2430 -1.5606
   54MOL0     H 7266   2.710   4.973   4.616 -0.0388  1.3624 -2.5445
   54MOL0     H 7267   2.748   5.106   4.743 -0.7718  1.0166 -0.1617
   54MOL0     H 7268   2.538   5.097   4.527 -0.0184 -0.3122 -0.2163
   54MOL0     H 7269   2.598   5.251   4.604  2.2159 -0.5345  0.0518
   54MOL0     H 7270   2.537   5.147   4.824 -1.4254 -1.0306  1.0487
   54MOL0     H 7271   2.482   4.993   4.733  1.3094 -0.8894 -3.5243
   54MOL0     H 7272   3.598   4.837   4.506 -0.1480 -0.5893 -0.5818
   54MOL0     H 7273   3.844   4.825   4.436 -0.1418 -1.1142 -1.1323
   54MOL0     H 7274   4.153   4.909   4.185 -1.2559  0.0499  1.7413
   54MOL0     H 7275   4.380   4.891   4.124  1.9478  1.0506 -0.2914
   54MOL0     H 7276   6.000   5.576   4.809  1.1647  1.8318  1.6152
   54MOL0     H 7277   6.218   5.656   4.831 -3.6107  1.2744 -0.2469
   54MOL0     H 7278   6.735   5.353   5.076  3.7346 -1.2692 -1.1599
   54MOL0     H 7279   6.961   5.461   5.118  0.2079  2.9723  2.0137
   54MOL0     H 7280   7.130   5.505   4.935 -2.9205 -0.7586 -1.1421
   54MOL0     H 7281   7.136   5.650   4.836  2.5655  1.5813  0.4303
   54MOL0     H 7282   7.292   5.742   4.987  2.5566  0.3719 -3.3256
   54MOL0     H 7283   7.346   5.580   4.926  1.3697  0.2033  1.9684
   54MOL0     H 7284   7.255   5.468   5.120 -2.9110  1.3723  2.8987
   54MOL0     H 7285   7.231   5.626   5.197  1.5265 -1.3758  2.8995
   54MOL0     H 7286   7.449   5.555   5.292 -0.2211  2.2140  1.0340
   54MOL0     H 7287   7.509   5.642   5.145  0.0376 -1.1425 -1.0531
   54MOL0     H 7288   7.601   5.220   5.144  1.0983  0.8156 -0.4439
   54MOL0     H 7289   6.884   5.761   4.856  0.0883 -0.5857  0.5113
   54MOL0     H 7290   6.635   5.699   4.834 -1.1127 -0.3853  0.5947
   55MOL0     O 7291   8.770   7.595   5.268  0.3085 -1.0613  0.8162
   55MOL0     C 7292   8.837   7.578   5.167  0.7534 -0.0139 -0.4500
   55MOL0     O 7293   8.802   7.502   5.063  0.0948  0.3060  0.1057
   55MOL0     C 7294   8.674   7.445   5.043 -0.2066 -0.7416 -0.4135
   55MOL0     C 7295   8.666   7.363   4.937 -0.1682 -0.6954 -0.3780
   55MOL0     C 7296   8.548   7.307   4.903 -0.2383  0.1822  0.6283
   55MOL0     C 7297   8.429   7.326   4.972  0.2089 -0.4212 -1.1211
   55MOL0     O 7298   8.310   7.270   4.950 -0.3991 -0.6297  0.8093
   55MOL0     C 7299   8.277   7.258   4.807 -0.9250  0.1972 -0.1096
   55MOL0     C 7300   8.131   7.215   4.788 -0.4414  0.3386  0.0593
   55MOL0     C 7301   8.095   7.087   4.864 -0.6423 -0.1362 -0.3195
   55MOL0     C 7302   7.956   7.094   4.916  0.0038 -0.8884  0.5320
   55MOL0     C 7303   7.899   6.960   4.953  0.9590  0.6645 -0.3996
   55MOL0     C 7304   7.773   6.982   5.037 -0.3264 -0.0071  0.2168
   55MOL0     C 7305   7.730   6.846   5.101 -0.5384 -0.0374  0.8814
   55MOL0     C 7306   7.636   6.766   5.006  0.0779  0.3984 -0.4322
   55MOL0     N 7307   7.533   6.682   5.078  0.7797 -0.4713 -0.6387
   55MOL0     C 7308   7.508   6.550   5.068 -0.5026  0.9630  1.1589
   55MOL0     C 7309   7.395   6.533   5.146  0.2408  1.0427 -0.0247
   55MOL0     C 7310   7.349   6.400   5.200 -0.5396 -0.1544 -0.2891
   55MOL0     C 7311   7.194   6.398   5.192 -0.6192 -0.4933  0.0521
   55MOL0     C 7312   7.139   6.425   5.045 -0.1791 -0.0560  0.8726
   55MOL0     C 7313   6.995   6.373   5.022  0.3386 -1.0324  0.0828
   55MOL0     O 7314   7.000   6.231   5.008  0.0202  0.8466  0.6262
   55MOL0     C 7315   6.884   6.157   5.016  0.0975 -0.2464 -0.3899
   55MOL0     C 7316   6.751   6.201   4.994 -0.2746 -0.2567 -0.1682
   55MOL0     C 7317   6.642   6.123   5.010 -0.6359  0.3276 -0.0189
   55MOL0     C 7318   6.510   6.197   5.004  0.6271 -0.6070 -0.4826
   55MOL0     C 7319   6.653   5.986   5.053 -0.8510 -0.8447  0.2768
   55MOL0     C 7320   6.533   5.904   5.069 -0.8719 -0.5278  0.0788
   55MOL0     O 7321   6.497   5.867   5.197  0.1319  0.4394  0.1553
   55MOL0     C 7322   6.389   5.782   5.218  0.2647  0.3496  0.5140
   55MOL0     C 7323   6.407   5.645   5.209 -0.6811  0.5052  0.3252
   55MOL0     C 7324   6.303   5.556   5.215 -0.2005 -0.7475  0.3924
   55MOL0     C 7325   6.176   5.606   5.246  1.1912 -0.2238 -0.7951
   55MOL0     O 7326   6.064   5.533   5.262 -0.3168  0.1588 -0.1863
   55MOL0     C 7327   6.063   5.393   5.229 -0.5351  0.5674 -1.1044
   55MOL0     C 7328   5.920   5.330   5.241 -0.3014  0.2425  0.0798
   55MOL0     C 7329   5.810   5.427   5.196  0.1352 -0.0299 -0.1244
   55MOL0     C 7330   5.671   5.367   5.222  0.0084  0.6328  0.5236
   55MOL0     C 7331   5.641   5.251   5.122  0.1182 -0.2651 -0.2403
   55MOL0     C 7332   5.501   5.202   5.144  0.7114 -0.7542  0.0853
   55MOL0     C 7333   5.393   5.303   5.083  0.7874 -0.0988  0.4232
   55MOL0     C 7334   5.254   5.253   5.114  0.5458  0.4169  0.2153
   55MOL0    Cl 7335   5.208   5.108   5.023  0.4378 -0.2261  0.1258
   55MOL0     C 7336   6.152   5.742   5.262  0.2915 -0.1547  0.3728
   55MOL0     C 7337   6.259   5.828   5.239  0.1856  0.2192 -0.3149
   55MOL0     O 7338   6.469   5.874   4.965 -0.2273 -0.3692  0.0800
   55MOL0     C 7339   6.784   5.939   5.080  0.7234  0.7406  0.2291
   55MOL0     C 7340   6.897   6.025   5.058  0.6601  0.1348  0.0594
   55MOL0     N 7341   7.349   6.655   5.186 -0.2154 -0.6066 -0.7173
   55MOL0     N 7342   7.433   6.750   5.147  0.2289  0.1696 -0.3343
   55MOL0     C 7343   8.437   7.405   5.087  0.8749 -0.3390  1.4025
   55MOL0     C 7344   8.556   7.461   5.121  0.0923 -0.2394  0.6431
   55MOL0     C 7345   8.970   7.637   5.170 -0.0726  0.3217 -0.6136
   55MOL0     C 7346   9.027   7.704   5.279  0.2010 -0.3615 -0.2238
   55MOL0     C 7347   9.149   7.774   5.266 -0.4885  0.3483  0.7534
   55MOL0     C 7348   9.238   7.762   5.150 -0.2736 -0.4679  0.2780
   55MOL0     O 7349   9.358   7.821   5.128 -0.0398 -0.3047 -0.7403
   55MOL0     C 7350   9.424   7.880   5.241 -0.9502  0.4802  1.2373
   55MOL0     C 7351   9.573   7.906   5.207 -0.2753 -0.4315 -0.5786
   55MOL0     C 7352   9.649   7.776   5.203  0.2420 -0.1250 -0.0361
   55MOL0     C 7353   9.802   7.804   5.187  0.7331 -0.7696  0.2817
   55MOL0     C 7354   9.885   7.690   5.217 -0.7186 -0.0959  0.0606
   55MOL0     C 7355   9.952   7.598   5.256 -0.6639 -0.1766  0.1249
   55MOL0     C 7356   9.184   7.685   5.042 -0.9586  0.6331  0.7386
   55MOL0     C 7357   9.051   7.633   5.055 -0.9702  0.3855  0.5105
   55MOL0     H 7358   8.757   7.340   4.882  1.8159  2.7929  1.0728
   55MOL0     H 7359   8.553   7.243   4.816 -0.3387 -0.0437  0.7881
   55MOL0     H 7360   8.305   7.356   4.767  2.9213 -0.8868 -0.4193
   55MOL0     H 7361   8.352   7.189   4.768 -1.0797  0.9287 -1.8090
   55MOL0     H 7362   8.061   7.297   4.808  0.0436  0.6583  0.4634
   55MOL0     H 7363   8.103   7.200   4.683  2.2310 -1.9064 -0.4320
   55MOL0     H 7364   8.097   7.003   4.795 -0.9982 -3.6578  3.5294
   55MOL0     H 7365   8.173   7.049   4.932 -1.0069 -3.5767 -1.6247
   55MOL0     H 7366   7.966   7.159   5.003  0.0719  1.2342 -0.9934
   55MOL0     H 7367   7.894   7.148   4.844  1.0380  1.4789  1.3386
   55MOL0     H 7368   7.875   6.908   4.860  1.2692 -0.0194 -0.1070
   55MOL0     H 7369   7.969   6.897   5.009 -2.0705 -0.8392  1.9997
   55MOL0     H 7370   7.784   7.051   5.121 -1.9772 -1.0307  1.3269
   55MOL0     H 7371   7.694   7.021   4.972 -1.5936 -0.3659  1.4735
   55MOL0     H 7372   7.822   6.788   5.115  0.3471  0.7641 -1.2267
   55MOL0     H 7373   7.673   6.863   5.193 -2.6519 -2.4974  0.1369
   55MOL0     H 7374   7.697   6.697   4.947 -2.1575 -1.2292 -0.9850
   55MOL0     H 7375   7.580   6.832   4.939 -1.5000 -0.5650 -0.1148
   55MOL0     H 7376   7.565   6.478   5.010 -1.5556 -0.3618  1.6915
   55MOL0     H 7377   7.393   6.318   5.143 -0.8205 -1.8896  1.8668
   55MOL0     H 7378   7.389   6.395   5.302 -0.2812  0.5248 -0.3499
   55MOL0     H 7379   7.150   6.469   5.262 -0.6897 -1.2172  0.7569
   55MOL0     H 7380   7.180   6.296   5.227 -1.7797 -0.1281  0.6839
   55MOL0     H 7381   7.198   6.364   4.976 -0.5450 -1.1447  1.4845
   55MOL0     H 7382   7.141   6.533   5.029 -0.2059 -0.2199 -0.3353
   55MOL0     H 7383   6.950   6.424   4.936 -1.9212  0.3499  1.9649
   55MOL0     H 7384   6.938   6.403   5.110  1.8825 -0.0257  0.7851
   55MOL0     H 7385   6.733   6.306   4.973 -0.1400 -0.6625 -2.5501
   55MOL0     H 7386   6.435   6.142   5.062  1.9271 -0.5312  1.3817
   55MOL0     H 7387   6.510   6.303   5.030  0.4347 -0.9263  0.9537
   55MOL0     H 7388   6.476   6.197   4.900  0.2603 -4.4642 -0.5154
   55MOL0     H 7389   6.510   5.614   5.196 -0.1394  2.6828 -1.2141
   55MOL0     H 7390   6.328   5.451   5.207  0.4241 -1.0388  4.1613
   55MOL0     H 7391   6.101   5.371   5.129 -0.8794 -2.1812 -0.7216
   55MOL0     H 7392   6.116   5.321   5.292  0.2770  1.9163 -0.2043
   55MOL0     H 7393   5.916   5.242   5.176  0.8588  1.5024 -1.8045
   55MOL0     H 7394   5.903   5.301   5.345 -1.4240 -3.4271 -0.9986
   55MOL0     H 7395   5.820   5.469   5.095  1.5312 -0.1612 -0.0600
   55MOL0     H 7396   5.815   5.517   5.257 -0.7110  2.1588 -3.0594
   55MOL0     H 7397   5.675   5.331   5.325 -2.3907  2.5008  1.3650
   55MOL0     H 7398   5.591   5.442   5.221 -1.7340 -1.1472  0.4196
   55MOL0     H 7399   5.711   5.169   5.145  1.7559  1.3558  0.8224
   55MOL0     H 7400   5.646   5.280   5.017 -1.5849  0.7701 -0.0778
   55MOL0     H 7401   5.494   5.100   5.103  1.3104 -1.1549  0.9417
   55MOL0     H 7402   5.494   5.179   5.251 -0.2521 -0.7679  0.0339
   55MOL0     H 7403   5.407   5.325   4.976 -3.0754  0.6530 -0.0834
   55MOL0     H 7404   5.404   5.405   5.119  4.4420  1.2467 -3.5445
   55MOL0     H 7405   5.180   5.329   5.087  1.7959  2.6345  2.5455
   55MOL0     H 7406   5.238   5.227   5.219 -0.7515 -5.1926 -1.0166
   55MOL0     H 7407   6.050   5.771   5.283  0.0122 -1.0332  0.2746
   55MOL0     H 7408   6.240   5.935   5.253  0.2526  0.1444  0.3966
   55MOL0     H 7409   6.787   5.834   5.108  1.0481  0.6097 -0.2715
   55MOL0     H 7410   6.998   5.993   5.080  0.5158  0.8691  1.9437
   55MOL0     H 7411   8.353   7.422   5.154  1.1383  0.1220  1.6233
   55MOL0     H 7412   8.563   7.529   5.205  1.0022  1.1762 -0.5305
   55MOL0     H 7413   8.970   7.697   5.372  1.6532 -0.8405  0.6655
   55MOL0     H 7414   9.183   7.830   5.352 -2.1510 -0.1286  1.7531
   55MOL0     H 7415   9.365   7.969   5.264 -0.4227  0.4548  2.8343
   55MOL0     H 7416   9.403   7.813   5.325 -1.6461  1.0745  1.5403
   55MOL0     H 7417   9.622   7.971   5.279  1.5491 -0.6852 -1.5368
   55MOL0     H 7418   9.579   7.966   5.115  1.5411  0.6289  0.1865
   55MOL0     H 7419   9.615   7.710   5.123 -0.5144 -2.5576  2.1411
   55MOL0     H 7420   9.630   7.731   5.301  0.4969  1.8091  0.9436
   55MOL0     H 7421   9.823   7.889   5.253 -1.0616 -0.4307  0.4866
   55MOL0     H 7422   9.823   7.835   5.085  0.0613 -1.1060  0.0354
   55MOL0     H 7423  10.025   7.526   5.287 -1.0711 -0.6800 -0.0670
   55MOL0     H 7424   9.230   7.671   4.945 -1.9256 -2.8512  0.6148
   55MOL0     H 7425   9.011   7.597   4.960 -0.8439 -1.7781  1.2195
   56MOL0     O 7426   3.625   4.140  10.711  1.0914 -0.5666  0.1191
   56MOL0     C 7427   3.520   4.202  10.749 -0.3778  0.3390  0.3132
   56MOL0     O 7428   3.389   4.170  10.704 -0.0761 -0.2631 -0.4218
   56MOL0     C 7429   3.356   4.068  10.612  0.0187 -0.1402 -0.8766
   56MOL0     C 7430   3.435   3.948  10.594  0.9255  0.6999 -0.6731
   56MOL0     C 7431   3.391   3.842  10.512 -0.4722 -0.2684  0.2008
   56MOL0     C 7432   3.269   3.853  10.441  0.5466  0.3002  0.2895
   56MOL0     O 7433   3.200   3.762  10.369  0.4706  0.3073 -0.5483
   56MOL0     C 7434   3.214   3.628  10.415 -0.4756  0.0989 -0.9895
   56MOL0     C 7435   3.108   3.538  10.360 -0.6669  0.4045 -0.0230
   56MOL0     C 7436   2.981   3.537  10.438  0.4471 -0.6563  1.2823
   56MOL0     C 7437   2.896   3.655  10.397  0.2559 -0.3207  0.3040
   56MOL0     C 7438   2.757   3.646  10.471 -0.5659 -0.7710 -0.1950
   56MOL0     C 7439   2.666   3.760  10.433  0.4024  0.9911  1.2526
   56MOL0     C 7440   2.718   3.896  10.456 -0.0442  0.2233 -0.3508
   56MOL0     C 7441   2.595   3.995  10.434 -0.0968 -0.0084 -0.5126
   56MOL0     N 7442   2.560   4.022  10.294 -0.0131 -0.1962  0.1632
   56MOL0     C 7443   2.439   3.974  10.240  0.0751  0.2404  0.1766
   56MOL0     C 7444   2.423   4.044  10.117  0.0343  0.1215 -0.0991
   56MOL0     C 7445   2.318   4.019  10.020 -0.6146 -0.0826  0.0181
   56MOL0     C 7446   2.212   4.129  10.023 -0.0185 -1.5226  0.6348
   56MOL0     C 7447   2.120   4.120   9.905  0.1428  0.1303 -0.3175
   56MOL0     C 7448   2.024   4.240   9.888  0.4657 -1.0374 -0.2302
   56MOL0     O 7449   1.920   4.190   9.810 -0.0274  0.6552  0.2280
   56MOL0     C 7450   1.814   4.276   9.797  0.0883  0.2798 -0.1192
   56MOL0     C 7451   1.791   4.340   9.669  0.3374  0.4318  0.3395
   56MOL0     C 7452   1.688   4.429   9.653 -0.3636  1.0294  0.7630
   56MOL0     C 7453   1.665   4.486   9.515 -0.1374 -0.2583  0.6124
   56MOL0     C 7454   1.599   4.461   9.756 -0.3491  0.1448  0.1922
   56MOL0     C 7455   1.490   4.558   9.742  0.0598 -0.7753  0.0780
   56MOL0     O 7456   1.515   4.681   9.687  0.4633  0.2870 -0.0230
   56MOL0     C 7457   1.413   4.766   9.655 -0.4410 -0.5031 -0.7950
   56MOL0     C 7458   1.327   4.728   9.541  0.2575 -0.3303 -0.7216
   56MOL0     C 7459   1.213   4.796   9.521 -0.5822 -0.2813 -0.3537
   56MOL0     C 7460   1.180   4.910   9.594 -0.2896  0.5145  0.1633
   56MOL0     O 7461   1.064   4.972   9.557 -1.1038 -0.0871 -0.1193
   56MOL0     C 7462   1.026   5.088   9.636 -0.8589 -0.2592  0.3554
   56MOL0     C 7463   0.874   5.118   9.602 -0.0623  0.2498  0.2628
   56MOL0     C 7464   0.782   5.005   9.655 -0.3384 -0.3487  0.6211
   56MOL0     C 7465   0.643   5.005   9.594 -0.8356 -0.5976  0.3661
   56MOL0     C 7466   0.558   5.100   9.675 -0.2447  0.2989 -0.0523
   56MOL0     C 7467   0.456   5.151   9.562  0.4256 -0.3504 -0.6537
   56MOL0     C 7468   0.361   5.049   9.514 -0.0373 -0.6164 -0.2881
   56MOL0     C 7469   0.268   5.105   9.404  0.1335 -0.5514 -0.6188
   56MOL0    Cl 7470   0.140   5.203   9.460  0.4111 -0.6286 -0.0149
   56MOL0     C 7471   1.265   4.949   9.703 -0.6544 -0.8227  0.2893
   56MOL0     C 7472   1.380   4.874   9.741  0.7255  0.1518  0.8669
   56MOL0     O 7473   1.381   4.532   9.801 -0.0509  0.3263  0.3170
   56MOL0     C 7474   1.627   4.398   9.883  0.9566  0.1401 -0.4689
   56MOL0     C 7475   1.732   4.311   9.902  0.7085  0.0742 -0.2630
   56MOL0     N 7476   2.536   4.126  10.106 -0.2196  0.3030  0.6353
   56MOL0     N 7477   2.621   4.109  10.207  0.1946  0.6015  0.5301
   56MOL0     C 7478   3.200   3.979  10.452 -0.0497  0.2328  0.5833
   56MOL0     C 7479   3.239   4.077  10.539  0.3851  0.3996 -0.1324
   56MOL0     C 7480   3.532   4.294  10.855  0.2724 -0.2082 -0.2149
   56MOL0     C 7481   3.647   4.313  10.933  0.5703 -0.2327 -0.2026
   56MOL0     C 7482   3.643   4.399  11.046 -0.3831 -0.0930  0.5601
   56MOL0     C 7483   3.533   4.468  11.083  0.0647  0.4437 -0.0172
   56MOL0     O 7484   3.544   4.553  11.185  1.0260 -0.1676  0.0984
   56MOL0     C 7485   3.454   4.515  11.289 -0.1427  0.4268 -0.5414
   56MOL0     C 7486   3.515   4.405  11.377 -0.1300  0.1966 -1.0913
   56MOL0     C 7487   3.665   4.418  11.406  0.6274  0.5194  0.2563
   56MOL0     C 7488   3.747   4.287  11.397 -0.8234  0.2332  0.2210
   56MOL0     C 7489   3.703   4.190  11.495  1.2228  0.1644 -0.1528
   56MOL0     C 7490   3.669   4.120  11.591 -0.7221 -0.0111 -0.5876
   56MOL0     C 7491   3.415   4.457  11.001 -0.6730  0.1637 -0.4361
   56MOL0     C 7492   3.417   4.378  10.883 -0.2295  0.9663  0.6627
   56MOL0     H 7493   3.526   3.934  10.653 -0.0593  2.0077  1.2423
   56MOL0     H 7494   3.446   3.749  10.508 -2.5611 -1.7774  2.9823
   56MOL0     H 7495   3.307   3.585  10.377 -0.6396 -1.5972  0.3811
   56MOL0     H 7496   3.209   3.627  10.524  0.3701  3.1620 -0.8288
   56MOL0     H 7497   3.085   3.566  10.256 -3.4083 -1.9082 -0.1559
   56MOL0     H 7498   3.149   3.437  10.367 -3.2240 -0.6407  1.1718
   56MOL0     H 7499   2.927   3.446  10.411 -1.9166  1.0535 -0.1013
   56MOL0     H 7500   3.001   3.532  10.545  1.9303 -2.2450  0.9793
   56MOL0     H 7501   2.940   3.753  10.420 -3.2033  1.2588  0.6916
   56MOL0     H 7502   2.874   3.650  10.290 -2.5181 -0.7651  0.8450
   56MOL0     H 7503   2.712   3.549  10.448 -0.4739 -0.5847 -1.2526
   56MOL0     H 7504   2.768   3.649  10.579  2.2234 -1.2441 -0.3933
   56MOL0     H 7505   2.659   3.753  10.324  1.2616 -0.4782  1.2731
   56MOL0     H 7506   2.574   3.745  10.490  0.1231  1.3978  0.9121
   56MOL0     H 7507   2.751   3.900  10.560 -0.5926  1.2519 -0.2072
   56MOL0     H 7508   2.802   3.913  10.388 -0.6215 -3.2337 -2.1650
   56MOL0     H 7509   2.624   4.091  10.478 -0.9940  0.3714 -0.7301
   56MOL0     H 7510   2.503   3.967  10.484 -1.8698  1.8660 -2.5046
   56MOL0     H 7511   2.378   3.904  10.296  1.1148 -0.9186 -0.0819
   56MOL0     H 7512   2.357   4.008   9.918 -0.0938 -0.3990  0.2494
   56MOL0     H 7513   2.275   3.924  10.054 -1.8084 -0.8191 -3.1562
   56MOL0     H 7514   2.265   4.224  10.022  4.0238 -3.5632  0.0791
   56MOL0     H 7515   2.155   4.118  10.116  0.0817 -0.4662  0.8243
   56MOL0     H 7516   2.054   4.032   9.904  0.7548 -0.3430 -1.7903
   56MOL0     H 7517   2.181   4.111   9.815  1.1970 -0.0974  0.4009
   56MOL0     H 7518   2.074   4.320   9.832 -0.0443 -0.3446  0.2880
   56MOL0     H 7519   1.987   4.269   9.987 -0.8066  0.8708 -1.1902
   56MOL0     H 7520   1.856   4.323   9.584  0.9980 -0.4227  0.9996
   56MOL0     H 7521   1.675   4.415   9.433 -2.9203 -3.5834  2.8478
   56MOL0     H 7522   1.563   4.524   9.504 -1.5187 -2.7243  3.4637
   56MOL0     H 7523   1.740   4.564   9.495 -0.1805  0.3843  2.6819
   56MOL0     H 7524   1.366   4.652   9.474 -0.3547 -0.3190 -1.0914
   56MOL0     H 7525   1.150   4.761   9.440 -3.1674  0.7037  1.1005
   56MOL0     H 7526   1.044   5.077   9.743  1.4459  1.3018  0.2161
   56MOL0     H 7527   1.081   5.171   9.591  1.3748 -2.9022 -2.1857
   56MOL0     H 7528   0.846   5.218   9.637 -1.1021  0.6744 -1.6123
   56MOL0     H 7529   0.866   5.120   9.493 -2.3523 -0.7958  0.3537
   56MOL0     H 7530   0.776   5.002   9.764  2.8630  0.0313  0.8983
   56MOL0     H 7531   0.820   4.905   9.632 -1.7813 -0.9307  0.6808
   56MOL0     H 7532   0.647   5.036   9.489  2.7452 -0.1257  0.5240
   56MOL0     H 7533   0.596   4.907   9.605  2.5771 -2.3044  1.2182
   56MOL0     H 7534   0.620   5.183   9.711 -3.1249  3.3799 -1.6161
   56MOL0     H 7535   0.502   5.049   9.753  0.2901  2.0789  1.5698
   56MOL0     H 7536   0.404   5.230   9.618 -1.2981 -1.4885 -0.5767
   56MOL0     H 7537   0.499   5.199   9.474 -1.0941  0.1157 -1.1896
   56MOL0     H 7538   0.304   5.018   9.602 -0.7925  2.7730  0.5653
   56MOL0     H 7539   0.399   4.950   9.486 -3.3641 -2.3437  0.6659
   56MOL0     H 7540   0.220   5.018   9.358 -0.5412 -0.1643 -0.6631
   56MOL0     H 7541   0.334   5.161   9.337 -1.2400  1.0502 -0.6966
   56MOL0     H 7542   1.247   5.038   9.762  0.7833  0.1022 -0.6012
   56MOL0     H 7543   1.424   4.900   9.837  1.9021  0.5760  0.2382
   56MOL0     H 7544   1.556   4.412   9.964 -0.3636  3.0954 -1.9738
   56MOL0     H 7545   1.738   4.249   9.991  4.5737  2.6479  1.5098
   56MOL0     H 7546   3.104   3.996  10.405 -1.0340 -1.8719  1.6639
   56MOL0     H 7547   3.169   4.159  10.554 -0.6961 -0.2012 -1.6623
   56MOL0     H 7548   3.736   4.254  10.912  1.4314 -0.5226  3.5929
   56MOL0     H 7549   3.729   4.429  11.106 -0.0788 -1.8516  1.0488
   56MOL0     H 7550   3.448   4.601  11.356  2.6816  0.4182 -0.1525
   56MOL0     H 7551   3.361   4.486  11.240 -0.4821 -0.3661  0.5356
   56MOL0     H 7552   3.482   4.305  11.347  1.1226 -0.2424 -1.0511
   56MOL0     H 7553   3.464   4.419  11.472 -2.1010 -1.8443 -1.7635
   56MOL0     H 7554   3.678   4.450  11.509 -0.0037 -0.2477  0.5832
   56MOL0     H 7555   3.719   4.491  11.344 -0.3252 -0.8005 -2.3132
   56MOL0     H 7556   3.855   4.300  11.406 -0.4720 -1.5409 -0.7492
   56MOL0     H 7557   3.725   4.234  11.304  3.5013 -1.4844 -0.0643
   56MOL0     H 7558   3.638   4.069  11.680 -1.8209  0.9479 -0.3920
   56MOL0     H 7559   3.330   4.519  11.027  3.2049  5.0553  2.3702
   56MOL0     H 7560   3.332   4.377  10.816  1.7557 -0.0643 -2.0511
   57MOL0     O 7561   2.273   2.635   2.547  0.2133 -0.3081  0.7584
   57MOL0     C 7562   2.257   2.660   2.669 -0.0250 -0.0200 -0.6955
   57MOL0     O 7563   2.158   2.738   2.717  0.4154  0.2015  0.3028
   57MOL0     C 7564   2.081   2.816   2.633 -0.4820 -0.0377  0.0103
   57MOL0     C 7565   1.960   2.762   2.584 -0.3030  1.0825 -0.5371
   57MOL0     C 7566   1.876   2.851   2.520  0.6287  0.3877  0.1973
   57MOL0     C 7567   1.902   2.985   2.504 -0.5811  0.0257 -0.2685
   57MOL0     O 7568   1.794   3.060   2.449 -0.9348  0.0243 -0.4546
   57MOL0     C 7569   1.824   3.203   2.431 -0.1294  0.2324  0.0347
   57MOL0     C 7570   1.688   3.266   2.407 -0.1743 -0.9075  0.5013
   57MOL0     C 7571   1.698   3.416   2.403  1.1828 -0.5007 -0.6484
   57MOL0     C 7572   1.708   3.471   2.551  0.6781  0.0091 -0.1187
   57MOL0     C 7573   1.697   3.620   2.555 -0.3555  0.2269  0.1082
   57MOL0     C 7574   1.689   3.657   2.704  0.6318 -0.0112 -0.3318
   57MOL0     C 7575   1.684   3.806   2.715  0.0369  0.0632  0.0791
   57MOL0     C 7576   1.687   3.852   2.861 -0.4796 -0.4250  0.0424
   57MOL0     N 7577   1.570   3.810   2.936  0.5604  0.3071 -0.4708
   57MOL0     C 7578   1.568   3.715   3.036  0.4720  0.4999 -0.9114
   57MOL0     C 7579   1.432   3.717   3.076 -0.7839  0.0097  0.2026
   57MOL0     C 7580   1.373   3.636   3.179 -0.0753 -0.4024  0.1692
   57MOL0     C 7581   1.370   3.710   3.311  0.3374 -0.2012 -0.7050
   57MOL0     C 7582   1.300   3.632   3.430  0.3027 -0.7112  0.4532
   57MOL0     C 7583   1.381   3.520   3.495 -1.0839 -0.3616 -0.3895
   57MOL0     O 7584   1.378   3.397   3.407 -0.0166 -0.9223 -0.6113
   57MOL0     C 7585   1.438   3.282   3.450  0.3316  0.3824 -0.1102
   57MOL0     C 7586   1.486   3.270   3.587  0.1140  0.9894  0.4941
   57MOL0     C 7587   1.540   3.144   3.632  0.0955 -0.0769 -0.9973
   57MOL0     C 7588   1.601   3.150   3.781  0.6556  0.8857  0.2917
   57MOL0     C 7589   1.535   3.035   3.547 -0.0411  1.4899  0.4814
   57MOL0     C 7590   1.573   2.895   3.599  0.0622 -0.0379  0.2248
   57MOL0     O 7591   1.672   2.834   3.526 -0.7609 -0.2457 -0.1178
   57MOL0     C 7592   1.713   2.711   3.568  0.1296 -0.8643  0.8193
   57MOL0     C 7593   1.732   2.613   3.467 -0.0924 -0.2574  0.3835
   57MOL0     C 7594   1.782   2.483   3.497  0.1176 -0.1520  0.0821
   57MOL0     C 7595   1.820   2.454   3.630  0.0715 -0.7926  0.3105
   57MOL0     O 7596   1.848   2.322   3.665 -0.7434  0.1407  0.6678
   57MOL0     C 7597   1.973   2.303   3.734 -0.6689  0.2504 -0.2583
   57MOL0     C 7598   1.971   2.201   3.857 -0.5763  0.3999 -0.1675
   57MOL0     C 7599   1.871   2.255   3.956 -0.6994 -0.7025 -0.2075
   57MOL0     C 7600   1.906   2.192   4.097 -0.1396 -0.1713  0.7959
   57MOL0     C 7601   1.823   2.254   4.211 -0.2887 -0.1895  1.2975
   57MOL0     C 7602   1.811   2.183   4.343  0.2820  0.2087  1.5507
   57MOL0     C 7603   1.945   2.156   4.412  0.0963 -1.2775  0.1399
   57MOL0     C 7604   1.924   2.171   4.556  0.0299 -0.5206  0.0589
   57MOL0    Cl 7605   1.820   2.043   4.631  0.2275  0.3819  0.5637
   57MOL0     C 7606   1.803   2.551   3.728 -0.9426  0.3811 -0.4665
   57MOL0     C 7607   1.750   2.677   3.698  0.4380 -0.1624 -0.3924
   57MOL0     O 7608   1.526   2.852   3.704  0.0555 -0.5943 -0.3690
   57MOL0     C 7609   1.482   3.051   3.413 -0.4966 -0.5528 -0.2278
   57MOL0     C 7610   1.442   3.170   3.362 -0.0982  0.3754  0.9551
   57MOL0     N 7611   1.369   3.803   2.990 -0.4173 -0.0528  0.1494
   57MOL0     N 7612   1.447   3.870   2.919  0.0628  0.6152  0.8272
   57MOL0     C 7613   2.028   3.038   2.550 -0.0805 -0.0939  0.3850
   57MOL0     C 7614   2.115   2.948   2.614 -0.1953 -0.1460  0.8308
   57MOL0     C 7615   2.344   2.597   2.783 -0.9158 -0.4553 -0.0081
   57MOL0     C 7616   2.311   2.622   2.916 -0.2480 -0.9807 -0.1547
   57MOL0     C 7617   2.369   2.547   3.024  0.5835 -0.5610 -0.3837
   57MOL0     C 7618   2.489   2.482   2.999 -0.4941  1.0939 -0.6654
   57MOL0     O 7619   2.575   2.415   3.085 -0.2604  0.8336 -0.6861
   57MOL0     C 7620   2.532   2.381   3.215  0.6133  0.2878 -0.6788
   57MOL0     C 7621   2.653   2.352   3.298 -0.5128 -0.3470 -0.9601
   57MOL0     C 7622   2.756   2.258   3.242  0.4017  0.0231  0.0385
   57MOL0     C 7623   2.868   2.229   3.348  0.2123 -0.7947 -0.1705
   57MOL0     C 7624   2.954   2.354   3.364  0.4650 -0.3466  0.2360
   57MOL0     C 7625   3.030   2.451   3.369  1.3302  1.1313  0.3405
   57MOL0     C 7626   2.524   2.464   2.865  0.4513  0.1834 -0.0482
   57MOL0     C 7627   2.446   2.511   2.761  1.0157  0.4327 -0.3249
   57MOL0     H 7628   1.940   2.655   2.593  0.0995  1.1772  2.5939
   57MOL0     H 7629   1.779   2.823   2.480 -0.0777 -2.7121  3.5003
   57MOL0     H 7630   1.860   3.254   2.521 -0.1750 -3.3789  2.2949
   57MOL0     H 7631   1.884   3.220   2.341  0.7599 -1.5874  0.2511
   57MOL0     H 7632   1.647   3.233   2.311 -0.0115 -3.3881  1.2105
   57MOL0     H 7633   1.614   3.229   2.478 -2.8824  2.1346 -0.4993
   57MOL0     H 7634   1.787   3.449   2.349 -0.7786  2.0797 -2.5416
   57MOL0     H 7635   1.607   3.462   2.362  0.1599 -0.4212  1.5667
   57MOL0     H 7636   1.610   3.445   2.593 -0.1991 -0.2672 -2.2533
   57MOL0     H 7637   1.792   3.424   2.603  1.0997 -1.5101 -2.0980
   57MOL0     H 7638   1.789   3.661   2.513 -1.0683  0.7573 -0.9762
   57MOL0     H 7639   1.609   3.648   2.498 -0.4304 -2.3468 -1.2050
   57MOL0     H 7640   1.590   3.627   2.739  0.7722  0.6942  0.7054
   57MOL0     H 7641   1.768   3.615   2.767  0.2325  2.1303  1.7537
   57MOL0     H 7642   1.769   3.843   2.657  0.1224 -1.9216 -1.1414
   57MOL0     H 7643   1.589   3.845   2.675  0.8715  0.4718 -1.6153
   57MOL0     H 7644   1.690   3.961   2.860 -2.0512 -0.3544 -1.2504
   57MOL0     H 7645   1.778   3.822   2.914 -1.9343  0.4153  3.2572
   57MOL0     H 7646   1.650   3.666   3.088 -0.9526 -0.3289  0.6697
   57MOL0     H 7647   1.281   3.599   3.133  0.6461 -1.3722 -0.5322
   57MOL0     H 7648   1.426   3.542   3.196  1.9298  0.8348  1.0454
   57MOL0     H 7649   1.305   3.797   3.294  0.9214  1.0181  2.6687
   57MOL0     H 7650   1.472   3.741   3.333  0.4116 -1.0321  0.1976
   57MOL0     H 7651   1.207   3.590   3.392 -0.6084  1.5447  0.0647
   57MOL0     H 7652   1.279   3.708   3.505 -1.1647 -2.1256  1.5547
   57MOL0     H 7653   1.332   3.492   3.589  1.8118 -1.8725  0.8074
   57MOL0     H 7654   1.486   3.549   3.509 -0.3588 -1.5077 -2.8284
   57MOL0     H 7655   1.479   3.361   3.647 -0.2482  1.3602 -0.1001
   57MOL0     H 7656   1.540   3.226   3.829  1.8511  2.8276 -1.1080
   57MOL0     H 7657   1.596   3.062   3.846 -0.2031  1.5878  1.1893
   57MOL0     H 7658   1.704   3.188   3.772  0.6201  0.5627 -1.9786
   57MOL0     H 7659   1.709   2.628   3.362 -0.6798 -1.9654  0.2236
   57MOL0     H 7660   1.808   2.406   3.425  1.2522 -0.4080  0.7457
   57MOL0     H 7661   2.043   2.261   3.662 -1.3319  0.2609 -0.9173
   57MOL0     H 7662   2.012   2.401   3.765  1.5371 -0.1959 -1.4636
   57MOL0     H 7663   1.941   2.104   3.818 -2.7353  1.5645 -1.5968
   57MOL0     H 7664   2.070   2.197   3.905 -3.0770  0.1720  5.8648
   57MOL0     H 7665   1.775   2.211   3.929 -1.0234  0.6560 -1.3795
   57MOL0     H 7666   1.859   2.364   3.954 -1.8679 -0.8334 -1.5592
   57MOL0     H 7667   1.890   2.084   4.086  1.6387 -0.3387 -0.5756
   57MOL0     H 7668   2.012   2.202   4.122  0.5791 -0.3801 -1.7966
   57MOL0     H 7669   1.726   2.277   4.167  1.7784  5.0778 -1.3823
   57MOL0     H 7670   1.869   2.351   4.233 -1.4876  0.8447 -0.4899
   57MOL0     H 7671   1.741   2.237   4.407  0.1269 -0.5131  2.0054
   57MOL0     H 7672   1.760   2.089   4.320 -0.6238  0.9179  0.5886
   57MOL0     H 7673   2.021   2.228   4.378  1.3257 -0.8108  3.5118
   57MOL0     H 7674   1.992   2.062   4.381 -0.0288 -1.1468 -0.4619
   57MOL0     H 7675   1.891   2.275   4.571  3.9010  1.0856 -1.2837
   57MOL0     H 7676   2.019   2.175   4.610 -0.1124  1.1826  0.2664
   57MOL0     H 7677   1.828   2.529   3.831 -3.6411 -0.2449  0.1298
   57MOL0     H 7678   1.727   2.738   3.784  0.9265  0.3672 -0.6354
   57MOL0     H 7679   1.488   2.961   3.353  0.6616 -1.2630  0.8966
   57MOL0     H 7680   1.409   3.185   3.260 -2.7142 -0.3820  1.6030
   57MOL0     H 7681   2.050   3.144   2.558 -0.8466  0.0026  1.5024
   57MOL0     H 7682   2.212   2.973   2.656  1.1740 -0.3291 -1.9626
   57MOL0     H 7683   2.230   2.690   2.939  0.6149  0.0516 -0.1325
   57MOL0     H 7684   2.337   2.565   3.126  2.2902 -2.9036  0.6753
   57MOL0     H 7685   2.487   2.465   3.268  0.1514 -1.2611  1.4885
   57MOL0     H 7686   2.463   2.296   3.211 -2.1485  2.1875  2.1646
   57MOL0     H 7687   2.617   2.300   3.388 -1.8444 -1.3516 -2.0360
   57MOL0     H 7688   2.705   2.443   3.330 -0.6586 -0.0808 -1.4700
   57MOL0     H 7689   2.792   2.301   3.147 -0.4456  2.6995  0.8291
   57MOL0     H 7690   2.711   2.160   3.225  2.9383 -1.4370  1.1140
   57MOL0     H 7691   2.939   2.149   3.325  2.0157  0.9242 -0.9322
   57MOL0     H 7692   2.828   2.208   3.447 -1.7755 -0.4230 -0.8478
   57MOL0     H 7693   3.099   2.527   3.399  2.8169 -0.6038  1.5506
   57MOL0     H 7694   2.601   2.389   2.847 -1.1874 -0.8982 -3.3420
   57MOL0     H 7695   2.474   2.493   2.658 -1.6843  3.1859 -1.7367
   58MOL0     O 7696  10.447   0.279   5.058 -0.3729 -0.6137  1.4938
   58MOL0     C 7697  10.489   0.279   5.174  0.0483 -1.2827 -0.6254
   58MOL0     O 7698  10.401   0.262   5.287 -0.2242  0.1562 -0.1740
   58MOL0     C 7699  10.272   0.223   5.265  0.2762 -0.0617 -0.1009
   58MOL0     C 7700  10.180   0.299   5.190  0.7175 -0.9020 -0.2830
   58MOL0     C 7701  10.046   0.256   5.173  0.6764  0.4038 -0.2424
   58MOL0     C 7702   9.992   0.142   5.237  0.1725 -0.2822 -1.1335
   58MOL0     O 7703   9.860   0.103   5.215 -0.0998  0.6231  1.0258
   58MOL0     C 7704   9.787   0.054   5.324 -0.0256  0.1759  0.1743
   58MOL0     C 7705   9.647   0.008   5.288 -0.1958  0.1061 -1.2350
   58MOL0     C 7706   9.651  -0.116   5.192  0.1121 -0.4302 -1.1307
   58MOL0     C 7707   9.594  -0.244   5.258 -0.5472 -0.1934  0.2462
   58MOL0     C 7708   9.597  -0.364   5.169 -0.8089  0.8060 -0.1504
   58MOL0     C 7709   9.511  -0.474   5.237 -0.0986 -0.6808  0.2227
   58MOL0     C 7710   9.520  -0.619   5.170 -0.5914 -0.3743  0.0764
   58MOL0     C 7711   9.426  -0.631   5.049  0.2545 -0.5597 -0.0302
   58MOL0     N 7712   9.487  -0.732   4.956 -0.0987 -0.2840  0.7120
   58MOL0     C 7713   9.516  -0.866   4.980  0.4627  0.5345  1.2162
   58MOL0     C 7714   9.602  -0.896   4.882 -0.3160 -0.3991  0.4514
   58MOL0     C 7715   9.683  -1.018   4.854  0.0875 -0.1686 -1.0219
   58MOL0     C 7716   9.836  -1.009   4.905  0.7876  0.6027  1.2482
   58MOL0     C 7717   9.922  -1.122   4.841 -0.6756 -0.3177  0.0247
   58MOL0     C 7718  10.072  -1.081   4.864 -0.6426  0.1425  0.5491
   58MOL0     O 7719  10.117  -1.133   4.987  0.3779  0.5736  0.2697
   58MOL0     C 7720  10.245  -1.157   5.021 -0.6007 -0.3762 -0.4825
   58MOL0     C 7721  10.278  -1.236   5.130  0.4105  0.2830 -0.8440
   58MOL0     C 7722  10.418  -1.253   5.170 -1.0881 -0.3766 -0.4020
   58MOL0     C 7723  10.436  -1.340   5.291  0.4514 -0.1745 -0.4452
   58MOL0     C 7724  10.527  -1.202   5.095 -0.1843  0.2090 -0.3611
   58MOL0     C 7725  10.672  -1.216   5.123 -0.4505  0.0858 -0.7209
   58MOL0     O 7726  10.752  -1.174   5.023 -0.2592  0.2707 -0.2740
   58MOL0     C 7727  10.882  -1.181   5.057 -0.7833  0.3515 -0.9082
   58MOL0     C 7728  10.944  -1.090   5.141  0.1666 -0.0292  0.9414
   58MOL0     C 7729  11.082  -1.105   5.150 -0.2010  0.2741 -0.3861
   58MOL0     C 7730  11.154  -1.225   5.099  0.8504 -0.3093  0.1802
   58MOL0     O 7731  11.289  -1.238   5.133  0.2503 -0.0202  0.9625
   58MOL0     C 7732  11.340  -1.371   5.129  0.3090  0.7560  0.4720
   58MOL0     C 7733  11.453  -1.402   5.229  0.1395 -1.0553  0.1574
   58MOL0     C 7734  11.592  -1.389   5.171  0.2455 -0.1277 -0.4907
   58MOL0     C 7735  11.657  -1.522   5.138 -0.3744  0.3327  0.8068
   58MOL0     C 7736  11.808  -1.514   5.151  0.0076 -0.6788 -0.2927
   58MOL0     C 7737  11.869  -1.638   5.095  0.3114 -0.0500 -0.4625
   58MOL0     C 7738  12.015  -1.634   5.128  0.2267 -1.1141  0.1991
   58MOL0     C 7739  12.082  -1.754   5.071  0.4613  0.0751  0.0124
   58MOL0    Cl 7740  12.091  -1.751   4.886  0.0619  0.0800  0.2154
   58MOL0     C 7741  11.079  -1.314   5.018  1.0998 -0.0623  0.2110
   58MOL0     C 7742  10.944  -1.294   5.001 -1.0224  1.3662 -0.3010
   58MOL0     O 7743  10.713  -1.239   5.234 -0.6167  0.2364 -0.1938
   58MOL0     C 7744  10.489  -1.122   4.983  0.6229 -0.9135  0.2242
   58MOL0     C 7745  10.350  -1.094   4.947 -0.5153  0.2655  0.7540
   58MOL0     N 7746   9.628  -0.782   4.810  0.2210  0.1050  0.4170
   58MOL0     N 7747   9.560  -0.678   4.850  0.3329 -0.2890 -0.6778
   58MOL0     C 7748  10.085   0.070   5.319  0.0340  0.8613 -0.1834
   58MOL0     C 7749  10.222   0.108   5.326 -0.7225 -0.1869 -0.7450
   58MOL0     C 7750  10.637   0.299   5.203  0.2834 -0.0683  0.3783
   58MOL0     C 7751  10.740   0.280   5.108  0.5958  0.0469 -0.5914
   58MOL0     C 7752  10.870   0.318   5.143  0.3986  0.5157 -0.0680
   58MOL0     C 7753  10.894   0.375   5.272 -0.1542  0.9981 -0.1319
   58MOL0     O 7754  11.016   0.416   5.316 -0.4373 -0.1057 -0.2266
   58MOL0     C 7755  11.102   0.478   5.221 -0.7707 -0.6687  0.5326
   58MOL0     C 7756  11.216   0.548   5.282 -0.4929 -0.2237 -1.4110
   58MOL0     C 7757  11.310   0.594   5.171  0.7153 -0.5698 -0.6453
   58MOL0     C 7758  11.424   0.670   5.231 -0.4663 -0.3024 -0.2905
   58MOL0     C 7759  11.501   0.733   5.123 -0.0254  0.4071 -0.5810
   58MOL0     C 7760  11.564   0.799   5.050 -0.5827 -0.2232  1.1827
   58MOL0     C 7761  10.799   0.385   5.369 -0.5823  0.6115 -0.3054
   58MOL0     C 7762  10.666   0.350   5.334 -0.9515  0.4905  0.3029
   58MOL0     H 7763  10.210   0.394   5.146  1.4872  0.3061  2.6498
   58MOL0     H 7764   9.979   0.312   5.109 -1.9988 -1.3393  0.8817
   58MOL0     H 7765   9.833  -0.027   5.383 -1.3157  0.7753  2.0842
   58MOL0     H 7766   9.778   0.138   5.393 -1.1473  1.3164 -1.2859
   58MOL0     H 7767   9.586  -0.008   5.377 -1.7695  0.7072 -2.1713
   58MOL0     H 7768   9.600   0.092   5.236 -1.0760  0.0957 -0.4596
   58MOL0     H 7769   9.580  -0.094   5.112 -4.2450  0.2731  2.4883
   58MOL0     H 7770   9.755  -0.141   5.173  0.5580  0.0637  0.4896
   58MOL0     H 7771   9.655  -0.257   5.349 -2.2036  0.4790  1.5073
   58MOL0     H 7772   9.488  -0.228   5.281 -1.2542 -3.6347 -0.1844
   58MOL0     H 7773   9.535  -0.338   5.082  0.4713 -2.3585 -2.2048
   58MOL0     H 7774   9.698  -0.391   5.136 -0.7414  0.9054 -0.0251
   58MOL0     H 7775   9.558  -0.489   5.335 -0.3448 -1.7058  0.2020
   58MOL0     H 7776   9.405  -0.450   5.244 -0.5970 -1.6177 -2.9242
   58MOL0     H 7777   9.624  -0.638   5.141  0.6928 -0.7946  4.2391
   58MOL0     H 7778   9.501  -0.689   5.252 -1.5995  1.3013  1.3389
   58MOL0     H 7779   9.421  -0.532   5.003  0.6000 -1.4985 -2.1915
   58MOL0     H 7780   9.330  -0.663   5.089  0.9924  0.6285  2.9552
   58MOL0     H 7781   9.473  -0.927   5.058 -3.4294  0.8496 -0.4674
   58MOL0     H 7782   9.640  -1.111   4.893  1.8928 -0.3018  0.8374
   58MOL0     H 7783   9.687  -1.018   4.745  0.3209  2.3030 -1.0702
   58MOL0     H 7784   9.855  -1.031   5.010  2.1278 -0.4814  0.8057
   58MOL0     H 7785   9.869  -0.914   4.862 -1.2183  0.4283 -0.8390
   58MOL0     H 7786   9.906  -1.132   4.734 -0.3867 -0.0593 -0.0421
   58MOL0     H 7787   9.899  -1.219   4.887  0.0661 -0.7892 -0.5925
   58MOL0     H 7788  10.080  -0.972   4.873 -0.2903  0.1477  0.1588
   58MOL0     H 7789  10.139  -1.105   4.781 -1.8429  0.8395 -0.6538
   58MOL0     H 7790  10.199  -1.291   5.180  0.7884  0.3578 -0.1596
   58MOL0     H 7791  10.457  -1.441   5.255 -1.3147 -0.5252 -0.5903
   58MOL0     H 7792  10.522  -1.310   5.351  0.3960  1.2868 -1.0481
   58MOL0     H 7793  10.348  -1.345   5.355 -0.2854 -0.3585 -1.4543
   58MOL0     H 7794  10.903  -1.001   5.189  0.9338  0.6943  0.3004
   58MOL0     H 7795  11.140  -1.025   5.194 -1.0839  1.6222 -1.5819
   58MOL0     H 7796  11.257  -1.427   5.174 -2.8379  3.4403 -1.5044
   58MOL0     H 7797  11.371  -1.411   5.032 -1.3487 -0.4039  0.3646
   58MOL0     H 7798  11.436  -1.330   5.309  3.2431 -0.3853  0.3087
   58MOL0     H 7799  11.438  -1.507   5.257  2.4512 -1.6428 -0.6291
   58MOL0     H 7800  11.657  -1.335   5.240 -1.5206  1.4323  0.0113
   58MOL0     H 7801  11.588  -1.328   5.081  1.2609  0.7108  0.0072
   58MOL0     H 7802  11.620  -1.608   5.195 -3.7571  0.1400 -1.3869
   58MOL0     H 7803  11.638  -1.536   5.030  0.0979  0.5999  0.6906
   58MOL0     H 7804  11.828  -1.508   5.259  0.7436  4.8573 -0.4455
   58MOL0     H 7805  11.849  -1.425   5.103 -3.9312 -0.1066 -3.0738
   58MOL0     H 7806  11.832  -1.717   5.162  2.2631  0.4796  1.3459
   58MOL0     H 7807  11.834  -1.655   4.993 -3.3598 -1.3710  0.8339
   58MOL0     H 7808  12.036  -1.626   5.235  1.2506 -3.2840  0.2283
   58MOL0     H 7809  12.058  -1.544   5.084 -2.9802  0.6673  0.4132
   58MOL0     H 7810  12.025  -1.843   5.097  2.1369 -0.6834  1.2817
   58MOL0     H 7811  12.175  -1.789   5.116 -0.8973 -2.1309  1.2508
   58MOL0     H 7812  11.122  -1.411   4.995 -0.2759 -0.7903  0.6233
   58MOL0     H 7813  10.886  -1.374   4.956 -3.4682  2.2231  1.1310
   58MOL0     H 7814  10.564  -1.072   4.922 -0.5250 -0.3726 -0.7690
   58MOL0     H 7815  10.336  -1.017   4.871 -1.0778  0.4965  1.0839
   58MOL0     H 7816  10.051  -0.021   5.366  0.5316 -0.3687 -2.0686
   58MOL0     H 7817  10.298   0.048   5.375  1.3518  1.2528 -2.0677
   58MOL0     H 7818  10.720   0.256   5.004 -0.1606 -0.8841 -0.2426
   58MOL0     H 7819  10.953   0.311   5.073 -1.0865 -1.0530 -1.7884
   58MOL0     H 7820  11.138   0.399   5.154 -2.9923 -1.7406  0.5398
   58MOL0     H 7821  11.048   0.559   5.171  0.9055 -0.6109 -1.3152
   58MOL0     H 7822  11.265   0.491   5.362  0.2960  3.3934  0.9200
   58MOL0     H 7823  11.173   0.633   5.335 -0.2856 -0.1099 -1.4250
   58MOL0     H 7824  11.250   0.649   5.098 -1.9784 -2.1338  0.2580
   58MOL0     H 7825  11.354   0.510   5.116 -0.2855 -2.0063  0.6642
   58MOL0     H 7826  11.496   0.603   5.278 -1.1082  0.3471  1.7458
   58MOL0     H 7827  11.386   0.732   5.312  1.1921  1.4735 -0.7881
   58MOL0     H 7828  11.618   0.862   4.981 -2.4130 -0.0201 -0.1461
   58MOL0     H 7829  10.823   0.429   5.466  0.0371 -1.6254  0.6224
   58MOL0     H 7830  10.591   0.357   5.412  0.8281 -3.6790  2.7019
   59MOL0     O 7831   3.358  11.036   0.189  0.3527  0.5078  0.0601
   59MOL0     C 7832   3.378  11.001   0.308  0.3100  0.2989  0.5229
   59MOL0     O 7833   3.277  10.960   0.397 -0.1037  0.6228  0.1541
   59MOL0     C 7834   3.141  10.965   0.378  0.5259 -0.3273 -0.3951
   59MOL0     C 7835   3.061  10.880   0.459 -0.6995 -0.1426  0.1692
   59MOL0     C 7836   2.923  10.877   0.450  0.1039  0.1843 -0.1005
   59MOL0     C 7837   2.851  10.960   0.361 -0.1928 -0.4939 -0.4793
   59MOL0     O 7838   2.713  10.963   0.370  0.0284 -0.4622  0.0509
   59MOL0     C 7839   2.631  11.022   0.271 -0.1820  1.0951 -0.1533
   59MOL0     C 7840   2.621  11.177   0.268  0.6671  1.2058  0.0928
   59MOL0     C 7841   2.567  11.232   0.136  0.3853  0.3092  0.2894
   59MOL0     C 7842   2.530  11.380   0.152  0.0824  0.2699  0.4227
   59MOL0     C 7843   2.440  11.430   0.046 -0.1273  0.5391  0.3948
   59MOL0     C 7844   2.315  11.343   0.018  0.2065 -0.1518 -0.0559
   59MOL0     C 7845   2.225  11.406  -0.079  0.4974 -0.2462  0.9777
   59MOL0     C 7846   2.078  11.350  -0.088  0.4238  0.1485 -0.6402
   59MOL0     N 7847   1.982  11.437  -0.156  0.1342 -0.3583  0.0823
   59MOL0     C 7848   1.884  11.400  -0.243 -0.0122  0.4289  0.0236
   59MOL0     C 7849   1.832  11.512  -0.285  0.4659  0.3672 -0.2842
   59MOL0     C 7850   1.715  11.527  -0.386 -0.6037 -0.3211 -0.1929
   59MOL0     C 7851   1.729  11.621  -0.511  0.5065  0.1759 -0.2494
   59MOL0     C 7852   1.677  11.758  -0.479  0.7410  0.3107  0.3374
   59MOL0     C 7853   1.677  11.858  -0.602  0.5663 -0.1961  0.4957
   59MOL0     O 7854   1.599  11.802  -0.720 -0.1715 -0.6657 -0.1503
   59MOL0     C 7855   1.466  11.816  -0.709  0.4481  0.2812  0.5348
   59MOL0     C 7856   1.399  11.937  -0.719 -0.6761  0.6057  1.0448
   59MOL0     C 7857   1.259  11.945  -0.707  0.1966 -0.1016  0.7830
   59MOL0     C 7858   1.194  12.082  -0.708 -0.8683  0.0637 -0.0244
   59MOL0     C 7859   1.179  11.820  -0.689 -0.6472  0.2555 -0.2936
   59MOL0     C 7860   1.038  11.812  -0.675  0.4364 -0.4998  1.0090
   59MOL0     O 7861   0.981  11.706  -0.614 -0.4658  0.0364 -0.4713
   59MOL0     C 7862   0.852  11.680  -0.645 -0.2635 -0.4456  0.1044
   59MOL0     C 7863   0.757  11.690  -0.539  0.0745  0.1914 -0.7615
   59MOL0     C 7864   0.618  11.656  -0.571  0.1104  0.3223 -0.0984
   59MOL0     C 7865   0.583  11.615  -0.692 -0.1551 -0.0197 -0.1475
   59MOL0     O 7866   0.452  11.575  -0.710  0.3180 -0.1442 -0.0619
   59MOL0     C 7867   0.393  11.574  -0.839  0.8771 -0.2432  0.0411
   59MOL0     C 7868   0.244  11.543  -0.840  0.2556 -0.3897 -0.2263
   59MOL0     C 7869   0.201  11.400  -0.807  0.4786  0.1503 -0.4575
   59MOL0     C 7870   0.044  11.389  -0.798  0.2366  0.4504  0.1115
   59MOL0     C 7871  -0.016  11.324  -0.674 -0.1627  0.0574 -0.3169
   59MOL0     C 7872  -0.171  11.327  -0.672 -0.5252  0.5535 -0.2510
   59MOL0     C 7873  -0.224  11.223  -0.773  0.4029 -0.4774  0.3439
   59MOL0     C 7874  -0.368  11.167  -0.761 -0.2362 -0.5356 -0.6623
   59MOL0    Cl 7875  -0.488  11.310  -0.750  0.1597  0.6430 -0.4035
   59MOL0     C 7876   0.679  11.610  -0.795 -0.9094  0.2553 -0.1330
   59MOL0     C 7877   0.815  11.643  -0.772 -0.8057 -0.7142  0.5012
   59MOL0     O 7878   0.976  11.906  -0.720 -0.1311 -0.3059  0.2886
   59MOL0     C 7879   1.255  11.703  -0.689  0.2287  0.3958  0.5116
   59MOL0     C 7880   1.390  11.706  -0.694 -0.8244  0.1188  0.3828
   59MOL0     N 7881   1.895  11.619  -0.221 -0.1404  0.0505 -0.3433
   59MOL0     N 7882   1.997  11.568  -0.158  0.7880  0.3546  0.8182
   59MOL0     C 7883   2.930  11.037   0.274 -0.4180  1.0985 -0.0074
   59MOL0     C 7884   3.066  11.032   0.277 -0.3741  0.4185  0.5128
   59MOL0     C 7885   3.515  10.996   0.368  0.8814  0.4915  0.5587
   59MOL0     C 7886   3.529  10.946   0.499 -0.5717  0.1626 -0.1043
   59MOL0     C 7887   3.649  10.945   0.555  0.0845 -0.1109 -0.2375
   59MOL0     C 7888   3.759  10.969   0.471 -0.9957  0.4686  0.0290
   59MOL0     O 7889   3.890  10.951   0.513  0.8535  0.1189  0.6097
   59MOL0     C 7890   3.920  10.855   0.620 -0.6605 -0.3520 -0.1697
   59MOL0     C 7891   4.063  10.799   0.601 -0.3922  0.2088 -0.3326
   59MOL0     C 7892   4.180  10.903   0.585  0.2560  0.8206 -0.1656
   59MOL0     C 7893   4.221  10.969   0.717 -0.3549 -0.3069  0.4751
   59MOL0     C 7894   4.297  10.880   0.806 -0.2585 -0.4821 -0.4041
   59MOL0     C 7895   4.356  10.803   0.878 -0.0118 -0.0213  0.3170
   59MOL0     C 7896   3.750  11.016   0.346  0.4067  0.3534  0.9331
   59MOL0     C 7897   3.616  11.033   0.298 -1.0146  0.5998  0.6246
   59MOL0     H 7898   3.111  10.809   0.523  0.9808  0.4162 -0.4543
   59MOL0     H 7899   2.859  10.804   0.498 -0.9976 -1.5650 -3.8895
   59MOL0     H 7900   2.669  10.987   0.175  0.8979 -1.6831  1.1715
   59MOL0     H 7901   2.529  10.982   0.271  0.1004  0.3413  0.4934
   59MOL0     H 7902   2.555  11.210   0.349 -0.3565  0.4802 -0.4106
   59MOL0     H 7903   2.721  11.212   0.292  1.1913  0.0880 -0.4028
   59MOL0     H 7904   2.627  11.219   0.046  0.1365 -0.7572  0.2613
   59MOL0     H 7905   2.482  11.164   0.126  0.8940 -0.3985  0.6910
   59MOL0     H 7906   2.484  11.392   0.250 -1.0783 -0.7709  0.0304
   59MOL0     H 7907   2.626  11.434   0.149  1.5480 -2.1934 -2.4296
   59MOL0     H 7908   2.418  11.531   0.080 -1.7708 -0.3288  2.0590
   59MOL0     H 7909   2.507  11.436  -0.041  2.3904 -0.4321  2.1430
   59MOL0     H 7910   2.354  11.249  -0.022 -0.9052 -0.9323  0.6251
   59MOL0     H 7911   2.260  11.337   0.113 -0.3159  0.2437 -0.3312
   59MOL0     H 7912   2.212  11.511  -0.052 -2.2126 -0.0679 -0.7436
   59MOL0     H 7913   2.270  11.396  -0.179  1.8677 -2.1360  1.7125
   59MOL0     H 7914   2.024  11.340   0.007 -3.5308  1.0317 -2.5878
   59MOL0     H 7915   2.078  11.254  -0.140  1.0168  0.9154 -2.0939
   59MOL0     H 7916   1.851  11.300  -0.269 -0.1172  0.0217  1.5757
   59MOL0     H 7917   1.708  11.432  -0.440  1.2497  1.0966 -3.2057
   59MOL0     H 7918   1.625  11.556  -0.330  1.3953  1.5811  2.2146
   59MOL0     H 7919   1.693  11.574  -0.602  1.1576  0.4245 -0.6428
   59MOL0     H 7920   1.832  11.627  -0.545 -0.1727 -1.7977 -2.9922
   59MOL0     H 7921   1.739  11.799  -0.399 -1.7726 -0.9180  3.0821
   59MOL0     H 7922   1.573  11.742  -0.450  1.2476 -1.9881  1.1487
   59MOL0     H 7923   1.784  11.871  -0.622  1.0363  2.9779  3.7991
   59MOL0     H 7924   1.632  11.953  -0.573 -0.9003  0.1197 -2.5372
   59MOL0     H 7925   1.455  12.028  -0.739 -1.1562  0.8029  0.5521
   59MOL0     H 7926   1.115  12.086  -0.784  0.7599 -1.8055 -1.9600
   59MOL0     H 7927   1.154  12.096  -0.607  1.3441  0.6988  0.8265
   59MOL0     H 7928   1.276  12.153  -0.721  0.8506 -1.6582  0.8629
   59MOL0     H 7929   0.794  11.732  -0.446  0.1171  0.9392 -1.1121
   59MOL0     H 7930   0.541  11.650  -0.495  2.0708  0.1583  1.9611
   59MOL0     H 7931   0.408  11.660  -0.906 -1.4559 -1.0018 -1.5831
   59MOL0     H 7932   0.445  11.492  -0.890  0.2120 -0.7479  0.1583
   59MOL0     H 7933   0.209  11.599  -0.753  2.9398 -2.3879  2.3531
   59MOL0     H 7934   0.203  11.579  -0.935 -1.2716 -1.1204  0.1180
   59MOL0     H 7935   0.235  11.369  -0.708 -0.4808 -0.5989 -0.3461
   59MOL0     H 7936   0.246  11.334  -0.881  1.2377 -0.2821  0.3770
   59MOL0     H 7937   0.005  11.491  -0.801  2.0962  1.3713  2.9051
   59MOL0     H 7938   0.012  11.337  -0.888  0.5696 -0.8352  0.7205
   59MOL0     H 7939   0.018  11.379  -0.586  1.2399 -2.2599  0.6924
   59MOL0     H 7940   0.019  11.223  -0.651 -1.7854  0.2175  3.7652
   59MOL0     H 7941  -0.219  11.313  -0.575 -1.1455 -0.0195 -0.6339
   59MOL0     H 7942  -0.193  11.430  -0.704  2.0193  0.4666 -2.7474
   59MOL0     H 7943  -0.158  11.137  -0.790  3.1857  1.5710  0.0014
   59MOL0     H 7944  -0.211  11.268  -0.872  3.5135 -0.3861  0.7034
   59MOL0     H 7945  -0.360  11.103  -0.672  0.4935  4.1138  3.0076
   59MOL0     H 7946  -0.395  11.106  -0.848  0.1598 -2.8398  0.7335
   59MOL0     H 7947   0.661  11.567  -0.893  2.0169  2.2025 -1.6647
   59MOL0     H 7948   0.887  11.639  -0.854 -1.3322  0.1776 -0.0118
   59MOL0     H 7949   1.203  11.608  -0.679 -0.8484  0.8807 -0.2166
   59MOL0     H 7950   1.443  11.611  -0.697 -1.6457 -0.3320 -0.5930
   59MOL0     H 7951   2.885  11.092   0.192 -3.3269 -0.4419  0.4130
   59MOL0     H 7952   3.114  11.099   0.206  1.2600  1.8753  2.8520
   59MOL0     H 7953   3.443  10.919   0.560  0.4013 -0.0715  1.2277
   59MOL0     H 7954   3.645  10.914   0.659 -1.8883 -3.4309 -1.1499
   59MOL0     H 7955   3.918  10.901   0.719  0.3163  1.8159 -1.1024
   59MOL0     H 7956   3.845  10.775   0.623 -2.1761  1.0524  1.3710
   59MOL0     H 7957   4.065  10.736   0.511  0.9815  1.0197 -0.9005
   59MOL0     H 7958   4.084  10.737   0.689 -1.3062  0.3331 -0.0147
   59MOL0     H 7959   4.148  10.971   0.505 -0.3692 -1.3993 -1.9165
   59MOL0     H 7960   4.268  10.851   0.546  0.0512  0.1160  0.2846
   59MOL0     H 7961   4.126  10.980   0.771 -0.3844  0.2619  0.3102
   59MOL0     H 7962   4.280  11.056   0.690 -0.4844 -0.4715 -0.3854
   59MOL0     H 7963   4.405  10.738   0.947  3.5276 -0.9747 -2.7500
   59MOL0     H 7964   3.839  11.025   0.284  0.6188  0.0420  1.1851
   59MOL0     H 7965   3.608  11.060   0.194  0.1311 -0.8222  0.1404
   60MOL0     O 7966   8.086   5.412   2.449  0.0701  0.5322 -0.3527
   60MOL0     C 7967   8.133   5.474   2.540  0.2785  0.6738 -0.5696
   60MOL0     O 7968   8.056   5.514   2.648  0.2028 -0.3049 -0.0787
   60MOL0     C 7969   7.919   5.500   2.636  0.6558  0.4517  0.2947
   60MOL0     C 7970   7.848   5.620   2.656 -0.2683  0.3222 -0.1887
   60MOL0     C 7971   7.711   5.622   2.647 -0.3850 -0.0583 -0.1339
   60MOL0     C 7972   7.647   5.503   2.622 -0.6318  0.2671 -0.0820
   60MOL0     O 7973   7.512   5.504   2.615 -0.2162  0.0931 -0.1108
   60MOL0     C 7974   7.449   5.433   2.510 -0.2990  0.1489 -0.2148
   60MOL0     C 7975   7.492   5.480   2.363 -0.3239 -0.6210 -0.2558
   60MOL0     C 7976   7.455   5.628   2.326  0.5968  1.1860  0.1727
   60MOL0     C 7977   7.312   5.674   2.332  0.7402 -0.0820 -0.8991
   60MOL0     C 7978   7.268   5.802   2.257  0.2751 -0.1723  0.1471
   60MOL0     C 7979   7.331   5.931   2.322  0.0385  0.2729  0.1875
   60MOL0     C 7980   7.291   5.953   2.471 -0.4281  0.5744 -0.0340
   60MOL0     C 7981   7.409   5.908   2.565  0.7075  0.3805  0.1598
   60MOL0     N 7982   7.530   5.990   2.556  0.2532 -0.7737 -0.4262
   60MOL0     C 7983   7.527   6.129   2.526 -0.1196  0.4682  0.4459
   60MOL0     C 7984   7.653   6.172   2.510 -0.3540  0.3013  0.5019
   60MOL0     C 7985   7.698   6.316   2.488  0.5150  0.3839  0.1632
   60MOL0     C 7986   7.674   6.369   2.346 -0.1248 -0.5847 -0.8663
   60MOL0     C 7987   7.550   6.338   2.260  0.2541  0.6501 -0.8884
   60MOL0     C 7988   7.563   6.428   2.138  0.1890  0.2035 -0.1836
   60MOL0     O 7989   7.435   6.438   2.071 -1.2862 -0.0018 -0.0394
   60MOL0     C 7990   7.338   6.527   2.103 -0.4472 -0.1755  0.9188
   60MOL0     C 7991   7.335   6.634   2.190  0.1356  0.1346  1.0659
   60MOL0     C 7992   7.222   6.697   2.232 -0.0667  0.1075  0.2801
   60MOL0     C 7993   7.220   6.786   2.355 -1.0313  0.5607  0.0381
   60MOL0     C 7994   7.100   6.674   2.159 -0.1820 -0.3091  0.8421
   60MOL0     C 7995   6.972   6.738   2.193  0.6959 -0.9375  0.0417
   60MOL0     O 7996   6.904   6.769   2.078 -0.2144 -0.0668 -0.3143
   60MOL0     C 7997   6.776   6.816   2.082 -0.0173  0.2819 -0.4501
   60MOL0     C 7998   6.670   6.733   2.054  0.6379  0.1021  0.2768
   60MOL0     C 7999   6.542   6.788   2.055  0.3702  0.2183  0.4082
   60MOL0     C 8000   6.508   6.916   2.108 -0.2433 -0.0624  0.2715
   60MOL0     O 8001   6.380   6.966   2.098  0.1463 -0.1364 -0.6338
   60MOL0     C 8002   6.350   7.106   2.132 -1.2271 -0.1224 -0.0352
   60MOL0     C 8003   6.201   7.125   2.167 -0.4333  1.1381  0.2533
   60MOL0     C 8004   6.107   7.120   2.042  0.4095 -0.1464 -1.0001
   60MOL0     C 8005   6.054   7.254   1.996  0.8407 -0.0915 -0.0688
   60MOL0     C 8006   5.940   7.266   1.895  0.4465  0.1930  1.1314
   60MOL0     C 8007   5.974   7.201   1.761 -0.6864  0.1885 -0.3229
   60MOL0     C 8008   5.878   7.243   1.656  0.5426  0.2673 -0.1081
   60MOL0     C 8009   5.895   7.189   1.520  0.2782  0.2818 -0.5473
   60MOL0    Cl 8010   6.010   7.297   1.417 -0.0734 -0.3251 -0.0892
   60MOL0     C 8011   6.620   6.996   2.150  0.5187 -0.1347 -0.1929
   60MOL0     C 8012   6.749   6.946   2.128 -0.5853  0.5316 -0.2128
   60MOL0     O 8013   6.933   6.747   2.307 -0.0907 -0.1191  0.1566
   60MOL0     C 8014   7.100   6.573   2.061  0.2080  0.1099 -0.2710
   60MOL0     C 8015   7.214   6.495   2.042 -0.2132 -0.9858  0.6627
   60MOL0     N 8016   7.725   6.054   2.521 -0.7668  0.8449  0.7676
   60MOL0     N 8017   7.656   5.948   2.547  0.0410  0.9898 -0.1201
   60MOL0     C 8018   7.718   5.380   2.617  0.0607  0.5703 -0.2289
   60MOL0     C 8019   7.851   5.375   2.623 -0.2691 -0.0426 -0.1143
   60MOL0     C 8020   8.273   5.517   2.534  0.2835 -0.2942 -0.1431
   60MOL0     C 8021   8.347   5.504   2.416 -0.5257  0.4401  0.7072
   60MOL0     C 8022   8.484   5.544   2.402  0.9442 -0.5445 -0.0838
   60MOL0     C 8023   8.552   5.583   2.520 -0.0945 -0.0714  0.4028
   60MOL0     O 8024   8.686   5.609   2.515  1.0339 -0.4763  0.6245
   60MOL0     C 8025   8.743   5.702   2.610  0.4161 -0.9571 -0.1906
   60MOL0     C 8026   8.883   5.745   2.564  1.2095  0.0056 -0.1408
   60MOL0     C 8027   8.933   5.850   2.665  0.0365  0.5175  0.0672
   60MOL0     C 8028   9.031   5.938   2.593  0.2913 -0.4117  0.8976
   60MOL0     C 8029   9.089   6.050   2.683 -0.0591  0.7093 -1.0785
   60MOL0     C 8030   9.137   6.126   2.766 -0.4928  0.5899  0.3595
   60MOL0     C 8031   8.470   5.597   2.637 -0.2981  0.6690  0.3089
   60MOL0     C 8032   8.336   5.558   2.654 -0.4933 -0.0466 -0.5477
   60MOL0     H 8033   7.906   5.709   2.676  1.6854 -1.1308  0.9014
   60MOL0     H 8034   7.646   5.708   2.662 -0.6326 -0.4074  0.9030
   60MOL0     H 8035   7.476   5.327   2.518 -0.4333  0.1183 -0.1739
   60MOL0     H 8036   7.341   5.434   2.526 -1.1501 -0.1847 -4.6690
   60MOL0     H 8037   7.600   5.464   2.357 -0.4825 -1.3971 -1.3170
   60MOL0     H 8038   7.460   5.420   2.277 -1.1878  0.6360 -0.8570
   60MOL0     H 8039   7.520   5.693   2.385  1.4815  0.9435 -0.5174
   60MOL0     H 8040   7.495   5.644   2.226 -0.0144  2.7520  0.1531
   60MOL0     H 8041   7.263   5.586   2.288 -0.4933 -0.2987  0.8551
   60MOL0     H 8042   7.292   5.672   2.439  1.6432  0.2334 -0.7115
   60MOL0     H 8043   7.315   5.789   2.159  2.4214 -0.6367  1.1778
   60MOL0     H 8044   7.160   5.819   2.254  0.8216  4.3580 -1.2219
   60MOL0     H 8045   7.438   5.930   2.301 -0.2775 -0.3641 -1.5787
   60MOL0     H 8046   7.293   6.017   2.266  0.6142  0.0795 -0.5157
   60MOL0     H 8047   7.259   6.054   2.498  0.5351  0.4867  1.5693
   60MOL0     H 8048   7.202   5.895   2.498 -0.0746  0.6504  1.3541
   60MOL0     H 8049   7.447   5.811   2.533  0.7112 -0.1761  1.7607
   60MOL0     H 8050   7.371   5.903   2.667 -0.7691  1.8192 -0.2699
   60MOL0     H 8051   7.445   6.200   2.522 -1.2182 -0.8147 -1.5340
   60MOL0     H 8052   7.631   6.366   2.558 -1.4201 -2.1225  0.2543
   60MOL0     H 8053   7.804   6.330   2.512  0.3116  0.9191  0.7524
   60MOL0     H 8054   7.746   6.332   2.272 -0.6894  1.2621 -2.4337
   60MOL0     H 8055   7.692   6.476   2.353 -2.1828 -0.1100 -2.1253
   60MOL0     H 8056   7.452   6.354   2.306  0.2211 -1.8441  0.0658
   60MOL0     H 8057   7.551   6.234   2.225 -4.2646 -0.4331  1.3497
   60MOL0     H 8058   7.641   6.388   2.072  0.9633  0.2530  0.6835
   60MOL0     H 8059   7.594   6.527   2.171 -2.5117  0.0996  3.2175
   60MOL0     H 8060   7.428   6.659   2.239  0.3710  1.8179 -0.1345
   60MOL0     H 8061   7.202   6.889   2.323  0.7212  0.9612  0.2239
   60MOL0     H 8062   7.144   6.765   2.432 -0.0032 -0.4158  0.8188
   60MOL0     H 8063   7.320   6.793   2.398 -1.4521 -0.3978  1.2396
   60MOL0     H 8064   6.690   6.635   2.012  1.2096 -0.6234  2.1248
   60MOL0     H 8065   6.461   6.731   2.010 -0.1719  1.3850 -0.1397
   60MOL0     H 8066   6.406   7.128   2.223  1.8865 -0.5462 -1.7153
   60MOL0     H 8067   6.397   7.181   2.068  0.5634 -0.9111  0.2985
   60MOL0     H 8068   6.185   7.035   2.226 -2.4120  0.7454 -0.7765
   60MOL0     H 8069   6.178   7.220   2.218 -0.8391  1.8213 -1.1464
   60MOL0     H 8070   6.019   7.062   2.075  1.7886 -1.4382  0.5806
   60MOL0     H 8071   6.155   7.074   1.955  0.7573 -0.2685 -0.7436
   60MOL0     H 8072   6.008   7.313   2.076 -2.1225 -1.0899 -0.8885
   60MOL0     H 8073   6.137   7.314   1.957 -0.2576  0.9263 -0.9109
   60MOL0     H 8074   5.913   7.370   1.873  0.1961  0.0755  0.8761
   60MOL0     H 8075   5.847   7.230   1.939  0.6983 -0.4040  1.1868
   60MOL0     H 8076   6.077   7.224   1.733 -0.5740 -0.7315 -0.7295
   60MOL0     H 8077   5.964   7.092   1.765 -2.3739  0.2860 -1.1328
   60MOL0     H 8078   5.864   7.351   1.662 -1.8002  0.2106 -2.5162
   60MOL0     H 8079   5.783   7.200   1.689 -0.2808  0.6767 -1.8158
   60MOL0     H 8080   5.794   7.190   1.478  0.1273  2.2442 -0.2582
   60MOL0     H 8081   5.925   7.084   1.517 -0.2190  0.1269 -0.2904
   60MOL0     H 8082   6.607   7.096   2.191 -0.3280  0.1724 -1.1800
   60MOL0     H 8083   6.833   7.002   2.168 -0.1369  0.0966 -0.5276
   60MOL0     H 8084   7.005   6.560   2.010 -0.7685  3.1999  0.5236
   60MOL0     H 8085   7.217   6.415   1.970  2.1695  1.5120 -2.2725
   60MOL0     H 8086   7.665   5.286   2.608  0.9947 -0.0127  0.2029
   60MOL0     H 8087   7.904   5.280   2.617  0.7305  0.2642  2.4961
   60MOL0     H 8088   8.304   5.470   2.323  0.0155  0.4064  0.4677
   60MOL0     H 8089   8.538   5.552   2.309  0.2089 -0.0368 -0.4694
   60MOL0     H 8090   8.680   5.791   2.621 -0.1841 -1.6082  2.0991
   60MOL0     H 8091   8.743   5.660   2.711 -0.7552 -1.6241 -0.4491
   60MOL0     H 8092   8.879   5.787   2.463  1.5968  2.3777  0.7923
   60MOL0     H 8093   8.950   5.659   2.558  0.9450 -0.3649  1.6780
   60MOL0     H 8094   8.976   5.799   2.751  1.6118  0.0866 -0.9430
   60MOL0     H 8095   8.850   5.914   2.699  0.8500 -0.2001  3.9086
   60MOL0     H 8096   8.995   5.980   2.499  3.2985 -0.0427 -0.2110
   60MOL0     H 8097   9.119   5.885   2.555  0.3594  0.3945 -0.1339
   60MOL0     H 8098   9.200   6.191   2.825 -0.1110  0.1587  0.4308
   60MOL0     H 8099   8.521   5.636   2.724 -0.9588  0.3308  0.8584
   60MOL0     H 8100   8.295   5.558   2.754  2.5282  0.5018  0.7966
   61MOL0     O 8101   3.667   7.517  11.259 -0.6049  0.0071 -0.1473
   61MOL0     C 8102   3.705   7.626  11.218  0.0669  0.7216  0.3679
   61MOL0     O 8103   3.620   7.731  11.189  0.5858  0.7441  0.1101
   61MOL0     C 8104   3.485   7.725  11.232 -0.3378  0.5856 -0.0639
   61MOL0     C 8105   3.390   7.786  11.155 -0.0269  0.5773 -0.6069
   61MOL0     C 8106   3.261   7.792  11.191 -0.9783 -0.2301 -0.3055
   61MOL0     C 8107   3.220   7.745  11.318 -0.5679 -0.2356 -0.2463
   61MOL0     O 8108   3.079   7.767  11.346 -0.3507  0.6667  0.1521
   61MOL0     C 8109   3.019   7.667  11.433  0.2080 -0.2968  0.5112
   61MOL0     C 8110   2.875   7.685  11.443  0.4787 -0.1442 -1.1269
   61MOL0     C 8111   2.823   7.816  11.497 -0.6156  0.7841 -0.1143
   61MOL0     C 8112   2.673   7.827  11.503  0.6571  0.1714 -0.1442
   61MOL0     C 8113   2.628   7.957  11.563 -0.2420  0.0078 -1.0991
   61MOL0     C 8114   2.478   7.974  11.595 -0.2034 -0.1808 -0.1098
   61MOL0     C 8115   2.396   7.983  11.467  0.0018 -0.9070 -0.4217
   61MOL0     C 8116   2.259   8.043  11.496 -0.2362 -0.3128  0.1614
   61MOL0     N 8117   2.164   7.947  11.565  0.3506  0.6238  0.0660
   61MOL0     C 8118   2.109   7.837  11.507 -0.8360  0.6827 -0.2435
   61MOL0     C 8119   2.024   7.785  11.604 -0.2236 -0.4373  0.4323
   61MOL0     C 8120   1.929   7.665  11.597 -1.1159  0.8730  0.3716
   61MOL0     C 8121   1.794   7.709  11.562 -0.1526 -1.2983  0.7734
   61MOL0     C 8122   1.687   7.603  11.598  0.5327  1.6108 -0.3764
   61MOL0     C 8123   1.553   7.672  11.605 -0.9570 -0.1926  1.1588
   61MOL0     O 8124   1.446   7.584  11.635  0.3072  0.7682 -0.0490
   61MOL0     C 8125   1.315   7.627  11.614 -0.6951  0.3218  0.2712
   61MOL0     C 8126   1.216   7.530  11.630  0.2376 -0.3341 -0.0789
   61MOL0     C 8127   1.078   7.564  11.596 -0.6459 -0.0483  0.1470
   61MOL0     C 8128   0.969   7.453  11.598 -0.6804 -0.7649 -0.7756
   61MOL0     C 8129   1.042   7.696  11.559  1.1350 -0.3909 -0.0398
   61MOL0     C 8130   0.918   7.756  11.516 -0.8912  0.1555  0.2967
   61MOL0     O 8131   0.917   7.876  11.458  0.3108  0.1794 -0.2367
   61MOL0     C 8132   0.806   7.960  11.473 -0.2085 -0.5604 -0.1337
   61MOL0     C 8133   0.716   7.985  11.373  0.4232  0.9986  0.0375
   61MOL0     C 8134   0.594   8.068  11.391 -0.7471 -0.2911 -0.2824
   61MOL0     C 8135   0.590   8.138  11.510 -0.2160 -0.1288 -0.7065
   61MOL0     O 8136   0.494   8.225  11.531 -0.2372 -0.1936  0.1705
   61MOL0     C 8137   0.363   8.175  11.557 -0.1312  0.1304 -0.4139
   61MOL0     C 8138   0.263   8.282  11.595  0.4843  0.7843  0.4094
   61MOL0     C 8139   0.247   8.386  11.478 -0.3780  0.1401  0.1237
   61MOL0     C 8140   0.168   8.511  11.522 -0.1094  0.1593  1.2397
   61MOL0     C 8141   0.137   8.605  11.397 -0.1687 -0.4042  0.3948
   61MOL0     C 8142   0.255   8.670  11.313 -0.0406 -0.5062 -0.2163
   61MOL0     C 8143   0.326   8.767  11.403 -0.0165 -0.1351 -0.3464
   61MOL0     C 8144   0.442   8.819  11.314  0.3766 -0.3362  0.3685
   61MOL0    Cl 8145   0.381   8.925  11.182  0.0973 -0.0418  0.0007
   61MOL0     C 8146   0.680   8.110  11.612 -0.6193  0.1918  0.4885
   61MOL0     C 8147   0.790   8.030  11.594  0.1857  0.1949  0.0248
   61MOL0     O 8148   0.824   7.688  11.541 -0.0598 -0.1150 -0.5292
   61MOL0     C 8149   1.145   7.790  11.554  0.5421  0.4177  0.3516
   61MOL0     C 8150   1.279   7.758  11.574 -0.0871  0.2362 -0.7388
   61MOL0     N 8151   2.040   7.868  11.719 -0.5340  0.2787  0.6238
   61MOL0     N 8152   2.132   7.956  11.694  0.5436 -0.0579  0.1380
   61MOL0     C 8153   3.319   7.690  11.405  0.2589 -0.1638  0.4835
   61MOL0     C 8154   3.441   7.669  11.353  0.2301 -0.0416 -0.1183
   61MOL0     C 8155   3.841   7.657  11.221  0.1664  0.1633  0.7457
   61MOL0     C 8156   3.887   7.755  11.133 -0.4109  0.3341 -0.1893
   61MOL0     C 8157   4.022   7.794  11.142 -0.2603 -0.4153 -0.1928
   61MOL0     C 8158   4.111   7.748  11.245  0.2528  0.2487 -0.4202
   61MOL0     O 8159   4.241   7.796  11.247 -0.1909 -0.4603 -0.1440
   61MOL0     C 8160   4.318   7.764  11.368  0.4453 -0.6292 -0.3033
   61MOL0     C 8161   4.441   7.853  11.365 -0.1727  0.6334 -0.9315
   61MOL0     C 8162   4.556   7.782  11.291 -0.8617 -0.3767 -0.0109
   61MOL0     C 8163   4.687   7.861  11.271 -0.2911  0.6696  0.1916
   61MOL0     C 8164   4.769   7.848  11.397  0.1750 -0.6061 -0.5324
   61MOL0     C 8165   4.823   7.857  11.508  0.1652  0.2102  0.5218
   61MOL0     C 8166   4.064   7.646  11.324  0.4948  0.4973  0.2806
   61MOL0     C 8167   3.925   7.603  11.314 -0.3322  0.6482  0.0379
   61MOL0     H 8168   3.432   7.835  11.068  0.5055 -0.1999 -0.7969
   61MOL0     H 8169   3.190   7.855  11.140 -2.0308 -1.8990 -0.9997
   61MOL0     H 8170   3.050   7.570  11.393  0.2388  0.6583 -1.9472
   61MOL0     H 8171   3.068   7.689  11.529 -3.9338  1.5560  2.4500
   61MOL0     H 8172   2.830   7.675  11.344 -0.6499  1.0271 -0.7527
   61MOL0     H 8173   2.833   7.608  11.508  0.3728  0.5660 -0.3376
   61MOL0     H 8174   2.867   7.830  11.596 -0.7976  0.4452  0.0178
   61MOL0     H 8175   2.853   7.887  11.419 -0.4270  0.0654 -0.7048
   61MOL0     H 8176   2.631   7.822  11.402 -1.3638  1.9803  0.5201
   61MOL0     H 8177   2.626   7.746  11.560  0.6233  1.1021  1.2041
   61MOL0     H 8178   2.671   7.970  11.663  1.6900 -0.5753 -1.8226
   61MOL0     H 8179   2.675   8.040  11.511  0.3764  2.1122  2.4799
   61MOL0     H 8180   2.447   7.888  11.655 -1.3088 -0.1744 -0.6439
   61MOL0     H 8181   2.469   8.068  11.650  0.9650  1.1479 -2.0704
   61MOL0     H 8182   2.446   8.049  11.396 -2.5921 -0.5035 -2.0019
   61MOL0     H 8183   2.375   7.889  11.416 -3.7649 -1.0962  1.1584
   61MOL0     H 8184   2.212   8.058  11.398  2.6727  1.5513 -1.0657
   61MOL0     H 8185   2.276   8.137  11.549  1.5834 -0.3099 -0.3460
   61MOL0     H 8186   2.123   7.797  11.407 -3.5980  0.5282 -0.6337
   61MOL0     H 8187   1.947   7.597  11.512 -2.3268  2.5089 -1.2632
   61MOL0     H 8188   1.940   7.612  11.692  2.8614 -1.7782 -1.2529
   61MOL0     H 8189   1.793   7.733  11.455 -1.2373  1.1499  1.2596
   61MOL0     H 8190   1.779   7.799  11.622 -0.4082 -0.4085 -0.5603
   61MOL0     H 8191   1.703   7.552  11.693 -1.5241  1.6152  0.0044
   61MOL0     H 8192   1.700   7.520  11.528  4.0262  1.0579  0.7281
   61MOL0     H 8193   1.533   7.712  11.506  0.8571 -0.9838  0.4289
   61MOL0     H 8194   1.556   7.748  11.684 -1.0658 -2.6948  3.7461
   61MOL0     H 8195   1.231   7.423  11.641  1.7469 -0.0779  0.5192
   61MOL0     H 8196   0.930   7.442  11.496  0.2481  2.8768 -1.6602
   61MOL0     H 8197   1.012   7.361  11.637 -1.2318 -0.7061  0.0021
   61MOL0     H 8198   0.878   7.475  11.656 -1.6330  0.7453 -2.7021
   61MOL0     H 8199   0.738   7.920  11.289  0.0221  0.7883  0.0916
   61MOL0     H 8200   0.521   8.085  11.312 -1.7290 -0.9022  0.4715
   61MOL0     H 8201   0.318   8.121  11.472  0.9550 -1.3012 -0.1209
   61MOL0     H 8202   0.367   8.111  11.646  2.2624 -0.7420 -1.0765
   61MOL0     H 8203   0.166   8.236  11.614  0.3951  1.2765  1.1773
   61MOL0     H 8204   0.293   8.340  11.682 -2.0367  0.2278  1.7384
   61MOL0     H 8205   0.190   8.331  11.402 -3.7304  0.3652  2.2714
   61MOL0     H 8206   0.340   8.423  11.434 -1.0108 -1.6651 -3.0900
   61MOL0     H 8207   0.078   8.473  11.570 -0.7499 -1.6955 -1.2408
   61MOL0     H 8208   0.218   8.562  11.605  2.4912 -0.6879  0.2890
   61MOL0     H 8209   0.063   8.681  11.424  1.7743  2.6443 -2.1644
   61MOL0     H 8210   0.086   8.536  11.329  2.0893 -0.7270 -1.0853
   61MOL0     H 8211   0.327   8.600  11.271  3.3786  2.8046 -0.3953
   61MOL0     H 8212   0.201   8.719  11.231 -2.4117 -0.3489  1.3439
   61MOL0     H 8213   0.372   8.709  11.484 -0.1132 -4.6856 -3.1635
   61MOL0     H 8214   0.253   8.842  11.432 -0.8387 -0.9449 -0.2781
   61MOL0     H 8215   0.502   8.736  11.276  0.9101  0.1002  0.2436
   61MOL0     H 8216   0.503   8.879  11.383 -0.9152  0.2258  1.0568
   61MOL0     H 8217   0.678   8.168  11.704  0.1681 -1.0177  1.2977
   61MOL0     H 8218   0.871   8.020  11.666 -0.1565 -1.7247  0.1952
   61MOL0     H 8219   1.127   7.896  11.535  0.8031  0.3773 -0.1214
   61MOL0     H 8220   1.349   7.839  11.553  0.2496  0.6968  1.8160
   61MOL0     H 8221   3.290   7.643  11.498  1.6752 -5.5960 -1.4229
   61MOL0     H 8222   3.526   7.630  11.408 -0.1413  1.6852  1.7886
   61MOL0     H 8223   3.831   7.798  11.051  0.1538  0.8798 -0.2917
   61MOL0     H 8224   4.060   7.864  11.069  3.4202 -1.8790  0.1276
   61MOL0     H 8225   4.263   7.768  11.463 -0.9724 -0.4569 -1.1116
   61MOL0     H 8226   4.339   7.657  11.361  1.1073 -0.5882  0.7555
   61MOL0     H 8227   4.474   7.864  11.468  1.9352  0.8986 -1.5957
   61MOL0     H 8228   4.425   7.950  11.317 -1.4549  1.6488  1.4035
   61MOL0     H 8229   4.520   7.744  11.195  0.8903 -2.5346  0.0930
   61MOL0     H 8230   4.585   7.686  11.336  1.7228  0.4124  0.1284
   61MOL0     H 8231   4.652   7.964  11.270 -1.1264  0.4789  2.6317
   61MOL0     H 8232   4.743   7.819  11.186 -0.8002 -2.2554  1.1632
   61MOL0     H 8233   4.868   7.860  11.606 -1.9547  1.0339  1.5298
   61MOL0     H 8234   4.123   7.598  11.401 -1.1484  0.4288  1.5349
   61MOL0     H 8235   3.882   7.523  11.372 -1.7714  1.1657 -0.2750
   62MOL0     O 8236   4.751   3.241   7.063  0.0542 -0.2138 -0.1807
   62MOL0     C 8237   4.834   3.208   7.136 -0.3165 -0.3470  0.0779
   62MOL0     O 8238   4.845   3.246   7.266 -0.9471  0.0180 -0.2381
   62MOL0     C 8239   4.764   3.340   7.326 -0.5383 -0.7616  0.4006
   62MOL0     C 8240   4.626   3.313   7.346 -0.5491 -0.4571  0.9280
   62MOL0     C 8241   4.550   3.413   7.396 -0.4280  0.0177  0.2429
   62MOL0     C 8242   4.604   3.541   7.424 -0.8465  0.0657 -0.0558
   62MOL0     O 8243   4.525   3.648   7.454 -0.9620 -0.7571  0.3310
   62MOL0     C 8244   4.385   3.658   7.447  0.0154 -0.0361  0.5856
   62MOL0     C 8245   4.346   3.700   7.304  0.8273 -0.1659 -0.0349
   62MOL0     C 8246   4.201   3.738   7.278  0.1506  0.1608 -0.0334
   62MOL0     C 8247   4.168   3.757   7.133  0.8647  0.1841 -0.4235
   62MOL0     C 8248   4.070   3.870   7.088 -0.5059 -1.4384 -0.8672
   62MOL0     C 8249   4.012   3.840   6.953  0.1987  0.4228  0.0133
   62MOL0     C 8250   3.901   3.945   6.931  0.4797 -0.3299 -1.0185
   62MOL0     C 8251   3.822   3.926   6.800 -0.5727  0.0913  0.7012
   62MOL0     N 8252   3.686   3.994   6.819 -0.1139 -0.6359 -0.1601
   62MOL0     C 8253   3.676   4.119   6.872  0.6233  0.1631  0.0240
   62MOL0     C 8254   3.553   4.158   6.837 -0.2094 -0.5081  0.3878
   62MOL0     C 8255   3.497   4.288   6.893 -0.2905  0.2105  0.9366
   62MOL0     C 8256   3.337   4.289   6.901 -0.3848 -0.6900 -0.1735
   62MOL0     C 8257   3.285   4.328   6.758 -0.1214 -0.1266 -0.1201
   62MOL0     C 8258   3.143   4.308   6.729  0.2898 -0.2257 -0.7123
   62MOL0     O 8259   3.071   4.390   6.821 -0.2121 -0.3589 -0.1427
   62MOL0     C 8260   2.940   4.396   6.795 -0.0753  0.3589  0.6663
   62MOL0     C 8261   2.887   4.479   6.693 -0.0521 -0.2790  0.4484
   62MOL0     C 8262   2.745   4.491   6.682  0.0995  0.5735  0.2823
   62MOL0     C 8263   2.689   4.586   6.579 -0.0400  0.8169  0.3628
   62MOL0     C 8264   2.657   4.429   6.780 -0.3030  0.4796 -0.1476
   62MOL0     C 8265   2.507   4.446   6.797  0.6459 -0.0413 -0.2275
   62MOL0     O 8266   2.457   4.382   6.904 -0.4053 -0.5971 -0.3966
   62MOL0     C 8267   2.330   4.406   6.945  0.7390 -0.3580  0.4624
   62MOL0     C 8268   2.260   4.522   6.904  0.5486 -1.0271  0.3098
   62MOL0     C 8269   2.123   4.533   6.932  0.0212 -0.6045  0.2933
   62MOL0     C 8270   2.064   4.449   7.017  0.8708  0.7661 -0.0417
   62MOL0     O 8271   1.932   4.475   7.056 -0.3890 -0.8247  0.2522
   62MOL0     C 8272   1.861   4.365   7.125  0.2588 -0.0716 -0.4311
   62MOL0     C 8273   1.714   4.369   7.098  0.1572 -0.0413 -0.4862
   62MOL0     C 8274   1.628   4.438   7.206  0.1009 -0.6415 -1.5651
   62MOL0     C 8275   1.477   4.439   7.166 -0.6783  0.0533 -0.4690
   62MOL0     C 8276   1.408   4.449   7.305  0.4223 -0.4644  0.1722
   62MOL0     C 8277   1.258   4.411   7.297 -0.5332  0.0833 -0.7881
   62MOL0     C 8278   1.187   4.435   7.424 -0.0099  0.2323 -0.4954
   62MOL0     C 8279   1.060   4.359   7.436  0.0375 -0.2996 -0.3844
   62MOL0    Cl 8280   0.948   4.443   7.328  0.2719  0.0057  0.0826
   62MOL0     C 8281   2.140   4.346   7.078  0.4598 -0.2711 -0.4966
   62MOL0     C 8282   2.274   4.323   7.044  0.0160 -0.1919 -0.1626
   62MOL0     O 8283   2.441   4.479   6.702  0.5758  0.5600  0.0905
   62MOL0     C 8284   2.721   4.335   6.865 -0.0392 -0.6399  0.2448
   62MOL0     C 8285   2.862   4.322   6.869 -0.8579  0.1494  0.1676
   62MOL0     N 8286   3.495   4.065   6.752 -1.0048  0.0404  0.7756
   62MOL0     N 8287   3.572   3.963   6.746 -0.0202 -0.3546 -0.7407
   62MOL0     C 8288   4.744   3.562   7.408 -0.4337  0.0107 -0.3194
   62MOL0     C 8289   4.816   3.459   7.361 -0.1211  0.8614 -0.8588
   62MOL0     C 8290   4.941   3.121   7.084  0.0662 -0.9419 -0.0023
   62MOL0     C 8291   5.066   3.120   7.142 -0.5349  0.3123  0.4176
   62MOL0     C 8292   5.176   3.044   7.087  0.2262 -0.4707 -0.5302
   62MOL0     C 8293   5.147   2.950   6.984  0.6829  0.8957  1.4430
   62MOL0     O 8294   5.247   2.874   6.925  0.2281  0.2298 -0.7387
   62MOL0     C 8295   5.230   2.734   6.895  0.5397 -0.4947 -0.0064
   62MOL0     C 8296   5.237   2.638   7.015  0.5658 -0.6149  0.6655
   62MOL0     C 8297   5.373   2.635   7.079  0.6801  1.3455  0.3075
   62MOL0     C 8298   5.400   2.516   7.180 -0.1781  0.0238 -0.5657
   62MOL0     C 8299   5.545   2.497   7.203 -0.3936 -0.2547 -0.1648
   62MOL0     C 8300   5.667   2.490   7.182  1.2773 -0.1989  0.1405
   62MOL0     C 8301   5.018   2.945   6.934  1.3580  0.2245  0.7840
   62MOL0     C 8302   4.917   3.029   6.981 -0.2092 -0.7718  0.1684
   62MOL0     H 8303   4.587   3.213   7.330 -1.2322  0.0304 -0.7034
   62MOL0     H 8304   4.443   3.394   7.398 -0.4829  0.3839  1.5640
   62MOL0     H 8305   4.336   3.563   7.470 -0.4009  0.0283 -0.0022
   62MOL0     H 8306   4.344   3.737   7.510 -1.8535  2.2522 -3.1416
   62MOL0     H 8307   4.409   3.785   7.279 -1.3900  1.5290 -0.1358
   62MOL0     H 8308   4.380   3.622   7.234  0.7059 -1.3866  1.2195
   62MOL0     H 8309   4.142   3.658   7.324  0.9479 -0.4617 -0.0708
   62MOL0     H 8310   4.191   3.840   7.316 -0.3848  0.4865 -1.0208
   62MOL0     H 8311   4.259   3.783   7.077  0.6754 -0.7791 -1.2019
   62MOL0     H 8312   4.131   3.658   7.107  1.2662 -0.6530  1.9178
   62MOL0     H 8313   3.991   3.872   7.163  0.4060 -0.3430  0.0964
   62MOL0     H 8314   4.120   3.967   7.081 -1.1854 -1.1065 -1.1267
   62MOL0     H 8315   4.093   3.861   6.881  0.4039  0.4479  0.2499
   62MOL0     H 8316   3.977   3.736   6.947 -0.8455  0.8063 -0.7390
   62MOL0     H 8317   3.829   3.950   7.013  1.6432  2.1819 -0.0689
   62MOL0     H 8318   3.939   4.047   6.928 -0.9572  0.2203 -3.1065
   62MOL0     H 8319   3.820   3.817   6.793  2.4068 -0.3010  3.3324
   62MOL0     H 8320   3.879   3.964   6.714  0.2775  0.2197  1.3018
   62MOL0     H 8321   3.747   4.180   6.927  3.9101 -1.8444 -1.7069
   62MOL0     H 8322   3.543   4.309   6.991  2.5151 -1.2457  0.0477
   62MOL0     H 8323   3.528   4.366   6.823 -0.5721  0.2415  0.8444
   62MOL0     H 8324   3.287   4.360   6.967 -0.4730 -0.3127 -0.6379
   62MOL0     H 8325   3.317   4.189   6.939 -0.4966 -0.8737 -0.7081
   62MOL0     H 8326   3.334   4.259   6.689  0.1495 -0.5043  0.4392
   62MOL0     H 8327   3.305   4.433   6.734  2.7994 -1.1027 -2.6259
   62MOL0     H 8328   3.119   4.204   6.752  1.7659 -0.3322  0.5490
   62MOL0     H 8329   3.117   4.327   6.625  0.9312 -2.4515 -1.3319
   62MOL0     H 8330   2.945   4.532   6.619 -0.7345  0.2178  0.2547
   62MOL0     H 8331   2.768   4.641   6.527  0.7907 -0.0766  0.6387
   62MOL0     H 8332   2.652   4.533   6.490  0.6360  0.4167  0.3044
   62MOL0     H 8333   2.622   4.661   6.622  1.3376  0.9994  2.3180
   62MOL0     H 8334   2.301   4.599   6.840 -0.4982 -0.1488  0.6620
   62MOL0     H 8335   2.074   4.621   6.893 -2.3461 -2.2873 -0.7783
   62MOL0     H 8336   1.902   4.271   7.089 -0.9699 -0.3443 -1.1614
   62MOL0     H 8337   1.887   4.377   7.231  1.9057 -0.8574 -0.7107
   62MOL0     H 8338   1.691   4.414   7.000 -1.4239  0.3401  0.0366
   62MOL0     H 8339   1.676   4.267   7.089 -1.4804  0.7022 -3.5539
   62MOL0     H 8340   1.667   4.538   7.223 -0.7185 -0.5675  0.0651
   62MOL0     H 8341   1.654   4.392   7.302  1.9263  0.4932 -1.4720
   62MOL0     H 8342   1.467   4.531   7.107  0.7460 -1.1534 -2.6970
   62MOL0     H 8343   1.437   4.353   7.112 -0.8449  0.7860 -1.5422
   62MOL0     H 8344   1.411   4.548   7.349  0.4568  0.3190 -1.4962
   62MOL0     H 8345   1.440   4.376   7.380 -1.7836 -1.5202  0.1721
   62MOL0     H 8346   1.212   4.465   7.214 -0.1368  1.2776 -0.2505
   62MOL0     H 8347   1.256   4.303   7.280  0.2456  0.1918 -1.6898
   62MOL0     H 8348   1.162   4.542   7.430  2.2329  0.9035 -1.8258
   62MOL0     H 8349   1.248   4.407   7.511  0.1740 -0.5711 -0.8767
   62MOL0     H 8350   1.033   4.357   7.541  0.5663  0.5251 -0.2243
   62MOL0     H 8351   1.065   4.256   7.398 -0.6976 -0.5895  0.2960
   62MOL0     H 8352   2.102   4.291   7.163  1.6122 -2.7921 -1.4990
   62MOL0     H 8353   2.336   4.248   7.091  6.1140  3.8206 -0.5489
   62MOL0     H 8354   2.668   4.265   6.930 -0.3608  0.4184  1.1621
   62MOL0     H 8355   2.910   4.237   6.917 -1.1880 -1.1957 -1.7621
   62MOL0     H 8356   4.781   3.662   7.427  0.4196  0.2259 -2.7420
   62MOL0     H 8357   4.921   3.471   7.338  0.0865  1.2201  0.2182
   62MOL0     H 8358   5.079   3.195   7.219 -1.0358  0.4827  0.3377
   62MOL0     H 8359   5.281   3.053   7.112  0.7738 -1.9283 -2.0685
   62MOL0     H 8360   5.137   2.722   6.837  0.0644 -0.2900  0.6956
   62MOL0     H 8361   5.310   2.709   6.826  1.1038  3.1657 -0.8939
   62MOL0     H 8362   5.216   2.537   6.981  2.2006 -0.2935 -1.5076
   62MOL0     H 8363   5.155   2.657   7.085 -1.5463  3.3259 -2.4214
   62MOL0     H 8364   5.383   2.731   7.130  0.5163  0.9236  1.1489
   62MOL0     H 8365   5.444   2.638   6.996 -1.5010 -0.7069 -1.8261
   62MOL0     H 8366   5.373   2.418   7.139  1.3557 -1.4312  1.6765
   62MOL0     H 8367   5.355   2.555   7.272  1.5716  3.4245 -0.9956
   62MOL0     H 8368   5.771   2.467   7.170  1.9823  2.1262  1.2593
   62MOL0     H 8369   4.983   2.889   6.848  1.9412 -1.1319  1.3960
   62MOL0     H 8370   4.819   3.031   6.935 -0.0093  1.3026 -0.2332
   63MOL0     O 8371  11.185   3.474   7.198  0.1934 -0.3310  0.4056
   63MOL0     C 8372  11.240   3.413   7.287  0.7457  0.1386  0.2418
   63MOL0     O 8373  11.184   3.322   7.374  0.2336  0.1141 -0.2704
   63MOL0     C 8374  11.051   3.295   7.382  0.1938 -0.0437 -1.1753
   63MOL0     C 8375  10.954   3.295   7.280 -0.9220 -0.3444 -0.2104
   63MOL0     C 8376  10.819   3.273   7.301  0.2419  0.5770 -0.7469
   63MOL0     C 8377  10.765   3.252   7.436 -1.0284  0.5259 -0.3044
   63MOL0     O 8378  10.629   3.225   7.448  0.5188 -0.2396 -0.4003
   63MOL0     C 8379  10.588   3.121   7.541  0.5816  0.1571 -0.3665
   63MOL0     C 8380  10.456   3.059   7.493  0.2663 -0.1140  1.1811
   63MOL0     C 8381  10.345   3.162   7.491  0.8104 -0.3664  0.5336
   63MOL0     C 8382  10.235   3.114   7.403 -0.7084 -0.2818 -0.3609
   63MOL0     C 8383  10.120   3.214   7.412  0.0036  0.1916 -0.3077
   63MOL0     C 8384  10.036   3.204   7.288  0.4414  0.0613  0.1766
   63MOL0     C 8385   9.916   3.301   7.270  0.3334  0.0444 -0.2105
   63MOL0     C 8386   9.798   3.263   7.369  0.8955 -1.1159 -0.6838
   63MOL0     N 8387   9.738   3.136   7.339  0.3400  0.5802  0.4020
   63MOL0     C 8388   9.704   3.104   7.210  0.2425  0.8025  0.2571
   63MOL0     C 8389   9.643   2.989   7.217  0.0085 -1.1563 -0.6497
   63MOL0     C 8390   9.574   2.932   7.093 -0.3675 -0.4010  0.0968
   63MOL0     C 8391   9.429   2.989   7.076  0.8033 -0.4475  0.3013
   63MOL0     C 8392   9.345   2.950   7.193 -0.4364  0.8504  0.5092
   63MOL0     C 8393   9.190   2.920   7.152  0.2872 -0.4555  0.3862
   63MOL0     O 8394   9.128   3.038   7.097  0.0562 -0.1412  0.6400
   63MOL0     C 8395   8.994   3.014   7.067 -0.2196  1.0985  0.1293
   63MOL0     C 8396   8.896   3.062   7.149 -0.0235  0.0148 -0.0608
   63MOL0     C 8397   8.762   3.022   7.120  1.0175  0.2100 -0.4654
   63MOL0     C 8398   8.649   3.077   7.216 -0.4285 -0.5426  0.0013
   63MOL0     C 8399   8.732   2.941   7.006 -1.0742  0.4562  0.5146
   63MOL0     C 8400   8.597   2.896   6.970 -0.2550  0.3193  0.0274
   63MOL0     O 8401   8.489   2.957   7.023  0.3061  0.8734 -0.4739
   63MOL0     C 8402   8.372   2.883   7.022 -0.0936  0.3504 -0.4939
   63MOL0     C 8403   8.272   2.898   6.930 -0.2538  0.2999 -0.0480
   63MOL0     C 8404   8.155   2.825   6.946 -0.4374 -0.3381  0.2294
   63MOL0     C 8405   8.137   2.740   7.059  0.4154 -0.4385 -0.0035
   63MOL0     O 8406   8.020   2.668   7.065  0.6474 -0.3335  0.1431
   63MOL0     C 8407   8.021   2.551   7.141 -0.4690 -0.1234  0.2138
   63MOL0     C 8408   7.891   2.486   7.132 -0.6074  0.3954 -0.1478
   63MOL0     C 8409   7.887   2.347   7.192 -0.1321  0.2566  0.3387
   63MOL0     C 8410   7.966   2.238   7.115 -0.4224 -0.1720 -0.1712
   63MOL0     C 8411   7.985   2.113   7.207 -0.5973 -1.0407 -0.0690
   63MOL0     C 8412   7.845   2.035   7.218 -0.1107 -0.4753  0.7671
   63MOL0     C 8413   7.863   1.912   7.299 -0.5069 -0.2716 -0.7210
   63MOL0     C 8414   7.722   1.879   7.318 -0.3889  0.5340 -0.3464
   63MOL0    Cl 8415   7.702   1.729   7.402  0.0318  0.2979 -0.2262
   63MOL0     C 8416   8.237   2.731   7.156 -0.5645 -0.2794  0.1793
   63MOL0     C 8417   8.360   2.804   7.135 -0.5125 -0.4989 -0.4475
   63MOL0     O 8418   8.592   2.786   6.906 -0.0072  0.4452 -0.1297
   63MOL0     C 8419   8.838   2.904   6.920 -0.0454  0.3969 -0.7066
   63MOL0     C 8420   8.963   2.949   6.951  0.2079  0.2119 -0.0703
   63MOL0     N 8421   9.642   2.949   7.346  0.5793 -0.0234 -0.6591
   63MOL0     N 8422   9.683   3.039   7.422  0.3653 -0.0768 -0.1035
   63MOL0     C 8423  10.859   3.247   7.537 -0.2562  0.4247  0.2830
   63MOL0     C 8424  11.002   3.253   7.511 -0.2000  0.3798 -0.8910
   63MOL0     C 8425  11.385   3.441   7.317  0.9768 -0.1894  0.2850
   63MOL0     C 8426  11.453   3.544   7.247 -0.3799  0.2703 -0.3573
   63MOL0     C 8427  11.593   3.541   7.249  1.2847  0.0189 -1.0067
   63MOL0     C 8428  11.666   3.449   7.322 -1.3860 -0.1163 -0.5281
   63MOL0     O 8429  11.805   3.461   7.308 -0.3319  0.2310  0.0781
   63MOL0     C 8430  11.893   3.390   7.404 -1.0438  0.3619 -0.2221
   63MOL0     C 8431  12.041   3.402   7.383  0.1732  0.3989 -0.0744
   63MOL0     C 8432  12.131   3.298   7.447  0.5684  0.2152 -0.9775
   63MOL0     C 8433  12.122   3.284   7.597 -1.2499  0.9861 -0.1760
   63MOL0     C 8434  12.127   3.415   7.670 -0.4907  0.5263  0.2768
   63MOL0     C 8435  12.111   3.528   7.717  0.6221 -0.5526  0.6757
   63MOL0     C 8436  11.599   3.356   7.402 -0.3619 -0.1597  0.5488
   63MOL0     C 8437  11.452   3.351   7.402 -1.0888 -0.5449 -0.0479
   63MOL0     H 8438  10.988   3.315   7.179  0.1803  2.1153  0.5564
   63MOL0     H 8439  10.750   3.274   7.217 -0.2824 -0.5072 -0.3445
   63MOL0     H 8440  10.664   3.043   7.549  0.5412  0.2810  2.0470
   63MOL0     H 8441  10.576   3.155   7.645 -0.3990 -4.4416  1.2462
   63MOL0     H 8442  10.472   3.029   7.389 -2.2232  1.5261  0.2600
   63MOL0     H 8443  10.430   2.971   7.554  3.1892 -0.7721  1.6624
   63MOL0     H 8444  10.309   3.173   7.594 -0.0164  0.0230  0.2086
   63MOL0     H 8445  10.362   3.259   7.445 -2.0814  0.6570  1.4335
   63MOL0     H 8446  10.268   3.095   7.300 -2.3144 -0.9382 -0.7977
   63MOL0     H 8447  10.205   3.017   7.445  3.0279 -1.1371  0.6547
   63MOL0     H 8448  10.063   3.200   7.504 -2.3066  3.0130 -1.1440
   63MOL0     H 8449  10.143   3.321   7.416  0.4959  0.0892 -0.4024
   63MOL0     H 8450  10.116   3.228   7.217  1.3000 -0.5288  0.9264
   63MOL0     H 8451  10.001   3.104   7.262  0.1546  0.6461 -1.8422
   63MOL0     H 8452   9.943   3.405   7.290  2.4689 -0.1180 -1.9581
   63MOL0     H 8453   9.882   3.297   7.166 -1.1365  2.4309  0.1136
   63MOL0     H 8454   9.719   3.338   7.364  0.4798 -1.2643  2.2202
   63MOL0     H 8455   9.829   3.249   7.473  1.7072 -3.3761 -1.1822
   63MOL0     H 8456   9.710   3.170   7.124  2.0879 -0.3590 -0.5740
   63MOL0     H 8457   9.633   2.940   7.001  0.7771  1.0403  0.9252
   63MOL0     H 8458   9.571   2.823   7.101  3.0504 -0.5728  0.5249
   63MOL0     H 8459   9.391   2.941   6.985 -0.8568 -2.6012  2.0276
   63MOL0     H 8460   9.432   3.098   7.068  0.2323 -0.3930  0.7767
   63MOL0     H 8461   9.344   3.033   7.265  1.4696  0.9697  0.4474
   63MOL0     H 8462   9.392   2.864   7.240 -0.2975  0.5060 -0.2451
   63MOL0     H 8463   9.139   2.897   7.246 -0.6345  2.2403  0.6221
   63MOL0     H 8464   9.191   2.831   7.088  1.0511 -0.7356  0.7779
   63MOL0     H 8465   8.935   3.131   7.223  0.3552  3.7982 -3.4016
   63MOL0     H 8466   8.704   3.132   7.292  2.0639 -1.3127 -1.1628
   63MOL0     H 8467   8.579   3.147   7.169  0.4538 -0.1130 -0.6983
   63MOL0     H 8468   8.582   3.002   7.260 -1.7080  0.1670 -0.6623
   63MOL0     H 8469   8.291   2.954   6.839  2.2621 -2.5507 -1.4996
   63MOL0     H 8470   8.079   2.845   6.871  0.5438 -0.4427 -0.8073
   63MOL0     H 8471   8.102   2.492   7.097  2.4401  2.3881  1.8148
   63MOL0     H 8472   8.052   2.570   7.244  1.0937 -1.8334  0.1153
   63MOL0     H 8473   7.824   2.549   7.189  1.1264  0.8868  1.4414
   63MOL0     H 8474   7.848   2.479   7.031 -1.1832 -0.7175  0.1598
   63MOL0     H 8475   7.786   2.312   7.213  0.2954 -0.5380  1.1827
   63MOL0     H 8476   7.942   2.352   7.287  1.9503  3.1293 -0.8757
   63MOL0     H 8477   7.908   2.214   7.026  0.5548 -0.6876 -0.6769
   63MOL0     H 8478   8.065   2.282   7.101 -1.0219  1.6945  0.9929
   63MOL0     H 8479   8.023   2.144   7.305  1.4264  0.7233 -1.3197
   63MOL0     H 8480   8.068   2.048   7.176  1.1164  1.1671 -0.4096
   63MOL0     H 8481   7.784   2.107   7.272  0.7016 -0.7277  2.0502
   63MOL0     H 8482   7.812   1.998   7.120  2.9432 -4.9979  1.0939
   63MOL0     H 8483   7.924   1.926   7.389  0.8821  2.1915 -1.9293
   63MOL0     H 8484   7.901   1.830   7.238 -3.8837 -3.3273  0.8777
   63MOL0     H 8485   7.678   1.864   7.218  0.1805 -2.7915 -0.2117
   63MOL0     H 8486   7.661   1.956   7.366  0.9169  2.4785 -1.6607
   63MOL0     H 8487   8.231   2.666   7.243  1.4318 -0.2261  0.4204
   63MOL0     H 8488   8.442   2.793   7.206 -0.0337  1.7058 -0.5661
   63MOL0     H 8489   8.808   2.854   6.829  0.9807 -0.0272 -0.8296
   63MOL0     H 8490   9.045   2.909   6.891 -0.1619  0.2113 -0.5756
   63MOL0     H 8491  10.823   3.235   7.639 -1.3608 -0.7218 -0.2272
   63MOL0     H 8492  11.081   3.253   7.585 -0.5611  0.6991 -0.4977
   63MOL0     H 8493  11.410   3.616   7.179  2.7207  3.7599  1.0580
   63MOL0     H 8494  11.641   3.617   7.188  0.0829  0.2545 -1.6818
   63MOL0     H 8495  11.871   3.436   7.501 -0.2978  1.4820 -0.5634
   63MOL0     H 8496  11.861   3.286   7.408 -0.1300  0.1117  0.8766
   63MOL0     H 8497  12.070   3.500   7.423 -2.6765  2.1301 -1.8250
   63MOL0     H 8498  12.065   3.407   7.277 -1.0456  0.3726 -0.3716
   63MOL0     H 8499  12.233   3.320   7.415  0.7506  0.5843 -0.1866
   63MOL0     H 8500  12.102   3.201   7.407  1.2306 -0.2280 -0.4005
   63MOL0     H 8501  12.217   3.234   7.620  0.1456  2.9082 -1.4304
   63MOL0     H 8502  12.039   3.214   7.610 -0.6667 -0.1648 -2.3058
   63MOL0     H 8503  12.101   3.629   7.753 -2.6591  0.0627 -1.4923
   63MOL0     H 8504  11.670   3.287   7.446  0.0439 -0.6580 -0.8220
   63MOL0     H 8505  11.401   3.266   7.445  0.1197 -0.7470  1.0323
   64MOL0     O 8506  10.898   8.698   8.715 -0.3110 -0.0039 -0.7480
   64MOL0     C 8507  10.977   8.661   8.627 -1.1010  0.7128  0.2307
   64MOL0     O 8508  10.943   8.627   8.500 -0.8184 -0.6227  1.8301
   64MOL0     C 8509  10.819   8.586   8.459 -0.1586 -0.4598  0.3316
   64MOL0     C 8510  10.734   8.507   8.546 -0.0246  0.5150 -0.3257
   64MOL0     C 8511  10.599   8.478   8.517 -0.5236  0.5436  0.8018
   64MOL0     C 8512  10.553   8.504   8.383 -0.9052  0.1058 -0.0579
   64MOL0     O 8513  10.431   8.470   8.332  0.0880 -0.4796 -0.4139
   64MOL0     C 8514  10.324   8.449   8.429  0.7372  0.6342  0.1565
   64MOL0     C 8515  10.185   8.440   8.353 -0.3315 -0.1095 -0.4040
   64MOL0     C 8516  10.183   8.334   8.255 -0.0054  1.1498  0.5173
   64MOL0     C 8517  10.251   8.202   8.279  0.2013  0.1989  0.2428
   64MOL0     C 8518  10.223   8.107   8.151  0.4784 -0.3953  0.4203
   64MOL0     C 8519  10.335   8.135   8.040  0.4347 -0.8851 -0.3624
   64MOL0     C 8520  10.308   8.064   7.896 -0.1736 -0.3037  0.1634
   64MOL0     C 8521  10.307   7.913   7.904 -0.0712 -0.8198  0.2938
   64MOL0     N 8522  10.435   7.857   7.871  0.4811  0.1130  0.6159
   64MOL0     C 8523  10.513   7.795   7.957 -0.0492  0.5873  0.6544
   64MOL0     C 8524  10.580   7.698   7.884  0.1335 -0.4389 -0.1285
   64MOL0     C 8525  10.678   7.602   7.921 -0.2870  0.3521 -1.1310
   64MOL0     C 8526  10.617   7.498   8.015 -0.3897  0.1732  0.0102
   64MOL0     C 8527  10.543   7.396   7.933  0.2721 -0.1783 -0.1742
   64MOL0     C 8528  10.509   7.268   8.017 -1.2021 -0.6844 -0.7500
   64MOL0     O 8529  10.422   7.302   8.125 -0.5282  0.7098  0.5397
   64MOL0     C 8530  10.292   7.262   8.120 -0.0115  1.1272  0.3127
   64MOL0     C 8531  10.222   7.247   8.242  0.5457  0.4700 -0.4377
   64MOL0     C 8532  10.083   7.210   8.246 -0.6223 -0.1177  0.9362
   64MOL0     C 8533  10.040   7.205   8.391 -0.0569  0.3312  0.2428
   64MOL0     C 8534  10.010   7.194   8.130  1.1874  0.5390  0.1269
   64MOL0     C 8535   9.868   7.146   8.134 -0.1989  0.4924 -0.2009
   64MOL0     O 8536   9.807   7.108   8.252  0.4481 -0.0879 -0.2429
   64MOL0     C 8537   9.674   7.076   8.258  1.0559  0.0324  0.6283
   64MOL0     C 8538   9.612   6.973   8.182  1.5039  0.6066  0.1833
   64MOL0     C 8539   9.468   6.955   8.178 -0.1912 -0.0571 -0.2299
   64MOL0     C 8540   9.385   7.022   8.273 -0.2996 -0.2591 -0.1362
   64MOL0     O 8541   9.252   6.991   8.273 -0.1464 -0.2838  0.2385
   64MOL0     C 8542   9.157   7.087   8.314  0.1618 -0.1177  0.1112
   64MOL0     C 8543   9.011   7.051   8.284  0.7395 -0.7177  0.1551
   64MOL0     C 8544   8.944   6.962   8.399 -0.9339  0.2327  0.3246
   64MOL0     C 8545   8.793   6.950   8.376 -0.4206 -0.4314 -0.1252
   64MOL0     C 8546   8.724   6.866   8.485  0.9529 -0.0037 -0.3522
   64MOL0     C 8547   8.567   6.856   8.469 -0.8288  0.7185  0.8088
   64MOL0     C 8548   8.517   6.728   8.538  0.1567  0.6196 -0.3435
   64MOL0     C 8549   8.377   6.754   8.605 -0.8168  0.5432  0.0747
   64MOL0    Cl 8550   8.255   6.764   8.484  0.0627 -0.4037 -0.2614
   64MOL0     C 8551   9.446   7.117   8.358  0.0886 -0.7430 -0.2438
   64MOL0     C 8552   9.587   7.146   8.348  0.1240 -0.3680  0.6580
   64MOL0     O 8553   9.821   7.134   8.022  0.4296  0.4806  0.3385
   64MOL0     C 8554  10.079   7.214   8.010  0.1200 -0.4581  0.4573
   64MOL0     C 8555  10.215   7.251   8.004 -0.2951 -0.2770  1.1796
   64MOL0     N 8556  10.529   7.704   7.759 -0.7040 -0.1508 -0.4040
   64MOL0     N 8557  10.457   7.808   7.751 -0.3438 -0.3236  0.4170
   64MOL0     C 8558  10.644   8.558   8.294 -0.4006  0.2380 -0.4246
   64MOL0     C 8559  10.762   8.612   8.333  0.6760  0.0439  0.6604
   64MOL0     C 8560  11.114   8.642   8.654 -0.6199 -0.4066 -0.6155
   64MOL0     C 8561  11.213   8.599   8.563  0.2137  0.1321  0.2707
   64MOL0     C 8562  11.347   8.575   8.591  0.7614 -0.2384  0.0017
   64MOL0     C 8563  11.392   8.591   8.720  0.5523 -0.1696  0.0379
   64MOL0     O 8564  11.522   8.568   8.761 -0.3256 -0.5941 -0.8429
   64MOL0     C 8565  11.614   8.518   8.663  0.2003  0.1308  0.0424
   64MOL0     C 8566  11.747   8.523   8.737 -0.3138 -0.3073  0.0995
   64MOL0     C 8567  11.746   8.412   8.844  0.0649 -0.1101  0.8488
   64MOL0     C 8568  11.887   8.381   8.896 -0.5061  0.1073  0.3896
   64MOL0     C 8569  11.968   8.306   8.799 -0.5351  0.1027  0.6477
   64MOL0     C 8570  12.035   8.236   8.725 -0.2989 -0.2301  0.3623
   64MOL0     C 8571  11.295   8.639   8.809  0.5102 -0.3793  0.6799
   64MOL0     C 8572  11.164   8.660   8.780 -0.3176  0.1047 -0.1637
   64MOL0     H 8573  10.767   8.464   8.640 -2.3279 -1.7417 -0.4610
   64MOL0     H 8574  10.548   8.409   8.583  0.7614 -1.0583  0.1989
   64MOL0     H 8575  10.350   8.359   8.486 -2.2341 -0.3456  0.1799
   64MOL0     H 8576  10.312   8.520   8.511 -0.6716 -0.2276  0.7357
   64MOL0     H 8577  10.110   8.418   8.430 -0.7179  1.2532 -0.3775
   64MOL0     H 8578  10.176   8.545   8.324 -0.2970  0.7976  2.5333
   64MOL0     H 8579  10.077   8.315   8.236 -0.4425  3.1414  0.7111
   64MOL0     H 8580  10.226   8.381   8.166 -0.0721  2.7134  1.2738
   64MOL0     H 8581  10.358   8.224   8.288  0.6177 -0.3156 -2.4668
   64MOL0     H 8582  10.222   8.163   8.376  2.8953 -1.5273  0.4500
   64MOL0     H 8583  10.238   8.003   8.183  0.4411 -0.8761 -1.0216
   64MOL0     H 8584  10.121   8.120   8.114  0.6145  3.1815  0.9937
   64MOL0     H 8585  10.344   8.241   8.015 -1.2780 -0.7235 -0.3848
   64MOL0     H 8586  10.435   8.110   8.079 -1.1983 -1.6650  3.8609
   64MOL0     H 8587  10.216   8.107   7.856  0.5771  2.8988  1.4717
   64MOL0     H 8588  10.383   8.090   7.821 -0.7414  0.6010 -0.1144
   64MOL0     H 8589  10.231   7.884   7.830 -0.4406  2.2943 -0.6907
   64MOL0     H 8590  10.269   7.880   8.001 -1.5695 -3.5607 -1.0925
   64MOL0     H 8591  10.530   7.810   8.064  0.5295 -0.9894  0.8120
   64MOL0     H 8592  10.714   7.555   7.829 -0.6998  1.1829 -1.7341
   64MOL0     H 8593  10.758   7.662   7.965 -1.4282  0.5648  0.7662
   64MOL0     H 8594  10.545   7.544   8.083 -2.6927 -0.1978 -2.0223
   64MOL0     H 8595  10.696   7.440   8.063  1.9547  1.6174 -1.9227
   64MOL0     H 8596  10.606   7.363   7.850  2.5834 -2.1419  2.1924
   64MOL0     H 8597  10.449   7.444   7.905  1.1971  0.7537 -1.8422
   64MOL0     H 8598  10.598   7.232   8.070 -1.4510  1.1632  1.0444
   64MOL0     H 8599  10.478   7.196   7.941 -1.4853  0.9133 -2.1953
   64MOL0     H 8600  10.286   7.272   8.326 -0.9070  0.7676  0.6315
   64MOL0     H 8601   9.971   7.123   8.413 -0.7296  0.9066  0.3577
   64MOL0     H 8602  10.123   7.200   8.462  2.1180  0.3526 -2.1859
   64MOL0     H 8603   9.978   7.290   8.424  0.5108  0.1361  1.9317
   64MOL0     H 8604   9.681   6.927   8.112  1.1291  0.9257 -0.4091
   64MOL0     H 8605   9.411   6.899   8.105  0.0735 -1.8530  0.8682
   64MOL0     H 8606   9.169   7.117   8.419 -1.2220  2.0526 -0.2926
   64MOL0     H 8607   9.177   7.184   8.267 -2.7934  1.9139  2.6727
   64MOL0     H 8608   8.944   7.137   8.278  1.1798 -0.2407  1.5657
   64MOL0     H 8609   9.003   7.003   8.186  0.0560  0.6085 -0.4740
   64MOL0     H 8610   8.968   7.017   8.490 -0.3852 -0.3579  0.5455
   64MOL0     H 8611   9.001   6.868   8.403  0.7603  1.2015 -0.1149
   64MOL0     H 8612   8.749   7.050   8.375 -0.8733 -0.6110  0.9207
   64MOL0     H 8613   8.773   6.902   8.279 -0.3194  0.0266 -0.3738
   64MOL0     H 8614   8.742   6.924   8.577 -1.4033 -1.5843  1.2051
   64MOL0     H 8615   8.774   6.769   8.488  0.2518 -0.3648  2.2618
   64MOL0     H 8616   8.503   6.936   8.505 -3.8177 -0.0832 -2.2250
   64MOL0     H 8617   8.538   6.843   8.364  1.4109  0.7244  0.1338
   64MOL0     H 8618   8.590   6.707   8.617 -1.4711  0.8437  1.2961
   64MOL0     H 8619   8.512   6.644   8.468  1.1252 -0.1500  0.4691
   64MOL0     H 8620   8.387   6.843   8.668  2.8457  3.2304 -3.8034
   64MOL0     H 8621   8.361   6.662   8.662 -2.4456  0.6939 -0.0882
   64MOL0     H 8622   9.383   7.184   8.416  3.2716  0.6243  1.9127
   64MOL0     H 8623   9.634   7.233   8.393  0.6688  0.4470 -1.3832
   64MOL0     H 8624  10.020   7.211   7.919 -0.8102 -0.9946  1.0678
   64MOL0     H 8625  10.251   7.268   7.903  0.1446  3.7627  1.8136
   64MOL0     H 8626  10.619   8.570   8.189  1.3171  1.6884 -0.7087
   64MOL0     H 8627  10.813   8.661   8.250 -1.2300  1.3316  0.1956
   64MOL0     H 8628  11.185   8.582   8.459  2.5217 -2.5346 -0.0205
   64MOL0     H 8629  11.398   8.551   8.498 -0.0582 -0.9714 -0.2761
   64MOL0     H 8630  11.590   8.418   8.626 -0.8936  0.3022  0.2514
   64MOL0     H 8631  11.616   8.593   8.584  1.9077  2.4146  2.0953
   64MOL0     H 8632  11.770   8.619   8.786  2.3005 -0.0987 -1.3348
   64MOL0     H 8633  11.836   8.510   8.674  0.2384 -3.6729  1.3536
   64MOL0     H 8634  11.709   8.322   8.793 -2.3443  0.2383  1.8454
   64MOL0     H 8635  11.679   8.412   8.930  2.3578 -1.2139  2.7830
   64MOL0     H 8636  11.879   8.319   8.985 -0.2665  0.0087  0.3414
   64MOL0     H 8637  11.938   8.474   8.925 -2.2133  1.9391 -2.0498
   64MOL0     H 8638  12.084   8.183   8.646  2.4931 -1.6658  2.8388
   64MOL0     H 8639  11.327   8.660   8.911  4.1701  3.8408 -0.9964
   64MOL0     H 8640  11.094   8.681   8.860 -1.6743  5.6519 -2.3507
   65MOL0     O 8641   9.804   5.032   3.909  0.2839 -0.3180  0.4270
   65MOL0     C 8642   9.835   5.151   3.927  0.6367  0.3995 -0.8469
   65MOL0     O 8643   9.746   5.245   3.979  0.6131 -0.1968 -0.1882
   65MOL0     C 8644   9.611   5.217   3.997 -0.7837 -0.0797  0.3851
   65MOL0     C 8645   9.521   5.323   3.963  0.3143  0.3309 -0.1119
   65MOL0     C 8646   9.380   5.318   4.005 -0.0816  0.1838  0.2537
   65MOL0     C 8647   9.337   5.202   4.068 -0.3238 -0.0787  0.2894
   65MOL0     O 8648   9.216   5.171   4.104 -0.6073 -0.1473  0.2563
   65MOL0     C 8649   9.108   5.249   4.050 -0.0252  0.8445  1.1704
   65MOL0     C 8650   8.970   5.200   4.105 -0.6072 -0.4750 -0.1621
   65MOL0     C 8651   8.956   5.224   4.258 -0.1576 -0.0537  0.3827
   65MOL0     C 8652   8.813   5.192   4.297  0.9518  0.1735 -0.2533
   65MOL0     C 8653   8.698   5.284   4.268  0.2666 -0.2732 -0.3261
   65MOL0     C 8654   8.575   5.222   4.341  0.6269  0.3365 -0.5432
   65MOL0     C 8655   8.465   5.321   4.336  0.3932  0.1177 -1.1881
   65MOL0     C 8656   8.329   5.258   4.390  0.8526  0.1592  0.9562
   65MOL0     N 8657   8.254   5.143   4.324  0.4888  0.1231  0.0599
   65MOL0     C 8658   8.289   5.008   4.336 -0.3368 -0.8300 -0.0505
   65MOL0     C 8659   8.183   4.942   4.280 -0.8759  0.4508  0.3186
   65MOL0     C 8660   8.153   4.792   4.283 -0.5821 -0.6424  0.3157
   65MOL0     C 8661   8.059   4.754   4.396 -0.5184  0.3372  0.1097
   65MOL0     C 8662   7.912   4.754   4.356 -0.6347  0.2950  0.3985
   65MOL0     C 8663   7.868   4.662   4.235 -0.2388 -0.4849 -0.2059
   65MOL0     O 8664   7.725   4.671   4.214  0.0425 -0.1508  1.0244
   65MOL0     C 8665   7.668   4.619   4.099 -0.1701 -0.5692 -0.0229
   65MOL0     C 8666   7.735   4.567   3.995  0.1581  0.7420  0.3996
   65MOL0     C 8667   7.675   4.521   3.880 -0.0197  0.0393  0.3970
   65MOL0     C 8668   7.754   4.460   3.767  0.2760  0.1104  0.6916
   65MOL0     C 8669   7.533   4.525   3.872 -0.1620  0.6397 -0.4211
   65MOL0     C 8670   7.460   4.501   3.747 -0.2839 -0.2365  0.6291
   65MOL0     O 8671   7.367   4.600   3.729 -0.0590  0.0096  0.3747
   65MOL0     C 8672   7.264   4.594   3.635 -0.7903  1.0404  0.4392
   65MOL0     C 8673   7.285   4.543   3.502  0.1841  0.5845 -1.0143
   65MOL0     C 8674   7.178   4.550   3.406 -0.4636 -0.3075  1.3242
   65MOL0     C 8675   7.060   4.612   3.447 -0.0962  0.0353 -0.1747
   65MOL0     O 8676   6.939   4.602   3.368  0.4532  0.1382 -0.4009
   65MOL0     C 8677   6.937   4.501   3.266  0.4537  0.2554  1.4896
   65MOL0     C 8678   6.803   4.490   3.196 -0.0140 -0.0400 -0.4760
   65MOL0     C 8679   6.756   4.622   3.135 -0.2454  0.8576  0.5149
   65MOL0     C 8680   6.715   4.615   2.980  0.3297  0.4636 -0.5241
   65MOL0     C 8681   6.683   4.747   2.922  0.7153 -0.3612  0.1349
   65MOL0     C 8682   6.615   4.848   3.009 -0.7610  0.8304  0.4272
   65MOL0     C 8683   6.464   4.806   3.018 -0.8652 -0.1367 -0.3925
   65MOL0     C 8684   6.389   4.920   3.093  0.3856  0.0086 -0.5585
   65MOL0    Cl 8685   6.414   4.909   3.269 -0.3770 -0.2786 -0.2480
   65MOL0     C 8686   7.039   4.663   3.574 -0.0018  0.5563 -0.3243
   65MOL0     C 8687   7.142   4.652   3.669 -0.6390  0.1076 -0.0224
   65MOL0     O 8688   7.469   4.390   3.690 -0.0886  0.4914 -0.7562
   65MOL0     C 8689   7.463   4.563   3.988 -0.4623 -1.0587  0.7252
   65MOL0     C 8690   7.531   4.623   4.096  0.2813  0.2149 -0.2416
   65MOL0     N 8691   8.094   5.031   4.221 -0.5369  0.3479 -0.9429
   65MOL0     N 8692   8.137   5.150   4.254 -0.0200  0.0329  0.0527
   65MOL0     C 8693   9.425   5.107   4.102  0.0061 -0.5606 -0.3366
   65MOL0     C 8694   9.557   5.110   4.061  1.0820 -0.9156  0.0252
   65MOL0     C 8695   9.977   5.188   3.893 -0.1013 -0.0219  0.1446
   65MOL0     C 8696  10.035   5.315   3.918 -0.6344  0.1040  0.1591
   65MOL0     C 8697  10.170   5.352   3.895  0.0994  0.6678 -0.2900
   65MOL0     C 8698  10.260   5.246   3.852  0.0688 -0.4481  0.2049
   65MOL0     O 8699  10.398   5.254   3.838  0.0354  0.4106  0.5417
   65MOL0     C 8700  10.458   5.388   3.847  0.2662  0.0640  0.7114
   65MOL0     C 8701  10.610   5.381   3.854  0.4334  0.9942 -0.3903
   65MOL0     C 8702  10.689   5.513   3.838  0.1283  0.6461  0.3032
   65MOL0     C 8703  10.835   5.472   3.822  0.1571  0.9869  0.0788
   65MOL0     C 8704  10.915   5.595   3.820 -0.5172  0.3587  0.0476
   65MOL0     C 8705  10.972   5.695   3.784 -0.0206 -0.6051  0.5638
   65MOL0     C 8706  10.202   5.119   3.817  0.1187 -0.0516  0.4164
   65MOL0     C 8707  10.064   5.096   3.829 -0.6879  0.4699 -0.1947
   65MOL0     H 8708   9.547   5.414   3.909  1.9052 -0.7740 -1.3216
   65MOL0     H 8709   9.308   5.392   3.970 -1.9711 -2.4609 -1.8650
   65MOL0     H 8710   9.110   5.358   4.060 -2.6411  0.8535  2.6330
   65MOL0     H 8711   9.113   5.223   3.944 -0.4138  1.6880  0.9343
   65MOL0     H 8712   8.895   5.246   4.041  0.4658  0.0187 -1.1093
   65MOL0     H 8713   8.967   5.092   4.090  1.9970 -0.7401  0.7333
   65MOL0     H 8714   9.026   5.162   4.315 -1.7181 -1.1123  1.2136
   65MOL0     H 8715   8.976   5.329   4.282 -2.4321  0.6678 -0.5692
   65MOL0     H 8716   8.781   5.094   4.260 -0.8956  0.5628  0.2427
   65MOL0     H 8717   8.811   5.184   4.406 -1.7122  0.6630 -0.1948
   65MOL0     H 8718   8.719   5.380   4.317  0.9113 -1.6851  2.3515
   65MOL0     H 8719   8.680   5.295   4.161 -4.7510 -1.4030  0.1209
   65MOL0     H 8720   8.540   5.127   4.300 -0.0347  0.7759 -1.0017
   65MOL0     H 8721   8.595   5.200   4.447  0.3832  0.0571 -0.5555
   65MOL0     H 8722   8.490   5.410   4.394  0.4121  0.5518 -1.8425
   65MOL0     H 8723   8.438   5.350   4.234  0.5442  1.3094 -0.9079
   65MOL0     H 8724   8.264   5.345   4.401 -1.5967 -1.4343  0.1403
   65MOL0     H 8725   8.343   5.229   4.495 -0.8175  0.6277  1.3382
   65MOL0     H 8726   8.375   4.966   4.386 -0.7813  0.7653  2.2161
   65MOL0     H 8727   8.106   4.764   4.188 -3.8767  1.1658  1.2842
   65MOL0     H 8728   8.241   4.727   4.286  1.1314  1.2801 -3.0524
   65MOL0     H 8729   8.067   4.827   4.476  2.2119  0.2528 -0.0069
   65MOL0     H 8730   8.091   4.655   4.431  3.5917  1.8077  1.0761
   65MOL0     H 8731   7.898   4.859   4.331  1.9061  0.3257 -1.3151
   65MOL0     H 8732   7.855   4.728   4.446 -0.0640 -3.5525 -0.1586
   65MOL0     H 8733   7.889   4.555   4.243 -0.2388 -0.4084  0.9779
   65MOL0     H 8734   7.912   4.703   4.144 -2.4155 -0.2418 -1.2181
   65MOL0     H 8735   7.839   4.539   4.008  0.1345 -1.0699 -2.2419
   65MOL0     H 8736   7.733   4.514   3.675 -0.5887 -1.0415  0.1839
   65MOL0     H 8737   7.861   4.478   3.779  0.7187 -1.8584  0.1298
   65MOL0     H 8738   7.740   4.352   3.751 -0.2609 -0.0487  2.0799
   65MOL0     H 8739   7.375   4.497   3.463  0.8575  0.3541  0.6879
   65MOL0     H 8740   7.195   4.508   3.307 -1.3209  1.3382  0.4379
   65MOL0     H 8741   7.006   4.534   3.188 -0.2629  2.2676  1.6384
   65MOL0     H 8742   6.965   4.404   3.309 -2.2196 -2.8303 -2.8933
   65MOL0     H 8743   6.816   4.427   3.107 -1.3508 -0.0014 -0.7237
   65MOL0     H 8744   6.726   4.443   3.259 -1.1899  2.9844  0.4972
   65MOL0     H 8745   6.839   4.693   3.139 -0.0921  0.7322 -0.2989
   65MOL0     H 8746   6.669   4.653   3.195 -0.7869 -0.9126  0.7044
   65MOL0     H 8747   6.801   4.572   2.929  0.6843 -0.4311  0.7948
   65MOL0     H 8748   6.631   4.547   2.964 -1.2088  1.9875  0.6352
   65MOL0     H 8749   6.627   4.735   2.829 -0.1385  0.7582  0.4780
   65MOL0     H 8750   6.774   4.800   2.892  0.4585  1.4844  2.3293
   65MOL0     H 8751   6.664   4.876   3.103  2.1765 -1.7493 -0.1476
   65MOL0     H 8752   6.603   4.938   2.948 -0.6482  1.3981  1.2407
   65MOL0     H 8753   6.453   4.714   3.076  3.5402  0.6149  2.1060
   65MOL0     H 8754   6.427   4.813   2.915  0.8278 -0.4275 -1.0642
   65MOL0     H 8755   6.282   4.924   3.068  0.6853  1.7809 -1.7146
   65MOL0     H 8756   6.427   5.017   3.060 -0.1096  0.2946 -0.3167
   65MOL0     H 8757   6.941   4.698   3.606  1.4121  1.5343  3.5627
   65MOL0     H 8758   7.132   4.688   3.771  3.2991 -2.0734  1.3481
   65MOL0     H 8759   7.355   4.551   3.981 -0.6950 -0.2046  2.2961
   65MOL0     H 8760   7.485   4.678   4.178  0.9649  1.5744 -0.7433
   65MOL0     H 8761   9.396   5.021   4.162  2.3215 -1.2873 -0.1608
   65MOL0     H 8762   9.638   5.040   4.080  0.4585 -1.7416 -0.2929
   65MOL0     H 8763   9.974   5.392   3.964 -0.5404  0.7774 -0.8084
   65MOL0     H 8764  10.208   5.452   3.914  1.2696 -0.1047  1.8911
   65MOL0     H 8765  10.428   5.438   3.754 -4.8187 -2.1173  0.8222
   65MOL0     H 8766  10.433   5.438   3.941  1.4614 -2.0904  2.2635
   65MOL0     H 8767  10.631   5.316   3.768 -3.2902 -2.3908  0.9380
   65MOL0     H 8768  10.644   5.335   3.947  0.5278 -1.1147 -1.3921
   65MOL0     H 8769  10.668   5.584   3.919 -2.1203 -0.6141  0.9022
   65MOL0     H 8770  10.662   5.568   3.747  0.4104  3.9644  2.0514
   65MOL0     H 8771  10.854   5.426   3.724  2.3810 -0.2471  1.0288
   65MOL0     H 8772  10.863   5.398   3.896 -0.0231 -0.1107 -0.9226
   65MOL0     H 8773  11.029   5.783   3.764 -0.5022  0.0558  1.9555
   65MOL0     H 8774  10.270   5.044   3.775  0.2009 -0.4930  1.3236
   65MOL0     H 8775  10.035   4.994   3.808  3.0862 -1.1640  1.5706
   66MOL0     O 8776  10.530   4.694   3.722 -0.7233 -0.4329  0.7689
   66MOL0     C 8777  10.572   4.740   3.614  0.1834  0.1851  0.1534
   66MOL0     O 8778  10.503   4.809   3.517  0.1545 -0.4142 -0.7060
   66MOL0     C 8779  10.368   4.843   3.531 -0.2161 -0.0541  0.4038
   66MOL0     C 8780  10.271   4.766   3.591 -0.4573  0.0108 -1.2087
   66MOL0     C 8781  10.135   4.806   3.595 -0.2148  0.4461 -0.2119
   66MOL0     C 8782  10.090   4.921   3.524  0.2659 -0.0503 -0.2667
   66MOL0     O 8783   9.960   4.965   3.506 -1.0206 -0.0233 -0.0542
   66MOL0     C 8784   9.858   4.902   3.584  0.0707 -0.3311 -0.3470
   66MOL0     C 8785   9.743   5.004   3.588  0.0453 -1.0006 -0.3578
   66MOL0     C 8786   9.606   4.937   3.609 -0.2309 -0.5716 -0.1346
   66MOL0     C 8787   9.502   5.054   3.597 -0.4458 -0.3204 -0.2949
   66MOL0     C 8788   9.362   5.007   3.595  0.0358  0.2970  0.5664
   66MOL0     C 8789   9.316   4.899   3.704 -0.8860  0.5681  0.1585
   66MOL0     C 8790   9.157   4.880   3.695 -0.2524 -0.2576  0.3422
   66MOL0     C 8791   9.090   4.985   3.781 -0.5746  0.4943 -0.6779
   66MOL0     N 8792   8.952   4.942   3.802 -0.5708  0.3514 -0.0392
   66MOL0     C 8793   8.832   4.982   3.735 -0.3031 -0.4137  0.0938
   66MOL0     C 8794   8.738   4.902   3.788  0.9223 -0.6065  0.4238
   66MOL0     C 8795   8.584   4.905   3.789 -0.0218 -0.0473  0.7263
   66MOL0     C 8796   8.508   4.981   3.891  0.1387  0.4071 -0.2054
   66MOL0     C 8797   8.562   4.971   4.040 -0.2203 -0.6634 -0.3085
   66MOL0     C 8798   8.517   4.836   4.108  0.2545 -0.1550  0.1997
   66MOL0     O 8799   8.550   4.830   4.243 -0.0938  0.6637 -0.0702
   66MOL0     C 8800   8.678   4.843   4.294  0.3327 -0.1870  0.1456
   66MOL0     C 8801   8.696   4.879   4.428 -0.9202 -0.7575  0.4911
   66MOL0     C 8802   8.821   4.897   4.490  0.3466 -0.4918  1.5330
   66MOL0     C 8803   8.810   4.919   4.639 -0.4393 -0.5330 -0.2514
   66MOL0     C 8804   8.941   4.896   4.419 -0.1678  1.0306  0.2566
   66MOL0     C 8805   9.081   4.924   4.462  0.3888  0.1748  0.5333
   66MOL0     O 8806   9.191   4.902   4.370  0.3627  0.0266  0.2768
   66MOL0     C 8807   9.314   4.954   4.404  0.4848 -0.2880 -0.0479
   66MOL0     C 8808   9.321   5.087   4.441  0.3331  0.2403 -1.4232
   66MOL0     C 8809   9.447   5.140   4.478 -0.9588 -0.0582 -0.0912
   66MOL0     C 8810   9.560   5.068   4.470 -1.4833 -0.4156 -0.0800
   66MOL0     O 8811   9.679   5.130   4.494 -0.0826  0.1241  0.1215
   66MOL0     C 8812   9.759   5.168   4.380  0.2897  0.2369 -0.4580
   66MOL0     C 8813   9.905   5.208   4.417  0.1704  0.2910  0.4250
   66MOL0     C 8814  10.003   5.221   4.298 -0.4863 -0.1644  0.4219
   66MOL0     C 8815  10.138   5.258   4.355 -0.0251  0.5615 -0.1429
   66MOL0     C 8816  10.248   5.226   4.246 -0.4536 -0.0648  0.1054
   66MOL0     C 8817  10.381   5.291   4.289  0.0076 -0.4413  0.4798
   66MOL0     C 8818  10.504   5.233   4.225 -0.8582 -0.1475  0.2505
   66MOL0     C 8819  10.624   5.320   4.257 -0.7924 -0.2954  0.3117
   66MOL0    Cl 8820  10.767   5.289   4.155 -0.4696  0.6445  0.2997
   66MOL0     C 8821   9.560   4.941   4.415  0.7231 -0.2457  0.6703
   66MOL0     C 8822   9.426   4.882   4.392 -0.3815 -0.3349  0.6264
   66MOL0     O 8823   9.093   4.967   4.580 -0.6894  0.3015  0.0551
   66MOL0     C 8824   8.923   4.851   4.281  0.0824 -0.2557  0.4223
   66MOL0     C 8825   8.795   4.824   4.224  0.6167 -0.1742  0.5997
   66MOL0     N 8826   8.801   4.812   3.871  0.9081 -0.1961  0.0099
   66MOL0     N 8827   8.922   4.853   3.895 -0.2652  0.9313 -0.4894
   66MOL0     C 8828  10.188   4.995   3.449 -0.0088  0.4197  0.2964
   66MOL0     C 8829  10.322   4.955   3.458 -0.2328  0.5237  0.4588
   66MOL0     C 8830  10.724   4.712   3.595 -0.1284  0.2140  0.6494
   66MOL0     C 8831  10.794   4.606   3.664  0.5867 -0.4433  0.1888
   66MOL0     C 8832  10.922   4.576   3.648  0.2150 -0.1823  0.3431
   66MOL0     C 8833  11.002   4.644   3.551 -0.0435 -0.9246 -0.4026
   66MOL0     O 8834  11.132   4.596   3.533 -0.2283 -0.2921  0.3436
   66MOL0     C 8835  11.199   4.653   3.417 -0.0397 -0.3188  0.1438
   66MOL0     C 8836  11.331   4.586   3.390  0.3634 -0.2126  0.4676
   66MOL0     C 8837  11.328   4.436   3.363  0.0296 -0.2175  0.2605
   66MOL0     C 8838  11.475   4.378   3.339  0.0689  1.3956 -0.3103
   66MOL0     C 8839  11.561   4.467   3.255 -0.2162  0.2351 -0.3560
   66MOL0     C 8840  11.642   4.521   3.184  0.1468 -1.1909  0.0391
   66MOL0     C 8841  10.939   4.755   3.483 -0.7326 -0.3870  0.2079
   66MOL0     C 8842  10.802   4.788   3.509 -0.8792  0.1097  0.4056
   66MOL0     H 8843  10.291   4.677   3.650 -1.2579 -0.8757 -2.2305
   66MOL0     H 8844  10.065   4.741   3.647 -1.9089  2.0636 -0.3767
   66MOL0     H 8845   9.825   4.811   3.534 -1.2694  0.9886 -2.0147
   66MOL0     H 8846   9.888   4.886   3.687 -0.1521  2.8875  0.3222
   66MOL0     H 8847   9.769   5.076   3.666 -0.9678  0.3316 -1.2122
   66MOL0     H 8848   9.740   5.062   3.496  0.0713  1.1893  0.9614
   66MOL0     H 8849   9.593   4.859   3.534 -1.2476  0.1545 -0.7311
   66MOL0     H 8850   9.614   4.891   3.708  0.3284 -0.3647 -0.0771
   66MOL0     H 8851   9.514   5.129   3.675 -3.0179 -0.7355  0.5761
   66MOL0     H 8852   9.527   5.095   3.499 -1.7076  2.3467  0.4264
   66MOL0     H 8853   9.303   5.098   3.606 -1.2722 -0.4191 -0.2398
   66MOL0     H 8854   9.342   4.962   3.497  0.3229  1.3567  0.0052
   66MOL0     H 8855   9.362   4.802   3.685 -1.4204  0.2336  0.5388
   66MOL0     H 8856   9.341   4.927   3.806 -0.9409 -0.3782  0.4400
   66MOL0     H 8857   9.123   4.887   3.591 -1.5851 -0.2999  0.7476
   66MOL0     H 8858   9.133   4.782   3.737 -2.7604  0.9416  1.9341
   66MOL0     H 8859   9.094   5.083   3.734  0.1828  0.1019 -1.4519
   66MOL0     H 8860   9.134   5.004   3.879 -2.7957  0.7254  0.3503
   66MOL0     H 8861   8.805   5.064   3.669 -0.5723  2.0154  3.0321
   66MOL0     H 8862   8.540   4.944   3.697  0.0476  2.1861  1.5770
   66MOL0     H 8863   8.549   4.801   3.789 -0.9049  0.1806 -1.5975
   66MOL0     H 8864   8.400   4.961   3.894 -0.5646  3.4280 -1.4058
   66MOL0     H 8865   8.510   5.085   3.855 -0.5163  0.3738 -0.3691
   66MOL0     H 8866   8.517   5.048   4.103  1.4178 -1.9065  2.5795
   66MOL0     H 8867   8.670   4.985   4.038 -0.1876 -0.9417 -0.7113
   66MOL0     H 8868   8.566   4.752   4.057 -1.2829 -1.3259  0.5474
   66MOL0     H 8869   8.409   4.820   4.100 -0.0660  1.3065  1.2930
   66MOL0     H 8870   8.606   4.887   4.488 -1.7739  1.5492 -0.9625
   66MOL0     H 8871   8.725   4.876   4.692  1.2538 -1.8724  1.4958
   66MOL0     H 8872   8.894   4.881   4.697  0.0687  2.2649  1.0554
   66MOL0     H 8873   8.805   5.028   4.652  0.3260 -0.2556 -2.0513
   66MOL0     H 8874   9.232   5.147   4.453  1.0091  0.7377  2.5942
   66MOL0     H 8875   9.463   5.243   4.507  1.4424  0.4435 -2.7563
   66MOL0     H 8876   9.771   5.085   4.310  1.4958 -0.8291  0.9512
   66MOL0     H 8877   9.705   5.246   4.325 -0.5747 -0.3599 -0.4768
   66MOL0     H 8878   9.910   5.305   4.466 -0.6732  0.0047  1.0908
   66MOL0     H 8879   9.943   5.140   4.494  0.8649  0.8983  0.6278
   66MOL0     H 8880   9.969   5.307   4.240  0.9191  2.1139  2.7499
   66MOL0     H 8881  10.015   5.131   4.237  2.1912  1.1791 -1.1933
   66MOL0     H 8882  10.148   5.360   4.395  0.0242  0.7334 -0.5866
   66MOL0     H 8883  10.156   5.196   4.443  0.2723  0.0436 -0.5655
   66MOL0     H 8884  10.217   5.256   4.146 -1.5066  1.1743  0.7769
   66MOL0     H 8885  10.267   5.118   4.238  6.7187  0.7156  0.3567
   66MOL0     H 8886  10.372   5.395   4.258 -0.0953 -0.8975 -1.0933
   66MOL0     H 8887  10.391   5.296   4.398 -3.1829 -0.1375  0.8781
   66MOL0     H 8888  10.494   5.241   4.117 -2.7953  1.7309  0.5073
   66MOL0     H 8889  10.530   5.128   4.239  0.5622  0.0934 -0.4104
   66MOL0     H 8890  10.651   5.303   4.362 -0.1739 -2.3549 -0.1474
   66MOL0     H 8891  10.592   5.424   4.244 -0.2801 -0.0201  1.1767
   66MOL0     H 8892   9.660   4.906   4.392  0.7302 -0.6760  1.3381
   66MOL0     H 8893   9.417   4.782   4.350 -0.5023 -0.1105  0.0997
   66MOL0     H 8894   8.999   4.846   4.203 -1.4273  0.3431 -1.1611
   66MOL0     H 8895   8.780   4.800   4.120  0.7167  1.2190  0.2492
   66MOL0     H 8896  10.157   5.076   3.384  0.2247 -0.6601 -1.2215
   66MOL0     H 8897  10.404   5.010   3.414  0.0375 -0.7983 -0.7712
   66MOL0     H 8898  10.736   4.548   3.736 -2.7991  1.4729 -0.7839
   66MOL0     H 8899  10.982   4.505   3.705  2.7818  1.6824  0.1675
   66MOL0     H 8900  11.136   4.650   3.328 -0.0322  0.5535  0.0972
   66MOL0     H 8901  11.213   4.758   3.445  0.1649 -0.3872  0.3051
   66MOL0     H 8902  11.399   4.611   3.471  0.9313  1.4576 -0.4635
   66MOL0     H 8903  11.365   4.633   3.297 -2.8640 -2.0584 -1.8804
   66MOL0     H 8904  11.272   4.423   3.269  0.0962  2.6838 -0.2740
   66MOL0     H 8905  11.274   4.380   3.440  0.4671 -0.5910  0.3016
   66MOL0     H 8906  11.474   4.279   3.292  2.5140  0.8824  0.5487
   66MOL0     H 8907  11.517   4.371   3.440 -1.2012  1.7757  0.2758
   66MOL0     H 8908  11.703   4.573   3.114 -0.2361 -2.8299 -1.5913
   66MOL0     H 8909  10.995   4.822   3.419  1.1802 -0.9297  1.2439
   66MOL0     H 8910  10.764   4.874   3.453  1.2442 -0.1088 -1.5281
   67MOL0     O 8911   5.300   3.204   3.027 -0.0613 -0.0216  0.4578
   67MOL0     C 8912   5.399   3.187   2.950 -0.6586  0.6466 -0.2640
   67MOL0     O 8913   5.410   3.143   2.824  1.0433 -0.7043 -0.5035
   67MOL0     C 8914   5.299   3.111   2.751  0.7802  0.1319  0.1142
   67MOL0     C 8915   5.155   3.119   2.788  0.5220  0.7220  0.7912
   67MOL0     C 8916   5.061   3.061   2.705  1.3135 -0.5374 -0.3112
   67MOL0     C 8917   5.104   3.014   2.582 -1.4099 -0.3896  0.6096
   67MOL0     O 8918   5.025   2.964   2.488 -0.0352  1.1083  0.0979
   67MOL0     C 8919   4.889   2.940   2.524  0.1905 -0.7016 -0.1962
   67MOL0     C 8920   4.819   2.851   2.417 -0.3076  0.0862 -0.3051
   67MOL0     C 8921   4.891   2.716   2.380  0.5193 -1.8476 -0.2843
   67MOL0     C 8922   4.924   2.643   2.508 -0.0004 -0.0529 -1.2372
   67MOL0     C 8923   4.975   2.511   2.489  0.2436 -0.3063 -0.0996
   67MOL0     C 8924   4.866   2.411   2.512  0.3847  0.7663 -0.0321
   67MOL0     C 8925   4.922   2.272   2.500  1.0380 -0.1034 -0.3840
   67MOL0     C 8926   4.820   2.178   2.556  0.0397  0.4140 -0.2830
   67MOL0     N 8927   4.697   2.166   2.472 -0.3332  0.1306  0.0262
   67MOL0     C 8928   4.694   2.147   2.338  0.3718  0.8432 -0.0435
   67MOL0     C 8929   4.581   2.192   2.298 -0.2272 -0.1476  0.6758
   67MOL0     C 8930   4.531   2.227   2.155  0.3613 -0.3196  0.1493
   67MOL0     C 8931   4.621   2.336   2.091 -0.4036 -0.6252  0.5667
   67MOL0     C 8932   4.596   2.478   2.141 -0.1820  0.7083 -0.1571
   67MOL0     C 8933   4.606   2.570   2.014 -0.0287 -0.0403  0.9745
   67MOL0     O 8934   4.478   2.561   1.947 -0.6774  0.0205 -0.2982
   67MOL0     C 8935   4.376   2.627   2.014 -0.4459 -0.5051  0.2253
   67MOL0     C 8936   4.390   2.748   2.085 -0.2079  0.4312  0.0163
   67MOL0     C 8937   4.278   2.807   2.152  0.4493  0.9190  0.7089
   67MOL0     C 8938   4.295   2.952   2.192  0.1811  0.4958 -0.1561
   67MOL0     C 8939   4.156   2.736   2.145  0.5053  0.5384 -0.5771
   67MOL0     C 8940   4.037   2.784   2.225  0.1567  0.9373 -0.8348
   67MOL0     O 8941   3.913   2.755   2.178 -0.1184  0.1042 -0.2009
   67MOL0     C 8942   3.814   2.825   2.245  0.3595  0.9420  0.3429
   67MOL0     C 8943   3.746   2.765   2.359 -0.8227 -0.1977  0.9781
   67MOL0     C 8944   3.649   2.845   2.428 -0.3294  0.7325  0.2153
   67MOL0     C 8945   3.608   2.966   2.379 -0.2514 -0.5910 -0.1164
   67MOL0     O 8946   3.495   3.027   2.439  0.0595 -0.6326  0.4369
   67MOL0     C 8947   3.419   3.111   2.353  0.1474  1.5749 -0.7870
   67MOL0     C 8948   3.317   3.017   2.280 -0.3622  0.5853  0.1385
   67MOL0     C 8949   3.253   2.917   2.378 -0.3241  0.8112  0.5459
   67MOL0     C 8950   3.138   2.835   2.302  0.4275 -1.0012 -0.6626
   67MOL0     C 8951   3.161   2.709   2.211  0.2315 -0.2516 -0.5328
   67MOL0     C 8952   3.240   2.594   2.279  0.8934 -0.0022 -0.6959
   67MOL0     C 8953   3.238   2.475   2.177 -0.3780 -0.6371 -0.5599
   67MOL0     C 8954   3.286   2.345   2.245  0.5156  0.0621 -0.2523
   67MOL0    Cl 8955   3.170   2.280   2.375  0.0182 -0.1324 -0.3499
   67MOL0     C 8956   3.686   3.029   2.276  0.2343 -0.5209 -0.0465
   67MOL0     C 8957   3.788   2.958   2.215  0.8660 -0.1917 -0.0513
   67MOL0     O 8958   4.055   2.847   2.329 -0.0833  0.3360 -0.1562
   67MOL0     C 8959   4.140   2.614   2.083 -0.5518  0.2655 -0.3796
   67MOL0     C 8960   4.250   2.564   2.013 -0.2716  0.0196  0.6431
   67MOL0     N 8961   4.513   2.230   2.414  0.1825 -0.4491 -0.1774
   67MOL0     N 8962   4.575   2.214   2.514 -0.4430  0.0315 -0.2427
   67MOL0     C 8963   5.234   3.023   2.538  0.8944 -0.5204 -0.2478
   67MOL0     C 8964   5.326   3.076   2.622 -0.3787 -0.7536  0.6691
   67MOL0     C 8965   5.537   3.238   3.000  0.3243 -0.8026  0.3597
   67MOL0     C 8966   5.658   3.236   2.923  0.5794 -0.4579  0.4582
   67MOL0     C 8967   5.777   3.273   2.980 -1.1308 -0.0409  0.2473
   67MOL0     C 8968   5.786   3.334   3.101  0.2217  0.6005  0.1261
   67MOL0     O 8969   5.903   3.369   3.150  0.1935  0.6370 -0.1090
   67MOL0     C 8970   5.925   3.502   3.198  0.0489 -0.1301 -0.1054
   67MOL0     C 8971   6.054   3.572   3.139  0.0059  0.0394 -0.2828
   67MOL0     C 8972   6.031   3.585   2.988 -0.0551  0.9233  0.7666
   67MOL0     C 8973   6.155   3.637   2.912 -0.0364  0.4517  0.1821
   67MOL0     C 8974   6.268   3.545   2.931 -0.1687 -0.1876 -0.7218
   67MOL0     C 8975   6.368   3.473   2.955  0.7149  0.6044 -0.2403
   67MOL0     C 8976   5.670   3.338   3.179  0.0526 -0.2272 -0.2656
   67MOL0     C 8977   5.548   3.279   3.133 -0.4310 -0.2067 -0.1486
   67MOL0     H 8978   5.121   3.161   2.882 -3.3444  2.9030 -1.3250
   67MOL0     H 8979   4.961   3.043   2.745  0.0729 -0.1539 -3.0172
   67MOL0     H 8980   4.891   2.890   2.622  0.0568 -0.9772 -0.3311
   67MOL0     H 8981   4.852   3.042   2.537  3.0755  0.3859  0.2177
   67MOL0     H 8982   4.717   2.818   2.439  0.0083 -1.3089 -0.8181
   67MOL0     H 8983   4.812   2.920   2.333  1.9437 -1.2441 -1.6654
   67MOL0     H 8984   4.825   2.655   2.317  2.0663 -4.3197  0.3753
   67MOL0     H 8985   4.980   2.752   2.328  0.2485  0.1990  0.5691
   67MOL0     H 8986   4.997   2.697   2.568 -1.2061  0.7511 -0.4501
   67MOL0     H 8987   4.834   2.651   2.569  1.0506  1.5339  0.1678
   67MOL0     H 8988   5.018   2.509   2.388 -0.5050  0.5629 -0.4436
   67MOL0     H 8989   5.063   2.499   2.553  0.6975 -1.6939 -0.9344
   67MOL0     H 8990   4.811   2.427   2.605 -0.3868  0.3685 -0.4140
   67MOL0     H 8991   4.790   2.419   2.433  1.5971  0.5348 -1.2611
   67MOL0     H 8992   4.955   2.249   2.398  0.4149  1.8233 -1.0706
   67MOL0     H 8993   5.014   2.266   2.559  0.8758 -1.4377 -0.2326
   67MOL0     H 8994   4.791   2.197   2.659 -1.6230 -2.4571 -0.1121
   67MOL0     H 8995   4.859   2.076   2.555  0.2933  0.4430  1.8682
   67MOL0     H 8996   4.776   2.104   2.282 -0.3087  0.3136 -0.6595
   67MOL0     H 8997   4.545   2.131   2.104 -3.3575  0.1966 -2.2120
   67MOL0     H 8998   4.422   2.234   2.157  0.2397 -0.7533 -2.2129
   67MOL0     H 8999   4.607   2.317   1.984  1.7562 -1.0393  0.3154
   67MOL0     H 9000   4.725   2.309   2.114  0.4128  1.9172  0.1110
   67MOL0     H 9001   4.676   2.501   2.212  2.3708  0.5279 -2.7672
   67MOL0     H 9002   4.493   2.486   2.177 -0.1521 -1.7540  0.6452
   67MOL0     H 9003   4.682   2.532   1.945  0.0951  0.8765  0.5964
   67MOL0     H 9004   4.633   2.674   2.035 -1.9336  0.8234 -0.5794
   67MOL0     H 9005   4.485   2.800   2.097 -1.2730  3.3519 -2.6902
   67MOL0     H 9006   4.352   2.953   2.285  2.5333 -0.3019 -1.4963
   67MOL0     H 9007   4.351   3.001   2.111  0.7304 -0.8984 -0.6470
   67MOL0     H 9008   4.196   2.999   2.201 -0.3278 -0.6711  0.4126
   67MOL0     H 9009   3.776   2.666   2.391 -1.1901 -0.4030  0.6933
   67MOL0     H 9010   3.600   2.805   2.516 -0.2657  2.0487  0.8875
   67MOL0     H 9011   3.372   3.177   2.426 -0.7854 -0.8717  0.9796
   67MOL0     H 9012   3.472   3.171   2.278  1.0358 -0.2752 -1.7102
   67MOL0     H 9013   3.238   3.074   2.230 -0.7218 -1.4916 -1.8131
   67MOL0     H 9014   3.367   2.958   2.202 -1.2166 -0.1624  0.1454
   67MOL0     H 9015   3.209   2.965   2.465  2.0431  0.1949  2.1894
   67MOL0     H 9016   3.326   2.846   2.419 -0.5247  1.1119  1.4465
   67MOL0     H 9017   3.072   2.797   2.381  0.0720  0.1714 -0.3602
   67MOL0     H 9018   3.081   2.912   2.248 -0.2169 -1.5164 -0.7284
   67MOL0     H 9019   3.218   2.739   2.123  0.2308 -0.9123 -0.7613
   67MOL0     H 9020   3.059   2.680   2.182 -0.7253  1.8611  0.5049
   67MOL0     H 9021   3.342   2.626   2.300  0.3606  1.6579 -0.5235
   67MOL0     H 9022   3.186   2.567   2.370  0.8883  0.9753 -0.3990
   67MOL0     H 9023   3.317   2.502   2.106  0.8859  0.4126  1.1720
   67MOL0     H 9024   3.143   2.451   2.128 -1.5702 -0.8427  1.7410
   67MOL0     H 9025   3.384   2.353   2.293 -1.0284  0.4882  3.0530
   67MOL0     H 9026   3.288   2.272   2.163  0.2626 -3.0765  2.3488
   67MOL0     H 9027   3.666   3.120   2.222 -1.3474 -0.7905  0.0437
   67MOL0     H 9028   3.848   3.002   2.136  0.8939 -2.8694 -1.6655
   67MOL0     H 9029   4.053   2.552   2.100  0.1500 -0.2230  1.6028
   67MOL0     H 9030   4.245   2.465   1.970  2.0865  0.0526  0.1747
   67MOL0     H 9031   5.258   2.992   2.437 -0.4677  0.8942 -1.0486
   67MOL0     H 9032   5.429   3.084   2.590 -0.4425  0.8352  0.7579
   67MOL0     H 9033   5.661   3.189   2.825  4.5930 -2.5376  1.3802
   67MOL0     H 9034   5.861   3.262   2.911 -0.0198  0.4218  1.4882
   67MOL0     H 9035   5.841   3.563   3.163  0.2368 -0.7816 -1.8368
   67MOL0     H 9036   5.935   3.504   3.307  0.8772  1.0869 -0.1881
   67MOL0     H 9037   6.137   3.502   3.151 -1.0006 -0.9250  1.4872
   67MOL0     H 9038   6.080   3.670   3.181 -0.2573  0.4658 -1.0890
   67MOL0     H 9039   5.945   3.652   2.973 -0.4965  0.3853  0.8714
   67MOL0     H 9040   5.997   3.490   2.945  0.3023  1.3038 -0.3899
   67MOL0     H 9041   6.183   3.735   2.951 -2.0615  1.9153 -1.8385
   67MOL0     H 9042   6.131   3.643   2.806  1.1457  0.7247 -0.0721
   67MOL0     H 9043   6.454   3.415   2.982  0.8126  1.4185  1.3406
   67MOL0     H 9044   5.671   3.388   3.275 -1.2204  1.3314 -1.0225
   67MOL0     H 9045   5.461   3.276   3.198 -3.0302  1.7394 -3.2608
   68MOL0     O 9046   6.780   7.208   1.493  0.4073  0.1682  0.2826
   68MOL0     C 9047   6.853   7.286   1.430  0.7017  0.3511  1.2725
   68MOL0     O 9048   6.837   7.324   1.299 -0.0395  0.3338  0.7681
   68MOL0     C 9049   6.736   7.282   1.211  0.4680 -0.0944 -0.3660
   68MOL0     C 9050   6.635   7.184   1.236 -0.5649 -0.0167 -0.6787
   68MOL0     C 9051   6.550   7.142   1.137 -0.2865 -0.4984 -0.1218
   68MOL0     C 9052   6.556   7.206   1.008 -0.0061  1.0862  0.3064
   68MOL0     O 9053   6.481   7.166   0.904 -0.1981 -0.1010  0.1763
   68MOL0     C 9054   6.341   7.150   0.935 -0.1112 -0.0128 -0.4233
   68MOL0     C 9055   6.276   7.143   0.798  0.0562 -0.2223 -0.3657
   68MOL0     C 9056   6.151   7.242   0.782  0.1834  0.8067 -0.0890
   68MOL0     C 9057   6.061   7.195   0.662  0.3976 -0.6975  0.0426
   68MOL0     C 9058   5.948   7.291   0.623  0.5023  0.1921 -0.6182
   68MOL0     C 9059   5.881   7.214   0.504 -1.1471  0.1574 -0.9224
   68MOL0     C 9060   5.771   7.286   0.436  0.3048 -0.4781  0.1578
   68MOL0     C 9061   5.705   7.203   0.323 -0.6381 -0.0620 -0.0752
   68MOL0     N 9062   5.607   7.276   0.244 -0.0922  0.5070  0.6427
   68MOL0     C 9063   5.479   7.303   0.278  0.3515  0.5978  0.5858
   68MOL0     C 9064   5.427   7.363   0.168 -0.8477 -0.3207 -0.3970
   68MOL0     C 9065   5.279   7.375   0.151 -0.4139 -0.2086  0.5620
   68MOL0     C 9066   5.242   7.487   0.067  0.3439  0.2229  0.6209
   68MOL0     C 9067   5.091   7.532   0.078 -0.1217 -0.3034 -1.1170
   68MOL0     C 9068   5.028   7.562  -0.057  0.5962 -0.1923 -0.2243
   68MOL0     O 9069   5.075   7.685  -0.111  0.2022 -0.5380  0.0228
   68MOL0     C 9070   5.025   7.729  -0.230 -0.2023 -0.1259 -0.6886
   68MOL0     C 9071   5.087   7.843  -0.293  0.3939 -0.2628 -0.0338
   68MOL0     C 9072   5.040   7.889  -0.420 -0.0611  0.5381  0.4816
   68MOL0     C 9073   5.131   7.997  -0.483 -0.4540 -0.6102 -0.8903
   68MOL0     C 9074   4.921   7.837  -0.484 -0.2166  0.1912  0.0408
   68MOL0     C 9075   4.869   7.880  -0.614  0.2270  0.7149  0.7342
   68MOL0     O 9076   4.923   7.991  -0.675  0.2359 -0.0551 -0.3426
   68MOL0     C 9077   4.901   8.033  -0.806  0.8422  0.1248 -0.9844
   68MOL0     C 9078   5.008   8.101  -0.871  0.0716 -0.4360 -0.7531
   68MOL0     C 9079   4.992   8.147  -1.008 -0.1127  0.4546  0.8005
   68MOL0     C 9080   4.873   8.136  -1.073  0.6733 -0.4503 -0.2610
   68MOL0     O 9081   4.853   8.197  -1.193 -0.0394 -0.1968 -0.1752
   68MOL0     C 9082   4.914   8.324  -1.234  0.1908  0.1090  0.4449
   68MOL0     C 9083   4.822   8.387  -1.334  0.0644  0.5593  0.7143
   68MOL0     C 9084   4.832   8.302  -1.458 -1.1695  0.0689 -0.2853
   68MOL0     C 9085   4.747   8.353  -1.576 -0.7546  0.8639  0.3482
   68MOL0     C 9086   4.751   8.245  -1.691 -0.5865  0.0103  0.8956
   68MOL0     C 9087   4.659   8.271  -1.815  0.2274  0.2754 -0.0300
   68MOL0     C 9088   4.655   8.407  -1.872 -0.7821 -0.0741  0.1615
   68MOL0     C 9089   4.537   8.490  -1.804  0.1850  0.9227 -0.4226
   68MOL0    Cl 9090   4.510   8.641  -1.890 -0.4641 -0.2378 -0.3839
   68MOL0     C 9091   4.761   8.089  -1.000  0.2224  0.0776 -0.1229
   68MOL0     C 9092   4.773   8.029  -0.871 -0.4929  0.7037 -0.0366
   68MOL0     O 9093   4.778   7.819  -0.664  0.6100  0.0694  0.4029
   68MOL0     C 9094   4.874   7.716  -0.428 -0.5950  0.3255 -0.6775
   68MOL0     C 9095   4.920   7.665  -0.301  0.8986  0.1271 -0.2546
   68MOL0     N 9096   5.531   7.384   0.080 -0.5733  0.5957  0.6623
   68MOL0     N 9097   5.640   7.329   0.128  0.7338  0.5719  0.4305
   68MOL0     C 9098   6.656   7.295   0.987  0.7080 -0.7870  0.8117
   68MOL0     C 9099   6.747   7.340   1.079  0.4531 -0.3164 -0.1329
   68MOL0     C 9100   6.972   7.331   1.500 -0.1349 -0.1569 -0.6795
   68MOL0     C 9101   6.995   7.299   1.631  0.7800 -0.7405 -0.6088
   68MOL0     C 9102   7.108   7.354   1.702  0.5986 -0.1873 -0.6895
   68MOL0     C 9103   7.207   7.436   1.636  0.6096  0.0783 -0.5320
   68MOL0     O 9104   7.315   7.492   1.708 -0.9871 -0.5806  0.4783
   68MOL0     C 9105   7.312   7.640   1.701 -0.3977 -0.0627 -0.9197
   68MOL0     C 9106   7.370   7.701   1.831 -0.1006  1.0601  0.4277
   68MOL0     C 9107   7.514   7.748   1.819  0.5674 -0.6035  0.4212
   68MOL0     C 9108   7.539   7.814   1.953  0.5414  0.0962 -0.1683
   68MOL0     C 9109   7.660   7.894   1.962  0.9223  0.8787 -1.4033
   68MOL0     C 9110   7.757   7.962   1.940 -0.2405  0.4268 -0.8004
   68MOL0     C 9111   7.183   7.456   1.499  0.4919  0.1697  0.5903
   68MOL0     C 9112   7.063   7.420   1.436 -0.0326  0.5528  0.6873
   68MOL0     H 9113   6.626   7.138   1.334  1.3656 -0.3777 -0.6384
   68MOL0     H 9114   6.472   7.067   1.149 -2.3815  1.7145  1.0018
   68MOL0     H 9115   6.305   7.064   0.993  0.1051  0.2836  0.1575
   68MOL0     H 9116   6.309   7.245   0.976 -0.8161 -1.1126  1.7084
   68MOL0     H 9117   6.351   7.170   0.723  0.5634 -0.2799  0.1096
   68MOL0     H 9118   6.255   7.036   0.791 -3.4830 -0.3229  5.3585
   68MOL0     H 9119   6.099   7.246   0.878  0.3049  1.8900 -0.0609
   68MOL0     H 9120   6.192   7.341   0.763  1.4413  0.0417 -1.6204
   68MOL0     H 9121   6.126   7.184   0.574 -0.8212 -0.5034 -0.9053
   68MOL0     H 9122   6.019   7.094   0.663 -1.0722 -0.1152 -0.1409
   68MOL0     H 9123   5.876   7.310   0.704  1.6400 -0.4981  0.5896
   68MOL0     H 9124   5.991   7.387   0.593  1.0365  0.9607  2.2436
   68MOL0     H 9125   5.962   7.196   0.432  0.5166  1.6133  0.4840
   68MOL0     H 9126   5.846   7.122   0.552  0.0593  0.5039  0.7140
   68MOL0     H 9127   5.700   7.316   0.514  1.7948  1.7866  0.7258
   68MOL0     H 9128   5.816   7.375   0.390  4.0531 -1.8835  0.7638
   68MOL0     H 9129   5.660   7.112   0.366  1.2388 -0.4884  1.1158
   68MOL0     H 9130   5.783   7.173   0.252 -2.3490 -0.2590 -1.9686
   68MOL0     H 9131   5.432   7.271   0.371  1.6529  1.6969  1.6754
   68MOL0     H 9132   5.246   7.286   0.097  0.8915  0.5341 -1.6189
   68MOL0     H 9133   5.235   7.388   0.250 -1.4810  1.4068 -0.0903
   68MOL0     H 9134   5.259   7.462  -0.038 -1.9217 -0.9249  0.4733
   68MOL0     H 9135   5.297   7.576   0.099  0.8794  0.4079 -0.7371
   68MOL0     H 9136   5.079   7.625   0.134  0.8569 -1.9237  2.0527
   68MOL0     H 9137   5.037   7.450   0.126  1.1401 -0.9997 -0.8137
   68MOL0     H 9138   4.921   7.582  -0.046  0.3469 -1.9147  0.7018
   68MOL0     H 9139   5.050   7.477  -0.122  1.6192  1.0140 -1.5241
   68MOL0     H 9140   5.159   7.906  -0.242 -0.8805  1.9038 -0.7659
   68MOL0     H 9141   5.229   7.974  -0.439 -0.5473 -0.7514 -0.7559
   68MOL0     H 9142   5.135   7.987  -0.592  1.7186  1.4706 -1.0705
   68MOL0     H 9143   5.091   8.093  -0.449 -2.4050 -1.5329 -0.4133
   68MOL0     H 9144   5.105   8.105  -0.822  0.7303 -1.1804 -1.9510
   68MOL0     H 9145   5.068   8.210  -1.052 -0.1516 -0.6883 -1.0112
   68MOL0     H 9146   4.917   8.382  -1.142  1.1883  0.7728  0.0185
   68MOL0     H 9147   5.013   8.302  -1.277 -0.5478 -1.5002 -0.5376
   68MOL0     H 9148   4.717   8.391  -1.302 -0.8696  1.3037 -2.1082
   68MOL0     H 9149   4.855   8.489  -1.358  0.2874  1.4169  4.0570
   68MOL0     H 9150   4.800   8.201  -1.434  2.6866 -1.2866 -0.1920
   68MOL0     H 9151   4.933   8.296  -1.499 -1.6439 -0.4465 -1.3980
   68MOL0     H 9152   4.648   8.370  -1.533  0.2585 -0.7544  3.7478
   68MOL0     H 9153   4.795   8.441  -1.618  0.3934 -0.4281 -1.1595
   68MOL0     H 9154   4.713   8.148  -1.659 -3.0011  0.0967 -1.3731
   68MOL0     H 9155   4.854   8.230  -1.723 -0.1487 -0.8183  2.5729
   68MOL0     H 9156   4.697   8.205  -1.893 -1.0955 -1.4439  0.7115
   68MOL0     H 9157   4.559   8.232  -1.792  1.0140 -1.8757 -0.0731
   68MOL0     H 9158   4.650   8.397  -1.981  0.9848  0.2155  0.0093
   68MOL0     H 9159   4.742   8.468  -1.846 -0.2657 -1.0965  0.9055
   68MOL0     H 9160   4.560   8.508  -1.699 -0.7602 -1.6857  0.3136
   68MOL0     H 9161   4.445   8.430  -1.805 -0.7937  2.3602  0.0555
   68MOL0     H 9162   4.662   8.105  -1.041  0.4635  0.7436 -0.4595
   68MOL0     H 9163   4.687   8.005  -0.809 -0.7871 -1.9165 -1.3614
   68MOL0     H 9164   4.801   7.655  -0.479  0.8399 -0.4290 -1.9257
   68MOL0     H 9165   4.874   7.578  -0.255  3.6103 -2.3035 -1.7891
   68MOL0     H 9166   6.672   7.324   0.884 -0.6760  0.9409  1.0384
   68MOL0     H 9167   6.829   7.409   1.061  0.5627  0.0039  1.4080
   68MOL0     H 9168   6.921   7.233   1.677 -4.0371  2.6392 -2.6605
   68MOL0     H 9169   7.131   7.318   1.802 -2.2273 -1.3350 -0.3677
   68MOL0     H 9170   7.359   7.683   1.613 -0.5349 -1.1885 -1.5585
   68MOL0     H 9171   7.210   7.679   1.689 -0.2222  1.0602  0.7955
   68MOL0     H 9172   7.369   7.627   1.912  3.1346  0.5975  0.1563
   68MOL0     H 9173   7.308   7.791   1.845 -1.7454  0.2316 -1.0910
   68MOL0     H 9174   7.517   7.821   1.738  2.3574  0.5928  1.4968
   68MOL0     H 9175   7.584   7.666   1.802 -0.6141 -1.3586 -0.9832
   68MOL0     H 9176   7.526   7.745   2.036 -0.3710  0.1963 -0.2201
   68MOL0     H 9177   7.462   7.891   1.968  0.4007 -0.1985  0.6658
   68MOL0     H 9178   7.829   8.035   1.912  0.5326  1.0916  2.5548
   68MOL0     H 9179   7.262   7.515   1.454  1.7475 -1.3709  0.7075
   68MOL0     H 9180   7.046   7.446   1.332 -1.2091  0.1959  0.7710
   69MOL0     O 9181   6.439   2.603   4.313 -0.4422  0.0851  0.1943
   69MOL0     C 9182   6.492   2.688   4.387  0.0497 -0.4107 -0.0044
   69MOL0     O 9183   6.428   2.770   4.476 -0.3659 -1.2248  0.9789
   69MOL0     C 9184   6.291   2.769   4.482  0.0459 -0.0766 -0.7211
   69MOL0     C 9185   6.233   2.752   4.608 -0.2611  0.0967 -0.1493
   69MOL0     C 9186   6.088   2.765   4.619 -1.1235  0.3477  0.5948
   69MOL0     C 9187   6.011   2.774   4.510  0.4871 -0.8436  0.2182
   69MOL0     O 9188   5.874   2.772   4.506  0.1341 -0.5434  0.4008
   69MOL0     C 9189   5.817   2.877   4.584 -0.1910  0.0900 -0.3995
   69MOL0     C 9190   5.674   2.890   4.532  0.4179 -0.4438  0.6454
   69MOL0     C 9191   5.573   2.805   4.602  0.0354  0.6070  0.3535
   69MOL0     C 9192   5.447   2.814   4.525 -0.1532 -0.1987 -0.2705
   69MOL0     C 9193   5.335   2.734   4.595 -0.7406 -0.0304  0.0486
   69MOL0     C 9194   5.211   2.749   4.517  0.0801 -0.0281 -0.1020
   69MOL0     C 9195   5.087   2.708   4.606  0.5229  0.5286 -0.3640
   69MOL0     C 9196   4.961   2.677   4.524 -0.1479 -0.5224  0.4024
   69MOL0     N 9197   4.924   2.798   4.445 -0.1885  0.1909  0.7183
   69MOL0     C 9198   4.909   2.809   4.311  0.5570  0.4874  0.4550
   69MOL0     C 9199   4.899   2.946   4.279 -0.3022  0.2592 -0.0897
   69MOL0     C 9200   4.875   2.995   4.139  0.4169 -0.4763  0.3006
   69MOL0     C 9201   4.730   3.050   4.113 -0.7530 -0.0801  0.1871
   69MOL0     C 9202   4.719   3.092   3.972  0.2292 -0.3348 -0.2621
   69MOL0     C 9203   4.577   3.148   3.953 -0.1371  0.3866 -0.2461
   69MOL0     O 9204   4.583   3.241   3.852 -0.2863 -0.1459  0.8196
   69MOL0     C 9205   4.468   3.258   3.787  0.5051 -0.3070  0.5633
   69MOL0     C 9206   4.471   3.333   3.663 -0.2016  0.9082  0.4580
   69MOL0     C 9207   4.355   3.365   3.592  0.3925  0.7536 -0.2380
   69MOL0     C 9208   4.356   3.433   3.452 -0.1051  0.0653  0.2853
   69MOL0     C 9209   4.235   3.325   3.646  0.0516  0.8439 -0.9959
   69MOL0     C 9210   4.093   3.350   3.592 -0.2263  0.6279  0.0542
   69MOL0     O 9211   4.001   3.247   3.602 -0.4225 -0.2001 -0.9969
   69MOL0     C 9212   3.881   3.251   3.548  0.0754  0.3830  0.6690
   69MOL0     C 9213   3.767   3.244   3.620  0.4047 -0.6287  0.3249
   69MOL0     C 9214   3.642   3.262   3.561 -0.0094 -1.1137  0.0156
   69MOL0     C 9215   3.624   3.279   3.423 -0.5431  0.4675  0.6883
   69MOL0     O 9216   3.511   3.299   3.354 -0.4098 -0.6701 -0.3507
   69MOL0     C 9217   3.396   3.226   3.399  0.4281  0.1101 -0.5108
   69MOL0     C 9218   3.287   3.328   3.411  0.1196 -0.1899 -0.0035
   69MOL0     C 9219   3.155   3.246   3.428 -0.6188  0.3191  0.0344
   69MOL0     C 9220   3.036   3.332   3.470 -0.7765  0.4866  0.5451
   69MOL0     C 9221   2.909   3.248   3.483  0.7419  0.5700 -0.4413
   69MOL0     C 9222   2.787   3.338   3.500 -0.4536 -0.7000  0.3956
   69MOL0     C 9223   2.661   3.272   3.534  0.4476 -0.3634  0.5988
   69MOL0     C 9224   2.540   3.359   3.548 -0.7341  0.1891 -0.8847
   69MOL0    Cl 9225   2.561   3.466   3.693  0.1820  0.0501 -0.1297
   69MOL0     C 9226   3.735   3.269   3.345 -0.5403  0.0902  0.6367
   69MOL0     C 9227   3.865   3.267   3.406 -0.1968  0.3172 -0.7000
   69MOL0     O 9228   4.072   3.460   3.535  0.3077  0.2343 -0.0115
   69MOL0     C 9229   4.230   3.258   3.771  0.4747  0.0643  0.3885
   69MOL0     C 9230   4.344   3.218   3.837  0.1913 -0.0775 -0.5134
   69MOL0     N 9231   4.887   3.008   4.401  0.5762 -0.0532 -0.2116
   69MOL0     N 9232   4.899   2.923   4.495  0.2353 -0.0556 -0.5154
   69MOL0     C 9233   6.063   2.797   4.389 -1.3317 -0.6101  0.5609
   69MOL0     C 9234   6.204   2.783   4.370  0.3736 -0.8479 -0.1037
   69MOL0     C 9235   6.634   2.706   4.368  0.3255  0.7792 -0.3837
   69MOL0     C 9236   6.707   2.623   4.277  0.7612 -0.8828 -0.5452
   69MOL0     C 9237   6.845   2.627   4.265 -0.4345 -0.1950 -0.4768
   69MOL0     C 9238   6.917   2.732   4.333  0.1311 -0.3681  0.8577
   69MOL0     O 9239   7.054   2.751   4.348  0.2356 -0.1744  0.7470
   69MOL0     C 9240   7.136   2.676   4.251 -0.1188  0.0129  0.7112
   69MOL0     C 9241   7.128   2.740   4.106  0.3257  0.1895  0.7715
   69MOL0     C 9242   7.221   2.865   4.082 -0.2783 -0.1724  0.3505
   69MOL0     C 9243   7.183   2.950   3.956  0.0531  0.0333  0.3821
   69MOL0     C 9244   7.211   2.875   3.835  0.2043 -0.1972 -0.4845
   69MOL0     C 9245   7.227   2.833   3.719  0.3551  0.2047 -0.2205
   69MOL0     C 9246   6.847   2.816   4.415  0.3440  0.1410  0.0676
   69MOL0     C 9247   6.712   2.795   4.438  0.7080 -0.3310 -0.9732
   69MOL0     H 9248   6.297   2.731   4.694 -0.1349  1.2911  0.0640
   69MOL0     H 9249   6.054   2.759   4.722  2.2279 -0.4459  1.7883
   69MOL0     H 9250   5.818   2.854   4.690  2.0408  1.9759  0.0584
   69MOL0     H 9251   5.872   2.968   4.561  1.4921 -1.4454 -3.0150
   69MOL0     H 9252   5.637   2.992   4.550  0.0750 -0.5667  0.6447
   69MOL0     H 9253   5.670   2.869   4.425 -0.8525  2.0044  0.1359
   69MOL0     H 9254   5.615   2.704   4.602 -1.0003  0.1275 -1.3230
   69MOL0     H 9255   5.557   2.842   4.704  2.4019  0.2479  0.9007
   69MOL0     H 9256   5.425   2.918   4.499 -0.8470 -0.0848  0.6990
   69MOL0     H 9257   5.456   2.762   4.430  0.1488  2.2120 -1.6525
   69MOL0     H 9258   5.357   2.627   4.594  0.1848  0.1531 -1.2181
   69MOL0     H 9259   5.332   2.770   4.699  2.7011 -3.2837  1.4723
   69MOL0     H 9260   5.205   2.854   4.487 -1.6645 -0.4264 -1.2954
   69MOL0     H 9261   5.226   2.689   4.427  0.8059  1.3957 -0.9540
   69MOL0     H 9262   5.087   2.622   4.674 -1.6030 -1.2717 -2.4234
   69MOL0     H 9263   5.051   2.798   4.657  0.0220  0.4752 -0.6155
   69MOL0     H 9264   4.880   2.633   4.584  2.9460 -4.4342  2.2127
   69MOL0     H 9265   4.998   2.592   4.465  0.3033 -1.4979  2.0429
   69MOL0     H 9266   4.916   2.722   4.247  0.5965  1.1431 -0.4647
   69MOL0     H 9267   4.946   3.076   4.121  0.1073 -0.6551 -2.0262
   69MOL0     H 9268   4.904   2.915   4.070 -1.5166 -0.9939  0.0498
   69MOL0     H 9269   4.685   3.128   4.175 -1.2470  0.4656 -0.8316
   69MOL0     H 9270   4.667   2.961   4.123 -0.0758 -0.6790 -0.7039
   69MOL0     H 9271   4.734   3.010   3.901  1.2364  0.6826 -1.2505
   69MOL0     H 9272   4.788   3.175   3.956 -2.3745  1.6098 -2.6437
   69MOL0     H 9273   4.524   3.189   4.039  0.4904 -3.4112  2.1995
   69MOL0     H 9274   4.515   3.064   3.920 -0.6228 -0.1042  1.7582
   69MOL0     H 9275   4.559   3.360   3.606 -0.3724 -0.1607 -0.3473
   69MOL0     H 9276   4.318   3.365   3.375  0.4787 -0.7293  0.6812
   69MOL0     H 9277   4.292   3.522   3.451 -0.5978 -0.0565  4.1132
   69MOL0     H 9278   4.455   3.474   3.430  0.8828 -1.1772  2.1236
   69MOL0     H 9279   3.786   3.228   3.725  0.5080 -0.8854  0.2674
   69MOL0     H 9280   3.561   3.265   3.632  0.0479 -2.2331  0.1465
   69MOL0     H 9281   3.366   3.140   3.339 -2.0670  0.1190  0.6114
   69MOL0     H 9282   3.410   3.190   3.501 -1.5970  1.8853  0.4835
   69MOL0     H 9283   3.295   3.407   3.486  0.7449  0.8425 -1.1183
   69MOL0     H 9284   3.288   3.390   3.320  0.5421  1.2178  0.9262
   69MOL0     H 9285   3.160   3.160   3.495  0.0394 -0.5898 -1.1403
   69MOL0     H 9286   3.123   3.207   3.332 -0.1642 -1.3171  0.5147
   69MOL0     H 9287   3.051   3.384   3.565  0.1297  3.6222 -1.1845
   69MOL0     H 9288   3.024   3.426   3.415  2.1982  1.7820  1.8727
   69MOL0     H 9289   2.931   3.181   3.567  1.2960 -0.3295 -1.2857
   69MOL0     H 9290   2.895   3.179   3.400  1.1334 -1.9307  1.4564
   69MOL0     H 9291   2.808   3.409   3.581 -1.0930 -0.0813  0.0268
   69MOL0     H 9292   2.754   3.395   3.413 -1.1204 -1.6994 -0.0237
   69MOL0     H 9293   2.672   3.200   3.615  0.5054 -2.4553 -1.1718
   69MOL0     H 9294   2.639   3.212   3.446  0.2039  1.8420 -0.9437
   69MOL0     H 9295   2.456   3.295   3.577 -0.0535  0.7555  2.7376
   69MOL0     H 9296   2.525   3.408   3.451  0.0632 -0.0962 -1.1601
   69MOL0     H 9297   3.732   3.286   3.238 -0.8495  1.4562  0.8542
   69MOL0     H 9298   3.956   3.260   3.346 -0.3595  0.7674 -1.0116
   69MOL0     H 9299   4.137   3.232   3.820  0.5596 -0.1556  0.4348
   69MOL0     H 9300   4.337   3.179   3.938  0.9224  1.3853  0.1445
   69MOL0     H 9301   5.993   2.787   4.307  1.6365 -0.9268 -2.1132
   69MOL0     H 9302   6.242   2.805   4.271 -0.4591  2.4964  0.2107
   69MOL0     H 9303   6.652   2.539   4.235  0.4752 -0.1884 -1.6148
   69MOL0     H 9304   6.900   2.547   4.217  0.4770 -3.6933  5.4865
   69MOL0     H 9305   7.240   2.681   4.286 -0.2933 -1.0514  1.4355
   69MOL0     H 9306   7.102   2.572   4.245 -1.5275  0.5243 -2.3244
   69MOL0     H 9307   7.025   2.772   4.092 -0.1504 -1.5822 -0.0393
   69MOL0     H 9308   7.151   2.671   4.025 -1.1117  2.0611 -1.3309
   69MOL0     H 9309   7.323   2.829   4.067  0.0305  1.3279 -1.7952
   69MOL0     H 9310   7.229   2.923   4.174 -0.3469  0.2903  0.0703
   69MOL0     H 9311   7.237   3.045   3.947 -1.4617  0.7998 -1.1255
   69MOL0     H 9312   7.076   2.974   3.949  0.1195 -0.1149 -1.7937
   69MOL0     H 9313   7.241   2.795   3.619  2.2446 -1.6840  0.6709
   69MOL0     H 9314   6.898   2.879   4.487 -2.7284  1.1114  1.5693
   69MOL0     H 9315   6.661   2.852   4.514  1.0264  0.3164 -1.2393
   70MOL0     O 9316  10.624   4.675   0.968 -0.0668  0.2549 -0.0559
   70MOL0     C 9317  10.695   4.770   0.934  0.5200  0.7199 -0.3800
   70MOL0     O 9318  10.651   4.880   0.855  0.6712 -0.0140  0.6124
   70MOL0     C 9319  10.520   4.890   0.810  0.1133  0.7725  0.1051
   70MOL0     C 9320  10.472   4.819   0.695 -0.2027  0.0651  0.0257
   70MOL0     C 9321  10.336   4.823   0.664  1.2744 -0.0457 -0.8489
   70MOL0     C 9322  10.243   4.903   0.725  0.0198 -0.3157 -0.7864
   70MOL0     O 9323  10.121   4.915   0.668 -0.1838  0.0481 -0.6901
   70MOL0     C 9324  10.047   5.037   0.690  0.3166  0.3651 -0.3326
   70MOL0     C 9325   9.899   5.031   0.634  0.0211  0.5091  0.5465
   70MOL0     C 9326   9.811   4.938   0.710  0.0833  0.1216 -0.3809
   70MOL0     C 9327   9.677   4.938   0.641  0.1549  0.4786 -0.0920
   70MOL0     C 9328   9.587   4.831   0.703 -0.3674 -0.1875  1.0572
   70MOL0     C 9329   9.453   4.821   0.631 -0.0286  0.3484  0.5156
   70MOL0     C 9330   9.456   4.765   0.487  0.5259 -0.3619  0.6573
   70MOL0     C 9331   9.495   4.620   0.479 -0.3522  0.4558 -0.1697
   70MOL0     N 9332   9.497   4.551   0.348 -0.8081  0.3428  0.9257
   70MOL0     C 9333   9.606   4.530   0.271  0.3019 -0.7716  0.3028
   70MOL0     C 9334   9.559   4.510   0.141  0.6314 -0.4709 -0.2060
   70MOL0     C 9335   9.635   4.499   0.015  0.0314 -0.4605  0.7301
   70MOL0     C 9336   9.734   4.385  -0.007 -0.8029  0.5211 -1.2134
   70MOL0     C 9337   9.674   4.248  -0.043 -0.0247  0.7715 -0.0583
   70MOL0     C 9338   9.792   4.155  -0.087 -0.3314  0.5740 -0.0557
   70MOL0     O 9339   9.866   4.120   0.026 -0.8375 -0.4835 -0.6829
   70MOL0     C 9340   9.984   4.051   0.023  0.5257 -0.1506 -0.3606
   70MOL0     C 9341  10.019   3.971   0.136  0.3950 -1.0233  0.2785
   70MOL0     C 9342  10.133   3.894   0.156  0.6702 -0.0317 -0.1117
   70MOL0     C 9343  10.157   3.816   0.287 -0.0293  0.8505  0.0239
   70MOL0     C 9344  10.221   3.892   0.036  0.6686  0.2296  0.4620
   70MOL0     C 9345  10.356   3.828   0.026 -0.1262  0.7181  0.4262
   70MOL0     O 9346  10.428   3.857  -0.091  0.4754  0.2748 -0.8139
   70MOL0     C 9347  10.562   3.814  -0.109 -0.1090  0.9121 -0.1087
   70MOL0     C 9348  10.665   3.899  -0.083 -1.3487 -0.4608 -0.3921
   70MOL0     C 9349  10.795   3.846  -0.086  0.0366  0.2530  0.0878
   70MOL0     C 9350  10.818   3.708  -0.099 -0.8994 -0.8687 -0.8023
   70MOL0     O 9351  10.944   3.665  -0.108  0.0059  0.8326 -0.8159
   70MOL0     C 9352  11.056   3.713  -0.028 -0.5969  0.1089 -0.2870
   70MOL0     C 9353  11.168   3.606   0.000  0.0605 -0.0994 -0.1180
   70MOL0     C 9354  11.283   3.696   0.054  0.6243 -0.6734 -0.4064
   70MOL0     C 9355  11.388   3.611   0.124 -0.3714 -1.2101 -0.0565
   70MOL0     C 9356  11.497   3.554   0.035  0.0286 -0.2053 -0.1173
   70MOL0     C 9357  11.470   3.454  -0.080  0.5504 -0.0519 -0.1554
   70MOL0     C 9358  11.609   3.420  -0.143  0.4057 -0.2989  0.8302
   70MOL0     C 9359  11.692   3.328  -0.070  0.0670 -0.1308 -0.8064
   70MOL0    Cl 9360  11.766   3.221  -0.188 -0.2335  0.2015 -0.3311
   70MOL0     C 9361  10.713   3.624  -0.114  0.4135  0.0875  0.2156
   70MOL0     C 9362  10.584   3.682  -0.130  0.0836 -0.5889 -0.3702
   70MOL0     O 9363  10.378   3.749   0.114 -0.1698  0.7505  0.5788
   70MOL0     C 9364  10.180   3.954  -0.089  1.2809  0.8684  0.1293
   70MOL0     C 9365  10.064   4.035  -0.091 -0.1687 -0.0853 -0.3538
   70MOL0     N 9366   9.423   4.494   0.149 -0.0196  0.8873 -0.1990
   70MOL0     N 9367   9.391   4.520   0.272 -0.2447 -0.8158  0.8646
   70MOL0     C 9368  10.290   4.976   0.841  0.2886 -0.5338  1.2853
   70MOL0     C 9369  10.427   4.968   0.878 -0.4612  0.2996 -0.7702
   70MOL0     C 9370  10.837   4.772   0.980  0.4442  0.1763 -0.1350
   70MOL0     C 9371  10.899   4.891   1.025 -0.2852  0.1613  0.0879
   70MOL0     C 9372  11.027   4.890   1.078  0.1547  0.5474  0.1564
   70MOL0     C 9373  11.102   4.769   1.087 -0.3299  0.8144  0.3422
   70MOL0     O 9374  11.235   4.769   1.125 -0.0375  0.4150 -0.0419
   70MOL0     C 9375  11.334   4.749   1.024 -0.6104  0.8308  0.2220
   70MOL0     C 9376  11.463   4.840   1.053  0.1179  0.5333 -0.2531
   70MOL0     C 9377  11.549   4.771   1.159  0.0696  0.6032 -0.3732
   70MOL0     C 9378  11.664   4.689   1.114  0.0147  0.5304 -0.6872
   70MOL0     C 9379  11.619   4.557   1.062  0.6662 -0.2862  0.5830
   70MOL0     C 9380  11.584   4.445   1.026 -0.2550  0.1737 -0.9068
   70MOL0     C 9381  11.044   4.649   1.045  0.2963  0.8522  0.0377
   70MOL0     C 9382  10.909   4.651   0.999  0.4184 -0.7274 -0.7551
   70MOL0     H 9383  10.530   4.748   0.638  2.0164  2.5670 -1.0611
   70MOL0     H 9384  10.297   4.770   0.578 -2.0860 -1.8133  1.5255
   70MOL0     H 9385  10.038   5.065   0.796 -0.8750 -1.6008  0.1414
   70MOL0     H 9386  10.094   5.118   0.634  2.3702  0.5613  1.4900
   70MOL0     H 9387   9.857   5.132   0.640 -2.5854 -0.4246 -0.4181
   70MOL0     H 9388   9.908   4.999   0.530  1.0717  1.1979  0.4109
   70MOL0     H 9389   9.849   4.835   0.705 -0.6964 -0.3433  1.9786
   70MOL0     H 9390   9.804   4.961   0.817 -0.0335 -1.3895 -0.0310
   70MOL0     H 9391   9.643   5.041   0.649 -1.9241 -0.0942 -0.9169
   70MOL0     H 9392   9.681   4.922   0.533  2.0529 -0.0929  0.0165
   70MOL0     H 9393   9.635   4.733   0.698 -1.6649 -0.8789  1.5946
   70MOL0     H 9394   9.574   4.856   0.809  2.5336  0.9426  1.2489
   70MOL0     H 9395   9.389   4.757   0.691 -1.2632 -0.1428 -1.2292
   70MOL0     H 9396   9.417   4.924   0.643 -0.6262 -0.0220  2.1114
   70MOL0     H 9397   9.355   4.772   0.446  0.3518  0.2202  1.1636
   70MOL0     H 9398   9.532   4.815   0.427  1.8304 -1.7059  1.1164
   70MOL0     H 9399   9.417   4.566   0.533 -0.0753  0.5600  0.3394
   70MOL0     H 9400   9.593   4.600   0.523 -0.8926 -2.0290  0.0539
   70MOL0     H 9401   9.705   4.544   0.314  0.4656  0.6378 -0.4615
   70MOL0     H 9402   9.557   4.494  -0.062 -0.2801 -0.5318  1.0505
   70MOL0     H 9403   9.693   4.591  -0.001 -2.3794  0.7039 -2.5312
   70MOL0     H 9404   9.800   4.381   0.080  0.9155  0.1475 -2.4548
   70MOL0     H 9405   9.795   4.415  -0.094  1.7257 -2.1493 -0.5268
   70MOL0     H 9406   9.602   4.251  -0.125 -0.5526 -3.1823  0.0907
   70MOL0     H 9407   9.622   4.192   0.036 -0.3347 -1.9386 -2.0693
   70MOL0     H 9408   9.847   4.214  -0.161 -0.8301  0.2847 -0.6704
   70MOL0     H 9409   9.755   4.067  -0.141 -1.7932  0.6658  0.7583
   70MOL0     H 9410   9.943   3.969   0.213 -1.4284 -2.7334 -1.4568
   70MOL0     H 9411  10.132   3.711   0.268 -1.8462  1.3216 -0.3663
   70MOL0     H 9412  10.256   3.814   0.333  0.0459  1.7086 -0.0752
   70MOL0     H 9413  10.083   3.851   0.359  0.1283  0.1594  0.5273
   70MOL0     H 9414  10.657   4.005  -0.061 -1.3466 -0.9436  2.3556
   70MOL0     H 9415  10.879   3.914  -0.089 -0.5942  1.2591  2.6857
   70MOL0     H 9416  11.100   3.796  -0.084  1.6719 -0.6876  0.2173
   70MOL0     H 9417  11.020   3.746   0.070 -1.9230 -0.5545 -0.5248
   70MOL0     H 9418  11.128   3.528   0.065 -0.5180  1.0889  0.9885
   70MOL0     H 9419  11.198   3.560  -0.094 -1.4624 -1.9953  0.2592
   70MOL0     H 9420  11.241   3.765   0.128  1.5220 -1.5809  1.0002
   70MOL0     H 9421  11.324   3.759  -0.025 -0.4572 -0.0467 -0.4949
   70MOL0     H 9422  11.438   3.678   0.195  1.8659 -1.4228 -1.3683
   70MOL0     H 9423  11.345   3.528   0.182  1.9022 -2.0683  0.5064
   70MOL0     H 9424  11.565   3.508   0.107  0.1661 -0.6964 -0.5514
   70MOL0     H 9425  11.557   3.638  -0.003 -1.6683  0.8141 -0.6798
   70MOL0     H 9426  11.424   3.357  -0.059  1.2872 -1.1742 -3.1350
   70MOL0     H 9427  11.404   3.493  -0.157  2.3090  1.3610 -1.0179
   70MOL0     H 9428  11.671   3.506  -0.169 -0.1087 -0.7031 -2.0084
   70MOL0     H 9429  11.576   3.373  -0.236 -0.5991 -0.4008  1.2247
   70MOL0     H 9430  11.640   3.262   0.001  1.6383  0.6694  1.1847
   70MOL0     H 9431  11.765   3.390  -0.018 -1.2704  0.7701  0.0544
   70MOL0     H 9432  10.740   3.519  -0.127 -2.6580 -0.7052 -0.6086
   70MOL0     H 9433  10.509   3.610  -0.159 -0.1887 -0.1960 -0.6487
   70MOL0     H 9434  10.238   3.947  -0.181 -2.1046  0.9559 -2.1764
   70MOL0     H 9435  10.034   4.090  -0.180  0.4777 -1.5175 -1.4954
   70MOL0     H 9436  10.217   5.037   0.893 -1.1990 -1.1108 -0.0502
   70MOL0     H 9437  10.459   5.027   0.964 -1.7538  1.5462 -1.0991
   70MOL0     H 9438  10.843   4.984   1.034 -1.8182 -0.5332 -1.5130
   70MOL0     H 9439  11.079   4.981   1.105 -0.6252  1.0737 -0.0866
   70MOL0     H 9440  11.364   4.645   1.008  0.1786  1.1115 -0.1559
   70MOL0     H 9441  11.291   4.777   0.928  2.6068  0.8601 -1.3268
   70MOL0     H 9442  11.420   4.932   1.094 -2.5958 -0.9749  0.5107
   70MOL0     H 9443  11.517   4.865   0.961  0.3256  0.6452 -0.1034
   70MOL0     H 9444  11.484   4.714   1.226 -2.5582  1.8257 -1.7266
   70MOL0     H 9445  11.590   4.855   1.215  0.5726  0.5192 -0.6115
   70MOL0     H 9446  11.733   4.679   1.199  3.1347 -1.7948 -3.2582
   70MOL0     H 9447  11.721   4.737   1.035  1.3902 -2.0663 -1.3954
   70MOL0     H 9448  11.554   4.346   0.999  0.8932  0.0998 -2.0433
   70MOL0     H 9449  11.101   4.558   1.065 -0.5903  0.7215  2.2341
   70MOL0     H 9450  10.859   4.558   0.974 -1.6625  0.2049 -0.2787
   71MOL0     O 9451   1.110  11.168   8.220 -0.1241  0.7824  0.1162
   71MOL0     C 9452   1.188  11.260   8.224 -0.7853 -0.6537 -0.2919
   71MOL0     O 9453   1.160  11.396   8.256 -0.8731  0.4057 -0.5460
   71MOL0     C 9454   1.037  11.442   8.270  0.7206 -0.8677  0.4802
   71MOL0     C 9455   0.983  11.460   8.389 -1.1512  0.2563  0.0478
   71MOL0     C 9456   0.873  11.546   8.412  0.9010 -0.9151  0.2302
   71MOL0     C 9457   0.803  11.602   8.304  0.3190  1.2488  0.0451
   71MOL0     O 9458   0.689  11.674   8.326 -0.1122  0.3616  0.1041
   71MOL0     C 9459   0.564  11.651   8.260 -0.3577  0.0885  0.6851
   71MOL0     C 9460   0.470  11.558   8.336  0.2382  0.2745 -0.0556
   71MOL0     C 9461   0.342  11.550   8.265  0.0455 -0.4846 -0.1227
   71MOL0     C 9462   0.238  11.459   8.330 -0.0126  0.0841 -0.1128
   71MOL0     C 9463   0.111  11.465   8.235  0.1428  0.5088 -0.0774
   71MOL0     C 9464   0.006  11.376   8.292 -0.0155 -0.5597  0.5766
   71MOL0     C 9465  -0.086  11.329   8.174  0.0518 -0.8159  1.1241
   71MOL0     C 9466  -0.197  11.230   8.219  0.7082  0.0545  0.1111
   71MOL0     N 9467  -0.273  11.267   8.338 -0.5890  0.6178  0.0279
   71MOL0     C 9468  -0.346  11.382   8.364  0.0212  0.3585  0.2052
   71MOL0     C 9469  -0.386  11.366   8.496  0.2071  0.5755 -0.1013
   71MOL0     C 9470  -0.465  11.462   8.574 -0.5242 -0.6948  0.1539
   71MOL0     C 9471  -0.606  11.469   8.527  0.4120 -0.3564  0.6809
   71MOL0     C 9472  -0.693  11.567   8.612  0.1663  0.2774 -0.0269
   71MOL0     C 9473  -0.837  11.579   8.558 -0.0560  0.8121  0.7127
   71MOL0     O 9474  -0.900  11.700   8.604 -0.1196 -0.7350 -0.6261
   71MOL0     C 9475  -1.036  11.710   8.606  0.3574  0.8374  0.5399
   71MOL0     C 9476  -1.094  11.820   8.670  0.9231 -0.2729  0.2659
   71MOL0     C 9477  -1.231  11.839   8.673  0.7782 -0.1455 -0.9572
   71MOL0     C 9478  -1.268  11.971   8.735  0.2798 -0.5922 -1.1348
   71MOL0     C 9479  -1.323  11.756   8.608  1.3032  0.6695  0.4704
   71MOL0     C 9480  -1.469  11.764   8.613 -0.7377  0.3365 -0.1030
   71MOL0     O 9481  -1.543  11.704   8.511 -0.0175  0.3374 -0.5718
   71MOL0     C 9482  -1.680  11.726   8.493  0.6602  0.4231  0.6496
   71MOL0     C 9483  -1.753  11.841   8.527 -0.5702 -0.5368 -0.9167
   71MOL0     C 9484  -1.885  11.856   8.489  0.3339 -0.5707 -0.0875
   71MOL0     C 9485  -1.956  11.745   8.429 -0.2640  0.1724 -0.3555
   71MOL0     O 9486  -2.087  11.742   8.386  0.1344  0.5255  0.0647
   71MOL0     C 9487  -2.183  11.800   8.473  0.3170 -1.1344 -0.9719
   71MOL0     C 9488  -2.314  11.713   8.449 -0.3239  0.0921 -0.1742
   71MOL0     C 9489  -2.427  11.760   8.530  0.3169 -1.1312  0.2796
   71MOL0     C 9490  -2.547  11.670   8.494  1.1823 -0.5237  0.0619
   71MOL0     C 9491  -2.675  11.720   8.562 -1.0099  0.3260  0.3240
   71MOL0     C 9492  -2.729  11.609   8.662  0.1240  1.0633  0.0379
   71MOL0     C 9493  -2.837  11.660   8.767 -0.3226 -0.3020  0.0444
   71MOL0     C 9494  -2.779  11.766   8.867 -0.0080  0.3895 -0.0233
   71MOL0    Cl 9495  -2.870  11.805   9.005  0.2190  0.5649  0.2785
   71MOL0     C 9496  -1.882  11.637   8.390  0.5534  0.0152  0.7450
   71MOL0     C 9497  -1.755  11.621   8.427  0.7795 -0.6027  0.8718
   71MOL0     O 9498  -1.511  11.823   8.712  1.2289  0.1041  0.3341
   71MOL0     C 9499  -1.275  11.642   8.544  0.0484  0.0656  0.0115
   71MOL0     C 9500  -1.132  11.627   8.543  0.6626 -0.7051 -0.3936
   71MOL0     N 9501  -0.348  11.241   8.534  0.2597 -0.1628  0.6162
   71MOL0     N 9502  -0.279  11.180   8.444  0.5571 -0.5210  0.1146
   71MOL0     C 9503   0.845  11.558   8.177 -0.1062  0.0361  0.6163
   71MOL0     C 9504   0.953  11.476   8.156 -0.2451 -0.0189 -0.3287
   71MOL0     C 9505   1.333  11.229   8.190  0.9440 -0.2096  0.7662
   71MOL0     C 9506   1.433  11.329   8.175  0.6992 -0.5858 -0.6233
   71MOL0     C 9507   1.565  11.296   8.180 -0.1861 -0.7632 -0.6570
   71MOL0     C 9508   1.605  11.166   8.189  0.4230 -0.2437 -0.5904
   71MOL0     O 9509   1.739  11.146   8.191 -0.3640 -0.0605 -0.0348
   71MOL0     C 9510   1.791  11.039   8.271  0.2519 -0.1087 -0.1650
   71MOL0     C 9511   1.901  11.106   8.348 -0.4323  0.2437  0.6199
   71MOL0     C 9512   1.922  11.040   8.493  0.1854  0.2234  0.3894
   71MOL0     C 9513   2.015  11.095   8.591 -0.2262 -0.8017  0.4109
   71MOL0     C 9514   2.147  11.083   8.530 -0.9510  0.1453 -0.0100
   71MOL0     C 9515   2.245  11.068   8.469 -1.5012 -1.1322  1.2153
   71MOL0     C 9516   1.516  11.067   8.183  0.5373  0.0723  0.0497
   71MOL0     C 9517   1.373  11.093   8.188 -0.3286 -0.5083 -0.1723
   71MOL0     H 9518   1.044  11.417   8.468  0.3345 -0.1858 -1.2736
   71MOL0     H 9519   0.813  11.546   8.503 -3.5718  2.6252 -2.2708
   71MOL0     H 9520   0.537  11.757   8.264 -0.8383 -0.0283  4.2467
   71MOL0     H 9521   0.582  11.619   8.157  2.0795  0.4368  0.9431
   71MOL0     H 9522   0.500  11.454   8.349 -3.0526 -0.7660  0.0328
   71MOL0     H 9523   0.439  11.594   8.435 -1.3722 -1.5868  0.1668
   71MOL0     H 9524   0.291  11.646   8.266 -0.3471 -0.6570 -1.3863
   71MOL0     H 9525   0.374  11.531   8.161 -0.6923 -0.0946 -0.4263
   71MOL0     H 9526   0.280  11.359   8.345  0.8725  0.2072 -1.5289
   71MOL0     H 9527   0.210  11.491   8.431  0.6194 -0.3909  0.2192
   71MOL0     H 9528   0.080  11.570   8.242 -1.4482 -0.0561  2.9408
   71MOL0     H 9529   0.147  11.435   8.136  2.3229  2.1744  0.1160
   71MOL0     H 9530   0.056  11.288   8.335 -0.1535 -0.6225  0.6077
   71MOL0     H 9531  -0.053  11.413   8.375  0.2502  1.1896  0.0221
   71MOL0     H 9532  -0.128  11.411   8.114  0.1392 -0.4994  1.4942
   71MOL0     H 9533  -0.017  11.277   8.107  4.1573  3.0021  1.8877
   71MOL0     H 9534  -0.150  11.134   8.240 -1.5500 -0.6743  2.4277
   71MOL0     H 9535  -0.264  11.212   8.134  0.6732  1.0468 -0.0957
   71MOL0     H 9536  -0.364  11.461   8.291  0.9753 -0.2545 -0.7150
   71MOL0     H 9537  -0.457  11.433   8.679  0.7348  0.3396  0.3698
   71MOL0     H 9538  -0.408  11.554   8.561 -1.7029 -0.0452 -0.6175
   71MOL0     H 9539  -0.640  11.367   8.546 -1.3671 -0.1602 -1.1665
   71MOL0     H 9540  -0.602  11.503   8.423  1.4963  1.0965  1.1595
   71MOL0     H 9541  -0.646  11.664   8.633 -2.4329  1.1271  2.6874
   71MOL0     H 9542  -0.700  11.518   8.710  2.2684 -1.1556 -0.5068
   71MOL0     H 9543  -0.894  11.491   8.588 -3.2173  2.1586 -0.9049
   71MOL0     H 9544  -0.835  11.590   8.449 -0.1771  1.2146  0.7486
   71MOL0     H 9545  -1.030  11.898   8.710 -1.7853  1.3912  1.6936
   71MOL0     H 9546  -1.179  12.028   8.763  0.3306 -1.0705 -0.2730
   71MOL0     H 9547  -1.337  12.024   8.669  0.2252 -0.8310 -1.2698
   71MOL0     H 9548  -1.327  11.962   8.827 -1.8437  1.9298 -2.1353
   71MOL0     H 9549  -1.700  11.921   8.578 -2.0002  0.9669 -1.7148
   71MOL0     H 9550  -1.938  11.938   8.536 -0.0381 -0.0096 -1.4395
   71MOL0     H 9551  -2.139  11.820   8.571  0.4039  3.9501 -1.7653
   71MOL0     H 9552  -2.208  11.900   8.434  2.1833 -0.0345  0.5181
   71MOL0     H 9553  -2.342  11.711   8.344  1.4137 -2.1480 -0.6959
   71MOL0     H 9554  -2.300  11.608   8.478 -2.5767  0.6886  3.6706
   71MOL0     H 9555  -2.451  11.863   8.501  2.6291 -0.6851 -0.2591
   71MOL0     H 9556  -2.406  11.763   8.638  2.3244  1.5642 -0.0706
   71MOL0     H 9557  -2.578  11.679   8.389 -1.4190 -1.3042  0.7062
   71MOL0     H 9558  -2.522  11.564   8.509  0.2278 -1.3079 -3.1168
   71MOL0     H 9559  -2.757  11.730   8.490 -1.9439 -1.9876  0.9790
   71MOL0     H 9560  -2.660  11.816   8.612 -1.1721 -0.1189  1.2546
   71MOL0     H 9561  -2.779  11.529   8.607 -0.2500  2.2982 -1.4963
   71MOL0     H 9562  -2.655  11.552   8.718 -0.8430 -1.0438 -0.7164
   71MOL0     H 9563  -2.885  11.583   8.828  2.3566 -1.0367  1.3799
   71MOL0     H 9564  -2.915  11.710   8.709  0.5360  0.2672 -0.6367
   71MOL0     H 9565  -2.762  11.860   8.814 -0.3045 -0.3511 -1.5146
   71MOL0     H 9566  -2.685  11.723   8.901  1.6108  1.9571 -2.2141
   71MOL0     H 9567  -1.939  11.572   8.324  0.4527  1.5998 -0.8174
   71MOL0     H 9568  -1.704  11.528   8.404 -1.3882 -2.4210  2.9594
   71MOL0     H 9569  -1.340  11.563   8.507  0.2804 -1.1442  2.0356
   71MOL0     H 9570  -1.105  11.543   8.480 -2.8492 -1.0323 -1.6777
   71MOL0     H 9571   0.792  11.583   8.086 -0.4876  3.3170  1.5951
   71MOL0     H 9572   0.988  11.447   8.058  2.0536  0.2447  0.3611
   71MOL0     H 9573   1.410  11.435   8.164 -0.4609 -0.9560 -2.2345
   71MOL0     H 9574   1.645  11.368   8.184 -1.1764  0.5356 -2.5535
   71MOL0     H 9575   1.715  10.996   8.338 -1.3279  3.5054  0.6039
   71MOL0     H 9576   1.833  10.964   8.203  0.5570  0.2716 -0.3951
   71MOL0     H 9577   1.870  11.210   8.356 -0.0542  0.7128 -2.6604
   71MOL0     H 9578   1.996  11.110   8.293 -0.4948 -0.7335  0.4219
   71MOL0     H 9579   1.948  10.934   8.490  1.6294  0.5852 -1.2089
   71MOL0     H 9580   1.828  11.064   8.543  1.2588  1.7419  1.8201
   71MOL0     H 9581   2.006  11.061   8.694 -0.3349 -1.7263  0.1003
   71MOL0     H 9582   2.007  11.204   8.592  1.8628 -0.5935  0.2466
   71MOL0     H 9583   2.331  11.051   8.406 -1.8120 -0.9145  0.7304
   71MOL0     H 9584   1.551  10.965   8.195 -2.8614 -1.3098 -0.7486
   71MOL0     H 9585   1.303  11.010   8.190  0.1892 -1.0874 -2.5427
   72MOL0     O 9586   0.675  11.128   5.444  0.4898  0.8172 -0.0713
   72MOL0     C 9587   0.583  11.047   5.421 -0.1550 -0.0311  1.1140
   72MOL0     O 9588   0.453  11.054   5.465  0.0216  0.4791  0.3398
   72MOL0     C 9589   0.412  11.150   5.554 -0.3097  0.2517 -0.7830
   72MOL0     C 9590   0.452  11.281   5.539 -0.5448 -0.3657 -0.7225
   72MOL0     C 9591   0.407  11.383   5.622 -0.2381 -0.7919  0.4229
   72MOL0     C 9592   0.328  11.364   5.728  0.2180  0.7999 -0.1870
   72MOL0     O 9593   0.289  11.465   5.811 -0.3622  0.0807 -0.1349
   72MOL0     C 9594   0.393  11.540   5.868  0.5039 -0.4909 -0.3334
   72MOL0     C 9595   0.349  11.597   6.008 -0.2813 -0.0797  0.2101
   72MOL0     C 9596   0.428  11.720   6.059 -0.1402  0.3004 -0.5777
   72MOL0     C 9597   0.371  11.775   6.202  0.3936  0.3248  0.5002
   72MOL0     C 9598   0.222  11.831   6.205  0.5485 -0.6933 -1.7880
   72MOL0     C 9599   0.218  11.963   6.123  0.3041  0.5009  0.1621
   72MOL0     C 9600   0.107  12.051   6.174  0.9558 -0.4777 -0.1341
   72MOL0     C 9601  -0.032  11.997   6.170  0.1528  0.3614 -0.7980
   72MOL0     N 9602  -0.075  11.973   6.029 -0.4579  0.5910  0.4015
   72MOL0     C 9603  -0.077  11.844   5.973  0.4188  0.7630 -0.8478
   72MOL0     C 9604  -0.162  11.860   5.865  1.2180 -0.5320  0.2829
   72MOL0     C 9605  -0.206  11.769   5.764  0.3457  0.0375 -0.0824
   72MOL0     C 9606  -0.356  11.746   5.761  0.3413 -0.0955 -0.6537
   72MOL0     C 9607  -0.376  11.620   5.680 -0.1636 -0.6582  0.3614
   72MOL0     C 9608  -0.366  11.492   5.765 -0.3751 -0.2332 -0.3784
   72MOL0     O 9609  -0.448  11.477   5.878 -0.5642 -0.5367  1.0281
   72MOL0     C 9610  -0.585  11.485   5.864 -0.2659  0.2506  0.9309
   72MOL0     C 9611  -0.646  11.467   5.735 -0.6046 -0.6942  0.2049
   72MOL0     C 9612  -0.790  11.472   5.707  0.2351 -0.3611 -0.2062
   72MOL0     C 9613  -0.842  11.479   5.569 -0.0959 -0.4923  0.3398
   72MOL0     C 9614  -0.872  11.496   5.819  0.2169  0.0653 -0.1097
   72MOL0     C 9615  -1.025  11.503   5.821 -0.2416 -0.1740 -0.5770
   72MOL0     O 9616  -1.098  11.551   5.710 -0.0068  0.3066 -0.6815
   72MOL0     C 9617  -1.230  11.550   5.717 -1.0889 -0.5144  0.0229
   72MOL0     C 9618  -1.288  11.446   5.644 -0.3911 -0.1219 -0.0566
   72MOL0     C 9619  -1.427  11.424   5.653  0.6389  0.1799 -0.2157
   72MOL0     C 9620  -1.506  11.512   5.735 -0.8236  0.6452  0.8560
   72MOL0     O 9621  -1.637  11.483   5.745  0.3545 -0.4666  0.8587
   72MOL0     C 9622  -1.726  11.590   5.789  0.0293 -0.7216 -0.4020
   72MOL0     C 9623  -1.873  11.545   5.779 -0.2728 -0.4809 -0.0390
   72MOL0     C 9624  -1.888  11.415   5.862  0.3647  0.2878 -0.0494
   72MOL0     C 9625  -2.029  11.355   5.838 -0.4492 -0.5714  0.4948
   72MOL0     C 9626  -2.050  11.242   5.937 -0.2026 -0.1401  0.1751
   72MOL0     C 9627  -2.127  11.274   6.075 -0.5135 -0.4659  0.7182
   72MOL0     C 9628  -2.276  11.286   6.054  0.2447  0.7314 -0.2158
   72MOL0     C 9629  -2.346  11.303   6.184 -1.2239  0.1142 -0.9207
   72MOL0    Cl 9630  -2.514  11.292   6.164  0.3050 -0.3662 -0.4646
   72MOL0     C 9631  -1.448  11.614   5.797 -0.2415  0.6239 -0.2444
   72MOL0     C 9632  -1.312  11.636   5.793 -0.3998 -0.1468 -1.0536
   72MOL0     O 9633  -1.075  11.450   5.919 -0.0859 -0.7814 -0.4991
   72MOL0     C 9634  -0.810  11.500   5.946  0.9089 -0.1861 -0.1002
   72MOL0     C 9635  -0.673  11.502   5.972 -0.4379 -0.7853  0.0034
   72MOL0     N 9636  -0.201  11.994   5.857  0.1426 -0.6782 -0.1254
   72MOL0     N 9637  -0.150  12.061   5.952 -0.0245  0.7019  0.1315
   72MOL0     C 9638   0.273  11.238   5.742 -0.1750  1.2485 -0.8019
   72MOL0     C 9639   0.320  11.128   5.657 -0.2574  0.0405 -0.4333
   72MOL0     C 9640   0.615  10.948   5.317 -0.1925  0.1366 -0.2317
   72MOL0     C 9641   0.744  10.910   5.288 -0.1752  0.0972 -1.0488
   72MOL0     C 9642   0.776  10.803   5.205 -0.7610 -1.2744  0.0287
   72MOL0     C 9643   0.678  10.748   5.123 -0.6124 -0.3253 -0.2646
   72MOL0     O 9644   0.706  10.661   5.024 -0.1420 -0.1226  0.2947
   72MOL0     C 9645   0.828  10.585   5.037 -0.0549  0.0919  0.8537
   72MOL0     C 9646   0.847  10.499   4.913  0.5511  0.0636  0.1414
   72MOL0     C 9647   0.892  10.575   4.790 -0.0239  0.7362  1.1353
   72MOL0     C 9648   1.035  10.633   4.801  0.2971 -0.0578  0.5797
   72MOL0     C 9649   1.137  10.533   4.848  0.1735 -0.4214 -0.6075
   72MOL0     C 9650   1.218  10.454   4.892  1.3627  0.1128 -0.0726
   72MOL0     C 9651   0.543  10.781   5.159  0.2140  0.1891  0.1929
   72MOL0     C 9652   0.508  10.877   5.256 -1.2006 -0.5203  0.1109
   72MOL0     H 9653   0.523  11.302   5.460 -1.1925  3.1973 -0.5038
   72MOL0     H 9654   0.433  11.485   5.599 -2.8967  0.1281  1.0731
   72MOL0     H 9655   0.486  11.483   5.874  3.3743  3.1610 -4.0792
   72MOL0     H 9656   0.396  11.627   5.802 -0.0514  0.1137  0.4155
   72MOL0     H 9657   0.244  11.629   6.003 -0.4942  0.9595  5.5414
   72MOL0     H 9658   0.345  11.514   6.079 -1.7097  1.8588  2.5738
   72MOL0     H 9659   0.537  11.712   6.057 -0.0602  1.3758 -0.9606
   72MOL0     H 9660   0.406  11.801   5.989  1.8021  0.2978 -1.2395
   72MOL0     H 9661   0.379  11.697   6.279 -1.0268 -0.8867 -0.5244
   72MOL0     H 9662   0.437  11.859   6.225 -2.1087  2.0708  1.7190
   72MOL0     H 9663   0.142  11.767   6.167 -1.0388  0.6313 -0.8179
   72MOL0     H 9664   0.195  11.848   6.309 -2.5707 -0.1275 -2.5646
   72MOL0     H 9665   0.311  12.020   6.138 -0.1040  0.8186  1.6805
   72MOL0     H 9666   0.200  11.939   6.018 -2.1696  2.5845  0.0018
   72MOL0     H 9667   0.130  12.093   6.273  0.9631  1.5187 -0.9294
   72MOL0     H 9668   0.108  12.149   6.126  1.7395  2.0642  4.4590
   72MOL0     H 9669  -0.100  12.061   6.227  0.2785  0.6376 -0.9545
   72MOL0     H 9670  -0.028  11.901   6.223  1.1165  1.3889  1.0803
   72MOL0     H 9671  -0.031  11.748   5.995 -1.1795  0.4816  1.5470
   72MOL0     H 9672  -0.165  11.806   5.669  0.4379 -0.9853 -0.4623
   72MOL0     H 9673  -0.154  11.675   5.786  0.4348  0.1185  0.0500
   72MOL0     H 9674  -0.405  11.831   5.711  0.0327  0.7038  0.9398
   72MOL0     H 9675  -0.396  11.727   5.861  0.3659  1.9848 -0.1887
   72MOL0     H 9676  -0.307  11.618   5.594 -0.6181 -1.2350  0.0013
   72MOL0     H 9677  -0.472  11.632   5.629 -0.5883 -1.5365  0.9372
   72MOL0     H 9678  -0.261  11.487   5.796 -0.0680 -3.8381 -1.5493
   72MOL0     H 9679  -0.384  11.408   5.698 -0.2508 -1.2800  0.8587
   72MOL0     H 9680  -0.584  11.454   5.646  0.3844 -2.9626  1.1712
   72MOL0     H 9681  -0.871  11.582   5.547  1.1130 -0.3082 -0.4708
   72MOL0     H 9682  -0.773  11.440   5.494  0.3216  1.6882 -0.4833
   72MOL0     H 9683  -0.931  11.415   5.569 -0.6290  0.1005  3.3519
   72MOL0     H 9684  -1.230  11.382   5.578  0.1266 -2.4359  2.4603
   72MOL0     H 9685  -1.474  11.340   5.603 -0.7528  1.8138 -1.7612
   72MOL0     H 9686  -1.703  11.605   5.895  0.0062 -0.2974 -0.4564
   72MOL0     H 9687  -1.711  11.685   5.738 -1.1362  0.1273  0.7762
   72MOL0     H 9688  -1.944  11.619   5.819 -0.1383  0.3296 -1.2447
   72MOL0     H 9689  -1.901  11.511   5.679 -0.7711 -2.4973  0.7445
   72MOL0     H 9690  -1.878  11.437   5.969  0.1126  0.6598 -0.1000
   72MOL0     H 9691  -1.818  11.343   5.820 -2.7422 -2.2004 -1.2999
   72MOL0     H 9692  -2.102  11.436   5.846  0.6039  0.5720 -1.0071
   72MOL0     H 9693  -2.034  11.317   5.736 -1.9693  0.1330  0.2776
   72MOL0     H 9694  -1.955  11.199   5.970 -1.2832 -1.8939  1.1957
   72MOL0     H 9695  -2.118  11.170   5.891 -0.8592  0.3639  0.3436
   72MOL0     H 9696  -2.104  11.190   6.141 -3.4567 -2.8939 -1.1151
   72MOL0     H 9697  -2.085  11.365   6.118 -0.0364  1.6629 -3.6486
   72MOL0     H 9698  -2.306  11.192   6.006  0.0121 -0.3067  1.8520
   72MOL0     H 9699  -2.302  11.371   5.990  1.3943  2.4519  1.4766
   72MOL0     H 9700  -2.316  11.402   6.222 -0.9537 -0.2014 -0.2936
   72MOL0     H 9701  -2.313  11.221   6.249  1.2902  1.1288 -0.7900
   72MOL0     H 9702  -1.502  11.694   5.847  0.7454  0.6476  0.8313
   72MOL0     H 9703  -1.255  11.714   5.842 -1.4194 -0.3881  0.6072
   72MOL0     H 9704  -0.870  11.517   6.035  1.4764 -2.5393  0.8084
   72MOL0     H 9705  -0.641  11.492   6.075  3.2055  1.3048 -0.7785
   72MOL0     H 9706   0.198  11.227   5.820 -0.0970 -1.2945 -0.9992
   72MOL0     H 9707   0.274  11.031   5.670 -3.7748  1.6268  0.0429
   72MOL0     H 9708   0.824  10.950   5.350 -0.9296 -1.2711  0.9373
   72MOL0     H 9709   0.882  10.781   5.201 -0.7037 -0.9190 -0.5033
   72MOL0     H 9710   0.917  10.647   5.049  2.0391 -2.3189 -1.0897
   72MOL0     H 9711   0.815  10.527   5.128  1.1878  0.4056  1.2440
   72MOL0     H 9712   0.764  10.432   4.889  1.6309 -1.1754 -0.2760
   72MOL0     H 9713   0.923  10.423   4.936  0.7650 -1.1935 -4.0125
   72MOL0     H 9714   0.814  10.649   4.775 -2.5828 -1.7486  1.3967
   72MOL0     H 9715   0.890  10.505   4.706 -3.0701 -0.3523  2.0058
   72MOL0     H 9716   1.033  10.719   4.869  3.9431 -1.1942  2.4010
   72MOL0     H 9717   1.076  10.665   4.704  2.7979  0.7289  1.8113
   72MOL0     H 9718   1.292  10.383   4.923 -0.8066 -2.5682 -0.6922
   72MOL0     H 9719   0.464  10.729   5.106 -2.2393  1.1958  2.6464
   72MOL0     H 9720   0.409  10.901   5.295  0.2696  0.4380  3.6316
   73MOL0     O 9721   2.492   6.861   1.882  0.4428  0.5060 -0.9208
   73MOL0     C 9722   2.572   6.948   1.914 -0.5277 -0.6309 -0.0795
   73MOL0     O 9723   2.536   7.072   1.965  0.1418  0.1864 -0.3878
   73MOL0     C 9724   2.414   7.114   1.929  0.7210  0.0479 -0.3661
   73MOL0     C 9725   2.374   7.148   1.796  0.2636 -0.9047  0.0540
   73MOL0     C 9726   2.249   7.187   1.759 -0.5147  0.3490 -0.0428
   73MOL0     C 9727   2.150   7.191   1.854  0.0932  0.2763 -0.4246
   73MOL0     O 9728   2.025   7.211   1.803  0.4625  1.0231  0.4320
   73MOL0     C 9729   1.924   7.231   1.902  0.3989  0.6792 -0.3099
   73MOL0     C 9730   1.808   7.302   1.835  0.4259 -0.2492  0.1022
   73MOL0     C 9731   1.684   7.310   1.926  0.4604 -0.1352  0.6056
   73MOL0     C 9732   1.653   7.188   2.016  0.3071 -0.1332 -0.2206
   73MOL0     C 9733   1.535   7.209   2.117  0.1859  0.2344 -1.0196
   73MOL0     C 9734   1.397   7.177   2.059 -0.7467  0.1737  0.8403
   73MOL0     C 9735   1.279   7.186   2.157  0.7426 -0.0112 -0.2074
   73MOL0     C 9736   1.151   7.107   2.117  0.4648  0.0682  0.6250
   73MOL0     N 9737   1.036   7.121   2.211 -0.0702  0.4974 -0.6474
   73MOL0     C 9738   0.987   7.241   2.257  0.7600 -0.6355  0.2053
   73MOL0     C 9739   0.900   7.209   2.356 -0.9782 -0.0585 -0.1807
   73MOL0     C 9740   0.836   7.303   2.451 -0.2449  0.4827  0.3839
   73MOL0     C 9741   0.719   7.368   2.371 -1.4223  0.1129 -0.2849
   73MOL0     C 9742   0.642   7.472   2.452 -0.3950  0.5014 -0.5733
   73MOL0     C 9743   0.561   7.401   2.564  0.0423  0.1731  0.1927
   73MOL0     O 9744   0.459   7.486   2.618  0.5110  0.2988 -0.2868
   73MOL0     C 9745   0.347   7.446   2.684  0.1663 -0.2736  0.0792
   73MOL0     C 9746   0.295   7.315   2.682  0.2062  0.5379  0.3653
   73MOL0     C 9747   0.180   7.285   2.759 -0.3823  0.1512  0.1477
   73MOL0     C 9748   0.144   7.136   2.761 -0.7184 -0.0567 -0.2592
   73MOL0     C 9749   0.111   7.389   2.830  0.3860 -0.1522 -0.1486
   73MOL0     C 9750  -0.009   7.363   2.923  0.0259  0.8650 -0.2393
   73MOL0     O 9751  -0.095   7.267   2.888  0.2495  0.4338  0.6149
   73MOL0     C 9752  -0.187   7.232   2.983  0.0812  0.5541  0.2622
   73MOL0     C 9753  -0.229   7.094   2.966  0.4204  0.4192 -0.8403
   73MOL0     C 9754  -0.326   7.030   3.040  0.3566 -0.2632  0.3372
   73MOL0     C 9755  -0.388   7.099   3.151 -0.7688 -0.6665  0.3255
   73MOL0     O 9756  -0.482   7.032   3.216 -0.4780  0.1020  0.0062
   73MOL0     C 9757  -0.490   7.054   3.357 -0.1532 -0.2955  0.7845
   73MOL0     C 9758  -0.563   6.937   3.422 -0.1254 -0.4718  0.8169
   73MOL0     C 9759  -0.709   6.906   3.386  0.0216 -0.6798 -0.7169
   73MOL0     C 9760  -0.790   7.033   3.402  0.4273  0.0920  0.3197
   73MOL0     C 9761  -0.939   6.992   3.392 -0.2767 -1.0666 -0.1370
   73MOL0     C 9762  -1.022   7.121   3.389  0.3852 -0.4005  0.2361
   73MOL0     C 9763  -1.173   7.099   3.359  0.2980  0.2717  0.3820
   73MOL0     C 9764  -1.261   7.219   3.416  1.0643 -0.5755 -0.4723
   73MOL0    Cl 9765  -1.426   7.158   3.409  0.0597 -0.0532  0.3288
   73MOL0     C 9766  -0.348   7.232   3.181  0.4201  0.0120  0.4874
   73MOL0     C 9767  -0.256   7.298   3.090 -0.0226  0.4356  0.2176
   73MOL0     O 9768  -0.000   7.421   3.029 -0.2810 -0.1106 -0.4041
   73MOL0     C 9769   0.166   7.517   2.834 -0.0761 -0.7400  0.3537
   73MOL0     C 9770   0.277   7.545   2.758 -0.8877  0.2285  0.0982
   73MOL0     N 9771   0.885   7.065   2.360 -0.6591  0.0853  0.1662
   73MOL0     N 9772   0.961   7.012   2.273  0.1158 -0.0996 -0.8691
   73MOL0     C 9773   2.184   7.168   1.983 -1.2851 -0.2137 -0.3047
   73MOL0     C 9774   2.317   7.130   2.025 -0.3345  0.4524  0.2363
   73MOL0     C 9775   2.718   6.923   1.936 -0.6849 -1.0780  0.5024
   73MOL0     C 9776   2.797   7.007   2.014 -0.0683  0.2008 -0.4402
   73MOL0     C 9777   2.934   6.979   2.031  0.5517 -0.9015 -0.2850
   73MOL0     C 9778   2.995   6.874   1.956  0.4240  0.0203  0.6108
   73MOL0     O 9779   3.129   6.848   1.936 -0.1855  0.5998 -0.0775
   73MOL0     C 9780   3.223   6.922   2.021  0.6402  0.3185 -0.0163
   73MOL0     C 9781   3.364   6.889   1.971  0.8446 -0.3792  0.3040
   73MOL0     C 9782   3.456   6.999   2.021 -0.4959  0.1077  0.3587
   73MOL0     C 9783   3.603   6.968   1.991  0.4542  0.1089 -0.4455
   73MOL0     C 9784   3.684   7.079   2.046 -0.4759  0.3829  0.7456
   73MOL0     C 9785   3.734   7.174   2.106 -0.2577  0.0106 -0.1185
   73MOL0     C 9786   2.914   6.795   1.874 -0.5147 -0.5503 -0.8852
   73MOL0     C 9787   2.776   6.815   1.869 -0.1626  0.1730  0.1024
   73MOL0     H 9788   2.452   7.147   1.720 -0.9416  0.2925 -1.2510
   73MOL0     H 9789   2.215   7.197   1.657  2.0104  1.3622 -0.8801
   73MOL0     H 9790   1.895   7.131   1.934  2.1366 -0.2688 -1.5542
   73MOL0     H 9791   1.951   7.292   1.989 -2.7671 -0.2026  1.4521
   73MOL0     H 9792   1.829   7.401   1.794  1.7525 -1.0262 -1.1832
   73MOL0     H 9793   1.781   7.233   1.754 -0.2410  1.0343 -0.7868
   73MOL0     H 9794   1.691   7.385   2.005  1.7071 -2.3052  2.6878
   73MOL0     H 9795   1.598   7.321   1.859  1.7312 -0.9869 -1.2613
   73MOL0     H 9796   1.628   7.102   1.954 -1.9875 -0.6022  1.2284
   73MOL0     H 9797   1.742   7.176   2.079  1.9764  0.8113 -2.2766
   73MOL0     H 9798   1.563   7.144   2.201 -1.6260  0.3594 -0.2728
   73MOL0     H 9799   1.531   7.315   2.146  0.9630 -0.0293  0.1364
   73MOL0     H 9800   1.383   7.240   1.971 -2.3977  1.4192  1.9253
   73MOL0     H 9801   1.405   7.076   2.016  0.2101 -1.6894  4.9662
   73MOL0     H 9802   1.307   7.161   2.260  1.0888  0.0587 -0.2825
   73MOL0     H 9803   1.256   7.293   2.162 -2.0761 -0.5785  1.2004
   73MOL0     H 9804   1.185   7.005   2.101  1.3797  0.3264  0.8699
   73MOL0     H 9805   1.119   7.151   2.021  2.8145  2.5490  0.8543
   73MOL0     H 9806   1.008   7.339   2.215 -4.0035  0.2593 -0.6954
   73MOL0     H 9807   0.790   7.243   2.529 -2.6796  1.4723 -0.2153
   73MOL0     H 9808   0.909   7.368   2.500 -2.5114  3.5494 -0.0126
   73MOL0     H 9809   0.654   7.289   2.333  0.1523 -1.0676 -0.6328
   73MOL0     H 9810   0.768   7.420   2.288  1.7482 -0.9966  0.7706
   73MOL0     H 9811   0.581   7.535   2.386  1.6235  1.7645 -1.3217
   73MOL0     H 9812   0.717   7.527   2.509 -0.7246 -1.3541  1.7954
   73MOL0     H 9813   0.626   7.396   2.652 -0.9714 -2.2834  0.8800
   73MOL0     H 9814   0.543   7.300   2.526  0.1090 -0.2797  1.3229
   73MOL0     H 9815   0.348   7.243   2.621 -0.7829 -0.3631  0.5413
   73MOL0     H 9816   0.225   7.087   2.707 -0.3605  0.2600 -0.0120
   73MOL0     H 9817   0.139   7.087   2.858  0.2056  2.6398  1.2332
   73MOL0     H 9818   0.050   7.116   2.708  0.9538  0.5555 -3.7374
   73MOL0     H 9819  -0.187   7.045   2.878  1.9968  2.6885 -1.4317
   73MOL0     H 9820  -0.350   6.928   3.014  1.3739 -0.8795  1.6890
   73MOL0     H 9821  -0.391   7.072   3.400 -1.1900  1.0583  2.7687
   73MOL0     H 9822  -0.552   7.142   3.376 -0.8926 -0.8296  0.8760
   73MOL0     H 9823  -0.512   6.847   3.385 -2.3694 -1.1297 -0.9286
   73MOL0     H 9824  -0.551   6.951   3.530  2.2929  0.0917  0.5160
   73MOL0     H 9825  -0.758   6.835   3.453  0.2139  0.6473  0.9238
   73MOL0     H 9826  -0.703   6.863   3.286 -0.8747 -1.2280 -0.5451
   73MOL0     H 9827  -0.774   7.078   3.500 -3.0952  0.8630  0.6605
   73MOL0     H 9828  -0.763   7.110   3.330 -1.1379  1.5176  1.2069
   73MOL0     H 9829  -0.969   6.930   3.477 -0.7198  1.5920  1.7488
   73MOL0     H 9830  -0.958   6.937   3.300  0.2731  0.6702 -1.3452
   73MOL0     H 9831  -1.020   7.175   3.485 -4.4818 -0.5585  0.6822
   73MOL0     H 9832  -0.980   7.191   3.316  2.3336 -2.5039 -0.7507
   73MOL0     H 9833  -1.204   7.009   3.413  0.6635  0.6826  1.2907
   73MOL0     H 9834  -1.189   7.073   3.253  0.8630  2.7113 -0.3513
   73MOL0     H 9835  -1.255   7.314   3.363 -0.9791  0.6171  1.2618
   73MOL0     H 9836  -1.244   7.229   3.524 -2.6724 -0.0129  0.2068
   73MOL0     H 9837  -0.393   7.291   3.259 -1.3705  2.8451 -2.4340
   73MOL0     H 9838  -0.242   7.405   3.103  0.3231  0.1516  2.5964
   73MOL0     H 9839   0.111   7.590   2.893 -0.1835 -0.2033 -0.3841
   73MOL0     H 9840   0.315   7.647   2.753 -3.2346  1.1506 -3.8242
   73MOL0     H 9841   2.118   7.185   2.068  1.7597 -2.2945  2.7456
   73MOL0     H 9842   2.360   7.110   2.122 -0.0241  1.2355  0.2671
   73MOL0     H 9843   2.766   7.103   2.056  2.3846  0.7076  0.3985
   73MOL0     H 9844   3.001   7.044   2.087  0.3561 -0.8046 -0.1626
   73MOL0     H 9845   3.201   7.027   1.996 -2.0973 -0.0162  0.7450
   73MOL0     H 9846   3.222   6.888   2.125 -1.2667 -1.5793 -0.5842
   73MOL0     H 9847   3.365   6.897   1.862  4.7454  0.6048  0.2441
   73MOL0     H 9848   3.400   6.792   2.006  1.0705 -0.3287  0.2169
   73MOL0     H 9849   3.452   6.987   2.130 -1.3233 -0.9717  0.2188
   73MOL0     H 9850   3.436   7.103   1.991  3.4223  0.8193 -0.2917
   73MOL0     H 9851   3.612   6.960   1.882 -0.9571 -2.7670 -0.4702
   73MOL0     H 9852   3.632   6.875   2.040 -0.7689 -0.5409 -0.8979
   73MOL0     H 9853   3.781   7.249   2.166 -0.7731 -1.2969  2.0300
   73MOL0     H 9854   2.966   6.721   1.814  1.1421 -2.0169  2.1211
   73MOL0     H 9855   2.719   6.740   1.814 -0.9915 -0.9992  2.4195
   74MOL0     O 9856   9.755  10.540   1.089 -0.6204  0.0649  0.2588
   74MOL0     C 9857   9.815  10.483   1.185 -0.2848 -0.1245 -0.9532
   74MOL0     O 9858   9.778  10.366   1.252 -0.4613 -0.7953 -0.2124
   74MOL0     C 9859   9.685  10.279   1.194  0.0470 -0.6281  0.6521
   74MOL0     C 9860   9.607  10.197   1.284 -0.7978  0.8151  0.4642
   74MOL0     C 9861   9.505  10.110   1.231  0.2006  0.5028 -1.1715
   74MOL0     C 9862   9.474  10.109   1.094  0.0459 -0.2427  0.3075
   74MOL0     O 9863   9.367  10.043   1.055  0.4190  0.5959 -0.1387
   74MOL0     C 9864   9.245  10.117   1.059  0.2314  0.6627 -0.7358
   74MOL0     C 9865   9.129  10.026   0.990 -0.1060 -0.4502 -0.9546
   74MOL0     C 9866   8.991  10.110   0.978  0.2507 -0.3016 -0.2409
   74MOL0     C 9867   8.916  10.114   1.117  0.1002 -0.1059  0.2931
   74MOL0     C 9868   8.766  10.157   1.107  0.7977 -0.7294  0.0150
   74MOL0     C 9869   8.751  10.291   1.031 -0.0108 -0.2469 -0.0397
   74MOL0     C 9870   8.629  10.374   1.064 -0.3703 -0.4230 -0.1076
   74MOL0     C 9871   8.498  10.298   1.059  0.8670 -0.8467  0.9163
   74MOL0     N 9872   8.466  10.249   0.920  0.6675 -0.0541 -0.0652
   74MOL0     C 9873   8.495  10.122   0.871  0.3345  0.3954  0.0010
   74MOL0     C 9874   8.427  10.116   0.754  0.2959 -1.0580  0.6071
   74MOL0     C 9875   8.422   9.996   0.656 -0.3843 -0.8782 -0.2163
   74MOL0     C 9876   8.395   9.866   0.739 -0.4517  0.4975 -0.2229
   74MOL0     C 9877   8.349   9.751   0.646  0.1870  0.0249  0.6230
   74MOL0     C 9878   8.329   9.632   0.724 -0.2143  1.0395 -0.3626
   74MOL0     O 9879   8.200   9.636   0.790 -0.5575 -0.2644  0.0511
   74MOL0     C 9880   8.153   9.544   0.883  1.0348  0.8268 -0.3121
   74MOL0     C 9881   8.020   9.552   0.919 -0.6078  0.6305  0.5025
   74MOL0     C 9882   7.969   9.478   1.023  0.5326 -0.7924 -0.3208
   74MOL0     C 9883   7.819   9.510   1.054  0.7432 -0.6975  0.5447
   74MOL0     C 9884   8.056   9.387   1.090 -0.7566  0.4238  0.4813
   74MOL0     C 9885   8.023   9.304   1.207  0.5794 -0.4536 -0.8861
   74MOL0     O 9886   8.121   9.234   1.259  0.1675  0.1894 -0.7952
   74MOL0     C 9887   8.094   9.148   1.364  0.3431  0.4217 -0.2259
   74MOL0     C 9888   8.009   9.038   1.337 -0.0948 -0.4304  0.3774
   74MOL0     C 9889   7.986   8.945   1.441  0.3607  0.7774  0.3378
   74MOL0     C 9890   8.041   8.964   1.573  0.0206  0.0145  0.7758
   74MOL0     O 9891   8.024   8.869   1.672 -0.0866 -0.2428 -0.7823
   74MOL0     C 9892   7.905   8.792   1.680 -0.1669 -0.4917  1.1090
   74MOL0     C 9893   7.948   8.672   1.759 -0.0247  0.4782 -0.2981
   74MOL0     C 9894   7.832   8.569   1.770  0.2123  0.6677 -0.5913
   74MOL0     C 9895   7.865   8.430   1.844  0.2710  0.3228 -0.3679
   74MOL0     C 9896   7.898   8.440   1.990 -0.0058  0.5035 -0.0866
   74MOL0     C 9897   7.786   8.488   2.079 -0.2523 -0.2042  0.1358
   74MOL0     C 9898   7.716   8.373   2.151 -0.9434 -0.1380  0.2419
   74MOL0     C 9899   7.600   8.412   2.238  0.2010  0.6029 -0.1864
   74MOL0    Cl 9900   7.472   8.463   2.143 -0.3212 -0.0751  0.7016
   74MOL0     C 9901   8.131   9.070   1.594  0.2256  0.1020  0.5177
   74MOL0     C 9902   8.148   9.167   1.494 -0.7814 -0.0370 -0.2551
   74MOL0     O 9903   7.905   9.302   1.246 -0.0702  0.1796  0.0720
   74MOL0     C 9904   8.185   9.367   1.034 -0.0550  0.8925 -0.3612
   74MOL0     C 9905   8.231   9.438   0.930  0.0029  0.6338  0.0128
   74MOL0     N 9906   8.365  10.241   0.731 -1.4553 -0.0641  0.0305
   74MOL0     N 9907   8.391  10.320   0.829 -0.9756 -0.5183  0.8728
   74MOL0     C 9908   9.544  10.192   1.008 -0.4105 -0.2285 -0.0016
   74MOL0     C 9909   9.641  10.273   1.055  0.8189  0.3660 -0.4982
   74MOL0     C 9910   9.930  10.562   1.239 -0.3034 -0.1521  0.0815
   74MOL0     C 9911  10.022  10.510   1.336  0.0971  0.7931  0.2500
   74MOL0     C 9912  10.122  10.599   1.390  0.3238  0.4209  0.6754
   74MOL0     C 9913  10.141  10.732   1.359  0.4539 -0.8358 -0.3645
   74MOL0     O 9914  10.241  10.800   1.427  0.2463 -0.3903  0.1432
   74MOL0     C 9915  10.249  10.942   1.433 -1.0778 -0.2828  0.7740
   74MOL0     C 9916  10.357  10.975   1.543 -0.8070  0.6166  0.0281
   74MOL0     C 9917  10.311  10.922   1.682 -0.4534 -0.2300 -0.6304
   74MOL0     C 9918  10.401  10.966   1.799 -0.1106 -0.3787 -0.1450
   74MOL0     C 9919  10.367  10.914   1.931 -0.1185 -0.3238  0.2369
   74MOL0     C 9920  10.302  10.883   2.031  0.0551  0.9941  0.1533
   74MOL0     C 9921  10.047  10.782   1.268  0.0159 -0.2674 -0.9236
   74MOL0     C 9922   9.944  10.699   1.208 -0.4268  0.1800  0.0802
   74MOL0     H 9923   9.621  10.207   1.392 -0.6736 -2.3676  0.8230
   74MOL0     H 9924   9.454  10.040   1.295  0.6769  0.9454 -0.2926
   74MOL0     H 9925   9.219  10.132   1.164  0.3655  0.6697 -0.7031
   74MOL0     H 9926   9.246  10.213   1.007 -2.3527  0.2397 -1.6836
   74MOL0     H 9927   9.160   9.999   0.889 -0.6357 -1.1073 -0.9485
   74MOL0     H 9928   9.116   9.929   1.039  0.2628 -1.2409 -2.3719
   74MOL0     H 9929   9.009  10.209   0.933 -1.4577  0.9859  1.7103
   74MOL0     H 9930   8.923  10.058   0.909 -0.3027 -0.2772  0.2768
   74MOL0     H 9931   8.920  10.022   1.176  2.8088 -0.3910 -0.2309
   74MOL0     H 9932   8.975  10.181   1.179  0.9765 -0.3783 -0.2263
   74MOL0     H 9933   8.706  10.084   1.054 -1.5530 -0.9955  2.8112
   74MOL0     H 9934   8.723  10.177   1.206  0.3885  0.8330 -0.4449
   74MOL0     H 9935   8.840  10.352   1.045  2.2614 -3.0419 -1.1516
   74MOL0     H 9936   8.752  10.274   0.923  0.9101 -2.7858  0.2923
   74MOL0     H 9937   8.616  10.403   1.169 -4.4615 -0.3008 -0.4771
   74MOL0     H 9938   8.636  10.469   1.012  2.0205 -1.8733 -2.6825
   74MOL0     H 9939   8.413  10.353   1.099 -0.1698  0.3824 -2.6050
   74MOL0     H 9940   8.507  10.204   1.115 -2.1559 -1.7938 -0.0104
   74MOL0     H 9941   8.555  10.042   0.913  2.4908  1.6079 -0.6483
   74MOL0     H 9942   8.343  10.017   0.584  0.9403  0.7762 -1.2648
   74MOL0     H 9943   8.514   9.982   0.599 -0.0141 -0.9188  0.3826
   74MOL0     H 9944   8.316   9.887   0.811 -2.4696 -3.3180 -1.0580
   74MOL0     H 9945   8.485   9.832   0.791 -0.6836  0.2631  0.0251
   74MOL0     H 9946   8.412   9.730   0.560  0.0028  0.9990  0.2416
   74MOL0     H 9947   8.252   9.780   0.605  0.0934 -1.7724 -0.5385
   74MOL0     H 9948   8.405   9.616   0.800  0.8481 -2.7287 -1.9700
   74MOL0     H 9949   8.335   9.541   0.664 -1.1110  0.4209  0.4486
   74MOL0     H 9950   7.966   9.630   0.867 -2.1173 -0.2657  0.6837
   74MOL0     H 9951   7.806   9.512   1.162  4.8830 -1.6418  1.2419
   74MOL0     H 9952   7.777   9.602   1.012  2.2988  0.3149  1.1242
   74MOL0     H 9953   7.759   9.435   1.003 -1.7126 -0.8529  3.4055
   74MOL0     H 9954   7.956   9.023   1.243 -3.0388  1.9760  1.4922
   74MOL0     H 9955   7.920   8.862   1.417  0.0627  1.0564  0.1859
   74MOL0     H 9956   7.823   8.848   1.727 -1.5987  1.6883 -3.4579
   74MOL0     H 9957   7.871   8.758   1.582 -1.4399 -1.1307  1.7448
   74MOL0     H 9958   8.038   8.626   1.718  1.1556 -1.0902  3.6176
   74MOL0     H 9959   7.974   8.719   1.854 -0.3882  2.0244 -0.9292
   74MOL0     H 9960   7.805   8.527   1.673 -2.0304 -3.2392  1.4567
   74MOL0     H 9961   7.745   8.610   1.821 -0.6275 -2.9022  1.1271
   74MOL0     H 9962   7.772   8.372   1.842 -0.7683  1.9241  0.3855
   74MOL0     H 9963   7.946   8.378   1.790 -0.3872 -2.4051  1.0525
   74MOL0     H 9964   7.979   8.513   1.993  1.4617 -1.0569 -0.4308
   74MOL0     H 9965   7.939   8.348   2.032 -0.5136  1.1376  1.9197
   74MOL0     H 9966   7.830   8.551   2.156 -0.4811 -1.5410  1.4032
   74MOL0     H 9967   7.723   8.552   2.017  0.7255  1.6539  0.9779
   74MOL0     H 9968   7.788   8.318   2.211 -1.3952  0.3604  1.2629
   74MOL0     H 9969   7.690   8.299   2.074  2.5761 -1.9737  0.6293
   74MOL0     H 9970   7.638   8.496   2.296  4.1487 -1.6321  0.8071
   74MOL0     H 9971   7.577   8.327   2.302  1.0132 -0.3894 -1.1673
   74MOL0     H 9972   8.190   9.076   1.685  1.3524  0.4269 -0.2121
   74MOL0     H 9973   8.211   9.248   1.528 -1.3712 -0.2107  1.3717
   74MOL0     H 9974   8.245   9.298   1.092 -3.9411 -2.1740  0.4969
   74MOL0     H 9975   8.330   9.424   0.889 -0.3275 -0.0456 -0.5839
   74MOL0     H 9976   9.521  10.187   0.902  2.4997 -1.1602 -0.6899
   74MOL0     H 9977   9.700  10.328   0.983  0.6350  0.2011 -0.7745
   74MOL0     H 9978  10.011  10.406   1.362 -1.2596  0.5456 -1.1979
   74MOL0     H 9979  10.184  10.556   1.468  1.6523  0.6347 -0.2255
   74MOL0     H 9980  10.268  11.000   1.342  0.1781 -0.5190  0.8723
   74MOL0     H 9981  10.151  10.978   1.465 -1.7823  2.4464 -3.5759
   74MOL0     H 9982  10.377  11.082   1.554  1.0473  0.1947  1.0913
   74MOL0     H 9983  10.449  10.923   1.516 -1.6784 -1.0995  0.2095
   74MOL0     H 9984  10.312  10.813   1.676  2.5558 -0.2422 -1.2915
   74MOL0     H 9985  10.205  10.949   1.693 -0.7737 -1.5615 -0.3122
   74MOL0     H 9986  10.416  11.075   1.802 -1.3925 -0.1520 -1.0196
   74MOL0     H 9987  10.496  10.915   1.783  0.8398  0.9833  0.9164
   74MOL0     H 9988  10.258  10.849   2.123  0.0968 -1.6370 -0.7138
   74MOL0     H 9989  10.046  10.889   1.250  3.0063 -0.2436 -1.5195
   74MOL0     H 9990   9.865  10.750   1.154 -1.0154  1.1292  1.7689
   75MOL0     O 9991   1.034   1.921   2.030 -0.1684  0.4678  0.0161
   75MOL0     C 9992   1.092   2.028   2.046 -0.3477 -1.1076  0.2383
   75MOL0     O 9993   1.033   2.156   2.052  0.4660 -0.4479  0.2192
   75MOL0     C 9994   0.902   2.157   2.027  0.5503 -0.2729 -0.5226
   75MOL0     C 9995   0.803   2.157   2.125  0.3011  0.5550 -0.1236
   75MOL0     C 9996   0.661   2.157   2.094 -0.0824  0.1905 -0.4930
   75MOL0     C 9997   0.619   2.177   1.961  0.9258 -0.6035 -0.2174
   75MOL0     O 9998   0.488   2.205   1.934 -0.1729 -0.0956 -0.3826
   75MOL0     C 9999   0.452   2.229   1.803  0.6295  0.4098  0.0843
   75MOL0     C10000   0.309   2.234   1.761  0.0824 -0.3619  0.1151
   75MOL0     C10001   0.247   2.096   1.729  0.0412  0.7298 -0.0823
   75MOL0     C10002   0.099   2.105   1.681  0.9463 -0.1896  0.0636
   75MOL0     C10003   0.037   1.964   1.660 -0.6993 -0.3901  0.1542
   75MOL0     C10004  -0.093   1.960   1.593  0.2077 -0.0718 -0.3838
   75MOL0     C10005  -0.215   2.010   1.662  0.1603 -0.0224 -0.8925
   75MOL0     C10006  -0.241   1.933   1.791 -0.1882 -0.1378  0.3064
   75MOL0     N10007  -0.272   1.795   1.768 -0.0595  0.4847  0.9736
   75MOL0     C10008  -0.399   1.742   1.776 -0.1489  0.2835  0.2341
   75MOL0     C10009  -0.390   1.610   1.736 -0.0505 -0.0242 -0.6012
   75MOL0     C10010  -0.493   1.488   1.722 -0.5298  0.0667 -0.1117
   75MOL0     C10011  -0.564   1.494   1.581 -0.2215 -0.3210 -0.0085
   75MOL0     C10012  -0.691   1.580   1.584  0.1524 -0.0483 -0.5948
   75MOL0     C10013  -0.805   1.504   1.657  0.6371 -0.2323 -0.5515
   75MOL0     O10014  -0.930   1.566   1.619 -0.3247 -0.0986  0.3504
   75MOL0     C10015  -1.028   1.564   1.717 -0.6528 -0.4797  0.6086
   75MOL0     C10016  -1.025   1.502   1.841 -0.3531  0.3205 -0.5862
   75MOL0     C10017  -1.132   1.509   1.928 -0.2117  0.5166 -0.6179
   75MOL0     C10018  -1.108   1.460   2.066  0.4802 -0.2687  0.3526
   75MOL0     C10019  -1.251   1.576   1.892  0.5840 -0.6225  0.3253
   75MOL0     C10020  -1.374   1.575   1.973 -0.5339  0.0291 -0.4736
   75MOL0     O10021  -1.414   1.467   2.043  0.1495 -0.5546  0.4453
   75MOL0     C10022  -1.508   1.484   2.137  1.3241  0.3253 -0.5698
   75MOL0     C10023  -1.481   1.548   2.255 -0.4766 -0.3606 -0.0997
   75MOL0     C10024  -1.584   1.551   2.350  0.1032 -0.4291  0.2876
   75MOL0     C10025  -1.704   1.509   2.324  0.5252  0.7443 -0.6522
   75MOL0     O10026  -1.812   1.552   2.404  0.0770  0.3996  0.4440
   75MOL0     C10027  -1.841   1.460   2.508  0.7392 -0.9066 -0.5046
   75MOL0     C10028  -1.757   1.464   2.635  0.3405 -0.1146 -0.0919
   75MOL0     C10029  -1.781   1.590   2.723  0.1968 -0.3375  0.2680
   75MOL0     C10030  -1.703   1.584   2.848 -0.4803  0.2746 -0.0909
   75MOL0     C10031  -1.733   1.704   2.938 -0.2637  0.4112 -0.4941
   75MOL0     C10032  -1.858   1.665   3.023  0.4044  0.1038 -0.1528
   75MOL0     C10033  -1.853   1.758   3.147  0.7196  0.4064  0.2255
   75MOL0     C10034  -1.992   1.769   3.204 -0.5465 -0.2495  0.0141
   75MOL0    Cl10035  -1.950   1.822   3.379 -0.4579 -0.2812  0.4857
   75MOL0     C10036  -1.732   1.436   2.213  0.2331 -0.4312  0.2109
   75MOL0     C10037  -1.631   1.412   2.126 -0.2932 -0.0774  0.3271
   75MOL0     O10038  -1.439   1.677   1.963 -0.2111 -0.0588 -0.3975
   75MOL0     C10039  -1.252   1.639   1.767  0.6618  0.7148 -0.3666
   75MOL0     C10040  -1.148   1.627   1.686  0.4688 -0.8767  0.5830
   75MOL0     N10041  -0.261   1.585   1.728 -0.5488  0.6553  0.2586
   75MOL0     N10042  -0.191   1.689   1.745 -0.3349  0.1413 -0.2043
   75MOL0     C10043   0.720   2.185   1.865  0.2040 -0.2627 -0.2084
   75MOL0     C10044   0.857   2.173   1.896 -0.7052  0.5016 -0.4841
   75MOL0     C10045   1.239   2.018   2.040  0.0453 -0.3515  0.0804
   75MOL0     C10046   1.300   2.119   1.973 -0.6342  0.2543  0.0438
   75MOL0     C10047   1.444   2.108   1.960 -0.2585 -1.1095 -0.2118
   75MOL0     C10048   1.516   1.997   2.013 -0.5785  0.1493  0.3146
   75MOL0     O10049   1.654   1.983   1.986 -0.2546  0.0137 -0.1825
   75MOL0     C10050   1.741   2.058   1.897  1.3800 -0.0897  0.3312
   75MOL0     C10051   1.862   2.108   1.978  0.7589 -0.2388 -0.4695
   75MOL0     C10052   1.967   2.006   2.019 -0.4471  0.3766  0.1204
   75MOL0     C10053   1.931   1.967   2.155  0.0041  0.2880 -0.1698
   75MOL0     C10054   2.050   1.915   2.222 -0.4318  0.0903  0.2296
   75MOL0     C10055   2.152   1.867   2.277 -0.4692  0.5224  0.0144
   75MOL0     C10056   1.449   1.896   2.082  0.3766  0.0249  0.7521
   75MOL0     C10057   1.307   1.909   2.100 -0.5989 -0.0279 -1.1890
   75MOL0     H10058   0.845   2.138   2.224  1.0351  2.1635 -0.1066
   75MOL0     H10059   0.580   2.151   2.166  0.0092 -0.3403 -0.4362
   75MOL0     H10060   0.486   2.330   1.776 -4.4813  2.6782  0.8263
   75MOL0     H10061   0.504   2.158   1.738  1.9707  2.4887 -1.2441
   75MOL0     H10062   0.251   2.294   1.832  1.1549  1.9250 -0.8289
   75MOL0     H10063   0.315   2.284   1.664  0.9406  0.8501  0.7586
   75MOL0     H10064   0.299   2.049   1.645 -0.7094  1.4410 -0.9789
   75MOL0     H10065   0.238   2.046   1.825  4.5030 -1.0827 -0.3653
   75MOL0     H10066   0.030   2.154   1.750 -1.1423 -2.7456 -0.0453
   75MOL0     H10067   0.082   2.157   1.587  0.3023 -0.4491  0.0354
   75MOL0     H10068   0.101   1.927   1.579  0.3421  0.9083  0.3654
   75MOL0     H10069   0.044   1.889   1.739  2.5584 -1.1770 -0.7488
   75MOL0     H10070  -0.093   2.017   1.500 -0.0309  2.5690  1.1281
   75MOL0     H10071  -0.100   1.859   1.552  2.5045  0.0758 -1.2848
   75MOL0     H10072  -0.219   2.118   1.683 -1.4209 -0.1256 -0.4839
   75MOL0     H10073  -0.296   1.992   1.591  0.2214  1.2499 -1.3243
   75MOL0     H10074  -0.322   1.991   1.837 -0.7268  1.1425 -2.0625
   75MOL0     H10075  -0.150   1.929   1.850 -0.5439 -2.7407  0.7862
   75MOL0     H10076  -0.496   1.790   1.789 -0.9890 -1.1108 -0.6512
   75MOL0     H10077  -0.432   1.398   1.710 -0.0501 -0.0144  2.3524
   75MOL0     H10078  -0.562   1.476   1.805  2.8148 -1.1319  2.7293
   75MOL0     H10079  -0.588   1.392   1.550 -1.4921 -0.3910  1.1389
   75MOL0     H10080  -0.493   1.529   1.505 -0.0640  1.5759  0.9402
   75MOL0     H10081  -0.709   1.605   1.479 -1.8144  0.1862 -0.2322
   75MOL0     H10082  -0.668   1.676   1.630  3.4063  0.0383 -2.0984
   75MOL0     H10083  -0.780   1.509   1.763 -1.7216  1.6464 -0.0314
   75MOL0     H10084  -0.798   1.398   1.628  2.0431 -0.4126  0.3328
   75MOL0     H10085  -0.945   1.439   1.877 -1.9170 -1.6364 -0.3385
   75MOL0     H10086  -1.173   1.515   2.135  0.9970  0.8705 -0.0586
   75MOL0     H10087  -1.128   1.352   2.067 -2.4280  0.1749 -0.1237
   75MOL0     H10088  -1.006   1.466   2.104  1.6561 -1.1708 -2.3924
   75MOL0     H10089  -1.391   1.608   2.268  2.0855 -3.5401 -1.5723
   75MOL0     H10090  -1.570   1.627   2.426  0.5301  0.1563 -0.3630
   75MOL0     H10091  -1.946   1.467   2.536  0.5610  1.3782 -1.5042
   75MOL0     H10092  -1.830   1.358   2.471 -1.1063 -0.7495 -1.6043
   75MOL0     H10093  -1.787   1.382   2.700 -3.2030  0.9218 -0.2072
   75MOL0     H10094  -1.649   1.463   2.615  0.3346  0.4600 -0.1727
   75MOL0     H10095  -1.885   1.604   2.753  0.1269 -0.7445  0.2130
   75MOL0     H10096  -1.753   1.681   2.668 -0.2678 -0.8971 -0.9379
   75MOL0     H10097  -1.708   1.491   2.905  0.3234  0.8014  0.8645
   75MOL0     H10098  -1.599   1.598   2.821 -0.7180  1.3073 -0.5255
   75MOL0     H10099  -1.749   1.796   2.881 -0.3513 -0.4547 -1.9320
   75MOL0     H10100  -1.648   1.721   3.003 -1.4175 -1.8259  1.7896
   75MOL0     H10101  -1.950   1.676   2.965 -0.6881 -2.0879  1.0256
   75MOL0     H10102  -1.853   1.561   3.055  3.6971 -0.5633 -2.2367
   75MOL0     H10103  -1.818   1.858   3.119 -2.1886  0.9423 -1.9569
   75MOL0     H10104  -1.791   1.710   3.223 -1.1036 -2.5239  0.0144
   75MOL0     H10105  -2.049   1.676   3.205 -3.2638  1.3253  0.6911
   75MOL0     H10106  -2.060   1.840   3.158 -0.7888  0.2204  1.0615
   75MOL0     H10107  -1.827   1.392   2.186 -0.6873  2.3058 -1.3830
   75MOL0     H10108  -1.650   1.362   2.031 -8.5794 -0.9767  1.6955
   75MOL0     H10109  -1.345   1.689   1.743  1.2584  1.6458 -0.8060
   75MOL0     H10110  -1.150   1.675   1.589  2.4617  0.6376  1.2079
   75MOL0     H10111   0.708   2.208   1.759 -0.6084  2.0021  0.3230
   75MOL0     H10112   0.932   2.169   1.818 -2.4545  0.2967 -2.2317
   75MOL0     H10113   1.252   2.197   1.915 -0.8036 -2.7784 -4.2790
   75MOL0     H10114   1.490   2.192   1.908  1.7495 -1.5762  0.7208
   75MOL0     H10115   1.766   1.992   1.814  0.5465 -0.9768  0.7736
   75MOL0     H10116   1.693   2.147   1.856  2.2047 -0.7348 -2.2035
   75MOL0     H10117   1.824   2.176   2.054 -0.5623 -2.1555  0.6641
   75MOL0     H10118   1.911   2.170   1.902  1.2797  0.0298  0.0844
   75MOL0     H10119   2.066   2.050   2.022 -1.3073  2.3592  1.6114
   75MOL0     H10120   1.958   1.924   1.946 -0.5707  1.0153 -0.5923
   75MOL0     H10121   1.853   1.891   2.156 -0.0272  0.2736  2.0812
   75MOL0     H10122   1.904   2.058   2.210 -1.7846  0.5709 -1.4609
   75MOL0     H10123   2.237   1.825   2.327 -0.8978 -4.0493 -2.5365
   75MOL0     H10124   1.504   1.809   2.115 -1.0892 -2.0938 -1.9659
   75MOL0     H10125   1.265   1.837   2.169  3.5314 -1.9060 -0.3494
   76MOL0     O10126   3.942   8.641   5.206  0.5717  0.4153  0.0932
   76MOL0     C10127   3.969   8.677   5.088 -0.3497 -0.6926 -0.6932
   76MOL0     O10128   3.902   8.770   5.019 -0.2574 -0.4122  0.1435
   76MOL0     C10129   3.774   8.803   5.058  0.1669  0.5231 -0.7063
   76MOL0     C10130   3.655   8.761   4.988  0.1406 -0.4058  0.2114
   76MOL0     C10131   3.524   8.792   5.036 -0.6138  0.6128 -0.3746
   76MOL0     C10132   3.508   8.866   5.151 -0.0305 -0.6730  0.3381
   76MOL0     O10133   3.382   8.912   5.180  0.9720  0.1689  0.6315
   76MOL0     C10134   3.359   9.047   5.225  0.8066  0.0276  0.0820
   76MOL0     C10135   3.210   9.081   5.213 -0.5014 -0.6683  0.7112
   76MOL0     C10136   3.131   9.008   5.320  0.3920  0.7497  0.4936
   76MOL0     C10137   2.977   9.031   5.290 -0.2817  0.1221  0.2510
   76MOL0     C10138   2.941   9.174   5.329  0.4643 -0.3795  0.2920
   76MOL0     C10139   2.794   9.208   5.305 -0.0989 -0.2917 -0.5329
   76MOL0     C10140   2.701   9.101   5.363  0.3513  0.2110  0.6687
   76MOL0     C10141   2.552   9.138   5.342 -0.0712 -0.0004 -0.0885
   76MOL0     N10142   2.504   9.128   5.200 -0.7314  0.1625  0.3724
   76MOL0     C10143   2.495   9.006   5.134  0.5250 -0.8684 -0.7127
   76MOL0     C10144   2.461   9.044   5.008  0.0862  0.5437 -0.9410
   76MOL0     C10145   2.427   8.949   4.894  0.4301  0.2199 -0.2750
   76MOL0     C10146   2.280   8.962   4.861  0.0632  0.4825 -0.5412
   76MOL0     C10147   2.268   8.887   4.731  0.2263 -0.2302 -0.3364
   76MOL0     C10148   2.129   8.833   4.725  0.3107 -0.7439  0.0659
   76MOL0     O10149   2.031   8.948   4.725 -0.5220  0.2167 -0.3607
   76MOL0     C10150   1.928   8.952   4.636  0.2122  0.5522 -0.2884
   76MOL0     C10151   1.844   8.843   4.603 -0.8567  0.4345  0.0511
   76MOL0     C10152   1.751   8.858   4.495  1.1165  0.3339 -1.1084
   76MOL0     C10153   1.669   8.736   4.461  0.1347 -0.4823 -0.0881
   76MOL0     C10154   1.729   8.976   4.433 -0.8105 -0.6799 -1.2333
   76MOL0     C10155   1.647   9.005   4.312 -0.3968  0.6593  1.1591
   76MOL0     O10156   1.524   9.043   4.337  0.4170 -0.3360  0.3346
   76MOL0     C10157   1.419   9.018   4.245  0.7179 -0.4308 -0.0102
   76MOL0     C10158   1.431   9.061   4.110  0.7231 -0.1258  0.7014
   76MOL0     C10159   1.321   9.050   4.015  0.1382 -0.2162 -0.2382
   76MOL0     C10160   1.211   8.974   4.059 -0.6724  0.8345  0.2940
   76MOL0     O10161   1.098   8.944   3.986 -0.0124  0.8658 -0.3590
   76MOL0     C10162   1.087   8.967   3.846 -0.0600 -0.4969  0.4837
   76MOL0     C10163   1.183   8.873   3.759  0.6936  0.1250  0.0675
   76MOL0     C10164   1.187   8.890   3.612 -0.9901 -0.8794 -0.7644
   76MOL0     C10165   1.276   8.774   3.554  0.0896 -0.8971 -0.4523
   76MOL0     C10166   1.303   8.787   3.408  0.1624 -0.0381  0.3659
   76MOL0     C10167   1.388   8.672   3.348  0.1806 -0.0304  0.2008
   76MOL0     C10168   1.535   8.658   3.393 -0.2153 -0.6017 -0.0661
   76MOL0     C10169   1.618   8.578   3.304  0.2777  0.0141 -0.5668
   76MOL0    Cl10170   1.574   8.402   3.300  0.3821 -0.0957 -0.1060
   76MOL0     C10171   1.205   8.927   4.195 -0.8161 -0.5137 -0.2161
   76MOL0     C10172   1.302   8.961   4.289  0.0062  0.4753 -0.2241
   76MOL0     O10173   1.687   8.967   4.199  0.4624  0.0143  0.2047
   76MOL0     C10174   1.804   9.095   4.479  0.3425  0.3816  0.1725
   76MOL0     C10175   1.905   9.086   4.577 -0.6998  1.0470  0.3294
   76MOL0     N10176   2.461   9.187   4.999  0.1697 -0.0639  0.3350
   76MOL0     N10177   2.498   9.226   5.113 -0.2618  0.4119  0.8067
   76MOL0     C10178   3.620   8.906   5.220 -0.2856 -1.1976 -0.0021
   76MOL0     C10179   3.751   8.879   5.173  0.0184  0.2946 -0.7589
   76MOL0     C10180   4.095   8.624   5.022 -0.5638 -0.6138 -0.9883
   76MOL0     C10181   4.127   8.488   5.039 -0.1139  0.6867  1.3221
   76MOL0     C10182   4.240   8.439   4.981 -0.5611  0.4414 -0.3182
   76MOL0     C10183   4.323   8.512   4.903 -1.6208  0.3434  0.2535
   76MOL0     O10184   4.426   8.447   4.830  0.1272 -0.6325 -0.2993
   76MOL0     C10185   4.528   8.531   4.762  0.5499  0.0687  0.2650
   76MOL0     C10186   4.616   8.428   4.686 -1.0505  0.1294 -0.0355
   76MOL0     C10187   4.543   8.351   4.572  0.4231  0.6221 -0.1637
   76MOL0     C10188   4.628   8.322   4.452  0.3361 -0.9178 -0.0845
   76MOL0     C10189   4.553   8.229   4.368  1.2627  0.8836  0.6196
   76MOL0     C10190   4.496   8.164   4.282 -0.5554 -0.1834 -0.0019
   76MOL0     C10191   4.294   8.648   4.888  0.4259 -0.2706  0.5108
   76MOL0     C10192   4.187   8.703   4.953 -0.0714 -0.6278 -0.2437
   76MOL0     H10193   3.670   8.704   4.896 -0.5192 -0.3959  0.0953
   76MOL0     H10194   3.442   8.778   4.965 -3.5151  1.9918  2.4215
   76MOL0     H10195   3.387   9.049   5.331 -1.1498 -1.3137  0.6640
   76MOL0     H10196   3.423   9.117   5.170  0.9187  1.7205  2.2240
   76MOL0     H10197   3.192   9.189   5.215  0.7229 -0.4467  0.6970
   76MOL0     H10198   3.197   9.042   5.111  2.5836  0.6772 -0.3478
   76MOL0     H10199   3.161   8.903   5.307 -0.1416  0.8221 -1.6893
   76MOL0     H10200   3.144   9.050   5.420 -2.6079  2.0958  0.4284
   76MOL0     H10201   2.950   9.010   5.186  0.5289  0.7575 -0.0959
   76MOL0     H10202   2.933   8.948   5.346  1.2928  0.6008  2.3282
   76MOL0     H10203   2.956   9.185   5.437  1.2903 -2.4114  0.4265
   76MOL0     H10204   2.995   9.254   5.279 -0.1115 -0.8195 -1.0751
   76MOL0     H10205   2.770   9.306   5.349 -0.3423 -0.0799 -1.1354
   76MOL0     H10206   2.775   9.205   5.198 -0.2502  1.0626 -0.5676
   76MOL0     H10207   2.714   8.999   5.326  1.2782  0.6466 -0.2680
   76MOL0     H10208   2.713   9.099   5.471 -0.3394  3.4697  0.9072
   76MOL0     H10209   2.535   9.240   5.378  2.3169  0.4413 -0.0692
   76MOL0     H10210   2.483   9.078   5.403 -0.1676  0.9422  0.7565
   76MOL0     H10211   2.502   8.916   5.194  0.9158  2.4553  4.9154
   76MOL0     H10212   2.496   8.970   4.812  1.7724 -0.3863  0.6621
   76MOL0     H10213   2.443   8.849   4.935  0.4883  0.9774  1.6595
   76MOL0     H10214   2.248   9.066   4.851 -0.7538  0.1706 -1.4444
   76MOL0     H10215   2.212   8.920   4.935  0.2905 -0.3744 -0.8075
   76MOL0     H10216   2.338   8.803   4.726  0.3405 -0.4299  2.5901
   76MOL0     H10217   2.288   8.952   4.646 -0.2196  2.2138  1.3422
   76MOL0     H10218   2.105   8.777   4.816  0.7153  1.5952  1.7321
   76MOL0     H10219   2.107   8.770   4.639  0.8274 -0.0202 -0.6150
   76MOL0     H10220   1.851   8.745   4.648 -1.3549  0.0116 -0.7674
   76MOL0     H10221   1.720   8.691   4.376  1.5432 -1.3627  1.1706
   76MOL0     H10222   1.671   8.671   4.549 -3.5264 -0.3074  0.3004
   76MOL0     H10223   1.563   8.752   4.439  0.1791 -0.1337 -0.0584
   76MOL0     H10224   1.520   9.098   4.060 -0.9998  1.3562 -1.4669
   76MOL0     H10225   1.319   9.107   3.922  1.3480  0.9090  0.3884
   76MOL0     H10226   0.983   8.946   3.818  0.5315 -4.0231  0.4362
   76MOL0     H10227   1.108   9.072   3.822  0.3909 -0.7432 -0.2534
   76MOL0     H10228   1.284   8.879   3.800  0.6774 -2.5178  0.6811
   76MOL0     H10229   1.141   8.773   3.776 -0.2500  0.3602 -0.7799
   76MOL0     H10230   1.222   8.990   3.582 -2.3918 -0.2004 -0.2301
   76MOL0     H10231   1.090   8.866   3.567 -1.0034 -1.3778 -0.4753
   76MOL0     H10232   1.373   8.780   3.603  0.1697  0.7958 -0.7673
   76MOL0     H10233   1.233   8.676   3.577 -2.3386  0.3266  0.6414
   76MOL0     H10234   1.344   8.887   3.392  1.3742 -0.6231 -0.3594
   76MOL0     H10235   1.206   8.783   3.358 -0.8625 -1.9807  2.3182
   76MOL0     H10236   1.350   8.572   3.371  1.1727 -0.2255  1.0914
   76MOL0     H10237   1.377   8.689   3.240 -2.1121 -1.1170  0.2153
   76MOL0     H10238   1.537   8.620   3.495 -0.9629  0.7284  0.4754
   76MOL0     H10239   1.581   8.758   3.392  1.1947 -1.2137 -1.1136
   76MOL0     H10240   1.714   8.582   3.356 -0.7006  2.1453  1.2184
   76MOL0     H10241   1.624   8.621   3.203 -0.7564  2.5724  0.4062
   76MOL0     H10242   1.111   8.886   4.230 -0.0551  0.3742  3.2613
   76MOL0     H10243   1.289   8.926   4.391 -1.9405 -0.9507 -0.9236
   76MOL0     H10244   1.798   9.181   4.414  2.7245  0.9967  0.6601
   76MOL0     H10245   1.966   9.175   4.590 -2.0483  2.3455 -1.7957
   76MOL0     H10246   3.611   8.965   5.311  0.5752  0.3543 -0.8751
   76MOL0     H10247   3.831   8.920   5.233 -0.4365  0.2024 -0.0830
   76MOL0     H10248   4.065   8.414   5.088  2.2570 -2.0660  0.4246
   76MOL0     H10249   4.253   8.332   4.994  0.3368  0.6129  0.2652
   76MOL0     H10250   4.481   8.592   4.685 -2.2212 -0.4968  1.3934
   76MOL0     H10251   4.586   8.594   4.830 -1.7362  2.4503  0.1377
   76MOL0     H10252   4.669   8.360   4.753  1.9359  1.9909 -0.3567
   76MOL0     H10253   4.694   8.487   4.638 -0.9080 -0.7966 -1.0015
   76MOL0     H10254   4.447   8.401   4.554  0.0329 -0.2827 -0.6746
   76MOL0     H10255   4.503   8.255   4.606 -1.7046  0.8596 -1.8025
   76MOL0     H10256   4.723   8.277   4.481  0.4352 -1.7554 -1.5946
   76MOL0     H10257   4.648   8.420   4.408  1.0049 -1.6021 -1.3602
   76MOL0     H10258   4.437   8.124   4.203 -1.9556  2.1548 -0.2549
   76MOL0     H10259   4.349   8.718   4.826 -0.4792 -0.6627 -0.7696
   76MOL0     H10260   4.170   8.810   4.951  3.0206 -0.0272 -1.2299
   77MOL0     O10261  10.576   0.067   7.077  0.7232  0.2221 -0.0641
   77MOL0     C10262  10.633   0.020   6.979  1.0581 -0.2154 -0.2607
   77MOL0     O10263  10.588   0.046   6.853  0.2007  0.4690  0.8667
   77MOL0     C10264  10.451   0.059   6.833  0.0210 -0.8928  1.1990
   77MOL0     C10265  10.350  -0.008   6.905 -0.9474  0.2542 -1.9767
   77MOL0     C10266  10.225   0.021   6.890  0.4959  0.8783  0.8339
   77MOL0     C10267  10.176   0.095   6.779  0.6575 -0.2226 -0.4082
   77MOL0     O10268  10.043   0.137   6.758 -0.8806  0.6384 -0.4926
   77MOL0     C10269   9.945   0.062   6.825 -0.1830 -0.0809 -0.5101
   77MOL0     C10270   9.809   0.111   6.791  0.3663 -0.0441  0.0856
   77MOL0     C10271   9.682   0.040   6.860  0.0955  0.3171  0.1067
   77MOL0     C10272   9.538   0.098   6.836 -0.5258 -0.2800  0.7056
   77MOL0     C10273   9.425   0.025   6.902  0.2416  0.3298  0.0792
   77MOL0     C10274   9.298   0.109   6.887 -0.4232 -1.2491 -0.1301
   77MOL0     C10275   9.157   0.058   6.922 -0.3120 -1.0037 -0.7174
   77MOL0     C10276   9.138   0.026   7.074  0.4839 -0.8969 -0.4050
   77MOL0     N10277   8.995   0.000   7.098 -0.8137 -0.0695  0.0598
   77MOL0     C10278   8.916  -0.103   7.057  0.2253  0.3246  0.3450
   77MOL0     C10279   8.790  -0.081   7.094  0.2114  0.3120 -0.3086
   77MOL0     C10280   8.681  -0.165   7.045  0.0429 -0.2595 -0.1504
   77MOL0     C10281   8.628  -0.108   6.917 -0.7572  0.1281 -1.0465
   77MOL0     C10282   8.499  -0.163   6.871  0.5595  0.4397 -0.0617
   77MOL0     C10283   8.427  -0.062   6.787  0.7883 -0.4236 -0.1692
   77MOL0     O10284   8.355   0.032   6.872  0.6904 -0.5630 -0.5693
   77MOL0     C10285   8.222   0.042   6.837 -0.4420 -0.8890 -0.3085
   77MOL0     C10286   8.184   0.157   6.777  0.5724 -0.1850 -0.7375
   77MOL0     C10287   8.053   0.178   6.736  0.4806  0.7786  0.0213
   77MOL0     C10288   8.023   0.315   6.674  0.0773  0.8164  1.2431
   77MOL0     C10289   7.948   0.083   6.768  0.0596 -0.7823 -0.6055
   77MOL0     C10290   7.798   0.098   6.734 -0.2904  0.8428 -0.1672
   77MOL0     O10291   7.710  -0.006   6.780 -0.1472 -0.5493 -0.0004
   77MOL0     C10292   7.607  -0.032   6.695  1.5383 -0.0546  0.4793
   77MOL0     C10293   7.606  -0.116   6.580 -0.1088 -0.0597 -0.1928
   77MOL0     C10294   7.486  -0.121   6.506 -0.5297  0.0804  0.2720
   77MOL0     C10295   7.366  -0.066   6.540  0.8680  0.3551 -0.0359
   77MOL0     O10296   7.253  -0.084   6.466 -0.0932  0.4039 -0.3311
   77MOL0     C10297   7.142  -0.131   6.524 -0.5542  0.0272  0.7463
   77MOL0     C10298   7.085  -0.251   6.446  0.1290 -0.0231  0.2260
   77MOL0     C10299   7.017  -0.205   6.315 -0.5976 -1.3110 -0.6383
   77MOL0     C10300   6.971  -0.319   6.221 -0.2143 -0.2231  0.4617
   77MOL0     C10301   6.918  -0.261   6.089 -0.1926 -0.5881  0.0000
   77MOL0     C10302   6.898  -0.381   5.992  0.5550  0.4598  0.3392
   77MOL0     C10303   6.908  -0.328   5.844 -0.8196  0.2142  0.6004
   77MOL0     C10304   7.055  -0.291   5.792  0.8452  0.4604 -0.2242
   77MOL0    Cl10305   7.186  -0.404   5.845  0.0175 -0.6791 -0.0658
   77MOL0     C10306   7.362   0.011   6.648 -0.4021  0.3136 -0.1890
   77MOL0     C10307   7.481   0.039   6.714 -0.2393  0.0369 -0.9315
   77MOL0     O10308   7.764   0.178   6.647  0.1734  0.4185 -0.9892
   77MOL0     C10309   7.998  -0.038   6.833 -0.0701 -0.5279  0.3384
   77MOL0     C10310   8.128  -0.057   6.865  0.1006  0.2263 -0.2827
   77MOL0     N10311   8.792   0.048   7.154  0.1623  0.5052 -0.2423
   77MOL0     N10312   8.916   0.096   7.152 -0.0565  0.3863 -0.0335
   77MOL0     C10313  10.268   0.153   6.696  0.3958  0.1568 -1.0069
   77MOL0     C10314  10.405   0.138   6.721  0.0552  0.2108  1.4566
   77MOL0     C10315  10.746  -0.064   6.986  0.1590 -0.3426  0.2647
   77MOL0     C10316  10.832  -0.084   6.876 -1.1927  0.3394  0.9121
   77MOL0     C10317  10.936  -0.175   6.870 -0.1221  0.0722 -0.1789
   77MOL0     C10318  10.956  -0.256   6.984  0.3615 -0.2224 -1.0166
   77MOL0     O10319  11.058  -0.358   6.999 -0.3353  0.0815 -0.3963
   77MOL0     C10320  11.134  -0.398   6.888 -0.2969 -0.6887 -0.3529
   77MOL0     C10321  11.211  -0.528   6.924 -0.3932  0.0399 -0.6980
   77MOL0     C10322  11.134  -0.655   6.958  0.5513  0.7267  0.1820
   77MOL0     C10323  11.220  -0.779   6.985 -0.0191 -0.1756  0.6565
   77MOL0     C10324  11.129  -0.896   6.991 -0.1430  0.0763  0.0634
   77MOL0     C10325  11.060  -0.991   7.016 -0.2314  0.6145  0.0939
   77MOL0     C10326  10.883  -0.228   7.101  0.7654 -1.0466 -0.2985
   77MOL0     C10327  10.782  -0.125   7.103 -0.5363  0.4835 -0.1727
   77MOL0     H10328  10.375  -0.077   6.985  2.2488  0.4539 -2.6854
   77MOL0     H10329  10.150  -0.016   6.958  0.8167  0.6431  1.0626
   77MOL0     H10330   9.949  -0.042   6.793 -0.2271  0.5031 -2.5159
   77MOL0     H10331   9.970   0.065   6.932  0.7299  0.7207 -0.7347
   77MOL0     H10332   9.803   0.216   6.823 -0.8484 -0.9739  3.2680
   77MOL0     H10333   9.806   0.103   6.682  1.6405 -2.2587  0.1662
   77MOL0     H10334   9.683  -0.062   6.821  0.0307  0.1109  0.6441
   77MOL0     H10335   9.703   0.041   6.967 -0.5757  1.8634  0.2518
   77MOL0     H10336   9.541   0.205   6.856  1.8891 -0.2411  0.4061
   77MOL0     H10337   9.518   0.095   6.728 -2.8823 -1.1134  1.1024
   77MOL0     H10338   9.420  -0.071   6.850 -1.1374 -0.9626  2.3724
   77MOL0     H10339   9.444   0.002   7.008 -0.6138 -1.0986 -0.0503
   77MOL0     H10340   9.326   0.195   6.949  3.4215 -2.4708  0.1581
   77MOL0     H10341   9.283   0.141   6.784 -1.4126 -1.3649 -0.0289
   77MOL0     H10342   9.085   0.129   6.883 -0.2695 -0.4538  0.1832
   77MOL0     H10343   9.133  -0.032   6.864  3.0961 -1.6960 -1.3251
   77MOL0     H10344   9.182   0.106   7.134  0.1498 -1.7217  0.9840
   77MOL0     H10345   9.185  -0.071   7.097 -1.5118 -2.0857 -1.0581
   77MOL0     H10346   8.949  -0.193   7.006  2.7190  0.2926  1.8710
   77MOL0     H10347   8.716  -0.267   7.027  0.0806 -0.7028  2.1392
   77MOL0     H10348   8.603  -0.160   7.122  0.5355 -0.2014  0.3512
   77MOL0     H10349   8.704  -0.113   6.839  0.3392 -1.5292  0.0482
   77MOL0     H10350   8.625   0.001   6.927  1.3302  0.0844  0.7809
   77MOL0     H10351   8.433  -0.206   6.947 -0.7011 -0.7210 -1.7451
   77MOL0     H10352   8.530  -0.245   6.805 -1.6738  1.8413 -3.0736
   77MOL0     H10353   8.358  -0.125   6.731 -2.0768  1.2827  1.2039
   77MOL0     H10354   8.494  -0.010   6.718  2.8173 -2.3697  0.2194
   77MOL0     H10355   8.263   0.232   6.781  0.5980 -0.2528  1.2419
   77MOL0     H10356   7.974   0.303   6.576 -1.8316 -2.6657  2.4366
   77MOL0     H10357   7.963   0.379   6.739 -0.8748  2.7080 -1.3235
   77MOL0     H10358   8.121   0.361   6.659  0.3515 -0.0698  0.1298
   77MOL0     H10359   7.698  -0.168   6.555  0.6339 -1.1082  3.9277
   77MOL0     H10360   7.487  -0.181   6.415  1.6688 -1.7043  1.3679
   77MOL0     H10361   7.162  -0.158   6.628 -0.6414  0.2053  0.8098
   77MOL0     H10362   7.069  -0.050   6.537 -1.8732 -1.1260  0.8202
   77MOL0     H10363   7.160  -0.327   6.424 -2.0420 -2.3647  0.4119
   77MOL0     H10364   7.004  -0.287   6.511 -1.2908 -0.5734 -1.7743
   77MOL0     H10365   7.095  -0.152   6.259  0.1503  0.6932  2.0786
   77MOL0     H10366   6.944  -0.128   6.339 -0.0312 -1.1171  0.5426
   77MOL0     H10367   7.049  -0.393   6.202 -0.7321 -0.5418 -0.4906
   77MOL0     H10368   6.897  -0.375   6.279  0.1458 -0.0200  1.1315
   77MOL0     H10369   6.998  -0.193   6.059  0.9099 -1.1787  1.4696
   77MOL0     H10370   6.827  -0.202   6.099 -1.6718 -2.5554 -1.1933
   77MOL0     H10371   6.965  -0.467   5.999 -0.6110 -0.4475  0.7216
   77MOL0     H10372   6.800  -0.427   6.001 -0.0363  1.1657 -1.9312
   77MOL0     H10373   6.842  -0.244   5.822 -0.5285  0.1830 -0.4035
   77MOL0     H10374   6.879  -0.410   5.778 -1.2354  1.6549 -1.0577
   77MOL0     H10375   7.073  -0.190   5.829 -1.4184  1.6905 -2.1920
   77MOL0     H10376   7.065  -0.276   5.684  0.0517  0.9791 -0.2316
   77MOL0     H10377   7.272   0.056   6.687 -1.6126 -3.5901  2.0327
   77MOL0     H10378   7.501   0.118   6.786  2.7651  0.8509 -2.5032
   77MOL0     H10379   7.924  -0.111   6.863 -2.0180  1.2374  0.0069
   77MOL0     H10380   8.159  -0.146   6.917 -0.9017 -0.4561 -0.8227
   77MOL0     H10381  10.233   0.218   6.616 -1.6120  1.4794  0.8153
   77MOL0     H10382  10.477   0.192   6.661 -1.5484 -0.5554 -1.3482
   77MOL0     H10383  10.802  -0.032   6.785  1.5179  2.3812  1.0775
   77MOL0     H10384  10.999  -0.180   6.782  0.5035  2.0133  0.0990
   77MOL0     H10385  11.056  -0.412   6.812 -1.8216 -0.0650  1.0552
   77MOL0     H10386  11.207  -0.318   6.870  0.6088 -1.0845  1.3996
   77MOL0     H10387  11.281  -0.509   7.006 -1.1864 -1.6012  0.4284
   77MOL0     H10388  11.273  -0.545   6.836  0.9296 -0.5354  0.3099
   77MOL0     H10389  11.070  -0.664   6.870  0.6020  0.9852  0.1166
   77MOL0     H10390  11.074  -0.649   7.048 -0.1962 -0.9530 -0.1767
   77MOL0     H10391  11.284  -0.773   7.074  0.4513  1.0009  0.2631
   77MOL0     H10392  11.293  -0.797   6.905 -1.4889 -0.7344 -0.5987
   77MOL0     H10393  10.987  -1.067   7.036  2.5835 -1.2808  4.7372
   77MOL0     H10394  10.905  -0.286   7.190 -2.4252  1.2265  2.1893
   77MOL0     H10395  10.718  -0.116   7.191 -0.2342  1.1327 -0.0162
   78MOL0     O10396   7.670   8.038  11.251  0.6111  0.1571 -0.4698
   78MOL0     C10397   7.760   8.112  11.292  0.4813 -0.0869  0.6484
   78MOL0     O10398   7.755   8.248  11.314 -0.1131 -0.2062 -0.3600
   78MOL0     C10399   7.642   8.319  11.273 -0.7863 -0.0563  0.6716
   78MOL0     C10400   7.649   8.456  11.280  0.7944  0.5724 -0.2634
   78MOL0     C10401   7.542   8.539  11.244 -0.7757 -0.0148  0.6317
   78MOL0     C10402   7.426   8.494  11.186 -0.6493 -0.1553 -0.1499
   78MOL0     O10403   7.320   8.578  11.148 -0.4167 -0.0558  0.8299
   78MOL0     C10404   7.335   8.725  11.168  0.1439  0.2287 -0.3135
   78MOL0     C10405   7.203   8.786  11.170  0.5048  0.4985  0.0452
   78MOL0     C10406   7.113   8.740  11.285 -0.8646  0.2101  0.4614
   78MOL0     C10407   6.999   8.839  11.306  0.2216 -0.1937 -0.8129
   78MOL0     C10408   6.886   8.810  11.209 -0.0158  0.2001 -0.1213
   78MOL0     C10409   6.771   8.911  11.235  1.1513 -0.4835  0.0773
   78MOL0     C10410   6.634   8.852  11.194 -0.2636  0.5188 -0.0748
   78MOL0     C10411   6.512   8.939  11.247  1.3964 -0.4170  0.1778
   78MOL0     N10412   6.382   8.876  11.221  0.1739 -0.7066  0.4706
   78MOL0     C10413   6.349   8.814  11.101 -0.4052 -0.0397 -0.2854
   78MOL0     C10414   6.237   8.742  11.126 -0.0530  0.2544 -0.7374
   78MOL0     C10415   6.164   8.657  11.030 -0.6824  0.5513 -0.5547
   78MOL0     C10416   6.029   8.693  10.984  0.0531  0.3021 -0.1391
   78MOL0     C10417   5.927   8.723  11.101  0.9981 -0.0699  0.3688
   78MOL0     C10418   5.918   8.608  11.204  1.0494  0.2008  0.6302
   78MOL0     O10419   5.882   8.492  11.127  0.0187 -0.2901  0.6212
   78MOL0     C10420   5.749   8.461  11.105 -0.5435  0.0436  0.6405
   78MOL0     C10421   5.643   8.547  11.128 -0.2470 -0.2663  0.7892
   78MOL0     C10422   5.509   8.506  11.087 -0.0825  1.2382 -0.6018
   78MOL0     C10423   5.403   8.614  11.103 -0.2969  0.1477  0.0839
   78MOL0     C10424   5.495   8.368  11.041 -0.0583 -0.3975  0.0616
   78MOL0     C10425   5.364   8.304  11.019 -0.8819 -0.3573 -0.0895
   78MOL0     O10426   5.264   8.355  11.100  0.1622  0.2985 -1.0716
   78MOL0     C10427   5.138   8.313  11.085  0.2335 -0.1231 -0.5757
   78MOL0     C10428   5.092   8.207  11.163 -0.1636 -0.5265 -0.5002
   78MOL0     C10429   4.959   8.170  11.149  1.1041  0.2981 -0.3936
   78MOL0     C10430   4.873   8.239  11.062 -0.3985  0.0789 -0.3304
   78MOL0     O10431   4.743   8.200  11.073 -0.2557  0.0070 -0.1875
   78MOL0     C10432   4.633   8.261  10.994  0.5850 -0.5372  0.2435
   78MOL0     C10433   4.510   8.165  10.994  0.2564  0.4714 -0.7305
   78MOL0     C10434   4.538   8.034  10.930  0.0292 -0.6528  0.0373
   78MOL0     C10435   4.418   7.945  10.929  0.0672  0.8995  0.4939
   78MOL0     C10436   4.458   7.811  10.862 -0.7816 -0.9023 -0.9069
   78MOL0     C10437   4.339   7.716  10.893 -0.2733 -0.9788 -0.5833
   78MOL0     C10438   4.359   7.564  10.884 -0.2157  0.3907 -0.1944
   78MOL0     C10439   4.239   7.488  10.953 -0.1244 -0.9280  0.2375
   78MOL0    Cl10440   4.077   7.536  10.875  0.0005 -0.1100  0.2075
   78MOL0     C10441   4.921   8.348  10.986  0.4683  0.2217  0.7711
   78MOL0     C10442   5.057   8.387  11.001  0.1829 -0.0720  0.2419
   78MOL0     O10443   5.348   8.207  10.948 -0.2605  0.4858  0.0914
   78MOL0     C10444   5.615   8.290  11.007  0.0515 -0.1789  0.9609
   78MOL0     C10445   5.733   8.344  11.034 -0.5205 -0.0660  0.1063
   78MOL0     N10446   6.206   8.762  11.258  0.3487 -0.2774  0.2709
   78MOL0     N10447   6.288   8.847  11.311 -0.1999  0.5089 -0.5160
   78MOL0     C10448   7.414   8.354  11.170 -0.1884 -0.2658  0.2668
   78MOL0     C10449   7.524   8.271  11.207 -1.4415 -0.8627  0.7239
   78MOL0     C10450   7.889   8.041  11.301  0.2202  0.2257  0.1639
   78MOL0     C10451   7.906   7.912  11.252 -0.0858  0.3305 -1.1866
   78MOL0     C10452   8.039   7.858  11.247  0.9482  0.3290 -0.3190
   78MOL0     C10453   8.149   7.922  11.306  0.6559 -0.8147 -0.9193
   78MOL0     O10454   8.277   7.872  11.313 -0.3839  0.5709  0.4220
   78MOL0     C10455   8.311   7.756  11.239  0.9039  0.3396  0.1283
   78MOL0     C10456   8.455   7.741  11.196 -0.8413  0.1062  1.1148
   78MOL0     C10457   8.549   7.749  11.315 -0.3634 -0.0546 -0.2834
   78MOL0     C10458   8.687   7.729  11.258 -0.1960 -0.0033 -0.3278
   78MOL0     C10459   8.767   7.727  11.379  0.2417  0.6941  0.4965
   78MOL0     C10460   8.814   7.708  11.482 -0.7743  0.1707 -0.3281
   78MOL0     C10461   8.121   8.037  11.377 -0.7929 -0.1420 -0.3536
   78MOL0     C10462   7.993   8.107  11.372 -1.4684 -0.5343 -0.4505
   78MOL0     H10463   7.739   8.498  11.325  1.6221  0.1948 -1.5240
   78MOL0     H10464   7.558   8.645  11.263 -1.1216  0.2355 -0.4281
   78MOL0     H10465   7.392   8.751  11.258 -0.0598 -0.7513  0.1076
   78MOL0     H10466   7.389   8.761  11.080  0.6509  0.7689  0.2015
   78MOL0     H10467   7.215   8.895  11.173  1.1801  0.4236  0.3033
   78MOL0     H10468   7.161   8.770  11.071 -0.0916 -0.3868  0.4246
   78MOL0     H10469   7.070   8.645  11.251  0.4517  1.1082 -4.4421
   78MOL0     H10470   7.178   8.732  11.373 -1.4599  0.4519  0.9265
   78MOL0     H10471   6.967   8.828  11.410  3.2250 -1.2660  0.1092
   78MOL0     H10472   7.018   8.946  11.289  0.7788  0.1342  1.4877
   78MOL0     H10473   6.914   8.810  11.104  0.0655  0.1646 -0.0999
   78MOL0     H10474   6.855   8.708  11.235 -0.4183  0.1229 -0.8820
   78MOL0     H10475   6.770   8.937  11.341 -0.5142  0.7907 -0.2016
   78MOL0     H10476   6.800   9.004  11.186  2.0945 -2.3918 -3.2999
   78MOL0     H10477   6.628   8.831  11.087  0.2405 -0.3545  0.0509
   78MOL0     H10478   6.621   8.757  11.246  2.0572  1.2077  1.9611
   78MOL0     H10479   6.513   9.039  11.202  0.9080 -1.2446 -1.7855
   78MOL0     H10480   6.524   8.950  11.355  2.2753 -1.4356  0.1974
   78MOL0     H10481   6.402   8.825  11.007  1.5518 -1.4748  0.5793
   78MOL0     H10482   6.228   8.663  10.942 -0.6714  6.9385 -0.6058
   78MOL0     H10483   6.179   8.557  11.072  2.1159  0.9726 -0.4063
   78MOL0     H10484   5.978   8.620  10.920 -1.4224  0.7174  0.5227
   78MOL0     H10485   6.015   8.781  10.922 -2.2206  0.2268  0.1818
   78MOL0     H10486   5.830   8.746  11.056  1.8092 -1.4665 -2.2642
   78MOL0     H10487   5.957   8.814  11.155  0.3701  1.8629 -2.3375
   78MOL0     H10488   5.843   8.617  11.283  0.2436  2.1722 -0.2968
   78MOL0     H10489   6.014   8.594  11.256  0.8449  1.3364  1.3471
   78MOL0     H10490   5.646   8.645  11.175  0.1623 -0.2900  0.8146
   78MOL0     H10491   5.384   8.631  11.209  0.2189  1.2470  0.0161
   78MOL0     H10492   5.430   8.707  11.053 -0.6602  0.4923  0.5284
   78MOL0     H10493   5.311   8.576  11.059  0.3921 -1.2736 -0.1956
   78MOL0     H10494   5.171   8.166  11.224 -0.8436  0.1492  0.8850
   78MOL0     H10495   4.912   8.082  11.192 -0.8149 -0.4079 -3.5596
   78MOL0     H10496   4.589   8.352  11.035  2.8167  1.8978 -2.3768
   78MOL0     H10497   4.664   8.291  10.894 -0.9722  0.7345  0.0936
   78MOL0     H10498   4.479   8.158  11.099 -1.2881  1.1900 -1.1167
   78MOL0     H10499   4.428   8.224  10.953 -2.1214  1.0458  4.1329
   78MOL0     H10500   4.614   7.978  10.985 -1.7862 -1.1880  2.1192
   78MOL0     H10501   4.576   8.058  10.830  0.1608  0.8493  0.4264
   78MOL0     H10502   4.388   7.923  11.032 -1.0558 -0.9459 -0.1866
   78MOL0     H10503   4.321   7.979  10.891 -1.5726 -1.5136  2.2254
   78MOL0     H10504   4.544   7.773  10.918  0.1636  3.2869  0.8779
   78MOL0     H10505   4.483   7.817  10.756 -2.0893 -1.8536 -1.2887
   78MOL0     H10506   4.299   7.743  10.992  2.0635 -0.3134  0.2329
   78MOL0     H10507   4.262   7.740  10.818 -0.5800 -1.3318 -0.3829
   78MOL0     H10508   4.459   7.552  10.928 -0.3279  0.7092  0.1598
   78MOL0     H10509   4.357   7.527  10.782  0.8012  0.1984 -0.1557
   78MOL0     H10510   4.238   7.513  11.060  1.9251 -1.1843  0.3514
   78MOL0     H10511   4.247   7.380  10.936 -0.9622 -0.7277 -1.6638
   78MOL0     H10512   4.858   8.414  10.928  2.2334  1.5534  0.2921
   78MOL0     H10513   5.094   8.473  10.947  3.3445 -1.2862  0.2429
   78MOL0     H10514   5.599   8.193  10.962  2.5543 -0.9546  1.6053
   78MOL0     H10515   5.826   8.298  11.002 -0.1131 -0.3341  1.6091
   78MOL0     H10516   7.331   8.305  11.120 -1.1862  1.2397  0.3934
   78MOL0     H10517   7.513   8.172  11.164  0.3798 -0.5128 -0.7007
   78MOL0     H10518   7.826   7.854  11.208 -1.5673 -0.4426  2.2188
   78MOL0     H10519   8.054   7.759  11.205 -0.9582 -0.2183  0.1465
   78MOL0     H10520   8.274   7.669  11.294 -1.7618  1.8373  0.9093
   78MOL0     H10521   8.254   7.750  11.146  2.0577  0.4978 -0.6062
   78MOL0     H10522   8.467   7.820  11.121  0.7333 -2.4304 -1.5058
   78MOL0     H10523   8.453   7.651  11.134 -2.4941  1.1737 -0.4767
   78MOL0     H10524   8.514   7.678  11.391 -1.4416 -0.7122 -1.3520
   78MOL0     H10525   8.545   7.852  11.351 -3.2521  0.0508 -0.6344
   78MOL0     H10526   8.713   7.816  11.198  2.4239 -1.1516 -0.9895
   78MOL0     H10527   8.693   7.634  11.203  0.8017  1.0263 -2.0606
   78MOL0     H10528   8.853   7.690  11.580 -0.1845 -0.2575 -0.6380
   78MOL0     H10529   8.198   8.091  11.432  0.0481 -1.4185 -0.2511
   78MOL0     H10530   7.986   8.203  11.421 -1.5625 -2.6286  4.1518
   79MOL0     O10531   0.809   4.294  10.431  0.1079  0.2154  0.2786
   79MOL0     C10532   0.878   4.328  10.336  0.8112  0.2534  0.2168
   79MOL0     O10533   0.825   4.360  10.212 -0.4209 -0.6674  0.7161
   79MOL0     C10534   0.687   4.375  10.200 -0.7314  0.0855 -0.0818
   79MOL0     C10535   0.607   4.452  10.286 -1.0489 -0.7264  0.3710
   79MOL0     C10536   0.477   4.479  10.246  0.1788  0.8379  0.5436
   79MOL0     C10537   0.415   4.419  10.136 -0.3061 -0.6109 -0.5874
   79MOL0     O10538   0.281   4.440  10.100  0.0182  0.5893 -0.1253
   79MOL0     C10539   0.208   4.530  10.179  0.3456  0.2152  0.1039
   79MOL0     C10540   0.065   4.521  10.158 -0.0831 -0.2357  0.1947
   79MOL0     C10541   0.022   4.379  10.183  0.3584  0.0485  0.0948
   79MOL0     C10542  -0.133   4.357  10.162 -0.1269  0.1167  0.8429
   79MOL0     C10543  -0.171   4.211  10.192 -0.4591 -0.8527  0.3757
   79MOL0     C10544  -0.320   4.189  10.180 -0.0052  0.2497  0.0720
   79MOL0     C10545  -0.355   4.069  10.270  0.0458 -0.2445  0.3042
   79MOL0     C10546  -0.502   4.034  10.274 -0.6429  0.0882 -0.4345
   79MOL0     N10547  -0.524   3.902  10.330 -0.2099 -0.3556 -0.6010
   79MOL0     C10548  -0.483   3.787  10.282  0.4732  0.1448  0.0903
   79MOL0     C10549  -0.516   3.693  10.378  0.5472  0.0978  0.7189
   79MOL0     C10550  -0.496   3.546  10.377 -0.8118  0.2140  0.3263
   79MOL0     C10551  -0.348   3.493  10.372  0.6723 -0.4841 -0.1706
   79MOL0     C10552  -0.321   3.347  10.329 -0.1781 -0.8000  0.1311
   79MOL0     C10553  -0.398   3.247  10.414 -0.3268  0.4444 -0.1088
   79MOL0     O10554  -0.540   3.233  10.391  0.2703 -0.4039 -0.0532
   79MOL0     C10555  -0.590   3.113  10.435  0.0584 -0.3478 -0.2361
   79MOL0     C10556  -0.548   3.044  10.546 -0.3739  0.1011  0.5855
   79MOL0     C10557  -0.598   2.915  10.585 -0.1254 -0.1801  0.0864
   79MOL0     C10558  -0.545   2.856  10.712 -0.1780 -0.0123 -0.8962
   79MOL0     C10559  -0.695   2.855  10.504 -0.3211  0.1837 -0.6571
   79MOL0     C10560  -0.753   2.722  10.528  0.1199  0.3568 -0.6359
   79MOL0     O10561  -0.892   2.714  10.505  0.3019 -0.1644 -0.1374
   79MOL0     C10562  -0.964   2.610  10.544 -0.3573  0.2070 -0.8004
   79MOL0     C10563  -1.067   2.573  10.457 -0.2930 -0.2482 -0.4615
   79MOL0     C10564  -1.139   2.452  10.470 -0.9060  0.7904  0.1237
   79MOL0     C10565  -1.116   2.372  10.582  0.2203  0.7804 -0.7014
   79MOL0     O10566  -1.189   2.264  10.624  0.1169  0.5107  0.0388
   79MOL0     C10567  -1.284   2.216  10.524 -1.2268  0.1042  0.6135
   79MOL0     C10568  -1.342   2.074  10.542  0.2186 -0.8470 -0.4904
   79MOL0     C10569  -1.379   2.041  10.690 -0.8728  0.3748 -0.2369
   79MOL0     C10570  -1.468   1.917  10.691 -0.0152  0.3405  0.1299
   79MOL0     C10571  -1.508   1.871  10.834 -0.1112 -0.0710  0.1727
   79MOL0     C10572  -1.628   1.771  10.820 -0.6154  0.7694  0.5156
   79MOL0     C10573  -1.656   1.711  10.955 -0.6620 -0.5766  0.8084
   79MOL0     C10574  -1.707   1.805  11.059 -1.0403 -0.4603 -0.3786
   79MOL0    Cl10575  -1.753   1.711  11.206 -0.0306 -0.3921 -0.2189
   79MOL0     C10576  -1.013   2.409  10.658  0.0028 -0.4047 -0.6326
   79MOL0     C10577  -0.931   2.521  10.645  0.1318  0.2861  0.3575
   79MOL0     O10578  -0.682   2.627  10.538 -0.5803  0.5585 -0.1660
   79MOL0     C10579  -0.747   2.932  10.394  0.8948  0.5003  0.1847
   79MOL0     C10580  -0.691   3.052  10.360  0.9024 -0.1276 -0.2426
   79MOL0     N10581  -0.582   3.750  10.479 -0.4063  0.1895 -0.4626
   79MOL0     N10582  -0.593   3.875  10.446  0.4614 -0.5674 -0.0994
   79MOL0     C10583   0.496   4.331  10.058 -0.3274 -1.1154  0.9378
   79MOL0     C10584   0.632   4.322  10.078 -0.1246  1.4037 -0.3966
   79MOL0     C10585   1.022   4.347  10.355  0.2504 -0.7090  0.0897
   79MOL0     C10586   1.082   4.306  10.473  1.0265  0.6279 -0.0000
   79MOL0     C10587   1.216   4.338  10.489 -0.3403  0.7289  0.1351
   79MOL0     C10588   1.292   4.402  10.387  0.6720  0.3969  0.0292
   79MOL0     O10589   1.413   4.456  10.391 -0.3820  0.2842 -0.5080
   79MOL0     C10590   1.481   4.452  10.516 -0.2741 -1.0664  0.5832
   79MOL0     C10591   1.431   4.556  10.617 -0.7939  1.1555  0.2258
   79MOL0     C10592   1.544   4.592  10.708  1.0699 -0.7521 -0.1463
   79MOL0     C10593   1.501   4.717  10.785  0.1199  0.0984 -0.2277
   79MOL0     C10594   1.528   4.831  10.708  0.3420 -0.3315  0.6923
   79MOL0     C10595   1.555   4.927  10.633  0.0222 -0.1797  0.6039
   79MOL0     C10596   1.229   4.416  10.264  0.3233 -0.2534  0.2693
   79MOL0     C10597   1.094   4.387  10.247  0.0844  0.3803 -0.0740
   79MOL0     H10598   0.657   4.496  10.372 -1.6573 -1.0328  0.8923
   79MOL0     H10599   0.435   4.552  10.315  1.9562  1.4377  1.0300
   79MOL0     H10600   0.222   4.506  10.285  0.5175  3.4397  0.9413
   79MOL0     H10601   0.245   4.633  10.167  1.8864 -0.4995 -1.7581
   79MOL0     H10602   0.022   4.586  10.235  1.1504  1.7713 -0.7316
   79MOL0     H10603   0.036   4.559  10.060  1.7457  0.3948 -0.1285
   79MOL0     H10604   0.070   4.309  10.114  0.5157  1.1204 -0.8945
   79MOL0     H10605   0.050   4.350  10.285  1.1705 -2.0359 -0.6751
   79MOL0     H10606  -0.181   4.434  10.222 -0.7334  0.4827 -0.0831
   79MOL0     H10607  -0.160   4.390  10.061  1.1150  0.4070  0.5854
   79MOL0     H10608  -0.124   4.144  10.119 -0.1118  0.1692 -0.3528
   79MOL0     H10609  -0.127   4.185  10.289  2.3598  2.0350  0.0340
   79MOL0     H10610  -0.377   4.275  10.218 -1.6221 -1.1862  1.0566
   79MOL0     H10611  -0.351   4.168  10.077  2.1296 -1.6180 -0.2591
   79MOL0     H10612  -0.294   3.984  10.237  1.3454  0.2977  1.2028
   79MOL0     H10613  -0.318   4.081  10.373  1.5699  0.9061 -0.3278
   79MOL0     H10614  -0.535   4.038  10.170 -1.1749 -1.1008 -0.3248
   79MOL0     H10615  -0.555   4.111  10.331 -0.7493  0.7246 -1.3707
   79MOL0     H10616  -0.416   3.747  10.207  0.2340 -2.5146  1.1695
   79MOL0     H10617  -0.545   3.495  10.460  2.2675 -2.2409  0.8209
   79MOL0     H10618  -0.549   3.519  10.285  2.1977  1.2217 -1.8969
   79MOL0     H10619  -0.300   3.506  10.470  0.6616 -2.3396  0.1193
   79MOL0     H10620  -0.293   3.549  10.296 -0.5165  0.8611 -0.0959
   79MOL0     H10621  -0.213   3.333  10.336 -0.2069 -1.8425 -1.0537
   79MOL0     H10622  -0.348   3.331  10.224  1.1388  1.4119 -0.5948
   79MOL0     H10623  -0.377   3.259  10.521  1.0510  1.3787 -0.4669
   79MOL0     H10624  -0.348   3.149  10.412 -0.7239  0.2168  0.6231
   79MOL0     H10625  -0.478   3.092  10.615 -0.5806  0.3437  0.6255
   79MOL0     H10626  -0.436   2.846  10.716 -0.2274 -0.1351  0.8573
   79MOL0     H10627  -0.571   2.915  10.801 -1.4337  0.3978 -1.5083
   79MOL0     H10628  -0.578   2.753  10.729 -0.6040  0.3113  0.3658
   79MOL0     H10629  -1.084   2.643  10.376 -0.6872 -1.2357 -1.2414
   79MOL0     H10630  -1.207   2.444  10.386 -2.3627 -0.7374  1.3691
   79MOL0     H10631  -1.369   2.285  10.531 -1.0546  0.2005  2.2869
   79MOL0     H10632  -1.231   2.221  10.429 -1.8505 -0.4476  0.2347
   79MOL0     H10633  -1.425   2.052  10.474  1.1821 -2.8931 -1.0819
   79MOL0     H10634  -1.267   1.998  10.517  1.3694  0.5991 -1.6122
   79MOL0     H10635  -1.430   2.125  10.739  0.3327  1.7485 -1.2448
   79MOL0     H10636  -1.289   2.024  10.750 -2.8454  0.7664  3.0534
   79MOL0     H10637  -1.561   1.937  10.638 -0.5541  0.7845  1.2062
   79MOL0     H10638  -1.414   1.837  10.641  3.7332  2.8915 -0.3226
   79MOL0     H10639  -1.534   1.964  10.886  0.3098  0.8471 -1.1935
   79MOL0     H10640  -1.427   1.821  10.888  0.1040  0.9601  0.8331
   79MOL0     H10641  -1.716   1.823  10.781  0.9066  0.8170 -3.3069
   79MOL0     H10642  -1.607   1.685  10.756  1.1246  0.6633  1.1875
   79MOL0     H10643  -1.567   1.657  10.991  0.5156  1.2786  0.8500
   79MOL0     H10644  -1.737   1.639  10.945 -0.1058 -0.9588 -1.4142
   79MOL0     H10645  -1.793   1.858  11.018 -2.0519 -1.7156  0.0983
   79MOL0     H10646  -1.634   1.881  11.090 -1.7222  0.2018 -0.3547
   79MOL0     H10647  -0.980   2.339  10.734 -1.3841 -1.9295 -1.3736
   79MOL0     H10648  -0.845   2.537  10.709  1.5694  3.9403 -2.1694
   79MOL0     H10649  -0.832   2.892  10.340 -1.3074  1.4199  2.7235
   79MOL0     H10650  -0.738   3.106  10.277  1.2425  1.0110  0.2831
   79MOL0     H10651   0.443   4.296   9.970 -0.0789  2.2900 -0.7363
   79MOL0     H10652   0.693   4.280   9.999  0.4823  3.9254 -1.3649
   79MOL0     H10653   1.026   4.255  10.551 -0.8978  2.7336  0.1054
   79MOL0     H10654   1.259   4.328  10.588 -2.3318 -2.0362  0.8527
   79MOL0     H10655   1.477   4.353  10.562 -0.5913 -1.2241  0.2255
   79MOL0     H10656   1.586   4.476  10.495 -1.7048  3.2600 -3.5280
   79MOL0     H10657   1.350   4.509  10.672 -0.5227 -0.3817 -0.5999
   79MOL0     H10658   1.396   4.644  10.562  0.4118  1.4941 -0.0454
   79MOL0     H10659   1.636   4.608  10.651 -0.5475 -1.0248 -2.9744
   79MOL0     H10660   1.561   4.516  10.785  1.5111  0.5360  1.0874
   79MOL0     H10661   1.563   4.722  10.874  3.3141 -0.2870 -2.2925
   79MOL0     H10662   1.397   4.719  10.821  0.6159 -1.3553  1.4217
   79MOL0     H10663   1.595   5.008  10.576  0.0680 -1.4591 -1.2633
   79MOL0     H10664   1.289   4.453  10.182  0.2928  1.5079  0.9998
   79MOL0     H10665   1.044   4.400  10.152  2.0389 -4.9787 -2.2295
   80MOL0     O10666   4.663   3.582   8.806 -0.0337 -0.2709  0.0192
   80MOL0     C10667   4.761   3.539   8.744  0.0777  0.2712  0.1073
   80MOL0     O10668   4.751   3.460   8.634 -0.5643  0.9174 -0.3983
   80MOL0     C10669   4.638   3.403   8.601  0.0201 -0.2998 -0.3728
   80MOL0     C10670   4.593   3.426   8.471 -0.2946  0.4971  0.9083
   80MOL0     C10671   4.475   3.378   8.425  0.9416  0.3643 -0.2627
   80MOL0     C10672   4.392   3.305   8.518 -0.5261  0.2617  0.3847
   80MOL0     O10673   4.268   3.269   8.483 -0.1667 -0.2480  0.1036
   80MOL0     C10674   4.255   3.144   8.417 -0.1532 -0.2993 -0.7117
   80MOL0     C10675   4.111   3.111   8.400  0.6884  1.4036  0.0759
   80MOL0     C10676   4.040   3.077   8.530  0.2601 -0.5355 -0.3709
   80MOL0     C10677   3.904   3.031   8.496 -0.3269 -0.6460  0.3096
   80MOL0     C10678   3.822   3.032   8.630 -0.2175 -0.5140  0.6621
   80MOL0     C10679   3.670   3.030   8.594 -1.5468 -0.3587 -0.2426
   80MOL0     C10680   3.576   3.060   8.716 -1.3747 -0.0809 -0.5336
   80MOL0     C10681   3.424   3.055   8.682  0.5880 -1.0388  0.4671
   80MOL0     N10682   3.394   3.115   8.553 -0.6478 -0.4951 -0.0571
   80MOL0     C10683   3.375   3.047   8.434  0.6636 -1.1590  0.4001
   80MOL0     C10684   3.327   3.135   8.344 -0.5942  0.0342 -0.5298
   80MOL0     C10685   3.296   3.094   8.200  1.1824 -0.2176  0.1268
   80MOL0     C10686   3.197   2.974   8.195  0.6145 -0.4290 -0.7396
   80MOL0     C10687   3.150   2.940   8.050  0.5654 -0.3213 -0.4903
   80MOL0     C10688   3.046   3.050   8.001  0.5205 -0.6684 -0.5105
   80MOL0     O10689   2.997   3.020   7.865  0.1858  0.0145  0.2780
   80MOL0     C10690   2.877   3.059   7.815  0.2959  0.2066  0.3514
   80MOL0     C10691   2.797   3.160   7.875 -0.3315  0.2697  0.0548
   80MOL0     C10692   2.675   3.205   7.822  0.5378  0.4367 -0.8850
   80MOL0     C10693   2.613   3.331   7.886  0.1198  0.0652 -0.2655
   80MOL0     C10694   2.624   3.137   7.714  0.2919 -0.7107 -0.6419
   80MOL0     C10695   2.501   3.176   7.645 -0.1485 -0.6744 -0.2994
   80MOL0     O10696   2.521   3.206   7.515 -0.2579 -0.1553 -0.1115
   80MOL0     C10697   2.409   3.245   7.441 -0.7267 -0.2447 -0.7227
   80MOL0     C10698   2.390   3.379   7.423 -0.7113  0.2831 -0.0785
   80MOL0     C10699   2.280   3.426   7.350  0.4140  0.0949 -0.2583
   80MOL0     C10700   2.182   3.338   7.300  0.0264  0.6656 -0.1870
   80MOL0     O10701   2.076   3.396   7.231  0.4282 -0.2194 -0.0047
   80MOL0     C10702   1.949   3.328   7.260 -0.2510  0.1204  0.0101
   80MOL0     C10703   1.837   3.428   7.262  0.0543 -0.2542  0.5785
   80MOL0     C10704   1.701   3.364   7.285 -0.3533  0.8406 -0.3317
   80MOL0     C10705   1.599   3.476   7.262  0.6155 -0.0974  0.7260
   80MOL0     C10706   1.454   3.429   7.257  0.0173  0.1344  0.0885
   80MOL0     C10707   1.349   3.543   7.229 -0.4209 -0.8711 -0.0738
   80MOL0     C10708   1.207   3.484   7.183  0.6029  0.2198 -0.1443
   80MOL0     C10709   1.074   3.559   7.237 -0.1534 -0.3665  0.5303
   80MOL0    Cl10710   1.056   3.525   7.416  0.6373 -0.0288  0.2124
   80MOL0     C10711   2.215   3.196   7.312 -0.7986  0.3609 -0.5698
   80MOL0     C10712   2.331   3.157   7.376  0.6861 -1.7965  0.1977
   80MOL0     O10713   2.393   3.177   7.708 -0.0288 -0.6342 -0.0857
   80MOL0     C10714   2.701   3.033   7.654 -0.1084  0.0302  0.0800
   80MOL0     C10715   2.821   2.987   7.709  0.4467  0.7253 -0.2901
   80MOL0     N10716   3.312   3.259   8.411 -0.5138 -0.0615 -0.3938
   80MOL0     N10717   3.349   3.250   8.536 -0.1342 -0.0025 -0.1351
   80MOL0     C10718   4.441   3.272   8.653  0.2428 -0.5134  0.1353
   80MOL0     C10719   4.566   3.321   8.682 -0.5835 -0.2182  0.1808
   80MOL0     C10720   4.893   3.581   8.790 -0.0568 -0.3292 -0.1090
   80MOL0     C10721   5.007   3.517   8.734  0.2006  0.9477  0.2759
   80MOL0     C10722   5.139   3.551   8.771 -0.9549 -0.0029 -0.2693
   80MOL0     C10723   5.151   3.651   8.870 -0.3293  0.6124 -0.4011
   80MOL0     O10724   5.276   3.675   8.925 -0.1537 -0.0420 -0.5582
   80MOL0     C10725   5.376   3.576   8.911 -0.4966 -0.1967 -0.0443
   80MOL0     C10726   5.517   3.628   8.951  0.0224 -0.7247  0.6639
   80MOL0     C10727   5.531   3.664   9.094 -0.5325  0.5181  0.1126
   80MOL0     C10728   5.544   3.541   9.182  0.5768  0.3832  0.0102
   80MOL0     C10729   5.544   3.566   9.326  0.0147  0.2298  0.1282
   80MOL0     C10730   5.544   3.583   9.440  0.5232  0.4693 -0.2119
   80MOL0     C10731   5.043   3.704   8.936  0.5621  0.3753 -1.1555
   80MOL0     C10732   4.911   3.678   8.896 -0.8331  0.5394 -0.8652
   80MOL0     H10733   4.638   3.488   8.395  0.6281  0.3558  1.3289
   80MOL0     H10734   4.449   3.422   8.329 -1.4117  0.8247  0.5293
   80MOL0     H10735   4.312   3.137   8.324 -1.6739  0.1650 -1.7318
   80MOL0     H10736   4.304   3.063   8.471 -1.4135 -0.9098 -0.4381
   80MOL0     H10737   4.065   3.183   8.332 -0.2409 -2.8010 -4.2993
   80MOL0     H10738   4.114   3.015   8.347  2.2519  0.5395  1.6188
   80MOL0     H10739   4.090   3.004   8.595  2.8565  0.4240 -1.1785
   80MOL0     H10740   4.035   3.165   8.594  3.0930  0.4023 -1.3229
   80MOL0     H10741   3.859   3.104   8.429 -0.6284  0.2109  1.4179
   80MOL0     H10742   3.896   2.928   8.459  0.6779  0.4519 -3.3449
   80MOL0     H10743   3.852   2.951   8.697 -0.4564  0.9377  2.6070
   80MOL0     H10744   3.839   3.121   8.692 -0.6430 -2.0582  3.1526
   80MOL0     H10745   3.652   3.111   8.522 -1.2290  0.5570  0.6775
   80MOL0     H10746   3.646   2.936   8.543  0.3713  0.6803 -3.3426
   80MOL0     H10747   3.601   2.998   8.802  0.5041  2.6504  1.0362
   80MOL0     H10748   3.589   3.165   8.745 -1.8007 -0.6797  2.0026
   80MOL0     H10749   3.378   3.108   8.766 -0.3403 -1.6844  0.3835
   80MOL0     H10750   3.387   2.953   8.670 -1.0833 -0.2583 -1.6867
   80MOL0     H10751   3.401   2.944   8.411  2.4615  0.0258 -3.7205
   80MOL0     H10752   3.258   3.178   8.141  3.9570  0.0653 -1.4339
   80MOL0     H10753   3.387   3.065   8.147 -0.4078 -0.5038 -2.6559
   80MOL0     H10754   3.115   2.997   8.263  2.7086 -0.9005  2.1514
   80MOL0     H10755   3.258   2.889   8.227  2.4586  0.4273 -1.7975
   80MOL0     H10756   3.108   2.839   8.049 -0.0066 -0.1055 -2.0923
   80MOL0     H10757   3.235   2.936   7.981  0.8931  1.5890 -0.2529
   80MOL0     H10758   3.091   3.149   7.994 -0.3512 -0.1369  0.8231
   80MOL0     H10759   2.970   3.053   8.080 -0.3581 -0.9326 -1.3268
   80MOL0     H10760   2.823   3.199   7.973  0.8618 -0.6081  0.1109
   80MOL0     H10761   2.669   3.416   7.845  1.6967 -2.3758 -3.7390
   80MOL0     H10762   2.510   3.349   7.853  0.4383 -0.7252 -1.8160
   80MOL0     H10763   2.635   3.320   7.992  1.3523 -2.5768 -0.7020
   80MOL0     H10764   2.464   3.451   7.456 -1.0345 -0.9353  3.8972
   80MOL0     H10765   2.275   3.532   7.329  3.3515 -0.1638 -3.0773
   80MOL0     H10766   1.932   3.256   7.179  0.9473 -0.5622  0.3289
   80MOL0     H10767   1.950   3.277   7.357 -0.1506 -2.9172 -1.4620
   80MOL0     H10768   1.851   3.502   7.342 -1.1460  0.5086  0.1181
   80MOL0     H10769   1.846   3.476   7.164 -1.6989 -2.8236 -0.9504
   80MOL0     H10770   1.701   3.323   7.386  1.2404  2.0253  0.1785
   80MOL0     H10771   1.685   3.285   7.210  1.9618 -1.2174  1.1900
   80MOL0     H10772   1.614   3.552   7.340  1.7704 -0.1465  0.5698
   80MOL0     H10773   1.629   3.523   7.168  0.3033 -1.2630  0.0248
   80MOL0     H10774   1.427   3.388   7.355 -1.1781  1.1410  0.2093
   80MOL0     H10775   1.453   3.354   7.178 -2.1889 -2.5750  2.4739
   80MOL0     H10776   1.352   3.601   7.321  1.4663 -0.8174 -0.1443
   80MOL0     H10777   1.403   3.593   7.148  2.1900 -2.7031  0.4116
   80MOL0     H10778   1.200   3.380   7.218  1.4193  0.9646  2.5240
   80MOL0     H10779   1.210   3.475   7.074  0.1422 -2.7883  0.0017
   80MOL0     H10780   0.985   3.533   7.179 -0.0091  0.9848 -0.3682
   80MOL0     H10781   1.072   3.668   7.224 -0.3512 -0.4617 -0.2706
   80MOL0     H10782   2.162   3.111   7.270  1.6192 -1.4905 -0.1398
   80MOL0     H10783   2.357   3.053   7.394 -3.6239 -3.5939 -2.3399
   80MOL0     H10784   2.663   2.990   7.563 -2.8554  0.1736  1.0834
   80MOL0     H10785   2.868   2.897   7.670 -0.9490 -1.2585  2.2821
   80MOL0     H10786   4.384   3.234   8.737  1.3352  1.9309  2.1041
   80MOL0     H10787   4.616   3.322   8.778  1.9624  0.6919 -1.0830
   80MOL0     H10788   5.003   3.437   8.660  4.5659 -0.3437  1.1115
   80MOL0     H10789   5.221   3.496   8.727  0.3795  1.3674  0.4288
   80MOL0     H10790   5.350   3.492   8.976  1.0773  0.8760  2.0810
   80MOL0     H10791   5.395   3.562   8.804  1.5165  3.1475 -0.2792
   80MOL0     H10792   5.537   3.719   8.894 -1.5347 -1.2270 -0.7699
   80MOL0     H10793   5.600   3.562   8.920 -0.0894 -0.2733 -0.6649
   80MOL0     H10794   5.445   3.728   9.116 -0.1455  1.1196 -0.1127
   80MOL0     H10795   5.621   3.725   9.102 -2.5139  3.5716  0.6911
   80MOL0     H10796   5.632   3.482   9.153 -0.6180  0.2595 -3.9274
   80MOL0     H10797   5.460   3.476   9.157 -1.0050  2.1191  0.6074
   80MOL0     H10798   5.547   3.609   9.543  1.4053  2.0071 -0.5848
   80MOL0     H10799   5.060   3.775   9.017 -0.8243  0.1211 -0.6248
   80MOL0     H10800   4.822   3.719   8.941  0.0404 -0.0580  1.5476
   81MOL0     O10801   6.753   6.721   5.438 -0.6115  0.7326 -0.4285
   81MOL0     C10802   6.710   6.806   5.357  0.1245 -0.0222  0.0894
   81MOL0     O10803   6.592   6.875   5.367 -0.9607 -0.1904  0.0790
   81MOL0     C10804   6.513   6.845   5.472  0.4710  0.5382 -0.2901
   81MOL0     C10805   6.492   6.942   5.574  0.4955  0.7092  0.5763
   81MOL0     C10806   6.412   6.916   5.682 -0.7509 -0.4226  0.4282
   81MOL0     C10807   6.339   6.804   5.691 -0.2625  0.9539  0.3928
   81MOL0     O10808   6.276   6.766   5.807 -0.6512  0.3173  0.1370
   81MOL0     C10809   6.197   6.858   5.876  0.0302  0.8266  1.0944
   81MOL0     C10810   6.146   6.794   6.015  0.8783  0.2672  0.5969
   81MOL0     C10811   6.017   6.857   6.044 -0.2963 -0.7997  0.4752
   81MOL0     C10812   5.968   6.825   6.193  0.6657 -0.1972  0.2749
   81MOL0     C10813   5.827   6.839   6.215 -0.0091 -0.2276 -0.4582
   81MOL0     C10814   5.788   6.802   6.361  1.1084  0.0507 -0.0883
   81MOL0     C10815   5.632   6.800   6.368 -0.6635  0.4484 -0.0197
   81MOL0     C10816   5.596   6.772   6.515  0.2114 -0.4814  0.0775
   81MOL0     N10817   5.620   6.893   6.599 -0.3471 -0.2584 -0.5822
   81MOL0     C10818   5.736   6.903   6.663 -0.1817  0.1462  0.3994
   81MOL0     C10819   5.726   7.017   6.732 -0.1969 -0.0510 -0.4917
   81MOL0     C10820   5.831   7.095   6.797 -0.5876 -0.3899  0.0225
   81MOL0     C10821   5.809   7.133   6.954  0.0477 -0.1872  0.1971
   81MOL0     C10822   5.680   7.200   7.005 -0.3564  0.6493 -0.7065
   81MOL0     C10823   5.660   7.324   6.939  0.0081 -0.5319 -0.5984
   81MOL0     O10824   5.562   7.404   6.999 -0.5958  0.1438 -0.3095
   81MOL0     C10825   5.438   7.403   6.943 -0.2195 -0.1970 -0.5740
   81MOL0     C10826   5.385   7.308   6.857  0.2082  0.3699  0.5530
   81MOL0     C10827   5.250   7.318   6.805  0.3017 -0.1489 -0.3493
   81MOL0     C10828   5.204   7.200   6.726  1.2051 -0.3968 -1.1744
   81MOL0     C10829   5.160   7.421   6.857 -0.4911 -0.0672  0.0720
   81MOL0     C10830   5.017   7.434   6.823  0.1657  0.6628  0.2186
   81MOL0     O10831   4.945   7.537   6.893  0.2202  0.0923 -0.6083
   81MOL0     C10832   4.829   7.584   6.839  0.5739 -0.0896 -0.3414
   81MOL0     C10833   4.840   7.699   6.760 -0.2587 -0.8052  0.6328
   81MOL0     C10834   4.733   7.751   6.687 -0.5069 -0.8040  0.3545
   81MOL0     C10835   4.609   7.692   6.699  0.6309  0.4622  0.4441
   81MOL0     O10836   4.499   7.748   6.630  0.5302  1.1760 -0.6523
   81MOL0     C10837   4.497   7.855   6.531 -0.4799  0.2004 -0.3098
   81MOL0     C10838   4.369   7.834   6.446 -0.1702 -0.2435  0.0706
   81MOL0     C10839   4.234   7.874   6.515 -0.1818  0.9938 -0.9935
   81MOL0     C10840   4.113   7.835   6.428 -0.4885 -0.5998 -0.9254
   81MOL0     C10841   3.983   7.893   6.488 -0.3924  0.2574 -0.5649
   81MOL0     C10842   3.850   7.850   6.421  0.1402 -0.7500 -0.8466
   81MOL0     C10843   3.740   7.930   6.489 -0.3222 -0.1235 -0.1869
   81MOL0     C10844   3.617   7.927   6.398 -0.0490  0.3485  0.1659
   81MOL0    Cl10845   3.476   8.007   6.472 -0.2869  0.1213  0.5280
   81MOL0     C10846   4.595   7.579   6.777  0.4930 -0.3408  0.6120
   81MOL0     C10847   4.705   7.523   6.841  0.0169  0.5639 -0.4318
   81MOL0     O10848   4.962   7.353   6.752  0.5149  0.1478 -0.0925
   81MOL0     C10849   5.217   7.519   6.938  0.2433  0.1494  0.3851
   81MOL0     C10850   5.353   7.507   6.985  0.3664  0.2152 -0.5874
   81MOL0     N10851   5.602   7.069   6.715  1.0649  0.8085 -0.6753
   81MOL0     N10852   5.537   7.001   6.626  0.2662  0.4128  0.1065
   81MOL0     C10853   6.354   6.704   5.588 -0.4838 -0.9938 -0.4197
   81MOL0     C10854   6.446   6.723   5.486  0.3980  0.8444  0.3317
   81MOL0     C10855   6.807   6.851   5.258 -0.1183 -0.1891  0.0177
   81MOL0     C10856   6.772   6.946   5.158 -0.7376 -0.4622  0.3691
   81MOL0     C10857   6.866   7.004   5.075 -0.2681  0.2919 -0.2242
   81MOL0     C10858   7.000   6.957   5.079  0.4651 -0.4533  0.4553
   81MOL0     O10859   7.094   7.011   4.994  0.0177  0.5210 -0.2718
   81MOL0     C10860   7.235   7.007   5.030 -0.7095 -0.1757 -0.3035
   81MOL0     C10861   7.282   7.097   5.141  0.4684  0.5444 -0.9719
   81MOL0     C10862   7.432   7.129   5.149 -0.3743 -0.1706 -0.2122
   81MOL0     C10863   7.450   7.232   5.263  0.4994  0.3226  0.2247
   81MOL0     C10864   7.594   7.260   5.272  0.3843  0.0448 -0.9018
   81MOL0     C10865   7.705   7.310   5.276  0.1536 -0.0603  0.5126
   81MOL0     C10866   7.035   6.854   5.164  0.4966 -0.2839 -0.0812
   81MOL0     C10867   6.936   6.798   5.249 -0.5809  0.0949  0.0551
   81MOL0     H10868   6.561   7.023   5.558  0.9939  0.2078  0.1378
   81MOL0     H10869   6.397   6.992   5.757  1.6651 -2.6296  3.4267
   81MOL0     H10870   6.244   6.954   5.902  0.9146  0.2846  1.5545
   81MOL0     H10871   6.116   6.877   5.806  1.7716 -1.5885 -1.8414
   81MOL0     H10872   6.124   6.687   6.005 -0.9675  0.6936 -0.4932
   81MOL0     H10873   6.223   6.818   6.088  2.4215 -0.3597 -0.7680
   81MOL0     H10874   6.028   6.962   6.017  2.2287 -1.1573 -0.2108
   81MOL0     H10875   5.948   6.804   5.978 -0.7771 -0.1252  0.4352
   81MOL0     H10876   5.988   6.721   6.222 -3.6230 -1.3361 -0.1559
   81MOL0     H10877   6.016   6.898   6.259  0.1594 -1.3326  1.9609
   81MOL0     H10878   5.790   6.941   6.200 -0.1526  0.1551  2.0325
   81MOL0     H10879   5.781   6.768   6.147  0.9120  0.3548 -1.7395
   81MOL0     H10880   5.824   6.703   6.389  0.9120 -0.0000 -0.0139
   81MOL0     H10881   5.828   6.877   6.429  0.4377 -1.1980  1.7440
   81MOL0     H10882   5.599   6.896   6.329  3.0118  1.6214 -0.6426
   81MOL0     H10883   5.597   6.719   6.303 -1.5646 -0.7882  1.9251
   81MOL0     H10884   5.645   6.678   6.545  0.9017 -0.5325 -1.1539
   81MOL0     H10885   5.487   6.760   6.509 -0.0528  1.5267  0.2052
   81MOL0     H10886   5.822   6.837   6.654  0.5642  1.0858  0.4280
   81MOL0     H10887   5.919   7.032   6.782  0.9913  1.2593  1.8769
   81MOL0     H10888   5.846   7.190   6.744  1.1504  0.2560  1.5819
   81MOL0     H10889   5.889   7.203   6.983  1.1644 -1.2620 -0.1858
   81MOL0     H10890   5.820   7.040   7.011 -1.2202 -1.8071 -2.0613
   81MOL0     H10891   5.697   7.212   7.112  2.4714 -2.0759 -0.6991
   81MOL0     H10892   5.603   7.124   6.984  1.1783 -0.5142 -2.5343
   81MOL0     H10893   5.638   7.304   6.834  1.7705 -1.1099 -0.8760
   81MOL0     H10894   5.754   7.379   6.946 -0.5385  0.3639  0.0557
   81MOL0     H10895   5.443   7.220   6.829 -1.6849 -0.1269 -2.1786
   81MOL0     H10896   5.123   7.151   6.781  0.6091  1.9454  0.1638
   81MOL0     H10897   5.174   7.232   6.626 -0.3704 -3.6217 -1.8524
   81MOL0     H10898   5.286   7.128   6.717  0.6595 -0.9175 -2.0813
   81MOL0     H10899   4.927   7.762   6.779 -2.2377  1.5960  2.5415
   81MOL0     H10900   4.735   7.850   6.641 -0.3997 -1.0401 -0.1501
   81MOL0     H10901   4.494   7.948   6.588  0.0984 -1.6561  3.0305
   81MOL0     H10902   4.587   7.854   6.469  0.2206 -2.3788  0.6167
   81MOL0     H10903   4.388   7.898   6.359  1.5982  1.6760  1.7519
   81MOL0     H10904   4.352   7.735   6.402 -1.1156 -0.0769  0.0194
   81MOL0     H10905   4.239   7.979   6.546 -1.2954  0.4517  1.2375
   81MOL0     H10906   4.225   7.818   6.609 -1.7206 -0.1178 -1.7508
   81MOL0     H10907   4.139   7.870   6.327  0.5705 -3.0690 -1.5893
   81MOL0     H10908   4.098   7.727   6.431  0.0693 -0.7391 -2.1587
   81MOL0     H10909   3.991   8.002   6.482 -0.2908  0.2502 -0.5663
   81MOL0     H10910   3.997   7.878   6.596  1.4950  4.7290  0.0020
   81MOL0     H10911   3.851   7.856   6.312 -1.9437 -0.0764 -0.8557
   81MOL0     H10912   3.828   7.745   6.442 -1.7039 -0.2150  0.1171
   81MOL0     H10913   3.773   8.033   6.505  1.8442 -0.5527 -1.4383
   81MOL0     H10914   3.721   7.879   6.584  1.8033 -3.6134 -1.4220
   81MOL0     H10915   3.589   7.823   6.379 -1.6949  1.1593 -2.2227
   81MOL0     H10916   3.656   7.968   6.305 -0.3132 -1.3763 -0.7391
   81MOL0     H10917   4.492   7.547   6.784  0.7060 -0.8679  1.5189
   81MOL0     H10918   4.691   7.426   6.887 -1.2350 -0.3587 -2.6483
   81MOL0     H10919   5.154   7.599   6.975 -0.3192  1.0905 -2.3685
   81MOL0     H10920   5.380   7.575   7.065 -0.4151 -1.2665  1.0019
   81MOL0     H10921   6.304   6.608   5.595 -1.5514 -0.4590 -0.5804
   81MOL0     H10922   6.446   6.640   5.416 -2.7578  0.1883  0.9685
   81MOL0     H10923   6.668   6.974   5.152 -0.8327 -0.9378 -0.3948
   81MOL0     H10924   6.843   7.090   5.013 -1.6708  1.6562  2.0459
   81MOL0     H10925   7.265   6.906   5.060  0.8167 -0.5111 -2.7004
   81MOL0     H10926   7.282   7.034   4.936  0.3287  2.4872  0.8786
   81MOL0     H10927   7.234   7.071   5.236  0.4830  4.7959  0.4449
   81MOL0     H10928   7.250   7.199   5.114  0.2202  0.5014 -0.8423
   81MOL0     H10929   7.481   7.164   5.058 -0.2997  1.3507  0.3811
   81MOL0     H10930   7.493   7.041   5.172  0.8207  0.0133 -2.4404
   81MOL0     H10931   7.414   7.198   5.360 -0.2304 -0.6138 -0.3582
   81MOL0     H10932   7.399   7.325   5.236  2.4523  0.8929 -1.8868
   81MOL0     H10933   7.809   7.333   5.261  0.3390 -1.8974 -1.4681
   81MOL0     H10934   7.134   6.808   5.160  1.0985  0.9974 -0.5467
   81MOL0     H10935   6.972   6.733   5.328 -1.7227  2.5915  2.8517
   82MOL0     O10936   8.390   3.091   6.596 -0.5654 -0.0807 -0.0839
   82MOL0     C10937   8.441   2.982   6.568  0.8770  0.7255  0.5698
   82MOL0     O10938   8.381   2.865   6.527 -0.1600  0.6346 -0.4362
   82MOL0     C10939   8.243   2.844   6.519  0.0577 -0.8291 -0.3537
   82MOL0     C10940   8.158   2.924   6.438  0.3392 -0.3813 -0.4811
   82MOL0     C10941   8.016   2.897   6.438  0.2338 -0.1101 -0.0195
   82MOL0     C10942   7.965   2.782   6.498 -0.4154 -1.1341 -0.5179
   82MOL0     O10943   7.826   2.759   6.495 -0.0432 -0.2418 -0.3131
   82MOL0     C10944   7.772   2.641   6.561 -0.0758 -0.5639 -1.0704
   82MOL0     C10945   7.629   2.681   6.611 -0.3449 -0.0702  0.5395
   82MOL0     C10946   7.520   2.700   6.503  0.1725 -0.3784 -0.2329
   82MOL0     C10947   7.373   2.656   6.550  0.2318  0.1783 -0.8659
   82MOL0     C10948   7.255   2.662   6.445 -1.1422 -0.1427  0.0353
   82MOL0     C10949   7.151   2.551   6.473 -0.7222 -0.1281  0.3078
   82MOL0     C10950   7.064   2.518   6.354  0.1961  0.2521  0.0894
   82MOL0     C10951   6.971   2.407   6.375  0.5686  1.1793  0.0622
   82MOL0     N10952   6.893   2.418   6.494 -0.6080  0.2257 -0.2214
   82MOL0     C10953   6.783   2.500   6.493  0.0055  0.6912 -0.3209
   82MOL0     C10954   6.719   2.473   6.607  0.6456 -0.6511 -0.1754
   82MOL0     C10955   6.602   2.548   6.658 -0.3877  0.2381 -0.0279
   82MOL0     C10956   6.499   2.588   6.553 -0.1928  0.2668  0.3599
   82MOL0     C10957   6.391   2.673   6.613 -0.3320  0.2792 -0.4860
   82MOL0     C10958   6.262   2.675   6.547  0.0706  0.1983 -0.0804
   82MOL0     O10959   6.194   2.545   6.552  0.3693 -0.4673 -0.6476
   82MOL0     C10960   6.091   2.530   6.465  0.5112  0.3411  0.2709
   82MOL0     C10961   6.091   2.428   6.372  0.5606  0.4582  0.1323
   82MOL0     C10962   5.980   2.416   6.282  0.3857 -0.6313 -0.3841
   82MOL0     C10963   5.983   2.292   6.197 -0.0034  0.4171 -0.2602
   82MOL0     C10964   5.862   2.494   6.303 -0.0199  0.7286 -0.5098
   82MOL0     C10965   5.734   2.476   6.223  0.6567  0.7625  0.2282
   82MOL0     O10966   5.641   2.571   6.261  0.4489  0.0178 -0.4989
   82MOL0     C10967   5.518   2.573   6.201  0.2537  0.0867 -0.4088
   82MOL0     C10968   5.430   2.457   6.201 -0.2822 -0.2196  0.0083
   82MOL0     C10969   5.308   2.471   6.125  0.2442 -0.0436 -0.7842
   82MOL0     C10970   5.253   2.597   6.104 -0.3475  0.0685  1.0476
   82MOL0     O10971   5.123   2.622   6.068 -0.6798  0.6247  0.4028
   82MOL0     C10972   5.055   2.526   5.982 -0.2434 -0.0818  0.4936
   82MOL0     C10973   4.933   2.586   5.912  0.7965  0.7963  0.0558
   82MOL0     C10974   4.819   2.590   6.017  0.4615  0.3393 -0.2933
   82MOL0     C10975   4.684   2.654   5.952 -0.1810  0.1523  1.1494
   82MOL0     C10976   4.566   2.662   6.047 -0.5886 -0.4301  0.0121
   82MOL0     C10977   4.478   2.783   6.008  0.2211 -0.4254 -0.1288
   82MOL0     C10978   4.403   2.747   5.872 -0.6023  0.5977 -0.3071
   82MOL0     C10979   4.342   2.860   5.797  0.4926  0.3622  0.3027
   82MOL0    Cl10980   4.296   2.822   5.623 -0.1189  0.3275 -0.5653
   82MOL0     C10981   5.339   2.705   6.107 -0.7286 -0.9503  0.0371
   82MOL0     C10982   5.467   2.694   6.163 -0.0790 -0.3716  0.7431
   82MOL0     O10983   5.708   2.378   6.149 -0.9856 -0.0956  0.6504
   82MOL0     C10984   5.870   2.595   6.401 -1.0404  0.2279  0.5662
   82MOL0     C10985   5.984   2.612   6.475  0.3164 -0.1817  0.5754
   82MOL0     N10986   6.792   2.374   6.669  0.1814  0.1692  0.1108
   82MOL0     N10987   6.895   2.338   6.602 -0.3966  0.2648  0.6394
   82MOL0     C10988   8.054   2.706   6.574 -0.4960 -0.2406  0.2362
   82MOL0     C10989   8.189   2.738   6.591  0.4994  0.6545 -0.0044
   82MOL0     C10990   8.593   2.968   6.552  0.5837 -0.2038  0.2120
   82MOL0     C10991   8.655   2.839   6.549 -0.4180  0.3466 -0.3810
   82MOL0     C10992   8.797   2.840   6.544  0.2246  0.0090  0.7967
   82MOL0     C10993   8.876   2.957   6.544  0.1424 -0.0629  0.0205
   82MOL0     O10994   9.012   2.964   6.547  0.0377 -0.0636  0.3318
   82MOL0     C10995   9.076   2.836   6.539 -0.4087 -0.1716  0.7020
   82MOL0     C10996   9.233   2.855   6.537  0.9816  0.5002 -0.5048
   82MOL0     C10997   9.288   2.958   6.634 -0.3871 -0.2120 -0.0806
   82MOL0     C10998   9.446   2.964   6.613  0.5968  0.3719  0.2254
   82MOL0     C10999   9.519   2.869   6.687  0.5630  0.2003 -0.6207
   82MOL0     C11000   9.576   2.786   6.760 -0.6674 -0.2605  0.3030
   82MOL0     C11001   8.810   3.075   6.542 -0.4208 -0.2513 -0.0278
   82MOL0     C11002   8.675   3.087   6.537  0.6874  0.0769 -0.0867
   82MOL0     H11003   8.196   3.003   6.374 -3.6606  0.5146 -2.0314
   82MOL0     H11004   7.951   2.950   6.370 -2.8876 -0.4103  2.5068
   82MOL0     H11005   7.772   2.554   6.495  0.3853 -2.9602  1.8384
   82MOL0     H11006   7.823   2.606   6.652 -0.7731 -0.9061 -0.8008
   82MOL0     H11007   7.611   2.592   6.672  1.8256 -0.5533  0.5615
   82MOL0     H11008   7.633   2.770   6.674 -2.5042  1.3715 -1.1983
   82MOL0     H11009   7.522   2.805   6.471 -1.8121 -0.1215  0.3889
   82MOL0     H11010   7.544   2.649   6.409  1.4370  3.7995 -2.4095
   82MOL0     H11011   7.383   2.555   6.591  3.2503  1.0799  0.9393
   82MOL0     H11012   7.335   2.711   6.637 -1.1086  1.8458 -2.4247
   82MOL0     H11013   7.213   2.763   6.439 -0.9301  0.1454  2.2875
   82MOL0     H11014   7.311   2.638   6.354  2.5390  1.4959  1.6559
   82MOL0     H11015   7.204   2.459   6.498  0.3258 -0.6620 -3.2110
   82MOL0     H11016   7.092   2.588   6.557  3.0454  5.1574  1.0896
   82MOL0     H11017   7.008   2.606   6.321  0.0116  0.4709  0.9544
   82MOL0     H11018   7.132   2.487   6.274  1.1994  1.9663  0.2065
   82MOL0     H11019   7.013   2.307   6.358 -0.0766  1.0034 -0.5638
   82MOL0     H11020   6.900   2.399   6.292 -0.6374 -0.8864  1.2029
   82MOL0     H11021   6.766   2.575   6.416  0.6642  0.8332 -0.3342
   82MOL0     H11022   6.557   2.497   6.744  2.1666 -0.0979  1.2283
   82MOL0     H11023   6.655   2.637   6.694 -1.1007  0.9085 -0.6008
   82MOL0     H11024   6.458   2.505   6.495  0.6553  2.3516 -3.6313
   82MOL0     H11025   6.539   2.654   6.475 -2.0662  0.3261 -0.5931
   82MOL0     H11026   6.427   2.774   6.593 -0.7899  0.8367  1.2643
   82MOL0     H11027   6.383   2.665   6.722  2.2521 -0.0251 -0.2688
   82MOL0     H11028   6.286   2.704   6.445 -2.1318  0.4267 -0.5844
   82MOL0     H11029   6.196   2.754   6.584 -1.9326 -2.2972  2.0565
   82MOL0     H11030   6.158   2.342   6.376 -0.5337 -0.3827  1.2365
   82MOL0     H11031   6.077   2.238   6.209 -0.1518 -0.1088 -1.3470
   82MOL0     H11032   5.904   2.220   6.225  1.5996 -0.7957  1.3638
   82MOL0     H11033   5.981   2.308   6.089  0.3069 -0.5422 -0.4214
   82MOL0     H11034   5.474   2.360   6.219  2.9732  0.7424 -1.9578
   82MOL0     H11035   5.248   2.384   6.099 -0.8963 -0.2631  2.1138
   82MOL0     H11036   5.119   2.492   5.900 -1.3607 -1.0503 -0.0127
   82MOL0     H11037   5.021   2.441   6.043 -1.6252 -0.5315 -0.8210
   82MOL0     H11038   4.951   2.680   5.859  2.0552 -0.7719 -2.5508
   82MOL0     H11039   4.901   2.526   5.827  2.0057  1.8593 -1.2092
   82MOL0     H11040   4.853   2.660   6.094  4.2347  0.4365 -1.8101
   82MOL0     H11041   4.790   2.492   6.054 -0.7017  1.3968  1.7917
   82MOL0     H11042   4.706   2.758   5.925 -0.2109 -0.0136  0.4802
   82MOL0     H11043   4.660   2.602   5.859 -1.0582  1.3622  0.6629
   82MOL0     H11044   4.601   2.680   6.149  0.0166 -2.1359  0.1386
   82MOL0     H11045   4.515   2.565   6.042 -2.6614  0.5321  1.3503
   82MOL0     H11046   4.402   2.793   6.086 -1.1869  0.8869 -1.5833
   82MOL0     H11047   4.534   2.877   6.010  1.3572 -1.1130  1.1909
   82MOL0     H11048   4.329   2.670   5.896  1.1113 -0.9859  0.1321
   82MOL0     H11049   4.471   2.687   5.811  0.1106 -0.8000  1.7536
   82MOL0     H11050   4.419   2.937   5.791  2.2526 -1.3747 -0.8202
   82MOL0     H11051   4.250   2.906   5.835  0.4914  0.0230  0.7238
   82MOL0     H11052   5.308   2.800   6.065  0.7747 -0.3285  0.2837
   82MOL0     H11053   5.528   2.782   6.179 -0.5400  1.0540 -3.8843
   82MOL0     H11054   5.793   2.668   6.423  0.5371  1.2445  3.1418
   82MOL0     H11055   5.992   2.688   6.552 -0.7305 -2.7257  3.3715
   82MOL0     H11056   8.024   2.623   6.637  2.5946 -0.3933  1.7141
   82MOL0     H11057   8.242   2.689   6.672 -2.7575 -3.0935  0.1563
   82MOL0     H11058   8.608   2.741   6.550  3.2655 -1.5976 -1.2907
   82MOL0     H11059   8.838   2.740   6.536 -0.6862 -0.3101 -0.0886
   82MOL0     H11060   9.056   2.782   6.632 -2.9037  0.5499  0.6675
   82MOL0     H11061   9.045   2.786   6.447  1.3248 -0.6922  0.3639
   82MOL0     H11062   9.257   2.877   6.433  0.5602 -1.5222 -1.0782
   82MOL0     H11063   9.284   2.759   6.550 -0.6655 -0.5970 -1.7706
   82MOL0     H11064   9.269   2.932   6.739  3.1160 -0.8102  0.5426
   82MOL0     H11065   9.253   3.058   6.606  0.8485  0.0173 -0.8597
   82MOL0     H11066   9.477   3.065   6.641  0.8269 -0.1096  1.7742
   82MOL0     H11067   9.477   2.946   6.509  0.6662 -0.4496  0.3820
   82MOL0     H11068   9.607   2.709   6.828 -2.0411 -3.0784 -2.0196
   82MOL0     H11069   8.878   3.159   6.546 -0.5026 -0.1914  0.1028
   82MOL0     H11070   8.635   3.184   6.512 -0.7354 -0.8253 -1.4630
   83MOL0     O11071   9.992   2.839   0.157  0.4406 -0.0102 -0.1144
   83MOL0     C11072  10.065   2.889   0.074  0.2224 -0.6391  0.3855
   83MOL0     O11073  10.028   2.999  -0.009  0.0661  0.1119  0.2598
   83MOL0     C11074   9.907   3.066  -0.004 -0.1678  0.3088 -0.9448
   83MOL0     C11075   9.918   3.200  -0.022  0.1544  0.1516 -0.0833
   83MOL0     C11076   9.802   3.275  -0.037 -0.2528 -0.3025 -0.1003
   83MOL0     C11077   9.667   3.220  -0.030 -0.6397  0.3680 -0.5831
   83MOL0     O11078   9.551   3.286  -0.067  0.1385  0.1713 -1.1279
   83MOL0     C11079   9.539   3.428  -0.065 -0.8369 -0.0363 -0.9378
   83MOL0     C11080   9.388   3.476  -0.060 -0.4159 -0.5514 -0.3082
   83MOL0     C11081   9.310   3.427  -0.192 -0.1101  0.5187  0.1790
   83MOL0     C11082   9.165   3.474  -0.181  0.6975  0.1347  0.5167
   83MOL0     C11083   9.087   3.444  -0.311  0.9428  0.3606 -0.7993
   83MOL0     C11084   8.937   3.467  -0.294  0.1004 -0.5946 -0.2399
   83MOL0     C11085   8.856   3.420  -0.415  0.8819  0.3815  0.1385
   83MOL0     C11086   8.711   3.457  -0.405 -0.2730  0.1656  0.4855
   83MOL0     N11087   8.629   3.385  -0.511  0.3234 -0.2422 -0.8618
   83MOL0     C11088   8.551   3.463  -0.593 -0.1755 -0.0495 -0.7214
   83MOL0     C11089   8.479   3.373  -0.664  0.1428 -0.3259 -0.9152
   83MOL0     C11090   8.362   3.399  -0.763 -0.3126 -0.7257  1.2495
   83MOL0     C11091   8.255   3.282  -0.738  0.3029  0.0937  0.6529
   83MOL0     C11092   8.115   3.322  -0.802 -0.4805  0.5210  0.0215
   83MOL0     C11093   8.024   3.207  -0.751 -0.4775 -0.0029 -0.2503
   83MOL0     O11094   7.959   3.263  -0.645  0.5589 -0.0177 -0.5510
   83MOL0     C11095   7.821   3.249  -0.647 -0.3771 -0.4105 -0.0354
   83MOL0     C11096   7.754   3.178  -0.555 -0.1719 -0.4517  0.8195
   83MOL0     C11097   7.615   3.165  -0.555 -0.1352  0.4850  0.1850
   83MOL0     C11098   7.550   3.077  -0.443  0.1322 -0.1749  1.2770
   83MOL0     C11099   7.543   3.222  -0.657 -0.2573 -0.6501 -0.2584
   83MOL0     C11100   7.397   3.226  -0.655  0.0878  0.8411  0.8937
   83MOL0     O11101   7.342   3.098  -0.636 -0.6108  0.7605  0.0814
   83MOL0     C11102   7.208   3.095  -0.647 -0.3044  0.6459 -0.1937
   83MOL0     C11103   7.128   3.055  -0.534  0.0652 -0.2117  0.0995
   83MOL0     C11104   6.990   3.041  -0.542 -0.0806 -0.7309  0.3946
   83MOL0     C11105   6.930   3.045  -0.672 -0.3649 -0.0587 -0.3154
   83MOL0     O11106   6.797   3.027  -0.702  0.0598  0.0141  0.4085
   83MOL0     C11107   6.719   2.966  -0.597  0.7647 -0.8924 -0.6516
   83MOL0     C11108   6.575   2.940  -0.641  0.5042  0.2947  0.3347
   83MOL0     C11109   6.588   2.849  -0.765 -0.2265  0.0760  0.0675
   83MOL0     C11110   6.450   2.830  -0.832 -0.3582  0.4123 -0.6738
   83MOL0     C11111   6.469   2.832  -0.984 -0.9146 -0.8259  0.3014
   83MOL0     C11112   6.337   2.810  -1.063 -0.5525 -1.1148 -0.1335
   83MOL0     C11113   6.277   2.675  -1.043  0.2335 -1.1360 -0.2073
   83MOL0     C11114   6.156   2.660  -1.137  0.7294  0.0098 -0.6099
   83MOL0    Cl11115   6.015   2.779  -1.113 -0.2232 -0.0261 -0.4472
   83MOL0     C11116   7.003   3.086  -0.776  0.1593  0.1463 -0.0175
   83MOL0     C11117   7.140   3.116  -0.767  1.0175 -0.7191  0.3155
   83MOL0     O11118   7.343   3.333  -0.691  0.9102  0.4513  0.0126
   83MOL0     C11119   7.613   3.305  -0.746  0.2981 -0.1846  0.1036
   83MOL0     C11120   7.751   3.314  -0.743 -0.4869  0.8806 -0.2425
   83MOL0     N11121   8.528   3.244  -0.620 -0.7174 -0.1212 -0.3065
   83MOL0     N11122   8.617   3.254  -0.529 -0.8137 -0.3207  0.4009
   83MOL0     C11123   9.663   3.084  -0.015 -0.2304 -0.2276 -0.4097
   83MOL0     C11124   9.778   3.012   0.005  0.2468  0.2985  0.1484
   83MOL0     C11125  10.201   2.837   0.073  0.3662  0.1234 -1.0095
   83MOL0     C11126  10.291   2.881  -0.027 -0.1637  1.2952  0.2307
   83MOL0     C11127  10.427   2.843  -0.024  0.4900  1.0777 -0.5762
   83MOL0     C11128  10.470   2.750   0.078  0.0982  0.0816 -0.3325
   83MOL0     O11129  10.606   2.720   0.076  0.7526  0.0987 -0.5256
   83MOL0     C11130  10.660   2.624   0.178 -0.7398 -0.0361  0.0660
   83MOL0     C11131  10.817   2.653   0.188  0.1951  0.1660 -0.5214
   83MOL0     C11132  10.899   2.670   0.053 -0.1389 -0.2377 -0.6746
   83MOL0     C11133  11.041   2.614   0.070  0.2984 -0.3693  0.2729
   83MOL0     C11134  11.116   2.687   0.174 -0.7545 -0.1108  0.0152
   83MOL0     C11135  11.188   2.739   0.255  1.0854 -0.0838  0.4368
   83MOL0     C11136  10.373   2.698   0.171  1.0076 -0.1253  0.4247
   83MOL0     C11137  10.243   2.749   0.170  1.0027  0.7769  1.0093
   83MOL0     H11138  10.013   3.252  -0.034  1.1198 -1.9232 -2.3378
   83MOL0     H11139   9.805   3.382  -0.057 -3.3773 -0.2211 -0.6083
   83MOL0     H11140   9.580   3.455   0.033 -2.7541 -1.4178  0.3324
   83MOL0     H11141   9.591   3.474  -0.149 -0.7828  0.9574 -0.3820
   83MOL0     H11142   9.343   3.438   0.033  0.7829  1.8491  1.3521
   83MOL0     H11143   9.376   3.584  -0.062 -0.8847 -0.5958 -0.1647
   83MOL0     H11144   9.353   3.469  -0.283  0.2703 -2.4654 -1.1484
   83MOL0     H11145   9.309   3.317  -0.194 -1.1549  0.5057 -2.0067
   83MOL0     H11146   9.129   3.410  -0.100 -2.3194  1.3884  0.2831
   83MOL0     H11147   9.149   3.577  -0.147 -0.4054 -0.4593  1.8826
   83MOL0     H11148   9.126   3.505  -0.393 -2.8698  0.8950 -2.4188
   83MOL0     H11149   9.093   3.336  -0.329  2.4184 -0.0396  1.6590
   83MOL0     H11150   8.896   3.413  -0.208 -0.1766 -0.9732 -0.6048
   83MOL0     H11151   8.926   3.573  -0.267 -0.2289 -0.9786  1.1799
   83MOL0     H11152   8.905   3.468  -0.501  0.8616 -2.1920 -1.3989
   83MOL0     H11153   8.871   3.312  -0.409 -0.4990  0.2443  1.3736
   83MOL0     H11154   8.704   3.565  -0.418  1.8483  0.1077 -2.0117
   83MOL0     H11155   8.666   3.416  -0.314  0.8259 -1.7394  0.2465
   83MOL0     H11156   8.547   3.570  -0.580 -0.6876 -0.2480  0.9772
   83MOL0     H11157   8.332   3.503  -0.749  4.2125  0.8682  0.7656
   83MOL0     H11158   8.394   3.395  -0.868 -0.6931  0.1366  1.0926
   83MOL0     H11159   8.238   3.277  -0.631  1.7386  0.1311  0.9036
   83MOL0     H11160   8.279   3.182  -0.776 -2.4241 -0.1723 -0.6511
   83MOL0     H11161   8.114   3.324  -0.911 -1.0822 -1.2862 -0.0301
   83MOL0     H11162   8.067   3.416  -0.773 -1.1882  0.3512 -0.5774
   83MOL0     H11163   8.087   3.126  -0.712  0.3511  0.8342  0.2011
   83MOL0     H11164   7.954   3.153  -0.815 -0.0413 -0.3904 -0.4083
   83MOL0     H11165   7.816   3.137  -0.475 -0.1453  1.4585  1.8262
   83MOL0     H11166   7.606   3.095  -0.352 -1.0667  0.8418  1.8470
   83MOL0     H11167   7.443   3.092  -0.425  0.2315 -0.6649  2.2946
   83MOL0     H11168   7.549   2.970  -0.465  1.2140  0.4767 -2.7768
   83MOL0     H11169   7.174   3.050  -0.436 -1.1746 -0.7030  0.6665
   83MOL0     H11170   6.941   3.041  -0.446 -3.3591 -1.9293 -1.1360
   83MOL0     H11171   6.772   2.876  -0.565  2.1093  0.4059  0.9369
   83MOL0     H11172   6.708   3.028  -0.507  1.6525  4.1852 -3.6088
   83MOL0     H11173   6.528   2.873  -0.568 -0.3978 -0.2558 -0.7180
   83MOL0     H11174   6.512   3.027  -0.656  1.1669  0.6194 -0.6620
   83MOL0     H11175   6.632   2.754  -0.734 -1.6393 -1.0670 -1.3115
   83MOL0     H11176   6.668   2.887  -0.829  1.5322  2.3639  3.2960
   83MOL0     H11177   6.417   2.727  -0.815 -0.3931  0.0249 -2.7369
   83MOL0     H11178   6.379   2.906  -0.801  1.4020  0.6549  3.3589
   83MOL0     H11179   6.542   2.761  -1.023 -1.7662 -1.2943 -0.5011
   83MOL0     H11180   6.503   2.930  -1.019 -1.1295 -1.9806 -3.6062
   83MOL0     H11181   6.270   2.891  -1.036 -1.7903 -2.6794  1.7853
   83MOL0     H11182   6.359   2.819  -1.170 -1.0544  0.3544 -0.1309
   83MOL0     H11183   6.239   2.657  -0.942  0.8530  0.6740  0.3784
   83MOL0     H11184   6.355   2.601  -1.063  2.6168  0.8604  1.1790
   83MOL0     H11185   6.115   2.558  -1.134 -1.5444  0.8464 -0.6515
   83MOL0     H11186   6.190   2.685  -1.238 -0.4067  2.7931 -0.3813
   83MOL0     H11187   6.942   3.114  -0.861  1.3228 -0.6494 -1.1425
   83MOL0     H11188   7.186   3.153  -0.858 -2.0158 -0.9940 -1.4782
   83MOL0     H11189   7.552   3.351  -0.824 -0.2935  0.9335  1.1955
   83MOL0     H11190   7.816   3.357  -0.818  1.4272  1.2340  1.5342
   83MOL0     H11191   9.565   3.040  -0.029 -0.3871  0.5024 -1.7145
   83MOL0     H11192   9.765   2.906   0.025 -0.2339  0.2390 -0.4651
   83MOL0     H11193  10.258   2.944  -0.109  0.5545 -1.6376 -2.5273
   83MOL0     H11194  10.493   2.885  -0.100  0.5561  1.8247 -0.1174
   83MOL0     H11195  10.611   2.651   0.272  2.7363  0.9022  1.7798
   83MOL0     H11196  10.648   2.520   0.145  1.3866 -1.9507  4.4744
   83MOL0     H11197  10.861   2.568   0.240  0.9544  1.0647  0.3292
   83MOL0     H11198  10.819   2.744   0.248  1.1302  0.0835 -0.4261
   83MOL0     H11199  10.910   2.775   0.025 -1.8698 -0.4354 -2.2766
   83MOL0     H11200  10.838   2.617  -0.020 -2.6675  0.0884  1.0889
   83MOL0     H11201  11.077   2.623  -0.033 -3.1179 -0.3714 -1.0461
   83MOL0     H11202  11.039   2.511   0.107 -0.6242  0.1492  1.7134
   83MOL0     H11203  11.243   2.754   0.346  2.2890 -4.1615  0.5750
   83MOL0     H11204  10.408   2.635   0.253  0.6263  1.3952  1.8064
   83MOL0     H11205  10.175   2.716   0.248 -0.7085 -1.0472 -1.1362
   84MOL0     O11206   4.181   1.174  10.361  0.7306 -0.1592  0.3305
   84MOL0     C11207   4.162   1.269  10.287 -0.9258 -0.4518 -0.9776
   84MOL0     O11208   4.037   1.322  10.247 -0.2287  0.1549  0.5141
   84MOL0     C11209   3.913   1.271  10.282 -0.9507  0.6682 -0.2124
   84MOL0     C11210   3.804   1.322  10.217 -0.3267  0.1853  1.2363
   84MOL0     C11211   3.672   1.282  10.239 -0.4979  0.4403 -0.2023
   84MOL0     C11212   3.650   1.183  10.332  0.4125  0.3764 -1.1703
   84MOL0     O11213   3.515   1.156  10.357  0.0555  0.0403 -0.3965
   84MOL0     C11214   3.487   1.128  10.498  0.2849 -0.4130  0.3368
   84MOL0     C11215   3.445   0.978  10.518  0.5929  0.6570  0.2154
   84MOL0     C11216   3.298   0.950  10.471 -0.0182  0.0077 -0.2201
   84MOL0     C11217   3.200   1.001  10.573 -0.3428  0.4252 -0.0981
   84MOL0     C11218   3.056   0.979  10.529  0.3500  0.1927 -0.8222
   84MOL0     C11219   3.019   1.047  10.391  0.7055 -0.2839  0.4407
   84MOL0     C11220   2.874   1.064  10.361  0.8189 -0.3960  0.2493
   84MOL0     C11221   2.789   1.146  10.464  0.7130  0.0763  0.0244
   84MOL0     N11222   2.827   1.292  10.481  0.3266  0.0334 -0.2638
   84MOL0     C11223   2.940   1.348  10.520 -0.4168 -0.0825 -0.4952
   84MOL0     C11224   2.931   1.480  10.491  0.0233 -0.2818 -0.3691
   84MOL0     C11225   3.038   1.585  10.486  0.1872 -0.4697 -1.0516
   84MOL0     C11226   3.124   1.574  10.357 -0.5915 -0.0668  0.4746
   84MOL0     C11227   3.248   1.497  10.393 -0.7430 -0.4512 -0.3751
   84MOL0     C11228   3.380   1.584  10.423 -0.2886  0.1777  0.7658
   84MOL0     O11229   3.505   1.516  10.421 -0.0790 -0.7758  0.1427
   84MOL0     C11230   3.591   1.503  10.527 -1.0263  0.0365  0.5999
   84MOL0     C11231   3.727   1.488  10.505 -0.9178 -0.2051  0.3381
   84MOL0     C11232   3.824   1.489  10.607 -0.6593 -0.1851  0.1689
   84MOL0     C11233   3.962   1.489  10.553  1.1074  0.0292 -0.4045
   84MOL0     C11234   3.788   1.514  10.736  1.0072 -0.0306 -0.0567
   84MOL0     C11235   3.883   1.518  10.853 -0.2109  0.4864  0.2026
   84MOL0     O11236   4.017   1.493  10.826  0.6247 -0.4389 -0.6622
   84MOL0     C11237   4.117   1.522  10.908  0.2061 -0.1644 -0.2106
   84MOL0     C11238   4.108   1.548  11.048 -1.3519 -0.6376  0.9715
   84MOL0     C11239   4.225   1.572  11.115 -0.3737  0.1292 -0.6974
   84MOL0     C11240   4.348   1.577  11.050 -0.9460  0.2599 -0.2406
   84MOL0     O11241   4.461   1.605  11.113 -0.9616 -0.5326 -0.5735
   84MOL0     C11242   4.572   1.516  11.103 -0.1563 -0.5210  0.0462
   84MOL0     C11243   4.615   1.458  11.238  0.4051  0.2446 -0.5586
   84MOL0     C11244   4.707   1.555  11.312  1.1047  0.8991  0.2916
   84MOL0     C11245   4.782   1.475  11.420 -0.5768  0.6681  0.3073
   84MOL0     C11246   4.909   1.397  11.359  0.4766 -0.0373  0.9566
   84MOL0     C11247   4.997   1.300  11.452  0.2019  0.1824  0.4202
   84MOL0     C11248   5.034   1.374  11.583  0.2423  0.3399 -0.0454
   84MOL0     C11249   5.116   1.282  11.677 -1.0890  0.6651  0.6754
   84MOL0    Cl11250   5.266   1.242  11.588  0.4319 -0.1709 -0.5986
   84MOL0     C11251   4.350   1.571  10.908 -0.9016 -0.3872  0.2547
   84MOL0     C11252   4.238   1.544  10.842  0.4270  0.2365 -0.0037
   84MOL0     O11253   3.842   1.548  10.962 -0.2099 -0.3219  0.2519
   84MOL0     C11254   3.645   1.519  10.759  0.5002 -0.3113 -0.3513
   84MOL0     C11255   3.554   1.522  10.654  0.1018 -0.2150 -0.1161
   84MOL0     N11256   2.814   1.499  10.421  0.4822 -0.7998  0.6432
   84MOL0     N11257   2.740   1.386  10.434  0.1004  0.3657  0.0824
   84MOL0     C11258   3.764   1.128  10.401  1.0332  0.0925 -0.3440
   84MOL0     C11259   3.889   1.180  10.382 -1.1359  0.6679  0.5222
   84MOL0     C11260   4.289   1.332  10.233  1.6509  1.4070 -0.3216
   84MOL0     C11261   4.296   1.465  10.195  0.0286 -0.4061  0.0636
   84MOL0     C11262   4.420   1.512  10.126 -0.1593  0.7649 -0.0202
   84MOL0     C11263   4.529   1.425  10.113  0.6677  0.8011  0.8086
   84MOL0     O11264   4.641   1.469  10.048 -0.4404  0.2148  0.3689
   84MOL0     C11265   4.761   1.389  10.055 -0.0236 -0.3526  0.4851
   84MOL0     C11266   4.808   1.381  10.192  0.8276  0.6721 -0.3932
   84MOL0     C11267   4.847   1.521  10.243 -0.1811  0.3788  0.7403
   84MOL0     C11268   4.947   1.489  10.357 -0.5660 -0.8664 -0.0495
   84MOL0     C11269   5.005   1.622  10.401 -0.3666 -0.5609  0.6052
   84MOL0     C11270   5.050   1.735  10.430 -0.7170  0.3442 -1.2992
   84MOL0     C11271   4.518   1.292  10.155  0.0621  0.2649 -0.3049
   84MOL0     C11272   4.398   1.246  10.212 -0.4516  0.1761 -0.3691
   84MOL0     H11273   3.819   1.405  10.148 -1.6189  0.9977  1.8804
   84MOL0     H11274   3.590   1.328  10.184 -0.9950  0.8011  0.8137
   84MOL0     H11275   3.576   1.149  10.558  1.5161 -0.6132 -1.3340
   84MOL0     H11276   3.415   1.205  10.527 -1.1767 -1.1992 -0.9941
   84MOL0     H11277   3.509   0.899  10.477 -0.8821 -0.7816  0.5718
   84MOL0     H11278   3.435   0.950  10.623 -1.0751  1.1634  0.2069
   84MOL0     H11279   3.283   1.002  10.376  0.4920  0.7182  0.0781
   84MOL0     H11280   3.284   0.841  10.467  2.3148 -0.4243  1.3932
   84MOL0     H11281   3.228   0.947  10.664  0.9992  1.1482 -0.0538
   84MOL0     H11282   3.224   1.105  10.596  1.1494 -0.0250  0.5263
   84MOL0     H11283   3.037   0.872  10.536  0.6951  0.2430  3.2016
   84MOL0     H11284   2.997   1.011  10.615  0.5174  0.9807 -0.9865
   84MOL0     H11285   3.074   1.141  10.386  0.3055 -0.0418  0.4990
   84MOL0     H11286   3.063   0.983  10.315 -0.6780 -0.6385 -0.0993
   84MOL0     H11287   2.852   1.119  10.269  1.7905  0.3598  0.4549
   84MOL0     H11288   2.836   0.962  10.362  1.8260 -0.7778  0.3625
   84MOL0     H11289   2.782   1.098  10.562  2.9567  0.4353  0.4032
   84MOL0     H11290   2.686   1.144  10.426  0.2981 -1.3522  1.1158
   84MOL0     H11291   3.033   1.303  10.553  0.2094  1.5806  0.1561
   84MOL0     H11292   2.987   1.682  10.489 -0.8305 -1.0221  0.1057
   84MOL0     H11293   3.091   1.578  10.581 -1.6055 -2.5743 -0.1318
   84MOL0     H11294   3.141   1.672  10.312 -0.9868 -0.7959 -1.3804
   84MOL0     H11295   3.080   1.505  10.284 -1.1767  1.1404 -0.3466
   84MOL0     H11296   3.271   1.435  10.305  1.6236 -1.4887  0.8627
   84MOL0     H11297   3.241   1.424  10.474 -0.1265 -0.9224 -0.7288
   84MOL0     H11298   3.368   1.644  10.513  0.7812  0.5654  0.6540
   84MOL0     H11299   3.388   1.647  10.334 -0.0470  0.5327  1.0389
   84MOL0     H11300   3.752   1.487  10.399 -0.4722 -1.3019  0.4426
   84MOL0     H11301   4.025   1.565  10.599 -0.0466  1.0955 -0.5312
   84MOL0     H11302   4.005   1.393  10.583 -0.5733 -0.2583  1.2967
   84MOL0     H11303   3.963   1.504  10.444 -2.3121 -1.7647 -0.8276
   84MOL0     H11304   4.014   1.554  11.103 -0.5797  3.9818  2.2106
   84MOL0     H11305   4.232   1.586  11.222  2.7884  1.5762 -0.9629
   84MOL0     H11306   4.545   1.437  11.033 -0.3470  0.3875 -0.9203
   84MOL0     H11307   4.647   1.585  11.064  1.7424 -3.0159 -0.9384
   84MOL0     H11308   4.527   1.434  11.299  1.1650  0.3355  0.6106
   84MOL0     H11309   4.668   1.363  11.224  1.8265  0.6976  1.3728
   84MOL0     H11310   4.648   1.633  11.360 -0.8514 -0.9794  1.1186
   84MOL0     H11311   4.785   1.601  11.250 -0.3428  0.8591 -1.6328
   84MOL0     H11312   4.813   1.550  11.493 -1.9925  1.2689  0.3167
   84MOL0     H11313   4.715   1.409  11.476 -1.0662 -0.5892 -1.6279
   84MOL0     H11314   4.973   1.477  11.324 -1.6607  1.8848  1.2065
   84MOL0     H11315   4.886   1.331  11.275  0.1203  1.3619 -0.0643
   84MOL0     H11316   4.949   1.206  11.480  0.3743 -0.0714 -0.1290
   84MOL0     H11317   5.080   1.267  11.389 -1.7394 -0.7329 -1.8032
   84MOL0     H11318   4.942   1.391  11.641  1.6718  1.6193  1.9767
   84MOL0     H11319   5.084   1.464  11.548  2.0124 -0.6687 -0.2272
   84MOL0     H11320   5.057   1.193  11.702 -1.2801  0.9845  1.3743
   84MOL0     H11321   5.149   1.338  11.765  1.6896  1.1714 -0.5609
   84MOL0     H11322   4.438   1.602  10.853 -1.1091  0.9620  0.6498
   84MOL0     H11323   4.238   1.535  10.733  0.5053 -0.3112  0.0371
   84MOL0     H11324   3.615   1.514  10.863 -0.9415 -2.8860 -0.7841
   84MOL0     H11325   3.452   1.538  10.685  0.9842  2.2380  1.9534
   84MOL0     H11326   3.759   1.051  10.477 -0.0757  1.9913  1.6087
   84MOL0     H11327   3.974   1.146  10.440  0.2688  2.4931 -0.3463
   84MOL0     H11328   4.217   1.535  10.218  1.9123  2.0734 -0.5242
   84MOL0     H11329   4.438   1.613  10.092 -0.6317  2.1584  3.4045
   84MOL0     H11330   4.723   1.293  10.019 -2.7923  0.5798  0.7080
   84MOL0     H11331   4.834   1.438   9.990 -0.4819  0.3408  0.4850
   84MOL0     H11332   4.897   1.317  10.187 -0.2081 -1.2080  2.6998
   84MOL0     H11333   4.742   1.332  10.265 -0.6553  3.1351  0.0422
   84MOL0     H11334   4.759   1.577  10.278  0.1723  1.4213  0.0204
   84MOL0     H11335   4.893   1.587  10.169 -3.4268  0.4170 -1.4581
   84MOL0     H11336   5.034   1.439  10.314  0.7883  1.7275 -0.5766
   84MOL0     H11337   4.899   1.431  10.436 -1.3627 -1.7065 -1.1172
   84MOL0     H11338   5.114   1.820  10.441 -0.8128  0.3058 -0.3176
   84MOL0     H11339   4.596   1.217  10.152 -0.3876 -0.2758  0.7734
   84MOL0     H11340   4.388   1.147  10.256 -2.2580  1.7148  3.1868
   85MOL0     O11341   1.311   1.542   0.806 -0.0489  0.6416  0.3618
   85MOL0     C11342   1.397   1.470   0.854 -0.7372 -0.0007  0.4730
   85MOL0     O11343   1.384   1.397   0.972 -0.6271  0.0507 -0.2180
   85MOL0     C11344   1.250   1.376   1.001 -0.0039  0.3415  0.1907
   85MOL0     C11345   1.172   1.457   1.080 -0.5258  0.0527 -0.0560
   85MOL0     C11346   1.037   1.420   1.102  0.1727 -0.1305 -0.5487
   85MOL0     C11347   0.981   1.290   1.061  0.3244  0.6376 -0.1736
   85MOL0     O11348   0.856   1.247   1.102 -0.3589 -0.2845 -0.6150
   85MOL0     C11349   0.759   1.349   1.141  0.9227 -0.3659  0.9943
   85MOL0     C11350   0.751   1.383   1.299 -0.7093 -0.2890  0.0491
   85MOL0     C11351   0.615   1.450   1.337  1.1741 -0.2526 -0.0437
   85MOL0     C11352   0.495   1.351   1.346  0.4308  0.2118 -0.3575
   85MOL0     C11353   0.485   1.258   1.467  0.3215 -0.5332 -1.3001
   85MOL0     C11354   0.492   1.330   1.604  0.6166  0.4350 -0.4256
   85MOL0     C11355   0.441   1.244   1.730  0.4869  0.8542 -0.1268
   85MOL0     C11356   0.510   1.110   1.748  0.1465  0.3689  0.2673
   85MOL0     N11357   0.438   1.038   1.857 -0.5840 -0.4278  0.0949
   85MOL0     C11358   0.377   1.096   1.967  0.0327  0.1797  0.1765
   85MOL0     C11359   0.323   0.990   2.029  0.5808 -0.1434  0.0764
   85MOL0     C11360   0.241   1.021   2.162  0.7396  0.2489  0.3185
   85MOL0     C11361   0.093   1.011   2.134  0.0849 -1.1127  0.1839
   85MOL0     C11362   0.017   1.037   2.259  0.2069  0.9147 -0.4216
   85MOL0     C11363  -0.121   0.983   2.240  0.7019 -0.0542  0.0875
   85MOL0     O11364  -0.213   1.035   2.335 -0.6401 -0.2025  0.3918
   85MOL0     C11365  -0.332   0.968   2.365 -0.6659  0.1880  0.2758
   85MOL0     C11366  -0.368   0.842   2.321  0.0063 -0.1040  0.3888
   85MOL0     C11367  -0.492   0.788   2.350  0.1857  0.4328 -0.3874
   85MOL0     C11368  -0.516   0.638   2.308 -0.9507 -0.2650 -0.5179
   85MOL0     C11369  -0.582   0.866   2.423 -0.4076  0.1871 -0.8769
   85MOL0     C11370  -0.725   0.837   2.445  0.1247  0.4968  0.0930
   85MOL0     O11371  -0.790   0.920   2.531  0.6655  0.3006 -0.1567
   85MOL0     C11372  -0.918   0.882   2.560  0.2102 -0.2337  0.1916
   85MOL0     C11373  -0.946   0.778   2.643 -0.5957  0.0702  0.9264
   85MOL0     C11374  -1.080   0.734   2.666  0.7222  0.6414  0.3162
   85MOL0     C11375  -1.190   0.794   2.596  0.9264  0.1691  0.1063
   85MOL0     O11376  -1.320   0.751   2.596  0.5510  0.0297 -0.0075
   85MOL0     C11377  -1.358   0.647   2.683 -0.0298  0.4635  0.4015
   85MOL0     C11378  -1.517   0.635   2.678 -0.4064  0.1982 -0.1320
   85MOL0     C11379  -1.593   0.731   2.762  0.7973 -0.4088 -0.5849
   85MOL0     C11380  -1.742   0.739   2.737 -0.4003 -0.0337  0.3782
   85MOL0     C11381  -1.820   0.793   2.863 -0.4060 -0.2061  0.9758
   85MOL0     C11382  -1.973   0.814   2.848 -0.1444 -0.4637 -0.3591
   85MOL0     C11383  -2.035   0.841   2.991  0.0942  0.2214  1.3396
   85MOL0     C11384  -2.153   0.932   2.977  0.0685  0.4351 -0.4279
   85MOL0    Cl11385  -2.254   0.904   3.127  0.0878 -0.0821  0.1361
   85MOL0     C11386  -1.156   0.907   2.507  0.3488  0.6745  0.3757
   85MOL0     C11387  -1.026   0.950   2.488 -0.6139  0.2291  0.2745
   85MOL0     O11388  -0.782   0.754   2.379  0.0402 -0.6874 -0.1181
   85MOL0     C11389  -0.541   0.995   2.472  0.3995  0.4918 -0.1040
   85MOL0     C11390  -0.414   1.041   2.446  0.1110  0.3979 -0.3658
   85MOL0     N11391   0.334   0.874   1.953 -0.0853 -0.5632  0.0659
   85MOL0     N11392   0.392   0.906   1.846 -0.6420 -0.4535  0.1124
   85MOL0     C11393   1.070   1.207   0.987  0.1999  0.2029  0.4421
   85MOL0     C11394   1.197   1.249   0.959 -0.0655  0.3569  0.0727
   85MOL0     C11395   1.533   1.460   0.791  1.0877  0.8193  0.7968
   85MOL0     C11396   1.635   1.413   0.865  0.6527  0.3766  0.0206
   85MOL0     C11397   1.763   1.399   0.806  0.2324 -0.9193  0.3458
   85MOL0     C11398   1.782   1.422   0.668 -0.1540  0.0626  0.1621
   85MOL0     O11399   1.908   1.418   0.619  0.0755  0.1131 -0.0952
   85MOL0     C11400   1.936   1.366   0.485 -0.0378 -0.0183 -0.3705
   85MOL0     C11401   1.971   1.470   0.384 -0.6139 -0.1487 -0.1184
   85MOL0     C11402   2.101   1.540   0.418 -0.7008 -0.3406  0.4194
   85MOL0     C11403   2.230   1.465   0.390 -0.1942 -0.0305  0.8303
   85MOL0     C11404   2.259   1.337   0.450 -0.5859  0.0284 -0.4086
   85MOL0     C11405   2.281   1.229   0.503 -0.0402 -0.0320  0.2809
   85MOL0     C11406   1.671   1.454   0.589 -1.0040 -0.3103  0.2792
   85MOL0     C11407   1.552   1.479   0.651  0.5625  0.3560  0.2625
   85MOL0     H11408   1.221   1.547   1.115 -1.3917  0.1083  1.1154
   85MOL0     H11409   0.976   1.496   1.150 -2.3260 -0.4274 -3.0097
   85MOL0     H11410   0.773   1.438   1.078  2.8951 -0.8505  0.6612
   85MOL0     H11411   0.664   1.303   1.115  1.7520 -1.4416 -0.3050
   85MOL0     H11412   0.775   1.292   1.354 -2.1129  0.3001  1.7097
   85MOL0     H11413   0.830   1.456   1.321  0.5669 -0.7164 -2.6874
   85MOL0     H11414   0.628   1.501   1.433  0.1855 -0.9971  0.5067
   85MOL0     H11415   0.582   1.532   1.273  0.8524 -1.3026 -1.2585
   85MOL0     H11416   0.405   1.412   1.339  1.1060  1.6394  2.0683
   85MOL0     H11417   0.499   1.283   1.260  2.6966  0.5914 -0.6249
   85MOL0     H11418   0.400   1.190   1.468  0.0543 -0.3246  1.9875
   85MOL0     H11419   0.566   1.186   1.456 -2.2127 -3.7616 -0.2613
   85MOL0     H11420   0.597   1.354   1.619  1.1945  1.4506 -4.7068
   85MOL0     H11421   0.443   1.428   1.595  0.2738  0.5373  2.0271
   85MOL0     H11422   0.468   1.297   1.822 -0.7416 -0.0424  0.7916
   85MOL0     H11423   0.331   1.243   1.729  0.4919  0.5123 -0.3277
   85MOL0     H11424   0.613   1.129   1.779  1.3854  0.8996 -3.5775
   85MOL0     H11425   0.503   1.037   1.666 -1.2762 -1.4006  1.8808
   85MOL0     H11426   0.380   1.195   2.011  0.4664 -0.8255  2.5154
   85MOL0     H11427   0.258   0.943   2.238 -0.3109 -0.1239  0.1893
   85MOL0     H11428   0.269   1.119   2.201  0.9707 -0.2900  1.5607
   85MOL0     H11429   0.054   0.915   2.097 -0.0481 -0.7582 -0.6140
   85MOL0     H11430   0.065   1.088   2.061 -0.6201 -0.8559  0.7143
   85MOL0     H11431   0.019   1.144   2.283  1.0977  0.6726  0.6585
   85MOL0     H11432   0.060   0.985   2.345 -1.0734  2.4140  1.1890
   85MOL0     H11433  -0.109   0.875   2.253 -0.5810 -0.3467 -0.9504
   85MOL0     H11434  -0.164   1.000   2.141 -0.7976 -2.0900  0.3151
   85MOL0     H11435  -0.295   0.782   2.267 -0.0662  2.7720 -3.3472
   85MOL0     H11436  -0.431   0.582   2.268 -1.9029 -2.3897  0.3017
   85MOL0     H11437  -0.544   0.576   2.394  2.7426 -1.0934  0.2629
   85MOL0     H11438  -0.590   0.630   2.228 -1.2772  2.1093 -0.5206
   85MOL0     H11439  -0.855   0.742   2.690  1.1386  2.4402 -0.3787
   85MOL0     H11440  -1.101   0.653   2.736  0.2785 -1.7846 -2.4174
   85MOL0     H11441  -1.322   0.551   2.645  3.1449  0.9434  1.8485
   85MOL0     H11442  -1.316   0.653   2.784 -0.3854 -0.0103  0.5827
   85MOL0     H11443  -1.548   0.640   2.574 -2.6003 -1.4121  0.3756
   85MOL0     H11444  -1.529   0.531   2.710 -0.3858  0.9205  2.4429
   85MOL0     H11445  -1.566   0.833   2.731 -0.7142 -0.8202 -3.6652
   85MOL0     H11446  -1.569   0.718   2.868  0.4252 -1.6712 -0.6464
   85MOL0     H11447  -1.763   0.794   2.644 -1.4415 -2.9578 -1.2411
   85MOL0     H11448  -1.773   0.635   2.723  0.2577 -0.2711  0.6640
   85MOL0     H11449  -1.778   0.888   2.898 -0.0444 -0.9270  2.6335
   85MOL0     H11450  -1.807   0.714   2.939  3.3045 -0.0762  0.6607
   85MOL0     H11451  -1.979   0.914   2.803  0.9134 -0.7544 -1.2010
   85MOL0     H11452  -2.022   0.735   2.792 -1.2374  0.1244 -0.2524
   85MOL0     H11453  -1.956   0.866   3.062  1.2678  0.7708 -0.0977
   85MOL0     H11454  -2.086   0.748   3.017  0.6793 -0.9055 -1.2933
   85MOL0     H11455  -2.219   0.916   2.891 -0.5926  2.6259 -0.3971
   85MOL0     H11456  -2.112   1.033   2.965  1.5526 -0.4830 -6.0009
   85MOL0     H11457  -1.238   0.947   2.449  0.2305  0.0223  0.0857
   85MOL0     H11458  -1.004   1.024   2.412 -0.3995 -0.3545 -0.2406
   85MOL0     H11459  -0.604   1.063   2.528 -2.6312 -1.2682 -1.1670
   85MOL0     H11460  -0.379   1.133   2.493 -3.1690  2.1152 -1.0042
   85MOL0     H11461   1.039   1.112   0.944  3.3279 -0.2058 -1.2953
   85MOL0     H11462   1.269   1.179   0.918  2.7202  2.7668  0.4723
   85MOL0     H11463   1.619   1.396   0.971 -1.9649 -1.5232 -0.5684
   85MOL0     H11464   1.838   1.375   0.881  0.8922  0.9477  0.3405
   85MOL0     H11465   2.011   1.286   0.488  3.6978  2.8990 -4.0831
   85MOL0     H11466   1.840   1.323   0.457 -1.7172  2.0114  1.8325
   85MOL0     H11467   1.890   1.544   0.389  1.2477  1.9552  1.0110
   85MOL0     H11468   1.970   1.441   0.279  0.0612  1.7722 -0.7039
   85MOL0     H11469   2.097   1.577   0.521 -1.4789 -0.0471  0.2887
   85MOL0     H11470   2.097   1.638   0.370  0.7299  0.5558  2.0152
   85MOL0     H11471   2.313   1.533   0.413  0.3650 -0.6068  0.5564
   85MOL0     H11472   2.243   1.444   0.284 -1.5908  2.4135  0.1251
   85MOL0     H11473   2.319   1.141   0.551  2.3053  0.6399 -0.2257
   85MOL0     H11474   1.679   1.470   0.482 -1.9093 -2.1241 -0.0844
   85MOL0     H11475   1.466   1.494   0.586 -0.4232 -2.8503  0.6460
   86MOL0     O11476   9.340   9.881   9.926  1.5413 -0.0446 -0.0295
   86MOL0     C11477   9.291   9.885  10.036  1.0198 -0.3629  0.0808
   86MOL0     O11478   9.157   9.912  10.061  0.0202  0.2411 -0.0101
   86MOL0     C11479   9.076   9.964   9.970  0.1094 -0.0320 -0.2844
   86MOL0     C11480   9.073  10.103   9.950  0.8463 -0.8036 -0.2876
   86MOL0     C11481   8.994  10.160   9.847  1.3440 -1.8159 -0.3948
   86MOL0     C11482   8.910  10.084   9.766 -0.0280  0.2518 -0.2540
   86MOL0     O11483   8.841  10.144   9.661 -0.0649 -0.3202 -0.7209
   86MOL0     C11484   8.770  10.073   9.563  0.2382  0.3871 -0.3532
   86MOL0     C11485   8.625  10.051   9.605 -0.4677 -0.4891  0.4078
   86MOL0     C11486   8.550   9.993   9.476  0.1949  0.8312 -0.8726
   86MOL0     C11487   8.402  10.022   9.493 -0.0674  0.7019 -1.0434
   86MOL0     C11488   8.326   9.986   9.365 -0.1091 -0.0210  0.4216
   86MOL0     C11489   8.299  10.109   9.278 -0.6999  0.2433 -1.1280
   86MOL0     C11490   8.209  10.086   9.155 -0.0333 -0.0147 -0.8072
   86MOL0     C11491   8.171  10.216   9.077  0.4665 -0.6120  0.5695
   86MOL0     N11492   8.097  10.182   8.955  0.5796 -0.4532 -0.5720
   86MOL0     C11493   7.971  10.128   8.942  0.0888  0.3109  0.0034
   86MOL0     C11494   7.934  10.117   8.805 -0.4835  0.1240  0.4409
   86MOL0     C11495   7.807  10.067   8.753  0.4102 -0.3769  0.8313
   86MOL0     C11496   7.725  10.170   8.670 -0.0382  0.3176  0.2406
   86MOL0     C11497   7.594  10.114   8.640 -0.5719  0.4415  0.6346
   86MOL0     C11498   7.534  10.153   8.503  0.1821  0.1936  0.0696
   86MOL0     O11499   7.626  10.146   8.390  0.4113 -0.1377 -0.6220
   86MOL0     C11500   7.660  10.018   8.357  0.0819  0.0951  0.0902
   86MOL0     C11501   7.572   9.940   8.279 -0.6650 -0.2132 -0.4088
   86MOL0     C11502   7.611   9.818   8.236 -0.6186  0.5060 -0.3678
   86MOL0     C11503   7.501   9.733   8.172 -0.1097 -0.2608  0.4425
   86MOL0     C11504   7.742   9.770   8.258  0.0450 -0.4489  0.1314
   86MOL0     C11505   7.791   9.635   8.217 -0.0500 -0.8193 -0.2620
   86MOL0     O11506   7.930   9.621   8.213  0.3748  0.9567 -0.0585
   86MOL0     C11507   8.004   9.514   8.153  0.3827 -0.5024  0.5487
   86MOL0     C11508   8.130   9.484   8.215 -0.2077  0.5355 -0.2179
   86MOL0     C11509   8.209   9.383   8.160 -0.0206  0.8938 -1.0397
   86MOL0     C11510   8.175   9.317   8.045 -0.5878  0.0321  0.4068
   86MOL0     O11511   8.259   9.214   7.999 -0.5517  0.3357 -0.4387
   86MOL0     C11512   8.230   9.147   7.877  0.4096  0.1574  0.2102
   86MOL0     C11513   8.349   9.077   7.814  0.4294  0.2015  0.7667
   86MOL0     C11514   8.404   8.954   7.893 -0.4960 -0.4006 -0.0183
   86MOL0     C11515   8.532   8.896   7.836  0.2302  0.0033 -0.7400
   86MOL0     C11516   8.618   8.825   7.943  0.3336 -0.8735  0.9809
   86MOL0     C11517   8.551   8.710   8.015 -0.0553  0.4198 -0.0199
   86MOL0     C11518   8.513   8.586   7.928  0.3199 -0.4439 -0.1277
   86MOL0     C11519   8.473   8.463   8.014 -0.3162 -0.1056 -0.0021
   86MOL0    Cl11520   8.301   8.479   8.051  0.3056  0.1011 -0.1128
   86MOL0     C11521   8.059   9.354   7.977  0.7498 -0.6997 -0.4742
   86MOL0     C11522   7.969   9.444   8.037  0.1627  0.6267  0.1093
   86MOL0     O11523   7.714   9.544   8.192  0.0452  0.4616  0.3169
   86MOL0     C11524   7.823   9.850   8.342 -0.1349  0.7082 -0.6050
   86MOL0     C11525   7.793   9.979   8.386 -0.1214  0.3993  0.2867
   86MOL0     N11526   8.053  10.165   8.743  0.4289  0.9186  0.0658
   86MOL0     N11527   8.145  10.191   8.824 -0.4113 -1.2074 -0.5525
   86MOL0     C11528   8.923   9.937   9.777  0.3666 -0.0601 -0.8480
   86MOL0     C11529   8.991   9.885   9.890 -0.6249 -0.5020  0.3323
   86MOL0     C11530   9.374   9.846  10.144  0.6332 -0.0790  0.2537
   86MOL0     C11531   9.512   9.812  10.133  0.5515  0.8170  0.2567
   86MOL0     C11532   9.586   9.772  10.251 -0.8477 -1.0231 -0.5939
   86MOL0     C11533   9.519   9.782  10.379  0.3605  0.3298  0.8038
   86MOL0     O11534   9.582   9.772  10.495 -0.5332  0.0253 -1.3183
   86MOL0     C11535   9.685   9.872  10.512  0.8387  0.2304  0.5572
   86MOL0     C11536   9.802   9.808  10.573  0.0492  0.3109  0.1572
   86MOL0     C11537   9.932   9.901  10.591 -0.4229 -0.3685  0.9279
   86MOL0     C11538  10.044   9.837  10.675 -0.4043 -0.9548 -0.1947
   86MOL0     C11539  10.154   9.930  10.671  0.1743 -0.0397  0.4548
   86MOL0     C11540  10.255   9.999  10.684  0.4355  0.0859 -0.1961
   86MOL0     C11541   9.390   9.825  10.385 -0.6231 -0.1144 -0.0696
   86MOL0     C11542   9.318   9.859  10.271 -1.1385  0.8574 -0.1780
   86MOL0     H11543   9.136  10.174  10.002  1.4698 -0.7588 -1.0866
   86MOL0     H11544   9.017  10.262   9.817  1.0400 -2.5885 -3.6116
   86MOL0     H11545   8.790  10.116   9.464  2.0760 -2.1923 -1.2254
   86MOL0     H11546   8.823   9.978   9.554 -0.9547 -0.4139  0.8000
   86MOL0     H11547   8.623   9.983   9.691 -0.8827  1.1013  1.7123
   86MOL0     H11548   8.592  10.145   9.648  1.1513  0.0120  0.6307
   86MOL0     H11549   8.570  10.044   9.381 -0.9228 -1.8376 -2.6439
   86MOL0     H11550   8.581   9.889   9.459 -1.1707 -0.0819  1.6630
   86MOL0     H11551   8.360   9.966   9.577  2.2455 -1.5155 -1.2360
   86MOL0     H11552   8.389  10.124   9.530 -0.7203 -0.5885  2.6236
   86MOL0     H11553   8.368   9.897   9.316 -0.4623 -0.7740  1.4427
   86MOL0     H11554   8.226   9.956   9.400  0.5968 -1.6085  1.1983
   86MOL0     H11555   8.260  10.192   9.338  0.2418  2.6283 -3.6202
   86MOL0     H11556   8.394  10.137   9.231 -1.4602  4.0006 -0.7328
   86MOL0     H11557   8.251  10.011   9.088  3.3084  1.5579 -0.6664
   86MOL0     H11558   8.123  10.033   9.197  0.4400 -0.4494 -0.3759
   86MOL0     H11559   8.269  10.257   9.049  0.0681 -1.5407 -2.5909
   86MOL0     H11560   8.110  10.279   9.143  1.8671 -0.0538  1.3754
   86MOL0     H11561   7.908  10.090   9.022 -2.8652  2.7782 -0.9177
   86MOL0     H11562   7.821   9.980   8.688 -0.2438  1.3549 -1.7842
   86MOL0     H11563   7.747  10.033   8.838  2.0516 -1.0715  1.7520
   86MOL0     H11564   7.776  10.194   8.576 -0.4678  0.7409  0.1103
   86MOL0     H11565   7.700  10.263   8.723 -0.1518  1.8882 -2.3862
   86MOL0     H11566   7.525  10.155   8.714 -0.7285  0.8419  0.2685
   86MOL0     H11567   7.611  10.006   8.641 -0.7739  0.4108  0.7315
   86MOL0     H11568   7.493  10.254   8.506  0.5353  0.3928 -1.2341
   86MOL0     H11569   7.451  10.083   8.488  1.2574 -0.8407 -1.3191
   86MOL0     H11570   7.467   9.966   8.276 -1.2261  0.6787  7.3246
   86MOL0     H11571   7.403   9.780   8.168  1.2365  2.7829  0.6439
   86MOL0     H11572   7.529   9.707   8.069 -2.9098 -1.7112 -0.0487
   86MOL0     H11573   7.480   9.644   8.232  1.2442 -1.1997 -0.4094
   86MOL0     H11574   8.158   9.541   8.303  1.1860 -0.7139  0.2005
   86MOL0     H11575   8.306   9.360   8.204 -1.5787 -0.9316  1.7908
   86MOL0     H11576   8.148   9.075   7.885  0.2215  0.2133 -1.0269
   86MOL0     H11577   8.208   9.223   7.801 -2.2132 -0.5627  0.1266
   86MOL0     H11578   8.308   9.045   7.718  1.3184  0.0903  0.4143
   86MOL0     H11579   8.434   9.144   7.800  1.2646 -1.1161 -0.9075
   86MOL0     H11580   8.324   8.880   7.889 -0.2436 -0.6399 -1.9977
   86MOL0     H11581   8.412   8.985   7.997 -3.1627 -2.8477  1.0009
   86MOL0     H11582   8.511   8.818   7.762 -3.1718 -0.8663  0.9470
   86MOL0     H11583   8.586   8.980   7.793  1.6765 -0.8139 -0.5738
   86MOL0     H11584   8.650   8.905   8.011  0.6696  2.0991 -2.3511
   86MOL0     H11585   8.694   8.776   7.880 -1.1185 -1.3050 -0.4933
   86MOL0     H11586   8.617   8.674   8.095  0.3739 -2.4772 -1.5428
   86MOL0     H11587   8.466   8.736   8.079 -0.3923 -0.9837  0.1503
   86MOL0     H11588   8.610   8.569   7.879  1.4217 -2.2760  2.4710
   86MOL0     H11589   8.446   8.605   7.844  1.2839  0.7217 -0.6712
   86MOL0     H11590   8.528   8.462   8.108  0.3180  0.5603 -0.3564
   86MOL0     H11591   8.487   8.374   7.952 -1.1509  0.9390 -1.7737
   86MOL0     H11592   8.025   9.296   7.892  3.1530 -1.5971 -0.9079
   86MOL0     H11593   7.870   9.460   7.996 -0.3902 -0.6428  0.8947
   86MOL0     H11594   7.922   9.820   8.375 -0.7152 -0.0026  0.5453
   86MOL0     H11595   7.849  10.049   8.446 -2.1829 -0.7259  3.8034
   86MOL0     H11596   8.879   9.874   9.700  1.4061  2.2167 -3.4822
   86MOL0     H11597   9.010   9.779   9.902  0.7978 -0.5655 -1.9743
   86MOL0     H11598   9.555   9.793  10.035  0.2744 -0.9504  0.4511
   86MOL0     H11599   9.693   9.758  10.236 -0.4733  1.6920 -0.9750
   86MOL0     H11600   9.714   9.900  10.410  1.8693 -1.8005  0.2390
   86MOL0     H11601   9.657   9.957  10.574 -0.7673  0.8516 -0.9323
   86MOL0     H11602   9.835   9.718  10.519  2.4496  1.1960  0.0432
   86MOL0     H11603   9.766   9.779  10.672  0.7832  2.2683  1.0418
   86MOL0     H11604   9.897   9.998  10.626 -0.0415  0.4566 -0.8523
   86MOL0     H11605   9.970   9.904  10.488 -1.9730 -2.9573  0.1885
   86MOL0     H11606  10.076   9.740  10.636  0.1659 -0.6086 -0.5944
   86MOL0     H11607  10.015   9.817  10.779  1.9334 -1.1597  0.4720
   86MOL0     H11608  10.332  10.073  10.686 -1.1814  1.8306  0.8256
   86MOL0     H11609   9.342   9.840  10.481  2.6431  1.8253  1.4399
   86MOL0     H11610   9.218   9.883  10.307 -0.4157 -1.4531  4.0319
   87MOL0     O11611   8.544  11.287   5.332  0.0382 -0.2716 -0.0367
   87MOL0     C11612   8.540  11.297   5.207  0.0899  0.5270  0.7628
   87MOL0     O11613   8.479  11.212   5.124 -0.1228 -0.0038  0.1066
   87MOL0     C11614   8.386  11.121   5.167 -0.2327  0.2642 -0.1598
   87MOL0     C11615   8.253  11.170   5.195  0.8199  0.0503  0.0237
   87MOL0     C11616   8.165  11.093   5.261  0.9059  0.0884 -0.4306
   87MOL0     C11617   8.202  10.961   5.297  0.1257  0.8097 -0.5424
   87MOL0     O11618   8.110  10.882   5.362 -0.1691  0.3806 -0.4317
   87MOL0     C11619   8.148  10.819   5.490 -0.5072  0.1601 -0.4701
   87MOL0     C11620   8.095  10.674   5.489  1.1947  0.4531  0.3271
   87MOL0     C11621   7.941  10.659   5.495  0.1615 -0.1672 -0.5065
   87MOL0     C11622   7.904  10.533   5.412 -0.0052 -0.2452  1.1213
   87MOL0     C11623   7.763  10.467   5.453  0.7713 -0.8724  0.3692
   87MOL0     C11624   7.696  10.352   5.365 -1.1794  0.6776  0.3011
   87MOL0     C11625   7.687  10.366   5.212  0.3022  0.3799  0.0603
   87MOL0     C11626   7.577  10.274   5.156  0.3763 -0.1223  0.2094
   87MOL0     N11627   7.594  10.140   5.207  0.1908  0.0840  0.2004
   87MOL0     C11628   7.493  10.081   5.276 -0.4971 -0.1670 -0.2409
   87MOL0     C11629   7.532   9.954   5.300 -0.1758  0.5453 -0.2177
   87MOL0     C11630   7.456   9.843   5.371  0.1784 -0.7743  0.1894
   87MOL0     C11631   7.466   9.702   5.305 -0.8027 -0.4329  0.8236
   87MOL0     C11632   7.418   9.583   5.388  0.0745  0.7635 -0.4131
   87MOL0     C11633   7.279   9.606   5.444 -0.7448 -0.3435  0.9265
   87MOL0     O11634   7.216   9.475   5.460 -0.5687 -0.3287  0.3811
   87MOL0     C11635   7.088   9.471   5.507  0.0072  0.5055 -0.6690
   87MOL0     C11636   6.996   9.572   5.532  0.6544  0.2136  0.4222
   87MOL0     C11637   6.873   9.542   5.582 -0.2572  0.5683 -0.3416
   87MOL0     C11638   6.774   9.659   5.586  0.0210 -0.4305 -0.5357
   87MOL0     C11639   6.840   9.402   5.604  0.5279 -0.1126 -0.0139
   87MOL0     C11640   6.711   9.352   5.676 -0.2478 -0.5333 -0.6958
   87MOL0     O11641   6.676   9.222   5.649 -0.3022 -0.5868  0.2764
   87MOL0     C11642   6.559   9.178   5.690 -0.0084  0.1488 -0.9498
   87MOL0     C11643   6.566   9.055   5.764  0.4326 -0.5205 -0.0923
   87MOL0     C11644   6.457   8.985   5.792  0.6825  0.5457  0.9409
   87MOL0     C11645   6.334   9.026   5.741 -0.9320  0.4027 -0.0611
   87MOL0     O11646   6.231   8.944   5.778  0.1537 -0.1458  0.1099
   87MOL0     C11647   6.098   8.980   5.741 -0.3940 -0.2057  0.0843
   87MOL0     C11648   5.990   8.887   5.799 -0.0872 -0.5160 -0.0841
   87MOL0     C11649   5.846   8.905   5.738 -0.1617  0.3086  0.2940
   87MOL0     C11650   5.779   9.035   5.776  0.8558 -0.9976 -0.3293
   87MOL0     C11651   5.634   9.019   5.718  0.3414  0.3523  0.4640
   87MOL0     C11652   5.567   9.156   5.726 -0.1014 -0.4909  0.7483
   87MOL0     C11653   5.410   9.153   5.705 -0.7675 -0.2754 -0.2237
   87MOL0     C11654   5.356   9.132   5.561  0.5174  0.3015  0.6602
   87MOL0    Cl11655   5.380   9.263   5.444  0.2704 -0.2565  0.6084
   87MOL0     C11656   6.327   9.150   5.673  0.4960 -0.6791  0.4629
   87MOL0     C11657   6.439   9.225   5.637  0.1654  0.6451 -0.1619
   87MOL0     O11658   6.643   9.434   5.738 -0.5452  0.2217 -0.5707
   87MOL0     C11659   6.938   9.304   5.574  0.4644 -0.5156 -0.4284
   87MOL0     C11660   7.057   9.337   5.529 -0.8785 -0.8700 -0.1069
   87MOL0     N11661   7.651   9.941   5.234 -0.1942  0.4335  0.4386
   87MOL0     N11662   7.697  10.048   5.183 -0.7604 -0.3270 -0.2027
   87MOL0     C11663   8.330  10.911   5.265  0.2136 -0.3424 -0.0942
   87MOL0     C11664   8.424  10.997   5.215  0.2542 -0.2904 -0.4134
   87MOL0     C11665   8.620  11.400   5.137 -0.3065  0.3678 -0.3007
   87MOL0     C11666   8.743  11.446   5.198 -0.7166  1.4393  0.0460
   87MOL0     C11667   8.817  11.544   5.144 -0.2434 -0.6781 -0.4127
   87MOL0     C11668   8.789  11.581   5.010  0.0305  0.4632  0.0518
   87MOL0     O11669   8.869  11.660   4.939 -0.3125  0.3971  0.0820
   87MOL0     C11670   8.979  11.603   4.867 -0.7004 -0.6873  0.3916
   87MOL0     C11671   8.953  11.561   4.723 -0.6601 -0.2553 -0.7968
   87MOL0     C11672   9.060  11.466   4.670  0.7326  0.5827  0.5517
   87MOL0     C11673   9.205  11.516   4.678 -0.5852 -0.5077 -0.5812
   87MOL0     C11674   9.223  11.647   4.614 -0.6629 -0.2293  0.0264
   87MOL0     C11675   9.235  11.760   4.577 -0.0212  0.0287  0.2507
   87MOL0     C11676   8.674  11.534   4.951  0.1593  0.2957  0.4709
   87MOL0     C11677   8.579  11.451   5.014 -1.0988 -0.4813  0.3545
   87MOL0     H11678   8.231  11.272   5.165  2.8138  0.5175 -0.0160
   87MOL0     H11679   8.068  11.135   5.286  1.1157  0.5275 -0.3575
   87MOL0     H11680   8.256  10.813   5.501 -0.4707 -1.7590 -1.5211
   87MOL0     H11681   8.100  10.876   5.570 -0.2621  1.8702 -1.4752
   87MOL0     H11682   8.133  10.632   5.395 -1.8719  2.2804 -1.9453
   87MOL0     H11683   8.133  10.622   5.577  1.2574 -0.1377 -0.0391
   87MOL0     H11684   7.921  10.633   5.599  2.5818  1.8498  0.5807
   87MOL0     H11685   7.899  10.756   5.465  0.1908 -0.3301 -1.0805
   87MOL0     H11686   7.906  10.568   5.309  2.6578 -0.6565  0.9803
   87MOL0     H11687   7.980  10.455   5.425  0.3470 -0.2696 -0.8192
   87MOL0     H11688   7.787  10.418   5.548 -1.1806  1.8721  2.4488
   87MOL0     H11689   7.683  10.540   5.472 -0.0635 -1.2850 -1.3663
   87MOL0     H11690   7.754  10.262   5.385 -0.2420  0.6598 -2.1005
   87MOL0     H11691   7.591  10.349   5.396 -1.5099  3.3687 -0.3035
   87MOL0     H11692   7.673  10.473   5.197 -3.2400  0.3022  1.8478
   87MOL0     H11693   7.781  10.332   5.166 -1.3245 -1.0800 -2.3939
   87MOL0     H11694   7.589  10.274   5.048  0.7315 -1.7759  0.2305
   87MOL0     H11695   7.474  10.305   5.179 -0.0335 -0.4789 -1.0778
   87MOL0     H11696   7.410  10.128   5.328  1.6809  1.6100  1.8635
   87MOL0     H11697   7.496   9.834   5.473 -0.6355 -1.1483  0.4865
   87MOL0     H11698   7.350   9.868   5.378  0.6423  1.9379 -1.2855
   87MOL0     H11699   7.571   9.677   5.287 -1.2590 -0.5285 -2.3795
   87MOL0     H11700   7.415   9.697   5.208  2.6312 -1.4522 -1.1245
   87MOL0     H11701   7.487   9.559   5.470 -0.8960  3.3888  1.3286
   87MOL0     H11702   7.425   9.499   5.319 -1.8047  1.0510 -0.9913
   87MOL0     H11703   7.223   9.674   5.379 -0.6335  1.5331  2.6883
   87MOL0     H11704   7.294   9.657   5.540  1.0215  2.7016 -0.7974
   87MOL0     H11705   7.025   9.672   5.500 -2.5421  0.7686 -1.1736
   87MOL0     H11706   6.790   9.730   5.504 -2.9729  0.9678 -0.0547
   87MOL0     H11707   6.674   9.614   5.583  1.9879 -5.3752 -2.7248
   87MOL0     H11708   6.790   9.727   5.671  0.4404 -0.4694 -0.5822
   87MOL0     H11709   6.659   9.009   5.797  0.7707 -0.9826 -1.5877
   87MOL0     H11710   6.454   8.899   5.858  1.5303  0.7703  1.2891
   87MOL0     H11711   6.086   9.088   5.756  1.5600 -0.0432  0.8283
   87MOL0     H11712   6.087   8.956   5.635  2.5377  0.4443 -0.4643
   87MOL0     H11713   6.026   8.786   5.783 -0.7858 -1.1801  2.1728
   87MOL0     H11714   5.990   8.896   5.908  2.6077  1.3996 -0.1461
   87MOL0     H11715   5.786   8.818   5.768  0.4853 -0.8032 -1.4693
   87MOL0     H11716   5.852   8.903   5.628  2.6444 -1.4403  0.3858
   87MOL0     H11717   5.778   9.048   5.884  4.7763  0.8154 -0.3311
   87MOL0     H11718   5.830   9.121   5.732 -0.7858 -0.7242 -1.8129
   87MOL0     H11719   5.588   8.935   5.771 -0.8066  1.0610  0.6409
   87MOL0     H11720   5.623   8.989   5.614 -1.2280  0.6026  0.5259
   87MOL0     H11721   5.592   9.196   5.825  2.2674 -1.0726  0.4405
   87MOL0     H11722   5.610   9.231   5.658  1.2573 -0.9684  1.0562
   87MOL0     H11723   5.381   9.254   5.733  1.5916 -0.4830  3.8166
   87MOL0     H11724   5.376   9.073   5.771 -2.7427  2.2017  1.9742
   87MOL0     H11725   5.248   9.116   5.552  0.6901  0.1716 -1.7740
   87MOL0     H11726   5.392   9.033   5.529 -0.9941 -0.5103  1.3413
   87MOL0     H11727   6.231   9.175   5.629  0.0280 -0.7518  1.4200
   87MOL0     H11728   6.429   9.317   5.580 -1.1752  0.9815  0.5908
   87MOL0     H11729   6.909   9.199   5.580  0.5023 -0.5180 -0.3019
   87MOL0     H11730   7.129   9.263   5.496  0.2918 -0.6131  1.7277
   87MOL0     H11731   8.363  10.811   5.292  0.8321 -0.4623 -1.2340
   87MOL0     H11732   8.526  10.966   5.193  0.3240 -0.3044 -0.0668
   87MOL0     H11733   8.775  11.404   5.293  0.6169 -0.0952 -1.0266
   87MOL0     H11734   8.900  11.586   5.199 -2.1148 -1.3151  3.1922
   87MOL0     H11735   9.059  11.677   4.859 -1.8684  0.5108 -0.8490
   87MOL0     H11736   9.013  11.516   4.924  0.0086 -1.1032 -0.6262
   87MOL0     H11737   8.949  11.648   4.657 -1.9362 -0.6678 -1.3083
   87MOL0     H11738   8.859  11.504   4.726  0.5082 -2.2521 -0.2919
   87MOL0     H11739   9.045  11.446   4.564  1.6197 -2.6796  0.9282
   87MOL0     H11740   9.059  11.366   4.715 -0.6331  0.3156 -0.0278
   87MOL0     H11741   9.267  11.436   4.637 -2.6787 -1.4597 -2.1138
   87MOL0     H11742   9.233  11.527   4.783 -0.4404  0.3991 -0.7059
   87MOL0     H11743   9.246  11.861   4.543 -1.0706 -0.0210 -0.2685
   87MOL0     H11744   8.654  11.562   4.848  2.3712  2.5796  0.5625
   87MOL0     H11745   8.487  11.424   4.963  0.1677 -1.5247 -1.5145
   88MOL0     O11746   2.836   0.213   8.551  0.4827  0.1006  0.9298
   88MOL0     C11747   2.889   0.105   8.574  0.3722 -0.2311 -0.7125
   88MOL0     O11748   2.840  -0.014   8.533 -0.1229 -0.0595  0.3833
   88MOL0     C11749   2.724  -0.018   8.469  0.2708 -0.2529 -0.2737
   88MOL0     C11750   2.723  -0.110   8.358 -0.2216 -0.1018 -0.0178
   88MOL0     C11751   2.613  -0.136   8.285 -0.3573  0.1065 -0.3853
   88MOL0     C11752   2.492  -0.074   8.310  0.1123 -0.3474  0.2382
   88MOL0     O11753   2.396  -0.108   8.220 -0.9022 -1.0116  0.3508
   88MOL0     C11754   2.287  -0.013   8.220 -0.4728 -0.1230 -0.2368
   88MOL0     C11755   2.201  -0.054   8.100  0.8282  0.9473 -0.5382
   88MOL0     C11756   2.092   0.049   8.085 -1.2125 -0.3131  0.5222
   88MOL0     C11757   1.997  -0.009   7.985  0.1892  0.0843  0.1794
   88MOL0     C11758   1.860   0.071   7.986 -0.1752 -0.1055  0.2871
   88MOL0     C11759   1.860   0.200   7.918 -0.1034  0.0948 -0.0290
   88MOL0     C11760   1.727   0.280   7.925  0.6133 -0.7859 -0.1554
   88MOL0     C11761   1.637   0.229   7.815  0.0945  0.8559  0.3964
   88MOL0     N11762   1.509   0.299   7.813  0.1730 -1.1553  0.0832
   88MOL0     C11763   1.425   0.329   7.918  0.4713  1.2910  0.0607
   88MOL0     C11764   1.326   0.404   7.877 -0.4724 -0.1942  0.3267
   88MOL0     C11765   1.216   0.459   7.956  1.2492  1.0209 -0.6323
   88MOL0     C11766   1.093   0.377   7.927 -0.2383 -0.5173  0.0966
   88MOL0     C11767   1.042   0.397   7.791 -0.2708  0.0415  0.8957
   88MOL0     C11768   0.901   0.336   7.779  0.0458 -0.3923  0.2018
   88MOL0     O11769   0.808   0.417   7.851 -0.4113 -0.1019  0.1402
   88MOL0     C11770   0.680   0.374   7.869 -0.3328  0.2414  0.3823
   88MOL0     C11771   0.627   0.251   7.822  0.6890 -0.6261  0.4125
   88MOL0     C11772   0.492   0.213   7.848 -0.0636 -0.3272 -0.3052
   88MOL0     C11773   0.445   0.078   7.792  0.2957 -0.0335  0.1468
   88MOL0     C11774   0.401   0.305   7.911  0.9941 -0.0296  1.2664
   88MOL0     C11775   0.249   0.288   7.918 -0.8616 -0.9916 -0.2536
   88MOL0     O11776   0.181   0.402   7.946 -0.8390 -0.3309 -0.0763
   88MOL0     C11777   0.047   0.400   7.926  0.4638 -0.9627 -0.0631
   88MOL0     C11778   0.003   0.380   7.795  0.0780  0.8291 -0.2953
   88MOL0     C11779  -0.132   0.381   7.766  0.8471  0.2420  0.9770
   88MOL0     C11780  -0.226   0.398   7.873  0.3533  0.8284  1.2368
   88MOL0     O11781  -0.367   0.398   7.850 -0.0879  1.1115 -0.6472
   88MOL0     C11782  -0.463   0.421   7.955  0.2415  0.8557  1.1935
   88MOL0     C11783  -0.597   0.434   7.886  0.0596  0.5515 -0.5892
   88MOL0     C11784  -0.615   0.566   7.822 -0.9600  0.3566 -0.4658
   88MOL0     C11785  -0.757   0.608   7.809 -0.3177  0.4985 -0.5603
   88MOL0     C11786  -0.782   0.714   7.712 -0.0612  0.3485  0.5237
   88MOL0     C11787  -0.922   0.778   7.722  0.4224 -0.0858 -0.2449
   88MOL0     C11788  -1.032   0.681   7.694  0.5053 -0.5033 -0.0509
   88MOL0     C11789  -1.155   0.744   7.643 -0.3895  0.1003 -0.1332
   88MOL0    Cl11790  -1.242   0.841   7.753  0.1801 -0.3243 -0.8916
   88MOL0     C11791  -0.181   0.435   7.998  0.0109  0.7748  0.5529
   88MOL0     C11792  -0.042   0.425   8.028  0.1507 -0.2371  0.9657
   88MOL0     O11793   0.204   0.171   7.904 -0.2443 -1.5408 -0.0627
   88MOL0     C11794   0.459   0.423   7.956 -0.3610 -0.4005 -0.0965
   88MOL0     C11795   0.589   0.467   7.939  0.4662 -0.1600  0.7121
   88MOL0     N11796   1.350   0.442   7.739  0.4889  0.4959  0.1259
   88MOL0     N11797   1.457   0.380   7.707 -0.4274 -0.2609  0.0720
   88MOL0     C11798   2.483   0.008   8.428 -0.0277  0.4130  0.5101
   88MOL0     C11799   2.599   0.038   8.506  0.4109  0.0167  1.1378
   88MOL0     C11800   3.019   0.107   8.638 -0.1413  0.2315  0.5791
   88MOL0     C11801   3.105  -0.006   8.651 -0.3604 -0.0475  0.3819
   88MOL0     C11802   3.242   0.013   8.696 -0.3788  0.0432 -0.5394
   88MOL0     C11803   3.285   0.139   8.747  0.1597 -0.4370  1.3631
   88MOL0     O11804   3.409   0.170   8.801  0.2273  0.0379  0.2966
   88MOL0     C11805   3.520   0.093   8.759  0.3020 -0.9803  0.3858
   88MOL0     C11806   3.648   0.180   8.781  0.1280  0.0151  0.1831
   88MOL0     C11807   3.709   0.158   8.925 -0.1542  0.1717 -0.1045
   88MOL0     C11808   3.765   0.297   8.986  0.8728  0.5702 -0.0048
   88MOL0     C11809   3.853   0.371   8.890 -0.5608 -1.2789  0.3772
   88MOL0     C11810   3.925   0.430   8.817 -0.5846 -0.0868 -0.0835
   88MOL0     C11811   3.188   0.240   8.756 -0.4495 -0.3231 -0.0432
   88MOL0     C11812   3.060   0.220   8.701  0.8559  0.2424 -0.6554
   88MOL0     H11813   2.820  -0.155   8.342 -0.7959 -2.0515  1.5184
   88MOL0     H11814   2.620  -0.201   8.198  0.4153  1.6507 -1.5371
   88MOL0     H11815   2.227  -0.003   8.311  0.0324  0.7878 -0.0017
   88MOL0     H11816   2.324   0.087   8.199  0.8815 -0.9622 -2.1278
   88MOL0     H11817   2.256  -0.084   8.011  2.3471  0.2475  0.6019
   88MOL0     H11818   2.148  -0.143   8.134 -0.3140  2.5404  2.1421
   88MOL0     H11819   2.051   0.080   8.182  1.4011  2.8971  0.8117
   88MOL0     H11820   2.137   0.137   8.038 -0.1028 -2.7391 -3.3801
   88MOL0     H11821   2.046   0.001   7.887  0.3753  1.7343  0.4140
   88MOL0     H11822   1.979  -0.111   8.020  0.4738  0.1949  0.6564
   88MOL0     H11823   1.786   0.009   7.936 -3.1815  3.8798 -0.6851
   88MOL0     H11824   1.832   0.091   8.090 -0.0583 -0.4293  0.3820
   88MOL0     H11825   1.944   0.256   7.961  0.4635 -2.1104  1.9572
   88MOL0     H11826   1.873   0.175   7.812 -0.6865  0.1582 -0.1192
   88MOL0     H11827   1.676   0.256   8.019  1.2737 -0.9478  0.1729
   88MOL0     H11828   1.743   0.388   7.926 -1.7121 -0.3895  0.7442
   88MOL0     H11829   1.619   0.122   7.822  1.3837  0.5578 -0.4630
   88MOL0     H11830   1.679   0.258   7.718 -3.7869 -2.4670 -2.6248
   88MOL0     H11831   1.444   0.283   8.014 -1.4179  0.6677  0.1691
   88MOL0     H11832   1.225   0.448   8.064 -1.3321  0.6175 -0.4019
   88MOL0     H11833   1.197   0.565   7.939  2.8493  1.5974  0.8788
   88MOL0     H11834   1.014   0.400   8.000 -1.9114 -1.7824 -1.2416
   88MOL0     H11835   1.118   0.271   7.932 -0.4454 -0.8791 -3.8089
   88MOL0     H11836   1.106   0.349   7.717 -0.8286  0.9923 -0.2205
   88MOL0     H11837   1.037   0.504   7.770  0.8725  0.4306  2.4042
   88MOL0     H11838   0.910   0.238   7.826  1.7912  0.2029  1.2047
   88MOL0     H11839   0.862   0.331   7.677  0.1817 -0.3470  0.1477
   88MOL0     H11840   0.698   0.187   7.770  0.2848 -0.9338  0.2239
   88MOL0     H11841   0.365   0.101   7.720  0.5855  2.0452  0.4418
   88MOL0     H11842   0.527   0.026   7.741  1.3997  1.3385  0.4629
   88MOL0     H11843   0.400   0.007   7.862 -1.1607 -1.4590 -2.0779
   88MOL0     H11844   0.070   0.379   7.710 -1.6412  1.3301 -1.7105
   88MOL0     H11845  -0.168   0.353   7.667  2.4260 -0.1187  0.4864
   88MOL0     H11846  -0.472   0.333   8.020 -3.8400 -1.0804 -1.5409
   88MOL0     H11847  -0.452   0.514   8.011  2.8511  2.1167 -1.1930
   88MOL0     H11848  -0.620   0.364   7.805 -1.6277  0.8104 -0.3703
   88MOL0     H11849  -0.675   0.422   7.960  0.5056  1.2251  0.0022
   88MOL0     H11850  -0.577   0.561   7.719  1.2619 -0.0186  0.3108
   88MOL0     H11851  -0.563   0.648   7.873 -0.8163 -0.2523  0.3793
   88MOL0     H11852  -0.808   0.520   7.768  2.2993 -0.0428 -3.0119
   88MOL0     H11853  -0.802   0.631   7.905 -1.8156 -1.4088 -0.7536
   88MOL0     H11854  -0.765   0.667   7.615 -2.3448 -0.5974  0.5450
   88MOL0     H11855  -0.711   0.794   7.738  1.0704 -0.5340  0.2144
   88MOL0     H11856  -0.948   0.813   7.822  0.7891 -2.2151  0.6653
   88MOL0     H11857  -0.921   0.866   7.657 -0.0851 -0.1309 -0.3178
   88MOL0     H11858  -1.060   0.629   7.786  2.1209 -2.2591 -0.4790
   88MOL0     H11859  -1.007   0.616   7.609 -1.1384  1.2095 -1.9209
   88MOL0     H11860  -1.217   0.661   7.609 -0.4546 -0.9001  2.2006
   88MOL0     H11861  -1.135   0.814   7.562  0.8996 -1.8895 -1.6278
   88MOL0     H11862  -0.244   0.438   8.087  0.3289  0.0365  0.8151
   88MOL0     H11863   0.004   0.442   8.124  0.1638 -1.5340  1.2048
   88MOL0     H11864   0.388   0.489   8.005 -0.1394 -1.8369  2.3000
   88MOL0     H11865   0.612   0.568   7.970 -5.5024  1.8682 -0.2092
   88MOL0     H11866   2.383   0.036   8.458 -2.0095 -3.1055 -2.0776
   88MOL0     H11867   2.585   0.100   8.594 -1.9673  0.0488  0.8136
   88MOL0     H11868   3.086  -0.102   8.604 -2.7011  2.5747 -5.0035
   88MOL0     H11869   3.286  -0.086   8.694 -3.6755 -1.5423 -1.9963
   88MOL0     H11870   3.520   0.000   8.817 -0.5486 -0.5358  1.1118
   88MOL0     H11871   3.509   0.076   8.651 -1.5657  2.5275 -0.1077
   88MOL0     H11872   3.633   0.286   8.760  0.2740  0.2284  1.0977
   88MOL0     H11873   3.724   0.149   8.709  3.5725  1.2166  2.9794
   88MOL0     H11874   3.795   0.091   8.919  1.7928  2.4623  0.7686
   88MOL0     H11875   3.635   0.103   8.984  0.9509 -1.8791 -0.5382
   88MOL0     H11876   3.819   0.275   9.079 -2.3101  1.2702  2.1906
   88MOL0     H11877   3.684   0.357   9.029  0.1504 -0.4123  0.0303
   88MOL0     H11878   3.978   0.497   8.751 -0.4753 -1.4873 -1.4773
   88MOL0     H11879   3.223   0.329   8.808 -0.5664  0.7188 -1.6971
   88MOL0     H11880   2.983   0.295   8.712 -0.2978 -0.8673 -0.9862
   89MOL0     O11881   4.948   2.400   2.989 -0.0789 -0.1000  0.0073
   89MOL0     C11882   4.977   2.280   3.004  0.1838  0.0352  0.7563
   89MOL0     O11883   4.882   2.171   3.001 -0.2184  0.1543  0.9197
   89MOL0     C11884   4.754   2.189   2.978  0.5631 -0.2095  0.5561
   89MOL0     C11885   4.674   2.284   3.045  1.1145  0.4783  0.0701
   89MOL0     C11886   4.540   2.315   3.000 -0.1106  0.1174  0.3409
   89MOL0     C11887   4.483   2.235   2.907  0.5255  0.3602  0.3520
   89MOL0     O11888   4.355   2.253   2.868  0.3130 -0.2587 -0.1663
   89MOL0     C11889   4.337   2.328   2.747  0.5172  1.2862  0.5629
   89MOL0     C11890   4.191   2.381   2.746 -0.3919  0.6492 -0.3013
   89MOL0     C11891   4.174   2.457   2.615 -0.6135  0.6477  0.0472
   89MOL0     C11892   4.024   2.478   2.579 -0.5636  0.6932  0.0130
   89MOL0     C11893   3.960   2.579   2.673  1.5244 -0.4941 -0.2688
   89MOL0     C11894   4.024   2.720   2.660 -0.3736  0.5452 -0.5961
   89MOL0     C11895   3.939   2.825   2.729 -0.9871 -0.8958  0.6834
   89MOL0     C11896   3.986   2.971   2.703 -0.3725  0.1070 -0.0846
   89MOL0     N11897   4.133   2.991   2.709 -0.8057 -0.3962 -0.2684
   89MOL0     C11898   4.219   2.977   2.608  0.0397 -0.4764 -1.2031
   89MOL0     C11899   4.338   3.005   2.664  0.5720  0.2261 -0.2199
   89MOL0     C11900   4.467   3.001   2.582 -0.6651  0.3129 -0.2058
   89MOL0     C11901   4.543   3.137   2.575 -0.2114 -0.1861  0.1877
   89MOL0     C11902   4.523   3.222   2.448 -0.0009 -0.3162  0.2471
   89MOL0     C11903   4.372   3.243   2.418 -0.5532 -0.5819  0.3288
   89MOL0     O11904   4.328   3.328   2.521  0.1454  0.0542 -0.1765
   89MOL0     C11905   4.208   3.367   2.547 -0.7299  0.2244  0.7304
   89MOL0     C11906   4.192   3.471   2.640  0.9668 -0.2113  0.3514
   89MOL0     C11907   4.065   3.527   2.668  0.1576 -0.2067 -0.0921
   89MOL0     C11908   4.070   3.645   2.767  0.1143  0.2980  0.3655
   89MOL0     C11909   3.949   3.481   2.602  0.2470 -0.7665  0.4752
   89MOL0     C11910   3.808   3.536   2.620 -0.3649  0.8216 -0.2404
   89MOL0     O11911   3.693   3.487   2.557  0.6216  0.7165  0.0434
   89MOL0     C11912   3.561   3.517   2.588  0.6515 -1.0684  0.2265
   89MOL0     C11913   3.502   3.638   2.547  0.5824 -0.6477 -1.0048
   89MOL0     C11914   3.370   3.656   2.575  0.5360  0.2038  0.1542
   89MOL0     C11915   3.282   3.559   2.633 -1.0749  0.0824  0.3116
   89MOL0     O11916   3.147   3.584   2.632  0.1030 -0.0126 -0.7722
   89MOL0     C11917   3.052   3.497   2.696 -0.8365  0.1516 -0.6881
   89MOL0     C11918   2.937   3.588   2.742 -0.0306  0.7586 -0.4539
   89MOL0     C11919   2.803   3.519   2.785 -0.7208 -0.1032  0.7045
   89MOL0     C11920   2.700   3.625   2.791  0.4207 -0.3435 -0.0973
   89MOL0     C11921   2.568   3.579   2.836 -1.1254  0.5407 -0.4412
   89MOL0     C11922   2.470   3.694   2.813 -0.5853 -0.0957 -0.3839
   89MOL0     C11923   2.323   3.681   2.876  0.4798  0.3514  1.4024
   89MOL0     C11924   2.255   3.818   2.882  0.3665  0.0328 -0.4037
   89MOL0    Cl11925   2.217   3.900   2.726 -0.2677  0.1037  0.6633
   89MOL0     C11926   3.341   3.440   2.667 -0.0381 -0.4194 -0.5468
   89MOL0     C11927   3.479   3.420   2.645  1.4756 -0.5248  0.1641
   89MOL0     O11928   3.807   3.642   2.675  0.6437 -0.0416 -0.0798
   89MOL0     C11929   3.963   3.374   2.507  0.4321 -0.6391  0.0754
   89MOL0     C11930   4.090   3.322   2.473 -0.7961 -0.5018  0.1514
   89MOL0     N11931   4.327   3.032   2.794 -0.6925  0.6527 -0.1631
   89MOL0     N11932   4.201   3.027   2.824 -0.4502 -0.2834  0.1333
   89MOL0     C11933   4.557   2.130   2.852 -0.8605  0.2918 -0.0765
   89MOL0     C11934   4.696   2.100   2.885 -0.1403  0.3629  0.2270
   89MOL0     C11935   5.117   2.244   3.039  0.3368 -0.2933 -0.5664
   89MOL0     C11936   5.203   2.347   3.062 -0.2502  0.1387 -1.2524
   89MOL0     C11937   5.344   2.323   3.076  0.7052 -0.4070 -0.2608
   89MOL0     C11938   5.389   2.190   3.081 -1.0319 -0.7325  0.3811
   89MOL0     O11939   5.526   2.190   3.088 -0.3481  0.8073  0.5743
   89MOL0     C11940   5.585   2.071   3.033 -0.4566 -0.5764 -0.2964
   89MOL0     C11941   5.615   1.970   3.141 -0.0844  0.2220  0.8621
   89MOL0     C11942   5.745   1.983   3.217 -0.0673 -0.3509 -0.8595
   89MOL0     C11943   5.860   1.935   3.134 -0.8861  0.3966  0.3140
   89MOL0     C11944   5.987   1.950   3.211  0.7856  0.0609  0.6287
   89MOL0     C11945   6.089   1.964   3.274 -0.4468 -0.1286 -0.1192
   89MOL0     C11946   5.300   2.080   3.069  0.2574 -0.2795 -1.1654
   89MOL0     C11947   5.160   2.110   3.049 -0.1129 -0.3525  0.6069
   89MOL0     H11948   4.714   2.341   3.128  2.1623 -2.4097  1.6701
   89MOL0     H11949   4.479   2.398   3.034 -0.7279 -0.9613  1.9946
   89MOL0     H11950   4.399   2.418   2.737 -0.0341  1.6650  0.4809
   89MOL0     H11951   4.354   2.260   2.663 -0.6543  0.6713  0.8008
   89MOL0     H11952   4.119   2.300   2.760  1.8351 -1.1835  1.1915
   89MOL0     H11953   4.165   2.452   2.825 -0.4356  2.0081 -1.4735
   89MOL0     H11954   4.227   2.553   2.615 -1.3066  1.1078 -2.3926
   89MOL0     H11955   4.224   2.401   2.536 -1.3240  0.5172 -0.3213
   89MOL0     H11956   4.024   2.518   2.477  0.7873  2.8257  0.7797
   89MOL0     H11957   3.967   2.386   2.596  2.0079 -0.6433  2.1244
   89MOL0     H11958   3.855   2.589   2.647  1.1750 -0.6560  1.0336
   89MOL0     H11959   3.957   2.540   2.775 -1.3062 -0.3712 -0.2264
   89MOL0     H11960   4.126   2.721   2.699 -1.0688  2.7741  1.3944
   89MOL0     H11961   4.032   2.746   2.554  1.8259  0.1759 -0.5585
   89MOL0     H11962   3.833   2.817   2.704 -0.6585 -1.6943 -0.5735
   89MOL0     H11963   3.949   2.807   2.837  1.2098 -1.3223  0.4622
   89MOL0     H11964   3.945   3.019   2.793 -0.5326 -0.6268  0.2467
   89MOL0     H11965   3.942   3.010   2.611  0.3175 -1.7782 -1.2665
   89MOL0     H11966   4.183   2.948   2.510 -4.1677 -0.1400  0.0710
   89MOL0     H11967   4.538   2.928   2.623 -1.1180 -0.7683 -1.2707
   89MOL0     H11968   4.443   2.972   2.479 -0.0197  0.9099 -0.5384
   89MOL0     H11969   4.651   3.121   2.587 -0.5802 -2.3542  1.0230
   89MOL0     H11970   4.505   3.197   2.658  2.0320 -0.3488  1.4253
   89MOL0     H11971   4.572   3.165   2.369  1.5175 -3.0896  2.9674
   89MOL0     H11972   4.582   3.313   2.439  1.9335 -1.5182  0.2419
   89MOL0     H11973   4.314   3.150   2.421 -0.2487 -0.7546  3.1208
   89MOL0     H11974   4.370   3.282   2.315 -0.4477 -0.9305  0.1932
   89MOL0     H11975   4.275   3.503   2.702 -0.1531  1.3541  1.1020
   89MOL0     H11976   4.059   3.748   2.734  0.3658  1.4162  3.4566
   89MOL0     H11977   3.992   3.626   2.842 -3.0397 -0.1303 -2.7879
   89MOL0     H11978   4.163   3.631   2.823  0.8512  0.2373 -0.8571
   89MOL0     H11979   3.557   3.724   2.510 -1.8567  1.8246  0.7295
   89MOL0     H11980   3.332   3.741   2.520  1.5129 -0.7757 -2.1602
   89MOL0     H11981   3.024   3.420   2.624 -0.9815 -0.6092  0.1535
   89MOL0     H11982   3.101   3.461   2.787  0.5467  1.5769 -0.8242
   89MOL0     H11983   2.970   3.638   2.833  0.1130  0.6565 -0.4491
   89MOL0     H11984   2.907   3.652   2.658 -0.8850  0.7084 -0.1986
   89MOL0     H11985   2.815   3.468   2.881 -0.5625 -1.2255  0.1094
   89MOL0     H11986   2.777   3.441   2.712 -0.2852  1.7895 -1.5909
   89MOL0     H11987   2.734   3.701   2.863  0.5745 -1.9638  1.6098
   89MOL0     H11988   2.682   3.671   2.694 -1.7446 -2.5433 -0.8359
   89MOL0     H11989   2.567   3.550   2.942 -0.6326  0.1286 -0.5437
   89MOL0     H11990   2.532   3.492   2.780 -1.3458  0.3541 -0.0151
   89MOL0     H11991   2.511   3.788   2.850  2.7641 -1.6382  0.2116
   89MOL0     H11992   2.452   3.703   2.705 -1.7778 -1.6129 -0.3462
   89MOL0     H11993   2.332   3.632   2.973 -0.5530 -2.0765  0.3631
   89MOL0     H11994   2.262   3.616   2.812  2.0951 -0.3247  0.4985
   89MOL0     H11995   2.310   3.884   2.950 -1.2059  1.2860 -0.2624
   89MOL0     H11996   2.160   3.802   2.934  0.5340 -1.1603 -0.4390
   89MOL0     H11997   3.279   3.358   2.702  2.3991 -1.9214  0.5315
   89MOL0     H11998   3.528   3.328   2.675  1.3880 -0.7510 -0.3825
   89MOL0     H11999   3.873   3.334   2.462  0.1660  0.7235 -0.6503
   89MOL0     H12000   4.092   3.240   2.402 -0.4653  0.3836 -0.8918
   89MOL0     H12001   4.509   2.061   2.783  0.0177 -0.0023 -0.4137
   89MOL0     H12002   4.747   2.023   2.829 -2.6271 -0.5817 -0.9179
   89MOL0     H12003   5.172   2.450   3.046  4.1393  2.6063  3.1650
   89MOL0     H12004   5.418   2.402   3.070  2.2964 -1.8192  0.3229
   89MOL0     H12005   5.524   2.032   2.952  0.5949 -0.2347 -1.2952
   89MOL0     H12006   5.673   2.092   2.971 -2.2055 -1.9669 -3.5317
   89MOL0     H12007   5.625   1.873   3.090  2.0737  2.0722 -2.7075
   89MOL0     H12008   5.533   1.958   3.211 -1.1374  0.5030 -0.2854
   89MOL0     H12009   5.734   1.925   3.309  0.1708  0.4387 -0.3214
   89MOL0     H12010   5.751   2.087   3.252 -1.3863 -0.4735 -0.1927
   89MOL0     H12011   5.871   1.993   3.041 -1.5672  0.5328  0.3159
   89MOL0     H12012   5.851   1.829   3.111  1.8757  0.3998 -1.2480
   89MOL0     H12013   6.185   1.981   3.319  0.4414  1.3789 -2.4301
   89MOL0     H12014   5.330   1.976   3.069  0.0587 -0.3476 -0.2553
   89MOL0     H12015   5.087   2.030   3.039 -1.7045  1.3246 -3.0409
   90MOL0     O12016   9.560   9.239  10.847 -1.0386 -0.2457  0.1136
   90MOL0     C12017   9.575   9.361  10.839 -0.3303  0.5021 -1.3078
   90MOL0     O12018   9.495   9.443  10.774 -0.1346  0.2765 -0.5167
   90MOL0     C12019   9.373   9.409  10.722 -0.0305  0.3019  0.3278
   90MOL0     C12020   9.333   9.481  10.606 -0.2047  0.3922  0.0563
   90MOL0     C12021   9.217   9.439  10.543 -0.0649 -0.7023  0.8687
   90MOL0     C12022   9.129   9.347  10.598 -0.9092  0.4944 -0.2752
   90MOL0     O12023   9.007   9.318  10.552 -0.1932  0.1484 -0.5081
   90MOL0     C12024   8.929   9.419  10.486 -0.5987 -0.2865 -1.2569
   90MOL0     C12025   8.779   9.418  10.528  0.3998  0.0580  0.3804
   90MOL0     C12026   8.742   9.492  10.664  0.3986  0.2475 -0.1052
   90MOL0     C12027   8.720   9.397  10.782  0.1510 -0.2928  0.5431
   90MOL0     C12028   8.591   9.317  10.766 -0.1419  0.4995 -0.4060
   90MOL0     C12029   8.594   9.221  10.893  0.4273 -0.0450  0.1488
   90MOL0     C12030   8.463   9.150  10.915  0.1606 -0.5312 -0.2399
   90MOL0     C12031   8.374   9.247  10.986  0.3558 -0.9217 -0.1942
   90MOL0     N12032   8.400   9.254  11.131 -0.6698  0.4442  0.4348
   90MOL0     C12033   8.303   9.237  11.229  0.5421 -0.2212 -0.3431
   90MOL0     C12034   8.362   9.277  11.344  0.0214 -0.1896 -0.1817
   90MOL0     C12035   8.297   9.309  11.472  0.0080  0.1661  0.6138
   90MOL0     C12036   8.271   9.455  11.467 -0.0133  0.7592  0.6982
   90MOL0     C12037   8.185   9.503  11.586 -0.7307 -0.6949  0.4860
   90MOL0     C12038   8.265   9.520  11.714 -0.1691 -0.0697  0.3375
   90MOL0     O12039   8.271   9.398  11.792 -0.4441 -0.0137 -0.0198
   90MOL0     C12040   8.162   9.359  11.865 -0.5835  0.8052  0.4276
   90MOL0     C12041   8.183   9.240  11.940 -0.2596  0.1964  0.0871
   90MOL0     C12042   8.094   9.187  12.030 -0.3035 -1.3626 -0.0880
   90MOL0     C12043   8.120   9.052  12.080 -0.0142  0.9746 -0.5968
   90MOL0     C12044   7.974   9.259  12.062  0.4066  0.3785  0.1630
   90MOL0     C12045   7.861   9.211  12.155  0.3757  0.0830 -0.1757
   90MOL0     O12046   7.880   9.109  12.243 -0.2690 -0.1399 -0.6294
   90MOL0     C12047   7.774   9.047  12.302  0.6488 -0.7432  0.2764
   90MOL0     C12048   7.693   9.115  12.398  0.1583 -0.0997 -0.0047
   90MOL0     C12049   7.573   9.057  12.444  0.0502 -0.2027 -0.0351
   90MOL0     C12050   7.532   8.940  12.390 -0.4389  0.3557  0.6028
   90MOL0     O12051   7.416   8.887  12.436  0.8146  0.0782 -0.2095
   90MOL0     C12052   7.380   8.751  12.415 -0.1836 -0.0530  0.4326
   90MOL0     C12053   7.245   8.721  12.492 -0.4210  0.3803  0.0770
   90MOL0     C12054   7.265   8.753  12.642  0.7963 -0.0300 -0.0315
   90MOL0     C12055   7.124   8.729  12.715 -0.4124  0.7278 -0.1701
   90MOL0     C12056   7.024   8.831  12.672 -0.2589 -0.6437 -0.5097
   90MOL0     C12057   6.912   8.834  12.782  0.1232 -0.3102  0.2753
   90MOL0     C12058   6.785   8.899  12.727  0.0028  0.3361 -0.0182
   90MOL0     C12059   6.672   8.879  12.834  0.0986  0.0670  0.1024
   90MOL0    Cl12060   6.711   9.003  12.968 -0.0395  0.1564  0.3909
   90MOL0     C12061   7.607   8.875  12.292 -0.6230  0.7693  0.3354
   90MOL0     C12062   7.731   8.922  12.257  0.8258 -0.3547  0.1726
   90MOL0     O12063   7.754   9.273  12.150  0.6923  0.0120  0.2464
   90MOL0     C12064   7.954   9.377  11.989 -0.0379  0.6551 -1.3362
   90MOL0     C12065   8.046   9.427  11.894  0.1907 -0.2450 -0.4153
   90MOL0     N12066   8.494   9.301  11.319 -0.7132  0.0559 -0.5857
   90MOL0     N12067   8.521   9.274  11.198  0.4406 -0.6844 -0.3004
   90MOL0     C12068   9.159   9.304  10.731 -0.2056 -0.1894  1.0846
   90MOL0     C12069   9.282   9.327  10.790 -0.5998 -0.4930  0.1601
   90MOL0     C12070   9.682   9.415  10.918  0.0233  0.1097 -0.6227
   90MOL0     C12071   9.696   9.548  10.936  1.4407 -0.4460  0.0505
   90MOL0     C12072   9.792   9.612  11.018 -0.0683 -0.0962  0.4426
   90MOL0     C12073   9.871   9.537  11.094 -0.4164  0.5566 -0.2324
   90MOL0     O12074   9.972   9.579  11.176 -0.4724 -0.0577 -1.1447
   90MOL0     C12075   9.984   9.716  11.209  0.0204  0.6597  0.0750
   90MOL0     C12076  10.067   9.793  11.107 -0.1092  0.0246 -0.7044
   90MOL0     C12077  10.218   9.756  11.116 -0.8411 -0.2429 -0.2398
   90MOL0     C12078  10.291   9.831  10.997 -0.3852  0.4965  0.2401
   90MOL0     C12079  10.291   9.982  11.014  0.4133  1.2277  0.3641
   90MOL0     C12080  10.276  10.099  11.031  0.9358 -0.2279 -0.0170
   90MOL0     C12081   9.850   9.395  11.088 -0.6018 -0.1331  0.5656
   90MOL0     C12082   9.756   9.337  11.005  0.8961  0.5196  0.3246
   90MOL0     H12083   9.397   9.553  10.556 -0.1745 -0.3038 -0.9385
   90MOL0     H12084   9.209   9.473  10.440  5.4305  1.7987  0.9082
   90MOL0     H12085   8.976   9.514  10.515 -0.2522 -0.8526  0.1312
   90MOL0     H12086   8.941   9.420  10.378 -0.4354 -1.0912 -1.2499
   90MOL0     H12087   8.716   9.468  10.454 -0.6646 -1.3941  0.2520
   90MOL0     H12088   8.745   9.314  10.523  0.4763  0.0928 -2.8457
   90MOL0     H12089   8.811   9.573  10.689  0.5371 -0.1372  0.8200
   90MOL0     H12090   8.653   9.555  10.656  0.1943  0.0516  0.5370
   90MOL0     H12091   8.801   9.324  10.782 -0.0148 -0.4798 -0.1344
   90MOL0     H12092   8.721   9.460  10.872 -1.2795  0.7042 -0.0909
   90MOL0     H12093   8.501   9.378  10.758 -0.0898  0.6611  0.1734
   90MOL0     H12094   8.582   9.258  10.675 -2.3107 -0.9109  0.6503
   90MOL0     H12095   8.672   9.146  10.884  0.9618  0.5039  0.1449
   90MOL0     H12096   8.622   9.278  10.982 -2.0891 -1.1540  1.7488
   90MOL0     H12097   8.416   9.119  10.822  0.9895 -1.3276 -0.4168
   90MOL0     H12098   8.476   9.062  10.978  0.0058 -1.2674 -1.2177
   90MOL0     H12099   8.270   9.219  10.972  0.1509  0.0792 -0.8342
   90MOL0     H12100   8.383   9.348  10.946 -0.5285 -0.9716 -0.5296
   90MOL0     H12101   8.200   9.211  11.205  0.3366  2.1328 -2.3333
   90MOL0     H12102   8.205   9.251  11.471  0.0755  0.0571  0.7680
   90MOL0     H12103   8.360   9.280  11.557  2.1428 -2.1688 -1.5762
   90MOL0     H12104   8.228   9.478  11.369  1.0399 -2.0114 -0.5160
   90MOL0     H12105   8.370   9.500  11.459 -0.3911  1.6182  0.7763
   90MOL0     H12106   8.107   9.430  11.610  0.0688 -1.0927  2.0337
   90MOL0     H12107   8.148   9.598  11.548 -0.3239 -1.0012 -0.7251
   90MOL0     H12108   8.229   9.610  11.766 -2.0612  1.5720 -3.4480
   90MOL0     H12109   8.372   9.536  11.696 -0.0760  1.1347  1.7154
   90MOL0     H12110   8.265   9.172  11.915 -2.7569 -2.5649 -1.2346
   90MOL0     H12111   8.182   8.994  12.011  2.6433  0.3995  2.0675
   90MOL0     H12112   8.168   9.042  12.178  1.4726 -1.1293 -1.4766
   90MOL0     H12113   8.023   9.002  12.085  0.6758 -0.6671 -2.3996
   90MOL0     H12114   7.708   9.218  12.426 -0.3751  0.3273 -1.1925
   90MOL0     H12115   7.510   9.115  12.511  2.7898 -0.6862  3.2254
   90MOL0     H12116   7.371   8.713  12.313 -2.5055 -2.2649  1.3292
   90MOL0     H12117   7.455   8.688  12.463 -0.4201  0.5832  1.6897
   90MOL0     H12118   7.153   8.767  12.454 -0.7297 -0.5957 -0.4050
   90MOL0     H12119   7.229   8.614  12.480  1.4779  0.0956 -0.2596
   90MOL0     H12120   7.287   8.858  12.663 -0.7868  0.0175  1.7112
   90MOL0     H12121   7.337   8.688  12.692 -0.5150  0.7989  3.2613
   90MOL0     H12122   7.095   8.624  12.702 -0.0521  0.4937  0.8579
   90MOL0     H12123   7.144   8.742  12.822 -1.2830 -0.2454  0.1262
   90MOL0     H12124   6.996   8.799  12.571 -1.2979  0.5453 -0.6230
   90MOL0     H12125   7.057   8.935  12.669 -2.8956  0.2703 -0.4544
   90MOL0     H12126   6.894   8.733  12.818  0.7776 -0.9060 -1.0031
   90MOL0     H12127   6.944   8.900  12.862 -2.7498 -1.3960  2.4986
   90MOL0     H12128   6.755   8.850  12.634  0.2934 -0.3785  0.2512
   90MOL0     H12129   6.795   9.006  12.708 -3.5759  0.7004 -0.5006
   90MOL0     H12130   6.667   8.780  12.881 -2.9357  0.5545  1.0157
   90MOL0     H12131   6.576   8.899  12.786  0.9486 -0.0025 -1.7272
   90MOL0     H12132   7.567   8.783  12.251  2.0500  0.4668 -1.8991
   90MOL0     H12133   7.802   8.880  12.187  2.1751  1.0150  0.6752
   90MOL0     H12134   7.859   9.427  12.007  0.3092  0.4401  1.5117
   90MOL0     H12135   8.030   9.519  11.839 -1.2456 -0.2217  0.0166
   90MOL0     H12136   9.086   9.249  10.789  0.5349  0.2230  2.4293
   90MOL0     H12137   9.297   9.292  10.891  0.2950 -0.8387 -0.0826
   90MOL0     H12138   9.629   9.613  10.880 -0.6204 -1.3749  1.3001
   90MOL0     H12139   9.807   9.719  11.020  1.1836 -0.2315 -0.4824
   90MOL0     H12140   9.884   9.758  11.220 -0.9305  0.4475 -5.2401
   90MOL0     H12141  10.030   9.729  11.308 -1.5534 -0.2504  0.9628
   90MOL0     H12142  10.074   9.899  11.129  2.6681 -0.4416  1.1510
   90MOL0     H12143  10.034   9.772  11.005 -0.1470 -0.8442 -0.5266
   90MOL0     H12144  10.231   9.648  11.102 -0.4508 -0.3172  0.6308
   90MOL0     H12145  10.269   9.791  11.207  3.3232  2.3972 -3.2136
   90MOL0     H12146  10.243   9.794  10.905 -0.9524 -0.3968  0.8785
   90MOL0     H12147  10.399   9.823  10.981 -0.5152  3.7168 -4.1079
   90MOL0     H12148  10.268  10.205  11.046 -3.2863 -0.3547 -0.1478
   90MOL0     H12149   9.924   9.337  11.142 -0.7437 -2.3120 -1.4454
   90MOL0     H12150   9.727   9.232  11.009  0.2668  0.6843  3.9813
   91MOL0     O12151   6.791   5.778   1.446  0.2161 -0.1925  0.0914
   91MOL0     C12152   6.822   5.789   1.333 -0.9176 -0.3527  0.0225
   91MOL0     O12153   6.737   5.815   1.232  0.7429  0.2631 -0.1357
   91MOL0     C12154   6.603   5.836   1.253 -0.4316  0.0691 -0.7589
   91MOL0     C12155   6.521   5.753   1.196 -0.1327  0.1742 -0.1366
   91MOL0     C12156   6.381   5.771   1.200  0.3985 -0.2842 -0.0663
   91MOL0     C12157   6.323   5.886   1.268  0.0500 -0.0832 -0.1687
   91MOL0     O12158   6.190   5.920   1.259 -0.0370  0.3852 -0.7366
   91MOL0     C12159   6.101   5.811   1.239  0.9176  0.4749 -0.2240
   91MOL0     C12160   5.952   5.853   1.276  0.1997  1.0398 -0.3525
   91MOL0     C12161   5.878   5.941   1.168  0.6351  0.4306 -0.6231
   91MOL0     C12162   5.724   5.961   1.206 -0.5581  0.1874 -0.0637
   91MOL0     C12163   5.649   5.977   1.069 -0.1606 -0.4049 -0.0958
   91MOL0     C12164   5.614   5.838   1.008  0.0869 -0.5310 -0.7847
   91MOL0     C12165   5.475   5.793   1.044 -0.0908 -1.1243  0.0892
   91MOL0     C12166   5.354   5.871   0.994  0.0923  0.3801  0.1400
   91MOL0     N12167   5.342   5.858   0.852  0.4667 -0.8201  0.4462
   91MOL0     C12168   5.393   5.939   0.748  0.6424  0.9743  0.2224
   91MOL0     C12169   5.330   5.882   0.639  0.1081 -0.0168 -0.3343
   91MOL0     C12170   5.334   5.932   0.489  0.1453  0.2742  0.5500
   91MOL0     C12171   5.228   6.041   0.482 -0.5403  0.5596 -0.0186
   91MOL0     C12172   5.224   6.089   0.340 -0.0283 -0.3748 -0.3611
   91MOL0     C12173   5.132   6.218   0.321 -0.6869  0.4141 -0.0846
   91MOL0     O12174   5.002   6.158   0.322  0.2818  0.0840  0.5260
   91MOL0     C12175   4.891   6.234   0.345 -0.2140 -0.3345  0.2928
   91MOL0     C12176   4.883   6.369   0.314  0.0070 -0.9203 -0.4410
   91MOL0     C12177   4.753   6.434   0.322 -0.2695  0.0651 -0.0089
   91MOL0     C12178   4.756   6.584   0.281 -0.1337  0.6171 -0.4932
   91MOL0     C12179   4.637   6.358   0.367  0.1982 -0.8467 -0.0556
   91MOL0     C12180   4.501   6.420   0.390 -0.2953  0.3809  0.4083
   91MOL0     O12181   4.475   6.554   0.405  0.4931 -0.5298  0.0153
   91MOL0     C12182   4.343   6.607   0.375 -1.1280  0.4346  0.5998
   91MOL0     C12183   4.228   6.573   0.437 -0.0192  0.4409 -0.8881
   91MOL0     C12184   4.101   6.609   0.392  0.7785  0.8850  0.4049
   91MOL0     C12185   4.094   6.692   0.278 -0.0401  0.6070 -0.0873
   91MOL0     O12186   3.974   6.745   0.235  0.0243 -0.2360  1.0816
   91MOL0     C12187   3.863   6.740   0.326  0.2801 -0.2268 -0.6479
   91MOL0     C12188   3.775   6.863   0.287 -0.2709  0.6593 -0.0177
   91MOL0     C12189   3.658   6.868   0.387 -0.3613  1.4348  0.0894
   91MOL0     C12190   3.682   6.972   0.499  0.1312  0.1906 -0.1424
   91MOL0     C12191   3.554   7.046   0.547  0.7168 -0.9974 -0.7810
   91MOL0     C12192   3.572   7.119   0.679  0.6077  0.8936 -0.6044
   91MOL0     C12193   3.432   7.176   0.722  0.5021  0.8678 -0.7906
   91MOL0     C12194   3.441   7.284   0.832  0.0190  0.6646 -0.3544
   91MOL0    Cl12195   3.486   7.213   0.990 -0.0086 -0.2030 -0.2139
   91MOL0     C12196   4.209   6.726   0.216  0.8804  0.7035  0.3849
   91MOL0     C12197   4.334   6.680   0.258  0.8650  0.1736  0.5987
   91MOL0     O12198   4.411   6.335   0.383 -0.2195  0.3921  0.4297
   91MOL0     C12199   4.661   6.224   0.409  0.3731 -0.1925 -0.2213
   91MOL0     C12200   4.786   6.166   0.397  0.5798 -0.4503  0.3162
   91MOL0     N12201   5.256   5.774   0.675 -0.2600  1.2851 -0.0322
   91MOL0     N12202   5.266   5.748   0.798 -0.1247 -0.2847  0.3742
   91MOL0     C12203   6.415   5.982   1.314  0.0462 -0.3327 -0.3174
   91MOL0     C12204   6.553   5.956   1.314  0.1564 -0.7539  0.3231
   91MOL0     C12205   6.969   5.769   1.294 -0.5823 -0.5695 -0.1252
   91MOL0     C12206   7.079   5.778   1.388 -0.7291 -0.0560  0.9342
   91MOL0     C12207   7.217   5.776   1.341  0.3042 -0.9403 -0.4357
   91MOL0     C12208   7.233   5.774   1.200 -0.0406 -0.2485 -0.6063
   91MOL0     O12209   7.356   5.761   1.143  0.0602  0.2776 -0.7179
   91MOL0     C12210   7.380   5.630   1.088 -0.3368  0.8456  0.1628
   91MOL0     C12211   7.388   5.643   0.938 -1.3384  0.4099 -0.7855
   91MOL0     C12212   7.488   5.754   0.887  0.1257  0.5201 -0.9853
   91MOL0     C12213   7.534   5.721   0.750  0.2981  0.4157  0.5333
   91MOL0     C12214   7.642   5.616   0.764 -0.3182  0.7293 -0.5846
   91MOL0     C12215   7.711   5.522   0.766 -0.1376 -0.5870 -0.0729
   91MOL0     C12216   7.124   5.757   1.112 -0.3094  0.1202 -0.1514
   91MOL0     C12217   6.995   5.747   1.158  0.0735  0.4197 -0.0724
   91MOL0     H12218   6.552   5.660   1.149  3.4750 -0.6206  3.2951
   91MOL0     H12219   6.327   5.688   1.156  2.6008 -1.8935  0.1187
   91MOL0     H12220   6.096   5.754   1.146 -2.4098 -1.3089  0.8755
   91MOL0     H12221   6.131   5.730   1.307  1.1686 -1.5307 -2.5889
   91MOL0     H12222   5.902   5.759   1.301  3.2594 -0.4194  0.7787
   91MOL0     H12223   5.946   5.917   1.364  1.1307  1.9467 -0.9341
   91MOL0     H12224   5.924   6.039   1.179  2.8645 -0.7307  1.2838
   91MOL0     H12225   5.894   5.893   1.071  3.1464 -2.3115  0.9895
   91MOL0     H12226   5.680   5.884   1.269  0.8038  0.9022  1.8408
   91MOL0     H12227   5.719   6.055   1.262 -3.2406 -1.2449  2.3414
   91MOL0     H12228   5.564   6.043   1.086 -0.3776 -0.6426 -0.2555
   91MOL0     H12229   5.702   6.036   0.993 -3.1076  0.5449 -1.5660
   91MOL0     H12230   5.613   5.836   0.898 -1.6651 -0.0893 -0.8042
   91MOL0     H12231   5.688   5.771   1.053 -0.6763 -0.1221  1.1744
   91MOL0     H12232   5.467   5.691   1.004  2.1566 -1.4870  0.3953
   91MOL0     H12233   5.469   5.794   1.154 -0.5181  0.9638  0.0871
   91MOL0     H12234   5.375   5.974   1.024 -0.9145  0.7466 -0.3914
   91MOL0     H12235   5.265   5.835   1.047  0.3309 -1.7279 -0.8001
   91MOL0     H12236   5.464   6.020   0.760  1.8383 -0.3611  3.3916
   91MOL0     H12237   5.439   5.951   0.468  0.7342 -2.1556  0.9712
   91MOL0     H12238   5.306   5.849   0.424  0.4648 -1.1394  2.1498
   91MOL0     H12239   5.277   6.124   0.535  0.7730 -0.2161  0.0151
   91MOL0     H12240   5.127   6.013   0.513 -1.5619  2.5270 -1.3229
   91MOL0     H12241   5.188   6.018   0.265 -1.2552 -0.5341  0.3560
   91MOL0     H12242   5.329   6.111   0.317  1.4825 -1.3627  4.4168
   91MOL0     H12243   5.138   6.271   0.225 -0.9175  0.7183  0.0662
   91MOL0     H12244   5.144   6.292   0.400  2.5775  0.1418 -0.1889
   91MOL0     H12245   4.969   6.415   0.266  0.3423 -0.2811  0.7380
   91MOL0     H12246   4.846   6.625   0.235 -0.2163  0.4331 -0.8212
   91MOL0     H12247   4.672   6.598   0.212  0.0639 -2.9762 -1.6408
   91MOL0     H12248   4.754   6.637   0.377  4.0062 -1.3942  0.9544
   91MOL0     H12249   4.235   6.516   0.529 -4.3915  1.0418  0.0326
   91MOL0     H12250   4.008   6.578   0.437 -0.8040 -0.0691 -3.1644
   91MOL0     H12251   3.814   6.643   0.320  5.1896 -3.0415 -0.3466
   91MOL0     H12252   3.885   6.752   0.432  1.3436 -0.3366 -0.8436
   91MOL0     H12253   3.841   6.950   0.289  2.2122 -1.1137  1.9671
   91MOL0     H12254   3.736   6.833   0.190 -2.1873  0.0326  0.8860
   91MOL0     H12255   3.636   6.770   0.431  1.2492  1.0546  0.1103
   91MOL0     H12256   3.570   6.902   0.333 -0.5171  0.8782 -0.0174
   91MOL0     H12257   3.724   6.907   0.576  3.2077 -1.1551 -2.7075
   91MOL0     H12258   3.751   7.050   0.465 -0.1705  0.3403 -0.4141
   91MOL0     H12259   3.473   6.973   0.551 -0.2978  0.0549 -1.3681
   91MOL0     H12260   3.537   7.126   0.475  0.7037  0.9257  1.2382
   91MOL0     H12261   3.592   7.043   0.755 -1.1769 -0.6438 -1.5760
   91MOL0     H12262   3.654   7.191   0.684  2.2529 -0.9196 -0.0531
   91MOL0     H12263   3.365   7.096   0.754  2.3538 -0.5496 -0.3440
   91MOL0     H12264   3.392   7.229   0.635  0.8190  0.0398 -1.4450
   91MOL0     H12265   3.347   7.338   0.847  1.2931  2.4364  1.9589
   91MOL0     H12266   3.502   7.372   0.809 -0.3108  0.7397 -0.9455
   91MOL0     H12267   4.204   6.787   0.126  1.4132 -1.6389 -1.3140
   91MOL0     H12268   4.426   6.708   0.207 -0.7032 -1.1759 -3.4120
   91MOL0     H12269   4.577   6.168   0.450  1.4315 -1.9473 -0.3309
   91MOL0     H12270   4.791   6.060   0.418 -2.6066 -0.3002  2.4619
   91MOL0     H12271   6.375   6.070   1.364 -2.4184 -0.8129 -1.2867
   91MOL0     H12272   6.620   6.027   1.361 -2.9413  1.4898  1.7042
   91MOL0     H12273   7.048   5.772   1.492 -1.5708  3.6415  1.0374
   91MOL0     H12274   7.291   5.778   1.421 -0.4658 -1.9758  0.3242
   91MOL0     H12275   7.472   5.594   1.135  0.2049 -3.5650 -3.5239
   91MOL0     H12276   7.298   5.562   1.111 -0.2401 -0.8272 -3.5994
   91MOL0     H12277   7.290   5.666   0.894 -1.0006  0.9539 -1.2720
   91MOL0     H12278   7.426   5.548   0.897 -2.2435 -0.8616  1.1837
   91MOL0     H12279   7.574   5.752   0.955  0.0109 -3.7689 -0.6853
   91MOL0     H12280   7.437   5.851   0.885  0.7931  0.8813 -3.0341
   91MOL0     H12281   7.579   5.812   0.709 -0.1273  1.0363  1.4006
   91MOL0     H12282   7.457   5.676   0.686  0.7927 -1.3529  1.1307
   91MOL0     H12283   7.763   5.429   0.766  0.5132 -0.2680 -1.9780
   91MOL0     H12284   7.142   5.749   1.006  2.2769 -0.0297  0.2343
   91MOL0     H12285   6.921   5.752   1.080  0.3159 -1.6604 -0.4720
   92MOL0     O12286   9.915   4.540   5.965  0.5514 -0.1192 -0.2132
   92MOL0     C12287   9.918   4.420   5.957 -0.6772  0.0771  0.2580
   92MOL0     O12288   9.816   4.336   5.983 -0.1855 -0.4835  0.6827
   92MOL0     C12289   9.698   4.387   6.031  0.1305  0.3831  0.9727
   92MOL0     C12290   9.661   4.353   6.159  0.7704  0.0830 -0.5493
   92MOL0     C12291   9.542   4.398   6.217  0.1492 -0.1209 -0.8424
   92MOL0     C12292   9.455   4.486   6.145  0.9673 -0.4796 -0.4179
   92MOL0     O12293   9.345   4.516   6.215  0.0040 -0.2320  0.6007
   92MOL0     C12294   9.254   4.605   6.150  0.4316  0.3468 -0.5316
   92MOL0     C12295   9.132   4.630   6.246  0.3395 -0.5459 -0.4061
   92MOL0     C12296   9.073   4.502   6.299 -0.1514  0.6450  0.8353
   92MOL0     C12297   8.933   4.516   6.341 -0.7966  0.1488 -0.0048
   92MOL0     C12298   8.873   4.385   6.388  0.5568  0.5963 -0.1442
   92MOL0     C12299   8.731   4.399   6.459  0.2006  0.9824 -0.4154
   92MOL0     C12300   8.669   4.260   6.479  0.3511  0.3516  0.3561
   92MOL0     C12301   8.578   4.270   6.601  0.9808 -0.1925 -0.0942
   92MOL0     N12302   8.460   4.359   6.596  0.1263 -0.6178  0.3751
   92MOL0     C12303   8.368   4.347   6.500 -0.0751 -0.0804 -0.9525
   92MOL0     C12304   8.290   4.450   6.517  0.4824 -0.2268 -0.4031
   92MOL0     C12305   8.184   4.469   6.413 -0.0980  0.4460  0.4382
   92MOL0     C12306   8.048   4.540   6.470  1.2067 -0.3878 -0.5069
   92MOL0     C12307   8.022   4.670   6.395 -0.4697 -0.3982  0.7041
   92MOL0     C12308   7.922   4.751   6.472 -0.9976 -0.3423 -0.0039
   92MOL0     O12309   7.798   4.680   6.489  0.0131  0.2083 -0.2818
   92MOL0     C12310   7.724   4.652   6.373  0.6417  0.5124 -0.0896
   92MOL0     C12311   7.638   4.535   6.386 -0.5772 -0.3043 -0.3941
   92MOL0     C12312   7.557   4.501   6.286  0.9047  0.2412 -0.7906
   92MOL0     C12313   7.471   4.376   6.303 -0.1267 -0.2809  0.4729
   92MOL0     C12314   7.561   4.575   6.163 -0.1878  0.6664 -0.5546
   92MOL0     C12315   7.473   4.547   6.050  0.2404 -0.2620 -0.1703
   92MOL0     O12316   7.430   4.668   5.995  0.2429  0.2437 -0.4914
   92MOL0     C12317   7.343   4.674   5.896  0.7320 -1.1399  0.1903
   92MOL0     C12318   7.336   4.807   5.845  0.0234 -0.3662  0.2140
   92MOL0     C12319   7.233   4.836   5.757  0.2057  0.1174 -0.1359
   92MOL0     C12320   7.140   4.742   5.719  1.1342 -0.3940  0.0837
   92MOL0     O12321   7.034   4.783   5.645 -0.3747 -0.1871  0.3235
   92MOL0     C12322   6.997   4.691   5.539  0.1736 -0.5517 -0.9251
   92MOL0     C12323   6.924   4.766   5.428  0.2909 -0.1115  0.5874
   92MOL0     C12324   6.772   4.799   5.457 -0.4542  0.4737  0.2934
   92MOL0     C12325   6.734   4.919   5.366  1.4085  0.1487  0.6166
   92MOL0     C12326   6.585   4.942   5.388  0.5159  0.3663  0.1179
   92MOL0     C12327   6.526   5.047   5.296  0.2640  0.0480  0.2079
   92MOL0     C12328   6.371   5.019   5.269  0.6650  0.2141 -0.2061
   92MOL0     C12329   6.334   5.090   5.137  0.3726 -0.9948 -0.4040
   92MOL0    Cl12330   6.164   5.061   5.100  0.0170 -0.2139 -0.1454
   92MOL0     C12331   7.154   4.608   5.753  0.2145  0.0396 -0.6490
   92MOL0     C12332   7.261   4.569   5.844  0.0943  0.1006  0.5876
   92MOL0     O12333   7.451   4.435   6.007  0.1003  0.1439 -0.1539
   92MOL0     C12334   7.650   4.685   6.153 -0.6605 -1.2283 -0.4044
   92MOL0     C12335   7.725   4.732   6.256 -1.1960  0.1808  0.4462
   92MOL0     N12336   8.335   4.529   6.624  0.5093 -0.8228  1.0838
   92MOL0     N12337   8.439   4.473   6.671  0.2187  0.5856 -0.0860
   92MOL0     C12338   9.505   4.532   6.030  0.4594  0.1001  0.8921
   92MOL0     C12339   9.616   4.477   5.960 -0.3365 -0.0347 -0.3864
   92MOL0     C12340  10.042   4.351   5.909  0.0912 -0.2076 -0.2359
   92MOL0     C12341  10.034   4.213   5.874  0.2407 -0.9173  0.1823
   92MOL0     C12342  10.152   4.154   5.829  0.1766  0.0226 -0.4700
   92MOL0     C12343  10.270   4.210   5.820 -0.7149 -0.2888  0.5482
   92MOL0     O12344  10.368   4.132   5.770 -0.5724  0.1314  0.0755
   92MOL0     C12345  10.462   4.187   5.676  0.7274 -0.0031 -0.3553
   92MOL0     C12346  10.602   4.134   5.711  0.1519 -0.2672 -0.1086
   92MOL0     C12347  10.724   4.143   5.606 -0.2492 -0.2508  0.1551
   92MOL0     C12348  10.700   4.053   5.486  0.2295 -0.3057 -0.2781
   92MOL0     C12349  10.816   4.045   5.401  0.1519 -1.0102 -0.1223
   92MOL0     C12350  10.914   4.038   5.336 -1.1150 -0.0356 -0.1433
   92MOL0     C12351  10.282   4.352   5.849  0.8222 -0.5241 -0.7304
   92MOL0     C12352  10.164   4.423   5.896 -0.7645  0.3957  0.4857
   92MOL0     H12353   9.729   4.295   6.220 -0.7515 -1.2391 -0.0159
   92MOL0     H12354   9.515   4.373   6.319 -3.6262  2.2706 -1.0568
   92MOL0     H12355   9.302   4.701   6.126  0.1307  0.4923 -0.5632
   92MOL0     H12356   9.226   4.550   6.060  1.2542 -4.2173  1.7009
   92MOL0     H12357   9.171   4.674   6.338  0.1287 -1.2731  0.0314
   92MOL0     H12358   9.057   4.686   6.188 -0.9551 -3.2506 -1.5264
   92MOL0     H12359   9.074   4.432   6.216  1.5162  2.9522 -1.2595
   92MOL0     H12360   9.134   4.459   6.379 -5.1768 -2.6794  3.3559
   92MOL0     H12361   8.930   4.587   6.425  1.1613  0.4658 -0.1418
   92MOL0     H12362   8.876   4.569   6.264  1.0841  2.9999  0.4163
   92MOL0     H12363   8.862   4.318   6.303  0.2254 -0.7760  0.9318
   92MOL0     H12364   8.943   4.335   6.455  0.2858  0.6044  0.1501
   92MOL0     H12365   8.734   4.448   6.557  1.4806 -0.6441  0.4002
   92MOL0     H12366   8.660   4.458   6.400  0.7028  0.3922 -1.6373
   92MOL0     H12367   8.613   4.226   6.391  2.7428 -0.4601 -0.9580
   92MOL0     H12368   8.743   4.180   6.489 -1.5985 -1.5084  0.5572
   92MOL0     H12369   8.627   4.294   6.696  0.4013  2.4013 -0.3530
   92MOL0     H12370   8.537   4.169   6.609 -0.6442  0.4412  0.1556
   92MOL0     H12371   8.355   4.270   6.426  2.4319  0.4561 -2.0587
   92MOL0     H12372   8.228   4.527   6.331  1.6490 -0.2129  0.8595
   92MOL0     H12373   8.151   4.371   6.378 -0.3191 -0.4267  2.9048
   92MOL0     H12374   8.059   4.576   6.573 -3.8216 -0.3746  0.2529
   92MOL0     H12375   7.960   4.475   6.468  0.3620  0.4764  2.6433
   92MOL0     H12376   7.996   4.661   6.289  3.7340  1.7264 -0.7687
   92MOL0     H12377   8.116   4.727   6.392 -2.3146  2.9171  0.5323
   92MOL0     H12378   7.894   4.839   6.412 -2.5132 -1.5760 -1.1893
   92MOL0     H12379   7.965   4.779   6.569  0.4931  0.3277 -0.8125
   92MOL0     H12380   7.641   4.467   6.471  4.9873 -0.9329 -0.7305
   92MOL0     H12381   7.477   4.336   6.405  1.1405  2.7082  1.7041
   92MOL0     H12382   7.370   4.412   6.283  1.7466  4.0801 -2.6905
   92MOL0     H12383   7.496   4.296   6.233 -0.7700 -2.3738  2.5217
   92MOL0     H12384   7.409   4.883   5.872  1.4746 -0.1662 -3.6595
   92MOL0     H12385   7.226   4.935   5.712  1.0843  0.0684 -0.4090
   92MOL0     H12386   7.083   4.637   5.498  0.5111 -0.7839  0.0676
   92MOL0     H12387   6.940   4.613   5.589 -0.7203  0.9575  0.4924
   92MOL0     H12388   6.981   4.858   5.414 -2.5898  1.5032 -1.7942
   92MOL0     H12389   6.947   4.717   5.333 -1.5944  2.8222 -1.5659
   92MOL0     H12390   6.756   4.820   5.564  2.6601 -0.5117  1.0472
   92MOL0     H12391   6.713   4.710   5.435  2.2843 -1.8024  1.5876
   92MOL0     H12392   6.787   5.013   5.383 -1.5281  2.3102 -1.1339
   92MOL0     H12393   6.751   4.896   5.260 -1.5548  1.2356 -0.1919
   92MOL0     H12394   6.563   4.970   5.492 -0.0332  1.3379 -0.2471
   92MOL0     H12395   6.536   4.844   5.383  2.3011 -0.7544  2.3919
   92MOL0     H12396   6.548   5.149   5.331 -2.2749  2.6194 -4.5936
   92MOL0     H12397   6.577   5.021   5.202  1.8055  2.1554  0.3839
   92MOL0     H12398   6.316   5.059   5.354  1.1701  0.7607 -0.1265
   92MOL0     H12399   6.345   4.913   5.255 -0.3457  0.7548 -3.1513
   92MOL0     H12400   6.387   5.054   5.049 -0.3586 -0.6330 -1.0022
   92MOL0     H12401   6.339   5.198   5.151  1.7553 -1.0738 -0.1344
   92MOL0     H12402   7.084   4.530   5.727  0.5917  0.3077 -2.5647
   92MOL0     H12403   7.265   4.465   5.874  2.5148  0.3258  1.2328
   92MOL0     H12404   7.647   4.753   6.069  2.0119 -2.1053 -1.2977
   92MOL0     H12405   7.776   4.827   6.246 -2.0914  0.6320  0.0417
   92MOL0     H12406   9.446   4.607   5.979  2.9638 -0.7683 -3.9024
   92MOL0     H12407   9.644   4.517   5.863  0.1879  1.7563  0.4479
   92MOL0     H12408   9.940   4.160   5.877 -0.4812  0.1814 -1.2374
   92MOL0     H12409  10.148   4.053   5.789  0.2286 -1.2217  2.4034
   92MOL0     H12410  10.437   4.149   5.576 -2.0078  2.6221 -0.8201
   92MOL0     H12411  10.464   4.296   5.671 -2.1675  0.1430  0.3115
   92MOL0     H12412  10.592   4.025   5.723  0.1659 -0.2987 -0.3828
   92MOL0     H12413  10.633   4.168   5.811 -0.1133  1.2891 -0.5304
   92MOL0     H12414  10.818   4.121   5.658 -1.2551  0.3032  2.3562
   92MOL0     H12415  10.733   4.247   5.573  0.9765  0.0664  1.3905
   92MOL0     H12416  10.636   4.117   5.425  2.3492  3.5570  1.1779
   92MOL0     H12417  10.645   3.960   5.503 -2.5091  0.6966 -2.7723
   92MOL0     H12418  11.004   4.025   5.279 -0.6504 -1.8853  0.9427
   92MOL0     H12419  10.371   4.406   5.820 -0.3409  0.7072 -2.1867
   92MOL0     H12420  10.161   4.531   5.906  0.4418  0.6127 -1.1022
   93MOL0     O12421  10.507  11.217  10.287  0.4275  0.6558  0.7709
   93MOL0     C12422  10.481  11.326  10.240  0.0446 -0.6351 -0.0017
   93MOL0     O12423  10.356  11.379  10.230  0.0060 -0.2297 -0.1507
   93MOL0     C12424  10.252  11.299  10.260  0.0629 -0.6751  0.9810
   93MOL0     C12425  10.178  11.328  10.371  0.3403  0.6509  0.2364
   93MOL0     C12426  10.066  11.255  10.406  0.5446  0.3097  0.3747
   93MOL0     C12427  10.014  11.165  10.312  0.1819  0.0969  0.7900
   93MOL0     O12428   9.918  11.077  10.344  0.0622  0.1482  0.0032
   93MOL0     C12429   9.866  11.069  10.473  0.1864 -0.5825  0.5503
   93MOL0     C12430   9.770  10.955  10.493 -0.4556  0.5752 -0.8551
   93MOL0     C12431   9.637  11.000  10.435 -0.1394 -0.0529  0.4656
   93MOL0     C12432   9.557  10.874  10.406 -0.0263 -0.7604  0.6542
   93MOL0     C12433   9.486  10.798  10.526  0.3934  0.5341 -0.3157
   93MOL0     C12434   9.396  10.899  10.606  0.3977 -0.1036  0.4192
   93MOL0     C12435   9.322  10.837  10.719  0.5384 -0.1481 -1.1267
   93MOL0     C12436   9.242  10.703  10.686  0.8787 -0.4059  0.3239
   93MOL0     N12437   9.122  10.739  10.610  0.4579 -0.2890 -0.1564
   93MOL0     C12438   9.091  10.688  10.488 -0.6554  0.9818  0.8185
   93MOL0     C12439   8.985  10.749  10.440  0.0424 -0.4885  0.4093
   93MOL0     C12440   8.931  10.744  10.302 -1.1960  0.0244  0.0765
   93MOL0     C12441   8.866  10.611  10.273  0.7680 -0.2045 -0.4235
   93MOL0     C12442   8.764  10.634  10.159 -0.6836  0.0552 -0.2810
   93MOL0     C12443   8.704  10.497  10.118 -0.5465  0.1007  0.2675
   93MOL0     O12444   8.691  10.412  10.228  0.1849 -0.5963  1.1104
   93MOL0     C12445   8.572  10.408  10.295  0.2400  0.7498  0.0457
   93MOL0     C12446   8.473  10.501  10.297  0.2160 -0.5820 -0.0336
   93MOL0     C12447   8.355  10.477  10.375  0.4706 -0.9498 -0.3140
   93MOL0     C12448   8.251  10.585  10.374 -0.4841 -0.6114 -0.3414
   93MOL0     C12449   8.336  10.359  10.445 -0.0109 -0.2297 -0.2471
   93MOL0     C12450   8.223  10.334  10.532 -0.0363 -1.0192 -0.0984
   93MOL0     O12451   8.099  10.384  10.486 -0.5900 -0.4972 -0.0653
   93MOL0     C12452   7.998  10.387  10.579 -0.1419 -0.1473 -0.0590
   93MOL0     C12453   7.886  10.315  10.563  0.2427  0.4118 -1.2012
   93MOL0     C12454   7.781  10.325  10.647  0.3264  0.9646 -0.3898
   93MOL0     C12455   7.794  10.400  10.773  0.4897  0.7447 -0.4429
   93MOL0     O12456   7.691  10.406  10.864  0.0117  0.3678  0.1655
   93MOL0     C12457   7.574  10.335  10.832 -0.5168 -0.5140 -0.3068
   93MOL0     C12458   7.477  10.371  10.952 -0.1571  0.1040 -0.4106
   93MOL0     C12459   7.347  10.296  10.928  0.5394 -0.1794  0.2029
   93MOL0     C12460   7.235  10.328  11.023  0.7610 -0.2452 -0.1183
   93MOL0     C12461   7.108  10.242  10.989 -0.2996  0.6411 -0.2916
   93MOL0     C12462   6.999  10.250  11.105 -0.5883 -0.1114 -0.6460
   93MOL0     C12463   6.977  10.394  11.139  0.1241 -0.3120 -0.0450
   93MOL0     C12464   6.850  10.418  11.216  0.0212 -0.7459 -0.1484
   93MOL0    Cl12465   6.699  10.366  11.138  0.1109  0.3162 -0.4636
   93MOL0     C12466   7.915  10.472  10.790  0.7817  0.1725 -0.1333
   93MOL0     C12467   8.015  10.466  10.695 -0.4673 -0.5701  1.0858
   93MOL0     O12468   8.234  10.291  10.645  0.4750 -0.2466  1.2465
   93MOL0     C12469   8.443  10.265  10.450  0.5248 -0.1151 -0.0491
   93MOL0     C12470   8.561  10.297  10.370 -0.5925  0.6507 -0.4429
   93MOL0     N12471   8.946  10.835  10.543 -0.4858 -0.7508  0.1686
   93MOL0     N12472   9.037  10.835  10.632 -0.4989 -0.5181 -0.5653
   93MOL0     C12473  10.078  11.145  10.191 -0.5518 -1.0711  0.2980
   93MOL0     C12474  10.203  11.205  10.168 -0.3676  0.4477  0.1398
   93MOL0     C12475  10.593  11.418  10.213 -0.1961 -0.0585  0.4874
   93MOL0     C12476  10.720  11.396  10.277  0.9374 -0.3207 -0.1868
   93MOL0     C12477  10.823  11.476  10.249 -0.3101 -0.0228  0.0561
   93MOL0     C12478  10.812  11.587  10.173 -0.1332 -0.4299  0.1312
   93MOL0     O12479  10.913  11.670  10.134 -0.5474 -0.3372  0.5172
   93MOL0     C12480  11.048  11.625  10.162  0.0725  0.1429  0.7339
   93MOL0     C12481  11.157  11.720  10.111  0.6455  0.5447 -0.6690
   93MOL0     C12482  11.290  11.694  10.173  0.0072  0.6256 -0.3841
   93MOL0     C12483  11.403  11.753  10.094 -0.2913 -0.7654  0.9467
   93MOL0     C12484  11.536  11.767  10.163 -0.0367  0.8558  0.4257
   93MOL0     C12485  11.647  11.773  10.217 -0.1284 -0.6002  0.7700
   93MOL0     C12486  10.686  11.620  10.121 -0.0209 -0.6192 -0.1330
   93MOL0     C12487  10.576  11.535  10.136 -0.5719 -0.7108 -0.6355
   93MOL0     H12488  10.207  11.405  10.442  3.3511 -0.8506  0.7904
   93MOL0     H12489  10.017  11.267  10.502 -1.0124  0.4040 -0.4041
   93MOL0     H12490   9.950  11.058  10.543  0.9069 -0.8232 -0.3338
   93MOL0     H12491   9.809  11.161  10.487 -2.9043 -1.8799 -2.1537
   93MOL0     H12492   9.816  10.867  10.447 -0.6523 -0.7469  1.3282
   93MOL0     H12493   9.755  10.935  10.599 -1.7803 -0.1073 -1.1530
   93MOL0     H12494   9.592  11.067  10.509  1.5399  0.8810  0.6882
   93MOL0     H12495   9.642  11.056  10.341 -1.8644 -1.7735 -0.7390
   93MOL0     H12496   9.466  10.894  10.348 -1.4428 -3.0439  1.8886
   93MOL0     H12497   9.622  10.806  10.350 -0.0684 -0.7421  0.5816
   93MOL0     H12498   9.436  10.721  10.468  1.6195  0.6833 -1.6477
   93MOL0     H12499   9.558  10.759  10.598 -0.6185 -0.5954  0.1061
   93MOL0     H12500   9.458  10.967  10.664 -0.4198  0.5251  0.5765
   93MOL0     H12501   9.329  10.962  10.547  0.0798  0.7369  1.6310
   93MOL0     H12502   9.402  10.808  10.788  1.0882 -1.8543 -2.3974
   93MOL0     H12503   9.248  10.906  10.760  2.3030  2.1493 -1.5592
   93MOL0     H12504   9.203  10.657  10.777  0.7895  3.1930  2.2626
   93MOL0     H12505   9.305  10.629  10.635  1.1201 -0.7925  1.1603
   93MOL0     H12506   9.151  10.617  10.433 -0.4855  1.0434  0.9265
   93MOL0     H12507   8.863  10.827  10.277  0.0719  0.2218 -3.1099
   93MOL0     H12508   9.016  10.766  10.237  0.2425 -2.7330  0.8757
   93MOL0     H12509   8.813  10.576  10.362  0.5579  0.9904 -0.0597
   93MOL0     H12510   8.944  10.538  10.246 -0.6075 -1.5933 -0.7638
   93MOL0     H12511   8.805  10.685  10.071  1.0902 -1.4888 -0.3963
   93MOL0     H12512   8.685  10.700  10.196 -1.1992 -0.7878  0.1652
   93MOL0     H12513   8.783  10.453  10.057 -1.8662 -2.7121  0.3975
   93MOL0     H12514   8.613  10.511  10.058  0.6986 -1.1708 -2.0545
   93MOL0     H12515   8.471  10.583  10.225 -0.3228  0.5122  1.1952
   93MOL0     H12516   8.200  10.606  10.469 -2.5916 -1.1358 -1.3113
   93MOL0     H12517   8.307  10.671  10.336 -0.9526 -0.3987 -0.5516
   93MOL0     H12518   8.171  10.563  10.304 -2.0656 -1.6454  1.6866
   93MOL0     H12519   7.879  10.247  10.479 -2.6849  0.3796 -1.0398
   93MOL0     H12520   7.687  10.273  10.625  0.5127  0.5990 -0.3308
   93MOL0     H12521   7.531  10.380  10.742  1.0241  1.1204 -0.2821
   93MOL0     H12522   7.592  10.227  10.823 -0.8197 -0.6460  0.6536
   93MOL0     H12523   7.522  10.343  11.048 -2.2486 -0.7644  0.3605
   93MOL0     H12524   7.454  10.477  10.965 -3.0712 -0.8218  4.0843
   93MOL0     H12525   7.358  10.188  10.936 -0.2755 -0.5580 -2.8742
   93MOL0     H12526   7.311  10.313  10.826 -0.1689  1.8856  0.7499
   93MOL0     H12527   7.267  10.300  11.124 -0.8175  0.2254  0.5417
   93MOL0     H12528   7.218  10.436  11.023  3.0792  0.2796 -3.6992
   93MOL0     H12529   7.130  10.135  10.985 -2.6821  0.0445  0.9342
   93MOL0     H12530   7.060  10.275  10.896 -0.6032  0.1090 -0.3265
   93MOL0     H12531   6.903  10.211  11.070  0.0632 -0.7273 -1.8015
   93MOL0     H12532   7.030  10.195  11.195  2.7366 -0.2559 -1.7380
   93MOL0     H12533   6.966  10.458  11.051 -0.8361  2.9900  2.3084
   93MOL0     H12534   7.057  10.430  11.204 -1.3344  1.3885  0.8638
   93MOL0     H12535   6.840  10.523  11.243  2.1024 -0.1539 -1.4323
   93MOL0     H12536   6.857  10.355  11.305 -0.7456 -2.7893 -1.4454
   93MOL0     H12537   7.925  10.527  10.884 -0.4880  1.2461 -0.5757
   93MOL0     H12538   8.103  10.518  10.731 -1.1762  0.1953  1.7515
   93MOL0     H12539   8.439  10.169  10.500  0.5745 -0.8311 -1.3734
   93MOL0     H12540   8.638  10.222  10.363 -2.4068 -1.1511 -2.7681
   93MOL0     H12541  10.041  11.075  10.116 -0.5706 -0.5781 -0.1643
   93MOL0     H12542  10.268  11.168  10.089 -1.0554 -1.4333  0.3911
   93MOL0     H12543  10.734  11.317  10.351  2.1781  0.0156 -0.0375
   93MOL0     H12544  10.920  11.441  10.282  2.9436  2.8996 -5.0903
   93MOL0     H12545  11.055  11.630  10.271  0.5115  1.1578  0.6779
   93MOL0     H12546  11.064  11.527  10.117  2.1271  1.6116 -2.0174
   93MOL0     H12547  11.118  11.815  10.150 -0.9867 -0.1087 -0.5935
   93MOL0     H12548  11.165  11.724  10.002  1.3970 -0.2251 -0.6543
   93MOL0     H12549  11.304  11.588  10.195  1.5822  0.6979 -0.9729
   93MOL0     H12550  11.279  11.739  10.272  0.4502 -1.0467  0.4664
   93MOL0     H12551  11.367  11.854  10.074  1.0460 -0.4273  0.1360
   93MOL0     H12552  11.420  11.700  10.000  0.5618  1.9509 -0.5336
   93MOL0     H12553  11.745  11.780  10.259  1.0812 -1.5667 -1.6964
   93MOL0     H12554  10.672  11.711  10.064  0.1213 -0.4889  0.0400
   93MOL0     H12555  10.483  11.553  10.083 -1.3487 -0.3112  0.8206
   94MOL0     O12556   9.574   7.525   6.706 -0.7588 -0.7005  0.2430
   94MOL0     C12557   9.579   7.636   6.761 -0.0457  0.5735  0.8229
   94MOL0     O12558   9.480   7.722   6.761 -0.5298  0.0008  0.0686
   94MOL0     C12559   9.351   7.674   6.736 -0.5943 -0.1517  0.2998
   94MOL0     C12560   9.304   7.665   6.611 -0.0102  1.5034 -0.2368
   94MOL0     C12561   9.170   7.613   6.594 -0.7808 -0.0546  0.5100
   94MOL0     C12562   9.095   7.559   6.701 -0.2777 -1.0731 -0.0638
   94MOL0     O12563   8.973   7.504   6.698  0.7421 -0.0560 -0.1364
   94MOL0     C12564   8.893   7.532   6.577 -0.8740 -0.4586 -0.0683
   94MOL0     C12565   8.760   7.462   6.586  1.0642  0.5754 -1.1821
   94MOL0     C12566   8.652   7.537   6.672  0.2972  0.3882  0.3066
   94MOL0     C12567   8.542   7.442   6.698 -0.1719 -1.0448  0.0126
   94MOL0     C12568   8.422   7.506   6.769 -0.4925 -0.0512 -0.0384
   94MOL0     C12569   8.338   7.593   6.671 -0.2450  0.1066 -0.6461
   94MOL0     C12570   8.227   7.669   6.743 -0.0150  0.0759  0.3044
   94MOL0     C12571   8.268   7.794   6.815  0.7470  0.1635 -0.2652
   94MOL0     N12572   8.333   7.897   6.730 -0.0129  0.0007  0.4770
   94MOL0     C12573   8.463   7.940   6.723 -0.5091 -0.1320 -0.3196
   94MOL0     C12574   8.456   8.053   6.649 -0.2296  0.3283  0.5339
   94MOL0     C12575   8.572   8.142   6.616 -0.5941  0.0179 -0.2887
   94MOL0     C12576   8.532   8.281   6.553 -0.7821  0.5643  0.0825
   94MOL0     C12577   8.479   8.386   6.658 -0.3595  0.4037 -0.3417
   94MOL0     C12578   8.583   8.456   6.744  0.6085 -0.1306  0.2099
   94MOL0     O12579   8.699   8.493   6.670  0.1211  0.5224  0.2126
   94MOL0     C12580   8.812   8.543   6.734 -0.0058  0.3753  1.5260
   94MOL0     C12581   8.916   8.600   6.650 -0.1059  0.7054  0.1061
   94MOL0     C12582   9.038   8.660   6.690 -0.7260  0.2982  0.3101
   94MOL0     C12583   9.140   8.703   6.587 -0.0865 -0.2785  1.1944
   94MOL0     C12584   9.046   8.687   6.822  0.6887 -0.5567 -0.8292
   94MOL0     C12585   9.157   8.769   6.874 -0.5478 -0.2245 -1.1234
   94MOL0     O12586   9.174   8.751   7.009 -0.2287  0.2251  0.3960
   94MOL0     C12587   9.277   8.799   7.081  1.0386 -0.2365  1.0368
   94MOL0     C12588   9.399   8.856   7.040 -0.2911  0.7563  1.3268
   94MOL0     C12589   9.503   8.877   7.124 -0.0129 -0.1689 -0.4157
   94MOL0     C12590   9.488   8.859   7.260 -0.0599 -0.7041  0.6563
   94MOL0     O12591   9.589   8.904   7.337 -1.1795 -0.9146  0.1578
   94MOL0     C12592   9.564   8.907   7.472 -0.0492  0.3062 -0.1157
   94MOL0     C12593   9.670   9.003   7.536 -0.1985 -0.3505 -0.3845
   94MOL0     C12594   9.800   8.941   7.552 -0.0746 -0.7361  0.5665
   94MOL0     C12595   9.910   9.030   7.612  0.1428 -0.0342  0.4144
   94MOL0     C12596  10.037   8.963   7.663 -0.2410 -0.3292 -0.0676
   94MOL0     C12597  10.131   8.925   7.542  0.5965 -0.2096  0.4273
   94MOL0     C12598  10.236   8.819   7.585 -0.1033  0.4617  0.4293
   94MOL0     C12599  10.362   8.822   7.503  0.1545 -0.4184 -0.0681
   94MOL0    Cl12600  10.432   8.974   7.545 -0.3858 -0.2989 -0.3260
   94MOL0     C12601   9.372   8.791   7.300 -0.4086  1.1080  0.2112
   94MOL0     C12602   9.268   8.763   7.220 -1.4223  0.6301  0.1703
   94MOL0     O12603   9.211   8.858   6.804  0.4056 -0.4790 -0.3251
   94MOL0     C12604   8.951   8.630   6.915  0.9133  0.2006  1.1688
   94MOL0     C12605   8.833   8.558   6.871 -0.6807  0.0552  0.5249
   94MOL0     N12606   8.327   8.071   6.601 -0.4206  0.6458  0.2663
   94MOL0     N12607   8.254   7.972   6.642  0.1776  0.4296 -0.3994
   94MOL0     C12608   9.157   7.563   6.827 -0.2640  0.1835  0.4001
   94MOL0     C12609   9.285   7.614   6.851 -0.1373  0.1152 -0.1078
   94MOL0     C12610   9.704   7.679   6.808 -0.4215  0.1976 -0.4112
   94MOL0     C12611   9.822   7.610   6.803  0.2465  0.3232  0.2624
   94MOL0     C12612   9.937   7.657   6.862  0.1622  0.3340  0.2099
   94MOL0     C12613   9.943   7.791   6.914 -0.7085 -0.0626  0.9202
   94MOL0     O12614  10.067   7.835   6.953 -0.8004  0.2409  0.2968
   94MOL0     C12615  10.093   7.959   7.028 -0.4658  0.4032 -0.2377
   94MOL0     C12616  10.036   7.975   7.168  0.2020  0.1195  0.1109
   94MOL0     C12617  10.110   8.085   7.246 -0.3288  0.7085 -1.0658
   94MOL0     C12618  10.076   8.089   7.391 -0.0549 -0.0467 -0.5739
   94MOL0     C12619  10.139   7.973   7.466 -0.1352  0.4732 -0.6894
   94MOL0     C12620  10.190   7.867   7.511  0.3641  0.4436 -0.6130
   94MOL0     C12621   9.829   7.861   6.915  0.6561  0.0889  0.1916
   94MOL0     C12622   9.708   7.806   6.865 -0.0672  0.1718 -0.3977
   94MOL0     H12623   9.363   7.699   6.526 -0.3156 -2.8178 -2.4493
   94MOL0     H12624   9.125   7.616   6.496 -2.2027 -0.0457  1.1374
   94MOL0     H12625   8.868   7.639   6.581 -1.4991 -0.6157  3.8116
   94MOL0     H12626   8.946   7.497   6.488  1.3415 -4.5597  2.5456
   94MOL0     H12627   8.714   7.437   6.490 -0.6093 -1.5748  0.0934
   94MOL0     H12628   8.784   7.368   6.635 -0.1777  0.6101 -0.4736
   94MOL0     H12629   8.695   7.576   6.765 -2.8383  0.0365  2.0285
   94MOL0     H12630   8.627   7.627   6.614 -1.8865 -0.8489 -0.8064
   94MOL0     H12631   8.499   7.385   6.615 -1.5284 -1.4159  0.9357
   94MOL0     H12632   8.576   7.363   6.766  1.2059  0.4550  1.1432
   94MOL0     H12633   8.359   7.428   6.813 -0.5954  0.0039 -0.0910
   94MOL0     H12634   8.457   7.564   6.855  1.9742 -1.3367 -0.0766
   94MOL0     H12635   8.389   7.666   6.607 -2.0276  0.6311 -1.5132
   94MOL0     H12636   8.287   7.527   6.600 -0.9383 -2.6640  2.2407
   94MOL0     H12637   8.147   7.690   6.671 -1.1057 -1.4921  1.0013
   94MOL0     H12638   8.171   7.611   6.817 -0.9751  0.9126  0.2531
   94MOL0     H12639   8.328   7.763   6.901 -0.9716  1.6072  1.5597
   94MOL0     H12640   8.173   7.829   6.857  1.0561  2.3184 -1.2066
   94MOL0     H12641   8.546   7.910   6.786 -1.6451 -1.7778  0.4531
   94MOL0     H12642   8.628   8.150   6.709  1.2521 -2.7809 -1.0236
   94MOL0     H12643   8.642   8.088   6.551 -0.2283  0.1514 -0.0091
   94MOL0     H12644   8.454   8.263   6.478 -0.1356 -1.8922 -0.0950
   94MOL0     H12645   8.611   8.332   6.496 -0.4577 -0.1724 -0.1406
   94MOL0     H12646   8.406   8.336   6.723 -0.4323 -4.0783 -3.4232
   94MOL0     H12647   8.417   8.459   6.606 -0.1796  2.3776  2.0024
   94MOL0     H12648   8.628   8.382   6.811  0.5132  1.9418  2.6988
   94MOL0     H12649   8.533   8.537   6.797  0.6624  0.3208 -0.4193
   94MOL0     H12650   8.893   8.570   6.548 -1.5397 -1.3835  0.9699
   94MOL0     H12651   9.240   8.671   6.617  1.5927  2.3531 -1.1179
   94MOL0     H12652   9.130   8.639   6.500 -0.1142  0.4168  0.6810
   94MOL0     H12653   9.128   8.809   6.561  0.8610 -0.6938 -1.1678
   94MOL0     H12654   9.401   8.892   6.938 -1.1957 -1.8876  0.3179
   94MOL0     H12655   9.591   8.921   7.078 -1.1345  2.7525  0.0111
   94MOL0     H12656   9.468   8.947   7.505  0.1412 -0.9603  2.1841
   94MOL0     H12657   9.573   8.804   7.509  1.5830  0.3200 -0.3870
   94MOL0     H12658   9.673   9.090   7.469  2.4271 -1.2652 -1.6305
   94MOL0     H12659   9.634   9.032   7.635 -0.1446 -0.8066 -0.2272
   94MOL0     H12660   9.835   8.893   7.460  1.0302  3.1594 -1.2497
   94MOL0     H12661   9.781   8.865   7.629 -1.9761 -1.7288 -0.8170
   94MOL0     H12662   9.930   9.108   7.538 -1.5414 -0.2230 -0.3002
   94MOL0     H12663   9.867   9.075   7.702  1.4474 -2.4028  2.3092
   94MOL0     H12664  10.020   8.876   7.727 -0.1949  0.7028  1.3945
   94MOL0     H12665  10.097   9.037   7.719 -2.1504 -0.7841  2.7828
   94MOL0     H12666  10.075   8.891   7.455  1.3349 -2.1463  0.6546
   94MOL0     H12667  10.184   9.017   7.518 -1.4922  1.1928  0.9509
   94MOL0     H12668  10.194   8.718   7.585 -0.8933  0.7783  0.2173
   94MOL0     H12669  10.265   8.842   7.688  0.1190  0.4113  0.3768
   94MOL0     H12670  10.346   8.819   7.395  0.0324  2.6963 -0.2190
   94MOL0     H12671  10.435   8.747   7.536 -0.1167 -0.3604  0.6696
   94MOL0     H12672   9.362   8.769   7.406 -1.2278  2.7760  0.5047
   94MOL0     H12673   9.176   8.712   7.248  0.4189 -3.4020 -0.3166
   94MOL0     H12674   8.965   8.616   7.021  1.0323 -1.1372  0.9913
   94MOL0     H12675   8.765   8.511   6.942 -1.7075 -0.5800 -0.8423
   94MOL0     H12676   9.094   7.515   6.901 -0.4135  0.6969  0.6102
   94MOL0     H12677   9.323   7.599   6.952 -0.6477 -3.3886 -0.3367
   94MOL0     H12678   9.827   7.507   6.767  1.4328 -0.2503  1.9289
   94MOL0     H12679  10.017   7.585   6.870 -0.7211 -0.5292  1.7374
   94MOL0     H12680  10.202   7.968   7.028 -0.3976 -0.2425  0.7529
   94MOL0     H12681  10.053   8.040   6.967  2.3583  0.0756 -2.7832
   94MOL0     H12682  10.056   7.884   7.225 -1.4584  1.7816  3.6814
   94MOL0     H12683   9.930   8.002   7.159  0.8376  2.3125 -1.6233
   94MOL0     H12684  10.091   8.184   7.202  2.0394  0.0321 -3.8563
   94MOL0     H12685  10.218   8.070   7.241 -0.4287 -1.9582  1.7585
   94MOL0     H12686   9.967   8.080   7.394  0.0773 -1.9390 -0.0473
   94MOL0     H12687  10.113   8.182   7.435 -0.3910 -0.5011  0.7355
   94MOL0     H12688  10.218   7.772   7.551  0.6229  0.9556  0.4808
   94MOL0     H12689   9.831   7.965   6.946  0.0133 -0.0311  0.6595
   94MOL0     H12690   9.621   7.866   6.888  1.3729  1.7206  1.2166
   95MOL0     O12691  11.087   1.636   3.494  0.6364  0.4787  0.5937
   95MOL0     C12692  11.181   1.612   3.568 -0.9353 -0.0790  0.2595
   95MOL0     O12693  11.188   1.614   3.702  0.0997  0.6397  0.0708
   95MOL0     C12694  11.087   1.654   3.790 -0.6289 -0.0727  0.6360
   95MOL0     C12695  10.966   1.709   3.750  0.3858  0.6420  0.3609
   95MOL0     C12696  10.871   1.736   3.847 -0.8454 -0.3078  0.4991
   95MOL0     C12697  10.897   1.720   3.980 -0.0110 -0.5963  0.3747
   95MOL0     O12698  10.801   1.776   4.056 -0.3147  0.6049 -0.6984
   95MOL0     C12699  10.804   1.737   4.196 -0.7301  0.1630  0.0578
   95MOL0     C12700  10.667   1.766   4.267 -0.1748  0.4968 -0.8735
   95MOL0     C12701  10.581   1.861   4.187 -0.6128 -0.0195  0.7053
   95MOL0     C12702  10.455   1.911   4.264 -0.8738 -0.3102 -0.1841
   95MOL0     C12703  10.356   1.954   4.163  0.0587  0.3018  0.2080
   95MOL0     C12704  10.229   2.011   4.225  0.4031  0.1439 -0.2450
   95MOL0     C12705  10.153   1.904   4.312  0.0669  0.5103  0.7394
   95MOL0     C12706  10.026   1.957   4.370  0.8485 -0.0878 -0.0163
   95MOL0     N12707   9.925   1.951   4.263  0.1162 -0.4435  0.1795
   95MOL0     C12708   9.857   1.836   4.226 -0.2059 -0.0178  0.4812
   95MOL0     C12709   9.775   1.871   4.124 -0.6618 -0.3144  0.2820
   95MOL0     C12710   9.679   1.795   4.043  0.6814 -0.2241  0.0770
   95MOL0     C12711   9.532   1.845   4.070  0.2237 -0.2528 -0.1181
   95MOL0     C12712   9.409   1.780   3.995 -1.5763 -0.4542 -0.2007
   95MOL0     C12713   9.282   1.833   4.053  1.0203 -0.0992 -0.7828
   95MOL0     O12714   9.166   1.789   3.972  0.2816  0.4563  0.4589
   95MOL0     C12715   9.038   1.820   4.014  0.4636  0.6367  0.1855
   95MOL0     C12716   9.014   1.896   4.127 -0.5478  0.4381 -0.3908
   95MOL0     C12717   8.886   1.915   4.184  0.2089  1.0577  0.8744
   95MOL0     C12718   8.878   2.008   4.301  1.0996  0.0920 -0.5101
   95MOL0     C12719   8.777   1.853   4.116 -0.0250 -1.2474 -0.8658
   95MOL0     C12720   8.639   1.855   4.165  0.8344 -0.2514 -0.8969
   95MOL0     O12721   8.596   1.945   4.259 -0.9556  0.1567  0.3535
   95MOL0     C12722   8.460   1.961   4.293 -0.6560 -0.2263  0.1312
   95MOL0     C12723   8.427   2.053   4.393 -0.9587  0.0748  0.6456
   95MOL0     C12724   8.295   2.064   4.431  0.0333 -0.4346 -1.3363
   95MOL0     C12725   8.189   2.009   4.363 -0.2886  0.4355  0.3917
   95MOL0     O12726   8.052   2.014   4.385  0.8550 -0.1691 -0.1137
   95MOL0     C12727   8.006   2.139   4.442 -1.3302 -0.2105  0.0188
   95MOL0     C12728   7.857   2.157   4.418 -0.2589  0.3001  0.0016
   95MOL0     C12729   7.805   2.294   4.462 -0.3744  0.3271 -0.1541
   95MOL0     C12730   7.795   2.330   4.613  0.1052  0.0766  0.0475
   95MOL0     C12731   7.748   2.473   4.629 -0.2779 -0.2835  0.0096
   95MOL0     C12732   7.705   2.520   4.768  0.1091  0.1050 -0.2709
   95MOL0     C12733   7.815   2.491   4.869  0.2318 -0.4658 -0.5477
   95MOL0     C12734   7.789   2.552   5.005 -0.4063  0.4365 -0.3873
   95MOL0    Cl12735   7.616   2.564   5.041 -0.0718  0.2137  0.1291
   95MOL0     C12736   8.222   1.914   4.271 -0.6347 -0.8437 -0.2563
   95MOL0     C12737   8.354   1.889   4.241 -0.7536 -0.1967 -0.2907
   95MOL0     O12738   8.586   1.746   4.143 -0.2574  0.0499 -0.1079
   95MOL0     C12739   8.805   1.787   3.991  1.0849 -0.4447 -0.3249
   95MOL0     C12740   8.934   1.777   3.941  0.0228  1.2410 -0.4132
   95MOL0     N12741   9.802   2.000   4.091  0.6004 -0.5487 -0.1140
   95MOL0     N12742   9.882   2.055   4.180 -0.0728 -0.4981 -0.1129
   95MOL0     C12743  11.023   1.686   4.020 -0.5438  0.2733 -0.7595
   95MOL0     C12744  11.115   1.650   3.931 -0.4874 -1.0126  1.2756
   95MOL0     C12745  11.313   1.593   3.501 -0.2557 -0.2723  0.7354
   95MOL0     C12746  11.415   1.521   3.570  0.1402  0.7312  1.0992
   95MOL0     C12747  11.538   1.504   3.496  0.4105 -0.3088 -0.3913
   95MOL0     C12748  11.560   1.554   3.365 -0.4303  0.1002  0.4012
   95MOL0     O12749  11.679   1.551   3.295 -0.0588  0.1141 -0.4309
   95MOL0     C12750  11.773   1.453   3.310 -0.2540 -0.1031  0.3341
   95MOL0     C12751  11.872   1.454   3.195 -0.9056  0.4024  0.2857
   95MOL0     C12752  12.014   1.490   3.251  0.2014  0.0876  0.1806
   95MOL0     C12753  12.123   1.490   3.145  0.5772 -0.3813  0.0094
   95MOL0     C12754  12.240   1.569   3.168  0.9303 -1.2189  0.1786
   95MOL0     C12755  12.333   1.639   3.194  0.0240 -0.9469 -0.2908
   95MOL0     C12756  11.456   1.634   3.308 -0.4344 -0.1504  0.1501
   95MOL0     C12757  11.337   1.646   3.376 -0.0557 -0.8014  0.7307
   95MOL0     H12758  10.935   1.742   3.652 -0.4609 -2.8616 -0.6710
   95MOL0     H12759  10.775   1.767   3.806 -0.4955 -0.2152 -0.2502
   95MOL0     H12760  10.838   1.635   4.210  0.6958  0.8035  1.6070
   95MOL0     H12761  10.881   1.801   4.239 -0.4501  1.6330 -2.4295
   95MOL0     H12762  10.620   1.672   4.297 -1.7086  2.0979  2.3233
   95MOL0     H12763  10.682   1.810   4.366 -2.4613  0.8541 -0.6398
   95MOL0     H12764  10.645   1.942   4.152  1.8172 -1.9430  0.4072
   95MOL0     H12765  10.553   1.818   4.090 -1.7476  3.9976 -0.9915
   95MOL0     H12766  10.411   1.824   4.313 -0.2539 -1.7284 -2.0444
   95MOL0     H12767  10.485   1.988   4.335 -3.0625 -0.3499  0.8787
   95MOL0     H12768  10.403   2.023   4.092 -3.2711  1.4442 -1.1007
   95MOL0     H12769  10.325   1.868   4.102 -1.6799  1.9202 -1.3413
   95MOL0     H12770  10.253   2.105   4.275  1.5754  0.3252 -1.1150
   95MOL0     H12771  10.148   2.038   4.156 -0.1202  0.2783  0.4071
   95MOL0     H12772  10.133   1.812   4.257 -0.6418  1.9348 -1.5322
   95MOL0     H12773  10.220   1.875   4.394 -0.2261  0.6584  1.0374
   95MOL0     H12774  10.035   2.058   4.411  1.7499 -0.6144  1.1353
   95MOL0     H12775   9.993   1.895   4.454  0.7621 -0.9184 -0.6514
   95MOL0     H12776   9.851   1.741   4.278  0.6895  0.1615  0.9239
   95MOL0     H12777   9.712   1.827   3.944  1.1755  0.3427  0.4197
   95MOL0     H12778   9.682   1.688   4.066 -2.4464 -0.1339  1.3795
   95MOL0     H12779   9.527   1.952   4.048  1.4055 -0.1585 -0.0085
   95MOL0     H12780   9.515   1.822   4.176  0.8078 -1.8297 -0.3316
   95MOL0     H12781   9.414   1.677   4.031  0.4241  0.0554  1.1443
   95MOL0     H12782   9.414   1.790   3.886 -0.8695  2.7791  0.0416
   95MOL0     H12783   9.279   1.941   4.040  1.4383 -0.0521 -0.5172
   95MOL0     H12784   9.276   1.798   4.157  0.3973 -1.1922 -1.1640
   95MOL0     H12785   9.103   1.935   4.177  0.3185 -0.3641 -1.2674
   95MOL0     H12786   8.802   2.080   4.272 -0.7136 -2.6316 -3.1202
   95MOL0     H12787   8.844   1.950   4.388  1.7635  1.5697  0.7920
   95MOL0     H12788   8.972   2.063   4.310  1.6747 -1.0178  0.7417
   95MOL0     H12789   8.508   2.105   4.441  0.3767 -1.7140  0.4464
   95MOL0     H12790   8.278   2.112   4.527  0.9857 -0.9091 -0.9149
   95MOL0     H12791   8.031   2.141   4.549 -0.0078  2.5785 -0.2634
   95MOL0     H12792   8.061   2.219   4.393 -0.9895  0.3150  1.2236
   95MOL0     H12793   7.838   2.162   4.311 -3.4312  1.2321  0.5170
   95MOL0     H12794   7.798   2.070   4.449  2.6444 -2.3038 -1.2925
   95MOL0     H12795   7.703   2.299   4.423 -0.8437  1.1131  1.1048
   95MOL0     H12796   7.860   2.368   4.403 -0.8565  0.3655 -0.5667
   95MOL0     H12797   7.714   2.265   4.648  0.4412 -1.4627 -1.8767
   95MOL0     H12798   7.888   2.310   4.667  0.4737 -0.7178 -0.8575
   95MOL0     H12799   7.665   2.479   4.558  1.8239  0.8036 -2.5338
   95MOL0     H12800   7.821   2.543   4.586 -0.0787 -0.4138  0.1328
   95MOL0     H12801   7.681   2.626   4.752 -2.4551 -0.5351 -1.1334
   95MOL0     H12802   7.611   2.471   4.796  1.0167 -1.8983 -0.5621
   95MOL0     H12803   7.909   2.538   4.837 -1.3303  2.8190 -0.6903
   95MOL0     H12804   7.836   2.384   4.881  1.1840 -0.2919 -0.5839
   95MOL0     H12805   7.840   2.649   5.003 -1.0787  0.8074 -3.2649
   95MOL0     H12806   7.848   2.486   5.069  1.8485  1.8488 -0.8904
   95MOL0     H12807   8.143   1.857   4.223  0.1930 -0.1782 -2.5258
   95MOL0     H12808   8.375   1.796   4.189 -0.9538 -0.8481  0.7574
   95MOL0     H12809   8.722   1.737   3.942 -0.6303  0.2304  1.7293
   95MOL0     H12810   8.953   1.729   3.846  0.4540  1.7805 -0.6068
   95MOL0     H12811  11.056   1.688   4.123  1.2338  3.1448 -1.2967
   95MOL0     H12812  11.213   1.619   3.964 -0.2767  0.1203  1.7550
   95MOL0     H12813  11.391   1.475   3.665 -2.8671  2.5395  1.3623
   95MOL0     H12814  11.614   1.438   3.536 -0.0421 -1.1126 -0.8338
   95MOL0     H12815  11.827   1.468   3.404  1.5808  3.2626 -1.0577
   95MOL0     H12816  11.717   1.360   3.314 -2.2275  1.0246  0.1509
   95MOL0     H12817  11.842   1.520   3.113  0.7993 -1.5151 -2.0279
   95MOL0     H12818  11.874   1.358   3.142  0.6567  0.9028 -0.6105
   95MOL0     H12819  12.034   1.417   3.331  6.0260 -0.9702 -1.7585
   95MOL0     H12820  12.006   1.592   3.291 -1.5423 -0.0008  0.1177
   95MOL0     H12821  12.087   1.521   3.047 -1.4217 -1.9228  0.1779
   95MOL0     H12822  12.155   1.386   3.133  0.5824 -0.2850 -0.8261
   95MOL0     H12823  12.410   1.702   3.235  1.4103 -3.0186  0.4561
   95MOL0     H12824  11.493   1.673   3.214 -3.3218  2.6459  0.0301
   95MOL0     H12825  11.250   1.695   3.331  1.4008  1.2081 -0.0460
   96MOL0     O12826   8.959   1.624   9.270 -0.0773 -0.0442 -0.0942
   96MOL0     C12827   8.934   1.551   9.367  0.7610 -0.3668  0.3741
   96MOL0     O12828   8.819   1.562   9.440  0.6518 -0.3998 -0.0689
   96MOL0     C12829   8.727   1.652   9.392 -0.1667 -0.1358 -0.6579
   96MOL0     C12830   8.724   1.785   9.449 -0.6024  0.0798 -0.2142
   96MOL0     C12831   8.620   1.866   9.395  0.3167 -0.1082  0.5415
   96MOL0     C12832   8.522   1.826   9.303  0.1669  0.9108 -0.1402
   96MOL0     O12833   8.423   1.918   9.280 -0.4733  0.5984  0.1165
   96MOL0     C12834   8.335   1.887   9.170 -0.5541 -0.5081 -0.1484
   96MOL0     C12835   8.241   2.004   9.146 -1.3123  0.7801  0.0710
   96MOL0     C12836   8.137   2.035   9.251  0.4276 -0.0814  0.0041
   96MOL0     C12837   8.037   1.921   9.264  0.4117 -0.0594 -0.0229
   96MOL0     C12838   7.922   1.960   9.352  0.2496 -0.4225  0.4660
   96MOL0     C12839   7.811   1.855   9.373 -0.5360  0.1967  0.5493
   96MOL0     C12840   7.688   1.914   9.437 -0.1167  0.4999 -0.0772
   96MOL0     C12841   7.576   1.810   9.426  0.1192 -0.0183 -0.3691
   96MOL0     N12842   7.445   1.853   9.473 -0.3843 -0.0123 -0.7988
   96MOL0     C12843   7.390   1.822   9.602 -0.7130 -0.6944  0.3778
   96MOL0     C12844   7.278   1.910   9.619 -0.0472  0.9568  0.1645
   96MOL0     C12845   7.183   1.879   9.728  0.0186  0.2863  0.5635
   96MOL0     C12846   7.039   1.842   9.690  0.6782 -0.0695  0.2963
   96MOL0     C12847   7.024   1.716   9.610  0.3134 -0.1618 -0.2291
   96MOL0     C12848   6.878   1.668   9.600 -0.3961 -0.2917 -0.6410
   96MOL0     O12849   6.787   1.770   9.631  0.3987  0.3005  0.1576
   96MOL0     C12850   6.657   1.727   9.626  0.5084  0.0882  0.4239
   96MOL0     C12851   6.561   1.824   9.671 -0.3495  0.4329  0.0715
   96MOL0     C12852   6.423   1.794   9.676  0.1611  0.4443 -0.3810
   96MOL0     C12853   6.335   1.916   9.710  0.9671 -0.8692 -0.6842
   96MOL0     C12854   6.370   1.673   9.616  0.5614 -0.6317  0.1867
   96MOL0     C12855   6.228   1.632   9.621 -0.0922  0.1957  0.5254
   96MOL0     O12856   6.199   1.504   9.572  0.3763  0.4344 -0.1843
   96MOL0     C12857   6.064   1.489   9.554  0.1325 -0.0563 -0.8627
   96MOL0     C12858   6.019   1.495   9.425 -0.5662  0.7568 -0.1995
   96MOL0     C12859   5.894   1.446   9.399  0.4118 -0.0257  0.1546
   96MOL0     C12860   5.807   1.415   9.504 -0.0125  0.6169  0.2645
   96MOL0     O12861   5.674   1.401   9.472 -0.4909  0.6086  0.1317
   96MOL0     C12862   5.603   1.291   9.522 -0.4465  0.5641  0.5721
   96MOL0     C12863   5.463   1.293   9.454 -0.0266  0.2676  0.2087
   96MOL0     C12864   5.473   1.241   9.313 -0.3577 -0.6421 -0.0544
   96MOL0     C12865   5.330   1.212   9.272 -0.3068  0.1598  0.6039
   96MOL0     C12866   5.316   1.207   9.111 -0.8068 -0.1056 -0.0723
   96MOL0     C12867   5.188   1.246   9.053 -0.3196 -0.1223 -1.0228
   96MOL0     C12868   5.087   1.140   9.049 -0.1672  0.0651  0.3893
   96MOL0     C12869   4.939   1.184   9.028  0.2394 -0.8507  0.0402
   96MOL0    Cl12870   4.926   1.340   8.939 -0.0290  0.1885  0.5299
   96MOL0     C12871   5.852   1.419   9.636 -0.1537 -0.3015 -0.1784
   96MOL0     C12872   5.987   1.455   9.663 -0.4438 -0.0734 -0.5759
   96MOL0     O12873   6.147   1.714   9.649  0.4835  0.4517  0.1198
   96MOL0     C12874   6.466   1.580   9.574 -0.7143 -0.6572 -0.2288
   96MOL0     C12875   6.607   1.606   9.576 -0.0459 -0.0746 -0.9193
   96MOL0     N12876   7.275   1.989   9.504  0.4061 -0.0278 -0.2537
   96MOL0     N12877   7.375   1.957   9.421  0.1069 -0.3634  0.1436
   96MOL0     C12878   8.538   1.698   9.251 -0.2933  1.3908  0.3276
   96MOL0     C12879   8.632   1.608   9.300  0.2401  0.0812 -0.0576
   96MOL0     C12880   9.038   1.454   9.394  0.2842  0.5834 -0.0725
   96MOL0     C12881   9.032   1.380   9.514 -0.0562  0.2847 -0.5123
   96MOL0     C12882   9.128   1.278   9.542 -0.0151 -0.3033  0.5766
   96MOL0     C12883   9.225   1.248   9.443  0.5441  0.0086 -0.2473
   96MOL0     O12884   9.307   1.134   9.472  0.1078  0.5370  0.6898
   96MOL0     C12885   9.390   1.070   9.375 -0.0895  0.6340 -0.4310
   96MOL0     C12886   9.300   1.005   9.270 -0.1721 -0.1603  0.3075
   96MOL0     C12887   9.222   0.889   9.320  0.2688 -0.2718 -0.8768
   96MOL0     C12888   9.150   0.806   9.219 -0.1765 -0.4072  0.4859
   96MOL0     C12889   9.057   0.727   9.300  0.5480  0.0118 -0.1094
   96MOL0     C12890   8.988   0.670   9.382  0.0258  0.8894  1.0628
   96MOL0     C12891   9.237   1.320   9.323 -0.1714 -0.4501  0.6512
   96MOL0     C12892   9.135   1.416   9.295 -0.7392 -0.3541 -0.2474
   96MOL0     H12893   8.791   1.827   9.523 -1.1945 -0.0722  0.4178
   96MOL0     H12894   8.613   1.967   9.434  0.7098 -0.4813  1.6401
   96MOL0     H12895   8.391   1.869   9.078  0.7541 -1.0078  0.7097
   96MOL0     H12896   8.290   1.791   9.198 -0.9023 -0.3484 -0.1549
   96MOL0     H12897   8.299   2.092   9.117 -1.5574  1.1973  0.8066
   96MOL0     H12898   8.181   1.990   9.056  2.9671 -0.6622 -2.8249
   96MOL0     H12899   8.180   2.051   9.350  0.6627 -1.2798  0.1098
   96MOL0     H12900   8.082   2.126   9.225  2.0356  1.3634  1.4667
   96MOL0     H12901   8.002   1.899   9.163  2.7210  1.6221 -1.3019
   96MOL0     H12902   8.094   1.840   9.309  0.7294 -1.6610 -3.0690
   96MOL0     H12903   7.954   1.994   9.451 -0.9726 -0.9459  1.0597
   96MOL0     H12904   7.884   2.052   9.305  1.9562 -0.3481 -0.8563
   96MOL0     H12905   7.789   1.798   9.282 -0.9252 -0.0692  0.8058
   96MOL0     H12906   7.848   1.788   9.451 -2.2442 -2.3912 -0.7164
   96MOL0     H12907   7.702   1.963   9.534 -0.2093  2.0325 -0.8111
   96MOL0     H12908   7.657   1.993   9.368  0.8678  1.6747  0.7942
   96MOL0     H12909   7.616   1.725   9.481  2.1935  0.5804 -0.8437
   96MOL0     H12910   7.568   1.770   9.324  1.1881 -1.0606 -0.0591
   96MOL0     H12911   7.424   1.748   9.672 -1.7436 -2.3698 -0.8169
   96MOL0     H12912   7.221   1.804   9.798  0.7284  0.7248  0.6616
   96MOL0     H12913   7.181   1.978   9.775 -0.3527  1.3773 -1.6310
   96MOL0     H12914   6.996   1.927   9.636 -0.2376 -1.1295 -0.6888
   96MOL0     H12915   6.983   1.821   9.781  2.7530  1.0807  1.9497
   96MOL0     H12916   7.080   1.640   9.666 -0.5754 -0.7137 -0.0631
   96MOL0     H12917   7.061   1.725   9.508 -0.0860 -5.1008 -1.0799
   96MOL0     H12918   6.859   1.591   9.676 -1.7347  1.5620  0.9813
   96MOL0     H12919   6.867   1.623   9.500 -0.4754 -1.0925 -0.2845
   96MOL0     H12920   6.601   1.920   9.700  0.8683 -0.2904  0.8954
   96MOL0     H12921   6.274   1.907   9.800  3.2757 -1.4704  0.9377
   96MOL0     H12922   6.397   2.005   9.727 -0.0878 -0.4059  1.0139
   96MOL0     H12923   6.274   1.945   9.625  0.7581  1.2769  0.1372
   96MOL0     H12924   6.081   1.522   9.340 -0.5622 -0.7324 -0.6938
   96MOL0     H12925   5.851   1.445   9.299  1.0569 -2.7366 -0.1613
   96MOL0     H12926   5.656   1.199   9.496 -1.0447  0.5451 -0.6579
   96MOL0     H12927   5.590   1.288   9.631  0.1017 -1.5186  0.6254
   96MOL0     H12928   5.402   1.220   9.508  0.1467  0.0961  0.1735
   96MOL0     H12929   5.414   1.391   9.454  0.4427  0.5421  2.1100
   96MOL0     H12930   5.537   1.152   9.316 -2.1162 -1.9566  0.3952
   96MOL0     H12931   5.518   1.322   9.256 -2.3782 -0.1970 -1.0877
   96MOL0     H12932   5.295   1.118   9.316  0.0224  0.4691  1.5643
   96MOL0     H12933   5.264   1.293   9.305  1.1323  0.5954  2.6445
   96MOL0     H12934   5.349   1.112   9.068  3.4266  0.1779  2.0581
   96MOL0     H12935   5.379   1.291   9.081 -0.3006 -0.2320  0.6135
   96MOL0     H12936   5.153   1.330   9.114 -0.2096 -1.6785  1.3041
   96MOL0     H12937   5.207   1.281   8.951 -3.5759  0.0030 -1.7240
   96MOL0     H12938   5.082   1.080   9.140 -3.2863  2.4389  1.9775
   96MOL0     H12939   5.123   1.080   8.965  0.0340  1.3443 -0.4800
   96MOL0     H12940   4.877   1.194   9.117 -2.4484 -1.7488 -1.6113
   96MOL0     H12941   4.886   1.106   8.972 -1.1189  0.1727 -0.1194
   96MOL0     H12942   5.779   1.395   9.713 -0.3106 -2.1012 -0.8582
   96MOL0     H12943   6.028   1.460   9.763  0.0530  0.0420 -0.7823
   96MOL0     H12944   6.435   1.486   9.530 -1.9432  0.6949 -2.4520
   96MOL0     H12945   6.683   1.535   9.546  2.1822  2.3422 -1.3427
   96MOL0     H12946   8.483   1.660   9.165  1.9322 -2.2506  0.3166
   96MOL0     H12947   8.643   1.509   9.257 -0.2678  0.0263 -0.0593
   96MOL0     H12948   8.950   1.405   9.581  0.0140 -0.1753 -0.2520
   96MOL0     H12949   9.122   1.229   9.639 -1.4322 -0.1469  0.5976
   96MOL0     H12950   9.461   1.144   9.337  1.3546 -0.2726  0.4347
   96MOL0     H12951   9.452   0.999   9.429 -0.4785  1.1702  0.7453
   96MOL0     H12952   9.373   0.966   9.198 -1.1240  2.2917 -2.1486
   96MOL0     H12953   9.237   1.073   9.213 -0.4029 -0.5148  0.1358
   96MOL0     H12954   9.156   0.916   9.404 -0.1873 -0.6608 -1.1059
   96MOL0     H12955   9.287   0.817   9.370  1.0130  0.1823 -1.1718
   96MOL0     H12956   9.217   0.749   9.155  2.1465 -2.1285  4.0895
   96MOL0     H12957   9.078   0.861   9.158 -1.6583  2.3539  4.3154
   96MOL0     H12958   8.935   0.640   9.470 -0.2124 -0.0179  0.6246
   96MOL0     H12959   9.316   1.307   9.250  1.5413  0.0582  2.3179
   96MOL0     H12960   9.138   1.467   9.199  2.0558 -0.2168 -0.1573
   97MOL0     O12961   6.375   1.864   5.445 -0.5162  0.2264  1.1460
   97MOL0     C12962   6.460   1.894   5.357 -0.0388 -0.9230 -0.3462
   97MOL0     O12963   6.452   1.981   5.250  0.0393 -0.2172  0.3802
   97MOL0     C12964   6.344   2.065   5.246  0.5779 -0.0299 -0.1589
   97MOL0     C12965   6.367   2.201   5.268 -0.5283 -0.0049  1.4551
   97MOL0     C12966   6.259   2.290   5.260 -0.4545  0.1374  0.9542
   97MOL0     C12967   6.127   2.252   5.247  0.5449  0.6397  0.5970
   97MOL0     O12968   6.028   2.343   5.250  0.0882  0.0019  0.8270
   97MOL0     C12969   5.897   2.286   5.262  0.0568 -0.7044  0.5243
   97MOL0     C12970   5.783   2.377   5.302  0.5628  0.3726 -0.1215
   97MOL0     C12971   5.642   2.326   5.257 -0.0617  0.6281 -0.3088
   97MOL0     C12972   5.570   2.436   5.190  0.5334  0.2658  0.2143
   97MOL0     C12973   5.426   2.425   5.231 -0.1993  0.3802  0.1480
   97MOL0     C12974   5.343   2.515   5.137 -0.1877  0.2314 -0.2806
   97MOL0     C12975   5.193   2.487   5.160 -0.4407 -0.7434  0.4005
   97MOL0     C12976   5.111   2.569   5.061  0.8345  0.0367 -0.5523
   97MOL0     N12977   4.992   2.484   5.021  0.2045  0.2025 -1.1726
   97MOL0     C12978   4.995   2.369   4.939 -0.2786 -0.7453  0.1624
   97MOL0     C12979   4.859   2.338   4.924 -0.1416  0.6707  0.6329
   97MOL0     C12980   4.805   2.240   4.822 -1.0569 -0.4639 -0.3739
   97MOL0     C12981   4.671   2.277   4.767  0.0094  0.1007  0.3351
   97MOL0     C12982   4.603   2.168   4.674 -0.8751  0.3614  0.3554
   97MOL0     C12983   4.479   2.223   4.592 -0.5979 -0.2557  0.4247
   97MOL0     O12984   4.385   2.292   4.677 -1.2541 -0.2571 -1.0852
   97MOL0     C12985   4.252   2.294   4.651  0.2951 -0.6255 -0.1440
   97MOL0     C12986   4.173   2.364   4.744 -0.0108  0.0276  0.3685
   97MOL0     C12987   4.042   2.397   4.717 -0.6799 -0.0080 -0.5574
   97MOL0     C12988   3.983   2.488   4.820 -0.0461  0.1008 -0.4813
   97MOL0     C12989   3.978   2.338   4.610 -0.5015  0.0271  0.0588
   97MOL0     C12990   3.825   2.342   4.595  0.0363 -0.4457  0.2300
   97MOL0     O12991   3.784   2.317   4.464 -0.5252  0.2257  0.9207
   97MOL0     C12992   3.650   2.288   4.448 -0.2280 -0.4296 -0.3034
   97MOL0     C12993   3.560   2.388   4.412 -0.8382  0.1750  0.0148
   97MOL0     C12994   3.428   2.363   4.381  0.1070 -0.7468 -0.7162
   97MOL0     C12995   3.380   2.233   4.392  0.4883 -0.6485  0.0670
   97MOL0     O12996   3.250   2.222   4.356  0.1070 -0.0543  0.3270
   97MOL0     C12997   3.177   2.106   4.401 -0.6642  0.0943 -0.3125
   97MOL0     C12998   3.038   2.166   4.436 -0.0815  0.9013  0.4161
   97MOL0     C12999   2.944   2.061   4.484  1.0206  0.5905  0.1305
   97MOL0     C13000   2.802   2.100   4.477 -0.5071 -0.4481 -0.0641
   97MOL0     C13001   2.711   1.990   4.430 -0.2149  0.3875  0.7828
   97MOL0     C13002   2.556   2.019   4.429 -0.2354 -0.1570  0.0128
   97MOL0     C13003   2.502   2.032   4.568  0.9975  0.4374  0.7858
   97MOL0     C13004   2.354   2.064   4.557  0.5840 -0.3019 -0.4172
   97MOL0    Cl13005   2.267   1.924   4.494  0.2656 -0.0674  0.1111
   97MOL0     C13006   3.469   2.137   4.436  0.2245 -0.0170  0.1217
   97MOL0     C13007   3.609   2.157   4.458 -0.1115 -0.2206 -0.3789
   97MOL0     O13008   3.755   2.386   4.683  0.2968  0.0721  0.5752
   97MOL0     C13009   4.052   2.272   4.510 -0.0325  0.0077 -0.7292
   97MOL0     C13010   4.192   2.247   4.531 -1.1627 -0.1012 -0.0302
   97MOL0     N13011   4.788   2.434   4.997  0.4526 -0.5234 -0.3076
   97MOL0     N13012   4.867   2.517   5.061  0.1286  0.6941 -0.4655
   97MOL0     C13013   6.114   2.114   5.221  0.4687 -0.9404 -1.4397
   97MOL0     C13014   6.216   2.023   5.223 -0.5868 -0.1248 -0.2934
   97MOL0     C13015   6.591   1.835   5.371  0.1217  0.8336 -0.9605
   97MOL0     C13016   6.623   1.756   5.487  0.1895  0.6839  0.3358
   97MOL0     C13017   6.748   1.711   5.515 -0.1767 -0.4785 -0.9194
   97MOL0     C13018   6.856   1.734   5.427  0.4918 -0.3523 -0.5305
   97MOL0     O13019   6.983   1.683   5.445  0.5325 -0.3493  0.3935
   97MOL0     C13020   7.048   1.759   5.546 -0.3734  0.2776  0.5324
   97MOL0     C13021   7.177   1.693   5.605  0.6862 -0.1120  0.3230
   97MOL0     C13022   7.282   1.636   5.512  0.1776  0.2264 -0.4989
   97MOL0     C13023   7.248   1.512   5.423  0.3788 -0.7036  0.7345
   97MOL0     C13024   7.206   1.393   5.504 -0.2495  0.4709 -0.2381
   97MOL0     C13025   7.175   1.290   5.569 -0.8745  0.2837 -0.7299
   97MOL0     C13026   6.836   1.819   5.316 -0.0867  0.2458 -0.3846
   97MOL0     C13027   6.700   1.863   5.278  0.4727  0.4624  0.5864
   97MOL0     H13028   6.467   2.236   5.288 -1.1793  0.9119  3.4691
   97MOL0     H13029   6.276   2.396   5.274  0.1049  0.0940  0.6126
   97MOL0     H13030   5.877   2.255   5.159  0.7984 -0.5327  0.3263
   97MOL0     H13031   5.893   2.200   5.329  0.5538 -1.0811  0.0782
   97MOL0     H13032   5.788   2.411   5.405  1.1387  0.9184 -0.3204
   97MOL0     H13033   5.809   2.464   5.240  0.2777  0.1892 -0.5073
   97MOL0     H13034   5.648   2.245   5.184  0.6922  2.7825 -2.8032
   97MOL0     H13035   5.586   2.296   5.346 -0.7307  1.8448 -0.3016
   97MOL0     H13036   5.607   2.535   5.219  0.2899  0.0002  1.4789
   97MOL0     H13037   5.568   2.424   5.081 -2.4241 -2.4662  0.4197
   97MOL0     H13038   5.382   2.324   5.229  2.0291 -0.6424 -0.2663
   97MOL0     H13039   5.418   2.448   5.338  2.3195 -1.9022  0.9535
   97MOL0     H13040   5.364   2.622   5.150  3.0189 -0.0573 -2.1275
   97MOL0     H13041   5.371   2.491   5.034  0.5048 -0.6609  0.1008
   97MOL0     H13042   5.169   2.385   5.130 -2.3203 -0.3740  0.5428
   97MOL0     H13043   5.178   2.516   5.264  1.0267  1.4767  0.0653
   97MOL0     H13044   5.160   2.607   4.971 -0.5261  2.1893 -0.4416
   97MOL0     H13045   5.071   2.655   5.116 -1.2440 -1.0227 -0.2892
   97MOL0     H13046   5.076   2.323   4.884  1.2105 -0.8784  2.3223
   97MOL0     H13047   4.882   2.234   4.744  2.2555  0.6868  2.5381
   97MOL0     H13048   4.810   2.141   4.869  4.5203 -0.7537 -0.8751
   97MOL0     H13049   4.682   2.369   4.708  1.2579 -0.2381  0.0093
   97MOL0     H13050   4.602   2.289   4.851 -2.1998  0.3175 -1.4092
   97MOL0     H13051   4.565   2.089   4.739  2.0762 -2.0002 -0.5246
   97MOL0     H13052   4.677   2.129   4.603 -0.6622  1.3010  0.0369
   97MOL0     H13053   4.433   2.139   4.539  1.3513  0.9641 -3.6736
   97MOL0     H13054   4.505   2.292   4.511 -0.7400 -0.0934  0.5179
   97MOL0     H13055   4.222   2.391   4.837  0.3640  0.9230 -0.0764
   97MOL0     H13056   3.932   2.566   4.764  0.4510  0.1725 -0.8381
   97MOL0     H13057   3.905   2.436   4.877  0.1017  0.4093  0.0085
   97MOL0     H13058   4.052   2.527   4.896  0.4485 -0.8250 -0.4357
   97MOL0     H13059   3.596   2.488   4.432 -0.0016 -0.4324  1.6870
   97MOL0     H13060   3.349   2.437   4.373 -1.4749 -2.1202  1.4295
   97MOL0     H13061   3.174   2.029   4.323  1.1377  0.1781 -0.5070
   97MOL0     H13062   3.222   2.060   4.490  1.3643  1.1340 -0.7450
   97MOL0     H13063   3.055   2.245   4.511 -0.7303  0.2097  1.3206
   97MOL0     H13064   3.003   2.222   4.349  0.7918 -0.5317 -0.8990
   97MOL0     H13065   2.972   2.026   4.584  0.1674  1.0830  0.5535
   97MOL0     H13066   2.956   1.974   4.419 -0.1779  1.8961 -1.9589
   97MOL0     H13067   2.761   2.139   4.571  0.6054 -0.1725  0.3267
   97MOL0     H13068   2.804   2.188   4.412  4.2955 -1.2288 -1.3646
   97MOL0     H13069   2.724   1.898   4.488 -1.7715  1.1315  2.4358
   97MOL0     H13070   2.740   1.973   4.326 -0.5763 -2.0054  1.0164
   97MOL0     H13071   2.534   2.110   4.372  0.9716  0.5825  0.6925
   97MOL0     H13072   2.514   1.930   4.381  2.2179 -1.5612  0.3199
   97MOL0     H13073   2.555   2.112   4.621  0.7102 -0.4491  2.4907
   97MOL0     H13074   2.515   1.935   4.617 -1.3901 -1.7802 -2.5354
   97MOL0     H13075   2.331   2.153   4.498  0.7560 -0.6707 -1.0534
   97MOL0     H13076   2.325   2.088   4.659  0.5414 -0.4324 -0.3984
   97MOL0     H13077   3.437   2.035   4.458  0.4644  0.1012  1.0486
   97MOL0     H13078   3.678   2.078   4.486 -1.1802 -0.7562  0.8719
   97MOL0     H13079   4.009   2.235   4.418 -0.8243 -0.8274 -0.0450
   97MOL0     H13080   4.244   2.218   4.440  1.3005  1.6658  0.7102
   97MOL0     H13081   6.016   2.066   5.223 -0.3649  0.7190  0.2283
   97MOL0     H13082   6.203   1.917   5.205 -0.5172 -0.2624  0.4184
   97MOL0     H13083   6.549   1.740   5.565  0.2766 -1.4802  0.0227
   97MOL0     H13084   6.769   1.657   5.607  1.2663 -0.4460 -1.2048
   97MOL0     H13085   7.082   1.851   5.498  0.5297 -0.9162 -1.2315
   97MOL0     H13086   6.978   1.781   5.627 -1.2020  2.3321 -0.6821
   97MOL0     H13087   7.147   1.605   5.662  1.0334 -0.4406  0.0023
   97MOL0     H13088   7.233   1.764   5.666  3.1499 -0.0363 -1.8678
   97MOL0     H13089   7.369   1.609   5.572 -0.1730 -1.8665 -0.8463
   97MOL0     H13090   7.315   1.715   5.444  1.1390 -0.9785 -1.4993
   97MOL0     H13091   7.334   1.482   5.362 -0.8453 -0.2299 -1.3111
   97MOL0     H13092   7.168   1.536   5.353  0.1958  0.9613  1.4802
   97MOL0     H13093   7.147   1.205   5.628  1.3772  0.3372  0.5074
   97MOL0     H13094   6.915   1.838   5.243 -2.3378  0.4671 -2.9002
   97MOL0     H13095   6.684   1.935   5.199  2.2910 -0.0552 -0.3140
   98MOL0     O13096  10.726   5.100   6.234  0.3249  0.7122 -0.0714
   98MOL0     C13097  10.681   5.138   6.122 -0.8908 -0.0260 -1.4603
   98MOL0     O13098  10.586   5.235   6.115 -0.6756  0.1405  0.6099
   98MOL0     C13099  10.500   5.264   6.218  0.6679 -1.2268 -0.1659
   98MOL0     C13100  10.531   5.369   6.307 -0.5799  0.2510 -1.0046
   98MOL0     C13101  10.450   5.400   6.412  0.5872 -0.0279 -0.4035
   98MOL0     C13102  10.321   5.345   6.431 -0.0326 -0.1482 -0.5657
   98MOL0     O13103  10.248   5.385   6.540  0.6540 -0.0663 -0.0518
   98MOL0     C13104  10.125   5.312   6.569 -0.0831 -0.2339 -0.3438
   98MOL0     C13105  10.058   5.344   6.702  0.7365  0.7586  0.9802
   98MOL0     C13106   9.975   5.476   6.700 -0.1292 -0.0315  0.5284
   98MOL0     C13107   9.863   5.477   6.606  0.5193 -0.3172 -0.5063
   98MOL0     C13108   9.779   5.605   6.620  0.2868  0.4183  0.3555
   98MOL0     C13109   9.685   5.619   6.498  0.5477  0.7199  0.5989
   98MOL0     C13110   9.566   5.710   6.523  0.0013 -0.2321 -0.0059
   98MOL0     C13111   9.483   5.741   6.391  0.8271  0.3699  0.3125
   98MOL0     N13112   9.431   5.614   6.330  0.1127 -0.1057  0.4306
   98MOL0     C13113   9.477   5.555   6.213  0.6111 -0.1431  0.1902
   98MOL0     C13114   9.397   5.450   6.190 -0.2475  0.3278  0.1759
   98MOL0     C13115   9.428   5.337   6.095 -0.1232  0.6375  0.7934
   98MOL0     C13116   9.462   5.203   6.158  0.2841  0.0107 -0.3147
   98MOL0     C13117   9.577   5.206   6.266 -0.0386 -0.7657  0.4824
   98MOL0     C13118   9.723   5.230   6.214  0.0781 -0.4796 -1.1908
   98MOL0     O13119   9.751   5.101   6.149  0.4140  0.0667 -0.5888
   98MOL0     C13120   9.873   5.068   6.100  0.2644  0.0255  0.5853
   98MOL0     C13121   9.962   5.163   6.065 -0.5417 -0.1403 -0.6465
   98MOL0     C13122  10.081   5.132   5.992  0.2883  0.3092  0.7694
   98MOL0     C13123  10.154   5.252   5.937  0.3424 -0.5957  0.4809
   98MOL0     C13124  10.110   4.993   5.971  0.2056 -0.6365  0.1083
   98MOL0     C13125  10.238   4.949   5.896 -0.0692 -0.9532 -0.8400
   98MOL0     O13126  10.235   4.811   5.862 -0.4315 -0.3668  0.5140
   98MOL0     C13127  10.346   4.755   5.815  0.1595 -0.6451  0.2325
   98MOL0     C13128  10.337   4.685   5.695 -0.3395 -0.0854  0.0057
   98MOL0     C13129  10.448   4.622   5.645  0.4533  0.0253 -0.6268
   98MOL0     C13130  10.575   4.633   5.696  0.0527  0.9647 -0.6359
   98MOL0     O13131  10.670   4.549   5.641 -0.3886 -0.0609 -0.0299
   98MOL0     C13132  10.795   4.626   5.608  0.5639  0.7248  0.3971
   98MOL0     C13133  10.863   4.568   5.475  0.2300 -0.0650 -0.0058
   98MOL0     C13134  10.972   4.461   5.498  0.5949  0.4804  0.4537
   98MOL0     C13135  11.054   4.436   5.369 -0.1027  0.6863 -0.5136
   98MOL0     C13136  11.170   4.339   5.395  0.3364  0.5778 -0.4284
   98MOL0     C13137  11.233   4.285   5.263  1.1155 -0.1927 -0.5199
   98MOL0     C13138  11.316   4.158   5.276  0.2966  1.1924 -0.3633
   98MOL0     C13139  11.407   4.133   5.161 -0.4363 -0.1715  0.6392
   98MOL0    Cl13140  11.527   4.258   5.170 -0.1310  0.1466 -0.1123
   98MOL0     C13141  10.585   4.686   5.824 -0.2635 -0.4975  0.2912
   98MOL0     C13142  10.472   4.754   5.882  0.3271  0.6445 -0.1312
   98MOL0     O13143  10.324   5.029   5.881 -0.2404 -0.0066  0.2795
   98MOL0     C13144  10.002   4.900   5.992  0.0395  0.3792 -0.4368
   98MOL0     C13145   9.892   4.939   6.065 -0.0549  0.3129 -0.3755
   98MOL0     N13146   9.290   5.452   6.275 -0.0913  0.2749  0.1534
   98MOL0     N13147   9.319   5.543   6.365 -0.1017 -0.4429  1.0815
   98MOL0     C13148  10.280   5.248   6.339 -0.0658 -0.4655 -0.2363
   98MOL0     C13149  10.375   5.204   6.242  0.0514 -0.1089 -0.8003
   98MOL0     C13150  10.757   5.092   6.004 -0.2381  0.4222  0.4697
   98MOL0     C13151  10.894   5.065   6.022 -0.3420 -0.6615 -0.1747
   98MOL0     C13152  10.966   5.013   5.920 -0.2179  1.1335 -0.8614
   98MOL0     C13153  10.914   4.968   5.802 -0.2668  0.0364 -0.5360
   98MOL0     O13154  10.974   4.895   5.708 -0.2796 -0.3378  0.2703
   98MOL0     C13155  11.108   4.854   5.732  0.6574  0.7421  0.2833
   98MOL0     C13156  11.153   4.791   5.602 -0.6882  0.0508 -1.1017
   98MOL0     C13157  11.288   4.716   5.619 -0.5074 -0.3278 -0.7047
   98MOL0     C13158  11.339   4.695   5.476  0.0112  0.5060 -1.3316
   98MOL0     C13159  11.439   4.595   5.474 -0.1971  1.0570  0.3500
   98MOL0     C13160  11.505   4.495   5.446 -0.6225  0.8736  0.1973
   98MOL0     C13161  10.776   4.984   5.780 -0.2834  0.2263  0.7531
   98MOL0     C13162  10.702   5.051   5.886 -0.0251  0.5248  0.8677
   98MOL0     H13163  10.627   5.415   6.287  0.8600 -0.9403  2.3557
   98MOL0     H13164  10.491   5.478   6.476  0.2291  1.5546 -2.0206
   98MOL0     H13165  10.047   5.332   6.495 -3.7186 -0.1079  3.1951
   98MOL0     H13166  10.141   5.206   6.591  0.5865  0.4094  2.8217
   98MOL0     H13167  10.006   5.251   6.726  1.9743  0.0690  1.1055
   98MOL0     H13168  10.139   5.358   6.775  1.9191  0.6078 -0.2657
   98MOL0     H13169   9.945   5.489   6.805  0.7948  0.4403  0.7415
   98MOL0     H13170  10.046   5.553   6.670 -0.0371  0.4546  1.9337
   98MOL0     H13171   9.901   5.469   6.504  0.0129 -2.0665 -0.5990
   98MOL0     H13172   9.806   5.388   6.633 -0.2989  0.7319  1.3721
   98MOL0     H13173   9.722   5.588   6.712  0.7171 -0.4198  0.4749
   98MOL0     H13174   9.846   5.690   6.637 -0.6691  1.2640 -0.0436
   98MOL0     H13175   9.745   5.648   6.411 -1.3507  0.9665 -0.6783
   98MOL0     H13176   9.655   5.516   6.476 -0.2052  0.2646  3.3178
   98MOL0     H13177   9.496   5.668   6.596 -0.0855 -0.2517 -0.0981
   98MOL0     H13178   9.598   5.807   6.562 -2.0953  1.3114 -1.8080
   98MOL0     H13179   9.546   5.795   6.320  1.5992 -0.6931  0.1594
   98MOL0     H13180   9.394   5.797   6.420  1.8647  1.8337  0.7877
   98MOL0     H13181   9.565   5.583   6.155 -0.3381  3.1119  0.0795
   98MOL0     H13182   9.336   5.318   6.039 -0.5512 -3.8641  2.5599
   98MOL0     H13183   9.508   5.374   6.030 -0.8478 -1.7045 -1.6385
   98MOL0     H13184   9.495   5.132   6.081  4.3063  0.0147  1.1430
   98MOL0     H13185   9.375   5.173   6.216  2.1287 -2.4184  1.4471
   98MOL0     H13186   9.573   5.110   6.319 -1.0627 -0.6574  0.6334
   98MOL0     H13187   9.549   5.276   6.346 -0.5194 -1.0761  0.5886
   98MOL0     H13188   9.792   5.248   6.297 -0.8336 -1.6889 -0.1340
   98MOL0     H13189   9.724   5.316   6.146 -1.3886  2.1934  1.8681
   98MOL0     H13190   9.935   5.262   6.098 -1.7787 -0.1773 -1.4964
   98MOL0     H13191  10.222   5.279   6.018  0.9552 -2.3657  0.6041
   98MOL0     H13192  10.218   5.246   5.848 -0.5761 -1.7076 -0.1369
   98MOL0     H13193  10.086   5.334   5.913 -1.2368 -1.8956  0.3225
   98MOL0     H13194  10.238   4.694   5.650 -0.2407  1.9156  0.0738
   98MOL0     H13195  10.426   4.572   5.551 -1.7087 -0.1845 -0.0626
   98MOL0     H13196  10.767   4.731   5.595 -0.6493  0.5064  1.0736
   98MOL0     H13197  10.875   4.613   5.681  3.5189 -0.6817 -2.7955
   98MOL0     H13198  10.791   4.517   5.411 -0.3017  1.4117 -0.6338
   98MOL0     H13199  10.904   4.653   5.420 -0.1125 -1.3993 -2.4846
   98MOL0     H13200  10.931   4.364   5.531  0.6980  0.0162 -0.7536
   98MOL0     H13201  11.041   4.497   5.575  0.2641  0.0018  0.9796
   98MOL0     H13202  10.991   4.389   5.293  1.0289 -0.9343 -0.5100
   98MOL0     H13203  11.104   4.524   5.329  0.8533  0.6421  0.5508
   98MOL0     H13204  11.123   4.254   5.446 -1.4102  0.2608 -2.4010
   98MOL0     H13205  11.240   4.381   5.467  1.1289 -2.9315  1.0501
   98MOL0     H13206  11.146   4.258   5.202  1.6743 -2.5400 -0.3514
   98MOL0     H13207  11.292   4.361   5.210  0.9289 -0.0130 -0.4741
   98MOL0     H13208  11.260   4.065   5.283  2.0149  0.1720  0.4123
   98MOL0     H13209  11.376   4.153   5.367  0.6768  1.3058 -0.6099
   98MOL0     H13210  11.353   4.137   5.066 -1.1753  0.6113  1.0762
   98MOL0     H13211  11.445   4.030   5.160 -1.5439 -0.5898  0.3636
   98MOL0     H13212  10.667   4.685   5.895 -0.6339  4.2316  1.1269
   98MOL0     H13213  10.478   4.803   5.979  1.4432  0.7659 -0.2452
   98MOL0     H13214  10.026   4.801   5.956  1.8350  0.8593 -0.6567
   98MOL0     H13215   9.811   4.869   6.081 -0.0877 -0.1324 -2.3064
   98MOL0     H13216  10.183   5.199   6.344  0.7324 -2.4837 -2.8419
   98MOL0     H13217  10.346   5.123   6.176 -3.7832 -0.0692  0.5974
   98MOL0     H13218  10.945   5.103   6.110  1.0597  1.4772 -1.7860
   98MOL0     H13219  11.070   4.998   5.948 -0.7670  1.7823  1.8511
   98MOL0     H13220  11.175   4.935   5.760  0.4998 -0.2351  3.9310
   98MOL0     H13221  11.101   4.785   5.816  1.3726 -3.2854 -2.6404
   98MOL0     H13222  11.144   4.861   5.519  0.4101 -0.3006 -1.5271
   98MOL0     H13223  11.084   4.710   5.577 -1.2050  0.0934  0.1126
   98MOL0     H13224  11.263   4.618   5.660 -3.5882 -0.3357 -2.2993
   98MOL0     H13225  11.361   4.771   5.679 -0.5031 -0.2519 -0.7809
   98MOL0     H13226  11.376   4.793   5.443 -2.6802  1.6953 -1.0777
   98MOL0     H13227  11.253   4.658   5.419 -0.0363 -2.1272  0.2797
   98MOL0     H13228  11.552   4.401   5.424 -0.6031  1.1661 -1.0915
   98MOL0     H13229  10.744   4.948   5.682  2.6808  0.1404 -0.2848
   98MOL0     H13230  10.594   5.057   5.875 -0.4163 -3.6348  0.7777
   99MOL0     O13231   9.809   8.089   9.777  0.1577  0.7087 -0.2600
   99MOL0     C13232   9.867   8.066   9.884 -0.2311 -0.0269 -0.2730
   99MOL0     O13233   9.801   8.017   9.990  0.2591 -0.2052 -0.4938
   99MOL0     C13234   9.665   8.002   9.968  0.5092 -0.0674 -0.8695
   99MOL0     C13235   9.607   7.895   9.895  0.7126 -0.0566  0.2799
   99MOL0     C13236   9.464   7.875   9.895  0.0346 -0.7748  1.0014
   99MOL0     C13237   9.384   7.976   9.964 -0.5009 -0.0348  0.5554
   99MOL0     O13238   9.249   7.980   9.951  0.2336 -0.6386 -0.8782
   99MOL0     C13239   9.179   7.880   9.887  0.3951 -0.3407  0.2180
   99MOL0     C13240   9.028   7.911   9.915  0.0888  0.3960 -0.0436
   99MOL0     C13241   8.944   7.811   9.837 -0.2284 -0.2043  0.1589
   99MOL0     C13242   8.794   7.833   9.858  0.5118  0.4724  0.6724
   99MOL0     C13243   8.700   7.748   9.783  0.0895  0.5824  0.3023
   99MOL0     C13244   8.711   7.603   9.807  0.3142 -0.6217 -0.1635
   99MOL0     C13245   8.579   7.532   9.844 -0.4238  0.1494  1.0311
   99MOL0     C13246   8.592   7.380   9.867 -0.5568 -0.1656 -0.0672
   99MOL0     N13247   8.480   7.351   9.960  0.6077 -0.2578  0.6954
   99MOL0     C13248   8.451   7.406  10.086 -0.2517  0.6476  0.1075
   99MOL0     C13249   8.327   7.375  10.118 -0.4782 -0.3513 -0.5344
   99MOL0     C13250   8.257   7.443  10.230 -0.6802 -0.6995 -0.0317
   99MOL0     C13251   8.138   7.543  10.195  1.1961 -0.6172  0.4086
   99MOL0     C13252   8.019   7.468  10.124 -0.7030 -0.5893  0.7229
   99MOL0     C13253   7.887   7.555  10.107 -0.5799  0.2562 -0.1984
   99MOL0     O13254   7.837   7.593  10.236 -0.1715 -0.0087 -0.7157
   99MOL0     C13255   7.707   7.628  10.235  0.9616  0.2186  0.5582
   99MOL0     C13256   7.648   7.701  10.138  0.1342  0.2726 -0.2078
   99MOL0     C13257   7.512   7.744  10.150 -0.0695 -1.1189 -0.0845
   99MOL0     C13258   7.465   7.822  10.040 -0.5907  0.0475 -0.3857
   99MOL0     C13259   7.436   7.705  10.259 -0.0232 -0.3372  0.5616
   99MOL0     C13260   7.288   7.745  10.273 -1.4403 -0.8407 -0.3574
   99MOL0     O13261   7.248   7.746  10.402  0.2118 -0.7643 -0.2517
   99MOL0     C13262   7.135   7.819  10.431 -1.3392  0.1419  0.4113
   99MOL0     C13263   7.153   7.951  10.481 -0.6169 -0.7609  0.2238
   99MOL0     C13264   7.039   8.023  10.509 -0.1739 -0.6630  0.4340
   99MOL0     C13265   6.906   7.973  10.481 -0.4049  0.3899 -1.0108
   99MOL0     O13266   6.793   8.049  10.494  0.5620 -0.0580 -0.1043
   99MOL0     C13267   6.686   7.991  10.575 -0.4092  0.3905 -0.0465
   99MOL0     C13268   6.586   8.102  10.591  0.3834  0.8712 -0.0541
   99MOL0     C13269   6.490   8.042  10.700 -0.6294  1.0752  0.1228
   99MOL0     C13270   6.414   8.148  10.789  0.1229  0.2533  0.1795
   99MOL0     C13271   6.326   8.092  10.896 -0.4046 -0.3538 -0.5000
   99MOL0     C13272   6.384   7.989  11.003 -0.5050 -1.1046  0.1427
   99MOL0     C13273   6.289   7.963  11.127  0.0574 -0.2219 -0.0545
   99MOL0     C13274   6.166   7.883  11.097 -0.4768 -0.0711 -0.1486
   99MOL0    Cl13275   6.061   7.887  11.238  0.0852 -0.0226 -0.1494
   99MOL0     C13276   6.894   7.843  10.442 -0.8966  0.1267  0.9732
   99MOL0     C13277   7.008   7.767  10.411  1.2362  0.7654  0.0557
   99MOL0     O13278   7.225   7.787  10.173  0.0803  0.6000 -0.2643
   99MOL0     C13279   7.495   7.617  10.351  0.1730 -0.4215 -0.9105
   99MOL0     C13280   7.633   7.577  10.343 -0.1530  0.3536  0.7979
   99MOL0     N13281   8.269   7.299  10.015  0.3775 -0.0717  0.2759
   99MOL0     N13282   8.363   7.283   9.930  0.4883  0.0840 -0.1557
   99MOL0     C13283   9.442   8.080  10.034 -0.9945 -0.6744 -0.0124
   99MOL0     C13284   9.587   8.096  10.038  1.2650 -0.5475 -1.2230
   99MOL0     C13285  10.012   8.086   9.898 -0.1877  0.3407 -0.2410
   99MOL0     C13286  10.090   8.034  10.007  0.5988 -0.1606  0.5054
   99MOL0     C13287  10.222   8.066  10.013 -0.2361 -0.4328 -0.7061
   99MOL0     C13288  10.281   8.150   9.922 -0.0672 -0.8050 -0.2227
   99MOL0     O13289  10.418   8.173   9.944  0.4995  0.1391 -0.2026
   99MOL0     C13290  10.487   8.269   9.866  0.3565 -0.6805  0.3533
   99MOL0     C13291  10.571   8.195   9.764  0.2857  0.7219  0.4015
   99MOL0     C13292  10.686   8.128   9.842 -0.1726 -0.3525  0.7578
   99MOL0     C13293  10.789   8.083   9.739 -0.1521 -0.8093  0.4930
   99MOL0     C13294  10.745   7.960   9.675 -0.1396 -0.2869  0.8732
   99MOL0     C13295  10.706   7.864   9.614 -0.0262  0.0388 -0.7476
   99MOL0     C13296  10.212   8.202   9.814  0.2605  0.0444 -0.9147
   99MOL0     C13297  10.079   8.161   9.800  0.2699 -0.5668  0.8382
   99MOL0     H13298   9.672   7.827   9.842  0.1007  0.1283 -0.7368
   99MOL0     H13299   9.414   7.795   9.842 -2.2898  0.8973  0.4897
   99MOL0     H13300   9.192   7.890   9.778 -0.0058  0.4470  0.2383
   99MOL0     H13301   9.217   7.782   9.920 -0.7515 -0.3356  1.6239
   99MOL0     H13302   9.004   7.902  10.021 -1.0957 -1.2517 -0.4114
   99MOL0     H13303   8.998   8.008   9.874  0.5790  0.8991  0.7724
   99MOL0     H13304   8.978   7.828   9.734  0.8102  3.4693  0.9605
   99MOL0     H13305   8.973   7.712   9.873  2.0440 -0.1263 -1.2768
   99MOL0     H13306   8.766   7.827   9.963 -0.3804 -0.9482  0.3812
   99MOL0     H13307   8.775   7.931   9.813  1.0218  0.1980 -0.1840
   99MOL0     H13308   8.601   7.780   9.815 -0.3387 -2.0911  1.9578
   99MOL0     H13309   8.719   7.770   9.678 -2.9813  0.6644 -0.2983
   99MOL0     H13310   8.755   7.544   9.726 -0.7297 -0.4223 -0.8821
   99MOL0     H13311   8.780   7.589   9.891  4.2425  0.0797 -2.9963
   99MOL0     H13312   8.545   7.593   9.927 -1.6618  0.9935 -0.0584
   99MOL0     H13313   8.516   7.541   9.755  3.2001  2.8098 -1.5873
   99MOL0     H13314   8.691   7.358   9.907  0.2393  2.1706 -0.6012
   99MOL0     H13315   8.580   7.328   9.771  1.3313  1.1026 -1.0412
   99MOL0     H13316   8.517   7.462  10.152 -1.8314 -1.6935  3.9952
   99MOL0     H13317   8.225   7.366  10.301  0.8270  0.0427  1.5273
   99MOL0     H13318   8.328   7.509  10.280 -0.0475 -0.1457 -1.6071
   99MOL0     H13319   8.171   7.621  10.127  3.2741 -2.9625 -1.4826
   99MOL0     H13320   8.100   7.585  10.289 -0.1313 -1.8281  0.4592
   99MOL0     H13321   7.994   7.381  10.186 -1.4290 -0.4426  0.6431
   99MOL0     H13322   8.053   7.430  10.028  0.5472  0.6804  0.6417
   99MOL0     H13323   7.820   7.486  10.054  0.6394 -1.0067 -0.1865
   99MOL0     H13324   7.894   7.639  10.038  0.1923  1.2432  1.0520
   99MOL0     H13325   7.707   7.721  10.049  1.4751 -3.5310 -0.3463
   99MOL0     H13326   7.390   7.766   9.983 -1.9729  0.4272  0.9691
   99MOL0     H13327   7.426   7.920  10.070  0.8745  0.1860  1.1841
   99MOL0     H13328   7.547   7.858   9.977 -1.0604  3.8672  0.9142
   99MOL0     H13329   7.250   7.999  10.492 -0.5796 -1.1137  1.6116
   99MOL0     H13330   7.040   8.122  10.554  0.3779 -0.2530 -0.4628
   99MOL0     H13331   6.647   7.897  10.535  2.4107 -0.5537 -0.8226
   99MOL0     H13332   6.730   7.964  10.671  1.5253  0.4793 -0.8603
   99MOL0     H13333   6.631   8.198  10.614  1.5676  0.2641  0.2136
   99MOL0     H13334   6.538   8.120  10.494 -0.6571 -0.9627  0.0640
   99MOL0     H13335   6.538   7.975  10.772  0.2266  3.6504  2.1321
   99MOL0     H13336   6.403   7.997  10.654 -2.0920  0.7239  2.9733
   99MOL0     H13337   6.496   8.207  10.832  1.0354 -2.4241  2.4545
   99MOL0     H13338   6.362   8.220  10.726  0.0099  1.1178  1.2252
   99MOL0     H13339   6.237   8.041  10.858 -2.9393  0.9623  3.1414
   99MOL0     H13340   6.288   8.178  10.951  0.8845  1.1974 -1.9193
   99MOL0     H13341   6.405   7.897  10.948  0.6586  0.6197 -2.4508
   99MOL0     H13342   6.470   8.037  11.051 -1.0284 -0.2258  0.2150
   99MOL0     H13343   6.278   8.055  11.184  0.5718 -0.2797  0.1445
   99MOL0     H13344   6.342   7.895  11.194 -0.3998  0.4934  1.0637
   99MOL0     H13345   6.185   7.779  11.067  1.3449  0.3915 -0.7423
   99MOL0     H13346   6.115   7.931  11.014  1.6297  2.2218 -0.2380
   99MOL0     H13347   6.794   7.807  10.423 -0.6117 -0.6116  0.8135
   99MOL0     H13348   6.991   7.669  10.367 -2.7268  2.2880 -2.3522
   99MOL0     H13349   7.446   7.581  10.441 -2.1053  2.0598 -1.0563
   99MOL0     H13350   7.685   7.517  10.416 -0.0273 -0.9748 -0.3489
   99MOL0     H13351   9.383   8.154  10.087  3.4677  3.4159 -0.0402
   99MOL0     H13352   9.628   8.180  10.093  0.3259 -0.4985 -0.5791
   99MOL0     H13353  10.037   7.971  10.077  0.2988  0.9597  1.3236
   99MOL0     H13354  10.278   8.019  10.094  1.9819  2.4398 -0.3876
   99MOL0     H13355  10.426   8.339   9.809 -0.3005 -0.3084  1.4812
   99MOL0     H13356  10.552   8.323   9.935 -0.7545  0.9687  0.1407
   99MOL0     H13357  10.621   8.271   9.703 -0.4436  1.0099  0.1426
   99MOL0     H13358  10.513   8.126   9.703  1.4493  1.7247 -1.9791
   99MOL0     H13359  10.644   8.048   9.904  0.7488 -1.4144  0.0549
   99MOL0     H13360  10.731   8.198   9.913  0.5069 -3.0541  3.1699
   99MOL0     H13361  10.876   8.064   9.803  1.3112  1.7623 -0.5868
   99MOL0     H13362  10.821   8.162   9.671  1.5672  0.4342  2.6035
   99MOL0     H13363  10.688   7.780   9.549 -0.1228 -0.4794 -0.0611
   99MOL0     H13364  10.252   8.272   9.740 -0.1313 -0.3702 -1.5284
   99MOL0     H13365  10.029   8.191   9.709  1.3024 -2.8536 -0.5828
  100MOL0     O13366   8.722   5.336  11.068  0.3925 -0.1598  0.1049
  100MOL0     C13367   8.739   5.303  11.185 -0.3526 -0.5343 -0.1473
  100MOL0     O13368   8.651   5.242  11.263 -0.1113  0.0843 -0.0693
  100MOL0     C13369   8.534   5.198  11.218  0.3550 -0.1145  0.3952
  100MOL0     C13370   8.470   5.217  11.087  0.1553  0.7094 -0.8253
  100MOL0     C13371   8.349   5.155  11.066  0.0768  0.1355 -0.0648
  100MOL0     C13372   8.286   5.071  11.156  1.3642 -0.0328 -0.1890
  100MOL0     O13373   8.168   5.006  11.105 -0.5657 -0.2201  0.0097
  100MOL0     C13374   8.040   5.016  11.176  0.2480 -0.2087 -0.8205
  100MOL0     C13375   7.937   4.978  11.073 -1.1273  0.2325  0.5124
  100MOL0     C13376   7.790   4.998  11.113  0.6635 -0.8799 -0.8297
  100MOL0     C13377   7.726   4.905  11.215  0.1822 -1.0172 -0.2112
  100MOL0     C13378   7.720   4.752  11.180  0.6182 -0.3573  0.1856
  100MOL0     C13379   7.612   4.741  11.071 -0.0886  0.2402 -0.0991
  100MOL0     C13380   7.558   4.601  11.065  0.3309  0.6723 -0.6178
  100MOL0     C13381   7.654   4.507  10.998 -0.0538  0.0537 -0.2224
  100MOL0     N13382   7.599   4.373  11.011 -0.1754  0.6468  0.0390
  100MOL0     C13383   7.616   4.289  11.117 -0.0810  0.1844  1.1701
  100MOL0     C13384   7.531   4.182  11.085 -0.7235 -0.4977  0.7835
  100MOL0     C13385   7.484   4.078  11.173 -0.3213 -0.4765 -0.8792
  100MOL0     C13386   7.353   4.111  11.254  0.1102  1.0424  0.7042
  100MOL0     C13387   7.325   3.992  11.349 -0.0220  0.2579  0.2336
  100MOL0     C13388   7.181   4.004  11.420 -1.3539 -0.0413  0.6734
  100MOL0     O13389   7.144   3.882  11.486 -0.5363  0.5719  0.2774
  100MOL0     C13390   7.025   3.888  11.545 -0.4400 -0.9344 -0.4583
  100MOL0     C13391   7.008   3.795  11.652  0.5435 -0.4221  0.2831
  100MOL0     C13392   6.901   3.785  11.733  0.2922 -0.1889  0.1654
  100MOL0     C13393   6.910   3.679  11.840  0.3606 -0.2084  0.2109
  100MOL0     C13394   6.792   3.869  11.709 -0.3825  0.2491 -0.0606
  100MOL0     C13395   6.667   3.873  11.785 -0.6339 -0.0294 -0.4540
  100MOL0     O13396   6.600   3.981  11.777  0.2056  0.4109 -0.0555
  100MOL0     C13397   6.486   3.997  11.848  0.1884 -0.3001 -0.0792
  100MOL0     C13398   6.463   4.118  11.909  1.2483 -0.0373  0.3736
  100MOL0     C13399   6.339   4.149  11.970  1.1120 -0.2336 -0.2679
  100MOL0     C13400   6.236   4.047  11.971 -0.2689 -0.5137 -0.7804
  100MOL0     O13401   6.106   4.086  12.012 -0.6879  0.1212 -0.6494
  100MOL0     C13402   6.089   4.191  12.111  0.1536 -0.2809 -0.0063
  100MOL0     C13403   5.951   4.206  12.169 -0.2963  0.2230  0.2323
  100MOL0     C13404   5.845   4.197  12.061 -0.7180 -1.0415 -0.2989
  100MOL0     C13405   5.701   4.192  12.118  0.4812  0.0067 -0.3097
  100MOL0     C13406   5.594   4.127  12.029 -0.0167  1.0128 -0.1947
  100MOL0     C13407   5.463   4.202  12.008 -0.2059 -0.2043 -0.9125
  100MOL0     C13408   5.488   4.330  11.923  0.5491  0.8990  0.0598
  100MOL0     C13409   5.361   4.401  11.886  0.6871  0.0443  0.6398
  100MOL0    Cl13410   5.294   4.467  12.027  0.6827  0.5099  0.1093
  100MOL0     C13411   6.260   3.919  11.929 -0.2907  0.9533 -0.1813
  100MOL0     C13412   6.384   3.895  11.854  0.4210  0.6659 -0.9018
  100MOL0     O13413   6.634   3.762  11.832  0.2378 -0.4188 -0.0059
  100MOL0     C13414   6.813   3.971  11.613 -0.0002 -0.5072 -0.1926
  100MOL0     C13415   6.927   3.980  11.533 -0.8161  0.0321 -0.3614
  100MOL0     N13416   7.493   4.195  10.953  0.6530 -0.3652  0.4885
  100MOL0     N13417   7.537   4.307  10.911  0.0223  0.1593  0.3462
  100MOL0     C13418   8.339   5.052  11.278 -0.1471  0.1772 -0.0927
  100MOL0     C13419   8.462   5.114  11.309 -0.0413 -1.2184  0.1000
  100MOL0     C13420   8.868   5.332  11.252 -0.3272  0.4703 -0.7143
  100MOL0     C13421   8.885   5.325  11.390  0.2896  0.0704  0.1776
  100MOL0     C13422   9.013   5.355  11.440 -0.5171 -0.3749 -0.4905
  100MOL0     C13423   9.121   5.395  11.362  0.7484 -0.1589  0.5329
  100MOL0     O13424   9.240   5.403  11.426  0.0879 -0.1399 -0.1459
  100MOL0     C13425   9.326   5.513  11.395  0.0099 -0.2317 -0.5339
  100MOL0     C13426   9.424   5.532  11.509 -0.2380  0.4549 -0.6852
  100MOL0     C13427   9.353   5.555  11.650 -0.2416  0.6163  0.6154
  100MOL0     C13428   9.239   5.658  11.652  0.4758  0.6551 -0.1692
  100MOL0     C13429   9.194   5.669  11.790 -0.8854  0.0355  0.4528
  100MOL0     C13430   9.151   5.677  11.902  0.7641  0.4295  0.3741
  100MOL0     C13431   9.098   5.409  11.224  0.4959  0.2871 -0.5328
  100MOL0     C13432   8.977   5.380  11.173  0.4635 -0.0092  0.1942
  100MOL0     H13433   8.504   5.282  11.007 -1.0597  2.1435 -0.2288
  100MOL0     H13434   8.309   5.166  10.966  0.0748  0.6416 -0.0092
  100MOL0     H13435   8.026   4.964  11.271 -1.7322  1.9755  0.1893
  100MOL0     H13436   8.030   5.121  11.207  0.2906  0.3963 -2.7408
  100MOL0     H13437   7.968   5.045  10.992  2.6970 -1.7346  0.1285
  100MOL0     H13438   7.952   4.874  11.045 -1.5399 -0.0774  1.4047
  100MOL0     H13439   7.795   5.101  11.150  1.2158 -0.0872 -2.9645
  100MOL0     H13440   7.726   4.991  11.025  0.0471  0.6744 -0.5415
  100MOL0     H13441   7.778   4.908  11.311 -0.0167 -0.5165 -0.1156
  100MOL0     H13442   7.624   4.941  11.233  1.1662  2.3888 -0.5926
  100MOL0     H13443   7.820   4.719  11.151  1.5700  1.8214  0.8359
  100MOL0     H13444   7.688   4.711  11.276 -1.2994  2.2599  0.7666
  100MOL0     H13445   7.522   4.796  11.101 -0.9394 -2.0921  2.0529
  100MOL0     H13446   7.653   4.784  10.980  2.3686  1.3609  1.4264
  100MOL0     H13447   7.535   4.573  11.168 -0.2710 -0.4918 -1.0390
  100MOL0     H13448   7.476   4.583  10.994 -0.3201  2.5964 -0.3993
  100MOL0     H13449   7.749   4.527  11.047  1.4781  1.0511 -3.2989
  100MOL0     H13450   7.670   4.542  10.895 -0.7184  2.1374  0.3398
  100MOL0     H13451   7.654   4.305  11.218  3.9683 -0.5982 -0.0812
  100MOL0     H13452   7.468   3.985  11.117 -1.3674 -0.1716 -1.1030
  100MOL0     H13453   7.568   4.057  11.240 -0.0319  0.1078 -1.0527
  100MOL0     H13454   7.281   4.113  11.172  0.2566  0.2160  0.5423
  100MOL0     H13455   7.349   4.201  11.316  0.3414 -0.7829  3.5510
  100MOL0     H13456   7.404   3.985  11.423  2.6388  1.1605 -2.3072
  100MOL0     H13457   7.326   3.903  11.286 -0.5437 -0.3458  1.0662
  100MOL0     H13458   7.114   4.026  11.336 -1.6691 -0.6500  0.7573
  100MOL0     H13459   7.181   4.086  11.491  0.3176 -1.8612  2.9690
  100MOL0     H13460   7.091   3.726  11.667 -0.9781 -2.3004  0.4932
  100MOL0     H13461   6.857   3.591  11.802  3.1573 -1.3920 -1.2280
  100MOL0     H13462   7.011   3.646  11.862 -0.2530 -0.8754  2.2344
  100MOL0     H13463   6.864   3.715  11.932 -0.0631  1.1575 -0.4973
  100MOL0     H13464   6.540   4.193  11.896  0.9843  0.5050  1.7656
  100MOL0     H13465   6.336   4.251  12.009 -0.5093 -0.2824 -0.2152
  100MOL0     H13466   6.158   4.178  12.195 -0.5298  0.6855  0.7293
  100MOL0     H13467   6.117   4.285  12.063  0.2530 -1.9186 -3.5199
  100MOL0     H13468   5.936   4.122  12.239  0.8604  0.3558  0.6639
  100MOL0     H13469   5.942   4.306  12.213 -2.3096  0.5094 -0.7453
  100MOL0     H13470   5.870   4.113  11.996  4.0210 -2.1659  2.4819
  100MOL0     H13471   5.856   4.285  11.997 -0.0634  0.7873  2.1546
  100MOL0     H13472   5.715   4.137  12.211  2.6115 -2.2886 -1.8662
  100MOL0     H13473   5.663   4.287  12.157 -0.8591 -0.4431 -0.4735
  100MOL0     H13474   5.559   4.031  12.068 -0.3542  1.0636 -0.3729
  100MOL0     H13475   5.651   4.104  11.939  1.2359 -0.9861  1.0147
  100MOL0     H13476   5.399   4.134  11.950 -2.4276  0.4403  0.6661
  100MOL0     H13477   5.411   4.221  12.102  0.2176 -3.4489  0.0957
  100MOL0     H13478   5.526   4.299  11.826 -0.6751 -1.1348  0.1618
  100MOL0     H13479   5.560   4.403  11.962  1.5006  1.4364 -2.5318
  100MOL0     H13480   5.284   4.334  11.846  0.6027 -0.2540  1.2894
  100MOL0     H13481   5.379   4.476  11.809 -0.5641  0.7758  1.0382
  100MOL0     H13482   6.184   3.843  11.919 -1.8324  2.4893 -0.7363
  100MOL0     H13483   6.400   3.802  11.800 -2.1058  0.4239 -1.3822
  100MOL0     H13484   6.733   4.037  11.582  1.0906  0.0027 -2.1033
  100MOL0     H13485   6.922   4.053  11.453 -2.8293 -1.7531 -1.9782
  100MOL0     H13486   8.279   4.992  11.347 -0.8220 -1.4915 -2.0231
  100MOL0     H13487   8.511   5.087  11.402 -0.6166 -1.6590  0.2757
  100MOL0     H13488   8.803   5.302  11.457 -0.9483  1.5581 -0.7471
  100MOL0     H13489   9.032   5.349  11.547  0.6413  3.9229 -0.2583
  100MOL0     H13490   9.379   5.493  11.302 -0.5607 -2.3349 -0.4725
  100MOL0     H13491   9.272   5.604  11.370  0.2014 -0.3131 -1.2749
  100MOL0     H13492   9.496   5.614  11.508  0.3686  0.2284  3.6543
  100MOL0     H13493   9.482   5.440  11.526  0.9973  1.1868 -0.7959
  100MOL0     H13494   9.428   5.595  11.718 -0.9825  0.4637  1.5505
  100MOL0     H13495   9.314   5.458  11.682 -0.0628  0.5152  0.5221
  100MOL0     H13496   9.163   5.627  11.579 -0.0111  1.7387 -0.1462
  100MOL0     H13497   9.279   5.754  11.617  0.2262  1.1319  0.8076
  100MOL0     H13498   9.106   5.684  11.999  1.5220  2.1628  0.6422
  100MOL0     H13499   9.172   5.439  11.150  2.0286 -0.5156  0.6222
  100MOL0     H13500   8.973   5.394  11.065 -3.1979  1.0833  0.3528
  101MOL0     O13501   7.970   2.485   0.530 -0.2069  0.5401 -0.1252
  101MOL0     C13502   7.960   2.359   0.530  0.2904  0.5916 -0.1362
  101MOL0     O13503   7.840   2.290   0.508 -0.2539  0.2437  0.2950
  101MOL0     C13504   7.725   2.364   0.491  0.0068 -0.4643 -1.1145
  101MOL0     C13505   7.709   2.476   0.410  0.4411 -0.5700  0.2408
  101MOL0     C13506   7.585   2.540   0.404  0.6741 -0.4158  1.0811
  101MOL0     C13507   7.471   2.493   0.472 -0.1037 -0.6467  0.6220
  101MOL0     O13508   7.358   2.562   0.487  0.1688  0.2833  0.3103
  101MOL0     C13509   7.333   2.681   0.407 -0.8303  0.4392 -0.5954
  101MOL0     C13510   7.290   2.668   0.264  0.2158 -0.5520  0.0402
  101MOL0     C13511   7.151   2.599   0.252 -0.5985  0.3198  0.7876
  101MOL0     C13512   7.099   2.606   0.110  0.0361 -0.5010  0.9142
  101MOL0     C13513   6.959   2.538   0.088 -0.3272 -0.2677 -0.2067
  101MOL0     C13514   6.953   2.389   0.110 -0.4473  0.4836  0.2112
  101MOL0     C13515   6.814   2.330   0.093 -0.2421  0.3312 -0.1941
  101MOL0     C13516   6.834   2.177   0.087 -0.1497 -0.9751 -0.6534
  101MOL0     N13517   6.698   2.126   0.061 -0.7867  0.6267 -0.1320
  101MOL0     C13518   6.600   2.118   0.159 -0.5400  0.6620 -0.5545
  101MOL0     C13519   6.508   2.030   0.120 -0.6280  0.0820  0.2591
  101MOL0     C13520   6.391   1.972   0.189 -1.0262  0.4507 -0.4663
  101MOL0     C13521   6.272   2.061   0.166  0.0536  0.2273 -0.0035
  101MOL0     C13522   6.290   2.215   0.184 -0.5507  0.5389  0.0497
  101MOL0     C13523   6.153   2.286   0.184  0.3534 -0.0230 -0.1957
  101MOL0     O13524   6.073   2.227   0.287 -0.4438  0.3191  0.3983
  101MOL0     C13525   5.936   2.258   0.289 -0.7986 -0.3957  0.2104
  101MOL0     C13526   5.891   2.324   0.396  1.2808  0.1997 -0.3306
  101MOL0     C13527   5.754   2.364   0.416  0.2320  0.0568 -0.6239
  101MOL0     C13528   5.713   2.441   0.552 -0.6008 -0.2874 -0.1708
  101MOL0     C13529   5.661   2.325   0.314 -0.3398 -0.8462  0.3240
  101MOL0     C13530   5.521   2.372   0.309  0.7825  0.2417  0.2445
  101MOL0     O13531   5.434   2.300   0.226 -0.2905 -0.2610 -0.3984
  101MOL0     C13532   5.302   2.317   0.219  0.2390 -0.6252  0.0093
  101MOL0     C13533   5.236   2.268   0.105  0.3223  0.2641 -0.6694
  101MOL0     C13534   5.097   2.284   0.091 -0.2185 -0.1120 -0.0941
  101MOL0     C13535   5.021   2.350   0.196  0.5314 -0.5305  0.9425
  101MOL0     O13536   4.885   2.368   0.196  0.5843 -0.5978  0.3629
  101MOL0     C13537   4.802   2.368   0.072  0.5481 -0.0065 -0.5287
  101MOL0     C13538   4.668   2.424   0.112  0.2484 -0.1627  0.2538
  101MOL0     C13539   4.583   2.470  -0.013 -0.3856 -0.9977 -0.2235
  101MOL0     C13540   4.451   2.505   0.026 -0.4260  0.0511 -0.3392
  101MOL0     C13541   4.384   2.591  -0.089  0.0609 -0.3528  0.2313
  101MOL0     C13542   4.244   2.655  -0.044 -0.9669  0.3248  0.1216
  101MOL0     C13543   4.164   2.682  -0.175 -0.3013  0.6677  0.5658
  101MOL0     C13544   4.047   2.767  -0.153  0.0421 -0.4194 -0.0623
  101MOL0    Cl13545   3.990   2.824  -0.315  0.1565  0.0429  0.4218
  101MOL0     C13546   5.089   2.396   0.310 -0.7584  0.2343  0.2616
  101MOL0     C13547   5.225   2.388   0.316  0.2717  0.2848 -0.4192
  101MOL0     O13548   5.489   2.473   0.376  0.3072 -0.1355 -0.3400
  101MOL0     C13549   5.707   2.256   0.204  0.6678  0.2019 -0.1140
  101MOL0     C13550   5.848   2.223   0.192  0.9578  0.1236 -1.4069
  101MOL0     N13551   6.544   1.998  -0.006 -0.1138  0.9629 -0.2985
  101MOL0     N13552   6.656   2.049  -0.039  0.0062 -0.3319  0.6030
  101MOL0     C13553   7.488   2.385   0.557  0.4125  0.3712  0.3364
  101MOL0     C13554   7.609   2.323   0.562 -0.9968 -0.4602 -0.0760
  101MOL0     C13555   8.091   2.293   0.567  0.4140  0.5756  0.3825
  101MOL0     C13556   8.091   2.160   0.595 -0.8260  0.6688 -1.0452
  101MOL0     C13557   8.206   2.097   0.640 -0.0692  0.7974  0.4844
  101MOL0     C13558   8.327   2.156   0.650  1.2264  0.5919 -0.3861
  101MOL0     O13559   8.451   2.106   0.685 -0.0268 -0.3914  0.1622
  101MOL0     C13560   8.484   1.973   0.670  0.4748 -0.1211  0.2327
  101MOL0     C13561   8.506   1.945   0.516  0.5349 -1.2486 -0.2060
  101MOL0     C13562   8.637   2.012   0.472 -0.8958 -0.1932 -0.4269
  101MOL0     C13563   8.697   1.989   0.331 -0.2302  0.0609  0.1664
  101MOL0     C13564   8.608   2.035   0.217  0.3496 -0.1209 -0.3508
  101MOL0     C13565   8.532   2.073   0.122  0.0121  0.0748 -0.2650
  101MOL0     C13566   8.326   2.301   0.642 -0.6869 -0.1541  0.6927
  101MOL0     C13567   8.209   2.360   0.594 -0.5777  0.5892 -0.3204
  101MOL0     H13568   7.789   2.513   0.347 -0.3770  3.2729  1.1653
  101MOL0     H13569   7.572   2.631   0.346 -2.9178 -2.2497 -1.4422
  101MOL0     H13570   7.253   2.746   0.444  0.3717  0.2185  2.6646
  101MOL0     H13571   7.421   2.746   0.410  0.4277 -1.2107  0.2273
  101MOL0     H13572   7.277   2.771   0.227  0.3440 -0.1304  1.1407
  101MOL0     H13573   7.368   2.621   0.204  2.6979 -1.1476  3.4521
  101MOL0     H13574   7.147   2.495   0.285  0.3525  0.6346  1.9432
  101MOL0     H13575   7.078   2.642   0.322  0.3288 -0.1501  2.0872
  101MOL0     H13576   7.091   2.708   0.071  2.3275  0.6724  3.1876
  101MOL0     H13577   7.166   2.555   0.040 -0.0100 -2.4512  2.2014
  101MOL0     H13578   6.889   2.594   0.151 -1.2947 -2.5979  0.9537
  101MOL0     H13579   6.919   2.552  -0.013 -1.6540 -1.1490  0.1633
  101MOL0     H13580   7.014   2.344   0.032 -2.9309 -0.4310 -1.3224
  101MOL0     H13581   6.988   2.347   0.205 -1.1647 -1.7170 -0.4293
  101MOL0     H13582   6.744   2.349   0.175  0.5545 -1.1501  0.8744
  101MOL0     H13583   6.773   2.371  -0.000 -0.4494  0.0395 -0.2335
  101MOL0     H13584   6.867   2.148   0.187  0.9783  5.3984  1.2303
  101MOL0     H13585   6.908   2.140   0.014  0.4101 -0.8405 -0.1609
  101MOL0     H13586   6.601   2.175   0.251  0.6293  1.2622 -0.9149
  101MOL0     H13587   6.357   1.875   0.153  0.7645 -0.9806  1.4886
  101MOL0     H13588   6.408   1.954   0.295 -0.7865 -0.1273 -0.6006
  101MOL0     H13589   6.187   2.031   0.228  0.1303 -0.4811 -0.2284
  101MOL0     H13590   6.248   2.049   0.060  1.5583 -1.0540 -0.2471
  101MOL0     H13591   6.357   2.258   0.109  1.8742 -1.8988  0.6726
  101MOL0     H13592   6.337   2.213   0.282 -0.7051 -0.9728  0.1139
  101MOL0     H13593   6.098   2.287   0.090 -2.5083  2.9356  1.2777
  101MOL0     H13594   6.175   2.390   0.210  1.2118  0.5825 -2.9664
  101MOL0     H13595   5.957   2.352   0.477  0.5449 -0.2036  0.4175
  101MOL0     H13596   5.662   2.535   0.533  1.0401  0.3768 -1.6145
  101MOL0     H13597   5.646   2.375   0.608 -2.9192  2.6382  0.7829
  101MOL0     H13598   5.803   2.463   0.611 -1.6904 -0.2743  1.5365
  101MOL0     H13599   5.289   2.207   0.032 -1.0735 -2.5036  0.4656
  101MOL0     H13600   5.052   2.232   0.008 -0.7127  0.4382 -0.1714
  101MOL0     H13601   4.836   2.449   0.006  1.8940 -0.6394 -0.6440
  101MOL0     H13602   4.784   2.274   0.017  0.1821 -1.1178  1.4171
  101MOL0     H13603   4.613   2.340   0.155  2.8806 -3.2761 -1.9534
  101MOL0     H13604   4.669   2.507   0.183 -5.5994 -1.6818  2.7313
  101MOL0     H13605   4.600   2.403  -0.098  0.8815  0.1481 -0.9260
  101MOL0     H13606   4.621   2.564  -0.055 -2.1418  0.4319  1.2673
  101MOL0     H13607   4.386   2.419   0.043 -3.7296  2.8354  2.8373
  101MOL0     H13608   4.453   2.561   0.120 -0.0937 -1.0754  0.3403
  101MOL0     H13609   4.375   2.535  -0.183  1.7791  0.5484 -0.5104
  101MOL0     H13610   4.440   2.681  -0.115 -1.7937  1.3856  1.9098
  101MOL0     H13611   4.184   2.583   0.012  0.6128 -1.0483  0.1345
  101MOL0     H13612   4.248   2.745   0.017  0.0340  0.3295  0.0676
  101MOL0     H13613   4.138   2.584  -0.217  0.0785  0.6126  0.4526
  101MOL0     H13614   4.216   2.721  -0.263  0.4854 -0.3104  0.5832
  101MOL0     H13615   4.077   2.854  -0.094  1.4798 -1.9907  1.6503
  101MOL0     H13616   3.967   2.717  -0.098  0.5655  1.2761  2.3593
  101MOL0     H13617   5.030   2.450   0.384  0.1149  0.9687  0.4301
  101MOL0     H13618   5.259   2.442   0.404 -1.5971  2.4994 -0.9707
  101MOL0     H13619   5.630   2.231   0.131  0.3921  0.1324  0.1986
  101MOL0     H13620   5.880   2.170   0.103 -1.3829 -1.0360 -1.6472
  101MOL0     H13621   7.408   2.345   0.620  0.7639 -1.9518 -0.5883
  101MOL0     H13622   7.636   2.247   0.635  1.3869  0.0411 -0.3517
  101MOL0     H13623   7.999   2.103   0.581 -1.1560  0.4135  1.6750
  101MOL0     H13624   8.211   1.992   0.669  3.6853  0.2703 -1.4775
  101MOL0     H13625   8.574   1.933   0.716  1.1393 -0.8561 -1.6063
  101MOL0     H13626   8.404   1.907   0.705 -0.5425  0.2142 -1.3588
  101MOL0     H13627   8.424   1.985   0.455  1.4453  2.1341  0.5904
  101MOL0     H13628   8.530   1.839   0.498  0.7837 -1.4148  1.0580
  101MOL0     H13629   8.713   1.982   0.545 -0.1834  0.0279 -1.0686
  101MOL0     H13630   8.635   2.120   0.488 -1.7615 -0.6437  3.4220
  101MOL0     H13631   8.716   1.882   0.324  2.4401 -0.1059  5.2958
  101MOL0     H13632   8.795   2.037   0.324 -0.0448 -0.1083  1.3401
  101MOL0     H13633   8.463   2.103   0.045  0.8471  0.8967 -0.7056
  101MOL0     H13634   8.414   2.356   0.676  0.5515 -1.1908 -0.6950
  101MOL0     H13635   8.223   2.467   0.583  3.8638  0.3551  1.1878
  102MOL0     O13636   4.177   7.661   5.662 -0.1290 -0.0117 -0.0549
  102MOL0     C13637   4.183   7.565   5.589 -0.4335 -0.2037 -0.0411
  102MOL0     O13638   4.101   7.521   5.496  0.2777  0.1960 -0.0851
  102MOL0     C13639   3.992   7.605   5.460  0.1032  0.9795  0.2112
  102MOL0     C13640   4.023   7.719   5.393  1.0034 -0.6257  0.8618
  102MOL0     C13641   3.923   7.808   5.346  1.0962  0.1982  0.6292
  102MOL0     C13642   3.790   7.775   5.380  0.9580 -0.5083 -0.6613
  102MOL0     O13643   3.692   7.864   5.343  0.0251 -0.0363  0.2478
  102MOL0     C13644   3.663   7.858   5.201 -0.4611 -0.0747 -0.8751
  102MOL0     C13645   3.548   7.759   5.180 -0.0309 -0.5443  0.2376
  102MOL0     C13646   3.410   7.792   5.241 -0.0143  0.4455  0.1697
  102MOL0     C13647   3.326   7.906   5.181  0.6381 -0.5148  0.1293
  102MOL0     C13648   3.196   7.939   5.259  0.5326  0.4211  0.2188
  102MOL0     C13649   3.079   8.006   5.179 -0.4101  0.5146  0.2458
  102MOL0     C13650   2.943   8.017   5.262 -0.1080 -0.6249  0.1388
  102MOL0     C13651   2.823   8.068   5.174 -0.4288 -0.3892  0.0714
  102MOL0     N13652   2.699   8.092   5.258  0.3441 -0.4540 -0.2699
  102MOL0     C13653   2.616   7.992   5.301 -0.3350 -0.7655  0.0948
  102MOL0     C13654   2.545   8.034   5.400  0.4675  0.1733 -0.1457
  102MOL0     C13655   2.452   7.949   5.482 -0.0105 -0.6848 -0.0806
  102MOL0     C13656   2.333   7.882   5.399  0.0790  0.4503  0.1691
  102MOL0     C13657   2.202   7.901   5.479  0.1406  0.8397 -0.7711
  102MOL0     C13658   2.088   7.870   5.388  0.6103  1.1687  0.1443
  102MOL0     O13659   2.007   7.985   5.379  0.0715 -0.0785 -0.0383
  102MOL0     C13660   1.870   7.975   5.405 -0.6063  0.0040 -0.4904
  102MOL0     C13661   1.789   7.875   5.356  0.7182  0.6318  0.8053
  102MOL0     C13662   1.652   7.872   5.382  0.2638 -0.1480  1.0493
  102MOL0     C13663   1.575   7.749   5.335 -0.4785 -0.5557 -0.7960
  102MOL0     C13664   1.594   7.993   5.442  0.0882  0.0817  0.2627
  102MOL0     C13665   1.451   8.003   5.473 -0.6109  0.3506  0.4797
  102MOL0     O13666   1.361   7.893   5.458 -0.0238 -0.1555 -0.1620
  102MOL0     C13667   1.229   7.910   5.505 -0.5691 -0.7451  0.4246
  102MOL0     C13668   1.188   7.921   5.635  0.1667 -0.3896 -0.8636
  102MOL0     C13669   1.053   7.943   5.673 -0.0715  0.4078 -0.2872
  102MOL0     C13670   0.955   7.957   5.575 -0.1800  0.0735  1.0034
  102MOL0     O13671   0.821   7.979   5.605 -0.3333  0.4857  0.2671
  102MOL0     C13672   0.798   8.054   5.724 -0.3051 -0.4262 -0.7432
  102MOL0     C13673   0.655   8.084   5.758  0.2125  0.6113 -0.4916
  102MOL0     C13674   0.589   8.163   5.643 -0.6918 -0.0391  1.3212
  102MOL0     C13675   0.557   8.091   5.508 -0.3657  0.1394 -0.7131
  102MOL0     C13676   0.453   8.161   5.431  0.8405 -0.5432  0.4728
  102MOL0     C13677   0.501   8.288   5.370  0.0195 -0.8050  0.1938
  102MOL0     C13678   0.392   8.328   5.269 -0.3850  0.0150 -0.9071
  102MOL0     C13679   0.438   8.456   5.204  0.2620 -0.3798  0.2659
  102MOL0    Cl13680   0.320   8.505   5.084  0.0062 -0.1969  0.4475
  102MOL0     C13681   1.000   7.953   5.440  0.2337  0.3301 -0.7206
  102MOL0     C13682   1.134   7.918   5.406 -0.2557 -0.0021  0.8617
  102MOL0     O13683   1.427   8.105   5.536  0.0451  0.6049 -0.2998
  102MOL0     C13684   1.685   8.095   5.480  0.2919 -0.0971 -0.2770
  102MOL0     C13685   1.823   8.087   5.481  0.0065  0.7157  0.3801
  102MOL0     N13686   2.591   8.167   5.423  0.5101 -0.3285  0.1341
  102MOL0     N13687   2.681   8.204   5.336  0.1722 -0.1017 -0.2617
  102MOL0     C13688   3.757   7.652   5.447 -0.0055  0.2625  0.2250
  102MOL0     C13689   3.863   7.572   5.493  0.7641  0.0558  0.0859
  102MOL0     C13690   4.300   7.475   5.619 -0.7284  0.3463  0.2821
  102MOL0     C13691   4.281   7.336   5.619  0.3500 -0.6318 -0.5571
  102MOL0     C13692   4.382   7.249   5.661  0.3876  0.0777 -0.4245
  102MOL0     C13693   4.504   7.300   5.706 -0.1140 -0.6172  0.0796
  102MOL0     O13694   4.605   7.231   5.761 -0.1547  0.6784  0.0728
  102MOL0     C13695   4.610   7.090   5.723  0.4720 -0.1496 -0.4170
  102MOL0     C13696   4.740   7.044   5.794  0.6910  0.6247 -0.4967
  102MOL0     C13697   4.728   7.010   5.941 -0.2289  0.3431 -0.3098
  102MOL0     C13698   4.857   6.939   5.998  0.5400  0.5065 -0.2059
  102MOL0     C13699   4.975   7.000   5.943  0.2783 -0.7913 -0.0003
  102MOL0     C13700   5.057   7.073   5.892  0.3637  0.3567  0.2272
  102MOL0     C13701   4.520   7.434   5.713 -0.2487 -0.0898 -0.1722
  102MOL0     C13702   4.422   7.523   5.659  0.3115 -0.0367 -0.5942
  102MOL0     H13703   4.125   7.741   5.363  0.1367  4.4248  0.6827
  102MOL0     H13704   3.943   7.902   5.297  2.3256  0.4419  1.5344
  102MOL0     H13705   3.639   7.956   5.158 -0.6483  1.3970  2.2955
  102MOL0     H13706   3.745   7.809   5.149  1.7091  1.7213  0.6544
  102MOL0     H13707   3.532   7.749   5.072 -2.8287 -2.4010  0.7216
  102MOL0     H13708   3.575   7.659   5.216 -1.4471 -1.1469 -0.2939
  102MOL0     H13709   3.352   7.699   5.240  0.1016  0.3234  1.7300
  102MOL0     H13710   3.425   7.809   5.348 -0.2980 -2.7107  0.8396
  102MOL0     H13711   3.384   7.996   5.157  1.2888 -0.9959 -0.1326
  102MOL0     H13712   3.288   7.870   5.085  1.2776  1.9902 -1.1489
  102MOL0     H13713   3.165   7.851   5.316  1.3798 -0.8686 -1.2383
  102MOL0     H13714   3.220   8.013   5.336  1.2286 -0.6169  1.0288
  102MOL0     H13715   3.113   8.104   5.146 -0.9148  0.7570  0.4364
  102MOL0     H13716   3.056   7.941   5.093 -1.5881  0.4671  0.5692
  102MOL0     H13717   2.914   7.915   5.289  0.6731 -1.3625 -1.6014
  102MOL0     H13718   2.937   8.090   5.343 -0.5841  1.8898 -2.0250
  102MOL0     H13719   2.806   7.986   5.104  3.1134 -1.6505  0.4522
  102MOL0     H13720   2.854   8.158   5.119 -1.8369  1.0985  1.5971
  102MOL0     H13721   2.618   7.890   5.265 -0.1470 -0.2989 -1.3045
  102MOL0     H13722   2.507   7.872   5.537 -0.5008  0.0146  1.4703
  102MOL0     H13723   2.405   8.018   5.554 -1.7876  0.5311 -2.2805
  102MOL0     H13724   2.347   7.774   5.390 -1.2476  0.2226  0.4664
  102MOL0     H13725   2.322   7.918   5.296  0.1206 -3.2329 -1.2710
  102MOL0     H13726   2.196   8.009   5.498  0.5198  1.2237 -2.6192
  102MOL0     H13727   2.199   7.851   5.576 -0.4623  1.3617 -0.5135
  102MOL0     H13728   2.042   7.778   5.425  1.1087  0.1592 -1.6453
  102MOL0     H13729   2.122   7.843   5.288  0.9059  2.5307 -0.1457
  102MOL0     H13730   1.831   7.790   5.302 -0.7091 -0.9593  2.1118
  102MOL0     H13731   1.649   7.676   5.302 -0.1000  0.0639 -1.3494
  102MOL0     H13732   1.518   7.708   5.419  2.2057  0.6482  1.7669
  102MOL0     H13733   1.507   7.775   5.253  0.0691  1.4838 -0.6618
  102MOL0     H13734   1.268   7.917   5.708 -0.4959  0.0587 -0.1017
  102MOL0     H13735   1.029   7.958   5.778 -0.3319  3.5795 -0.7284
  102MOL0     H13736   0.829   8.001   5.814 -2.8792 -0.6859  0.0740
  102MOL0     H13737   0.855   8.146   5.707 -0.0438 -0.8326 -2.2127
  102MOL0     H13738   0.589   8.001   5.788  1.7943 -0.3186  0.5856
  102MOL0     H13739   0.650   8.135   5.855 -0.5126 -0.1665 -0.1039
  102MOL0     H13740   0.645   8.255   5.627 -0.8597 -0.2548 -0.7821
  102MOL0     H13741   0.492   8.195   5.682 -0.8271  0.1429  0.8292
  102MOL0     H13742   0.647   8.074   5.447  0.7693 -0.0151  0.9253
  102MOL0     H13743   0.514   7.995   5.535 -0.6841  0.5615  0.3180
  102MOL0     H13744   0.365   8.171   5.495  1.6146 -0.3164  1.5275
  102MOL0     H13745   0.411   8.099   5.351 -2.5749  0.3982  1.3695
  102MOL0     H13746   0.524   8.364   5.445 -4.3689  1.5595 -0.5381
  102MOL0     H13747   0.598   8.269   5.323  0.6850  2.7698 -0.1704
  102MOL0     H13748   0.292   8.340   5.312 -0.5495 -0.2414 -1.2124
  102MOL0     H13749   0.372   8.250   5.194 -0.2472 -0.5556 -0.3557
  102MOL0     H13750   0.535   8.441   5.155 -0.7127  1.2383 -2.3715
  102MOL0     H13751   0.441   8.541   5.272 -0.5722  0.3228 -0.5458
  102MOL0     H13752   0.942   7.979   5.352 -0.1772  1.5122 -0.1218
  102MOL0     H13753   1.170   7.908   5.304 -0.4134 -1.0403  0.8993
  102MOL0     H13754   1.648   8.178   5.540 -1.8441 -1.8350  0.9554
  102MOL0     H13755   1.889   8.168   5.510  0.8884 -0.0181  0.4651
  102MOL0     H13756   3.655   7.620   5.468  0.4533  0.5993  3.4583
  102MOL0     H13757   3.843   7.480   5.548  0.8456 -1.1605 -1.8357
  102MOL0     H13758   4.184   7.296   5.592  0.1275 -0.2346 -0.3659
  102MOL0     H13759   4.359   7.143   5.659 -2.7629  0.6482 -2.0227
  102MOL0     H13760   4.527   7.045   5.778  0.3782 -0.9913 -1.2276
  102MOL0     H13761   4.598   7.070   5.616  1.2999 -0.7589 -0.4073
  102MOL0     H13762   4.816   7.122   5.799  0.2716  0.9874  2.1219
  102MOL0     H13763   4.766   6.951   5.743 -2.9897 -0.2482 -1.1081
  102MOL0     H13764   4.637   6.951   5.955  0.4196 -0.8685 -0.9579
  102MOL0     H13765   4.713   7.099   6.002 -2.6816  0.6987 -1.3556
  102MOL0     H13766   4.850   6.836   5.963  1.1298  1.0972 -2.1514
  102MOL0     H13767   4.865   6.928   6.107  2.0224 -1.2909 -0.4613
  102MOL0     H13768   5.130   7.140   5.850 -0.4775 -0.4530 -2.7613
  102MOL0     H13769   4.612   7.478   5.751  1.3516 -2.2690 -1.3182
  102MOL0     H13770   4.433   7.631   5.660 -1.5183  0.1838  1.1175
  103MOL0     O13771   0.125   9.099   6.942  1.0286 -0.1173 -0.7058
  103MOL0     C13772   0.100   9.032   6.843 -0.2818 -0.1842  0.3146
  103MOL0     O13773  -0.017   9.010   6.776  0.0688  0.8766  0.0889
  103MOL0     C13774  -0.117   9.100   6.795 -0.3176  0.4745 -0.4752
  103MOL0     C13775  -0.183   9.143   6.679 -0.8637 -0.7888  0.9706
  103MOL0     C13776  -0.292   9.226   6.691  0.0697 -0.1055  0.5764
  103MOL0     C13777  -0.344   9.265   6.815  0.4471  0.5585 -0.2565
  103MOL0     O13778  -0.460   9.338   6.809 -0.8408  0.5748 -0.4277
  103MOL0     C13779  -0.554   9.343   6.923 -0.2110  0.6166  0.8893
  103MOL0     C13780  -0.595   9.193   6.963  0.6638  0.1994  0.2913
  103MOL0     C13781  -0.648   9.094   6.856  0.1525 -0.3859  0.1049
  103MOL0     C13782  -0.790   9.144   6.817  0.2789 -0.3116  0.5780
  103MOL0     C13783  -0.868   9.037   6.741 -0.5520 -0.2306  0.5792
  103MOL0     C13784  -0.985   9.074   6.660  0.5136 -0.0280  0.1250
  103MOL0     C13785  -1.081   8.967   6.613  0.1696  1.0170  0.2713
  103MOL0     C13786  -1.191   9.025   6.519 -0.0152  0.7344  0.1550
  103MOL0     N13787  -1.289   8.919   6.493 -0.0877  0.5517  0.2189
  103MOL0     C13788  -1.425   8.927   6.478  0.4992 -0.2407 -0.9115
  103MOL0     C13789  -1.466   8.796   6.450  0.5318 -0.2245 -0.1206
  103MOL0     C13790  -1.612   8.758   6.437  0.9285  1.0206 -1.2079
  103MOL0     C13791  -1.639   8.607   6.448  0.0742 -0.4138  0.2308
  103MOL0     C13792  -1.786   8.575   6.467 -0.2929 -0.3550  0.0955
  103MOL0     C13793  -1.829   8.430   6.465 -0.0448  0.4568  0.5253
  103MOL0     O13794  -1.788   8.374   6.334 -0.0378  0.2501  0.0357
  103MOL0     C13795  -1.894   8.317   6.261 -0.3424 -0.6286  0.3972
  103MOL0     C13796  -1.863   8.202   6.185 -0.9307  0.2746  0.7187
  103MOL0     C13797  -1.948   8.130   6.099  1.0667  0.1655 -0.4096
  103MOL0     C13798  -1.905   8.006   6.032 -0.5893 -0.3741  0.5596
  103MOL0     C13799  -2.084   8.178   6.109 -1.3453 -0.5289  0.5096
  103MOL0     C13800  -2.191   8.110   6.022 -0.0914  0.6778 -0.2388
  103MOL0     O13801  -2.310   8.190   6.012  0.3570  0.2531 -0.2672
  103MOL0     C13802  -2.416   8.133   5.941 -0.9949 -0.2175 -0.4223
  103MOL0     C13803  -2.431   8.158   5.806 -0.1127  0.7425  0.1569
  103MOL0     C13804  -2.534   8.090   5.734  0.1129  0.5394  0.0635
  103MOL0     C13805  -2.622   8.012   5.798  0.9229 -0.1221  0.3204
  103MOL0     O13806  -2.724   7.953   5.723  0.0384 -0.5351 -0.2725
  103MOL0     C13807  -2.702   7.813   5.694 -0.6384 -0.1056  0.1798
  103MOL0     C13808  -2.767   7.784   5.562  0.7648 -0.2398  1.0240
  103MOL0     C13809  -2.911   7.728   5.580 -0.3253 -0.1737  0.6238
  103MOL0     C13810  -2.930   7.600   5.665  0.7920 -0.2227 -0.6109
  103MOL0     C13811  -3.079   7.549   5.651  0.1379 -0.0761 -1.0256
  103MOL0     C13812  -3.091   7.417   5.723 -0.5103 -0.0002  0.7048
  103MOL0     C13813  -3.217   7.346   5.685 -0.2858 -0.4171 -0.8239
  103MOL0     C13814  -3.331   7.386   5.781 -0.1647 -0.9633  0.5891
  103MOL0    Cl13815  -3.292   7.333   5.950 -0.3975  0.0409 -0.4857
  103MOL0     C13816  -2.617   7.995   5.929 -0.7644 -0.1936 -1.2492
  103MOL0     C13817  -2.512   8.053   5.997 -0.0110  0.4617  0.2116
  103MOL0     O13818  -2.173   8.000   5.967  0.1837 -0.2954 -0.1537
  103MOL0     C13819  -2.115   8.298   6.176 -0.5739 -0.3588  0.2269
  103MOL0     C13820  -2.024   8.366   6.261 -0.0353 -0.0416  0.0653
  103MOL0     N13821  -1.363   8.711   6.448  0.2787 -0.0653  0.3144
  103MOL0     N13822  -1.259   8.792   6.463 -0.1814  0.0019 -0.0296
  103MOL0     C13823  -0.273   9.234   6.931 -0.4394 -0.7782 -0.0333
  103MOL0     C13824  -0.159   9.150   6.920 -0.2616  0.2858 -0.2557
  103MOL0     C13825   0.217   8.943   6.804 -0.1482  0.5050  0.3634
  103MOL0     C13826   0.205   8.858   6.694  0.6771  0.2309 -0.2347
  103MOL0     C13827   0.312   8.800   6.637 -0.8645  0.2322  0.2484
  103MOL0     C13828   0.437   8.801   6.700  0.7992 -0.3362  0.1826
  103MOL0     O13829   0.544   8.749   6.631  0.3011 -0.9105 -0.1249
  103MOL0     C13830   0.675   8.757   6.685 -0.7875 -0.2796 -0.4111
  103MOL0     C13831   0.770   8.711   6.576  0.3751 -0.3353 -0.1709
  103MOL0     C13832   0.794   8.833   6.484  0.0792  0.2155 -0.4689
  103MOL0     C13833   0.910   8.923   6.526  1.1819  0.0068 -0.1736
  103MOL0     C13834   1.039   8.865   6.504  0.4737  0.5755 -0.3794
  103MOL0     C13835   1.142   8.797   6.495 -0.7074 -0.1799 -0.4254
  103MOL0     C13836   0.444   8.859   6.824  0.3002 -0.2223  0.1561
  103MOL0     C13837   0.334   8.932   6.874  0.1426  0.2326 -0.0866
  103MOL0     H13838  -0.159   9.108   6.579 -0.6073 -1.5413  1.2836
  103MOL0     H13839  -0.362   9.238   6.609 -2.6684 -2.0379  2.4448
  103MOL0     H13840  -0.502   9.393   7.005  0.0612  0.0961  1.0405
  103MOL0     H13841  -0.641   9.406   6.903 -0.9990  0.1493  2.6043
  103MOL0     H13842  -0.516   9.139   7.016  1.6589  0.9229 -0.4356
  103MOL0     H13843  -0.678   9.206   7.034 -1.6178 -0.9818 -2.0237
  103MOL0     H13844  -0.581   9.089   6.770  0.2292  0.6682  0.0922
  103MOL0     H13845  -0.663   9.003   6.915 -1.0336  1.1673  2.3274
  103MOL0     H13846  -0.852   9.163   6.905  0.6285  0.4400  0.6674
  103MOL0     H13847  -0.778   9.231   6.751  0.6425  0.0162  1.0709
  103MOL0     H13848  -0.805   8.984   6.668 -2.4031 -3.3292  1.0556
  103MOL0     H13849  -0.890   8.959   6.814  2.0431 -0.7379  0.9352
  103MOL0     H13850  -1.049   9.150   6.705 -0.7173  1.2261 -3.3800
  103MOL0     H13851  -0.955   9.121   6.566 -1.6645 -0.3434 -0.7957
  103MOL0     H13852  -1.028   8.890   6.556 -2.2949 -0.3168 -0.3541
  103MOL0     H13853  -1.121   8.920   6.703  2.1764 -0.3272  0.5110
  103MOL0     H13854  -1.155   9.063   6.423 -1.1762  0.8737 -0.2525
  103MOL0     H13855  -1.232   9.110   6.574 -4.0481 -0.5096 -0.5315
  103MOL0     H13856  -1.491   9.012   6.496  1.2354  0.3293 -0.8673
  103MOL0     H13857  -1.653   8.813   6.523  1.5820  0.8152 -0.7562
  103MOL0     H13858  -1.658   8.782   6.341 -3.2122 -3.8938 -0.9144
  103MOL0     H13859  -1.572   8.565   6.522 -0.3855  0.4869  1.1846
  103MOL0     H13860  -1.600   8.562   6.356  3.7414 -1.9316  2.3517
  103MOL0     H13861  -1.834   8.629   6.385  0.4376  0.9825  0.5189
  103MOL0     H13862  -1.819   8.622   6.559 -1.7101  1.5294 -1.3009
  103MOL0     H13863  -1.936   8.421   6.488 -0.0974 -1.0533 -0.1853
  103MOL0     H13864  -1.792   8.364   6.543 -1.1497  0.7222  1.2952
  103MOL0     H13865  -1.761   8.165   6.188 -1.4708 -1.2945  1.1745
  103MOL0     H13866  -1.913   8.025   5.924  4.7655  0.1716  0.0161
  103MOL0     H13867  -1.797   7.996   6.043  0.1508 -0.1021 -4.1232
  103MOL0     H13868  -1.961   7.922   6.073 -0.2675 -0.6226  0.4897
  103MOL0     H13869  -2.372   8.237   5.761 -0.7275 -0.0792 -2.2544
  103MOL0     H13870  -2.527   8.101   5.626  2.3394  2.5205  0.3238
  103MOL0     H13871  -2.593   7.808   5.681 -0.5981  1.3955 -0.3233
  103MOL0     H13872  -2.737   7.755   5.779 -0.0219 -0.9784 -0.1532
  103MOL0     H13873  -2.760   7.864   5.487 -2.0042  0.4802  1.4250
  103MOL0     H13874  -2.713   7.698   5.522  0.0122  0.7362 -2.4310
  103MOL0     H13875  -2.946   7.705   5.479  0.8747 -3.8260  0.9013
  103MOL0     H13876  -2.967   7.805   5.634  0.2321  0.0058  0.9592
  103MOL0     H13877  -2.865   7.519   5.631  1.1652 -0.0172 -0.3978
  103MOL0     H13878  -2.924   7.616   5.773  1.1946 -4.1733  0.1205
  103MOL0     H13879  -3.109   7.546   5.546 -4.7196 -1.2443  0.1374
  103MOL0     H13880  -3.155   7.619   5.688  0.3783  0.1272 -0.9175
  103MOL0     H13881  -3.002   7.357   5.702 -1.2451 -0.6071 -0.8094
  103MOL0     H13882  -3.085   7.439   5.830 -1.2171 -0.7211  0.8995
  103MOL0     H13883  -3.211   7.237   5.699 -0.8319 -0.2810  0.6620
  103MOL0     H13884  -3.252   7.368   5.584  1.4088  1.1486 -1.1091
  103MOL0     H13885  -3.423   7.342   5.740 -0.3323 -0.3337  0.2650
  103MOL0     H13886  -3.349   7.493   5.793 -1.5891 -1.4332  3.7433
  103MOL0     H13887  -2.691   7.931   5.976  2.1887 -2.2621  0.9180
  103MOL0     H13888  -2.502   8.018   6.099  0.9657  0.1656  0.0237
  103MOL0     H13889  -2.213   8.342   6.163 -0.3369 -0.3834 -2.2308
  103MOL0     H13890  -2.053   8.464   6.296 -3.3903 -0.4190 -1.3179
  103MOL0     H13891  -0.304   9.273   7.028  1.0020  2.6283 -0.8090
  103MOL0     H13892  -0.103   9.124   7.010  1.9424 -3.0385 -2.3834
  103MOL0     H13893   0.113   8.848   6.639  1.4822  1.2306 -1.8380
  103MOL0     H13894   0.304   8.741   6.546  0.6389  0.0067  0.2342
  103MOL0     H13895   0.692   8.858   6.723 -0.7091 -0.7428  0.8238
  103MOL0     H13896   0.690   8.686   6.767 -2.3051 -0.3268 -0.1514
  103MOL0     H13897   0.734   8.623   6.520 -0.4065  0.0136 -0.2292
  103MOL0     H13898   0.855   8.672   6.632 -0.7822 -0.8713  1.2712
  103MOL0     H13899   0.703   8.893   6.479  0.3377  0.6727  0.0961
  103MOL0     H13900   0.812   8.797   6.383 -1.5798 -2.4614  0.0901
  103MOL0     H13901   0.923   8.963   6.627  3.0639 -1.2613  0.1345
  103MOL0     H13902   0.894   9.017   6.471  0.7788  0.1878  0.2509
  103MOL0     H13903   1.235   8.743   6.494  0.3161  1.4602  0.7717
  103MOL0     H13904   0.542   8.863   6.872 -0.2349 -0.2033  1.2872
  103MOL0     H13905   0.344   8.980   6.971 -1.1587 -1.0150  0.7076
  104MOL0     O13906   1.186   2.943   8.282  0.4202 -0.2755 -0.4338
  104MOL0     C13907   1.259   2.843   8.293 -0.0931 -0.2830 -0.3322
  104MOL0     O13908   1.259   2.746   8.388  0.2378  0.0739  0.4377
  104MOL0     C13909   1.157   2.744   8.478  0.5587 -1.0550  0.1940
  104MOL0     C13910   1.072   2.633   8.484 -0.4930  0.1322  0.4902
  104MOL0     C13911   0.970   2.632   8.572  0.7697  0.3211 -0.5754
  104MOL0     C13912   0.953   2.738   8.669 -0.2777 -0.6800 -0.3404
  104MOL0     O13913   0.852   2.756   8.755  0.0439 -0.4084  0.0948
  104MOL0     C13914   0.725   2.705   8.716 -0.5591  0.4942 -0.8386
  104MOL0     C13915   0.627   2.755   8.819  0.2275 -0.7418 -0.0308
  104MOL0     C13916   0.480   2.731   8.768 -0.3121 -0.0713 -0.5368
  104MOL0     C13917   0.386   2.826   8.850  0.3139 -0.1899  0.4211
  104MOL0     C13918   0.248   2.755   8.850 -0.1680  0.4470 -0.2032
  104MOL0     C13919   0.151   2.865   8.897  0.3227 -0.5794 -0.1699
  104MOL0     C13920   0.010   2.823   8.941  0.1070  0.5699 -0.0904
  104MOL0     C13921  -0.072   2.768   8.829  0.6356  0.4480 -0.3626
  104MOL0     N13922  -0.208   2.760   8.877 -0.8161 -0.1565 -0.7473
  104MOL0     C13923  -0.262   2.663   8.956  0.2810  0.4131 -0.5869
  104MOL0     C13924  -0.396   2.704   8.979 -0.6153 -0.3193  0.1913
  104MOL0     C13925  -0.494   2.655   9.085 -0.0722  0.4749  0.0569
  104MOL0     C13926  -0.625   2.611   9.021 -0.0935 -0.6635  1.1039
  104MOL0     C13927  -0.726   2.723   9.025  0.7433  0.8369  0.2926
  104MOL0     C13928  -0.786   2.758   8.892 -0.8189 -0.6304 -0.7378
  104MOL0     O13929  -0.882   2.664   8.841  0.3028 -0.2546  0.5570
  104MOL0     C13930  -0.999   2.719   8.799  0.2983  0.3824  0.1043
  104MOL0     C13931  -1.016   2.846   8.737  0.7742 -0.7298 -0.8143
  104MOL0     C13932  -1.145   2.895   8.693 -0.5665  0.1959  0.5552
  104MOL0     C13933  -1.142   3.029   8.630  0.4572 -0.4971 -0.0943
  104MOL0     C13934  -1.263   2.819   8.717 -0.1163  0.9227 -0.8722
  104MOL0     C13935  -1.400   2.846   8.674 -0.1125  0.5246 -0.0680
  104MOL0     O13936  -1.415   2.935   8.566 -0.4508 -0.0210  0.3794
  104MOL0     C13937  -1.542   2.965   8.542  0.1947 -0.9339 -0.3218
  104MOL0     C13938  -1.619   3.049   8.627  0.0982 -0.4248  0.3355
  104MOL0     C13939  -1.757   3.058   8.609  0.6566  0.3360 -0.0900
  104MOL0     C13940  -1.822   2.991   8.506  0.0089 -0.0650  0.0835
  104MOL0     O13941  -1.954   2.997   8.468 -0.1783  0.1660 -0.1602
  104MOL0     C13942  -2.044   3.064   8.549  0.1643  0.2258 -0.1258
  104MOL0     C13943  -2.179   3.071   8.472 -0.8009  0.5384  0.1632
  104MOL0     C13944  -2.253   2.935   8.474 -0.9155  0.0098 -0.2874
  104MOL0     C13945  -2.391   2.933   8.399  0.1315 -0.0169 -0.6483
  104MOL0     C13946  -2.487   3.054   8.440 -0.0938  0.0513  0.2959
  104MOL0     C13947  -2.618   3.043   8.364  0.3644  0.2727  0.2956
  104MOL0     C13948  -2.697   2.909   8.403  0.5494 -1.2055  0.3511
  104MOL0     C13949  -2.829   2.910   8.347  0.3062  1.0201 -0.0891
  104MOL0    Cl13950  -2.936   3.033   8.443 -0.2686  0.7461 -0.6449
  104MOL0     C13951  -1.737   2.921   8.419  0.1082  0.3151 -0.3174
  104MOL0     C13952  -1.595   2.902   8.434 -0.3979 -1.0460  0.1936
  104MOL0     O13953  -1.495   2.780   8.723  0.3742  0.1278 -0.0358
  104MOL0     C13954  -1.235   2.696   8.782 -0.2210 -0.3797 -0.6467
  104MOL0     C13955  -1.111   2.639   8.823 -1.1244 -0.5691 -0.4978
  104MOL0     N13956  -0.421   2.811   8.894 -0.9736 -0.0780 -0.7025
  104MOL0     N13957  -0.314   2.843   8.830  0.2097  0.4826 -0.2737
  104MOL0     C13958   1.046   2.848   8.673  0.0111 -0.1902  0.7324
  104MOL0     C13959   1.140   2.854   8.568  1.1879 -0.5372  0.7028
  104MOL0     C13960   1.371   2.826   8.188 -0.4944 -0.6368 -0.4014
  104MOL0     C13961   1.464   2.716   8.194 -0.0402  0.9506 -0.8642
  104MOL0     C13962   1.579   2.711   8.107  0.1431 -0.0538 -1.0279
  104MOL0     C13963   1.596   2.810   8.012  0.6328 -0.1607 -0.4905
  104MOL0     O13964   1.701   2.823   7.923 -0.1551  0.2908 -0.2317
  104MOL0     C13965   1.821   2.747   7.952  0.7569  0.3276 -0.6777
  104MOL0     C13966   1.807   2.618   7.874  0.8886  0.8009 -0.1536
  104MOL0     C13967   1.943   2.548   7.844  0.0339  0.2859  0.0382
  104MOL0     C13968   2.015   2.593   7.716  0.3793  0.1219 -0.3004
  104MOL0     C13969   1.960   2.538   7.594 -0.8524 -0.4021  0.2503
  104MOL0     C13970   1.910   2.478   7.500  0.3872 -0.4324  0.4289
  104MOL0     C13971   1.502   2.910   8.001  0.3559  0.6291 -0.4812
  104MOL0     C13972   1.391   2.926   8.086  0.5580  0.8804  0.3942
  104MOL0     H13973   1.090   2.550   8.416  0.6440  0.8056 -0.0562
  104MOL0     H13974   0.900   2.550   8.562 -0.4069  1.4888 -2.9228
  104MOL0     H13975   0.695   2.744   8.619  0.9288  2.5311 -0.5680
  104MOL0     H13976   0.724   2.596   8.709  1.0254 -0.1051  4.1413
  104MOL0     H13977   0.639   2.696   8.911  1.7907  0.7978  0.8158
  104MOL0     H13978   0.641   2.858   8.851 -1.3687 -0.9084  1.3586
  104MOL0     H13979   0.469   2.762   8.664 -1.1341  1.6514  0.0218
  104MOL0     H13980   0.452   2.627   8.782  0.1312 -0.3356 -1.5299
  104MOL0     H13981   0.412   2.846   8.954 -3.0237  0.1142  1.2984
  104MOL0     H13982   0.383   2.922   8.798 -0.4150  0.3735  1.4806
  104MOL0     H13983   0.224   2.721   8.749  1.6287 -2.3733  0.2010
  104MOL0     H13984   0.249   2.665   8.912 -0.5141  0.5650 -0.0214
  104MOL0     H13985   0.189   2.915   8.987 -3.8952 -0.2023  1.6015
  104MOL0     H13986   0.137   2.934   8.814  0.1275  1.3371  1.3779
  104MOL0     H13987   0.019   2.743   9.014 -0.7501  1.3469  0.9022
  104MOL0     H13988  -0.041   2.909   8.986  2.2070  1.9171 -0.1320
  104MOL0     H13989  -0.032   2.671   8.798  1.5088 -0.6076  3.5962
  104MOL0     H13990  -0.065   2.834   8.742 -0.7307  0.2803 -0.6249
  104MOL0     H13991  -0.217   2.589   9.021 -1.0375  0.5645  0.5366
  104MOL0     H13992  -0.449   2.564   9.124  3.4507  2.5962  1.4137
  104MOL0     H13993  -0.525   2.720   9.168 -1.9538 -1.3253  0.8582
  104MOL0     H13994  -0.668   2.533   9.084  1.1642 -0.8368  1.7733
  104MOL0     H13995  -0.597   2.573   8.922  0.3516  1.7453  0.2391
  104MOL0     H13996  -0.683   2.815   9.065  0.7537  1.2352 -0.6236
  104MOL0     H13997  -0.812   2.690   9.084 -0.5864 -1.8684 -2.8159
  104MOL0     H13998  -0.699   2.755   8.826  1.0643 -0.1357  1.5940
  104MOL0     H13999  -0.820   2.861   8.901  1.6898  0.2475 -0.6053
  104MOL0     H14000  -0.932   2.906   8.703  0.0064 -0.0794 -1.5977
  104MOL0     H14001  -1.079   3.104   8.679 -0.5745  0.0077  0.4945
  104MOL0     H14002  -1.109   3.009   8.528 -0.0350 -0.5675 -0.2436
  104MOL0     H14003  -1.244   3.069   8.635  0.8187  0.3041  1.8320
  104MOL0     H14004  -1.564   3.100   8.705  0.2581  0.6716 -0.4784
  104MOL0     H14005  -1.820   3.119   8.673 -1.2981  0.2047 -1.7827
  104MOL0     H14006  -2.047   3.012   8.644  0.6261  1.8264  0.8093
  104MOL0     H14007  -2.008   3.165   8.571  1.1239 -0.2557  0.5792
  104MOL0     H14008  -2.232   3.148   8.529  0.7968  0.9116  1.1913
  104MOL0     H14009  -2.155   3.109   8.372 -0.7812 -2.2840 -0.9855
  104MOL0     H14010  -2.273   2.921   8.581  2.7857  0.2231  0.5724
  104MOL0     H14011  -2.182   2.868   8.426  1.9314  3.1286 -0.7782
  104MOL0     H14012  -2.374   2.934   8.291 -2.5769 -3.1890 -1.2819
  104MOL0     H14013  -2.441   2.838   8.417  0.3050  0.2821  1.7375
  104MOL0     H14014  -2.436   3.148   8.418 -0.2696  0.2101  0.5649
  104MOL0     H14015  -2.519   3.046   8.544 -0.3158 -1.2958  0.1438
  104MOL0     H14016  -2.683   3.130   8.378 -2.1161 -1.6739  1.7371
  104MOL0     H14017  -2.591   3.030   8.259  0.4317 -1.7129  0.5210
  104MOL0     H14018  -2.700   2.913   8.513  1.8366 -2.6519  0.4840
  104MOL0     H14019  -2.639   2.823   8.369 -2.1332 -2.5535 -1.1001
  104MOL0     H14020  -2.864   2.811   8.375  3.5609 -0.6374 -1.3063
  104MOL0     H14021  -2.830   2.916   8.238  2.0679  1.2230 -0.1278
  104MOL0     H14022  -1.796   2.880   8.337 -1.3873  0.0213  0.8658
  104MOL0     H14023  -1.535   2.847   8.363 -0.2698 -0.7081  0.0368
  104MOL0     H14024  -1.315   2.631   8.816  0.3108 -0.8047 -0.1938
  104MOL0     H14025  -1.100   2.540   8.867  0.5750  0.3031  1.1751
  104MOL0     H14026   1.027   2.930   8.741  2.2807  1.6128 -0.6349
  104MOL0     H14027   1.200   2.943   8.551 -3.5833  2.9840  0.1976
  104MOL0     H14028   1.459   2.637   8.267  4.6994  1.1380 -0.0594
  104MOL0     H14029   1.647   2.628   8.126  0.7352  0.6559  0.1287
  104MOL0     H14030   1.914   2.801   7.929  1.3164  0.5715  1.8215
  104MOL0     H14031   1.836   2.726   8.058  0.0109  1.2472 -0.3695
  104MOL0     H14032   1.771   2.648   7.775 -1.1170 -0.0431  0.2854
  104MOL0     H14033   1.740   2.548   7.924  1.3888  1.0757  0.9282
  104MOL0     H14034   1.932   2.440   7.841  1.8136  0.0837 -0.9416
  104MOL0     H14035   2.011   2.578   7.925 -2.3247  2.7043  1.2617
  104MOL0     H14036   2.117   2.557   7.732  0.1735 -0.2616  0.1918
  104MOL0     H14037   2.034   2.701   7.716  1.4693 -0.0544 -0.8922
  104MOL0     H14038   1.859   2.413   7.432 -1.3600  2.8158 -1.6100
  104MOL0     H14039   1.512   2.984   7.923 -0.5132  1.0503 -0.2047
  104MOL0     H14040   1.329   3.015   8.084  1.1455  1.3249  1.2243
  105MOL0     O14041   7.861   2.457  11.121  0.3183  0.5049 -0.0823
  105MOL0     C14042   7.919   2.404  11.030  0.4236  0.2512  0.1035
  105MOL0     O14043   7.869   2.356  10.913  0.2564  0.4564  0.2432
  105MOL0     C14044   7.743   2.395  10.882  0.1606  0.2455  0.5516
  105MOL0     C14045   7.632   2.321  10.916 -0.1841  0.3500 -0.5918
  105MOL0     C14046   7.511   2.372  10.872  0.0030  0.8373 -1.0439
  105MOL0     C14047   7.496   2.493  10.805 -0.9744  0.0674 -0.3009
  105MOL0     O14048   7.379   2.545  10.764 -0.1832  0.3262 -0.7103
  105MOL0     C14049   7.369   2.618  10.645  0.2648  0.3892  0.2712
  105MOL0     C14050   7.229   2.682  10.631 -0.4400  0.1411 -0.6807
  105MOL0     C14051   7.137   2.631  10.529  0.3005 -0.0119  0.0278
  105MOL0     C14052   6.991   2.675  10.559  0.1398 -0.8692 -0.2093
  105MOL0     C14053   6.911   2.694  10.434  0.5886  0.4420 -0.5942
  105MOL0     C14054   6.925   2.577  10.341  0.3827  0.1123  0.2997
  105MOL0     C14055   6.820   2.566  10.238 -0.1790 -0.5506  0.6848
  105MOL0     C14056   6.819   2.694  10.141  0.8331 -0.0055  0.2521
  105MOL0     N14057   6.712   2.695  10.044  0.8460  0.3801  0.3046
  105MOL0     C14058   6.696   2.781   9.940  0.3892 -0.0679  0.2770
  105MOL0     C14059   6.584   2.740   9.877 -0.6597  0.3948  0.8304
  105MOL0     C14060   6.534   2.811   9.753 -0.1913 -0.2921  0.6205
  105MOL0     C14061   6.394   2.784   9.725 -0.2219 -1.0887  0.3369
  105MOL0     C14062   6.292   2.846   9.822 -0.4618  0.6248 -0.3007
  105MOL0     C14063   6.152   2.848   9.765 -0.1609 -0.1444  0.1269
  105MOL0     O14064   6.059   2.906   9.854  0.5175 -0.6844  0.0448
  105MOL0     C14065   5.925   2.890   9.835  0.4370  1.1024 -0.5128
  105MOL0     C14066   5.850   2.859   9.713 -0.1006  0.4770 -0.1084
  105MOL0     C14067   5.714   2.853   9.709  0.4508  0.1781 -0.2091
  105MOL0     C14068   5.653   2.846   9.566  0.0050 -0.3602 -0.5297
  105MOL0     C14069   5.638   2.878   9.829  0.2682 -0.0077 -0.7743
  105MOL0     C14070   5.493   2.889   9.844  0.5353  0.0188 -0.1534
  105MOL0     O14071   5.443   2.892   9.974 -0.0853  0.3024  0.8186
  105MOL0     C14072   5.308   2.892   9.985 -0.2180  0.2952  1.1776
  105MOL0     C14073   5.234   2.787   9.941  0.1316 -0.5038 -0.2850
  105MOL0     C14074   5.096   2.792   9.948  0.6123 -0.3817  0.5175
  105MOL0     C14075   5.030   2.905   9.995 -0.0465 -1.1539  0.0712
  105MOL0     O14076   4.896   2.906  10.018  0.4297 -0.6606 -0.0103
  105MOL0     C14077   4.813   2.805   9.957 -0.9542 -0.2280  0.9451
  105MOL0     C14078   4.668   2.842  10.006  0.0115  0.2770  1.2598
  105MOL0     C14079   4.559   2.739   9.953  0.0366 -0.1389  0.6144
  105MOL0     C14080   4.415   2.789   9.970  0.0781 -0.8110  1.2056
  105MOL0     C14081   4.340   2.718  10.089 -0.6351  0.4060 -0.1886
  105MOL0     C14082   4.328   2.571  10.072 -0.7283  0.6845 -0.4334
  105MOL0     C14083   4.213   2.511  10.151  0.6632  1.0566 -0.2959
  105MOL0     C14084   4.079   2.557  10.096 -0.1489  0.2084  0.4667
  105MOL0    Cl14085   3.936   2.454  10.144 -0.2074 -0.1903  0.2265
  105MOL0     C14086   5.107   3.015  10.039  0.3300 -0.1892  0.9127
  105MOL0     C14087   5.250   2.999  10.038  0.2655 -1.1879 -0.4034
  105MOL0     O14088   5.428   2.897   9.741 -0.0967  0.0100  0.1414
  105MOL0     C14089   5.714   2.899   9.954  0.6721  0.6369 -0.5157
  105MOL0     C14090   5.850   2.905   9.954  0.0385 -0.2324  0.6769
  105MOL0     N14091   6.552   2.615   9.930 -0.3126 -0.5184 -0.3374
  105MOL0     N14092   6.620   2.592  10.031  0.2767  0.5732  0.8847
  105MOL0     C14093   7.613   2.568  10.792  0.3448  0.0150 -0.7012
  105MOL0     C14094   7.739   2.523  10.829  0.3942 -0.0850  0.5441
  105MOL0     C14095   8.063   2.403  11.028 -0.1654 -0.2652 -0.4768
  105MOL0     C14096   8.137   2.487  11.119 -0.1881  0.3699 -0.0519
  105MOL0     C14097   8.278   2.471  11.130  0.6748 -0.3612  0.0744
  105MOL0     C14098   8.352   2.383  11.055  0.3476 -0.1905  0.3723
  105MOL0     O14099   8.487   2.360  11.047  0.0063  0.1156  0.1326
  105MOL0     C14100   8.530   2.250  11.128  0.4747  0.7268 -0.0367
  105MOL0     C14101   8.686   2.264  11.129  0.3820 -0.2608  0.0258
  105MOL0     C14102   8.740   2.227  10.996 -0.2808  0.5736 -0.0928
  105MOL0     C14103   8.897   2.214  11.006  0.0314 -0.2018 -0.0959
  105MOL0     C14104   8.947   2.152  10.893 -0.2106  0.3789  0.2698
  105MOL0     C14105   8.981   2.093  10.790  0.1229 -0.3945  0.2275
  105MOL0     C14106   8.277   2.327  10.957 -0.2205  0.2454 -0.7895
  105MOL0     C14107   8.132   2.325  10.948 -0.4783  1.2607  0.5357
  105MOL0     H14108   7.632   2.225  10.966  0.4361  1.1698  1.0537
  105MOL0     H14109   7.423   2.317  10.902  0.3313  1.9483  2.4376
  105MOL0     H14110   7.431   2.708  10.640  1.9229 -0.7638 -1.5838
  105MOL0     H14111   7.402   2.564  10.555  0.6499  1.1405 -0.0469
  105MOL0     H14112   7.175   2.672  10.725 -1.1565  0.2592 -1.0678
  105MOL0     H14113   7.236   2.791  10.624  0.9780  0.0307 -1.4841
  105MOL0     H14114   7.174   2.649  10.427  2.9535 -0.3183  0.8618
  105MOL0     H14115   7.146   2.523  10.540 -0.6298 -0.5358 -3.1819
  105MOL0     H14116   6.942   2.600  10.622 -2.6417  0.5758 -0.5006
  105MOL0     H14117   6.986   2.769  10.615  0.4491 -0.6732 -0.5083
  105MOL0     H14118   6.809   2.715  10.468  1.5792  1.5896  1.9661
  105MOL0     H14119   6.960   2.778  10.383  0.9288  1.5028  1.3894
  105MOL0     H14120   7.023   2.570  10.293 -0.9091  3.4255 -3.4438
  105MOL0     H14121   6.896   2.492  10.404 -1.8694  0.9215  0.4571
  105MOL0     H14122   6.848   2.475  10.184 -1.2473  0.4645 -1.7148
  105MOL0     H14123   6.719   2.564  10.279 -0.2070  0.5420  0.6832
  105MOL0     H14124   6.919   2.700  10.099  0.3000 -0.7624 -1.1821
  105MOL0     H14125   6.796   2.781  10.204  2.4481  0.5424  0.1202
  105MOL0     H14126   6.766   2.863   9.922  0.6086  0.3599  2.7325
  105MOL0     H14127   6.538   2.918   9.775 -0.7323 -0.4473  1.5446
  105MOL0     H14128   6.597   2.783   9.668 -0.3302  1.5870 -0.1534
  105MOL0     H14129   6.395   2.674   9.721  1.5056 -1.0721 -2.8125
  105MOL0     H14130   6.357   2.812   9.626  1.0628 -1.3603 -0.2365
  105MOL0     H14131   6.312   2.946   9.863 -0.2209 -0.8366  3.5958
  105MOL0     H14132   6.282   2.785   9.913 -1.2188 -1.6914 -1.8594
  105MOL0     H14133   6.125   2.744   9.742  1.2532 -0.4557 -0.2194
  105MOL0     H14134   6.139   2.895   9.667 -1.3669  0.4935  0.5722
  105MOL0     H14135   5.900   2.830   9.621 -0.9411  0.2712 -0.5070
  105MOL0     H14136   5.725   2.886   9.494  1.6467  1.5073  1.9981
  105MOL0     H14137   5.643   2.740   9.541  0.5157 -0.4869 -0.2264
  105MOL0     H14138   5.553   2.889   9.561 -0.3680 -0.9004  1.3312
  105MOL0     H14139   5.275   2.695   9.900 -0.3508 -0.2806 -1.3012
  105MOL0     H14140   5.040   2.708   9.909 -1.7500  1.3679 -0.0759
  105MOL0     H14141   4.820   2.810   9.848 -0.2598 -0.9610  0.9427
  105MOL0     H14142   4.836   2.707   9.999  0.7364  0.4479  1.6976
  105MOL0     H14143   4.665   2.850  10.116 -1.8410 -1.5027  1.4059
  105MOL0     H14144   4.638   2.935   9.957 -0.5783 -1.6677 -2.3451
  105MOL0     H14145   4.576   2.643  10.001  0.2214  0.6962  2.3084
  105MOL0     H14146   4.583   2.725   9.847 -1.7328 -3.0150  0.4823
  105MOL0     H14147   4.413   2.898   9.975  0.5187 -0.4942 -2.5135
  105MOL0     H14148   4.359   2.768   9.878  0.0677 -1.0333  1.2615
  105MOL0     H14149   4.247   2.775  10.101  0.8240  3.1023 -0.9202
  105MOL0     H14150   4.404   2.734  10.176 -0.1954 -0.8498 -0.2602
  105MOL0     H14151   4.326   2.542   9.966 -0.0334 -1.4322  0.0874
  105MOL0     H14152   4.416   2.521  10.114 -0.2330  0.7219 -1.3859
  105MOL0     H14153   4.221   2.528  10.259 -1.7786  0.7689 -0.0029
  105MOL0     H14154   4.218   2.402  10.141  1.4104  1.0377  0.2256
  105MOL0     H14155   4.086   2.559   9.987 -0.2664  4.3034  0.4051
  105MOL0     H14156   4.045   2.659  10.114 -2.6784 -0.2405 -1.1908
  105MOL0     H14157   5.048   3.097  10.079  3.0804  1.6935  1.3655
  105MOL0     H14158   5.303   3.081  10.086 -3.0856  0.4559  0.8537
  105MOL0     H14159   5.669   2.912  10.052 -3.3393  2.4807 -2.3807
  105MOL0     H14160   5.902   2.904  10.050  4.0342  0.2067 -1.2891
  105MOL0     H14161   7.605   2.670  10.754  2.0509 -0.0010 -1.1587
  105MOL0     H14162   7.835   2.567  10.805  0.7888 -0.8601  0.6700
  105MOL0     H14163   8.090   2.558  11.186 -0.2172  1.1959 -0.9351
  105MOL0     H14164   8.331   2.530  11.204  0.2090  0.7372 -0.4422
  105MOL0     H14165   8.480   2.274  11.222 -2.8144 -1.0490 -1.1734
  105MOL0     H14166   8.492   2.157  11.086 -0.2236  0.6490  0.7505
  105MOL0     H14167   8.725   2.203  11.211  1.7529  1.7534  0.9690
  105MOL0     H14168   8.716   2.370  11.133  0.7733 -0.1836 -2.8131
  105MOL0     H14169   8.710   2.301  10.921 -1.0038  0.0018 -0.3936
  105MOL0     H14170   8.699   2.131  10.962 -2.9770  1.2188  1.0762
  105MOL0     H14171   8.933   2.155  11.090 -0.5699 -2.5356 -1.3818
  105MOL0     H14172   8.934   2.316  11.019  3.2067 -1.0313 -1.7159
  105MOL0     H14173   9.012   2.066  10.691  0.7425 -1.0798  0.5966
  105MOL0     H14174   8.326   2.250  10.898  1.5999  1.0374 -0.3800
  105MOL0     H14175   8.086   2.253  10.882 -2.9234  2.1969  1.1327
  106MOL0     O14176   5.850   8.945   0.556 -0.5235 -0.3190 -0.1150
  106MOL0     C14177   5.783   9.047   0.553 -0.0584 -0.4686  0.0172
  106MOL0     O14178   5.652   9.050   0.504  0.1570  0.3637 -0.0171
  106MOL0     C14179   5.589   8.937   0.458  0.1941 -0.4873  0.3860
  106MOL0     C14180   5.633   8.799   0.447 -0.0106 -1.0889  0.0206
  106MOL0     C14181   5.548   8.698   0.409  0.5538 -0.6047  0.2690
  106MOL0     C14182   5.424   8.728   0.352  0.0335 -0.1005 -0.1265
  106MOL0     O14183   5.341   8.629   0.301  0.3621 -0.6056  1.0643
  106MOL0     C14184   5.387   8.497   0.273 -0.1845  0.0433 -0.2045
  106MOL0     C14185   5.287   8.440   0.177 -0.9581  0.4925 -0.4530
  106MOL0     C14186   5.151   8.414   0.246 -0.5936  0.1151  0.8321
  106MOL0     C14187   5.068   8.349   0.134 -0.8077  0.1026 -0.0085
  106MOL0     C14188   4.927   8.297   0.183  0.5371  0.6496 -0.7043
  106MOL0     C14189   4.810   8.359   0.093 -0.7997 -0.1386  0.0874
  106MOL0     C14190   4.682   8.288   0.131  0.6484 -0.2937 -0.4097
  106MOL0     C14191   4.570   8.363   0.049 -0.4903  0.6525 -0.4485
  106MOL0     N14192   4.435   8.294   0.056 -1.1782 -0.1482  0.1051
  106MOL0     C14193   4.321   8.352   0.007 -0.9179 -0.4798 -0.4417
  106MOL0     C14194   4.225   8.260   0.053 -0.5493  0.6360  0.6595
  106MOL0     C14195   4.076   8.263   0.011 -0.6309 -1.0136  0.0420
  106MOL0     C14196   4.056   8.205  -0.123  0.0628 -0.1255 -0.1254
  106MOL0     C14197   3.908   8.177  -0.150 -0.3097 -1.1766  0.1032
  106MOL0     C14198   3.842   8.062  -0.079  0.5799 -0.6700  0.8213
  106MOL0     O14199   3.773   8.109   0.036  0.1516  0.0465  0.5909
  106MOL0     C14200   3.641   8.168   0.020  0.1165 -0.3203 -0.7729
  106MOL0     C14201   3.613   8.275   0.109 -0.3779 -0.3626 -0.6344
  106MOL0     C14202   3.490   8.329   0.119 -0.2690 -0.2000 -0.1640
  106MOL0     C14203   3.478   8.446   0.217 -0.0791  0.5346  0.0296
  106MOL0     C14204   3.380   8.286   0.034 -0.5310 -1.0790  0.5480
  106MOL0     C14205   3.244   8.347   0.025  0.9850  0.1448  0.4223
  106MOL0     O14206   3.156   8.274  -0.062 -0.2272  0.4029  0.2074
  106MOL0     C14207   3.020   8.304  -0.055 -0.0661  0.1172  0.8091
  106MOL0     C14208   2.954   8.428  -0.035 -0.5247 -0.0758  0.4606
  106MOL0     C14209   2.807   8.425  -0.017  0.3885 -0.4899 -0.4627
  106MOL0     C14210   2.730   8.309  -0.039 -0.3835  0.7075  0.2411
  106MOL0     O14211   2.593   8.308  -0.042 -1.0354 -0.0141 -0.0573
  106MOL0     C14212   2.511   8.396   0.030 -0.0462  0.0394 -0.9814
  106MOL0     C14213   2.378   8.393  -0.040 -0.4213  0.5242  0.4714
  106MOL0     C14214   2.280   8.497   0.019  0.1388 -0.1523  0.2945
  106MOL0     C14215   2.144   8.505  -0.055  0.2007  0.5313  0.2623
  106MOL0     C14216   2.049   8.383  -0.023 -0.1955 -0.1301  0.5652
  106MOL0     C14217   1.978   8.398   0.111 -0.1782  0.0219 -0.1369
  106MOL0     C14218   1.845   8.321   0.108 -0.0650 -0.8386 -0.4709
  106MOL0     C14219   1.743   8.403   0.032  0.4414 -0.2723  0.3890
  106MOL0    Cl14220   1.591   8.296   0.012  0.4439  0.0319  0.2583
  106MOL0     C14221   2.805   8.192  -0.059 -0.6144 -0.3856  0.3719
  106MOL0     C14222   2.941   8.187  -0.067  0.0613 -0.6869 -0.4771
  106MOL0     O14223   3.215   8.440   0.096 -0.1374  0.5528 -0.3127
  106MOL0     C14224   3.416   8.186  -0.056  0.6584  0.8313  1.3197
  106MOL0     C14225   3.540   8.122  -0.059  0.2610 -0.9130  0.3654
  106MOL0     N14226   4.284   8.147   0.106 -0.0202  0.3379 -0.4858
  106MOL0     N14227   4.413   8.175   0.119  0.5670 -0.2354  0.3820
  106MOL0     C14228   5.384   8.862   0.341  0.8702 -0.6436 -0.5844
  106MOL0     C14229   5.463   8.967   0.398  0.4852  0.4128  0.7260
  106MOL0     C14230   5.825   9.165   0.627 -0.0963  0.6122  0.5643
  106MOL0     C14231   5.945   9.166   0.699  0.2097 -0.1730 -0.8853
  106MOL0     C14232   5.978   9.293   0.765  0.3450 -0.1657 -0.7581
  106MOL0     C14233   5.886   9.402   0.768  0.1076 -0.0967  0.1959
  106MOL0     O14234   5.901   9.525   0.834  0.2127  0.3714  0.2233
  106MOL0     C14235   5.986   9.525   0.952  0.7726 -0.3079  0.0271
  106MOL0     C14236   5.906   9.621   1.043 -0.1108 -0.1178 -0.3828
  106MOL0     C14237   5.934   9.779   1.013  0.6750  1.0717 -0.3959
  106MOL0     C14238   5.840   9.860   1.107  0.0916 -0.3720  0.5836
  106MOL0     C14239   5.865   9.996   1.084  0.5450 -0.1192  0.4649
  106MOL0     C14240   5.883  10.116   1.055 -0.1222 -0.6590  0.0918
  106MOL0     C14241   5.778   9.387   0.687  0.4395 -0.2815 -0.3297
  106MOL0     C14242   5.743   9.278   0.619  0.4597  0.7132 -0.3550
  106MOL0     H14243   5.736   8.776   0.473 -0.0872 -0.2428  1.1465
  106MOL0     H14244   5.586   8.597   0.422 -0.6783 -0.8883  2.0601
  106MOL0     H14245   5.488   8.489   0.230  0.1929 -1.2659  0.8308
  106MOL0     H14246   5.397   8.437   0.364  0.6233 -0.5031 -0.6279
  106MOL0     H14247   5.270   8.513   0.098 -0.3979  1.8466  0.6252
  106MOL0     H14248   5.323   8.351   0.126  0.6004  1.6293 -1.4104
  106MOL0     H14249   5.161   8.352   0.336  0.8641 -1.5274 -0.3967
  106MOL0     H14250   5.105   8.505   0.286  3.0648  1.1908  3.0736
  106MOL0     H14251   5.055   8.422   0.053  2.1450  0.9082  0.1227
  106MOL0     H14252   5.120   8.268   0.081 -1.6160  0.4071 -1.3281
  106MOL0     H14253   4.919   8.188   0.176  2.4899  0.3991  0.2726
  106MOL0     H14254   4.898   8.322   0.286 -4.4414 -0.5428 -1.5543
  106MOL0     H14255   4.807   8.468   0.105  0.5307 -0.0414 -0.3212
  106MOL0     H14256   4.838   8.341  -0.012  1.0806  0.7202  0.4015
  106MOL0     H14257   4.674   8.182   0.103 -1.1990 -1.2213  3.0858
  106MOL0     H14258   4.662   8.298   0.238  0.2682 -0.2667 -0.4801
  106MOL0     H14259   4.601   8.363  -0.056  2.2332 -2.9833  0.1495
  106MOL0     H14260   4.561   8.461   0.097  0.2739 -1.5409  4.9628
  106MOL0     H14261   4.293   8.433  -0.061  0.5286 -0.0088 -0.5105
  106MOL0     H14262   4.018   8.195   0.075  0.7452 -0.5579  1.8399
  106MOL0     H14263   4.038   8.365   0.011 -0.9030 -1.1077  0.7830
  106MOL0     H14264   4.111   8.110  -0.136  0.3561 -0.5739  3.3465
  106MOL0     H14265   4.093   8.273  -0.200 -1.4356 -1.3110 -1.9623
  106MOL0     H14266   3.899   8.154  -0.256 -0.2188  0.5776 -0.3204
  106MOL0     H14267   3.856   8.268  -0.120 -4.1972 -2.8714 -0.9115
  106MOL0     H14268   3.921   8.004  -0.030  1.3118  0.8848  1.5697
  106MOL0     H14269   3.775   8.005  -0.144  0.0472 -0.1516  0.9065
  106MOL0     H14270   3.692   8.294   0.181  1.3857 -0.3918 -2.4806
  106MOL0     H14271   3.571   8.451   0.274  0.6752  0.4832 -1.1478
  106MOL0     H14272   3.460   8.543   0.168 -0.2397 -0.2321 -1.4848
  106MOL0     H14273   3.391   8.437   0.283 -1.2774 -0.1972 -1.5708
  106MOL0     H14274   3.001   8.526  -0.026 -1.2394  0.1982  1.2905
  106MOL0     H14275   2.748   8.515  -0.004  0.1769 -0.4965 -1.2696
  106MOL0     H14276   2.497   8.364   0.134 -1.1576  0.1447 -1.0849
  106MOL0     H14277   2.558   8.495   0.031  1.4550 -0.6417  0.5243
  106MOL0     H14278   2.396   8.422  -0.144  0.3828 -3.7505 -0.7881
  106MOL0     H14279   2.342   8.290  -0.033 -0.7889  0.6499  0.4479
  106MOL0     H14280   2.338   8.589   0.005 -2.1741  1.4124  0.4634
  106MOL0     H14281   2.262   8.484   0.127  0.9007  1.4349  0.6490
  106MOL0     H14282   2.093   8.597  -0.024 -0.9500  0.0900 -0.2703
  106MOL0     H14283   2.162   8.500  -0.163  0.2286 -0.9731  0.3274
  106MOL0     H14284   2.112   8.293  -0.025  0.9532  0.5951  1.9631
  106MOL0     H14285   1.973   8.373  -0.101  0.2451  1.7167 -0.1592
  106MOL0     H14286   2.044   8.353   0.185 -1.7546 -3.0792 -0.4723
  106MOL0     H14287   1.964   8.506   0.128  0.0635 -0.1522  1.2646
  106MOL0     H14288   1.800   8.316   0.207 -2.8333  0.3889 -1.5683
  106MOL0     H14289   1.856   8.226   0.057 -3.3483 -1.4074 -0.3086
  106MOL0     H14290   1.790   8.441  -0.059  1.4595  2.3573  1.8920
  106MOL0     H14291   1.723   8.491   0.093 -0.2328 -0.5000  0.5100
  106MOL0     H14292   2.750   8.098  -0.061  2.3560 -2.2482  1.2745
  106MOL0     H14293   2.991   8.094  -0.091  1.9049 -0.2205  1.3267
  106MOL0     H14294   3.339   8.145  -0.119  0.9853  2.8298 -0.4951
  106MOL0     H14295   3.536   8.037  -0.126 -0.0027  0.8956 -2.0248
  106MOL0     H14296   5.294   8.893   0.289  0.7640  1.1244  0.5853
  106MOL0     H14297   5.419   9.065   0.412  0.2560  0.3788  0.2522
  106MOL0     H14298   6.010   9.080   0.692  0.4411 -0.0564 -0.2774
  106MOL0     H14299   6.071   9.314   0.816 -0.9107 -0.0216  1.6148
  106MOL0     H14300   6.010   9.425   0.989  2.9036 -0.6256 -2.0108
  106MOL0     H14301   6.083   9.571   0.937  0.7653  0.7957  2.7855
  106MOL0     H14302   5.941   9.599   1.144  0.3168 -2.1828 -0.9217
  106MOL0     H14303   5.800   9.594   1.042  0.1065 -1.0712  0.4448
  106MOL0     H14304   5.930   9.803   0.907 -0.4915 -0.7602 -0.8176
  106MOL0     H14305   6.032   9.810   1.049  0.8201  0.3469 -0.1441
  106MOL0     H14306   5.849   9.840   1.214  3.0426 -0.7516  0.3540
  106MOL0     H14307   5.736   9.832   1.085  1.4419 -4.6402 -1.5652
  106MOL0     H14308   5.877  10.219   1.028  1.1490 -0.2237  1.3362
  106MOL0     H14309   5.716   9.475   0.676  2.3193  1.0338 -0.7918
  106MOL0     H14310   5.656   9.272   0.553 -0.6763 -1.2121  1.1897
  107MOL0     O14311   1.468   7.587   8.136 -0.3609 -0.5686  0.2146
  107MOL0     C14312   1.511   7.475   8.111 -0.3369 -0.0914  1.4029
  107MOL0     O14313   1.429   7.361   8.094  0.1169  0.3988  0.0555
  107MOL0     C14314   1.287   7.369   8.096  0.3014  0.0313 -0.3510
  107MOL0     C14315   1.237   7.267   8.024  0.4495  0.6627 -0.1237
  107MOL0     C14316   1.097   7.258   8.007 -0.3410  0.5445 -0.0638
  107MOL0     C14317   1.012   7.345   8.079 -0.5220 -0.0921  0.1886
  107MOL0     O14318   0.882   7.358   8.050 -0.9954  1.0248 -0.2929
  107MOL0     C14319   0.790   7.305   8.148 -0.4425 -0.7541 -0.0956
  107MOL0     C14320   0.665   7.395   8.179  0.7055 -0.5508 -0.0175
  107MOL0     C14321   0.564   7.328   8.274 -0.1064  0.0798  0.9638
  107MOL0     C14322   0.457   7.426   8.328  0.7837  0.0928  0.4413
  107MOL0     C14323   0.349   7.343   8.404  0.6489  0.0596 -0.0376
  107MOL0     C14324   0.260   7.436   8.489 -0.4595  0.2207  0.0622
  107MOL0     C14325   0.166   7.356   8.580 -0.8493 -0.8961  0.2121
  107MOL0     C14326   0.104   7.444   8.680  0.3857  0.6048 -0.2267
  107MOL0     N14327  -0.026   7.400   8.729  0.3190 -0.3074 -0.0623
  107MOL0     C14328  -0.054   7.273   8.769 -0.3673  0.1480  0.2741
  107MOL0     C14329  -0.189   7.253   8.780  0.9313 -0.5912 -0.7368
  107MOL0     C14330  -0.273   7.142   8.847 -0.1087 -0.5257 -0.4253
  107MOL0     C14331  -0.421   7.183   8.872 -0.4652  0.5866  0.0135
  107MOL0     C14332  -0.489   7.052   8.904  0.2916  0.4102  0.0197
  107MOL0     C14333  -0.629   7.086   8.958  0.2678  0.3223  0.1473
  107MOL0     O14334  -0.697   6.961   8.974  0.0523  0.0735 -0.0688
  107MOL0     C14335  -0.826   6.958   9.014 -0.9558  0.3411  0.0418
  107MOL0     C14336  -0.901   7.073   9.040 -0.0989  0.0238  0.4639
  107MOL0     C14337  -1.031   7.067   9.094  0.5936  0.2366 -1.0948
  107MOL0     C14338  -1.086   7.191   9.143 -0.7766 -0.1959  0.1389
  107MOL0     C14339  -1.093   6.942   9.102  0.8477  0.1492 -0.5232
  107MOL0     C14340  -1.231   6.917   9.151  0.0122  0.6928  0.0227
  107MOL0     O14341  -1.314   7.021   9.158  0.2544 -0.9513 -0.7915
  107MOL0     C14342  -1.451   7.008   9.178 -0.3580 -1.0287  0.5969
  107MOL0     C14343  -1.508   6.982   9.305  0.1860 -0.8461  0.9456
  107MOL0     C14344  -1.649   6.964   9.319  0.1060 -0.5915  0.2507
  107MOL0     C14345  -1.730   6.979   9.206  0.1552  0.2180 -0.5970
  107MOL0     O14346  -1.860   6.969   9.235 -0.1812  0.1548 -0.1935
  107MOL0     C14347  -1.949   7.043   9.157  0.2154  0.3225  1.2647
  107MOL0     C14348  -2.065   7.110   9.227 -0.3696  0.7680  0.1101
  107MOL0     C14349  -2.179   7.187   9.144 -0.6271  0.2249  0.4865
  107MOL0     C14350  -2.309   7.106   9.138 -0.6493  0.2865  0.4284
  107MOL0     C14351  -2.426   7.192   9.088 -0.0804 -0.4801 -0.1556
  107MOL0     C14352  -2.564   7.130   9.094  0.2197  0.5641  0.2033
  107MOL0     C14353  -2.681   7.234   9.073 -0.7618  0.2175  1.1973
  107MOL0     C14354  -2.813   7.160   9.046  0.2085  0.0384 -0.0311
  107MOL0    Cl14355  -2.949   7.283   9.062  0.1006  0.2635 -0.2373
  107MOL0     C14356  -1.680   6.987   9.079 -0.8013  0.7340  0.5758
  107MOL0     C14357  -1.542   7.017   9.067 -0.5738 -0.1275  0.5901
  107MOL0     O14358  -1.265   6.801   9.174 -0.1242 -0.3387 -0.0833
  107MOL0     C14359  -1.019   6.830   9.069 -0.1039  0.0537  0.6758
  107MOL0     C14360  -0.882   6.836   9.024 -0.3578 -0.5893 -0.0401
  107MOL0     N14361  -0.247   7.368   8.744 -0.2150 -0.8882  0.4526
  107MOL0     N14362  -0.152   7.449   8.699  0.0123  0.0107 -0.3659
  107MOL0     C14363   1.073   7.443   8.151  0.8142  0.6550 -1.6897
  107MOL0     C14364   1.205   7.461   8.161  0.5584  0.0199 -0.6696
  107MOL0     C14365   1.659   7.452   8.106 -0.3041 -0.3810 -0.0169
  107MOL0     C14366   1.743   7.562   8.090  0.1428  0.0520  0.3439
  107MOL0     C14367   1.878   7.544   8.095  0.1500 -0.3604 -0.2000
  107MOL0     C14368   1.946   7.418   8.096  0.2189 -0.0294  0.6615
  107MOL0     O14369   2.085   7.386   8.080 -0.5343 -0.3577 -0.0933
  107MOL0     C14370   2.186   7.488   8.096  0.2351  0.5577 -0.3305
  107MOL0     C14371   2.192   7.567   7.960  0.0325  0.1179  0.8280
  107MOL0     C14372   2.143   7.490   7.839 -0.7098  0.6232  0.3216
  107MOL0     C14373   2.214   7.517   7.701  0.0170 -0.5346  0.1294
  107MOL0     C14374   2.139   7.631   7.650 -0.3518  0.3585 -0.1858
  107MOL0     C14375   2.075   7.714   7.596 -0.4140  0.7373  0.0511
  107MOL0     C14376   1.852   7.309   8.113 -0.5779  0.2623  0.2189
  107MOL0     C14377   1.713   7.328   8.111 -0.0804  0.4822  0.4065
  107MOL0     H14378   1.299   7.206   7.959  3.2151  3.0445  0.0570
  107MOL0     H14379   1.043   7.183   7.950  1.3752 -0.0772 -0.9711
  107MOL0     H14380   0.746   7.212   8.112  0.0268 -0.6666 -0.9240
  107MOL0     H14381   0.845   7.288   8.241  2.7911  1.3724 -1.4250
  107MOL0     H14382   0.704   7.483   8.232  0.2343 -0.4979  0.2517
  107MOL0     H14383   0.619   7.429   8.086  2.4121  0.9260 -0.3787
  107MOL0     H14384   0.529   7.241   8.217 -2.4249  2.0384 -0.8073
  107MOL0     H14385   0.617   7.297   8.365  1.4700 -1.8871 -0.4971
  107MOL0     H14386   0.501   7.496   8.399  1.7285 -3.1843  3.3994
  107MOL0     H14387   0.391   7.474   8.255 -2.8938 -1.0232  2.7391
  107MOL0     H14388   0.299   7.277   8.333  1.7427 -2.1864  1.1723
  107MOL0     H14389   0.396   7.275   8.476 -1.1376 -4.3541 -2.7053
  107MOL0     H14390   0.325   7.490   8.558 -2.1736  2.7324 -0.1744
  107MOL0     H14391   0.208   7.508   8.425 -3.5678 -0.8036  1.2481
  107MOL0     H14392   0.096   7.302   8.515 -0.0278 -2.2546  0.4234
  107MOL0     H14393   0.213   7.275   8.636  1.0020  0.1936  0.3087
  107MOL0     H14394   0.082   7.540   8.633 -0.7880  0.2417 -0.4611
  107MOL0     H14395   0.170   7.463   8.765 -1.0946 -0.6632  1.2855
  107MOL0     H14396   0.009   7.185   8.777 -2.8243 -1.8079 -0.6135
  107MOL0     H14397  -0.269   7.056   8.778  0.9221 -2.4558  1.8924
  107MOL0     H14398  -0.233   7.102   8.940 -1.2912 -3.1849 -0.9573
  107MOL0     H14399  -0.463   7.227   8.782 -1.3846  2.3502  1.2409
  107MOL0     H14400  -0.432   7.263   8.946 -1.1818  0.2877  0.2510
  107MOL0     H14401  -0.437   6.992   8.979  2.3403 -0.6259 -2.1055
  107MOL0     H14402  -0.492   6.989   8.814 -2.9663  1.1846 -0.5669
  107MOL0     H14403  -0.677   7.145   8.880 -0.8247  2.1285  2.0826
  107MOL0     H14404  -0.621   7.137   9.055 -0.5956 -0.3974  0.6157
  107MOL0     H14405  -0.849   7.168   9.039  0.2453 -0.1618  0.8699
  107MOL0     H14406  -1.011   7.271   9.140 -1.3476  0.4551  1.9289
  107MOL0     H14407  -1.164   7.233   9.078 -1.7070  4.2518  3.6080
  107MOL0     H14408  -1.129   7.181   9.243  0.3600  0.4171  0.7163
  107MOL0     H14409  -1.437   6.969   9.386 -0.9824  0.0808  2.1633
  107MOL0     H14410  -1.689   6.943   9.417 -0.7532  0.9008  0.2376
  107MOL0     H14411  -1.905   7.123   9.097 -1.5573  1.1665  1.0364
  107MOL0     H14412  -1.993   6.967   9.091 -1.4745  2.5746 -0.3356
  107MOL0     H14413  -2.115   7.034   9.288 -0.6415  1.1222  0.3340
  107MOL0     H14414  -2.020   7.189   9.288  2.6322 -0.7574  0.0461
  107MOL0     H14415  -2.135   7.213   9.048  0.5922  1.4142  1.3394
  107MOL0     H14416  -2.196   7.281   9.198  2.5376  1.0191  0.2877
  107MOL0     H14417  -2.304   7.026   9.063 -1.3507 -1.8857  2.5694
  107MOL0     H14418  -2.330   7.069   9.238 -0.2555  3.4794  1.8191
  107MOL0     H14419  -2.415   7.216   8.982 -0.5607 -1.0750 -0.3438
  107MOL0     H14420  -2.435   7.286   9.144 -1.6194  0.1556 -1.3783
  107MOL0     H14421  -2.563   7.051   9.018  2.7700  1.6662 -0.9994
  107MOL0     H14422  -2.565   7.089   9.196 -1.3770  1.5232  0.6178
  107MOL0     H14423  -2.661   7.296   8.985 -0.9669  0.2847  1.1978
  107MOL0     H14424  -2.680   7.306   9.155  2.2852  0.5205  0.9869
  107MOL0     H14425  -2.828   7.081   9.119  1.7415  1.2539  1.7042
  107MOL0     H14426  -2.822   7.118   8.945 -0.5207  1.1679 -0.4620
  107MOL0     H14427  -1.745   6.974   8.994 -0.2804  0.0490  0.2662
  107MOL0     H14428  -1.482   7.035   8.978  0.6602 -2.5846  0.8514
  107MOL0     H14429  -1.059   6.729   9.075  2.5364 -1.1644 -0.3147
  107MOL0     H14430  -0.840   6.739   8.996  0.4701  0.5819 -3.2604
  107MOL0     H14431   1.014   7.522   8.198 -0.3383 -1.0502 -0.1312
  107MOL0     H14432   1.237   7.547   8.219 -0.5178 -1.5927  2.5545
  107MOL0     H14433   1.695   7.659   8.077 -1.5699 -1.0691 -2.5767
  107MOL0     H14434   1.935   7.637   8.093 -2.8018  1.5655 -0.6836
  107MOL0     H14435   2.157   7.566   8.167  0.6525  1.0520 -0.6972
  107MOL0     H14436   2.279   7.446   8.136 -1.3782 -2.2309  0.7905
  107MOL0     H14437   2.291   7.613   7.949 -0.2578  0.4320 -0.8058
  107MOL0     H14438   2.125   7.653   7.973 -0.3314 -0.3452  2.2225
  107MOL0     H14439   2.033   7.491   7.832 -0.8564 -2.7876  0.4621
  107MOL0     H14440   2.166   7.385   7.860  1.0935  1.2357  1.6232
  107MOL0     H14441   2.199   7.425   7.643 -0.0524 -1.3491  1.4013
  107MOL0     H14442   2.320   7.540   7.720  0.4811 -0.7037 -1.9908
  107MOL0     H14443   2.007   7.782   7.550 -2.5955 -1.6263 -0.4055
  107MOL0     H14444   1.891   7.209   8.128  0.4978  1.0303  3.2719
  107MOL0     H14445   1.645   7.243   8.116 -1.0288  1.0911 -1.3260
  108MOL0     O14446   1.040   6.899   8.967 -0.4108 -0.0238 -0.0481
  108MOL0     C14447   1.066   6.823   9.060 -0.0860  0.9158 -0.5594
  108MOL0     O14448   0.994   6.816   9.182  0.0912 -0.2216 -0.6470
  108MOL0     C14449   0.888   6.905   9.190  0.3006  0.3335 -0.1889
  108MOL0     C14450   0.770   6.861   9.132  0.1284  0.0709 -0.6207
  108MOL0     C14451   0.667   6.942   9.141 -0.1093 -0.4640  0.1101
  108MOL0     C14452   0.661   7.061   9.197 -0.4327 -1.0271 -0.0153
  108MOL0     O14453   0.540   7.113   9.209 -0.1561 -0.2597  0.1376
  108MOL0     C14454   0.496   7.152   9.340 -0.1441 -0.6826 -0.6981
  108MOL0     C14455   0.442   7.291   9.348 -1.0397  0.1596  0.0287
  108MOL0     C14456   0.323   7.307   9.258  0.5183  0.3862 -0.9061
  108MOL0     C14457   0.285   7.456   9.244  0.4366 -0.1167  0.1717
  108MOL0     C14458   0.190   7.473   9.126 -0.5838  0.1515  0.0762
  108MOL0     C14459   0.123   7.611   9.124  0.1119  0.2703  0.6264
  108MOL0     C14460   0.018   7.641   9.017 -0.8414  0.0581 -0.8252
  108MOL0     C14461  -0.031   7.783   9.034  0.0529  0.8975 -0.3465
  108MOL0     N14462  -0.128   7.805   8.930 -0.5147 -0.6553  0.2882
  108MOL0     C14463  -0.241   7.725   8.902  0.1382  0.7040  0.4120
  108MOL0     C14464  -0.289   7.768   8.780 -0.0438  0.1517 -0.1874
  108MOL0     C14465  -0.405   7.700   8.733  0.1102 -0.5670  0.3679
  108MOL0     C14466  -0.485   7.769   8.622  0.1321  0.6901 -0.0948
  108MOL0     C14467  -0.449   7.700   8.489  0.2268  0.3024 -0.9349
  108MOL0     C14468  -0.298   7.717   8.459  0.4064 -0.4284  0.9850
  108MOL0     O14469  -0.283   7.674   8.325  0.5175 -0.6276  0.3628
  108MOL0     C14470  -0.165   7.679   8.257  0.1051  0.2506  0.7496
  108MOL0     C14471  -0.161   7.691   8.120  0.3683  0.6753 -0.1934
  108MOL0     C14472  -0.035   7.696   8.053 -0.1375  0.2457 -0.7394
  108MOL0     C14473  -0.050   7.652   7.915  1.0370  0.8981  0.4557
  108MOL0     C14474   0.086   7.723   8.119 -0.6721 -0.0047  0.6816
  108MOL0     C14475   0.212   7.737   8.040 -0.7201  0.0717 -0.2918
  108MOL0     O14476   0.328   7.733   8.108  0.2386  0.0768  0.1729
  108MOL0     C14477   0.444   7.730   8.042 -0.5345 -0.2748 -0.2391
  108MOL0     C14478   0.462   7.686   7.905 -0.2302 -0.1996  0.4778
  108MOL0     C14479   0.593   7.673   7.858  0.0267 -0.4753 -0.3557
  108MOL0     C14480   0.701   7.705   7.941 -0.1133  1.3315  0.7230
  108MOL0     O14481   0.833   7.710   7.888  0.0355 -0.5329  0.1156
  108MOL0     C14482   0.869   7.603   7.801 -0.3385  0.8480  0.4802
  108MOL0     C14483   1.026   7.597   7.824 -0.3988  0.2196 -0.0252
  108MOL0     C14484   1.103   7.498   7.742 -0.0058 -0.1424  0.2023
  108MOL0     C14485   1.251   7.530   7.724 -1.2478  0.5781  0.3582
  108MOL0     C14486   1.305   7.407   7.648  0.0009  0.6778  0.0509
  108MOL0     C14487   1.453   7.419   7.614 -0.3548 -0.1513 -1.0193
  108MOL0     C14488   1.528   7.430   7.747 -0.2729  0.0015  0.4993
  108MOL0     C14489   1.675   7.402   7.724  0.4257  0.6016  0.2023
  108MOL0    Cl14490   1.756   7.529   7.614  0.2230 -0.4350  0.0579
  108MOL0     C14491   0.685   7.751   8.066  0.0991 -0.0633  0.4508
  108MOL0     C14492   0.553   7.766   8.120  0.1113 -0.6359  0.2211
  108MOL0     O14493   0.202   7.775   7.922  0.2617  0.5858 -0.1337
  108MOL0     C14494   0.081   7.723   8.258  0.0017 -0.6545  0.1136
  108MOL0     C14495  -0.042   7.681   8.321  0.7364  0.7493 -0.1528
  108MOL0     N14496  -0.205   7.868   8.736  0.1223 -0.5982 -0.1070
  108MOL0     N14497  -0.114   7.888   8.825  0.3505  0.5035  0.4246
  108MOL0     C14498   0.783   7.097   9.259  0.9551  0.0987  0.1311
  108MOL0     C14499   0.900   7.028   9.253 -0.8867 -0.1707 -0.1306
  108MOL0     C14500   1.192   6.741   9.040  0.4626  0.2143  0.7158
  108MOL0     C14501   1.264   6.734   8.916  0.0091 -0.0680  0.7023
  108MOL0     C14502   1.396   6.685   8.916 -0.3870 -0.0939  0.3117
  108MOL0     C14503   1.453   6.624   9.028 -0.2792  1.0351  0.2207
  108MOL0     O14504   1.579   6.566   9.040  0.5004 -0.1089  0.0421
  108MOL0     C14505   1.668   6.567   8.928  0.5823  0.1865  0.7654
  108MOL0     C14506   1.784   6.464   8.949  0.6608 -0.2132 -0.2947
  108MOL0     C14507   1.900   6.496   8.864  0.6790 -0.1126  0.5205
  108MOL0     C14508   2.028   6.434   8.895  0.2686  0.1320 -0.2107
  108MOL0     C14509   2.126   6.485   8.797  0.0975 -0.5660 -0.4033
  108MOL0     C14510   2.209   6.543   8.734  0.2158 -0.2208 -0.0460
  108MOL0     C14511   1.379   6.613   9.145  0.2945  0.8943  0.2579
  108MOL0     C14512   1.249   6.675   9.153  0.3163  0.4645  0.2471
  108MOL0     H14513   0.767   6.763   9.086  1.2303 -1.9116  3.1258
  108MOL0     H14514   0.576   6.890   9.112 -0.9617 -0.1466  2.1009
  108MOL0     H14515   0.416   7.080   9.360  0.6581 -1.6173 -0.7875
  108MOL0     H14516   0.574   7.143   9.416 -2.0370  1.4807  1.7001
  108MOL0     H14517   0.418   7.323   9.450  0.9048  1.7888  0.0218
  108MOL0     H14518   0.521   7.358   9.314  0.8803 -3.5290 -3.6597
  108MOL0     H14519   0.333   7.278   9.153 -2.3421 -1.6142 -0.7521
  108MOL0     H14520   0.247   7.247   9.309  3.0062 -0.8547  1.5465
  108MOL0     H14521   0.242   7.483   9.340  0.1886 -0.7277  0.2338
  108MOL0     H14522   0.374   7.516   9.224  1.3037 -1.5635 -0.4669
  108MOL0     H14523   0.242   7.450   9.033  1.2365 -3.9145  1.8819
  108MOL0     H14524   0.115   7.393   9.126 -0.3832 -0.0667 -1.2784
  108MOL0     H14525   0.065   7.615   9.216  1.3685 -0.8346  1.4952
  108MOL0     H14526   0.207   7.681   9.116  0.4238 -0.3313 -3.4799
  108MOL0     H14527   0.067   7.635   8.920 -0.6898 -2.5020 -0.6539
  108MOL0     H14528  -0.060   7.565   9.025 -1.3267  0.5514 -0.8090
  108MOL0     H14529   0.050   7.857   9.037 -0.5662  1.6246 -1.0542
  108MOL0     H14530  -0.089   7.795   9.126 -0.6623  1.5177 -0.8697
  108MOL0     H14531  -0.273   7.639   8.960  1.5754 -0.4182 -0.3806
  108MOL0     H14532  -0.387   7.598   8.697 -2.6584 -0.2481 -2.3037
  108MOL0     H14533  -0.470   7.695   8.821  1.5982 -1.3153  1.4745
  108MOL0     H14534  -0.470   7.878   8.619 -1.8232  0.9609 -1.0464
  108MOL0     H14535  -0.592   7.768   8.640 -0.1197 -1.1909 -1.4216
  108MOL0     H14536  -0.501   7.754   8.409 -1.1841  1.7826  0.8988
  108MOL0     H14537  -0.460   7.591   8.494  5.9596 -0.5408  0.9682
  108MOL0     H14538  -0.232   7.674   8.535 -0.2307 -4.6195 -0.5750
  108MOL0     H14539  -0.274   7.824   8.467 -0.2355 -0.3287  1.7457
  108MOL0     H14540  -0.248   7.692   8.055  0.4389 -1.4748 -0.3923
  108MOL0     H14541   0.021   7.571   7.900 -0.3457 -0.2024 -0.3511
  108MOL0     H14542  -0.153   7.619   7.900  0.5224  1.4171  2.4790
  108MOL0     H14543  -0.035   7.725   7.835  0.3183  0.9105  0.3311
  108MOL0     H14544   0.387   7.661   7.831 -1.4199 -2.9456  2.4835
  108MOL0     H14545   0.600   7.632   7.757 -1.4499 -1.5942 -0.0414
  108MOL0     H14546   0.822   7.505   7.812 -1.4742  1.1037 -1.6771
  108MOL0     H14547   0.862   7.633   7.696 -1.5288 -0.5077  0.1317
  108MOL0     H14548   1.052   7.701   7.805  1.3150  0.0789  1.3012
  108MOL0     H14549   1.050   7.577   7.929 -0.7912  1.2442  0.2708
  108MOL0     H14550   1.054   7.466   7.650  2.9108  0.4046 -1.6829
  108MOL0     H14551   1.096   7.402   7.794  0.7061  0.4459  1.4302
  108MOL0     H14552   1.262   7.621   7.664 -3.6144 -0.2915 -1.5750
  108MOL0     H14553   1.306   7.554   7.815  1.8375 -0.4502 -1.1061
  108MOL0     H14554   1.253   7.378   7.556  0.6853  1.1214 -0.4825
  108MOL0     H14555   1.301   7.319   7.713 -2.2866  0.8247  0.1978
  108MOL0     H14556   1.484   7.321   7.579  1.5098 -0.2102  0.6091
  108MOL0     H14557   1.473   7.496   7.539 -1.7341  0.4067 -0.8621
  108MOL0     H14558   1.504   7.368   7.834  0.9174 -0.5342  0.4618
  108MOL0     H14559   1.533   7.532   7.789  2.2348  0.4280 -0.6553
  108MOL0     H14560   1.683   7.304   7.675 -1.4523  1.1190 -1.2513
  108MOL0     H14561   1.721   7.393   7.823 -2.8151  2.6097  2.0916
  108MOL0     H14562   0.767   7.785   8.129 -0.3448  0.5593  0.7026
  108MOL0     H14563   0.531   7.802   8.220  0.0425 -0.6415  0.2086
  108MOL0     H14564   0.169   7.730   8.320  1.2186 -2.3011 -1.3095
  108MOL0     H14565  -0.031   7.681   8.429  1.6295 -1.5311 -0.1778
  108MOL0     H14566   0.774   7.191   9.312 -2.5878 -0.6671  1.2002
  108MOL0     H14567   0.997   7.051   9.297 -0.9495 -1.2937  0.6391
  108MOL0     H14568   1.217   6.767   8.824 -3.9406  0.0494  2.6013
  108MOL0     H14569   1.462   6.704   8.831  1.1149 -1.2112  1.1803
  108MOL0     H14570   1.613   6.540   8.838 -2.6626  0.8997  2.3952
  108MOL0     H14571   1.712   6.667   8.916  0.8496  0.0752  0.8157
  108MOL0     H14572   1.755   6.360   8.933 -0.6947  0.0158  0.4670
  108MOL0     H14573   1.806   6.477   9.056  1.5770  0.9242 -0.6009
  108MOL0     H14574   1.922   6.603   8.871  0.0678  0.0396  0.2110
  108MOL0     H14575   1.876   6.485   8.757 -2.3544  0.4870  1.0514
  108MOL0     H14576   2.020   6.325   8.894  1.2127  0.0311  0.9120
  108MOL0     H14577   2.064   6.459   8.995  2.1124 -1.1424 -0.5214
  108MOL0     H14578   2.286   6.589   8.674  1.5919 -1.0688  1.0181
  108MOL0     H14579   1.428   6.564   9.228  0.3467 -1.3906 -1.0376
  108MOL0     H14580   1.191   6.674   9.245  0.5258  3.1631  0.4761
  109MOL0     O14581   4.238   0.458   0.073  0.0201 -0.4163  0.8173
  109MOL0     C14582   4.192   0.441  -0.038  1.1361 -0.0437  0.6823
  109MOL0     O14583   4.262   0.423  -0.156  0.2449 -0.4051 -0.1495
  109MOL0     C14584   4.391   0.408  -0.153 -1.3951 -1.1903 -1.0936
  109MOL0     C14585   4.440   0.287  -0.106  0.1820  0.5319  0.4441
  109MOL0     C14586   4.579   0.264  -0.118 -0.0217  0.6847 -0.2469
  109MOL0     C14587   4.669   0.356  -0.167  0.1875  0.3980  0.6721
  109MOL0     O14588   4.801   0.333  -0.169  0.0763  0.0835 -0.1630
  109MOL0     C14589   4.897   0.425  -0.203 -0.5690 -1.1283  1.7359
  109MOL0     C14590   4.965   0.495  -0.091  0.3409 -0.8817  0.5757
  109MOL0     C14591   5.087   0.579  -0.128  0.3654  0.1895 -0.7861
  109MOL0     C14592   5.128   0.669  -0.006 -0.2266 -0.0540 -0.4459
  109MOL0     C14593   5.270   0.724  -0.030  0.2454  0.2932 -0.0867
  109MOL0     C14594   5.322   0.774   0.117 -0.5100 -0.3450  0.1181
  109MOL0     C14595   5.461   0.835   0.122  0.3675 -0.2449  0.6449
  109MOL0     C14596   5.520   0.857   0.263 -0.0561  0.2094 -0.0690
  109MOL0     N14597   5.637   0.942   0.285  0.0089 -0.6295 -0.7288
  109MOL0     C14598   5.633   1.079   0.307 -0.6271 -0.2700 -0.0275
  109MOL0     C14599   5.759   1.108   0.354  0.4775 -0.6632  0.6131
  109MOL0     C14600   5.819   1.235   0.399 -1.0788 -0.6107  0.1291
  109MOL0     C14601   5.831   1.362   0.302  0.1819 -0.6204 -0.5809
  109MOL0     C14602   5.958   1.347   0.218  0.4397  0.5293  0.2152
  109MOL0     C14603   5.967   1.220   0.130  0.7324 -0.5879  0.2812
  109MOL0     O14604   5.853   1.236   0.042  0.6623 -0.1024 -0.5200
  109MOL0     C14605   5.818   1.132  -0.043  0.4705  0.1326 -0.8680
  109MOL0     C14606   5.898   1.012  -0.065 -0.6590 -1.0562 -0.3800
  109MOL0     C14607   5.856   0.904  -0.136 -0.6291  0.5775  0.4468
  109MOL0     C14608   5.954   0.784  -0.159 -0.0963 -0.4964  0.0365
  109MOL0     C14609   5.726   0.901  -0.190  0.1601 -0.2027  0.1720
  109MOL0     C14610   5.663   0.784  -0.256  0.1661  1.1528 -0.5561
  109MOL0     O14611   5.574   0.808  -0.350  0.4360 -0.4401 -0.7101
  109MOL0     C14612   5.524   0.697  -0.413  0.7931 -0.4326 -0.5031
  109MOL0     C14613   5.605   0.620  -0.494 -0.1689 -0.0535 -0.1776
  109MOL0     C14614   5.548   0.513  -0.567 -0.4863  0.3553 -1.9178
  109MOL0     C14615   5.413   0.495  -0.573  0.1846  0.4265 -0.6653
  109MOL0     O14616   5.353   0.412  -0.667  0.8745 -0.4786  0.4718
  109MOL0     C14617   5.274   0.476  -0.764  0.3579 -1.7059  0.6255
  109MOL0     C14618   5.219   0.381  -0.867 -0.2837  0.1227  0.2610
  109MOL0     C14619   5.072   0.338  -0.848  0.0325  0.4625 -0.0574
  109MOL0     C14620   5.054   0.234  -0.738 -0.1602  0.0371  0.1449
  109MOL0     C14621   4.906   0.198  -0.708  0.1834  0.0772  0.4617
  109MOL0     C14622   4.805   0.184  -0.826  0.0813 -0.3496  0.3828
  109MOL0     C14623   4.863   0.076  -0.917 -0.8504 -0.6773 -0.2309
  109MOL0     C14624   4.759   0.061  -1.023  0.6612 -1.1009 -0.6327
  109MOL0    Cl14625   4.785  -0.051  -1.154 -0.4041 -0.1503  0.0335
  109MOL0     C14626   5.330   0.572  -0.486  0.5023  0.7196  0.3997
  109MOL0     C14627   5.389   0.669  -0.410  0.0745 -0.6969 -0.4291
  109MOL0     O14628   5.689   0.668  -0.219 -0.6404  0.0065  0.3173
  109MOL0     C14629   5.643   1.019  -0.180  0.1633 -0.8908 -0.5119
  109MOL0     C14630   5.698   1.133  -0.113 -0.2174 -0.7334 -0.1197
  109MOL0     N14631   5.831   0.995   0.360 -0.2095  0.0304 -0.0898
  109MOL0     N14632   5.760   0.899   0.317  0.4533  0.2497  0.1706
  109MOL0     C14633   4.613   0.478  -0.210 -0.7772 -0.4285 -0.0510
  109MOL0     C14634   4.478   0.502  -0.198 -0.6251 -0.3939  1.0069
  109MOL0     C14635   4.044   0.434  -0.054 -0.3555  0.1225 -0.0439
  109MOL0     C14636   3.985   0.424  -0.186 -0.3353  0.4527 -0.4471
  109MOL0     C14637   3.845   0.421  -0.198  0.1448  0.1142 -0.1974
  109MOL0     C14638   3.755   0.399  -0.092  0.4093 -0.1219 -0.0209
  109MOL0     O14639   3.623   0.392  -0.119  0.3608 -0.5501 -0.5413
  109MOL0     C14640   3.529   0.400  -0.008  0.1600  0.2743 -0.7908
  109MOL0     C14641   3.393   0.365  -0.045  0.2763 -0.0979 -0.0444
  109MOL0     C14642   3.304   0.336   0.076 -0.1485 -0.1984  0.5567
  109MOL0     C14643   3.275   0.441   0.185  0.0108  0.3321 -0.2057
  109MOL0     C14644   3.305   0.387   0.322  0.1770  0.3948  0.7979
  109MOL0     C14645   3.319   0.330   0.429  0.8215 -0.7027  0.4741
  109MOL0     C14646   3.814   0.402   0.033 -0.2829 -0.3588  0.4881
  109MOL0     C14647   3.954   0.427   0.053  0.1046 -0.4070 -0.8240
  109MOL0     H14648   4.375   0.210  -0.065 -1.5690  1.6070 -0.1667
  109MOL0     H14649   4.626   0.171  -0.086 -2.4123 -1.0396 -1.4100
  109MOL0     H14650   4.982   0.364  -0.235  0.7591  1.6141 -0.3037
  109MOL0     H14651   4.872   0.494  -0.283  1.3444 -0.1544  1.9248
  109MOL0     H14652   4.896   0.549  -0.026  0.4688 -0.5796  0.4647
  109MOL0     H14653   5.004   0.409  -0.035 -1.4420 -3.4389 -1.8159
  109MOL0     H14654   5.167   0.512  -0.160 -0.3912 -2.1827  1.9390
  109MOL0     H14655   5.058   0.640  -0.214 -0.2354  0.7992 -0.1680
  109MOL0     H14656   5.055   0.749   0.010  1.5887  1.7984 -0.9438
  109MOL0     H14657   5.129   0.615   0.090 -2.0351 -0.7798 -0.7875
  109MOL0     H14658   5.335   0.643  -0.065 -0.8154 -0.2224 -0.9206
  109MOL0     H14659   5.275   0.806  -0.102  0.8600 -1.1414 -1.7637
  109MOL0     H14660   5.251   0.851   0.149  0.5552 -0.1570  2.2309
  109MOL0     H14661   5.327   0.685   0.180  0.0486  0.1334  0.7655
  109MOL0     H14662   5.530   0.766   0.071  1.7636  0.8927  0.9181
  109MOL0     H14663   5.459   0.929   0.067 -1.3956 -2.0661 -2.6737
  109MOL0     H14664   5.556   0.756   0.286 -0.3566  0.4107  1.4088
  109MOL0     H14665   5.447   0.880   0.342  1.2706  0.9098  0.9936
  109MOL0     H14666   5.557   1.157   0.302  0.6863  0.9847 -1.0356
  109MOL0     H14667   5.768   1.266   0.490  1.2020  2.8381  0.4191
  109MOL0     H14668   5.919   1.204   0.428 -0.5874  1.1309  0.3901
  109MOL0     H14669   5.834   1.444   0.374  0.1126 -1.2949  0.2117
  109MOL0     H14670   5.744   1.365   0.236 -2.0416 -0.7591  2.1202
  109MOL0     H14671   6.044   1.349   0.287  0.8490 -2.3902 -0.0750
  109MOL0     H14672   5.970   1.433   0.151 -0.4409 -1.2930 -2.4360
  109MOL0     H14673   5.960   1.126   0.186  0.2542 -1.1820 -0.7474
  109MOL0     H14674   6.063   1.225   0.078  0.1679  0.2082 -0.7326
  109MOL0     H14675   5.992   1.021  -0.010 -2.2408  0.8650  2.2632
  109MOL0     H14676   5.963   0.780  -0.268 -2.6170 -3.3198 -0.2029
  109MOL0     H14677   6.052   0.813  -0.117 -1.6992  6.2422  0.2919
  109MOL0     H14678   5.912   0.687  -0.132 -1.5195 -1.0861 -3.7389
  109MOL0     H14679   5.712   0.634  -0.503 -0.0613 -1.8176 -3.1226
  109MOL0     H14680   5.614   0.452  -0.629  0.6214 -0.7249  0.2149
  109MOL0     H14681   5.188   0.530  -0.723  0.9960  1.3763 -1.6989
  109MOL0     H14682   5.341   0.544  -0.819 -1.8546  0.6221  0.6484
  109MOL0     H14683   5.227   0.432  -0.964  1.1051  1.0898  0.8472
  109MOL0     H14684   5.284   0.293  -0.876 -0.3835  0.0229  0.5300
  109MOL0     H14685   5.048   0.287  -0.942 -2.1883 -0.1154  0.7796
  109MOL0     H14686   5.012   0.429  -0.838 -2.9554 -1.5749  1.8658
  109MOL0     H14687   5.106   0.145  -0.774  0.5522  0.7204 -0.5447
  109MOL0     H14688   5.108   0.265  -0.648  1.1890 -1.6308 -0.0536
  109MOL0     H14689   4.873   0.280  -0.645 -0.2809  0.4505 -0.2492
  109MOL0     H14690   4.909   0.105  -0.650  0.3327  0.0210  0.3661
  109MOL0     H14691   4.707   0.158  -0.785  0.1995  1.5754  2.0678
  109MOL0     H14692   4.795   0.278  -0.882  0.8892 -1.4658 -1.7201
  109MOL0     H14693   4.881  -0.014  -0.858 -1.3549 -1.4288 -1.1837
  109MOL0     H14694   4.954   0.106  -0.970 -2.4872  0.4932 -2.5724
  109MOL0     H14695   4.717   0.154  -1.061  0.5645 -0.1573  1.5970
  109MOL0     H14696   4.673   0.019  -0.970  0.9018 -0.3337  0.4117
  109MOL0     H14697   5.222   0.558  -0.495  0.4108  2.2945 -1.9045
  109MOL0     H14698   5.321   0.717  -0.340 -0.5603 -3.2977  0.8446
  109MOL0     H14699   5.542   1.035  -0.215  0.5229  1.3820 -0.6716
  109MOL0     H14700   5.629   1.214  -0.091 -1.0561 -0.4691 -3.2310
  109MOL0     H14701   4.680   0.558  -0.240 -0.3274 -0.4373  0.9194
  109MOL0     H14702   4.436   0.594  -0.237  1.0398 -0.1910 -0.4942
  109MOL0     H14703   4.054   0.437  -0.268  0.3521  0.3983  0.1104
  109MOL0     H14704   3.818   0.437  -0.302  0.7786  0.9256 -0.2459
  109MOL0     H14705   3.558   0.346   0.082  0.2639 -0.6656 -1.3743
  109MOL0     H14706   3.535   0.503   0.029 -1.6492  0.0484  0.2677
  109MOL0     H14707   3.387   0.271  -0.100  1.0436 -0.2377  0.1036
  109MOL0     H14708   3.338   0.446  -0.095 -0.5455 -1.0634 -0.7377
  109MOL0     H14709   3.340   0.253   0.137 -1.0544  0.2205  1.6772
  109MOL0     H14710   3.201   0.320   0.045 -0.0293 -1.4917  0.7518
  109MOL0     H14711   3.170   0.474   0.182 -0.3416 -0.6419 -4.4456
  109MOL0     H14712   3.341   0.526   0.168  2.2287 -0.9342  1.5726
  109MOL0     H14713   3.318   0.297   0.531 -0.7853 -0.4907  0.5468
  109MOL0     H14714   3.754   0.377   0.121 -0.7636 -0.3641  0.1643
  109MOL0     H14715   3.993   0.443   0.154 -0.9381 -0.9213 -0.3271
  110MOL0     O14716   3.240   9.811   6.800 -0.3140 -0.1287 -0.0980
  110MOL0     C14717   3.237   9.695   6.818 -0.3730 -0.3190 -0.7934
  110MOL0     O14718   3.126   9.630   6.862  0.8679  0.6634  0.1598
  110MOL0     C14719   3.015   9.696   6.909  0.3006  0.9740  0.7105
  110MOL0     C14720   2.887   9.650   6.870  0.9913  0.4814  0.9799
  110MOL0     C14721   2.771   9.717   6.905  0.7161  0.2402 -0.1220
  110MOL0     C14722   2.773   9.826   6.988 -0.6671 -0.2646 -0.2241
  110MOL0     O14723   2.651   9.881   7.020  0.1434 -0.0791  0.0389
  110MOL0     C14724   2.646  10.009   7.091 -0.1173 -0.3853 -0.5630
  110MOL0     C14725   2.493  10.037   7.127  0.5157  0.0750 -0.1896
  110MOL0     C14726   2.414  10.072   7.001 -0.3867  0.8650 -0.1978
  110MOL0     C14727   2.301  10.173   7.006 -0.2823  1.7661  0.2997
  110MOL0     C14728   2.169  10.103   7.048  0.3932  0.7203 -0.6575
  110MOL0     C14729   2.065  10.081   6.937  0.2301  0.7896  0.1606
  110MOL0     C14730   1.927  10.039   6.988  0.2786  0.7336 -1.0398
  110MOL0     C14731   1.842  10.018   6.862 -0.0788  0.4212 -0.5774
  110MOL0     N14732   1.711   9.956   6.909 -0.0663 -0.4108  0.0398
  110MOL0     C14733   1.647   9.964   7.032 -0.0019 -0.3829 -0.5526
  110MOL0     C14734   1.551   9.876   7.025 -0.1347 -0.4213 -0.0540
  110MOL0     C14735   1.443   9.848   7.123 -0.0615 -0.2951  0.2502
  110MOL0     C14736   1.307   9.882   7.053  0.4678  0.7348  0.4808
  110MOL0     C14737   1.185   9.805   7.119  0.1371  0.6791  0.5141
  110MOL0     C14738   1.092   9.897   7.200  0.3800 -0.0513  0.0159
  110MOL0     O14739   1.002   9.813   7.268  0.1106 -0.8614 -0.3152
  110MOL0     C14740   1.022   9.782   7.402  0.2652 -0.5968  0.1503
  110MOL0     C14741   1.151   9.767   7.450 -0.1221  0.4692 -0.1911
  110MOL0     C14742   1.186   9.737   7.585 -0.5511  0.3481 -0.0484
  110MOL0     C14743   1.324   9.751   7.630  0.9963  0.5758  0.5747
  110MOL0     C14744   1.076   9.710   7.672  0.3090  0.0917 -1.3225
  110MOL0     C14745   1.086   9.649   7.809  0.4696 -0.1249 -0.0060
  110MOL0     O14746   1.209   9.608   7.845 -0.1940 -0.5606  0.0499
  110MOL0     C14747   1.234   9.558   7.973  0.8323 -0.4081 -0.1926
  110MOL0     C14748   1.161   9.570   8.097 -0.2373  0.0600  0.0862
  110MOL0     C14749   1.208   9.503   8.219  0.0115 -0.0074  0.5555
  110MOL0     C14750   1.317   9.419   8.205  0.4469 -0.8762 -0.3583
  110MOL0     O14751   1.344   9.337   8.311 -0.7062 -0.4135  0.9207
  110MOL0     C14752   1.485   9.335   8.352 -0.0262  0.3920  0.1409
  110MOL0     C14753   1.475   9.353   8.510 -0.5254  0.1694 -0.4248
  110MOL0     C14754   1.368   9.452   8.573  0.7483 -0.5627  0.0650
  110MOL0     C14755   1.345   9.422   8.718  0.1411  0.5426 -0.0586
  110MOL0     C14756   1.203   9.455   8.755  0.0513  0.0056 -0.2320
  110MOL0     C14757   1.189   9.459   8.907 -0.2580  0.7001 -0.6375
  110MOL0     C14758   1.231   9.333   8.983 -0.1186 -0.7191 -0.9217
  110MOL0     C14759   1.191   9.346   9.133 -0.7214 -0.5380  0.5090
  110MOL0    Cl14760   1.209   9.192   9.225  0.6717  0.3567  0.1085
  110MOL0     C14761   1.386   9.410   8.081  0.1674 -0.0087 -0.2462
  110MOL0     C14762   1.344   9.477   7.975  0.1367 -0.3823  0.3270
  110MOL0     O14763   0.988   9.639   7.881  0.4684  0.3677  0.0188
  110MOL0     C14764   0.944   9.719   7.625 -0.1415 -0.6908 -0.2414
  110MOL0     C14765   0.919   9.768   7.496  0.0871 -0.7496  0.6071
  110MOL0     N14766   1.562   9.803   6.908  0.2222  0.1229  1.2711
  110MOL0     N14767   1.658   9.850   6.843 -0.0978 -0.3595 -0.0502
  110MOL0     C14768   2.907   9.878   7.016  0.2994 -0.5365  0.5864
  110MOL0     C14769   3.023   9.813   6.989  1.1652  0.8553  0.0520
  110MOL0     C14770   3.361   9.620   6.808  0.7106  0.3578  0.8963
  110MOL0     C14771   3.465   9.655   6.722  0.7712  0.0704  0.3820
  110MOL0     C14772   3.591   9.593   6.722  0.5893 -1.2697 -0.3783
  110MOL0     C14773   3.617   9.500   6.821 -0.5698 -0.2168  0.1087
  110MOL0     O14774   3.740   9.443   6.833 -0.0598 -0.7480 -0.2945
  110MOL0     C14775   3.853   9.515   6.800 -0.2065 -0.5263 -0.4017
  110MOL0     C14776   3.970   9.453   6.873  0.6217  0.3012 -0.4378
  110MOL0     C14777   3.983   9.494   7.029 -1.0429 -0.7166  1.2594
  110MOL0     C14778   4.123   9.494   7.084  0.5198  0.6096  0.2814
  110MOL0     C14779   4.185   9.622   7.048 -0.6478 -0.6551 -0.1187
  110MOL0     C14780   4.249   9.711   7.003 -0.6520 -0.9573  0.2090
  110MOL0     C14781   3.525   9.464   6.916  0.2676  0.8245  1.2505
  110MOL0     C14782   3.395   9.522   6.904 -0.7231  0.0573 -0.7902
  110MOL0     H14783   2.874   9.561   6.810  1.0098  0.5875  0.8182
  110MOL0     H14784   2.681   9.672   6.864 -0.5491  2.9638 -0.6080
  110MOL0     H14785   2.705  10.007   7.183 -2.2032 -2.7384  0.8762
  110MOL0     H14786   2.683  10.092   7.031  2.1216 -0.5095  0.5319
  110MOL0     H14787   2.452   9.944   7.168 -3.8098  2.2132  0.8406
  110MOL0     H14788   2.491  10.116   7.203  4.8731 -1.9911  2.4936
  110MOL0     H14789   2.486  10.117   6.931  0.5222  0.1929  0.2862
  110MOL0     H14790   2.385   9.976   6.957  0.4920  0.6345 -0.2844
  110MOL0     H14791   2.322  10.246   7.085 -0.4321 -0.7895  2.8750
  110MOL0     H14792   2.291  10.233   6.915  0.5884  0.4738 -0.6877
  110MOL0     H14793   2.197  10.007   7.093 -0.3159  1.3280  1.1921
  110MOL0     H14794   2.111  10.168   7.115 -2.7047 -1.2699 -1.1679
  110MOL0     H14795   2.050  10.172   6.877 -0.4417  0.2844 -0.4573
  110MOL0     H14796   2.103  10.009   6.864 -1.4349 -1.7709  1.6471
  110MOL0     H14797   1.936   9.951   7.053 -5.9633  1.6156  1.7335
  110MOL0     H14798   1.889  10.118   7.053  0.7065  0.0529  0.0711
  110MOL0     H14799   1.905   9.966   6.790  0.5968  1.4298 -0.7267
  110MOL0     H14800   1.815  10.117   6.825  1.2811  0.2403 -2.1597
  110MOL0     H14801   1.659  10.035   7.113 -2.3546  0.9720 -1.3200
  110MOL0     H14802   1.442   9.739   7.135  0.3606 -0.2881  0.3617
  110MOL0     H14803   1.463   9.896   7.219  1.8241 -0.6303  0.0592
  110MOL0     H14804   1.320   9.847   6.950  1.5482  0.5552  0.6653
  110MOL0     H14805   1.300   9.991   7.057 -0.9163  0.6250  2.2884
  110MOL0     H14806   1.215   9.713   7.171 -0.4904 -1.6159 -2.8668
  110MOL0     H14807   1.124   9.764   7.038  2.9683 -0.8409 -1.0240
  110MOL0     H14808   1.039   9.970   7.138  1.2806  1.5596  1.0708
  110MOL0     H14809   1.151   9.964   7.263 -0.6543  1.0405 -0.1284
  110MOL0     H14810   1.240   9.766   7.389  1.5303  2.0362  2.0307
  110MOL0     H14811   1.318   9.813   7.721 -2.9304  0.5912  0.4635
  110MOL0     H14812   1.369   9.657   7.663  2.1983  0.4814 -1.2101
  110MOL0     H14813   1.400   9.781   7.558  0.2419  1.6590  0.1956
  110MOL0     H14814   1.077   9.639   8.103  0.9144  1.4759  0.2997
  110MOL0     H14815   1.151   9.528   8.309 -3.6587  0.0267 -1.5585
  110MOL0     H14816   1.529   9.239   8.323  3.7323  0.2683  4.9261
  110MOL0     H14817   1.546   9.412   8.303 -0.3104 -0.3690 -1.4479
  110MOL0     H14818   1.457   9.249   8.541  2.4974 -0.1310  0.7461
  110MOL0     H14819   1.574   9.374   8.552 -1.1897 -2.7570  3.1145
  110MOL0     H14820   1.270   9.439   8.526  0.1805 -0.0982  1.0675
  110MOL0     H14821   1.403   9.554   8.557 -0.3603 -0.2910 -0.7593
  110MOL0     H14822   1.356   9.314   8.726 -2.2525 -0.0376 -2.7392
  110MOL0     H14823   1.423   9.476   8.772 -0.1174  0.0376  0.8290
  110MOL0     H14824   1.131   9.382   8.716  1.5079 -0.3794 -2.3981
  110MOL0     H14825   1.184   9.556   8.719  0.4435  0.4182  0.6699
  110MOL0     H14826   1.253   9.541   8.941  0.0090  0.0872  0.4047
  110MOL0     H14827   1.085   9.476   8.936 -0.7373  1.3746 -2.6407
  110MOL0     H14828   1.337   9.315   8.966  0.4676  2.0588 -0.6625
  110MOL0     H14829   1.169   9.251   8.944  0.3994 -0.8412 -1.4956
  110MOL0     H14830   1.085   9.373   9.136 -0.8025 -0.9347  1.7040
  110MOL0     H14831   1.251   9.425   9.179  1.3550 -2.7336  1.8219
  110MOL0     H14832   1.470   9.343   8.066  0.2575  0.2775 -1.0480
  110MOL0     H14833   1.403   9.459   7.885  0.2171 -0.7324  0.4508
  110MOL0     H14834   0.862   9.678   7.682 -0.9526  0.2235 -0.7048
  110MOL0     H14835   0.818   9.778   7.455 -0.1431 -0.5471  1.2155
  110MOL0     H14836   2.919   9.975   7.064  1.8192 -0.6921  0.5673
  110MOL0     H14837   3.121   9.850   7.016  0.6163  0.9065  2.2019
  110MOL0     H14838   3.445   9.723   6.640  1.0009 -0.4061 -0.0775
  110MOL0     H14839   3.667   9.634   6.656 -1.1237  0.8885 -1.1205
  110MOL0     H14840   3.874   9.513   6.692  1.4923  2.1352 -0.2158
  110MOL0     H14841   3.831   9.618   6.829  0.0635 -1.2043  2.5225
  110MOL0     H14842   4.055   9.495   6.817  1.0293  1.2262  0.8187
  110MOL0     H14843   3.988   9.346   6.867  0.1967  0.2355 -0.5255
  110MOL0     H14844   3.926   9.416   7.079  0.1987 -2.5952 -0.1252
  110MOL0     H14845   3.930   9.588   7.046  0.8493  0.3508  1.5190
  110MOL0     H14846   4.182   9.414   7.039  2.1196  1.4448  0.8182
  110MOL0     H14847   4.115   9.480   7.192  0.1289  1.8781  0.4323
  110MOL0     H14848   4.289   9.808   6.979 -0.8773 -0.6523  1.0124
  110MOL0     H14849   3.547   9.392   6.994 -1.1354  1.9778  2.7810
  110MOL0     H14850   3.317   9.487   6.970  1.2585 -3.9918 -0.2720
  111MOL0     O14851   0.820   3.620   0.674  0.0700  0.8321  0.3975
  111MOL0     C14852   0.840   3.502   0.623 -0.0867 -0.9721  0.3475
  111MOL0     O14853   0.754   3.399   0.621 -0.0649  0.1898 -0.9645
  111MOL0     C14854   0.640   3.405   0.691  0.1456 -0.4113 -0.6181
  111MOL0     C14855   0.527   3.352   0.638  0.0494 -0.1373 -0.8934
  111MOL0     C14856   0.407   3.345   0.702  0.1254  0.1078  0.0032
  111MOL0     C14857   0.396   3.402   0.831 -0.2960 -0.3980  0.5851
  111MOL0     O14858   0.282   3.412   0.907  0.5638  0.1962 -0.0094
  111MOL0     C14859   0.184   3.307   0.892  0.3969  0.1632  0.1076
  111MOL0     C14860   0.055   3.369   0.955 -0.0005 -0.5430  0.2980
  111MOL0     C14861  -0.062   3.273   0.939  0.0279  0.1630 -0.0933
  111MOL0     C14862  -0.120   3.315   0.800 -0.0975 -0.0722 -0.1086
  111MOL0     C14863  -0.224   3.212   0.772  0.4426 -0.1010 -0.5624
  111MOL0     C14864  -0.277   3.202   0.628  0.1531 -0.8404 -1.3337
  111MOL0     C14865  -0.409   3.134   0.607 -0.1838  0.4870  0.4723
  111MOL0     C14866  -0.391   2.978   0.593 -0.1907 -0.2202  0.1910
  111MOL0     N14867  -0.525   2.924   0.614  0.5356 -0.2576  0.7196
  111MOL0     C14868  -0.619   2.905   0.516 -1.0205  0.3565 -1.2282
  111MOL0     C14869  -0.733   2.871   0.580  0.7656  0.5128  0.7692
  111MOL0     C14870  -0.858   2.837   0.520 -0.9304 -0.2122 -0.6398
  111MOL0     C14871  -0.943   2.953   0.476  0.0045 -0.0799 -0.8789
  111MOL0     C14872  -0.973   3.065   0.590  0.0099  0.1826  0.1654
  111MOL0     C14873  -1.066   3.010   0.691  0.2467  0.6787  0.5117
  111MOL0     O14874  -1.188   2.969   0.628 -0.5048  0.1383 -0.3250
  111MOL0     C14875  -1.300   3.040   0.626  0.3727 -0.5685 -1.2855
  111MOL0     C14876  -1.382   3.003   0.524 -0.1929 -0.2009  0.4767
  111MOL0     C14877  -1.512   3.048   0.506  1.6840 -1.0421 -0.3704
  111MOL0     C14878  -1.615   2.991   0.407  0.2826 -0.1493 -0.2437
  111MOL0     C14879  -1.552   3.164   0.586 -0.6139 -0.4276  0.3332
  111MOL0     C14880  -1.678   3.245   0.571 -0.2288  0.2813  0.0429
  111MOL0     O14881  -1.718   3.255   0.439  0.9093 -0.3838  0.0403
  111MOL0     C14882  -1.839   3.281   0.396  0.2690 -0.2124  0.1214
  111MOL0     C14883  -1.928   3.366   0.462  0.1461  1.4963 -0.4304
  111MOL0     C14884  -2.059   3.395   0.415 -0.3618  0.5555 -0.2778
  111MOL0     C14885  -2.088   3.343   0.281  0.0854 -0.2967 -0.7175
  111MOL0     O14886  -2.209   3.376   0.219  0.7109 -0.2933  0.0814
  111MOL0     C14887  -2.309   3.452   0.286  0.2582  0.3764 -0.8109
  111MOL0     C14888  -2.430   3.467   0.196  0.6182 -0.4984 -0.7469
  111MOL0     C14889  -2.525   3.571   0.258 -0.9428  0.4087 -0.5323
  111MOL0     C14890  -2.617   3.637   0.151  0.7609  0.2527 -0.2233
  111MOL0     C14891  -2.700   3.753   0.218 -0.3907  1.0036 -0.4290
  111MOL0     C14892  -2.805   3.819   0.112 -0.5185  0.1360 -0.7652
  111MOL0     C14893  -2.885   3.725   0.028 -0.2608  0.2028  0.7319
  111MOL0     C14894  -2.967   3.624   0.111  0.0623 -0.4346 -0.3624
  111MOL0    Cl14895  -3.056   3.706   0.248 -0.2919  0.0198 -0.1847
  111MOL0     C14896  -1.996   3.247   0.226 -0.4554 -0.3498  0.2310
  111MOL0     C14897  -1.873   3.218   0.277  0.0029  0.5349  0.3670
  111MOL0     O14898  -1.726   3.293   0.669 -0.2957  0.0770  0.4390
  111MOL0     C14899  -1.457   3.219   0.670 -0.2658  0.3558  0.4982
  111MOL0     C14900  -1.330   3.159   0.694 -0.0845 -0.3892 -1.7034
  111MOL0     N14901  -0.702   2.853   0.712  0.7774 -0.9250 -0.3363
  111MOL0     N14902  -0.578   2.887   0.732  0.3828  0.0341 -1.0666
  111MOL0     C14903   0.513   3.445   0.892  0.6765  1.4398 -0.4331
  111MOL0     C14904   0.637   3.446   0.825  0.2666  0.4776 -0.2111
  111MOL0     C14905   0.966   3.480   0.548 -0.1963 -0.1558 -0.1454
  111MOL0     C14906   1.078   3.555   0.577 -0.2560 -0.0390 -0.1932
  111MOL0     C14907   1.196   3.516   0.516  0.6166  1.6998 -0.3672
  111MOL0     C14908   1.204   3.412   0.425 -1.3107 -0.1504  0.1324
  111MOL0     O14909   1.328   3.392   0.366  0.8588  0.3288 -0.0031
  111MOL0     C14910   1.346   3.270   0.293 -0.4758 -0.6112 -0.0015
  111MOL0     C14911   1.479   3.255   0.218  0.4943  0.7415  0.0445
  111MOL0     C14912   1.602   3.260   0.310  0.5413  1.2476 -0.3093
  111MOL0     C14913   1.731   3.253   0.231 -0.8715  0.2989  0.6070
  111MOL0     C14914   1.759   3.380   0.152 -0.3025 -0.0114 -0.1748
  111MOL0     C14915   1.779   3.491   0.100 -0.0471 -0.3220  0.6541
  111MOL0     C14916   1.092   3.352   0.389 -0.7934  0.3790  0.5322
  111MOL0     C14917   0.974   3.376   0.457  0.8561  0.5493  1.3979
  111MOL0     H14918   0.541   3.297   0.546  0.7332 -0.6464 -0.4906
  111MOL0     H14919   0.331   3.298   0.640 -0.1186 -1.4195  1.3935
  111MOL0     H14920   0.162   3.294   0.786 -1.1296  0.1692  0.4061
  111MOL0     H14921   0.206   3.214   0.944  1.1326  1.0972  1.5535
  111MOL0     H14922   0.072   3.388   1.061  0.0358  3.5295 -0.2903
  111MOL0     H14923   0.035   3.467   0.912 -0.0416 -0.6246  0.1293
  111MOL0     H14924  -0.033   3.169   0.954 -1.1544 -0.0729  0.6262
  111MOL0     H14925  -0.143   3.298   1.008 -0.4087 -0.9055 -0.2041
  111MOL0     H14926  -0.164   3.415   0.797  2.4612  1.1777  1.0258
  111MOL0     H14927  -0.052   3.310   0.715 -0.4052  1.8743 -0.5144
  111MOL0     H14928  -0.200   3.115   0.816  0.3078  0.9819  2.1209
  111MOL0     H14929  -0.309   3.237   0.835  0.3905 -1.8485  0.1144
  111MOL0     H14930  -0.306   3.303   0.598 -2.2395 -1.2100 -0.4767
  111MOL0     H14931  -0.199   3.163   0.562  1.8827 -2.5303  1.5376
  111MOL0     H14932  -0.471   3.142   0.696  1.1485 -4.6097  2.2381
  111MOL0     H14933  -0.458   3.174   0.518  0.4167 -2.4529 -1.3355
  111MOL0     H14934  -0.319   2.942   0.666 -0.3659  0.2445  0.6029
  111MOL0     H14935  -0.349   2.959   0.494 -1.2119  1.1481 -0.5454
  111MOL0     H14936  -0.611   2.909   0.408  0.3221  2.4944 -1.0996
  111MOL0     H14937  -0.825   2.765   0.445 -0.2959 -0.6847  0.0811
  111MOL0     H14938  -0.913   2.773   0.589 -0.1098 -2.0039 -1.5978
  111MOL0     H14939  -1.039   2.918   0.438 -0.4160  0.7129 -0.5652
  111MOL0     H14940  -0.884   3.000   0.397 -0.2178  1.7952  0.0111
  111MOL0     H14941  -1.017   3.150   0.538 -3.0219 -1.1876  0.3075
  111MOL0     H14942  -0.885   3.090   0.650 -2.1775  3.3232  2.3611
  111MOL0     H14943  -1.079   3.088   0.767 -2.7664  0.5599  0.2330
  111MOL0     H14944  -1.014   2.922   0.731  1.1030  1.9543  2.3383
  111MOL0     H14945  -1.340   2.927   0.459  0.7619 -0.1559  1.0283
  111MOL0     H14946  -1.618   2.882   0.405  1.9980 -0.2641  0.9611
  111MOL0     H14947  -1.716   3.019   0.438  0.7080  0.5441  0.5701
  111MOL0     H14948  -1.600   3.034   0.307 -2.7054  1.5431 -0.0589
  111MOL0     H14949  -1.903   3.421   0.552 -0.5206  0.8173  0.1783
  111MOL0     H14950  -2.121   3.465   0.469  0.8836  2.1000 -0.7501
  111MOL0     H14951  -2.327   3.404   0.382 -1.9695  0.0596 -1.3460
  111MOL0     H14952  -2.267   3.551   0.307 -0.6646  0.0252  3.5929
  111MOL0     H14953  -2.400   3.503   0.097 -0.1014  1.0071 -0.4410
  111MOL0     H14954  -2.485   3.373   0.180 -2.9238  1.6799 -2.5984
  111MOL0     H14955  -2.473   3.658   0.300 -1.0591  1.4348 -2.3682
  111MOL0     H14956  -2.577   3.528   0.344 -0.8296  1.0607 -0.1246
  111MOL0     H14957  -2.561   3.675   0.065  0.9530  0.2859 -0.0839
  111MOL0     H14958  -2.686   3.564   0.107  2.3011 -1.1257 -0.4499
  111MOL0     H14959  -2.631   3.830   0.256  3.8958 -1.9273 -1.5584
  111MOL0     H14960  -2.764   3.720   0.300  1.1067  0.9869  0.7769
  111MOL0     H14961  -2.877   3.878   0.170 -1.9511 -0.3385 -2.0025
  111MOL0     H14962  -2.745   3.886   0.050  2.3298 -1.8059 -0.3106
  111MOL0     H14963  -2.824   3.676  -0.048 -0.4066 -1.4697  1.6453
  111MOL0     H14964  -2.959   3.775  -0.036  1.2315 -0.5061 -1.6565
  111MOL0     H14965  -2.898   3.564   0.172  0.8308  1.6049  0.8773
  111MOL0     H14966  -3.036   3.564   0.050 -0.4588  0.2514 -0.4618
  111MOL0     H14967  -2.031   3.199   0.135  0.5140 -0.1258 -0.2790
  111MOL0     H14968  -1.809   3.146   0.226 -2.5448 -2.0350  0.5327
  111MOL0     H14969  -1.493   3.308   0.721 -1.7395  0.0665  0.0254
  111MOL0     H14970  -1.269   3.203   0.772 -0.5318 -2.0636 -0.3525
  111MOL0     H14971   0.509   3.480   0.995 -1.5939  2.5062 -0.8175
  111MOL0     H14972   0.731   3.481   0.869 -0.0190  2.2289 -0.9366
  111MOL0     H14973   1.076   3.623   0.662 -3.7528  2.2294 -1.8507
  111MOL0     H14974   1.286   3.572   0.540  2.1736 -0.3475 -1.1270
  111MOL0     H14975   1.331   3.188   0.364 -0.4519 -0.0563  0.6529
  111MOL0     H14976   1.264   3.251   0.223 -1.2305  1.6136  0.2018
  111MOL0     H14977   1.484   3.334   0.143  1.2531  0.4502 -0.2226
  111MOL0     H14978   1.475   3.156   0.172  1.1020 -0.0238  1.5527
  111MOL0     H14979   1.592   3.182   0.385 -0.1133  2.7506  1.2399
  111MOL0     H14980   1.603   3.354   0.366 -0.6290  0.2638  1.4756
  111MOL0     H14981   1.725   3.160   0.174  0.7724  0.2617  0.4384
  111MOL0     H14982   1.819   3.246   0.296 -0.4490  3.7030  0.5998
  111MOL0     H14983   1.799   3.588   0.058  0.0458 -0.0144  1.3911
  111MOL0     H14984   1.094   3.270   0.318  1.0942  0.2501  0.6844
  111MOL0     H14985   0.882   3.324   0.431  0.9357 -0.0554  2.2908
  112MOL0     O14986   1.319   4.043   3.614 -0.6338 -0.1458 -0.3276
  112MOL0     C14987   1.213   4.093   3.576 -0.5033 -0.5456 -0.2235
  112MOL0     O14988   1.183   4.158   3.458  0.3585  0.4124  0.1891
  112MOL0     C14989   1.288   4.191   3.380 -0.3122 -0.4410 -0.4001
  112MOL0     C14990   1.303   4.130   3.258 -0.6609  0.3829 -0.5898
  112MOL0     C14991   1.397   4.172   3.165  0.5917  0.3589 -0.7831
  112MOL0     C14992   1.487   4.278   3.198  0.3989 -0.1033  0.3898
  112MOL0     O14993   1.587   4.322   3.118  0.0267  0.1364 -0.0661
  112MOL0     C14994   1.595   4.307   2.968  0.7988  0.1232  0.1122
  112MOL0     C14995   1.738   4.286   2.943  0.3596 -0.5671 -0.2090
  112MOL0     C14996   1.768   4.256   2.796  0.1472 -0.2936 -0.1601
  112MOL0     C14997   1.920   4.216   2.784  0.4819 -0.1157 -0.1574
  112MOL0     C14998   1.967   4.181   2.641  0.0112  0.0417 -0.6849
  112MOL0     C14999   1.963   4.292   2.535 -0.2875 -0.5457 -0.8349
  112MOL0     C15000   2.007   4.262   2.392 -0.2384 -0.0576  0.5454
  112MOL0     C15001   1.918   4.319   2.281  0.8033  0.5213 -0.2881
  112MOL0     N15002   1.773   4.281   2.306 -0.2394 -0.3374 -0.0261
  112MOL0     C15003   1.679   4.368   2.351 -0.0371  0.5873 -0.1037
  112MOL0     C15004   1.571   4.286   2.379  0.1136 -0.0732  1.0067
  112MOL0     C15005   1.438   4.337   2.445  1.0116  1.1179 -0.0816
  112MOL0     C15006   1.409   4.246   2.574 -0.2685  0.5586 -1.0110
  112MOL0     C15007   1.355   4.104   2.555 -0.0019 -0.3366 -0.5692
  112MOL0     C15008   1.267   4.057   2.684 -0.2723  0.6865  0.1415
  112MOL0     O15009   1.157   4.143   2.709  0.3324  0.3053 -0.0620
  112MOL0     C15010   1.068   4.103   2.807  0.3551 -0.0823  0.2640
  112MOL0     C15011   0.951   4.182   2.824 -0.2483 -0.0703  0.1883
  112MOL0     C15012   0.878   4.172   2.947 -0.3871 -0.0562 -0.3237
  112MOL0     C15013   0.774   4.273   2.980 -0.3641 -0.1701  0.0771
  112MOL0     C15014   0.911   4.072   3.042  0.0725  0.6241  1.1664
  112MOL0     C15015   0.840   4.067   3.171 -0.0711 -0.2352 -0.4311
  112MOL0     O15016   0.708   4.028   3.173  0.1218  0.1071 -0.9903
  112MOL0     C15017   0.631   4.065   3.283  0.3447  0.0646  0.1643
  112MOL0     C15018   0.595   4.202   3.298 -0.1318  0.5594  0.5758
  112MOL0     C15019   0.517   4.241   3.405  0.0126 -0.4749  0.6459
  112MOL0     C15020   0.475   4.154   3.501 -0.4666 -0.4658  0.2642
  112MOL0     O15021   0.392   4.212   3.594 -0.6144 -0.0053  0.5360
  112MOL0     C15022   0.313   4.113   3.654  0.0691  0.1009 -0.1133
  112MOL0     C15023   0.176   4.165   3.687  0.7404 -1.0189 -1.1302
  112MOL0     C15024   0.179   4.258   3.813  0.6279 -0.6577  0.5071
  112MOL0     C15025   0.044   4.333   3.826  0.6064 -0.0882 -0.1406
  112MOL0     C15026   0.037   4.439   3.943 -0.0559 -0.0023 -0.1861
  112MOL0     C15027  -0.099   4.506   3.961  0.0258 -0.3440 -0.7239
  112MOL0     C15028  -0.105   4.574   4.096 -0.1623 -0.2869 -0.0047
  112MOL0     C15029  -0.178   4.705   4.093 -0.4998  0.1460  0.1227
  112MOL0    Cl15030  -0.060   4.831   4.026  0.0638  0.3745  0.1100
  112MOL0     C15031   0.522   4.019   3.488 -0.3626 -1.5525  0.2186
  112MOL0     C15032   0.595   3.972   3.379 -0.5720 -0.0861 -0.1430
  112MOL0     O15033   0.921   4.089   3.266  0.1135 -0.1455 -0.1362
  112MOL0     C15034   1.017   3.980   3.014  0.8013 -0.7137 -0.5998
  112MOL0     C15035   1.095   3.999   2.902  0.6445  1.3038 -0.0355
  112MOL0     N15036   1.601   4.158   2.339 -0.5719 -0.3499  0.0029
  112MOL0     N15037   1.720   4.157   2.293  0.1723 -0.2017 -0.6490
  112MOL0     C15038   1.475   4.345   3.324 -0.1455  0.4787  0.0649
  112MOL0     C15039   1.377   4.297   3.417 -0.2032  0.3996 -0.6469
  112MOL0     C15040   1.107   4.104   3.669  0.3791  0.6153  0.0887
  112MOL0     C15041   1.123   4.104   3.810  0.1991  0.0246  0.2973
  112MOL0     C15042   1.007   4.101   3.893 -0.0160  0.4541  0.1081
  112MOL0     C15043   0.880   4.097   3.837 -0.1934 -0.0489 -0.1725
  112MOL0     O15044   0.777   4.111   3.934 -0.2034  0.3880 -0.6283
  112MOL0     C15045   0.636   4.120   3.901 -0.2254 -0.8950 -0.5936
  112MOL0     C15046   0.579   4.260   3.946 -0.8393  0.1909  0.2985
  112MOL0     C15047   0.474   4.260   4.052  0.0771 -0.4554  0.7374
  112MOL0     C15048   0.420   4.400   4.088 -0.5643  0.5416 -0.9937
  112MOL0     C15049   0.325   4.417   4.203 -0.3026 -0.7033  0.4187
  112MOL0     C15050   0.262   4.438   4.303 -0.2692 -0.3079  0.5699
  112MOL0     C15051   0.868   4.097   3.699 -0.4171 -0.2424  0.6612
  112MOL0     C15052   0.978   4.094   3.612  0.7655 -0.4382  0.6995
  112MOL0     H15053   1.242   4.042   3.238  0.0462  0.2915 -2.6587
  112MOL0     H15054   1.392   4.106   3.079 -2.2304 -0.7813  0.1455
  112MOL0     H15055   1.535   4.224   2.931 -0.5504  1.0563  0.1308
  112MOL0     H15056   1.550   4.398   2.928 -1.5453 -0.4856  1.1664
  112MOL0     H15057   1.802   4.368   2.978  1.7163 -1.0596 -1.3905
  112MOL0     H15058   1.759   4.197   3.002 -3.4092 -2.9537 -2.0977
  112MOL0     H15059   1.710   4.168   2.767 -0.3076 -0.2291  0.5086
  112MOL0     H15060   1.733   4.333   2.726  1.2553 -0.6215 -1.1016
  112MOL0     H15061   1.976   4.299   2.826 -0.7992 -0.1256  1.7060
  112MOL0     H15062   1.929   4.131   2.853  0.8896 -0.1928 -0.3071
  112MOL0     H15063   2.070   4.144   2.647 -0.2657 -1.3588 -3.4310
  112MOL0     H15064   1.898   4.100   2.616 -0.8595  0.4503  0.2866
  112MOL0     H15065   1.861   4.332   2.524 -0.2736 -0.3445 -0.2795
  112MOL0     H15066   2.034   4.369   2.567 -3.8545  2.3431  1.0056
  112MOL0     H15067   2.112   4.291   2.387  0.5300 -2.6728  0.0752
  112MOL0     H15068   2.015   4.154   2.380 -0.0869 -0.0262  0.3544
  112MOL0     H15069   1.934   4.263   2.188 -1.2885 -0.2560 -0.2322
  112MOL0     H15070   1.931   4.427   2.277 -1.2412  0.7934 -0.7733
  112MOL0     H15071   1.684   4.472   2.379 -0.3647  0.4347  0.5443
  112MOL0     H15072   1.445   4.439   2.482  0.2109  0.6481  1.4357
  112MOL0     H15073   1.357   4.327   2.372  1.5382  0.8958 -0.6436
  112MOL0     H15074   1.344   4.309   2.636  0.2779  1.9151 -1.7581
  112MOL0     H15075   1.502   4.257   2.630  1.9242  0.3221 -4.3185
  112MOL0     H15076   1.437   4.038   2.522  0.3609  1.0773 -2.7198
  112MOL0     H15077   1.286   4.107   2.470  0.1836  2.9584 -0.7416
  112MOL0     H15078   1.336   4.053   2.768 -0.0534 -3.8057  0.0064
  112MOL0     H15079   1.242   3.953   2.660 -2.8213  1.0338  0.9591
  112MOL0     H15080   0.925   4.261   2.755  2.1695  2.7613  2.2542
  112MOL0     H15081   0.749   4.323   2.886 -2.8271 -2.0659 -0.3841
  112MOL0     H15082   0.681   4.234   3.023  0.0870  1.0149  2.2860
  112MOL0     H15083   0.810   4.341   3.058 -0.0911  1.0682 -1.0890
  112MOL0     H15084   0.618   4.281   3.227 -0.1266  0.8243  0.8707
  112MOL0     H15085   0.491   4.346   3.405  0.5252 -0.2311 -2.4318
  112MOL0     H15086   0.282   4.038   3.580  0.9380  0.6054 -1.0219
  112MOL0     H15087   0.366   4.056   3.731 -1.4384 -3.2516 -1.3755
  112MOL0     H15088   0.151   4.219   3.595  1.8506  0.0950 -0.8087
  112MOL0     H15089   0.119   4.077   3.717 -0.8008  1.0027  2.4958
  112MOL0     H15090   0.262   4.329   3.811  0.4845 -0.4970 -1.9841
  112MOL0     H15091   0.203   4.203   3.905  2.6284 -0.3870  0.2013
  112MOL0     H15092   0.020   4.381   3.731  1.9345  1.1533  0.1162
  112MOL0     H15093  -0.034   4.257   3.835  1.1054 -0.9844 -2.6900
  112MOL0     H15094   0.106   4.523   3.927  0.5734 -0.2547  1.1180
  112MOL0     H15095   0.061   4.394   4.039  0.7163  1.9365  0.5788
  112MOL0     H15096  -0.120   4.575   3.879 -2.9484 -2.5256 -2.0149
  112MOL0     H15097  -0.179   4.431   3.959 -1.2861  1.0418 -1.4035
  112MOL0     H15098  -0.004   4.590   4.135  0.7384 -4.1001 -0.3016
  112MOL0     H15099  -0.171   4.509   4.154 -0.5379  1.0114  1.0563
  112MOL0     H15100  -0.205   4.736   4.194 -0.5868  1.7268 -0.3606
  112MOL0     H15101  -0.258   4.696   4.020  0.9153  1.4375 -1.7010
  112MOL0     H15102   0.498   3.958   3.575  0.9916 -2.4374 -0.0059
  112MOL0     H15103   0.626   3.869   3.360  0.6879  0.0163  1.1611
  112MOL0     H15104   1.034   3.898   3.083 -2.6440 -0.0126  1.3015
  112MOL0     H15105   1.179   3.930   2.890 -0.9005 -0.7137  0.1301
  112MOL0     H15106   1.538   4.429   3.350 -1.2698  1.0826  0.9597
  112MOL0     H15107   1.356   4.365   3.499 -0.9067  0.7982 -1.1567
  112MOL0     H15108   1.211   4.115   3.873 -0.3028  3.8977  0.6115
  112MOL0     H15109   1.021   4.138   3.994  1.4922  3.2091 -1.0090
  112MOL0     H15110   0.617   4.093   3.797 -1.6341 -2.7090  0.0688
  112MOL0     H15111   0.582   4.051   3.967 -0.2291  2.4773  3.2832
  112MOL0     H15112   0.541   4.296   3.850 -1.5866  0.0933  0.5537
  112MOL0     H15113   0.666   4.320   3.974  1.4044 -2.1916 -1.1187
  112MOL0     H15114   0.515   4.209   4.140  0.8662 -2.5360 -0.7463
  112MOL0     H15115   0.387   4.215   4.003 -1.7498  2.9664  0.5943
  112MOL0     H15116   0.377   4.450   4.000  0.9541  0.7482 -1.6496
  112MOL0     H15117   0.506   4.462   4.115 -3.6852  3.9833  2.3301
  112MOL0     H15118   0.208   4.458   4.394 -0.6094  0.1265  0.2772
  112MOL0     H15119   0.771   4.096   3.650  0.3445  0.1808 -0.9255
  112MOL0     H15120   0.946   4.079   3.509 -0.7793  1.5345  0.8379
  113MOL0     O15121  11.235   2.104   6.594  0.8751  0.6544 -0.4197
  113MOL0     C15122  11.249   2.095   6.715 -0.2531  0.2690  0.5797
  113MOL0     O15123  11.155   2.079   6.808  0.1792  0.0007 -1.0833
  113MOL0     C15124  11.028   2.070   6.759  0.3407  0.4745 -0.3878
  113MOL0     C15125  10.947   1.965   6.795 -0.2990 -0.6688 -0.9946
  113MOL0     C15126  10.817   1.960   6.751  0.1102  0.1694  0.2955
  113MOL0     C15127  10.757   2.055   6.667 -0.4754  0.1127 -0.6633
  113MOL0     O15128  10.623   2.043   6.640 -0.3302 -0.3510 -0.0083
  113MOL0     C15129  10.556   2.137   6.555  0.4020  0.9451  0.0582
  113MOL0     C15130  10.423   2.069   6.513 -1.3288  0.1170  0.2199
  113MOL0     C15131  10.399   2.081   6.368  0.4127  0.2004  0.7103
  113MOL0     C15132  10.257   2.001   6.344 -0.3131  0.1995  0.2778
  113MOL0     C15133  10.215   2.002   6.196 -0.4475  0.3254  0.3048
  113MOL0     C15134  10.095   1.917   6.185 -0.3976  0.0748  0.8306
  113MOL0     C15135  10.079   1.884   6.039 -0.2336 -0.1257 -0.3199
  113MOL0     C15136   9.970   1.779   6.017  0.3569 -0.2354 -0.5263
  113MOL0     N15137   9.844   1.824   6.078  0.0560  0.6926  0.3706
  113MOL0     C15138   9.743   1.882   6.008 -0.8286  0.7004  0.3565
  113MOL0     C15139   9.630   1.878   6.085 -0.2009 -0.8702  0.6584
  113MOL0     C15140   9.489   1.932   6.055 -0.0320 -0.0618 -0.5184
  113MOL0     C15141   9.412   1.824   5.976  0.1257  0.4841 -0.8057
  113MOL0     C15142   9.301   1.881   5.877 -0.6908  0.1118 -0.0578
  113MOL0     C15143   9.214   1.765   5.829  0.4359 -0.3832 -0.4838
  113MOL0     O15144   9.257   1.708   5.704 -0.0886 -0.2764 -0.0139
  113MOL0     C15145   9.187   1.612   5.639 -0.5780  0.0552  0.6532
  113MOL0     C15146   9.241   1.565   5.520  0.6149  0.4691  0.3557
  113MOL0     C15147   9.173   1.471   5.436 -0.6065  0.1182  0.3334
  113MOL0     C15148   9.228   1.451   5.295 -0.6337 -0.2518  0.1608
  113MOL0     C15149   9.056   1.410   5.481  0.0640  0.2325 -0.0782
  113MOL0     C15150   8.989   1.302   5.404  0.2584  0.3969  0.0316
  113MOL0     O15151   8.854   1.286   5.420  0.9521 -0.3978 -0.1138
  113MOL0     C15152   8.790   1.189   5.344 -0.6779  0.1744  0.6555
  113MOL0     C15153   8.801   1.166   5.206  0.3784  0.4532  1.5539
  113MOL0     C15154   8.717   1.071   5.142 -0.6753 -0.3945 -0.6586
  113MOL0     C15155   8.635   0.987   5.213  0.1920 -0.1779  0.9373
  113MOL0     O15156   8.550   0.893   5.164  0.5607  0.3272  0.0971
  113MOL0     C15157   8.571   0.859   5.026 -0.3716  0.1525  1.2131
  113MOL0     C15158   8.478   0.764   4.962 -0.7324  0.1828 -0.1499
  113MOL0     C15159   8.469   0.633   5.045  0.1426 -0.1225  0.2170
  113MOL0     C15160   8.388   0.533   4.955  0.1504  0.0033 -0.2232
  113MOL0     C15161   8.376   0.395   5.025 -0.2861 -0.3821  0.2668
  113MOL0     C15162   8.293   0.393   5.147 -0.2391 -1.0214 -0.1182
  113MOL0     C15163   8.241   0.255   5.175 -0.7636  0.2495  0.4931
  113MOL0     C15164   8.127   0.251   5.272 -0.6952 -0.3566  0.1236
  113MOL0    Cl15165   8.073   0.092   5.324  0.0548 -0.0674 -0.0692
  113MOL0     C15166   8.630   1.008   5.355  0.0907 -0.6059  0.0427
  113MOL0     C15167   8.696   1.112   5.418 -0.2604  0.1903  0.4468
  113MOL0     O15168   9.057   1.229   5.330  0.0057  0.0577 -0.0391
  113MOL0     C15169   8.992   1.463   5.603  0.1020 -0.6067 -0.4184
  113MOL0     C15170   9.061   1.564   5.676 -0.6337  0.1472  0.3297
  113MOL0     N15171   9.674   1.822   6.203  0.6275  0.1717 -0.4414
  113MOL0     N15172   9.798   1.792   6.199 -0.1757 -0.4696 -0.5116
  113MOL0     C15173  10.845   2.161   6.621  0.1008 -0.3167 -0.3934
  113MOL0     C15174  10.977   2.161   6.667 -0.0513 -0.7906 -0.2911
  113MOL0     C15175  11.391   2.096   6.764  0.5479 -0.9456 -0.5473
  113MOL0     C15176  11.415   2.118   6.906  0.0337  0.0153 -0.4027
  113MOL0     C15177  11.553   2.140   6.947  0.2007  0.6693  0.2247
  113MOL0     C15178  11.667   2.133   6.858  1.6739 -0.4787  0.1118
  113MOL0     O15179  11.794   2.159   6.910 -0.0281 -0.3303  0.5636
  113MOL0     C15180  11.894   2.193   6.819  0.7969 -0.0905  0.7283
  113MOL0     C15181  12.026   2.206   6.896 -0.0471  0.8722 -0.2939
  113MOL0     C15182  12.014   2.316   7.001 -0.5945  0.0935  1.4980
  113MOL0     C15183  12.142   2.350   7.077  0.4929  0.2035  1.1031
  113MOL0     C15184  12.203   2.237   7.145 -0.6948  0.1261 -0.1615
  113MOL0     C15185  12.254   2.135   7.205 -0.1707  0.2355  1.0114
  113MOL0     C15186  11.637   2.102   6.722 -0.9419 -0.3817 -0.0715
  113MOL0     C15187  11.506   2.081   6.676 -0.1735 -0.6566 -0.9569
  113MOL0     H15188  10.986   1.895   6.869  1.3864  0.2662 -0.9354
  113MOL0     H15189  10.748   1.885   6.789  0.6393 -0.5748 -0.1833
  113MOL0     H15190  10.540   2.224   6.618  3.3784  2.6887 -1.3959
  113MOL0     H15191  10.619   2.163   6.469 -0.5203  2.6469 -0.1441
  113MOL0     H15192  10.431   1.963   6.537  2.8966  0.2627  0.2367
  113MOL0     H15193  10.344   2.129   6.560  0.0240  1.1994  1.1899
  113MOL0     H15194  10.392   2.186   6.338  0.9159  0.3075  0.9499
  113MOL0     H15195  10.479   2.044   6.302 -1.5129 -0.1381 -1.5777
  113MOL0     H15196  10.267   1.901   6.386 -1.7211 -0.4440 -0.8331
  113MOL0     H15197  10.174   2.046   6.399 -0.4878  0.6210 -0.3115
  113MOL0     H15198  10.193   2.103   6.159 -0.7167  0.4215  0.7103
  113MOL0     H15199  10.309   1.972   6.148 -0.9541  0.7263 -0.9669
  113MOL0     H15200  10.095   1.833   6.256  0.3565  1.2696  2.3088
  113MOL0     H15201  10.010   1.982   6.208  0.2347  2.8781 -3.5205
  113MOL0     H15202  10.069   1.971   5.974 -2.0178 -0.7841 -1.0047
  113MOL0     H15203  10.169   1.831   6.006  0.1699  0.8502 -0.8000
  113MOL0     H15204   9.996   1.681   6.059  1.7051  0.9209  1.5257
  113MOL0     H15205   9.960   1.758   5.911 -0.5249 -2.5673 -0.0348
  113MOL0     H15206   9.737   1.908   5.903 -4.0179 -4.8030 -1.2145
  113MOL0     H15207   9.419   1.951   6.137  0.3560  2.5804 -0.7361
  113MOL0     H15208   9.506   2.029   6.008  2.1102  1.5849  3.2184
  113MOL0     H15209   9.371   1.755   6.050 -2.3001 -1.2449 -3.5764
  113MOL0     H15210   9.483   1.769   5.914 -1.2195  1.7687 -3.6900
  113MOL0     H15211   9.345   1.936   5.794  1.4868 -1.1587  0.1909
  113MOL0     H15212   9.239   1.952   5.933 -0.4352  1.0810 -0.9712
  113MOL0     H15213   9.117   1.816   5.827  0.0763 -0.9356  1.1604
  113MOL0     H15214   9.211   1.691   5.909  2.6372  0.8308  0.8171
  113MOL0     H15215   9.337   1.596   5.480 -0.4861 -1.6800 -4.6712
  113MOL0     H15216   9.146   1.452   5.223 -1.4266  4.6626  0.7691
  113MOL0     H15217   9.300   1.524   5.256 -0.9753 -0.8244 -1.6151
  113MOL0     H15218   9.285   1.359   5.280 -0.8444 -0.3530 -0.0126
  113MOL0     H15219   8.863   1.224   5.138 -2.4336  0.4218 -1.2444
  113MOL0     H15220   8.733   1.061   5.035  1.1739 -1.7288 -0.3019
  113MOL0     H15221   8.557   0.954   4.974 -0.9681  1.2357  3.2425
  113MOL0     H15222   8.674   0.831   5.006 -0.5147  0.8840 -0.7850
  113MOL0     H15223   8.379   0.812   4.970 -0.5586  0.2347  3.9478
  113MOL0     H15224   8.492   0.747   4.855  1.1577 -2.4990  0.4133
  113MOL0     H15225   8.417   0.641   5.141 -1.4328  1.7766 -0.7247
  113MOL0     H15226   8.571   0.594   5.047  1.5592  3.2060  0.7416
  113MOL0     H15227   8.284   0.565   4.947  0.4145  1.3516  1.2129
  113MOL0     H15228   8.429   0.528   4.854 -1.1985  1.9662 -0.9196
  113MOL0     H15229   8.473   0.345   5.033 -1.1538 -1.9288  1.6682
  113MOL0     H15230   8.323   0.332   4.953  0.2353  0.7466 -1.1536
  113MOL0     H15231   8.340   0.438   5.235 -1.4896 -2.0823  1.1361
  113MOL0     H15232   8.210   0.464   5.142  1.3005  0.8124 -0.7549
  113MOL0     H15233   8.323   0.198   5.220 -0.8482  1.3120  2.0433
  113MOL0     H15234   8.210   0.205   5.083  0.6754 -1.6298  0.9665
  113MOL0     H15235   8.050   0.313   5.226  2.1967  3.7378  0.2466
  113MOL0     H15236   8.164   0.305   5.360  1.6196  0.2495 -1.1258
  113MOL0     H15237   8.579   0.937   5.419  0.4950  0.5389  1.6941
  113MOL0     H15238   8.693   1.121   5.526 -3.4925  1.5937  0.3398
  113MOL0     H15239   8.896   1.426   5.637 -0.1027  0.3360  0.0474
  113MOL0     H15240   9.019   1.605   5.766  0.2077  2.3648 -0.2303
  113MOL0     H15241  10.815   2.236   6.549 -1.0911  0.9403  1.3307
  113MOL0     H15242  11.044   2.245   6.647  1.8018 -2.2675 -0.5254
  113MOL0     H15243  11.333   2.122   6.977  0.9287 -1.9640  0.8109
  113MOL0     H15244  11.582   2.156   7.051  0.6887  1.7779 -0.0705
  113MOL0     H15245  11.918   2.109   6.753  0.4085 -0.6284  1.2719
  113MOL0     H15246  11.887   2.287   6.763  1.9149 -0.9291 -0.9203
  113MOL0     H15247  12.109   2.228   6.828 -0.3234 -1.0235 -1.3277
  113MOL0     H15248  12.055   2.113   6.945 -0.2601  1.8911  1.8690
  113MOL0     H15249  11.951   2.285   7.086 -0.6385  3.5694  2.8916
  113MOL0     H15250  11.968   2.403   6.954  2.0482 -0.2389 -2.0994
  113MOL0     H15251  12.122   2.435   7.141  0.4060 -0.2645  1.7034
  113MOL0     H15252  12.212   2.383   6.999 -0.1976  3.3597  1.6922
  113MOL0     H15253  12.288   2.040   7.239 -1.1722 -1.7865 -3.0091
  113MOL0     H15254  11.712   2.082   6.646 -2.1165 -1.0543 -1.0915
  113MOL0     H15255  11.493   2.069   6.569  2.3105  0.1234 -1.4024
  114MOL0     O15256   8.592   6.533   3.940  0.4360 -0.5789  0.4724
  114MOL0     C15257   8.683   6.603   3.894  0.8828 -0.1469 -0.5549
  114MOL0     O15258   8.670   6.658   3.776  0.3387  0.1110 -1.2115
  114MOL0     C15259   8.562   6.641   3.698  0.1860  0.1805 -0.2620
  114MOL0     C15260   8.447   6.560   3.710  1.1626 -1.1493 -0.2370
  114MOL0     C15261   8.326   6.587   3.637 -1.5845  0.4564 -0.1626
  114MOL0     C15262   8.330   6.685   3.539 -1.3505 -0.2480  0.6771
  114MOL0     O15263   8.227   6.693   3.457  0.1056  0.7217 -0.3975
  114MOL0     C15264   8.208   6.812   3.380  0.1792 -0.0935 -0.2592
  114MOL0     C15265   8.056   6.815   3.358 -0.1711  0.3257 -0.7088
  114MOL0     C15266   7.988   6.956   3.382  0.5761  0.0997 -1.1250
  114MOL0     C15267   7.835   6.944   3.360 -0.1104 -0.7638  0.3435
  114MOL0     C15268   7.759   7.077   3.381  0.2442 -0.3015 -0.0376
  114MOL0     C15269   7.608   7.056   3.395  0.8755  0.1788  0.1846
  114MOL0     C15270   7.524   7.189   3.419 -0.0869 -0.6733 -0.7058
  114MOL0     C15271   7.393   7.136   3.462  0.5209 -0.2977  0.3823
  114MOL0     N15272   7.297   7.242   3.494  0.4241 -0.1510  0.5373
  114MOL0     C15273   7.171   7.257   3.438 -0.3109  0.1934 -0.7727
  114MOL0     C15274   7.115   7.362   3.513 -1.3262  0.5960  0.0303
  114MOL0     C15275   6.983   7.438   3.498 -0.1428 -0.1718  0.2479
  114MOL0     C15276   6.882   7.370   3.404 -1.2232 -0.9275  0.0212
  114MOL0     C15277   6.774   7.476   3.374 -0.2287 -0.4953 -1.2472
  114MOL0     C15278   6.667   7.415   3.295 -0.0172 -0.5953  1.0896
  114MOL0     O15279   6.581   7.519   3.243 -0.3116  0.0671 -0.2493
  114MOL0     C15280   6.448   7.521   3.274 -0.3497  1.0744 -0.9381
  114MOL0     C15281   6.354   7.437   3.212 -0.4468  0.4139  0.4553
  114MOL0     C15282   6.210   7.444   3.230 -0.1980 -0.5489  0.6330
  114MOL0     C15283   6.107   7.366   3.153 -0.7510 -0.4506  0.8025
  114MOL0     C15284   6.164   7.540   3.325  0.0862 -0.2816 -0.3466
  114MOL0     C15285   6.024   7.593   3.354  0.0679  0.0744  0.0963
  114MOL0     O15286   5.947   7.621   3.246 -0.4349 -0.2935  0.4780
  114MOL0     C15287   5.812   7.654   3.255 -0.8585  0.5599 -0.4480
  114MOL0     C15288   5.717   7.585   3.184  0.0983  0.5780  0.8088
  114MOL0     C15289   5.583   7.638   3.182 -0.8977  0.2233  0.0899
  114MOL0     C15290   5.549   7.750   3.257  0.5904  0.0214 -0.9590
  114MOL0     O15291   5.418   7.795   3.260 -0.3808  0.1615 -0.1495
  114MOL0     C15292   5.401   7.933   3.241 -0.4455  0.1378  0.0698
  114MOL0     C15293   5.264   7.974   3.299  0.2727  0.2262  0.1440
  114MOL0     C15294   5.235   7.904   3.434  0.8705  1.0678  0.3935
  114MOL0     C15295   5.343   7.926   3.538  0.3073 -0.3131  0.2277
  114MOL0     C15296   5.300   7.908   3.688  0.7545  0.9552  0.5007
  114MOL0     C15297   5.244   8.039   3.745  0.9547  0.2993  0.7757
  114MOL0     C15298   5.169   8.011   3.873  0.1305 -0.7555 -0.6206
  114MOL0     C15299   5.127   8.151   3.930 -0.2372  0.5329 -0.0888
  114MOL0    Cl15300   5.044   8.107   4.082  0.3845  0.0037 -0.5002
  114MOL0     C15301   5.647   7.798   3.344  0.2453 -1.2921 -0.2218
  114MOL0     C15302   5.781   7.762   3.333 -0.2167  0.3180  0.0461
  114MOL0     O15303   5.997   7.612   3.468 -0.2524 -0.9011  0.1041
  114MOL0     C15304   6.261   7.614   3.396  0.9506  0.7663  0.3449
  114MOL0     C15305   6.398   7.595   3.380  1.1662 -0.6840  0.0418
  114MOL0     N15306   7.212   7.395   3.612 -0.2811 -0.3836  0.3773
  114MOL0     N15307   7.314   7.317   3.606 -0.2674 -0.5459 -0.3797
  114MOL0     C15308   8.452   6.754   3.518 -0.3023  0.3275 -0.6718
  114MOL0     C15309   8.562   6.735   3.598 -0.5232  0.2410 -0.9273
  114MOL0     C15310   8.806   6.609   3.969  0.4728 -0.4510 -0.4731
  114MOL0     C15311   8.826   6.525   4.080 -0.0747  0.4597 -0.5157
  114MOL0     C15312   8.948   6.537   4.151  0.0740 -0.0622  1.1707
  114MOL0     C15313   9.050   6.614   4.101 -0.0599 -0.1114 -0.1595
  114MOL0     O15314   9.175   6.594   4.151 -0.1845  0.0519 -0.7833
  114MOL0     C15315   9.281   6.678   4.099  0.8584 -0.0189 -0.0509
  114MOL0     C15316   9.402   6.661   4.189 -0.3757 -0.1000  0.1383
  114MOL0     C15317   9.512   6.775   4.166  0.3178  0.1928  0.4179
  114MOL0     C15318   9.639   6.716   4.238  0.4195 -0.0025  0.1280
  114MOL0     C15319   9.759   6.799   4.220  0.0449  0.9287  0.4805
  114MOL0     C15320   9.850   6.871   4.200  0.0521  0.7797 -0.3957
  114MOL0     C15321   9.029   6.696   3.992  0.2589 -0.1509  0.0507
  114MOL0     C15322   8.913   6.694   3.925 -0.0450 -0.2151 -0.4714
  114MOL0     H15323   8.432   6.487   3.789  2.2121 -0.0826  0.9909
  114MOL0     H15324   8.249   6.512   3.653 -0.2841 -0.6237  1.4620
  114MOL0     H15325   8.247   6.905   3.422 -1.0703  0.3498 -0.0300
  114MOL0     H15326   8.258   6.786   3.286 -1.8128 -1.5900 -0.9824
  114MOL0     H15327   8.037   6.769   3.260 -3.0839 -0.0590 -0.0577
  114MOL0     H15328   8.021   6.757   3.443 -0.5145  1.9781  0.3237
  114MOL0     H15329   8.006   6.978   3.487 -0.9676 -0.9168 -0.6246
  114MOL0     H15330   8.027   7.038   3.321  2.0665 -0.7113 -1.3241
  114MOL0     H15331   7.821   6.910   3.257  1.6582 -0.1537 -0.1427
  114MOL0     H15332   7.805   6.867   3.432  0.8591  0.8627  2.5969
  114MOL0     H15333   7.791   7.147   3.459 -1.2890  0.9487 -0.4745
  114MOL0     H15334   7.789   7.141   3.298  1.4236  2.5685  2.4291
  114MOL0     H15335   7.564   7.008   3.307  1.1358  0.2050  0.0398
  114MOL0     H15336   7.600   6.990   3.483 -0.0137 -0.0898 -0.0824
  114MOL0     H15337   7.571   7.250   3.497  3.3543  1.4262 -4.0807
  114MOL0     H15338   7.513   7.242   3.324 -2.3157 -0.3882 -0.3420
  114MOL0     H15339   7.395   7.078   3.555 -1.3110 -1.0387  0.0054
  114MOL0     H15340   7.343   7.075   3.387  1.1006  1.3905 -1.4443
  114MOL0     H15341   7.142   7.207   3.347  1.0570 -3.9260  0.7855
  114MOL0     H15342   6.937   7.449   3.597 -1.4592  0.2060 -0.3955
  114MOL0     H15343   7.012   7.537   3.462 -1.6143  1.8855  4.0719
  114MOL0     H15344   6.842   7.279   3.451 -2.2446 -1.7536 -2.3153
  114MOL0     H15345   6.934   7.347   3.310 -1.6653  0.2127 -0.5083
  114MOL0     H15346   6.821   7.553   3.311  2.2244 -0.1607  0.8155
  114MOL0     H15347   6.736   7.523   3.464  2.3385  1.2764 -0.9612
  114MOL0     H15348   6.610   7.361   3.371 -0.5086  0.0588  1.1941
  114MOL0     H15349   6.700   7.359   3.207  1.4839  1.8397 -0.0247
  114MOL0     H15350   6.397   7.364   3.145 -0.1015  1.6244 -0.6944
  114MOL0     H15351   6.149   7.265   3.150  1.8053  0.5494 -1.7328
  114MOL0     H15352   6.003   7.376   3.187 -1.1668 -2.1830  0.1378
  114MOL0     H15353   6.102   7.405   3.051  2.9987  0.3350  0.7785
  114MOL0     H15354   5.750   7.505   3.119 -0.5384  0.3160  0.8019
  114MOL0     H15355   5.508   7.585   3.124  2.6513 -1.4556 -3.3990
  114MOL0     H15356   5.490   7.987   3.274  0.5075 -1.4558  0.2163
  114MOL0     H15357   5.397   7.934   3.132  0.9379  0.3993  0.0099
  114MOL0     H15358   5.258   8.082   3.314  0.6650  0.2142  0.4335
  114MOL0     H15359   5.176   7.953   3.238  0.3086 -2.4557  0.8693
  114MOL0     H15360   5.213   7.798   3.420 -1.7693  1.3986  1.5140
  114MOL0     H15361   5.142   7.946   3.473 -0.9054 -1.9586 -0.1959
  114MOL0     H15362   5.416   7.850   3.509 -1.1816 -1.8906  0.4256
  114MOL0     H15363   5.399   8.019   3.535  0.1295 -0.2307 -1.0210
  114MOL0     H15364   5.395   7.907   3.742  1.1931  1.2666 -0.2511
  114MOL0     H15365   5.233   7.822   3.703 -0.2496  1.2983 -1.6813
  114MOL0     H15366   5.328   8.107   3.762  1.9116  0.0953 -2.4322
  114MOL0     H15367   5.186   8.089   3.667  2.6991  2.0619  0.5194
  114MOL0     H15368   5.233   7.971   3.952 -0.2771  0.8785  0.5997
  114MOL0     H15369   5.077   7.952   3.862 -1.8745  1.9768  0.1730
  114MOL0     H15370   5.056   8.193   3.859 -1.8187 -0.2461  0.9615
  114MOL0     H15371   5.220   8.208   3.937  0.5695 -0.8871  1.4771
  114MOL0     H15372   5.619   7.873   3.419 -0.6153  0.5289 -2.2570
  114MOL0     H15373   5.862   7.815   3.383  0.8562  1.0315 -2.3126
  114MOL0     H15374   6.225   7.687   3.469 -0.1201 -0.9079  1.5722
  114MOL0     H15375   6.463   7.648   3.450  4.0149 -2.6200 -0.9507
  114MOL0     H15376   8.460   6.809   3.425 -0.2261 -0.9587 -1.4564
  114MOL0     H15377   8.649   6.794   3.572  0.6795 -1.0418  0.0251
  114MOL0     H15378   8.750   6.464   4.127 -1.6941  2.9151  0.2159
  114MOL0     H15379   8.953   6.479   4.243 -0.5812  2.2485  2.7643
  114MOL0     H15380   9.312   6.649   3.998  2.8782  0.3829  0.4063
  114MOL0     H15381   9.245   6.781   4.097 -0.9100 -0.6006  0.5388
  114MOL0     H15382   9.439   6.559   4.169  1.7051  0.4436  1.0005
  114MOL0     H15383   9.360   6.666   4.290  2.2398 -1.1158  1.3635
  114MOL0     H15384   9.479   6.873   4.203  2.6394  1.4416 -0.6262
  114MOL0     H15385   9.525   6.792   4.059 -1.2163 -1.3809 -0.0747
  114MOL0     H15386   9.657   6.614   4.202 -0.8654  0.0466 -0.7181
  114MOL0     H15387   9.627   6.694   4.345 -1.4952 -5.8056 -0.9394
  114MOL0     H15388   9.929   6.938   4.171 -1.0424  1.8245 -1.0682
  114MOL0     H15389   9.112   6.746   3.943  1.8090  1.1407  3.6491
  114MOL0     H15390   8.899   6.737   3.826  2.3946  2.6176  0.2658
  115MOL0     O15391  11.285   9.526   4.158  0.0274  0.1922  0.0744
  115MOL0     C15392  11.242   9.412   4.160 -0.4085 -0.1583  0.2568
  115MOL0     O15393  11.116   9.381   4.197 -0.5507  0.1994 -0.1772
  115MOL0     C15394  11.022   9.470   4.240 -0.3526 -0.5962 -0.5233
  115MOL0     C15395  10.936   9.428   4.340 -0.3361 -0.1903  0.1430
  115MOL0     C15396  10.831   9.512   4.382  0.3586  0.0715  0.3749
  115MOL0     C15397  10.809   9.641   4.321 -0.8185  0.5333  0.1065
  115MOL0     O15398  10.716   9.735   4.356  0.1056 -0.0294 -0.0552
  115MOL0     C15399  10.615   9.717   4.455  0.1069 -0.3538 -0.4714
  115MOL0     C15400  10.488   9.649   4.408  0.3904  0.3135 -0.4506
  115MOL0     C15401  10.389   9.744   4.342 -0.6426  0.7594  0.4823
  115MOL0     C15402  10.247   9.677   4.324  0.3298 -0.0522 -1.1357
  115MOL0     C15403  10.153   9.775   4.275 -0.3306  0.0587 -0.5536
  115MOL0     C15404  10.020   9.722   4.229 -0.7804 -0.9217 -0.1895
  115MOL0     C15405   9.944   9.838   4.166  0.0195 -0.0502  0.0211
  115MOL0     C15406   9.801   9.789   4.112  0.1703  0.9732  1.0585
  115MOL0     N15407   9.738   9.899   4.028  0.7038 -0.7985  0.7746
  115MOL0     C15408   9.754   9.909   3.892 -0.7297 -0.0451 -0.0767
  115MOL0     C15409   9.644   9.979   3.849 -0.0296  0.1258  0.2281
  115MOL0     C15410   9.603   9.994   3.704  0.6362 -0.3245 -0.8529
  115MOL0     C15411   9.540   9.857   3.662  0.8047 -0.2261  0.6160
  115MOL0     C15412   9.503   9.857   3.505  0.4013  0.0148 -0.4846
  115MOL0     C15413   9.443   9.989   3.456  0.7823 -0.1607  0.5093
  115MOL0     O15414   9.313  10.027   3.518 -0.1424 -0.0109 -0.4991
  115MOL0     C15415   9.200   9.940   3.499 -0.4938  0.0639  0.3193
  115MOL0     C15416   9.195   9.859   3.385  0.2761 -0.5015 -1.1117
  115MOL0     C15417   9.084   9.778   3.364 -0.4814  0.0883 -0.0177
  115MOL0     C15418   9.090   9.716   3.222 -0.0078 -0.0429 -0.2109
  115MOL0     C15419   8.979   9.774   3.456  0.2724  0.7278 -0.4977
  115MOL0     C15420   8.851   9.703   3.419 -0.0633  0.0055  0.8304
  115MOL0     O15421   8.758   9.731   3.505  0.2825 -0.3704 -0.1035
  115MOL0     C15422   8.636   9.664   3.496 -0.5792 -0.9035 -0.0401
  115MOL0     C15423   8.545   9.695   3.395  0.8459 -0.0173 -0.1984
  115MOL0     C15424   8.421   9.617   3.397 -0.1345  0.1417  0.4437
  115MOL0     C15425   8.393   9.516   3.488  0.6469  0.9054  0.2391
  115MOL0     O15426   8.276   9.445   3.475  0.2272 -0.2795  0.3906
  115MOL0     C15427   8.204   9.399   3.587 -0.3768 -0.3129 -0.4874
  115MOL0     C15428   8.068   9.344   3.548  0.2920  0.1335 -0.1498
  115MOL0     C15429   7.980   9.322   3.673 -0.5452 -0.5228  0.5899
  115MOL0     C15430   7.863   9.231   3.638 -0.8139 -0.3270 -0.1143
  115MOL0     C15431   7.767   9.230   3.760 -0.2120  0.3172  0.6374
  115MOL0     C15432   7.645   9.143   3.742  0.1123  0.8253  0.1864
  115MOL0     C15433   7.555   9.182   3.628 -0.5455 -0.7022 -0.1643
  115MOL0     C15434   7.422   9.109   3.622 -0.0967  0.6187 -0.3848
  115MOL0    Cl15435   7.308   9.180   3.746  0.0517 -0.0711 -0.0059
  115MOL0     C15436   8.483   9.492   3.591 -0.5210 -0.6442  0.2601
  115MOL0     C15437   8.600   9.566   3.590 -0.7153 -0.0442  0.0436
  115MOL0     O15438   8.851   9.608   3.338  0.6364  0.0848  0.3998
  115MOL0     C15439   8.988   9.848   3.576 -0.1668 -0.8880 -0.2780
  115MOL0     C15440   9.095   9.940   3.585  0.5872 -0.3440 -0.4104
  115MOL0     N15441   9.590  10.034   3.956 -0.3435  0.0657 -0.5227
  115MOL0     N15442   9.638   9.983   4.062 -0.4838 -0.8335  0.5040
  115MOL0     C15443  10.905   9.680   4.220 -0.0871  0.0398  0.5603
  115MOL0     C15444  11.006   9.598   4.172 -0.1312 -0.3801 -1.6737
  115MOL0     C15445  11.319   9.314   4.096  0.2666  0.5451 -0.1613
  115MOL0     C15446  11.252   9.210   4.035  1.2862  0.4601 -0.6377
  115MOL0     C15447  11.329   9.106   3.968  0.5268  0.2223 -1.5178
  115MOL0     C15448  11.467   9.117   3.949 -0.2295 -0.6149 -0.3842
  115MOL0     O15449  11.534   9.016   3.884 -0.2402  0.2942 -0.0481
  115MOL0     C15450  11.673   9.013   3.886  0.6610  0.2480  0.0735
  115MOL0     C15451  11.721   9.088   3.755 -0.5935  0.5061 -0.5385
  115MOL0     C15452  11.685   9.018   3.624  0.1186  0.5621 -0.4294
  115MOL0     C15453  11.730   9.112   3.510  0.4571 -0.1126 -0.2728
  115MOL0     C15454  11.873   9.108   3.479 -0.3030  0.1243 -0.7447
  115MOL0     C15455  11.990   9.103   3.454  0.0827 -0.0146 -0.5166
  115MOL0     C15456  11.522   9.230   4.017 -0.5239 -0.2128  0.2753
  115MOL0     C15457  11.456   9.334   4.074 -0.7303  0.3267  0.5297
  115MOL0     H15458  10.947   9.333   4.391 -0.5721 -0.7305 -0.7800
  115MOL0     H15459  10.770   9.487   4.469 -0.9245 -0.7510 -0.7258
  115MOL0     H15460  10.660   9.670   4.543  2.0065  2.0797 -0.0434
  115MOL0     H15461  10.587   9.817   4.489  2.4590  1.1383 -2.5287
  115MOL0     H15462  10.500   9.558   4.349  0.9113  1.5935 -2.4170
  115MOL0     H15463  10.438   9.617   4.500 -0.4145 -0.0039 -0.9908
  115MOL0     H15464  10.378   9.839   4.394 -3.0146  0.6412  0.3085
  115MOL0     H15465  10.433   9.758   4.243 -0.6988 -0.6275  0.2335
  115MOL0     H15466  10.251   9.588   4.262  1.5126  0.3680 -1.7032
  115MOL0     H15467  10.217   9.666   4.429  0.6003  2.1529 -0.7652
  115MOL0     H15468  10.148   9.858   4.346  0.9983 -1.0670  0.9071
  115MOL0     H15469  10.207   9.815   4.188 -0.6408  1.2478 -0.2182
  115MOL0     H15470  10.032   9.648   4.149 -0.5439  0.7184 -1.7248
  115MOL0     H15471   9.964   9.671   4.307  2.0876 -2.5000  0.9945
  115MOL0     H15472   9.938   9.920   4.238  1.4132 -0.5936  0.7830
  115MOL0     H15473  10.010   9.867   4.084 -0.5349 -2.5973 -1.4328
  115MOL0     H15474   9.733   9.774   4.196 -0.7458  2.4264  0.6107
  115MOL0     H15475   9.796   9.699   4.051 -2.5458  1.6252  0.1485
  115MOL0     H15476   9.835   9.865   3.835 -0.4546 -0.5647  0.6948
  115MOL0     H15477   9.527  10.071   3.690 -1.2694 -1.9794 -0.0823
  115MOL0     H15478   9.690  10.020   3.643 -1.3535  0.7895 -3.4206
  115MOL0     H15479   9.452   9.855   3.727  1.6126 -1.0852  1.7226
  115MOL0     H15480   9.606   9.770   3.674  0.6543 -0.8863 -2.4822
  115MOL0     H15481   9.436   9.773   3.482  0.9197 -1.1239  1.8901
  115MOL0     H15482   9.589   9.840   3.439  0.2169 -0.5711 -0.5740
  115MOL0     H15483   9.450   9.973   3.348  1.4712  2.8723  0.0055
  115MOL0     H15484   9.515  10.069   3.473 -0.3135  0.9706  0.0083
  115MOL0     H15485   9.278   9.858   3.316 -1.8972 -2.3457 -3.9269
  115MOL0     H15486   9.188   9.720   3.174 -0.4292  1.2648 -0.9957
  115MOL0     H15487   9.053   9.613   3.218  1.3098 -0.6392  1.4996
  115MOL0     H15488   9.018   9.775   3.164  0.6293  1.1647  0.1993
  115MOL0     H15489   8.548   9.769   3.316  2.4709  0.2340  0.0776
  115MOL0     H15490   8.344   9.656   3.331  0.5511  2.0827  0.7168
  115MOL0     H15491   8.264   9.318   3.629  1.0503  1.2657  0.6690
  115MOL0     H15492   8.210   9.484   3.655  0.9911 -0.9820  0.2594
  115MOL0     H15493   8.018   9.413   3.480 -0.4113 -1.7999 -1.6954
  115MOL0     H15494   8.079   9.254   3.486 -2.7662 -0.6926  0.3355
  115MOL0     H15495   7.940   9.418   3.708 -2.3336 -0.3588 -1.6251
  115MOL0     H15496   8.030   9.269   3.754  0.5284  0.4955  0.6194
  115MOL0     H15497   7.821   9.263   3.542 -1.5732  1.1799  0.6847
  115MOL0     H15498   7.898   9.130   3.612 -0.2275 -0.0265 -0.4960
  115MOL0     H15499   7.741   9.336   3.772  0.2443  0.3786  1.1508
  115MOL0     H15500   7.813   9.199   3.855 -2.0531 -0.3693  1.3530
  115MOL0     H15501   7.673   9.039   3.728  0.9154  1.0966 -0.2326
  115MOL0     H15502   7.586   9.141   3.834  2.2373  1.7710  1.6657
  115MOL0     H15503   7.603   9.148   3.536 -0.3362 -1.2119  0.1263
  115MOL0     H15504   7.529   9.288   3.625  0.6196 -0.4253 -1.1721
  115MOL0     H15505   7.432   9.001   3.640 -0.6210  0.4390 -1.1397
  115MOL0     H15506   7.371   9.123   3.527  2.0515  3.4997 -1.2423
  115MOL0     H15507   8.452   9.415   3.661 -3.2306  1.8160  1.9924
  115MOL0     H15508   8.662   9.549   3.677 -1.8435 -1.7143  0.5771
  115MOL0     H15509   8.905   9.850   3.646 -1.4148  0.1158 -1.7104
  115MOL0     H15510   9.104   9.998   3.676  0.0192  0.1240 -0.6471
  115MOL0     H15511  10.895   9.779   4.175  1.2030 -0.2217 -0.3615
  115MOL0     H15512  11.071   9.630   4.092  4.8880  1.9300  2.7233
  115MOL0     H15513  11.147   9.189   4.053  1.5716  0.1434  0.7139
  115MOL0     H15514  11.283   9.027   3.911  4.2809 -2.1027 -1.6028
  115MOL0     H15515  11.710   9.061   3.977  2.1494 -0.5812 -0.0740
  115MOL0     H15516  11.711   8.911   3.896 -0.0891 -0.0615 -0.1268
  115MOL0     H15517  11.830   9.098   3.760 -0.5594 -0.3585  3.5074
  115MOL0     H15518  11.686   9.191   3.766 -3.8366 -0.7970  4.4891
  115MOL0     H15519  11.579   8.991   3.622  0.2717 -0.0539 -0.3940
  115MOL0     H15520  11.729   8.920   3.603 -0.0066  0.5399 -0.5921
  115MOL0     H15521  11.699   9.212   3.542 -3.0026 -0.7991 -1.0517
  115MOL0     H15522  11.679   9.084   3.417  0.6891  2.1447 -1.1302
  115MOL0     H15523  12.093   9.098   3.422  0.9380 -2.2777  2.1985
  115MOL0     H15524  11.631   9.234   4.017 -0.0618 -4.4257 -3.9060
  115MOL0     H15525  11.516   9.418   4.107 -1.1440  1.4733 -1.4905
  116MOL0     O15526   9.154   8.878   1.675  0.6013  0.2495  0.1988
  116MOL0     C15527   9.192   8.909   1.563 -0.3012 -0.2384  0.5119
  116MOL0     O15528   9.115   8.909   1.446 -0.0694  0.6491 -0.2545
  116MOL0     C15529   8.992   8.851   1.459 -0.1237 -0.7433  0.1574
  116MOL0     C15530   8.871   8.908   1.470 -0.1544 -0.7708  0.8284
  116MOL0     C15531   8.755   8.838   1.496 -0.3846  0.2820 -1.1295
  116MOL0     C15532   8.753   8.701   1.510 -0.0786  0.4313  1.0879
  116MOL0     O15533   8.627   8.649   1.536 -0.2225 -0.0497  0.9666
  116MOL0     C15534   8.618   8.512   1.564 -0.6047 -0.5331  0.6706
  116MOL0     C15535   8.467   8.478   1.586 -0.8588 -0.2180 -0.4914
  116MOL0     C15536   8.384   8.482   1.453  0.2910  0.1536  0.2415
  116MOL0     C15537   8.237   8.504   1.486 -0.0306  0.2607 -0.0548
  116MOL0     C15538   8.149   8.497   1.351  0.2899 -0.7103  0.3105
  116MOL0     C15539   8.004   8.531   1.373 -0.0170 -0.7173  0.2454
  116MOL0     C15540   7.938   8.560   1.230 -0.5043  0.4617  0.7845
  116MOL0     C15541   7.784   8.556   1.216  0.6268  0.2676  0.0943
  116MOL0     N15542   7.715   8.649   1.304 -0.2860  0.3205  0.3864
  116MOL0     C15543   7.704   8.786   1.286 -1.1984  0.1032 -0.4713
  116MOL0     C15544   7.653   8.841   1.398 -0.4830  0.0115 -1.1283
  116MOL0     C15545   7.639   8.983   1.442  0.1644  0.7754 -0.1489
  116MOL0     C15546   7.486   9.013   1.458  0.4230 -0.0424  0.2949
  116MOL0     C15547   7.463   9.141   1.543  0.9290  0.1397 -0.2508
  116MOL0     C15548   7.313   9.164   1.580 -0.9416 -0.2211 -0.5385
  116MOL0     O15549   7.247   9.221   1.465 -0.2886 -0.2220  0.5701
  116MOL0     C15550   7.111   9.244   1.469 -0.0505  0.0490 -0.4418
  116MOL0     C15551   7.040   9.253   1.348  1.3795  0.0125  0.4182
  116MOL0     C15552   6.897   9.282   1.349  0.1236  1.2512 -0.8214
  116MOL0     C15553   6.832   9.302   1.216  0.0467 -0.5775  0.7170
  116MOL0     C15554   6.822   9.272   1.470  0.4869  0.1106  0.6613
  116MOL0     C15555   6.670   9.277   1.471 -0.1658  0.3275  0.1058
  116MOL0     O15556   6.601   9.219   1.379  0.5951  0.7606  0.6713
  116MOL0     C15557   6.462   9.234   1.358 -0.0316  0.6842  0.2781
  116MOL0     C15558   6.378   9.139   1.404 -0.0778 -0.5218 -0.3931
  116MOL0     C15559   6.243   9.140   1.355 -0.9179 -0.1753 -0.3143
  116MOL0     C15560   6.204   9.240   1.265 -0.1637  0.0738 -0.2336
  116MOL0     O15561   6.073   9.246   1.219  0.0465 -0.2526  0.3181
  116MOL0     C15562   5.999   9.122   1.196 -0.3120  0.3534  0.3545
  116MOL0     C15563   5.853   9.171   1.152 -0.1464  0.1013 -0.4525
  116MOL0     C15564   5.759   9.055   1.138 -0.2548 -0.0237  0.1868
  116MOL0     C15565   5.624   9.093   1.071 -0.4517 -0.5669 -0.7854
  116MOL0     C15566   5.555   9.217   1.130  0.3799 -0.7432 -0.2696
  116MOL0     C15567   5.400   9.226   1.092  0.3627  0.0372  0.2099
  116MOL0     C15568   5.320   9.338   1.166 -0.2331  0.6262  0.8120
  116MOL0     C15569   5.168   9.298   1.160 -0.4136 -0.3714 -0.1151
  116MOL0    Cl15570   5.068   9.403   1.260 -0.0645  0.0237 -0.7290
  116MOL0     C15571   6.291   9.345   1.242 -0.0601  0.2729  0.2694
  116MOL0     C15572   6.423   9.335   1.280 -0.9371  0.2690 -1.0528
  116MOL0     O15573   6.627   9.367   1.543  0.2823  0.6960  0.1021
  116MOL0     C15574   6.895   9.257   1.587 -1.0994 -0.3663  0.6061
  116MOL0     C15575   7.038   9.258   1.585  0.8018 -0.0980 -0.5358
  116MOL0     N15576   7.631   8.733   1.489  0.5537 -0.7354 -0.6859
  116MOL0     N15577   7.664   8.626   1.431  0.8757  0.6611  0.0471
  116MOL0     C15578   8.872   8.636   1.499 -0.0067  1.0004 -0.1928
  116MOL0     C15579   8.991   8.709   1.467  0.0688 -0.1509  0.3618
  116MOL0     C15580   9.322   8.985   1.554  0.9885  0.8202 -0.5071
  116MOL0     C15581   9.343   9.043   1.434 -0.3074 -0.4614 -0.5069
  116MOL0     C15582   9.433   9.145   1.425 -1.0339  0.2001  0.0794
  116MOL0     C15583   9.518   9.173   1.533  0.3067  0.4204  0.0477
  116MOL0     O15584   9.613   9.269   1.542  0.1883 -0.7518  0.5459
  116MOL0     C15585   9.700   9.274   1.430 -0.2123 -0.7990 -0.3517
  116MOL0     C15586   9.820   9.372   1.443 -0.0015 -0.1989 -0.2602
  116MOL0     C15587   9.908   9.341   1.565  0.0630  0.0648  0.0341
  116MOL0     C15588  10.022   9.445   1.567  0.3291  0.4733 -0.4656
  116MOL0     C15589  10.140   9.392   1.636 -0.0881  0.1349  0.6516
  116MOL0     C15590  10.245   9.372   1.698 -0.5813  0.2881 -0.3022
  116MOL0     C15591   9.512   9.103   1.656 -0.5017  0.7729  0.1337
  116MOL0     C15592   9.407   9.006   1.664 -0.5792 -0.8959  0.0570
  116MOL0     H15593   8.866   9.017   1.465 -2.9348 -0.9075 -1.8717
  116MOL0     H15594   8.669   8.901   1.517 -1.0390 -1.0273  0.3561
  116MOL0     H15595   8.656   8.461   1.475  3.7224  3.3924 -0.0741
  116MOL0     H15596   8.677   8.472   1.647  2.1534 -0.8932 -1.3482
  116MOL0     H15597   8.457   8.378   1.630  3.1975 -0.4083  0.3788
  116MOL0     H15598   8.432   8.550   1.660  1.0698  1.0721 -0.7469
  116MOL0     H15599   8.418   8.575   1.406  2.0360  0.8851  2.7412
  116MOL0     H15600   8.394   8.387   1.400  2.1750  0.6430 -0.3500
  116MOL0     H15601   8.200   8.429   1.557 -0.4048  0.6685  0.1801
  116MOL0     H15602   8.227   8.591   1.550  3.6851  1.4284 -0.7934
  116MOL0     H15603   8.193   8.574   1.286  0.0784 -1.3280 -0.5846
  116MOL0     H15604   8.151   8.399   1.301 -1.9910 -0.3729 -0.5681
  116MOL0     H15605   7.959   8.449   1.429 -2.0642 -0.4128 -0.8305
  116MOL0     H15606   8.000   8.621   1.435  1.6472  2.1422 -3.3909
  116MOL0     H15607   7.968   8.661   1.200  3.3228 -1.1122 -1.3789
  116MOL0     H15608   7.979   8.494   1.153 -1.5876  1.4007 -0.6717
  116MOL0     H15609   7.748   8.456   1.241  1.3813 -0.1941 -0.5998
  116MOL0     H15610   7.760   8.573   1.110 -0.0903 -0.7139  0.0973
  116MOL0     H15611   7.732   8.842   1.197  1.7434 -0.4709 -0.0150
  116MOL0     H15612   7.694   8.995   1.535  3.0965  2.7019 -1.9611
  116MOL0     H15613   7.685   9.050   1.368  4.4967 -0.0309  1.5507
  116MOL0     H15614   7.442   8.933   1.518 -0.4619  1.4605  1.7226
  116MOL0     H15615   7.434   9.020   1.362 -0.8226  1.6719  1.0534
  116MOL0     H15616   7.501   9.227   1.488 -2.2770  2.7873  1.3408
  116MOL0     H15617   7.518   9.131   1.637 -1.0044 -0.4883  0.8703
  116MOL0     H15618   7.318   9.233   1.664  3.3193 -3.3391  2.2080
  116MOL0     H15619   7.271   9.068   1.610 -1.7297  0.5120  0.8104
  116MOL0     H15620   7.102   9.234   1.261  0.1991 -1.7458 -0.1043
  116MOL0     H15621   6.908   9.339   1.147 -1.7378  2.9882  0.4412
  116MOL0     H15622   6.778   9.216   1.174  1.5021 -1.5995  0.8871
  116MOL0     H15623   6.753   9.377   1.205 -0.4094 -1.3749 -3.1281
  116MOL0     H15624   6.418   9.061   1.468 -0.0396 -0.8417 -0.7967
  116MOL0     H15625   6.171   9.062   1.380 -0.1051 -1.1085 -0.7852
  116MOL0     H15626   6.038   9.061   1.115  1.3186  0.4697  1.0153
  116MOL0     H15627   5.996   9.057   1.284  1.4711 -0.2742 -0.0090
  116MOL0     H15628   5.816   9.241   1.227  0.1616 -2.0370  1.7854
  116MOL0     H15629   5.868   9.207   1.049  0.9525  2.3663  0.4313
  116MOL0     H15630   5.727   9.010   1.232 -0.8976  0.1291  0.0496
  116MOL0     H15631   5.808   8.981   1.075  1.7644 -0.0745  1.7296
  116MOL0     H15632   5.638   9.132   0.970 -0.8332  1.1970 -0.2030
  116MOL0     H15633   5.549   9.014   1.067  0.7297 -1.8764  1.1739
  116MOL0     H15634   5.604   9.312   1.105  0.9819 -0.9871 -0.0272
  116MOL0     H15635   5.566   9.216   1.239 -0.1803 -0.4954 -0.2090
  116MOL0     H15636   5.391   9.239   0.984  1.6823 -0.2966  0.0371
  116MOL0     H15637   5.362   9.126   1.115 -0.2700  0.0443 -0.7583
  116MOL0     H15638   5.335   9.432   1.112  2.0771  0.4455  1.0444
  116MOL0     H15639   5.369   9.348   1.263  2.0421  0.9737 -0.2998
  116MOL0     H15640   5.163   9.192   1.186 -1.8631  0.5563  4.2202
  116MOL0     H15641   5.132   9.309   1.057 -1.3952  0.8708  0.3254
  116MOL0     H15642   6.255   9.419   1.172  0.0161 -0.4998 -0.5970
  116MOL0     H15643   6.471   9.430   1.260 -1.4582  0.8953  0.4871
  116MOL0     H15644   6.846   9.270   1.683 -1.1257 -0.2817  0.5817
  116MOL0     H15645   7.088   9.245   1.680 -0.5346  1.1404  0.3780
  116MOL0     H15646   8.892   8.530   1.511  3.3617  1.3605 -1.5111
  116MOL0     H15647   9.085   8.654   1.463 -0.5676 -1.2666 -4.2858
  116MOL0     H15648   9.273   9.032   1.352 -0.8169  0.4124 -0.2062
  116MOL0     H15649   9.432   9.195   1.329 -2.8590  0.5022  0.2201
  116MOL0     H15650   9.734   9.173   1.409  0.9396 -0.7969  1.2875
  116MOL0     H15651   9.640   9.310   1.346 -1.4570 -1.1947  0.3287
  116MOL0     H15652   9.780   9.472   1.460  0.8087 -0.2063  2.0792
  116MOL0     H15653   9.876   9.363   1.350 -1.2240  1.3594 -1.2089
  116MOL0     H15654   9.952   9.242   1.552 -0.7923 -0.1146 -1.7338
  116MOL0     H15655   9.849   9.345   1.658 -0.7136  1.9013 -0.4790
  116MOL0     H15656   9.974   9.529   1.618 -0.8213  1.0117 -2.3446
  116MOL0     H15657  10.047   9.478   1.465  0.5300 -0.3273 -0.6803
  116MOL0     H15658  10.322   9.351   1.769 -1.3825  1.1558  0.8639
  116MOL0     H15659   9.576   9.117   1.743  0.3599 -2.2138  0.1292
  116MOL0     H15660   9.394   8.950   1.757 -1.2271  0.9911  1.1553
  117MOL0     O15661   9.999   9.480   5.484 -0.1450  0.1640  0.8190
  117MOL0     C15662   9.926   9.576   5.450 -0.5881 -0.3448 -0.4944
  117MOL0     O15663   9.811   9.571   5.394  0.4596 -0.2842 -0.0753
  117MOL0     C15664   9.762   9.447   5.353 -0.2134  0.1529 -1.0228
  117MOL0     C15665   9.637   9.410   5.391  1.9303 -0.2299  0.2398
  117MOL0     C15666   9.576   9.305   5.334  0.4885 -0.3467 -0.2712
  117MOL0     C15667   9.630   9.226   5.238 -0.4684  0.6399 -0.1498
  117MOL0     O15668   9.549   9.140   5.163  0.1534 -0.1539  0.3352
  117MOL0     C15669   9.608   9.010   5.130  0.5493 -0.8499 -0.1482
  117MOL0     C15670   9.530   8.887   5.193 -0.1040 -0.9004 -0.1970
  117MOL0     C15671   9.375   8.892   5.164  0.1576  0.1291 -0.0310
  117MOL0     C15672   9.321   8.743   5.145 -0.4113 -0.5923 -0.9779
  117MOL0     C15673   9.160   8.719   5.135 -0.5586 -0.6477 -0.3445
  117MOL0     C15674   9.154   8.578   5.097  0.1138  0.3069 -0.6003
  117MOL0     C15675   9.018   8.540   5.043 -0.4456 -0.1456  0.0993
  117MOL0     C15676   8.925   8.542   5.160 -0.1820  0.2363 -0.5421
  117MOL0     N15677   8.792   8.504   5.119 -0.1496  0.1725 -0.2392
  117MOL0     C15678   8.684   8.585   5.138  0.5758  0.2104 -0.8705
  117MOL0     C15679   8.576   8.514   5.098 -0.0101  0.2442  0.3070
  117MOL0     C15680   8.425   8.543   5.094  0.5119  0.5767 -0.2258
  117MOL0     C15681   8.355   8.511   5.227  0.3895  0.7508  0.0157
  117MOL0     C15682   8.359   8.360   5.266  0.6428 -0.2947  0.3393
  117MOL0     C15683   8.306   8.274   5.156  0.1284 -0.3465 -0.1079
  117MOL0     O15684   8.181   8.312   5.108  0.5893 -0.2501 -0.6529
  117MOL0     C15685   8.093   8.219   5.070 -0.0459 -0.3687 -0.3488
  117MOL0     C15686   8.107   8.166   4.942 -0.3270 -0.0502 -0.3120
  117MOL0     C15687   8.003   8.098   4.878  0.3472 -0.2811 -0.9530
  117MOL0     C15688   8.023   8.051   4.742 -0.0413  0.2922  0.9545
  117MOL0     C15689   7.879   8.080   4.947  0.7655  0.7359 -0.8168
  117MOL0     C15690   7.762   8.009   4.879  0.8649 -0.6527 -0.2456
  117MOL0     O15691   7.701   7.912   4.959 -0.3020 -0.5393 -0.6093
  117MOL0     C15692   7.591   7.840   4.916  1.3944 -0.6827  0.2647
  117MOL0     C15693   7.528   7.828   4.785 -0.0735  0.3384  0.1479
  117MOL0     C15694   7.399   7.772   4.764 -0.3181 -0.6106  0.2507
  117MOL0     C15695   7.330   7.707   4.868 -0.3415  0.2268  0.2894
  117MOL0     O15696   7.216   7.645   4.834  0.3788  0.1173  0.0633
  117MOL0     C15697   7.204   7.522   4.903  0.1184  0.2350 -0.0879
  117MOL0     C15698   7.086   7.445   4.862  1.1367  0.9633  0.4953
  117MOL0     C15699   6.963   7.525   4.874  0.3391  0.1460 -0.2566
  117MOL0     C15700   6.912   7.532   5.021  0.6589  0.0459 -0.6592
  117MOL0     C15701   6.775   7.597   5.043  0.8962 -0.3433 -0.0826
  117MOL0     C15702   6.662   7.550   4.950  0.5937 -0.3360 -0.1396
  117MOL0     C15703   6.522   7.613   4.984  0.0405  0.1197 -1.7036
  117MOL0     C15704   6.409   7.556   4.896 -0.3967  0.1416 -0.0520
  117MOL0    Cl15705   6.410   7.370   4.920 -0.0532  0.5239  0.2196
  117MOL0     C15706   7.388   7.721   4.997  0.2060 -1.0055 -0.6632
  117MOL0     C15707   7.514   7.778   5.016  0.2063  1.1495 -0.1996
  117MOL0     O15708   7.739   8.046   4.762 -0.1766 -0.0825  0.8292
  117MOL0     C15709   7.878   8.117   5.084 -1.1666 -0.7490 -0.2787
  117MOL0     C15710   7.981   8.194   5.142  0.6121 -0.2817 -0.0496
  117MOL0     N15711   8.622   8.390   5.048  0.4632 -0.2949 -0.4409
  117MOL0     N15712   8.749   8.382   5.069  0.0513 -0.7794 -0.5034
  117MOL0     C15713   9.767   9.246   5.216 -0.0754 -0.4181 -0.8601
  117MOL0     C15714   9.830   9.356   5.273 -0.5671  1.3375 -0.1728
  117MOL0     C15715   9.971   9.712   5.484 -0.2323  0.1708 -0.3124
  117MOL0     C15716   9.912   9.827   5.444  0.3267 -0.7245  0.3122
  117MOL0     C15717   9.950   9.962   5.482  0.3430  0.5278  0.1035
  117MOL0     C15718  10.057   9.972   5.570 -0.0338  0.5172 -0.8354
  117MOL0     O15719  10.118  10.089   5.612  0.0301  0.4159  0.0686
  117MOL0     C15720  10.078  10.204   5.541 -0.2254  0.4595  0.2101
  117MOL0     C15721  10.167  10.327   5.577  0.2948 -0.1877  0.2023
  117MOL0     C15722  10.285  10.327   5.483 -0.1985 -1.2430  0.6526
  117MOL0     C15723  10.370  10.454   5.509 -1.3023  0.4758  0.6284
  117MOL0     C15724  10.485  10.439   5.416  0.1395  0.0567 -1.2429
  117MOL0     C15725  10.574  10.423   5.337 -0.4067  0.4696  0.6832
  117MOL0     C15726  10.120   9.849   5.615  0.6315 -0.5485 -0.6552
  117MOL0     C15727  10.077   9.726   5.571  0.0834 -0.2847 -0.0181
  117MOL0     H15728   9.594   9.471   5.470 -0.8199 -3.0862  1.1589
  117MOL0     H15729   9.470   9.293   5.355  0.6104  1.6382  1.8697
  117MOL0     H15730   9.613   8.988   5.023  2.5894 -2.5065  0.2197
  117MOL0     H15731   9.711   9.003   5.166  0.7954  0.4552 -0.5554
  117MOL0     H15732   9.568   8.801   5.137  1.7159  0.4797 -1.1458
  117MOL0     H15733   9.557   8.879   5.299 -0.4442 -0.2302 -0.0554
  117MOL0     H15734   9.332   8.944   5.249  1.1441  1.6701 -0.4348
  117MOL0     H15735   9.372   8.949   5.070  0.2598 -2.1076 -1.4864
  117MOL0     H15736   9.370   8.712   5.053  0.1093  1.8688 -1.5923
  117MOL0     H15737   9.354   8.693   5.237 -2.6778  1.4943  1.1504
  117MOL0     H15738   9.116   8.741   5.233 -2.1955 -2.2656 -0.6640
  117MOL0     H15739   9.118   8.789   5.062  2.3314  0.9285 -0.6557
  117MOL0     H15740   9.232   8.546   5.027  2.1471  0.5625  1.4497
  117MOL0     H15741   9.188   8.516   5.181  2.2009  1.6169 -0.4180
  117MOL0     H15742   8.990   8.598   4.954  0.2700 -0.9367 -0.6643
  117MOL0     H15743   9.015   8.437   5.005 -0.4808 -0.2617  0.4105
  117MOL0     H15744   8.915   8.637   5.215  0.4576 -1.9958  3.8745
  117MOL0     H15745   8.952   8.463   5.231  2.1116 -2.0582 -3.6674
  117MOL0     H15746   8.689   8.683   5.186  1.4353 -0.9311  1.5381
  117MOL0     H15747   8.414   8.647   5.059 -0.2320  0.6156  0.1153
  117MOL0     H15748   8.376   8.488   5.014  0.7112  0.2254 -0.1088
  117MOL0     H15749   8.257   8.559   5.228 -0.1200 -0.1939 -1.5734
  117MOL0     H15750   8.401   8.565   5.310  0.6618  0.4533  0.0627
  117MOL0     H15751   8.288   8.350   5.349 -0.6894  0.2519 -0.6942
  117MOL0     H15752   8.457   8.327   5.299  1.3609  0.1691 -1.2218
  117MOL0     H15753   8.289   8.173   5.192 -1.9311 -0.2828 -0.7599
  117MOL0     H15754   8.385   8.267   5.081  2.5980 -2.8404  2.5228
  117MOL0     H15755   8.199   8.189   4.888 -0.2409 -0.7913 -0.4934
  117MOL0     H15756   7.972   7.954   4.738 -0.4793  0.5248  0.7897
  117MOL0     H15757   7.975   8.117   4.669 -0.7296  2.1453  2.9952
  117MOL0     H15758   8.129   8.035   4.722  0.0345 -2.1915  2.9262
  117MOL0     H15759   7.573   7.869   4.695  0.3054 -0.7467 -0.1657
  117MOL0     H15760   7.350   7.783   4.668 -1.3647  2.5312  1.0289
  117MOL0     H15761   7.296   7.463   4.895  2.0155  3.1061 -0.8542
  117MOL0     H15762   7.188   7.545   5.008  1.2185  0.5278  0.0320
  117MOL0     H15763   7.091   7.407   4.760  0.6719 -0.2063  0.8982
  117MOL0     H15764   7.080   7.355   4.923 -0.0953 -0.6006 -1.7945
  117MOL0     H15765   6.890   7.468   4.816  0.8099  1.8526 -2.6521
  117MOL0     H15766   6.973   7.626   4.835 -1.1217  0.9931  1.4134
  117MOL0     H15767   6.897   7.430   5.058  1.6132  0.5166  1.1397
  117MOL0     H15768   6.986   7.580   5.085 -0.2154 -0.9016  1.1416
  117MOL0     H15769   6.774   7.705   5.026  1.4014 -0.4639 -0.9590
  117MOL0     H15770   6.743   7.583   5.147  1.3306  2.6325  0.5405
  117MOL0     H15771   6.687   7.569   4.845  3.4610  1.8001  0.8178
  117MOL0     H15772   6.646   7.442   4.958 -0.4344 -0.3790 -2.0812
  117MOL0     H15773   6.526   7.721   4.970 -0.1985  0.5658  1.1259
  117MOL0     H15774   6.497   7.592   5.088  3.4608 -1.7391 -1.1203
  117MOL0     H15775   6.422   7.578   4.790  0.0426  0.7582  0.1247
  117MOL0     H15776   6.318   7.604   4.934 -0.8501 -1.1067  0.5012
  117MOL0     H15777   7.340   7.684   5.088 -1.1273  3.0404  0.4696
  117MOL0     H15778   7.559   7.785   5.115  1.5161 -2.2306 -0.4314
  117MOL0     H15779   7.790   8.096   5.143 -2.2682 -1.5729 -2.1196
  117MOL0     H15780   7.977   8.243   5.239  0.2050 -0.6554  0.1270
  117MOL0     H15781   9.823   9.197   5.137 -0.7870  1.9758 -2.9751
  117MOL0     H15782   9.935   9.371   5.254 -0.3705 -0.5496 -0.7852
  117MOL0     H15783   9.831   9.817   5.372  1.1953 -1.6113 -0.5747
  117MOL0     H15784   9.904  10.047   5.431  0.4025 -0.4270 -1.6259
  117MOL0     H15785  10.087  10.181   5.434 -2.1866 -1.8643  0.4425
  117MOL0     H15786   9.977  10.236   5.571  0.3684  2.7255 -0.0193
  117MOL0     H15787  10.218  10.307   5.672  2.9281 -2.6289 -1.5577
  117MOL0     H15788  10.113  10.422   5.568  0.3438 -0.3570 -3.3175
  117MOL0     H15789  10.235  10.345   5.387 -0.3418 -2.4292  0.4805
  117MOL0     H15790  10.343  10.235   5.470  0.9103 -0.7668  2.0068
  117MOL0     H15791  10.414  10.451   5.610 -1.5064  0.8011  0.7275
  117MOL0     H15792  10.310  10.545   5.508 -1.1949  0.6478  3.1612
  117MOL0     H15793  10.657  10.415   5.269  0.0844 -1.0484  1.4123
  117MOL0     H15794  10.194   9.857   5.694 -2.1214  0.5739  2.0099
  117MOL0     H15795  10.127   9.635   5.602 -1.1056 -1.3120 -1.0075
  118MOL0     O15796   5.785   0.378   6.176  0.3396  0.3019 -0.2621
  118MOL0     C15797   5.868   0.397   6.265  0.6477  0.4373  0.3870
  118MOL0     O15798   5.841   0.442   6.396  0.5932  0.2062  0.2692
  118MOL0     C15799   5.717   0.434   6.458  1.2063  0.1469 -0.2772
  118MOL0     C15800   5.704   0.473   6.591  0.5077  0.4667  0.2092
  118MOL0     C15801   5.586   0.447   6.670  0.1659  0.1699  0.0741
  118MOL0     C15802   5.472   0.391   6.614  0.3513 -1.2038 -0.5002
  118MOL0     O15803   5.359   0.352   6.675  0.1047 -0.5758  0.1836
  118MOL0     C15804   5.370   0.340   6.819 -0.3222 -0.5660  0.7817
  118MOL0     C15805   5.226   0.305   6.876 -0.7134 -0.8491  1.1883
  118MOL0     C15806   5.116   0.413   6.865 -0.2430 -0.0078  0.1572
  118MOL0     C15807   4.988   0.380   6.946 -0.2314  0.7818  0.4567
  118MOL0     C15808   4.908   0.264   6.888 -0.1952  0.1076  0.1257
  118MOL0     C15809   4.854   0.280   6.738 -0.1281 -0.3010 -0.2730
  118MOL0     C15810   4.938   0.201   6.632  0.4963  0.1689  0.2374
  118MOL0     C15811   4.916   0.048   6.636  0.2028  0.4056  0.8351
  118MOL0     N15812   4.778   0.002   6.611  0.4191  0.3748  0.4122
  118MOL0     C15813   4.720  -0.006   6.492 -0.3446 -0.3764 -0.5777
  118MOL0     C15814   4.603  -0.069   6.495 -0.9243  0.2588 -0.8844
  118MOL0     C15815   4.511  -0.112   6.384  0.2795 -0.0719 -0.1365
  118MOL0     C15816   4.399  -0.005   6.363  0.4662  0.4365  0.2014
  118MOL0     C15817   4.334   0.059   6.489 -0.1883  0.6441 -0.2388
  118MOL0     C15818   4.237  -0.032   6.565  0.2152  0.7921  0.2688
  118MOL0     O15819   4.158   0.031   6.654 -0.0119 -0.2545  0.1569
  118MOL0     C15820   4.035   0.074   6.619  0.6159 -0.2855 -0.1772
  118MOL0     C15821   3.944   0.107   6.720  0.4268  0.0775 -0.3646
  118MOL0     C15822   3.810   0.142   6.692  0.0653 -0.2816 -0.6842
  118MOL0     C15823   3.734   0.182   6.813 -0.1068  0.7712  0.1962
  118MOL0     C15824   3.767   0.157   6.558 -0.2621  1.0952 -0.2973
  118MOL0     C15825   3.631   0.194   6.531 -0.2696  0.5235  0.2199
  118MOL0     O15826   3.620   0.250   6.406 -0.2381 -0.3950  0.8179
  118MOL0     C15827   3.504   0.280   6.341 -0.4443  0.7794 -0.9417
  118MOL0     C15828   3.381   0.313   6.403 -0.2819 -1.0518 -0.1847
  118MOL0     C15829   3.282   0.350   6.313  0.6834 -0.4933 -1.4395
  118MOL0     C15830   3.283   0.338   6.175  0.6067 -0.8694  0.0244
  118MOL0     O15831   3.189   0.383   6.085 -0.1311 -0.2637 -0.0564
  118MOL0     C15832   3.132   0.277   6.001  0.1725 -1.2459 -0.4791
  118MOL0     C15833   3.013   0.327   5.923  0.1268  0.9346 -0.4564
  118MOL0     C15834   2.877   0.342   6.000 -0.1782 -0.2777 -0.8806
  118MOL0     C15835   2.762   0.365   5.903 -0.4219 -0.1652 -0.0185
  118MOL0     C15836   2.626   0.323   5.973 -0.0619 -0.3102  0.1435
  118MOL0     C15837   2.598   0.423   6.093  1.5563 -0.4658 -0.4289
  118MOL0     C15838   2.467   0.375   6.166  0.9775 -0.3310  0.2177
  118MOL0     C15839   2.333   0.408   6.096 -0.7997 -0.4647  0.8346
  118MOL0    Cl15840   2.203   0.349   6.196 -0.2711 -0.5392 -0.6216
  118MOL0     C15841   3.397   0.283   6.129 -0.0379  0.5466  0.0737
  118MOL0     C15842   3.505   0.253   6.207  0.3117 -0.0390 -0.0101
  118MOL0     O15843   3.547   0.168   6.602  1.0409 -0.2660 -0.4843
  118MOL0     C15844   3.855   0.120   6.461 -0.6030 -0.9363 -0.0908
  118MOL0     C15845   3.990   0.086   6.492 -0.1743  0.1227 -0.9410
  118MOL0     N15846   4.575  -0.104   6.630 -0.4608  0.3508 -0.6529
  118MOL0     N15847   4.689  -0.065   6.697 -0.0360  0.3988  0.4972
  118MOL0     C15848   5.473   0.370   6.478  0.2424 -0.0683  0.5742
  118MOL0     C15849   5.592   0.393   6.402  0.3133  1.0619  0.0313
  118MOL0     C15850   6.013   0.380   6.228  0.3771  0.4880 -0.3797
  118MOL0     C15851   6.044   0.330   6.096  0.2798  0.0322 -0.0413
  118MOL0     C15852   6.174   0.288   6.064  0.9779 -0.2358 -0.2276
  118MOL0     C15853   6.274   0.285   6.160  0.6744  0.9730  0.4358
  118MOL0     O15854   6.395   0.222   6.143 -0.1473 -0.5980  0.2972
  118MOL0     C15855   6.442   0.156   6.021  0.3510 -0.5521  0.8631
  118MOL0     C15856   6.539   0.038   6.044 -0.6284 -0.2853 -1.1304
  118MOL0     C15857   6.669   0.083   6.120  0.3214 -0.3124  0.1054
  118MOL0     C15858   6.762   0.165   6.037  0.2063 -0.0701  0.0527
  118MOL0     C15859   6.814   0.092   5.921  0.1268 -0.3622 -0.4331
  118MOL0     C15860   6.853   0.030   5.825 -0.3582 -0.3570  0.0779
  118MOL0     C15861   6.244   0.328   6.289 -0.0667 -1.0166  0.1337
  118MOL0     C15862   6.113   0.376   6.323  0.4852  0.6785 -0.4524
  118MOL0     H15863   5.795   0.495   6.647  0.8782 -1.5507  0.4940
  118MOL0     H15864   5.585   0.482   6.773 -0.0985  1.0804 -0.2278
  118MOL0     H15865   5.454   0.277   6.850  3.9912  3.8837 -0.5434
  118MOL0     H15866   5.397   0.435   6.867 -0.7700  0.1363 -0.3229
  118MOL0     H15867   5.202   0.211   6.825  0.1506  0.1244 -1.1719
  118MOL0     H15868   5.238   0.292   6.984 -0.2308  2.8404  1.7064
  118MOL0     H15869   5.158   0.513   6.883 -0.0451  0.3158 -1.8012
  118MOL0     H15870   5.087   0.420   6.759 -2.0877 -3.5323  0.2949
  118MOL0     H15871   5.017   0.362   7.050  2.4533  2.2372  0.0618
  118MOL0     H15872   4.931   0.474   6.939 -0.1486  0.7247 -1.4443
  118MOL0     H15873   4.967   0.172   6.894 -1.6289 -0.7928  1.2082
  118MOL0     H15874   4.820   0.242   6.950 -1.8491 -0.8209 -2.3829
  118MOL0     H15875   4.755   0.234   6.741  0.2893 -1.2240 -0.2146
  118MOL0     H15876   4.843   0.383   6.705 -2.1030  0.2868  1.9236
  118MOL0     H15877   4.905   0.225   6.531 -0.2234  0.2189  0.4745
  118MOL0     H15878   5.041   0.233   6.651  0.5686 -0.1545  0.3928
  118MOL0     H15879   4.956   0.014   6.732 -0.1568 -0.7193  0.6056
  118MOL0     H15880   4.971  -0.008   6.560 -0.2841  2.4119 -1.1263
  118MOL0     H15881   4.762   0.043   6.405 -4.4379  0.2555 -2.4497
  118MOL0     H15882   4.561  -0.144   6.293 -1.8092 -0.8305 -1.0771
  118MOL0     H15883   4.466  -0.206   6.420 -0.9677  0.3143 -0.6351
  118MOL0     H15884   4.321  -0.035   6.292  1.0638  0.8706 -0.6580
  118MOL0     H15885   4.449   0.070   6.301 -0.3110  1.9575  1.3471
  118MOL0     H15886   4.275   0.146   6.458 -3.1264 -0.6497  1.2580
  118MOL0     H15887   4.410   0.102   6.555  0.7889 -0.5699 -0.5253
  118MOL0     H15888   4.301  -0.103   6.619  0.7960 -0.6289 -2.1481
  118MOL0     H15889   4.180  -0.092   6.494  4.0975 -0.4726 -2.1378
  118MOL0     H15890   3.981   0.103   6.822  3.2406 -1.2711 -1.3276
  118MOL0     H15891   3.652   0.120   6.849  0.3983  0.4421  0.8040
  118MOL0     H15892   3.805   0.194   6.895 -2.5280  3.2881  2.1073
  118MOL0     H15893   3.688   0.280   6.797 -0.4087  0.4587 -0.9843
  118MOL0     H15894   3.359   0.318   6.509 -0.4474  0.4821 -0.2759
  118MOL0     H15895   3.192   0.390   6.358  1.0015 -0.9087 -0.4083
  118MOL0     H15896   3.211   0.256   5.927  0.3062  0.4662 -0.8652
  118MOL0     H15897   3.110   0.191   6.065  0.7052 -0.3061  1.0132
  118MOL0     H15898   3.035   0.419   5.868  0.0751  1.3774  0.2565
  118MOL0     H15899   3.001   0.246   5.850 -0.8631  0.1347  0.5763
  118MOL0     H15900   2.897   0.425   6.069  2.6213 -1.5817  0.0148
  118MOL0     H15901   2.864   0.251   6.060 -1.2013  0.5594  0.2160
  118MOL0     H15902   2.766   0.471   5.873  0.0750 -0.2366 -0.2074
  118MOL0     H15903   2.778   0.293   5.823  0.9711 -1.3265  1.2368
  118MOL0     H15904   2.622   0.224   6.019  0.1417 -0.6428 -0.5441
  118MOL0     H15905   2.550   0.329   5.895 -0.1396  0.1503  0.2479
  118MOL0     H15906   2.676   0.419   6.171  0.1369 -0.4585  1.0453
  118MOL0     H15907   2.594   0.527   6.061  1.8051 -0.2623  0.1841
  118MOL0     H15908   2.451   0.413   6.267 -1.3143 -1.3486  0.3128
  118MOL0     H15909   2.471   0.267   6.184 -1.1449 -0.8207 -1.7438
  118MOL0     H15910   2.313   0.346   6.008  2.2726 -0.2492 -0.1339
  118MOL0     H15911   2.325   0.513   6.068 -0.7091 -0.9508 -1.1770
  118MOL0     H15912   3.397   0.255   6.024 -1.8398 -3.1872  0.8872
  118MOL0     H15913   3.588   0.199   6.162 -0.7170 -3.1405  1.5120
  118MOL0     H15914   3.822   0.131   6.358 -0.2925  0.6061 -0.0427
  118MOL0     H15915   4.038   0.059   6.398 -1.0352  0.9880 -1.6482
  118MOL0     H15916   5.384   0.347   6.420  0.9136  1.1355 -0.9919
  118MOL0     H15917   5.584   0.355   6.300 -1.3430  1.3390  0.0427
  118MOL0     H15918   5.965   0.318   6.022 -0.3351  1.3376  0.3635
  118MOL0     H15919   6.191   0.253   5.963 -1.5172 -0.1366 -0.7393
  118MOL0     H15920   6.362   0.107   5.965 -1.0337 -0.9368  3.0643
  118MOL0     H15921   6.492   0.230   5.958 -0.7082  0.4317  1.1595
  118MOL0     H15922   6.580  -0.012   5.956  2.4644 -0.4117  0.2546
  118MOL0     H15923   6.485  -0.024   6.116  0.2966 -0.8211 -0.8834
  118MOL0     H15924   6.717  -0.003   6.167 -0.6265 -2.0339 -1.8931
  118MOL0     H15925   6.639   0.151   6.201 -1.4805  0.3129 -1.0261
  118MOL0     H15926   6.846   0.209   6.092  0.7948  0.7586 -1.4205
  118MOL0     H15927   6.701   0.251   6.007 -0.9260 -0.9205 -0.1605
  118MOL0     H15928   6.900  -0.025   5.746  0.9928  1.0931 -0.1795
  118MOL0     H15929   6.326   0.334   6.360 -1.1763  1.3156  1.3216
  118MOL0     H15930   6.095   0.413   6.424 -0.7679 -2.1949  0.4710
  119MOL0     O15931   5.272   4.813   2.200  0.6904 -0.8579  0.0394
  119MOL0     C15932   5.360   4.897   2.210 -0.4146 -0.3692 -0.1989
  119MOL0     O15933   5.343   5.034   2.231  0.0044  0.5024  0.2971
  119MOL0     C15934   5.216   5.077   2.255 -0.4420  0.3562  0.2278
  119MOL0     C15935   5.111   5.071   2.156  0.1422  0.4316 -0.2293
  119MOL0     C15936   4.992   5.134   2.189  0.3894 -0.0151  0.1254
  119MOL0     C15937   4.971   5.194   2.323 -0.1302  0.1523 -0.1788
  119MOL0     O15938   4.853   5.246   2.369  0.3466 -0.4286 -0.1406
  119MOL0     C15939   4.751   5.281   2.275  0.2542  0.0856 -1.0026
  119MOL0     C15940   4.650   5.165   2.252 -0.0281  0.5024  0.5056
  119MOL0     C15941   4.515   5.223   2.202 -0.1223  0.0317  0.6050
  119MOL0     C15942   4.400   5.119   2.214 -0.2902 -0.0528 -0.2778
  119MOL0     C15943   4.270   5.169   2.145  0.5075  0.4676 -0.4965
  119MOL0     C15944   4.135   5.117   2.189  0.4046  0.4746  0.2271
  119MOL0     C15945   4.022   5.156   2.100 -0.0035  0.4599 -0.0125
  119MOL0     C15946   3.964   5.291   2.109  0.7830  0.8187 -0.0187
  119MOL0     N15947   3.857   5.322   2.007 -0.5034  0.2190 -0.4611
  119MOL0     C15948   3.761   5.239   1.967  0.5313  0.0971  0.3126
  119MOL0     C15949   3.687   5.304   1.876  0.5264 -0.4920  0.7823
  119MOL0     C15950   3.567   5.249   1.805  0.2790  0.2741 -0.3442
  119MOL0     C15951   3.427   5.299   1.857 -0.8460  1.2102  0.2230
  119MOL0     C15952   3.408   5.236   1.996  0.0121 -0.3310 -0.7218
  119MOL0     C15953   3.293   5.280   2.079 -0.3095  0.1782 -0.0912
  119MOL0     O15954   3.272   5.183   2.178  0.9773  0.4338 -0.4251
  119MOL0     C15955   3.143   5.179   2.227 -0.2177  0.0858 -0.5448
  119MOL0     C15956   3.095   5.067   2.291 -0.2547  0.3404  0.0098
  119MOL0     C15957   2.958   5.045   2.329  0.3588 -1.1128  0.8544
  119MOL0     C15958   2.925   4.910   2.378  0.0074 -0.0847 -0.8112
  119MOL0     C15959   2.868   5.156   2.296  0.4208 -0.0901  0.0569
  119MOL0     C15960   2.720   5.162   2.322 -0.1340 -0.0984  0.2110
  119MOL0     O15961   2.647   5.260   2.261 -0.4375 -0.0755 -0.1997
  119MOL0     C15962   2.515   5.280   2.293  0.1752  0.5033 -0.1433
  119MOL0     C15963   2.432   5.333   2.190 -0.1570  0.2072  0.0195
  119MOL0     C15964   2.294   5.346   2.215 -0.0158 -0.3242  0.8087
  119MOL0     C15965   2.231   5.320   2.337 -0.4375 -0.0665  0.6025
  119MOL0     O15966   2.106   5.362   2.371 -0.4335 -0.4753 -0.3154
  119MOL0     C15967   2.006   5.354   2.271 -0.4327  0.1499 -0.2377
  119MOL0     C15968   1.886   5.376   2.350  0.5081 -0.7557 -0.3710
  119MOL0     C15969   1.757   5.329   2.276 -0.2413 -0.9983  0.4686
  119MOL0     C15970   1.633   5.353   2.363 -0.1534  0.1854 -0.6973
  119MOL0     C15971   1.586   5.498   2.376 -0.1346  0.2142  0.3031
  119MOL0     C15972   1.541   5.556   2.242  0.4678  0.4570 -0.3237
  119MOL0     C15973   1.530   5.711   2.242  0.2899  0.3360 -0.3050
  119MOL0     C15974   1.440   5.775   2.354 -0.2762  0.2264  0.2420
  119MOL0    Cl15975   1.430   5.952   2.318  0.1983 -0.2995  0.3145
  119MOL0     C15976   2.322   5.287   2.439  0.2988 -0.8892  0.3424
  119MOL0     C15977   2.459   5.264   2.417  0.5243 -0.0593 -0.0383
  119MOL0     O15978   2.671   5.078   2.399  0.0296 -0.6641  0.2271
  119MOL0     C15979   2.915   5.269   2.229  0.9585  0.9492 -0.5624
  119MOL0     C15980   3.047   5.284   2.205 -0.1367  0.3802  1.1298
  119MOL0     N15981   3.745   5.424   1.847 -0.1342 -0.1145 -0.5338
  119MOL0     N15982   3.852   5.432   1.933  0.3772  0.4159  0.2069
  119MOL0     C15983   5.077   5.195   2.413 -0.5813 -0.1121  0.1837
  119MOL0     C15984   5.201   5.134   2.381  1.0209 -0.0174  0.3017
  119MOL0     C15985   5.492   4.844   2.218 -0.6887 -0.9317 -0.9120
  119MOL0     C15986   5.518   4.710   2.223 -0.3450  0.8256 -0.2373
  119MOL0     C15987   5.653   4.663   2.222  0.9195 -0.1409 -0.1712
  119MOL0     C15988   5.762   4.750   2.216 -0.8927  0.0577  0.1579
  119MOL0     O15989   5.884   4.695   2.193  0.2596  0.2552 -0.2968
  119MOL0     C15990   5.998   4.784   2.169  0.3410 -0.3773 -0.3136
  119MOL0     C15991   6.092   4.778   2.283 -0.0490  0.0230  0.5315
  119MOL0     C15992   6.212   4.853   2.254 -0.6328 -0.5368  0.4416
  119MOL0     C15993   6.205   5.004   2.298 -0.0546  0.2521  0.6800
  119MOL0     C15994   6.173   5.095   2.181 -0.3628  0.2463  0.7877
  119MOL0     C15995   6.175   5.159   2.075  0.2052 -0.5881  0.4425
  119MOL0     C15996   5.726   4.888   2.228 -0.8935  0.4031  0.9802
  119MOL0     C15997   5.592   4.932   2.235 -0.5106 -0.2124 -0.3363
  119MOL0     H15998   5.133   5.043   2.053 -0.5934 -0.5942 -0.1244
  119MOL0     H15999   4.926   5.143   2.104  3.5703  2.0001 -2.3591
  119MOL0     H16000   4.700   5.371   2.310 -0.7609  0.0880 -2.3946
  119MOL0     H16001   4.791   5.314   2.178  1.0360  0.9849 -0.3812
  119MOL0     H16002   4.698   5.098   2.181 -1.8684  1.0158 -1.2879
  119MOL0     H16003   4.622   5.101   2.336  1.4504  2.4641  2.6572
  119MOL0     H16004   4.491   5.316   2.254  0.4480  0.0569  0.8241
  119MOL0     H16005   4.531   5.260   2.100  1.7034 -1.0720  0.4564
  119MOL0     H16006   4.440   5.032   2.161  2.1697  0.8639 -0.0542
  119MOL0     H16007   4.392   5.095   2.321  2.1577  2.3919  0.5692
  119MOL0     H16008   4.274   5.277   2.129 -0.9622  0.1619 -3.5173
  119MOL0     H16009   4.273   5.123   2.046 -2.3874 -0.5268 -0.2138
  119MOL0     H16010   4.150   5.009   2.197  0.5460  0.3973 -0.9700
  119MOL0     H16011   4.116   5.163   2.287 -1.9338  2.8151 -1.1850
  119MOL0     H16012   4.036   5.121   1.997 -1.0146 -1.4527  0.4439
  119MOL0     H16013   3.941   5.092   2.136  0.6356 -0.5941 -0.3916
  119MOL0     H16014   4.042   5.366   2.091 -1.6671  3.7592  0.7496
  119MOL0     H16015   3.910   5.300   2.204 -0.7424 -1.9091 -0.5443
  119MOL0     H16016   3.753   5.133   1.993  0.4803  0.3816  1.5044
  119MOL0     H16017   3.569   5.282   1.701 -0.5010  1.4809 -0.0008
  119MOL0     H16018   3.575   5.140   1.801 -3.0715 -0.0630 -0.5872
  119MOL0     H16019   3.344   5.274   1.791 -0.2439  0.4627 -0.2712
  119MOL0     H16020   3.433   5.406   1.880  2.4200  1.0582  0.5583
  119MOL0     H16021   3.487   5.262   2.066 -1.9108 -0.2009  1.5193
  119MOL0     H16022   3.394   5.128   1.986 -2.1807 -0.2178  0.4314
  119MOL0     H16023   3.207   5.288   2.011  0.6348  2.0957 -1.1223
  119MOL0     H16024   3.315   5.381   2.112 -0.2477  0.8113 -1.9563
  119MOL0     H16025   3.158   4.980   2.308 -1.0701 -0.9581 -2.9481
  119MOL0     H16026   2.993   4.828   2.354 -0.7272 -0.6212 -1.0807
  119MOL0     H16027   2.928   4.927   2.486  1.4537 -0.9602 -0.6853
  119MOL0     H16028   2.826   4.878   2.346  0.5842 -1.0102 -1.7320
  119MOL0     H16029   2.473   5.361   2.094 -1.2534  0.5339 -0.3621
  119MOL0     H16030   2.230   5.376   2.133  1.4793  2.4839  0.5364
  119MOL0     H16031   2.023   5.431   2.196  1.3310  1.7499  1.6883
  119MOL0     H16032   1.999   5.251   2.234 -1.2185  0.6638 -1.6015
  119MOL0     H16033   1.900   5.321   2.443  0.6981  1.5075  1.0199
  119MOL0     H16034   1.892   5.483   2.374  3.7682 -1.2439  1.5198
  119MOL0     H16035   1.775   5.225   2.246 -0.1536 -0.5303 -1.2053
  119MOL0     H16036   1.746   5.373   2.177  2.5364  1.6162  1.1578
  119MOL0     H16037   1.557   5.288   2.318 -0.6435 -1.6182  2.4268
  119MOL0     H16038   1.657   5.304   2.458 -0.7943  0.9740 -0.1138
  119MOL0     H16039   1.672   5.559   2.407  1.0740  0.5724 -3.2400
  119MOL0     H16040   1.499   5.498   2.442 -1.7025 -1.5361 -1.5986
  119MOL0     H16041   1.609   5.526   2.161  2.7834  0.2420  1.6003
  119MOL0     H16042   1.442   5.510   2.236  1.5815 -1.9618 -2.0951
  119MOL0     H16043   1.482   5.733   2.146 -1.4962 -2.3894 -0.1504
  119MOL0     H16044   1.622   5.770   2.238 -0.1654  1.0487 -0.7088
  119MOL0     H16045   1.484   5.756   2.452 -3.0276 -1.5101  1.2215
  119MOL0     H16046   1.337   5.739   2.347 -0.4190  0.3347  1.5558
  119MOL0     H16047   2.291   5.278   2.543 -1.2300 -2.4949 -0.2051
  119MOL0     H16048   2.526   5.231   2.495  0.3762 -0.4073 -0.0584
  119MOL0     H16049   2.851   5.354   2.205 -1.3904 -0.3993  0.5025
  119MOL0     H16050   3.080   5.384   2.175  0.2468 -0.2526 -0.6645
  119MOL0     H16051   5.080   5.257   2.502  1.4188 -0.6558  0.5359
  119MOL0     H16052   5.265   5.126   2.469 -0.4018  1.7548  1.5536
  119MOL0     H16053   5.445   4.631   2.233 -0.9906  1.5338  0.8808
  119MOL0     H16054   5.666   4.557   2.206  0.3110 -0.3745  0.7550
  119MOL0     H16055   6.052   4.743   2.083  1.9058 -2.8223  1.6888
  119MOL0     H16056   5.961   4.886   2.150  3.2420  0.7284 -0.6534
  119MOL0     H16057   6.120   4.673   2.296  0.7307  0.2437  0.6909
  119MOL0     H16058   6.050   4.812   2.378 -2.1889 -2.9468  0.7540
  119MOL0     H16059   6.242   4.844   2.150  0.7021 -1.5772  0.8906
  119MOL0     H16060   6.294   4.809   2.311  1.3505  3.9502  1.5232
  119MOL0     H16061   6.308   5.025   2.328  0.5574  0.8519 -1.6544
  119MOL0     H16062   6.134   5.021   2.380  0.5450 -2.4280  1.8728
  119MOL0     H16063   6.185   5.205   1.979 -0.4292  1.1887  1.1948
  119MOL0     H16064   5.795   4.971   2.229  1.0360 -1.1286  3.0302
  119MOL0     H16065   5.579   5.039   2.238  0.3312 -0.0461 -1.6522
  120MOL0     O16066  11.320   1.000   8.923 -0.1128 -0.0036 -0.2361
  120MOL0     C16067  11.360   0.891   8.936  0.2194 -0.2722  0.1921
  120MOL0     O16068  11.283   0.787   8.906 -0.5081 -0.2959  0.1275
  120MOL0     C16069  11.162   0.814   8.848 -0.0463  0.3713  0.0543
  120MOL0     C16070  11.045   0.822   8.922 -0.0476 -0.3439 -0.1277
  120MOL0     C16071  10.918   0.840   8.855 -0.0661  0.1596  0.1281
  120MOL0     C16072  10.915   0.844   8.721 -0.1375  0.3717  0.5092
  120MOL0     O16073  10.800   0.848   8.645 -0.7549  0.0455  0.3793
  120MOL0     C16074  10.684   0.891   8.694  0.9368  0.5376 -0.2487
  120MOL0     C16075  10.591   0.900   8.576 -0.2379  0.1961  0.0368
  120MOL0     C16076  10.451   0.963   8.613  0.6642 -0.7109  0.2233
  120MOL0     C16077  10.351   0.920   8.500  0.8026 -0.5045 -0.6311
  120MOL0     C16078  10.208   0.961   8.548  0.7185 -0.3084  0.6533
  120MOL0     C16079  10.081   0.908   8.473 -0.1136 -0.2152 -0.4289
  120MOL0     C16080   9.949   0.946   8.543  0.8285 -0.4515  0.1362
  120MOL0     C16081   9.825   0.901   8.471 -0.6670  0.8267 -0.1448
  120MOL0     N16082   9.707   0.942   8.532 -0.2334  0.1972 -0.2979
  120MOL0     C16083   9.666   1.061   8.569  0.3001 -1.1448  0.3207
  120MOL0     C16084   9.537   1.044   8.602  0.6308  0.5318  0.6732
  120MOL0     C16085   9.445   1.157   8.657 -0.0256  0.2251  0.3193
  120MOL0     C16086   9.296   1.110   8.663  0.0592  0.1557 -0.1608
  120MOL0     C16087   9.231   1.180   8.780 -0.3907 -0.1972  0.3208
  120MOL0     C16088   9.089   1.132   8.809 -0.1868  0.4466  0.1111
  120MOL0     O16089   9.060   1.165   8.948 -0.4153  0.1816 -0.1105
  120MOL0     C16090   8.937   1.149   9.002  0.4657 -0.3068  1.8304
  120MOL0     C16091   8.912   1.171   9.136  0.3996 -0.5887  0.1702
  120MOL0     C16092   8.784   1.188   9.181  0.6256 -0.3618 -0.6655
  120MOL0     C16093   8.770   1.211   9.327  0.5764  0.7706 -0.1881
  120MOL0     C16094   8.674   1.162   9.093  0.0515 -0.1670 -0.1860
  120MOL0     C16095   8.534   1.177   9.132  0.1259 -0.6137 -0.4375
  120MOL0     O16096   8.447   1.101   9.066  0.2197  0.3080  0.0371
  120MOL0     C16097   8.315   1.108   9.105 -0.1111 -0.5393 -0.0289
  120MOL0     C16098   8.280   1.104   9.241 -0.4091  0.2447  0.2960
  120MOL0     C16099   8.143   1.079   9.283 -0.1077  0.5005  0.3299
  120MOL0     C16100   8.035   1.061   9.182  0.1234 -0.7366  0.2165
  120MOL0     O16101   7.899   1.043   9.217 -0.3362 -0.0526  0.1811
  120MOL0     C16102   7.850   1.084   9.345  0.3148  1.2114  0.7696
  120MOL0     C16103   7.701   1.080   9.331  0.5502  0.2264 -0.1486
  120MOL0     C16104   7.625   0.957   9.269 -0.5819 -0.2315 -0.3042
  120MOL0     C16105   7.473   0.971   9.286 -0.1601 -0.3067 -0.1175
  120MOL0     C16106   7.401   0.963   9.426 -0.0726 -0.0526 -0.1035
  120MOL0     C16107   7.250   1.000   9.430  0.5779 -0.1931  0.3277
  120MOL0     C16108   7.177   0.959   9.565 -0.0296 -0.3999 -0.6144
  120MOL0     C16109   7.053   1.040   9.600  0.2283 -0.3992 -0.1978
  120MOL0    Cl16110   6.922   0.976   9.503  0.3259 -0.1838  0.1049
  120MOL0     C16111   8.077   1.066   9.046 -0.0812  0.7681  0.0336
  120MOL0     C16112   8.214   1.087   9.006  1.4499 -0.3481 -0.5260
  120MOL0     O16113   8.515   1.276   9.203 -0.3042 -0.0267  0.1253
  120MOL0     C16114   8.699   1.131   8.962 -0.0942 -0.6729 -0.5892
  120MOL0     C16115   8.828   1.121   8.913 -0.5444  0.6145  0.3155
  120MOL0     N16116   9.512   0.914   8.615  0.1644  0.7829  0.0913
  120MOL0     N16117   9.612   0.848   8.569 -0.7676  0.0478 -0.1843
  120MOL0     C16118  11.033   0.843   8.647  0.6940 -0.2782  0.0112
  120MOL0     C16119  11.155   0.824   8.709  0.1160 -0.2415  0.5338
  120MOL0     C16120  11.505   0.871   8.958  0.9256 -0.4388  0.4137
  120MOL0     C16121  11.576   0.753   8.915 -0.3696  0.0211  0.4597
  120MOL0     C16122  11.716   0.751   8.923 -1.3160  1.0753 -0.3166
  120MOL0     C16123  11.785   0.855   8.980 -0.1705 -0.1642  0.4658
  120MOL0     O16124  11.926   0.860   8.972  0.7116  0.1394 -0.4053
  120MOL0     C16125  12.003   0.734   8.955  0.2908 -0.0510 -0.9664
  120MOL0     C16126  12.152   0.773   8.956  0.0149  0.4517  0.0613
  120MOL0     C16127  12.242   0.645   8.965  0.2807 -0.1311  0.4405
  120MOL0     C16128  12.385   0.661   8.999  0.2849  0.7765 -0.7100
  120MOL0     C16129  12.447   0.780   8.944  0.7078  0.1598  0.4241
  120MOL0     C16130  12.495   0.880   8.899  0.1127 -0.5193 -0.5146
  120MOL0     C16131  11.717   0.966   9.021  1.0415 -0.3063  0.8983
  120MOL0     C16132  11.577   0.979   9.006  0.2306 -0.8391  0.2691
  120MOL0     H16133  11.041   0.794   9.027  1.2800 -0.6604 -0.1504
  120MOL0     H16134  10.827   0.834   8.913 -0.7107  1.2249 -0.7462
  120MOL0     H16135  10.643   0.812   8.758  1.1249  0.0531 -0.7075
  120MOL0     H16136  10.687   0.988   8.743 -1.0265  0.1113  0.8322
  120MOL0     H16137  10.634   0.964   8.498  0.6672 -0.9044 -0.4065
  120MOL0     H16138  10.575   0.795   8.547  0.6713 -0.2424  1.0495
  120MOL0     H16139  10.416   0.918   8.706 -0.9863  2.3998  1.2591
  120MOL0     H16140  10.446   1.072   8.626  1.0761 -0.8306  1.3966
  120MOL0     H16141  10.370   0.985   8.414  2.8906  1.7464  1.3729
  120MOL0     H16142  10.351   0.814   8.476  2.2490 -0.9310  1.0895
  120MOL0     H16143  10.189   0.916   8.646 -1.5686 -3.2749 -1.0197
  120MOL0     H16144  10.207   1.070   8.560 -0.5516  0.0196 -1.8120
  120MOL0     H16145  10.071   0.947   8.372  0.6198 -0.9958 -0.8171
  120MOL0     H16146  10.088   0.799   8.474  1.1393 -0.2326  2.7404
  120MOL0     H16147   9.936   0.897   8.640  0.2042 -0.1553  0.2065
  120MOL0     H16148   9.950   1.055   8.554 -0.7539 -0.5891  2.2802
  120MOL0     H16149   9.827   0.792   8.471 -0.7739  0.5702  4.8816
  120MOL0     H16150   9.823   0.938   8.368 -2.1858  1.9222  0.2461
  120MOL0     H16151   9.723   1.153   8.561 -0.8511 -0.5994 -2.7038
  120MOL0     H16152   9.476   1.193   8.756  3.8501 -1.1523 -0.2255
  120MOL0     H16153   9.453   1.252   8.604 -1.8807  1.1705  1.6001
  120MOL0     H16154   9.283   1.003   8.681 -0.2023  0.6353  3.3604
  120MOL0     H16155   9.256   1.136   8.565 -1.2501 -0.0840  0.2849
  120MOL0     H16156   9.230   1.289   8.765 -1.1947 -0.4324 -1.6332
  120MOL0     H16157   9.291   1.149   8.865  2.8068 -1.5098 -2.2109
  120MOL0     H16158   9.088   1.023   8.801  2.3305  0.3130  0.8714
  120MOL0     H16159   9.025   1.176   8.733  0.9764  3.0002  0.5317
  120MOL0     H16160   8.994   1.188   9.204  1.4756  1.7469 -1.6007
  120MOL0     H16161   8.671   1.177   9.359  0.0842  3.2665  1.2102
  120MOL0     H16162   8.853   1.161   9.378  0.9802  0.4126 -1.1691
  120MOL0     H16163   8.773   1.320   9.337 -0.0038  0.8142 -0.4729
  120MOL0     H16164   8.351   1.101   9.324  0.6242 -0.4838 -0.5701
  120MOL0     H16165   8.120   1.086   9.389  0.9312  1.7978  0.5116
  120MOL0     H16166   7.882   1.017   9.425  1.0557 -0.9396 -1.2311
  120MOL0     H16167   7.877   1.186   9.374  1.9313  0.6417  1.4131
  120MOL0     H16168   7.667   1.108   9.431  0.0529  1.2046 -0.5720
  120MOL0     H16169   7.677   1.156   9.256 -1.1960 -0.1476 -0.0133
  120MOL0     H16170   7.656   0.864   9.319  2.1218  0.0955 -1.2139
  120MOL0     H16171   7.657   0.946   9.165  0.2399 -1.7313  0.0680
  120MOL0     H16172   7.447   1.073   9.254  1.8024  1.0857  2.3550
  120MOL0     H16173   7.424   0.893   9.227  1.5481 -1.1821 -0.4296
  120MOL0     H16174   7.461   1.016   9.502  0.8382  0.0101 -0.8456
  120MOL0     H16175   7.413   0.858   9.455  4.1726 -0.4348 -2.3338
  120MOL0     H16176   7.248   1.108   9.418  1.9925 -0.1051  0.7430
  120MOL0     H16177   7.198   0.947   9.349  0.8730  0.6098 -0.3930
  120MOL0     H16178   7.245   0.966   9.651 -1.3315  0.0225  0.4216
  120MOL0     H16179   7.152   0.852   9.566 -2.5257  0.1060  1.2320
  120MOL0     H16180   7.067   1.146   9.578 -0.9607  0.3139  2.1198
  120MOL0     H16181   7.025   1.028   9.705  1.1196 -1.2521 -0.0419
  120MOL0     H16182   7.996   1.041   8.979 -1.8130 -3.4242  3.2302
  120MOL0     H16183   8.229   1.092   8.899  1.8344  1.0611 -0.4249
  120MOL0     H16184   8.616   1.134   8.893  0.2001  0.3093 -0.9176
  120MOL0     H16185   8.834   1.116   8.805 -3.0918 -1.8384  0.1836
  120MOL0     H16186  11.043   0.853   8.540  1.7769  1.7565  0.2433
  120MOL0     H16187  11.237   0.825   8.638 -0.0397  0.0122  0.3568
  120MOL0     H16188  11.524   0.664   8.881 -1.1598 -1.4268  4.7759
  120MOL0     H16189  11.777   0.666   8.896 -0.3117  2.0305 -1.1798
  120MOL0     H16190  11.994   0.674   9.046  0.4356  1.8551  0.3593
  120MOL0     H16191  11.975   0.669   8.872 -1.5905  0.8229 -1.0720
  120MOL0     H16192  12.163   0.842   9.040 -0.8139 -0.1127  0.6527
  120MOL0     H16193  12.186   0.825   8.866 -0.4285 -1.5676 -1.3361
  120MOL0     H16194  12.243   0.591   8.869  0.6316 -0.3396  0.5557
  120MOL0     H16195  12.203   0.573   9.037  2.4256 -0.9757  0.8465
  120MOL0     H16196  12.443   0.576   8.961  0.6857  1.5659 -1.9173
  120MOL0     H16197  12.407   0.664   9.106  0.4986  0.3555 -0.7378
  120MOL0     H16198  12.549   0.969   8.874  2.1370 -1.5211  0.0557
  120MOL0     H16199  11.769   1.056   9.054  0.8134  0.2116 -0.1037
  120MOL0     H16200  11.530   1.075   9.025 -3.9474 -3.0907  2.8452
  121MOL0     O16201   0.479   1.198   0.800 -0.2840 -1.0863 -0.1773
  121MOL0     C16202   0.506   1.226   0.679 -0.3432  0.5167 -0.1605
  121MOL0     O16203   0.407   1.239   0.587  0.1615 -0.5486  0.5817
  121MOL0     C16204   0.280   1.233   0.615  0.2844  0.2732 -0.8920
  121MOL0     C16205   0.226   1.106   0.632  0.1781 -0.6875  0.8378
  121MOL0     C16206   0.093   1.100   0.671  0.0696  0.3640 -0.2419
  121MOL0     C16207   0.009   1.210   0.678  0.0802 -0.1048  1.4209
  121MOL0     O16208  -0.123   1.217   0.724 -0.1218  0.4074  0.5745
  121MOL0     C16209  -0.208   1.099   0.700  0.2180  0.1834  0.4431
  121MOL0     C16210  -0.230   1.069   0.552  0.8484 -1.0644 -0.0836
  121MOL0     C16211  -0.269   1.198   0.470 -0.5529 -0.6085 -0.6324
  121MOL0     C16212  -0.326   1.158   0.329  0.2209 -0.1815  0.3445
  121MOL0     C16213  -0.366   1.284   0.255 -0.5841  0.2470  0.1548
  121MOL0     C16214  -0.373   1.241   0.102 -0.0193  0.4440  0.7013
  121MOL0     C16215  -0.413   1.367   0.017  0.2677  0.9467  0.4312
  121MOL0     C16216  -0.472   1.320  -0.113  0.1886 -0.3036 -0.6846
  121MOL0     N16217  -0.370   1.244  -0.189 -0.1688 -0.2257  0.2567
  121MOL0     C16218  -0.274   1.296  -0.271 -0.0086 -0.3829 -0.1822
  121MOL0     C16219  -0.228   1.198  -0.348 -0.9552  0.4666 -0.5642
  121MOL0     C16220  -0.114   1.196  -0.439  0.6200 -0.2861  0.6963
  121MOL0     C16221   0.004   1.278  -0.405 -0.6059 -0.0152  0.4063
  121MOL0     C16222   0.063   1.240  -0.268 -0.4939  0.2648 -0.4326
  121MOL0     C16223   0.122   1.367  -0.196  0.0367 -0.8023  0.1465
  121MOL0     O16224   0.204   1.459  -0.279  0.1138  0.1287 -0.1828
  121MOL0     C16225   0.338   1.464  -0.273 -0.1027 -0.0773  0.4344
  121MOL0     C16226   0.400   1.568  -0.339  0.0055 -0.1350  0.0859
  121MOL0     C16227   0.537   1.573  -0.369 -0.3341 -0.5592  1.0115
  121MOL0     C16228   0.576   1.680  -0.467 -0.0575  0.7063 -0.0830
  121MOL0     C16229   0.624   1.474  -0.302 -0.2825  0.0356 -0.5178
  121MOL0     C16230   0.772   1.471  -0.320  1.1668  0.1636 -0.2822
  121MOL0     O16231   0.855   1.405  -0.223 -0.9552  0.3397  0.1121
  121MOL0     C16232   0.982   1.367  -0.259  0.0496  0.0260 -0.0704
  121MOL0     C16233   1.010   1.249  -0.317 -0.2217  0.2314 -0.5155
  121MOL0     C16234   1.143   1.201  -0.350 -0.5572  0.3035  0.3732
  121MOL0     C16235   1.250   1.282  -0.314 -0.4593 -0.7530  0.2837
  121MOL0     O16236   1.374   1.233  -0.326  0.0098  0.0235 -0.3490
  121MOL0     C16237   1.466   1.248  -0.215  0.2130 -0.2102 -0.2319
  121MOL0     C16238   1.587   1.167  -0.223  0.1397 -0.6128  0.9253
  121MOL0     C16239   1.672   1.144  -0.101  0.4247 -0.1361  0.1303
  121MOL0     C16240   1.750   1.264  -0.067  0.1326  0.2508  0.2201
  121MOL0     C16241   1.826   1.239   0.066  0.9342 -0.0892 -0.0704
  121MOL0     C16242   1.954   1.152   0.043 -0.1986 -0.0069  0.0590
  121MOL0     C16243   2.061   1.208  -0.054  0.3466  0.5146 -0.9725
  121MOL0     C16244   2.190   1.130  -0.029 -0.5347  0.3059 -0.9313
  121MOL0    Cl16245   2.261   1.190   0.132  0.0860  0.3989  0.0843
  121MOL0     C16246   1.226   1.408  -0.256  0.5267  0.6527  0.5649
  121MOL0     C16247   1.089   1.450  -0.233 -0.1486  0.3271 -0.1674
  121MOL0     O16248   0.816   1.524  -0.421  0.1626 -0.1205  0.1420
  121MOL0     C16249   0.564   1.387  -0.221  0.5820  0.1014 -0.0929
  121MOL0     C16250   0.427   1.375  -0.216 -0.4767  0.1247 -0.2912
  121MOL0     N16251  -0.290   1.078  -0.312  0.6567  0.1615 -0.0135
  121MOL0     N16252  -0.378   1.112  -0.224  0.1430 -0.3170 -0.6940
  121MOL0     C16253   0.071   1.333   0.667 -0.5447  0.4880  0.2272
  121MOL0     C16254   0.199   1.340   0.629  0.3220 -0.4714 -0.1064
  121MOL0     C16255   0.646   1.249   0.637  0.7555  1.5088  0.6999
  121MOL0     C16256   0.744   1.268   0.731  0.8241 -0.0871  0.8180
  121MOL0     C16257   0.864   1.299   0.683 -0.4306  0.4268  0.1356
  121MOL0     C16258   0.907   1.283   0.550 -0.0552  0.0311 -1.2415
  121MOL0     O16259   1.037   1.292   0.545  0.4425  0.4095 -0.5921
  121MOL0     C16260   1.098   1.300   0.411  0.1459 -0.3376  0.2574
  121MOL0     C16261   1.235   1.365   0.434  0.1418  0.2164 -0.1127
  121MOL0     C16262   1.341   1.267   0.451  0.3894 -0.2906  0.5616
  121MOL0     C16263   1.340   1.204   0.587  1.0223  0.1375  0.7589
  121MOL0     C16264   1.466   1.152   0.617 -0.7416  0.3649 -0.9247
  121MOL0     C16265   1.579   1.126   0.650  0.2618  0.7843 -0.0665
  121MOL0     C16266   0.812   1.266   0.454  0.2403 -0.5151  0.5301
  121MOL0     C16267   0.679   1.266   0.500  0.4597 -0.7877 -0.0450
  121MOL0     H16268   0.296   1.024   0.624 -0.3659 -1.0659 -0.2316
  121MOL0     H16269   0.052   1.004   0.699  3.3224 -0.7290  1.2306
  121MOL0     H16270  -0.168   1.008   0.746 -0.4731 -0.6235 -0.5006
  121MOL0     H16271  -0.309   1.113   0.739  0.7748 -0.2705  2.1448
  121MOL0     H16272  -0.136   1.033   0.509  0.8031  1.1855 -2.3189
  121MOL0     H16273  -0.312   0.997   0.545  0.2791 -0.4111 -0.2650
  121MOL0     H16274  -0.355   1.245   0.520 -0.5942 -1.4016  0.0713
  121MOL0     H16275  -0.193   1.277   0.474 -1.4213  0.2304 -0.0007
  121MOL0     H16276  -0.249   1.104   0.274  2.2041  0.0265  2.7280
  121MOL0     H16277  -0.417   1.101   0.350 -0.9710  2.1652  2.1368
  121MOL0     H16278  -0.461   1.327   0.288  0.0898  1.7167  0.2134
  121MOL0     H16279  -0.291   1.362   0.267  0.8281 -0.9716 -0.4201
  121MOL0     H16280  -0.272   1.216   0.069  0.4328  1.8758  0.9005
  121MOL0     H16281  -0.449   1.164   0.085 -1.7000  1.2663  3.7725
  121MOL0     H16282  -0.483   1.429   0.074  1.7665  2.8844  0.2593
  121MOL0     H16283  -0.325   1.427  -0.007 -0.0680  0.8488 -1.1534
  121MOL0     H16284  -0.525   1.399  -0.167 -1.8813 -0.2677  1.2277
  121MOL0     H16285  -0.552   1.247  -0.093 -0.9978  1.1680  0.1727
  121MOL0     H16286  -0.252   1.402  -0.264  1.6268 -0.7217  0.5085
  121MOL0     H16287  -0.068   1.097  -0.450  0.3670 -0.2892 -0.5346
  121MOL0     H16288  -0.154   1.229  -0.535  1.0445 -4.5647 -1.1865
  121MOL0     H16289  -0.031   1.380  -0.388 -0.7281  0.0125 -0.0136
  121MOL0     H16290   0.090   1.278  -0.473 -1.5791  0.1823 -0.8437
  121MOL0     H16291   0.140   1.168  -0.296 -2.2496 -1.8219 -0.1539
  121MOL0     H16292  -0.006   1.192  -0.199  0.6623  0.7485  1.1112
  121MOL0     H16293   0.173   1.325  -0.109 -1.0079 -1.8981  0.2498
  121MOL0     H16294   0.047   1.439  -0.165  0.7269  0.6595 -1.4206
  121MOL0     H16295   0.323   1.626  -0.387 -1.8810 -2.6027 -0.0201
  121MOL0     H16296   0.652   1.744  -0.422 -0.5981 -1.0014  3.6373
  121MOL0     H16297   0.620   1.625  -0.550  0.0281 -0.0393  0.4433
  121MOL0     H16298   0.489   1.735  -0.504  0.2100  1.0881 -0.1429
  121MOL0     H16299   0.922   1.188  -0.333  0.4022 -1.9566  3.1463
  121MOL0     H16300   1.166   1.113  -0.410 -0.5618  0.7846 -0.3441
  121MOL0     H16301   1.496   1.352  -0.196  0.4127 -0.1673 -0.7812
  121MOL0     H16302   1.423   1.210  -0.122  0.3075 -1.8611 -0.8346
  121MOL0     H16303   1.554   1.064  -0.242  0.3136 -0.6218  0.6595
  121MOL0     H16304   1.657   1.208  -0.297  1.0817  0.1460  2.2128
  121MOL0     H16305   1.740   1.060  -0.117 -1.3063 -1.6923  0.5138
  121MOL0     H16306   1.606   1.114  -0.019  1.5352 -0.0780  1.0673
  121MOL0     H16307   1.822   1.288  -0.147 -0.2985 -2.7370 -1.1751
  121MOL0     H16308   1.687   1.354  -0.063  0.3806  0.5861 -1.9276
  121MOL0     H16309   1.754   1.209   0.142 -0.5108 -0.3197 -1.4589
  121MOL0     H16310   1.862   1.337   0.099 -3.3152  1.5428  0.3960
  121MOL0     H16311   1.998   1.137   0.142  0.2420  1.1713  0.0604
  121MOL0     H16312   1.922   1.056   0.001  0.1539 -0.0581 -0.0944
  121MOL0     H16313   2.064   1.314  -0.029 -1.7003  0.3434  0.2193
  121MOL0     H16314   2.037   1.193  -0.160 -1.8421  0.7496 -0.5691
  121MOL0     H16315   2.262   1.154  -0.109 -0.5957  1.6596 -0.5994
  121MOL0     H16316   2.172   1.022  -0.026  2.1151 -0.2265 -1.0545
  121MOL0     H16317   1.302   1.482  -0.232  0.0882  1.0626  0.7121
  121MOL0     H16318   1.075   1.547  -0.188  0.7431  0.6627 -0.5893
  121MOL0     H16319   0.615   1.303  -0.175 -0.8575  0.8360  3.0758
  121MOL0     H16320   0.384   1.291  -0.163 -1.0962  1.1186  0.8607
  121MOL0     H16321   0.015   1.426   0.678  1.0845  1.9287 -2.4465
  121MOL0     H16322   0.240   1.440   0.615  0.6396 -0.4346  1.0412
  121MOL0     H16323   0.702   1.260   0.831 -1.2865 -2.7383 -0.1564
  121MOL0     H16324   0.943   1.326   0.753 -0.6814  0.3709  0.4422
  121MOL0     H16325   1.103   1.204   0.358 -0.6452  0.0081 -0.4662
  121MOL0     H16326   1.043   1.369   0.347  1.6426  0.8640  0.2121
  121MOL0     H16327   1.235   1.442   0.512  3.1500  0.4732 -0.2545
  121MOL0     H16328   1.249   1.413   0.337 -0.8807 -1.8105 -1.3245
  121MOL0     H16329   1.441   1.310   0.449  0.8578 -0.8203  4.3106
  121MOL0     H16330   1.346   1.199   0.366 -1.6615  2.2231 -1.7488
  121MOL0     H16331   1.273   1.118   0.572  2.3316 -0.9204  0.7448
  121MOL0     H16332   1.305   1.265   0.670 -0.5186 -0.1967  0.3920
  121MOL0     H16333   1.682   1.117   0.679 -0.3153  1.1532  2.2666
  121MOL0     H16334   0.831   1.279   0.348 -0.9878 -0.8458  0.2424
  121MOL0     H16335   0.599   1.269   0.427  1.2609 -1.5055 -0.9731
  122MOL0     O16336   4.201  10.167   0.994  0.2550  0.1847 -0.4996
  122MOL0     C16337   4.266  10.127   1.094 -0.5179 -1.0244 -0.3885
  122MOL0     O16338   4.221  10.127   1.224  0.3482 -0.1708  0.3463
  122MOL0     C16339   4.090  10.179   1.235  0.3616 -0.4260  0.0405
  122MOL0     C16340   4.051  10.303   1.186  0.5370  0.7178 -0.0623
  122MOL0     C16341   3.925  10.351   1.203  1.2882 -0.2477  0.2189
  122MOL0     C16342   3.821  10.260   1.253 -0.3183 -0.6304  0.0957
  122MOL0     O16343   3.685  10.291   1.223 -0.6340 -0.5231 -0.3468
  122MOL0     C16344   3.622  10.180   1.164  0.2347  0.2488  0.1708
  122MOL0     C16345   3.479  10.222   1.130 -0.6457 -0.7562 -0.3999
  122MOL0     C16346   3.396  10.244   1.251  0.0560  0.2692 -0.6574
  122MOL0     C16347   3.352  10.114   1.330  0.7494 -1.0605 -0.5345
  122MOL0     C16348   3.297  10.151   1.475 -0.4820 -0.3126 -0.0942
  122MOL0     C16349   3.407  10.148   1.580 -0.3278  0.0571 -0.1031
  122MOL0     C16350   3.357  10.210   1.699  0.2808 -0.1901 -0.5243
  122MOL0     C16351   3.428  10.144   1.820  0.1392 -0.3586 -0.4000
  122MOL0     N16352   3.355  10.024   1.870  0.4294 -0.5716 -0.0885
  122MOL0     C16353   3.276  10.003   1.979 -0.4229 -0.0470  0.2834
  122MOL0     C16354   3.228   9.877   1.965 -0.7020  0.2158  0.3459
  122MOL0     C16355   3.141   9.809   2.069 -0.6286  0.4121  0.2800
  122MOL0     C16356   3.195   9.819   2.209 -0.1890 -0.1288 -0.2605
  122MOL0     C16357   3.098   9.759   2.308  0.0832  0.1965  0.1391
  122MOL0     C16358   2.991   9.858   2.357 -0.4861 -0.5976  0.3543
  122MOL0     O16359   3.062   9.937   2.458 -0.3855  0.4379 -0.0015
  122MOL0     C16360   2.985   9.994   2.555  0.6924 -0.9195 -0.5684
  122MOL0     C16361   2.856  10.046   2.541 -0.3636  0.1001 -0.5263
  122MOL0     C16362   2.790  10.116   2.648  0.5870 -0.1396 -0.1602
  122MOL0     C16363   2.655  10.184   2.612  0.4387  0.8824 -1.1125
  122MOL0     C16364   2.859  10.133   2.779  0.0651 -0.4665  0.0437
  122MOL0     C16365   2.812  10.202   2.898 -0.6080 -0.4233  0.2116
  122MOL0     O16366   2.885  10.186   3.015 -0.1851 -0.5143  1.4087
  122MOL0     C16367   2.850  10.256   3.129 -0.2080  0.9447 -0.3288
  122MOL0     C16368   2.781  10.197   3.230  0.0983 -0.2318 -0.5306
  122MOL0     C16369   2.742  10.267   3.345 -0.5443 -0.5182 -0.6913
  122MOL0     C16370   2.774  10.410   3.358 -0.5603  0.9438  0.0962
  122MOL0     O16371   2.772  10.494   3.470 -0.1545 -0.7376  0.0005
  122MOL0     C16372   2.716  10.434   3.587 -0.3064 -0.0857  0.0437
  122MOL0     C16373   2.724  10.524   3.708  0.3078  0.4908  0.7526
  122MOL0     C16374   2.609  10.629   3.714  0.4286 -0.6186 -0.0617
  122MOL0     C16375   2.613  10.716   3.832 -0.3155 -0.3366 -0.3361
  122MOL0     C16376   2.514  10.832   3.841 -0.6640  0.5092 -0.0698
  122MOL0     C16377   2.539  10.915   3.973 -0.4615 -1.1890  0.5659
  122MOL0     C16378   2.434  11.028   3.982 -0.0423  0.5108  0.1830
  122MOL0     C16379   2.457  11.100   4.120  0.1098 -0.2031  1.2725
  122MOL0    Cl16380   2.357  11.246   4.129  0.4142 -0.0757 -0.1862
  122MOL0     C16381   2.828  10.473   3.250  1.0270 -0.6167  0.6382
  122MOL0     C16382   2.868  10.395   3.138 -0.0209 -0.4993  0.0124
  122MOL0     O16383   2.714  10.274   2.881 -0.6519  0.5339  0.9240
  122MOL0     C16384   2.990  10.071   2.788  0.4498  0.0705  0.1322
  122MOL0     C16385   3.051  10.013   2.679  0.2681 -0.1428 -0.0419
  122MOL0     N16386   3.286   9.824   1.854  0.6925 -0.5520 -0.6081
  122MOL0     N16387   3.369   9.913   1.799  0.3062  0.4715  0.1458
  122MOL0     C16388   3.865  10.134   1.304 -0.1099  0.6210  0.4409
  122MOL0     C16389   3.991  10.094   1.283 -0.7034  0.2806  0.0013
  122MOL0     C16390   4.415  10.102   1.087  0.3661 -0.1297 -0.0451
  122MOL0     C16391   4.496  10.113   0.974 -1.2218 -0.4316 -0.3661
  122MOL0     C16392   4.632  10.100   0.984  0.3229 -1.3598  0.1885
  122MOL0     C16393   4.694  10.102   1.112  0.4304  0.3824  0.2024
  122MOL0     O16394   4.827  10.116   1.118 -0.0228  0.2436 -0.2917
  122MOL0     C16395   4.898  10.208   1.201  0.1493 -1.0688 -0.1107
  122MOL0     C16396   5.042  10.165   1.213 -0.3022 -0.5195  0.7357
  122MOL0     C16397   5.115  10.194   1.086 -0.2807  0.8431 -0.4621
  122MOL0     C16398   5.256  10.122   1.101  1.0812  0.6529  0.2888
  122MOL0     C16399   5.353  10.179   1.008 -0.0730 -0.8343  0.1895
  122MOL0     C16400   5.436  10.227   0.936 -0.4738 -0.2339  0.5007
  122MOL0     C16401   4.617  10.083   1.223  0.0110  0.1655 -0.1440
  122MOL0     C16402   4.482  10.074   1.213  0.3875 -0.3663 -0.2234
  122MOL0     H16403   4.125  10.363   1.133 -0.7441 -0.4029 -3.4377
  122MOL0     H16404   3.902  10.451   1.168 -0.1452  0.2407  2.3811
  122MOL0     H16405   3.671  10.146   1.072  0.0083  0.4836 -0.0413
  122MOL0     H16406   3.614  10.086   1.219  2.4743 -1.0031 -1.4944
  122MOL0     H16407   3.469  10.317   1.077 -3.6895 -0.7022  0.0669
  122MOL0     H16408   3.432  10.142   1.072 -2.1191 -2.6590  3.1076
  122MOL0     H16409   3.450  10.303   1.325  0.9808 -1.1605 -0.1307
  122MOL0     H16410   3.302  10.284   1.213 -1.8656 -2.9470  0.3017
  122MOL0     H16411   3.266  10.066   1.283  0.4386  0.7377 -1.9247
  122MOL0     H16412   3.430  10.038   1.340 -1.1439 -2.8073  2.3947
  122MOL0     H16413   3.243  10.245   1.470  1.9008  1.0930 -1.0851
  122MOL0     H16414   3.223  10.075   1.502 -1.5710  1.0399  0.8590
  122MOL0     H16415   3.433  10.042   1.592 -0.7415 -0.2416 -1.6224
  122MOL0     H16416   3.493  10.204   1.542 -0.3559  0.5679  0.5676
  122MOL0     H16417   3.378  10.317   1.700  0.1820 -0.1431  1.5274
  122MOL0     H16418   3.249  10.198   1.717  0.5162 -1.7950 -0.0054
  122MOL0     H16419   3.430  10.215   1.903  1.6024  0.8593 -1.4300
  122MOL0     H16420   3.529  10.115   1.792  0.7973  1.2998  0.1757
  122MOL0     H16421   3.254  10.074   2.058  4.0986  3.0356 -0.8089
  122MOL0     H16422   3.038   9.840   2.052 -0.3137  1.2113 -0.2036
  122MOL0     H16423   3.152   9.703   2.045  1.2720 -0.0136  2.6674
  122MOL0     H16424   3.214   9.924   2.235  1.5334 -0.7515  1.2012
  122MOL0     H16425   3.291   9.769   2.225 -1.1206 -2.9642 -2.6001
  122MOL0     H16426   3.151   9.715   2.393  2.2171  0.5838 -0.9159
  122MOL0     H16427   3.048   9.671   2.266 -1.4059  1.4665 -0.8415
  122MOL0     H16428   2.916   9.792   2.401 -2.5724 -1.0101 -3.4441
  122MOL0     H16429   2.948   9.916   2.275  1.9603  1.6408  0.4983
  122MOL0     H16430   2.804  10.049   2.447 -0.8469 -3.9253 -0.5768
  122MOL0     H16431   2.601  10.148   2.523  0.6811  3.0016 -2.1784
  122MOL0     H16432   2.588  10.157   2.694 -1.2716  1.3197 -2.2958
  122MOL0     H16433   2.669  10.291   2.591  0.0920  1.2487  0.4209
  122MOL0     H16434   2.768  10.089   3.227  1.7526 -0.5349  1.3740
  122MOL0     H16435   2.702  10.218   3.433  0.0248  0.1539 -0.0391
  122MOL0     H16436   2.614  10.397   3.573  0.4726 -1.0342 -4.9309
  122MOL0     H16437   2.771  10.347   3.625  0.6768  0.2764 -0.5293
  122MOL0     H16438   2.722  10.458   3.795 -0.1275 -0.7570 -0.1734
  122MOL0     H16439   2.821  10.575   3.707  0.8050 -0.4354 -0.2840
  122MOL0     H16440   2.512  10.579   3.700 -0.3881  1.0652 -0.7624
  122MOL0     H16441   2.623  10.694   3.627 -1.3483  1.2430  0.9484
  122MOL0     H16442   2.596  10.657   3.922 -0.0446 -0.1767 -0.1821
  122MOL0     H16443   2.715  10.754   3.841 -0.6096 -0.0081  2.6059
  122MOL0     H16444   2.410  10.800   3.842 -0.8826  1.1906  0.6678
  122MOL0     H16445   2.537  10.892   3.753  0.1742 -0.0240 -0.2281
  122MOL0     H16446   2.531  10.860   4.068 -0.8738 -2.4112 -0.1450
  122MOL0     H16447   2.636  10.962   3.962 -2.2945  3.2664  1.4775
  122MOL0     H16448   2.335  10.983   3.974  0.5313 -0.4183 -3.8013
  122MOL0     H16449   2.448  11.096   3.898 -0.2567 -1.6165 -1.6771
  122MOL0     H16450   2.558  11.140   4.115 -0.4896  1.4180 -4.1838
  122MOL0     H16451   2.441  11.028   4.201 -0.5605 -1.6542 -0.0951
  122MOL0     H16452   2.849  10.579   3.254 -0.6314 -0.1613 -1.0176
  122MOL0     H16453   2.907  10.455   3.056  3.5818  0.4663  2.1854
  122MOL0     H16454   3.043  10.053   2.881  0.0286 -2.2409 -0.0101
  122MOL0     H16455   3.147   9.963   2.689 -0.7379 -1.8508  1.5922
  122MOL0     H16456   3.803  10.065   1.360  0.5546  0.4177  0.9375
  122MOL0     H16457   4.035  10.005   1.327 -2.1793 -0.5004 -0.0415
  122MOL0     H16458   4.438  10.119   0.882 -0.7705 -0.1119 -0.6294
  122MOL0     H16459   4.689  10.099   0.891  1.6771 -1.2387  0.9795
  122MOL0     H16460   4.892  10.309   1.158 -2.3673 -1.8482 -1.8420
  122MOL0     H16461   4.851  10.199   1.299  0.4770  2.1750  0.4563
  122MOL0     H16462   5.046  10.059   1.241  1.6205 -0.1331  2.2079
  122MOL0     H16463   5.093  10.221   1.292 -0.9954 -1.4192  1.8666
  122MOL0     H16464   5.115  10.303   1.078 -0.5881  0.9177  0.4703
  122MOL0     H16465   5.058  10.155   1.001 -0.1438 -0.5093  0.0445
  122MOL0     H16466   5.244  10.016   1.076 -0.2418 -0.0946  3.5301
  122MOL0     H16467   5.290  10.134   1.204 -0.1808  0.0831  0.7969
  122MOL0     H16468   5.507  10.266   0.867 -2.1627  2.3242  0.0645
  122MOL0     H16469   4.658  10.094   1.323 -1.0513  2.3975  0.0993
  122MOL0     H16470   4.435  10.064   1.310  0.4035 -0.6510 -0.2458
  123MOL0     O16471  11.127   2.150   7.321 -0.0242 -0.2876  0.0686
  123MOL0     C16472  11.148   2.253   7.387  0.5085  0.0064  0.3394
  123MOL0     O16473  11.045   2.332   7.446 -0.5215 -0.0049 -0.1311
  123MOL0     C16474  10.921   2.272   7.430  0.1344 -0.2635  0.6356
  123MOL0     C16475  10.841   2.328   7.333  0.1409  0.5287  1.1083
  123MOL0     C16476  10.711   2.275   7.320 -0.5609  1.1795  1.0650
  123MOL0     C16477  10.678   2.170   7.401  1.0242  0.9933 -0.3129
  123MOL0     O16478  10.551   2.105   7.397 -0.1576 -0.1237 -0.8950
  123MOL0     C16479  10.443   2.162   7.335  0.1616  0.0637  0.4262
  123MOL0     C16480  10.317   2.078   7.374 -0.5838 -0.8456  0.3147
  123MOL0     C16481  10.185   2.130   7.305  0.3788  0.3454 -0.1182
  123MOL0     C16482  10.145   2.254   7.379 -0.0500 -0.0438 -0.3336
  123MOL0     C16483   9.999   2.277   7.356  0.1407  0.3660 -0.3931
  123MOL0     C16484   9.943   2.291   7.216 -0.5696  0.3803 -0.5336
  123MOL0     C16485   9.789   2.302   7.209 -0.6366 -0.3236  0.2543
  123MOL0     C16486   9.734   2.444   7.265 -0.7670 -0.5724  0.9145
  123MOL0     N16487   9.777   2.561   7.187  0.0132  0.4987 -0.2181
  123MOL0     C16488   9.848   2.664   7.235 -0.3684  0.0067 -0.1122
  123MOL0     C16489   9.867   2.745   7.131 -0.3292 -0.4018  0.2128
  123MOL0     C16490   9.966   2.862   7.144  1.2127  0.2546  0.4248
  123MOL0     C16491  10.086   2.843   7.053  0.1243  0.2950 -0.0907
  123MOL0     C16492  10.150   2.702   7.063  0.9581 -0.9464 -0.3079
  123MOL0     C16493  10.268   2.690   6.957  0.1980 -0.8419 -0.5875
  123MOL0     O16494  10.228   2.744   6.826 -0.6931  0.2498  0.1513
  123MOL0     C16495  10.323   2.793   6.747 -0.1765 -0.2912  0.0060
  123MOL0     C16496  10.282   2.872   6.636  0.1294  0.0127 -0.9476
  123MOL0     C16497  10.374   2.931   6.546  0.3706  0.0694  0.8080
  123MOL0     C16498  10.329   3.030   6.433  0.8117  0.2520  0.0603
  123MOL0     C16499  10.519   2.906   6.567  0.2788 -0.5425  0.7166
  123MOL0     C16500  10.636   2.968   6.490  0.0278 -0.5964  0.2476
  123MOL0     O16501  10.762   2.941   6.537  0.3998 -0.0863 -0.0791
  123MOL0     C16502  10.866   3.015   6.496  0.3612  0.7876  0.3900
  123MOL0     C16503  10.888   3.144   6.543  0.1155 -0.2513  0.5627
  123MOL0     C16504  11.002   3.211   6.501 -0.5198  0.0065 -0.4144
  123MOL0     C16505  11.087   3.156   6.406  0.1274  0.2657 -0.2661
  123MOL0     O16506  11.188   3.220   6.343  0.2460 -0.0772  0.4541
  123MOL0     C16507  11.168   3.349   6.287  0.0680 -0.4603  0.0557
  123MOL0     C16508  11.270   3.460   6.326 -0.3426  0.5305  0.9890
  123MOL0     C16509  11.221   3.538   6.441  0.5646  0.3991 -1.0097
  123MOL0     C16510  11.266   3.468   6.580  0.1168  0.0674 -0.7325
  123MOL0     C16511  11.234   3.554   6.704 -0.2148  0.7629  0.7508
  123MOL0     C16512  11.266   3.482   6.840 -0.9325 -0.0497  0.2301
  123MOL0     C16513  11.398   3.392   6.840 -0.0116  0.5274  0.5760
  123MOL0     C16514  11.532   3.455   6.800  0.7478 -0.9674 -0.4968
  123MOL0    Cl16515  11.639   3.343   6.720 -0.1506  0.1295 -0.2458
  123MOL0     C16516  11.077   3.021   6.386 -1.3042  1.0740 -0.6017
  123MOL0     C16517  10.959   2.955   6.414  0.2022  0.5347  0.1251
  123MOL0     O16518  10.616   3.050   6.410  0.2184 -0.0138 -0.1015
  123MOL0     C16519  10.557   2.836   6.673  0.5894  0.9013 -0.5205
  123MOL0     C16520  10.463   2.771   6.762 -0.5475  0.3872 -0.4682
  123MOL0     N16521   9.805   2.692   7.021  0.5222  0.4414 -0.0572
  123MOL0     N16522   9.729   2.592   7.062 -0.9999  0.5468  0.0714
  123MOL0     C16523  10.761   2.121   7.498 -0.4261  0.5576 -0.4713
  123MOL0     C16524  10.882   2.180   7.522 -0.5868  0.5553  0.7019
  123MOL0     C16525  11.292   2.287   7.406  0.2040  1.0410  0.1606
  123MOL0     C16526  11.338   2.421   7.426  0.3456  0.1393 -0.0812
  123MOL0     C16527  11.471   2.456   7.433  0.7162 -0.8060  0.1615
  123MOL0     C16528  11.573   2.360   7.426  0.4132 -0.4150  0.9931
  123MOL0     O16529  11.706   2.408   7.433 -0.4869 -0.1876 -0.0798
  123MOL0     C16530  11.809   2.319   7.384 -0.3303  0.0830  0.7578
  123MOL0     C16531  11.947   2.369   7.409 -0.3796  0.1590  0.4124
  123MOL0     C16532  11.992   2.416   7.544  0.3128  0.3164  0.2256
  123MOL0     C16533  12.040   2.302   7.633 -0.2773 -0.5429  0.1944
  123MOL0     C16534  12.115   2.335   7.754  0.1873  0.3525 -0.5961
  123MOL0     C16535  12.196   2.358   7.846  0.2403 -0.0703  0.6926
  123MOL0     C16536  11.526   2.223   7.415 -0.6980 -0.0770 -0.0740
  123MOL0     C16537  11.391   2.188   7.403 -0.0987 -0.1220 -0.2997
  123MOL0     H16538  10.890   2.406   7.276 -0.9285 -0.8400 -1.8720
  123MOL0     H16539  10.632   2.323   7.263 -1.1588  0.0411  0.9045
  123MOL0     H16540  10.418   2.263   7.369 -1.1742 -0.4190  0.9687
  123MOL0     H16541  10.452   2.167   7.226 -3.7199 -1.6108 -0.1250
  123MOL0     H16542  10.328   1.975   7.337 -2.5060 -0.2379 -2.3001
  123MOL0     H16543  10.309   2.079   7.483 -0.9828  1.1809  0.2919
  123MOL0     H16544  10.201   2.156   7.200 -0.3367 -0.0381 -0.3315
  123MOL0     H16545  10.114   2.047   7.306  1.8282 -0.9442  0.5495
  123MOL0     H16546  10.169   2.228   7.483  4.2722 -0.9119 -1.3253
  123MOL0     H16547  10.205   2.338   7.343 -0.5602 -0.1482 -1.4733
  123MOL0     H16548   9.940   2.198   7.403  0.7537  1.6176  2.6901
  123MOL0     H16549   9.986   2.373   7.407  0.8476  1.2738 -1.8558
  123MOL0     H16550   9.988   2.382   7.173  1.3918  1.8833  4.0949
  123MOL0     H16551   9.965   2.199   7.162 -1.9298  0.7559 -1.8024
  123MOL0     H16552   9.752   2.309   7.106 -0.0112 -1.7587 -0.0901
  123MOL0     H16553   9.749   2.210   7.252 -0.5818 -0.3999  0.1420
  123MOL0     H16554   9.769   2.455   7.368 -3.2487  2.5696  1.5687
  123MOL0     H16555   9.626   2.454   7.275 -0.4059  1.8150  3.9656
  123MOL0     H16556   9.898   2.686   7.329  0.1221 -3.3381  0.5497
  123MOL0     H16557   9.914   2.951   7.106 -1.1224 -1.2444 -0.1625
  123MOL0     H16558   9.997   2.870   7.248  2.0509 -2.5495  0.4610
  123MOL0     H16559  10.152   2.928   7.072  0.4986  0.3732 -1.6426
  123MOL0     H16560  10.043   2.857   6.953 -0.1756  0.5872  0.0797
  123MOL0     H16561  10.074   2.626   7.043 -1.2027  1.2162 -0.9621
  123MOL0     H16562  10.183   2.679   7.164 -0.1453 -0.0633  0.2814
  123MOL0     H16563  10.300   2.586   6.944  0.5351 -1.0468  1.4681
  123MOL0     H16564  10.352   2.746   7.001  1.8784 -0.5875 -3.7848
  123MOL0     H16565  10.176   2.896   6.633 -0.2447 -0.6785  2.5650
  123MOL0     H16566  10.356   2.985   6.337 -0.3891 -1.0038  0.2760
  123MOL0     H16567  10.220   3.046   6.434  0.7945  0.1833 -0.3541
  123MOL0     H16568  10.381   3.126   6.442 -0.1519  0.9274 -1.0536
  123MOL0     H16569  10.802   3.188   6.593 -1.2126  1.3101 -2.7635
  123MOL0     H16570  11.027   3.314   6.525 -2.3953  0.1122  1.4017
  123MOL0     H16571  11.191   3.329   6.182  1.9855  0.0607  0.3225
  123MOL0     H16572  11.067   3.391   6.288  0.0079 -0.5647  1.8049
  123MOL0     H16573  11.366   3.411   6.342 -2.2765 -3.9497  0.3709
  123MOL0     H16574  11.284   3.529   6.243  1.0147  0.0615  0.8154
  123MOL0     H16575  11.112   3.545   6.435  0.7054  2.4262 -1.9695
  123MOL0     H16576  11.249   3.644   6.445 -0.6835  0.7210  0.6532
  123MOL0     H16577  11.214   3.372   6.587 -0.7216  0.0898 -4.4968
  123MOL0     H16578  11.372   3.443   6.568  0.2579 -0.3614  1.1927
  123MOL0     H16579  11.130   3.587   6.708 -0.3437  0.2713  1.4791
  123MOL0     H16580  11.303   3.639   6.700  1.5173 -0.6256 -1.0632
  123MOL0     H16581  11.262   3.558   6.919  3.0526 -0.5303  1.0829
  123MOL0     H16582  11.186   3.409   6.856  1.4624 -2.9114 -0.1497
  123MOL0     H16583  11.389   3.309   6.769 -0.0561 -0.7763  2.0423
  123MOL0     H16584  11.404   3.350   6.941 -1.4946  1.3496  1.0387
  123MOL0     H16585  11.581   3.499   6.888 -3.0635  2.4612  0.2153
  123MOL0     H16586  11.509   3.544   6.741 -0.8624 -0.6074  0.6131
  123MOL0     H16587  11.164   2.968   6.347  1.1649  3.7305  0.8452
  123MOL0     H16588  10.954   2.848   6.392  0.7197  0.9341 -2.2025
  123MOL0     H16589  10.661   2.825   6.705  0.3154  3.8817  1.8208
  123MOL0     H16590  10.507   2.718   6.845  0.0299  5.1585  2.6759
  123MOL0     H16591  10.740   2.048   7.575 -2.2675  1.4754 -0.0462
  123MOL0     H16592  10.950   2.147   7.600  0.3288 -0.4293 -0.4703
  123MOL0     H16593  11.274   2.509   7.437  1.2382  0.6485  1.3299
  123MOL0     H16594  11.500   2.560   7.424  0.1115 -0.6771 -0.3635
  123MOL0     H16595  11.804   2.223   7.437 -0.7541 -0.0327  0.5127
  123MOL0     H16596  11.798   2.299   7.277 -2.7931 -3.4880  1.4786
  123MOL0     H16597  11.962   2.456   7.344  0.1269 -0.3506 -0.1602
  123MOL0     H16598  12.020   2.299   7.367 -1.6969 -0.3695 -1.0608
  123MOL0     H16599  11.909   2.468   7.592  0.8569  0.5858  0.8858
  123MOL0     H16600  12.070   2.493   7.540 -1.0862  1.7580 -0.1950
  123MOL0     H16601  12.116   2.242   7.582 -1.6425 -1.9548 -0.2654
  123MOL0     H16602  11.956   2.235   7.650 -0.5947 -0.9932 -2.5814
  123MOL0     H16603  12.275   2.378   7.915  2.1041  1.5410 -1.7733
  123MOL0     H16604  11.599   2.145   7.398 -0.3659  0.4932 -1.3738
  123MOL0     H16605  11.363   2.083   7.392 -5.1296  1.0807 -1.8102
  124MOL0     O16606   6.325   7.712   9.089  0.4507 -0.0235 -0.6669
  124MOL0     C16607   6.334   7.824   9.146  0.3868  0.2162  0.4951
  124MOL0     O16608   6.227   7.896   9.194 -0.2677  0.5856  0.7955
  124MOL0     C16609   6.098   7.852   9.188  0.7785 -0.4812  0.0983
  124MOL0     C16610   6.022   7.890   9.293  0.6111 -0.2620  0.5412
  124MOL0     C16611   5.880   7.880   9.278  0.6935 -0.6745  0.3707
  124MOL0     C16612   5.820   7.821   9.173  0.6917  0.5731  0.1233
  124MOL0     O16613   5.685   7.793   9.186 -0.5819  0.1609 -0.5247
  124MOL0     C16614   5.612   7.737   9.075  0.1635  0.0429  0.0948
  124MOL0     C16615   5.464   7.767   9.081  0.1844 -0.2111  0.1231
  124MOL0     C16616   5.405   7.708   9.210 -0.9741  0.3083  1.4344
  124MOL0     C16617   5.312   7.798   9.282  0.2697 -0.1188 -0.2149
  124MOL0     C16618   5.180   7.824   9.207 -0.1969 -1.2902 -0.1062
  124MOL0     C16619   5.081   7.900   9.292 -0.1749  0.5853 -0.6789
  124MOL0     C16620   5.065   7.857   9.438 -0.7473  0.2987  0.6242
  124MOL0     C16621   4.949   7.920   9.500  0.0854  0.5158  0.2347
  124MOL0     N16622   4.822   7.861   9.462 -0.2329  0.3157 -0.8690
  124MOL0     C16623   4.793   7.726   9.485 -1.4084 -0.9878 -0.1364
  124MOL0     C16624   4.663   7.725   9.486  0.5892 -0.4777  0.1287
  124MOL0     C16625   4.561   7.621   9.510 -0.4575  0.3232 -0.0457
  124MOL0     C16626   4.580   7.574   9.656  1.6570  0.9744  0.3514
  124MOL0     C16627   4.495   7.452   9.672 -0.9814 -0.4854 -0.7511
  124MOL0     C16628   4.513   7.378   9.804  0.0272  0.9738  0.7800
  124MOL0     O16629   4.436   7.260   9.775  0.4753  0.3177  0.5294
  124MOL0     C16630   4.296   7.264   9.786  0.2114  0.2722  0.2019
  124MOL0     C16631   4.218   7.183   9.701  1.0128  0.0628 -0.6401
  124MOL0     C16632   4.071   7.200   9.691  0.0312  0.4409  0.5173
  124MOL0     C16633   4.010   7.107   9.588  0.1046 -0.3010 -0.4760
  124MOL0     C16634   4.006   7.289   9.771  0.1240 -0.5144 -0.3643
  124MOL0     C16635   3.865   7.320   9.764  0.1700  0.1188  0.4779
  124MOL0     O16636   3.783   7.212   9.744  0.7909  0.3750  0.5576
  124MOL0     C16637   3.649   7.214   9.735  0.3629 -0.3293  0.3164
  124MOL0     C16638   3.560   7.325   9.720  0.4981 -0.0105  0.8877
  124MOL0     C16639   3.425   7.300   9.707  0.3447 -0.3495  0.5960
  124MOL0     C16640   3.376   7.182   9.674  0.6389 -0.2390 -0.1313
  124MOL0     O16641   3.240   7.154   9.660 -0.0524  0.2329 -0.1450
  124MOL0     C16642   3.142   7.258   9.693 -0.5729  0.3019  0.4221
  124MOL0     C16643   3.005   7.187   9.709  0.5415 -0.0091 -0.0299
  124MOL0     C16644   2.962   7.142   9.575 -0.2754 -0.0045  0.7513
  124MOL0     C16645   2.832   7.219   9.537 -0.0874  0.5222  0.3120
  124MOL0     C16646   2.822   7.216   9.380  0.4467 -0.0653 -0.7381
  124MOL0     C16647   2.684   7.246   9.333  0.4260  0.2519  0.0249
  124MOL0     C16648   2.608   7.358   9.395 -1.1676 -0.2317  0.1782
  124MOL0     C16649   2.530   7.324   9.526  0.1216 -1.1364  0.3519
  124MOL0    Cl16650   2.436   7.465   9.568 -0.0163 -0.0696  0.4941
  124MOL0     C16651   3.458   7.074   9.681 -0.5187  0.6432  0.2429
  124MOL0     C16652   3.595   7.086   9.719  0.3984  0.1306  0.2443
  124MOL0     O16653   3.825   7.440   9.778 -0.6726 -0.5194  0.4854
  124MOL0     C16654   4.089   7.366   9.856  0.2294 -0.0793 -0.4592
  124MOL0     C16655   4.226   7.361   9.864  0.5437  0.6095  0.1317
  124MOL0     N16656   4.615   7.850   9.448  0.0365 -0.3073 -0.4359
  124MOL0     N16657   4.711   7.934   9.435  0.3082 -0.1680 -0.1776
  124MOL0     C16658   5.906   7.781   9.069  0.3752  0.2389  0.5317
  124MOL0     C16659   6.043   7.798   9.081  0.7412 -0.6321  0.5520
  124MOL0     C16660   6.473   7.899   9.154  0.0539  0.1342  0.3481
  124MOL0     C16661   6.584   7.859   9.083  0.2256 -0.0286  1.4744
  124MOL0     C16662   6.697   7.936   9.087 -0.6713 -0.6019  0.4381
  124MOL0     C16663   6.700   8.060   9.157  0.7252  0.2877 -0.2431
  124MOL0     O16664   6.811   8.139   9.159 -0.9011  0.0308  0.2698
  124MOL0     C16665   6.917   8.090   9.242 -0.3009 -0.3110  0.6595
  124MOL0     C16666   6.904   8.158   9.382 -1.1877  1.0981 -0.1443
  124MOL0     C16667   6.958   8.293   9.365  0.0644 -0.0044 -0.5757
  124MOL0     C16668   6.983   8.364   9.498 -0.4103 -0.5070  0.5834
  124MOL0     C16669   6.961   8.508   9.498  0.0617 -0.2814 -0.7029
  124MOL0     C16670   6.929   8.630   9.507  0.0901 -0.5524  0.5408
  124MOL0     C16671   6.596   8.102   9.235  0.6040 -1.2969  0.6612
  124MOL0     C16672   6.483   8.016   9.230  0.2987 -0.1204  0.0071
  124MOL0     H16673   6.052   7.928   9.390 -2.5550 -1.7699  2.2773
  124MOL0     H16674   5.815   7.910   9.360  0.4729  0.0489 -0.0587
  124MOL0     H16675   5.645   7.791   8.986  0.5348 -2.0025 -1.0927
  124MOL0     H16676   5.632   7.629   9.072  1.7714  0.2002  2.2995
  124MOL0     H16677   5.449   7.876   9.084  1.4781  0.0685 -1.8780
  124MOL0     H16678   5.411   7.726   8.995 -0.0239 -0.0291  0.1636
  124MOL0     H16679   5.366   7.607   9.190 -1.3999  0.6465  0.5218
  124MOL0     H16680   5.489   7.697   9.279  0.1473 -2.9110 -0.2104
  124MOL0     H16681   5.294   7.754   9.380 -0.9179  0.6412 -0.0693
  124MOL0     H16682   5.347   7.901   9.296 -0.0109  0.2341 -1.9620
  124MOL0     H16683   5.191   7.878   9.112 -0.8063  1.6386  1.3683
  124MOL0     H16684   5.134   7.730   9.178 -0.2964 -0.6340 -2.2503
  124MOL0     H16685   5.124   8.001   9.282  4.8417 -1.2685 -0.9665
  124MOL0     H16686   4.985   7.900   9.241  0.0185  0.3202 -1.0481
  124MOL0     H16687   5.058   7.748   9.441 -1.4975  0.3354  0.3398
  124MOL0     H16688   5.158   7.871   9.495  0.6011 -3.3180 -0.4672
  124MOL0     H16689   4.950   8.029   9.485  2.0788  0.6416  0.9271
  124MOL0     H16690   4.958   7.897   9.607 -0.4408 -1.4489 -0.1172
  124MOL0     H16691   4.858   7.644   9.512  1.4940  0.6079 -1.8191
  124MOL0     H16692   4.464   7.668   9.491 -0.2132  0.6673 -0.4618
  124MOL0     H16693   4.580   7.543   9.436 -1.5111 -0.7517  0.7756
  124MOL0     H16694   4.551   7.659   9.719 -1.3784  1.3095 -1.3164
  124MOL0     H16695   4.680   7.540   9.685  0.8690 -0.2409  1.7880
  124MOL0     H16696   4.526   7.384   9.592 -1.2081  0.3780 -1.5938
  124MOL0     H16697   4.388   7.473   9.666 -1.0200  0.6295  2.1080
  124MOL0     H16698   4.490   7.424   9.900 -1.3699 -0.9016  1.3909
  124MOL0     H16699   4.617   7.348   9.822  0.0863  2.2563  2.9249
  124MOL0     H16700   4.265   7.100   9.649 -1.1308 -1.2188 -0.6462
  124MOL0     H16701   4.089   7.052   9.536  0.3186  1.4033 -2.0460
  124MOL0     H16702   3.933   7.037   9.622 -0.8515  0.0634 -1.8240
  124MOL0     H16703   3.978   7.171   9.506  0.3999  1.2275  0.5691
  124MOL0     H16704   3.603   7.425   9.725 -0.5268  0.5298 -0.5060
  124MOL0     H16705   3.364   7.389   9.712  3.3759  2.1576 -2.0105
  124MOL0     H16706   3.161   7.313   9.786 -0.3510 -2.2324  1.9786
  124MOL0     H16707   3.142   7.337   9.617  0.4171 -2.0556 -2.2280
  124MOL0     H16708   3.016   7.093   9.765 -0.8329 -0.7330 -0.9204
  124MOL0     H16709   2.929   7.252   9.753 -1.2599 -1.4803 -0.8441
  124MOL0     H16710   2.942   7.035   9.574  1.6984 -0.4157 -0.0776
  124MOL0     H16711   3.038   7.162   9.498 -2.4183 -0.9601 -1.7821
  124MOL0     H16712   2.749   7.161   9.579 -0.9417  1.6120  0.1694
  124MOL0     H16713   2.832   7.320   9.580  0.8839 -0.5191  3.0213
  124MOL0     H16714   2.860   7.117   9.353  0.3171 -0.5332  0.7217
  124MOL0     H16715   2.885   7.296   9.339  0.2664  0.5071  0.0705
  124MOL0     H16716   2.688   7.263   9.225 -1.5174 -0.1471 -0.1481
  124MOL0     H16717   2.616   7.161   9.339  0.7184 -0.2965 -2.8487
  124MOL0     H16718   2.552   7.415   9.321  0.5432  1.7173  0.2700
  124MOL0     H16719   2.688   7.429   9.420 -0.3017 -0.3671 -1.9720
  124MOL0     H16720   2.588   7.293   9.613 -0.6630  0.0468  1.3304
  124MOL0     H16721   2.459   7.244   9.503  0.7728 -1.0020 -2.5702
  124MOL0     H16722   3.435   6.970   9.661  2.9259 -0.5730  1.7125
  124MOL0     H16723   3.650   6.992   9.723 -1.3767 -1.0266 -0.7578
  124MOL0     H16724   4.039   7.442   9.915  2.4674 -0.9964  2.8969
  124MOL0     H16725   4.288   7.427   9.923  1.4306  1.4586 -1.6567
  124MOL0     H16726   5.880   7.721   8.982  2.4506 -0.6459  0.4424
  124MOL0     H16727   6.102   7.783   8.991  1.1919 -3.8969  1.2843
  124MOL0     H16728   6.590   7.765   9.029  1.9204  1.6671 -1.5872
  124MOL0     H16729   6.790   7.905   9.040  0.6574  1.6084  1.4627
  124MOL0     H16730   6.920   7.980   9.247  1.3002 -0.4461 -1.7395
  124MOL0     H16731   7.013   8.110   9.193  0.3414  1.6859  2.5850
  124MOL0     H16732   6.967   8.109   9.457 -2.4585  1.5170  1.2300
  124MOL0     H16733   6.802   8.141   9.419 -1.2264  0.0087 -0.6916
  124MOL0     H16734   6.892   8.363   9.313  1.9081  3.0319  0.8614
  124MOL0     H16735   7.055   8.291   9.316 -0.1447 -0.8713 -0.9685
  124MOL0     H16736   7.090   8.360   9.521 -0.5836  3.8874  3.2105
  124MOL0     H16737   6.918   8.314   9.571 -0.4336  1.3198  1.8771
  124MOL0     H16738   6.920   8.737   9.500  0.9979 -0.5430 -0.8516
  124MOL0     H16739   6.594   8.197   9.288 -0.4401 -0.9023 -0.0460
  124MOL0     H16740   6.393   8.043   9.284 -0.6011 -0.9735 -1.0187
  125MOL0     O16741   4.350   2.846   1.699  0.0836  0.0672 -0.0782
  125MOL0     C16742   4.394   2.926   1.778  0.7201  0.3561 -0.2668
  125MOL0     O16743   4.318   3.029   1.832  0.5545  0.0098 -0.4869
  125MOL0     C16744   4.182   3.038   1.812 -0.0320 -0.1567  0.5380
  125MOL0     C16745   4.127   3.139   1.726  0.2020 -0.3390 -0.2431
  125MOL0     C16746   3.994   3.146   1.702  0.3166 -0.3994 -0.6110
  125MOL0     C16747   3.906   3.044   1.752  0.3888  0.7015  0.3385
  125MOL0     O16748   3.772   3.051   1.720  0.4424 -0.3777  0.0439
  125MOL0     C16749   3.704   2.921   1.726  0.7189  0.0817  0.1495
  125MOL0     C16750   3.580   2.919   1.642  0.4098  0.0854  0.6077
  125MOL0     C16751   3.595   2.997   1.508 -0.3004 -0.5597  0.4609
  125MOL0     C16752   3.468   2.982   1.420 -0.0168  0.1537 -0.6388
  125MOL0     C16753   3.399   3.113   1.391  0.2446  0.0804  0.3286
  125MOL0     C16754   3.279   3.086   1.307  0.6371  0.4913 -0.7025
  125MOL0     C16755   3.204   3.208   1.248 -1.1772 -0.0048  0.2138
  125MOL0     C16756   3.262   3.253   1.115 -0.3915 -0.5908  0.0722
  125MOL0     N16757   3.241   3.396   1.097  0.5184 -0.1107  0.6243
  125MOL0     C16758   3.324   3.494   1.134 -0.1348 -0.0351  0.0638
  125MOL0     C16759   3.265   3.611   1.110  0.5134  0.0319  0.8614
  125MOL0     C16760   3.295   3.754   1.123 -1.2122 -1.4464 -0.0734
  125MOL0     C16761   3.389   3.802   1.010  0.0497  0.3779  1.0490
  125MOL0     C16762   3.328   3.798   0.875 -0.2745 -0.6478  0.0466
  125MOL0     C16763   3.185   3.839   0.853  1.1303 -0.6884 -0.0950
  125MOL0     O16764   3.165   3.978   0.902 -0.1935  0.2490  0.3683
  125MOL0     C16765   3.159   4.082   0.811 -1.0115 -0.3383 -0.2999
  125MOL0     C16766   3.270   4.126   0.730 -1.4559 -0.4951  0.7826
  125MOL0     C16767   3.260   4.226   0.638  0.1507  0.2779  0.3517
  125MOL0     C16768   3.387   4.270   0.565 -0.0900  0.1727 -0.0824
  125MOL0     C16769   3.122   4.276   0.608 -0.7311 -0.4126 -0.7500
  125MOL0     C16770   3.091   4.370   0.499 -0.4332 -1.0275  0.2821
  125MOL0     O16771   2.959   4.386   0.465 -0.1695 -0.8887  0.8414
  125MOL0     C16772   2.931   4.462   0.359 -0.8305  0.5482  0.0425
  125MOL0     C16773   2.851   4.581   0.372 -0.2022 -0.5934  0.0406
  125MOL0     C16774   2.825   4.651   0.252 -0.0784 -0.7177  0.9021
  125MOL0     C16775   2.871   4.602   0.123  0.4079 -0.2088  0.3644
  125MOL0     O16776   2.836   4.675   0.010 -0.2442 -0.0739 -0.7611
  125MOL0     C16777   2.842   4.618  -0.120 -0.2259 -0.2240 -0.1166
  125MOL0     C16778   2.756   4.713  -0.209  0.0354  0.9728  0.6762
  125MOL0     C16779   2.834   4.851  -0.222 -0.4581 -0.5157 -0.4915
  125MOL0     C16780   2.916   4.883  -0.345 -0.8729  0.6217 -0.2866
  125MOL0     C16781   2.973   5.025  -0.348 -0.0854 -0.1060 -0.6823
  125MOL0     C16782   2.874   5.135  -0.321 -0.0028  0.0298 -0.8991
  125MOL0     C16783   2.940   5.281  -0.327  0.2677  0.0112  0.1124
  125MOL0     C16784   2.842   5.391  -0.280 -0.1227  0.3514 -1.4283
  125MOL0    Cl16785   2.705   5.422  -0.393 -0.4628 -0.2054  0.0417
  125MOL0     C16786   2.926   4.468   0.118  0.3048 -0.0320  0.1792
  125MOL0     C16787   2.954   4.402   0.237  0.0361  0.5586  0.5950
  125MOL0     O16788   3.183   4.437   0.440  0.1299  0.2320  0.0176
  125MOL0     C16789   3.012   4.230   0.682  0.4670 -0.2286  0.1459
  125MOL0     C16790   3.030   4.137   0.784  0.3384 -0.2416  0.3172
  125MOL0     N16791   3.146   3.584   1.052 -0.1374  0.7367  0.2374
  125MOL0     N16792   3.129   3.449   1.048 -0.0556  0.7448 -0.0833
  125MOL0     C16793   3.967   2.938   1.833 -0.2122 -0.0261  0.6353
  125MOL0     C16794   4.104   2.943   1.864 -0.2153  0.3874  0.2791
  125MOL0     C16795   4.539   2.914   1.819  0.0669  0.5743 -0.0013
  125MOL0     C16796   4.634   2.822   1.770  0.8604  0.8279 -0.2672
  125MOL0     C16797   4.763   2.805   1.830 -0.6087 -1.2326 -0.1055
  125MOL0     C16798   4.806   2.898   1.928 -0.6431 -0.5521  0.7690
  125MOL0     O16799   4.934   2.867   1.961 -0.0093  0.7121 -0.6178
  125MOL0     C16800   4.997   2.961   2.053  0.1754 -0.0950  0.2804
  125MOL0     C16801   5.141   2.921   2.063 -0.4558  0.3306  0.1942
  125MOL0     C16802   5.238   2.995   1.976 -0.1446 -1.3736 -0.6078
  125MOL0     C16803   5.386   2.960   2.000  0.3569 -0.0367 -0.6395
  125MOL0     C16804   5.449   2.987   2.131  0.1440 -0.3336 -0.7253
  125MOL0     C16805   5.492   3.007   2.244 -0.3317  0.1382  0.1309
  125MOL0     C16806   4.714   2.993   1.970 -0.1617  0.6609 -0.7062
  125MOL0     C16807   4.579   2.998   1.926  0.3437  0.7495  0.0579
  125MOL0     H16808   4.193   3.214   1.683 -1.1815  2.2813  1.9221
  125MOL0     H16809   3.950   3.218   1.633 -3.1648 -3.0367 -1.4597
  125MOL0     H16810   3.767   2.841   1.685  0.0674 -1.2489  1.6057
  125MOL0     H16811   3.664   2.896   1.825 -2.9666 -1.0260 -1.4019
  125MOL0     H16812   3.560   2.818   1.603 -0.4707  0.4723  0.0182
  125MOL0     H16813   3.486   2.952   1.686 -0.0478 -1.1640  0.6116
  125MOL0     H16814   3.614   3.103   1.532  0.8603 -0.3175 -1.3704
  125MOL0     H16815   3.681   2.949   1.461  0.9772 -1.0179  3.0843
  125MOL0     H16816   3.504   2.933   1.330  1.1392  2.4006 -1.4987
  125MOL0     H16817   3.402   2.911   1.470 -0.6591  0.2014 -1.4087
  125MOL0     H16818   3.365   3.152   1.488 -0.9294  0.6358 -0.2914
  125MOL0     H16819   3.476   3.179   1.350  0.5519  0.1333  0.9674
  125MOL0     H16820   3.318   3.015   1.233  0.7133 -0.5574  0.3065
  125MOL0     H16821   3.205   3.030   1.366  0.5548 -1.8636 -2.8672
  125MOL0     H16822   3.096   3.196   1.237 -1.0192 -0.9020 -0.4720
  125MOL0     H16823   3.223   3.283   1.326  2.8365 -0.8852  0.2952
  125MOL0     H16824   3.213   3.184   1.044 -1.7347 -1.9934  2.2350
  125MOL0     H16825   3.369   3.232   1.115 -0.1818  0.3572  1.5647
  125MOL0     H16826   3.418   3.476   1.185  0.2893  1.3275 -0.2015
  125MOL0     H16827   3.209   3.821   1.135 -0.1795  0.5950 -2.8535
  125MOL0     H16828   3.354   3.771   1.213 -1.6933 -1.0137  0.1649
  125MOL0     H16829   3.474   3.734   1.009 -0.5125 -0.4391 -2.1931
  125MOL0     H16830   3.437   3.900   1.022  0.4561  0.3618 -0.3329
  125MOL0     H16831   3.339   3.694   0.842  1.8799 -0.9549  1.5495
  125MOL0     H16832   3.391   3.860   0.810  0.7378 -0.8886  0.7773
  125MOL0     H16833   3.114   3.767   0.894 -0.3347  0.0430 -1.2259
  125MOL0     H16834   3.163   3.828   0.746  0.2986  1.3590 -0.1784
  125MOL0     H16835   3.358   4.063   0.729 -0.7027  0.3226 -3.7463
  125MOL0     H16836   3.414   4.373   0.591  1.9007 -0.5639  1.0411
  125MOL0     H16837   3.476   4.218   0.602 -0.3580  0.1888  0.6016
  125MOL0     H16838   3.367   4.255   0.459 -2.7270  0.2026  0.3388
  125MOL0     H16839   2.818   4.633   0.462 -1.1471  0.8303 -1.0912
  125MOL0     H16840   2.764   4.740   0.247 -0.5257 -1.0844 -2.5137
  125MOL0     H16841   2.941   4.588  -0.157 -0.9841 -2.6585 -0.3260
  125MOL0     H16842   2.786   4.524  -0.118 -0.4251 -0.1224 -0.5918
  125MOL0     H16843   2.752   4.668  -0.309  0.5381 -0.3551  1.2385
  125MOL0     H16844   2.656   4.716  -0.166 -0.4360 -1.0537 -0.1796
  125MOL0     H16845   2.899   4.866  -0.135  1.1141  3.5013 -2.0959
  125MOL0     H16846   2.751   4.922  -0.227 -1.9384 -1.9299  2.0368
  125MOL0     H16847   3.000   4.816  -0.362 -1.0972  0.4099 -0.5650
  125MOL0     H16848   2.849   4.867  -0.430  1.2374 -0.8120 -1.7728
  125MOL0     H16849   3.028   5.043  -0.441 -1.6510 -3.0950 -2.3236
  125MOL0     H16850   3.050   5.019  -0.270  0.9208 -2.4244 -1.7419
  125MOL0     H16851   2.795   5.121  -0.395 -1.7065 -0.7370  0.9805
  125MOL0     H16852   2.845   5.132  -0.216  1.4454 -0.1185 -0.4844
  125MOL0     H16853   2.969   5.288  -0.432 -2.4676 -1.3559 -0.8382
  125MOL0     H16854   3.026   5.286  -0.261 -1.3489  4.1576  2.3172
  125MOL0     H16855   2.903   5.480  -0.261 -0.6904  0.2333  1.5768
  125MOL0     H16856   2.794   5.359  -0.187  3.0659  0.8955  0.5741
  125MOL0     H16857   2.931   4.425   0.019  2.2621  2.5550 -0.9601
  125MOL0     H16858   2.992   4.301   0.227 -0.7765  0.4313 -2.0094
  125MOL0     H16859   2.913   4.265   0.658 -0.2387 -1.3505  1.2438
  125MOL0     H16860   2.951   4.097   0.846 -0.8914 -0.5654 -1.3696
  125MOL0     H16861   3.912   2.850   1.865  1.0772 -2.3421 -2.9449
  125MOL0     H16862   4.143   2.855   1.913 -1.7121 -0.4717 -0.0325
  125MOL0     H16863   4.607   2.770   1.678 -2.4236  1.5931  0.1414
  125MOL0     H16864   4.823   2.723   1.793 -0.5407 -1.2294 -0.0003
  125MOL0     H16865   4.977   3.057   2.004 -4.1288 -0.8847  0.1004
  125MOL0     H16866   4.951   2.953   2.152  1.0404  1.5964  0.8648
  125MOL0     H16867   5.146   2.812   2.057  2.7050  0.4189 -0.1967
  125MOL0     H16868   5.173   2.945   2.164 -0.6732  1.0520  0.1005
  125MOL0     H16869   5.233   3.099   2.010 -0.3638 -2.6145  3.7722
  125MOL0     H16870   5.210   2.981   1.871 -0.9632  1.6276 -0.8687
  125MOL0     H16871   5.438   3.033   1.938  1.5396  0.5060  0.9307
  125MOL0     H16872   5.420   2.862   1.965 -0.9421 -0.9712  0.6086
  125MOL0     H16873   5.510   3.025   2.348 -1.2575 -0.0039  0.3195
  125MOL0     H16874   4.748   3.063   2.046  1.2886  1.1115 -1.7030
  125MOL0     H16875   4.520   3.071   1.980  1.2898  1.7208 -0.1983
  126MOL0     O16876   6.994   1.296   5.002  0.8267 -0.0857 -0.5430
  126MOL0     C16877   7.083   1.385   5.014 -0.1349  0.2419 -0.1275
  126MOL0     O16878   7.060   1.522   5.039 -0.4539 -0.6344  0.0239
  126MOL0     C16879   6.930   1.563   5.041  0.2426  0.3715  0.1816
  126MOL0     C16880   6.837   1.541   5.141 -1.0136 -0.0147 -0.3208
  126MOL0     C16881   6.697   1.563   5.114 -0.3216 -0.2966 -0.5593
  126MOL0     C16882   6.657   1.643   5.012  0.8280 -0.2698 -0.0894
  126MOL0     O16883   6.530   1.691   5.016 -0.3482  0.9331 -0.8347
  126MOL0     C16884   6.460   1.734   4.896  0.0337 -1.0893  0.1537
  126MOL0     C16885   6.311   1.742   4.932  1.1322  0.6504  0.2388
  126MOL0     C16886   6.239   1.613   4.939 -0.2477  0.7599 -0.5013
  126MOL0     C16887   6.251   1.526   4.813  0.4276  0.3447 -0.2376
  126MOL0     C16888   6.130   1.438   4.789 -0.3137 -0.7552 -0.2831
  126MOL0     C16889   6.152   1.329   4.687  0.5830  0.9394 -0.2143
  126MOL0     C16890   6.022   1.249   4.657 -0.5439  0.3249  0.4915
  126MOL0     C16891   5.899   1.324   4.605  0.2547  0.0753  0.2375
  126MOL0     N16892   5.774   1.243   4.594  0.1247 -0.9573 -0.0666
  126MOL0     C16893   5.653   1.298   4.574  0.6693  0.1349  0.8712
  126MOL0     C16894   5.573   1.185   4.547  0.4496  0.3869 -0.4119
  126MOL0     C16895   5.425   1.184   4.511  1.2473 -0.2896  0.1789
  126MOL0     C16896   5.407   1.166   4.358  0.3699 -0.2045  0.7974
  126MOL0     C16897   5.262   1.180   4.304 -0.0861  0.3696 -0.1987
  126MOL0     C16898   5.180   1.059   4.356  0.7626  0.3626  0.7218
  126MOL0     O16899   5.047   1.105   4.329 -0.5761  0.0219  0.2949
  126MOL0     C16900   4.995   1.086   4.206  0.9246 -0.1489  0.3383
  126MOL0     C16901   4.862   1.139   4.201 -0.2764 -1.0075 -0.0881
  126MOL0     C16902   4.787   1.139   4.078  0.0058 -0.0586 -0.6341
  126MOL0     C16903   4.645   1.188   4.073  1.4832 -0.1498  0.5723
  126MOL0     C16904   4.844   1.070   3.968  0.1617  0.1693 -0.0665
  126MOL0     C16905   4.765   1.053   3.846 -0.2946 -0.9087 -0.1207
  126MOL0     O16906   4.654   0.978   3.847 -0.5883  0.2722  0.1175
  126MOL0     C16907   4.577   0.982   3.726 -1.0018  0.0362  0.6464
  126MOL0     C16908   4.579   0.880   3.631  1.2717  0.5309  0.1868
  126MOL0     C16909   4.477   0.887   3.532  0.1229 -0.3659  1.0308
  126MOL0     C16910   4.381   0.992   3.517 -0.4470 -0.0566 -0.5091
  126MOL0     O16911   4.296   0.989   3.410 -0.4840  0.2161  0.6609
  126MOL0     C16912   4.213   1.101   3.362  0.5935  0.6747 -0.0117
  126MOL0     C16913   4.198   1.085   3.209  0.2031  0.8182 -0.2465
  126MOL0     C16914   4.330   1.065   3.132 -0.0237 -0.9840 -0.3223
  126MOL0     C16915   4.319   1.016   2.987  0.0361 -0.2585 -0.7093
  126MOL0     C16916   4.446   0.964   2.918 -0.6067  0.0975  0.1453
  126MOL0     C16917   4.433   0.927   2.775 -0.7387  0.0456  0.4003
  126MOL0     C16918   4.552   0.865   2.710 -1.3367  0.3173  0.6205
  126MOL0     C16919   4.538   0.848   2.565  0.2802  0.0192 -0.0107
  126MOL0    Cl16920   4.562   1.012   2.492 -0.2168 -0.0845  0.2419
  126MOL0     C16921   4.393   1.101   3.617  0.4520 -0.0892  0.2389
  126MOL0     C16922   4.488   1.093   3.719 -0.1048  0.6949 -0.1762
  126MOL0     O16923   4.816   1.104   3.748  0.2791 -0.7208  0.0757
  126MOL0     C16924   4.965   1.008   3.975 -0.5909  0.3371 -0.8358
  126MOL0     C16925   5.040   1.018   4.095 -0.2975 -0.0782  0.9568
  126MOL0     N16926   5.654   1.073   4.538  0.3113  0.3387  0.2529
  126MOL0     N16927   5.776   1.109   4.553 -0.0120  0.4532  0.1824
  126MOL0     C16928   6.751   1.672   4.916 -0.0557 -0.0950 -0.6720
  126MOL0     C16929   6.886   1.630   4.927  0.1857  0.4123 -0.2841
  126MOL0     C16930   7.225   1.335   5.013 -0.5837 -0.6280 -0.3182
  126MOL0     C16931   7.252   1.200   4.978 -0.5143 -0.0230  0.4247
  126MOL0     C16932   7.388   1.154   4.989 -1.0146  0.1517 -0.9788
  126MOL0     C16933   7.486   1.238   5.023 -0.4515 -1.0121  0.5558
  126MOL0     O16934   7.613   1.185   5.030 -0.2109  0.0692  0.0459
  126MOL0     C16935   7.718   1.259   5.095 -0.4892 -0.0252 -0.4687
  126MOL0     C16936   7.788   1.335   4.980 -0.4111 -0.5029  0.0808
  126MOL0     C16937   7.915   1.412   5.011  0.4989 -0.8484  0.7983
  126MOL0     C16938   7.884   1.554   5.067  0.1093 -0.3017  0.4448
  126MOL0     C16939   8.012   1.621   5.087 -0.1676 -0.3975  0.6095
  126MOL0     C16940   8.126   1.670   5.107  0.9255  0.0122  0.2523
  126MOL0     C16941   7.462   1.374   5.062 -0.1207  0.0155  0.6252
  126MOL0     C16942   7.332   1.422   5.054 -0.5222 -0.4044  0.1986
  126MOL0     H16943   6.875   1.487   5.227  1.3729 -0.4479 -1.5407
  126MOL0     H16944   6.627   1.521   5.186  0.5147 -1.6467 -0.4915
  126MOL0     H16945   6.486   1.840   4.889 -0.4149 -0.8430  1.7514
  126MOL0     H16946   6.484   1.685   4.801  2.8831 -0.3953  0.4087
  126MOL0     H16947   6.304   1.790   5.030  2.6883 -0.2841  0.8278
  126MOL0     H16948   6.255   1.806   4.862  1.4106  2.6049  1.7241
  126MOL0     H16949   6.271   1.561   5.029 -1.9128  1.7896  0.7568
  126MOL0     H16950   6.134   1.637   4.961 -0.7015 -3.0114  2.4489
  126MOL0     H16951   6.251   1.571   4.713  3.2155 -1.9131 -1.3897
  126MOL0     H16952   6.348   1.476   4.818 -0.1761 -1.2018 -2.5588
  126MOL0     H16953   6.091   1.385   4.877 -4.1851 -1.0182 -1.9665
  126MOL0     H16954   6.048   1.506   4.763 -1.5053 -0.7175  3.0683
  126MOL0     H16955   6.197   1.361   4.593 -1.7460  2.8024 -0.7993
  126MOL0     H16956   6.225   1.261   4.731 -0.1783  0.0198 -0.3316
  126MOL0     H16957   6.045   1.168   4.587  2.8468  0.8527  0.8269
  126MOL0     H16958   5.995   1.196   4.749  1.2033  0.9650  1.4126
  126MOL0     H16959   5.929   1.367   4.509 -3.3888 -0.1207 -1.1559
  126MOL0     H16960   5.868   1.407   4.670  0.3559  0.0922  0.2647
  126MOL0     H16961   5.630   1.404   4.576 -2.2335 -0.3797  0.4427
  126MOL0     H16962   5.380   1.108   4.575  0.9701  0.9130  1.4607
  126MOL0     H16963   5.376   1.274   4.548 -0.7644 -1.3435  0.1896
  126MOL0     H16964   5.452   1.072   4.327  0.9031  1.5896 -5.1176
  126MOL0     H16965   5.460   1.249   4.310  1.7020 -2.7906 -2.5779
  126MOL0     H16966   5.264   1.166   4.196  2.7190 -0.7715 -0.0934
  126MOL0     H16967   5.214   1.269   4.344 -3.4363 -1.4434  0.2388
  126MOL0     H16968   5.183   1.045   4.464 -0.3051 -3.2619  0.4316
  126MOL0     H16969   5.208   0.971   4.296  1.4354 -0.4286  2.1528
  126MOL0     H16970   4.825   1.198   4.284  2.2681  3.3938 -1.7478
  126MOL0     H16971   4.634   1.253   3.986  0.0776 -0.0640  0.7816
  126MOL0     H16972   4.584   1.099   4.054  3.5227 -1.7864  1.3317
  126MOL0     H16973   4.614   1.227   4.170 -1.5686 -4.1798  1.4993
  126MOL0     H16974   4.664   0.814   3.617  0.2885 -0.8907  0.7305
  126MOL0     H16975   4.486   0.821   3.446  0.5242  0.8013  0.1505
  126MOL0     H16976   4.116   1.091   3.412  1.1723  1.2352  1.2819
  126MOL0     H16977   4.248   1.201   3.392  0.1406  0.7993  0.1170
  126MOL0     H16978   4.142   0.994   3.187  1.7126 -1.0364  2.9732
  126MOL0     H16979   4.138   1.169   3.170 -2.6642 -0.5492  0.9063
  126MOL0     H16980   4.378   0.986   3.191  0.8383 -0.1101  0.1762
  126MOL0     H16981   4.388   1.158   3.136  1.0669 -1.6463 -0.3166
  126MOL0     H16982   4.241   0.939   2.994  0.4164 -0.5023  1.6348
  126MOL0     H16983   4.280   1.102   2.932  1.4552  1.3150  0.6521
  126MOL0     H16984   4.464   0.871   2.972 -1.1525  1.3389  2.5750
  126MOL0     H16985   4.522   1.042   2.931  0.2962 -0.6511 -0.5286
  126MOL0     H16986   4.349   0.858   2.759 -0.8615 -0.0946  1.5961
  126MOL0     H16987   4.411   1.018   2.717 -0.1054  0.0197  0.1152
  126MOL0     H16988   4.563   0.767   2.757  0.1546 -0.5101 -1.3317
  126MOL0     H16989   4.642   0.924   2.728 -1.1792  0.2312  0.1230
  126MOL0     H16990   4.437   0.815   2.540  0.7101  1.0643 -3.7253
  126MOL0     H16991   4.618   0.779   2.533  0.9239 -0.1392  1.8138
  126MOL0     H16992   4.323   1.184   3.624 -1.7473 -1.9272  1.0610
  126MOL0     H16993   4.490   1.169   3.797 -1.0857 -0.6435  1.1963
  126MOL0     H16994   4.999   0.941   3.897  1.3558 -0.5947  0.7300
  126MOL0     H16995   5.130   0.958   4.092 -1.4058 -1.8539  1.8797
  126MOL0     H16996   6.714   1.725   4.829  0.7598  2.2466  0.3303
  126MOL0     H16997   6.951   1.626   4.840 -2.1035  1.6056 -2.1599
  126MOL0     H16998   7.174   1.137   4.937 -1.0544 -0.0108  1.4050
  126MOL0     H16999   7.405   1.052   4.957  1.9089  0.1441  0.3449
  126MOL0     H17000   7.685   1.320   5.179 -0.2179 -1.5419  0.7992
  126MOL0     H17001   7.791   1.190   5.140  1.1526  1.7777 -0.2215
  126MOL0     H17002   7.718   1.403   4.930  1.7508  0.7942 -1.2927
  126MOL0     H17003   7.811   1.263   4.901 -0.8376  0.3929 -0.8844
  126MOL0     H17004   7.973   1.427   4.919 -0.7567 -0.2404  0.0852
  126MOL0     H17005   7.978   1.352   5.078  0.8619 -1.6756 -0.2560
  126MOL0     H17006   7.818   1.558   5.154 -0.2529  0.8083  0.1269
  126MOL0     H17007   7.829   1.613   4.993  0.5975  0.5776  0.7702
  126MOL0     H17008   8.222   1.716   5.119  0.6468  0.2580  1.7619
  126MOL0     H17009   7.544   1.444   5.075  1.1246 -1.3775  0.4462
  126MOL0     H17010   7.303   1.522   5.082 -0.4242 -0.6212  1.1100
  127MOL0     O17011   0.699   9.666   5.526 -0.2536 -0.6034  0.0571
  127MOL0     C17012   0.700   9.598   5.630 -0.8928  0.0078  0.5396
  127MOL0     O17013   0.602   9.602   5.723 -0.8157 -0.6050 -0.1474
  127MOL0     C17014   0.490   9.670   5.701  0.5127  0.7782 -1.0521
  127MOL0     C17015   0.445   9.748   5.812  0.9665 -0.2115  0.1065
  127MOL0     C17016   0.316   9.806   5.793  0.1176  0.2009 -0.2375
  127MOL0     C17017   0.234   9.793   5.687  0.3390 -0.1304  0.6119
  127MOL0     O17018   0.104   9.850   5.691 -1.2905 -0.0766  0.2706
  127MOL0     C17019   0.082   9.970   5.768 -0.5731  0.8176 -0.2279
  127MOL0     C17020  -0.066  10.013   5.718  0.0797  0.2155  0.7380
  127MOL0     C17021  -0.052  10.081   5.582  0.2901  0.0160 -0.5805
  127MOL0     C17022  -0.185  10.082   5.497 -0.6809  0.4026 -0.2742
  127MOL0     C17023  -0.289  10.164   5.573  0.7225 -0.2697 -0.4926
  127MOL0     C17024  -0.400  10.207   5.482  0.7736  0.1751  0.0373
  127MOL0     C17025  -0.507  10.288   5.548 -0.5512  0.3694 -0.1580
  127MOL0     C17026  -0.611  10.196   5.609 -0.2916  0.5378  0.4295
  127MOL0     N17027  -0.692  10.267   5.707 -0.0614 -0.2949  0.5647
  127MOL0     C17028  -0.787  10.212   5.792  0.1877 -0.1468 -0.1896
  127MOL0     C17029  -0.817  10.308   5.884 -0.0516  0.0282  0.1977
  127MOL0     C17030  -0.897  10.317   6.006 -0.1856  0.6302  0.0610
  127MOL0     C17031  -1.002  10.204   6.037 -0.2163 -0.4168  0.1717
  127MOL0     C17032  -1.115  10.267   6.122 -0.6337  0.1063  0.5447
  127MOL0     C17033  -1.208  10.169   6.187  0.4466  0.4606 -0.0671
  127MOL0     O17034  -1.276  10.229   6.301  0.2278 -0.5770  0.0757
  127MOL0     C17035  -1.359  10.155   6.376  0.1746  0.7959 -0.6916
  127MOL0     C17036  -1.412  10.208   6.496 -0.3688  0.3341  0.1070
  127MOL0     C17037  -1.497  10.141   6.583 -0.3149  0.6804 -0.3653
  127MOL0     C17038  -1.549  10.207   6.705  0.3645 -0.4180  0.2670
  127MOL0     C17039  -1.533  10.003   6.550 -1.3266  0.6488  0.1185
  127MOL0     C17040  -1.625   9.911   6.628 -0.0734 -0.8849  0.2304
  127MOL0     O17041  -1.709   9.981   6.693  0.2412  0.8341  0.8481
  127MOL0     C17042  -1.795   9.911   6.768  0.0203  0.2019 -0.0946
  127MOL0     C17043  -1.929   9.905   6.728  0.8390 -0.0475  1.0074
  127MOL0     C17044  -2.030   9.821   6.784 -0.5043 -0.4461 -0.8601
  127MOL0     C17045  -1.988   9.757   6.904 -0.1970 -1.6492 -1.3163
  127MOL0     O17046  -2.075   9.689   6.981  0.2418 -0.5408  0.4589
  127MOL0     C17047  -2.158   9.769   7.069 -0.2708  0.0948  0.0482
  127MOL0     C17048  -2.298   9.720   7.053  0.3639  0.5154 -0.3444
  127MOL0     C17049  -2.302   9.591   7.133  0.3645 -0.2281  0.2491
  127MOL0     C17050  -2.445   9.548   7.158  0.6234 -0.5318 -0.3400
  127MOL0     C17051  -2.476   9.432   7.255 -0.7492  0.5688  0.0560
  127MOL0     C17052  -2.627   9.393   7.251 -0.6319  0.1570 -0.3668
  127MOL0     C17053  -2.664   9.284   7.352 -0.0408 -0.7557  0.2505
  127MOL0     C17054  -2.792   9.223   7.310 -1.0729 -0.4068 -0.2200
  127MOL0    Cl17055  -2.858   9.127   7.438 -0.4998  0.4492 -0.1705
  127MOL0     C17056  -1.860   9.766   6.954 -0.8310  0.1510 -0.3600
  127MOL0     C17057  -1.765   9.840   6.887  0.1739 -1.1376  0.3684
  127MOL0     O17058  -1.595   9.792   6.628  0.2461  0.1114  0.4444
  127MOL0     C17059  -1.469   9.949   6.436 -0.1282  0.5576 -0.3718
  127MOL0     C17060  -1.392  10.021   6.351 -0.4958  0.0395  0.0497
  127MOL0     N17061  -0.762  10.425   5.842 -0.6888 -0.4161  0.3185
  127MOL0     N17062  -0.693  10.405   5.735  0.3956 -0.7694 -0.5176
  127MOL0     C17063   0.289   9.734   5.573  0.3258 -1.0333  0.1924
  127MOL0     C17064   0.408   9.668   5.585 -0.6842  0.3177 -0.0816
  127MOL0     C17065   0.820   9.523   5.664  0.1667 -0.0449  0.2095
  127MOL0     C17066   0.852   9.477   5.795 -0.4767 -0.6526 -0.1036
  127MOL0     C17067   0.979   9.421   5.823 -0.7773 -0.3353  0.0931
  127MOL0     C17068   1.081   9.414   5.726 -0.2115 -0.5461 -0.1717
  127MOL0     O17069   1.207   9.365   5.758 -0.4528 -0.0523  0.1114
  127MOL0     C17070   1.277   9.436   5.862  0.1039  0.2243 -0.8868
  127MOL0     C17071   1.319   9.577   5.824 -0.1488  0.2880  0.1323
  127MOL0     C17072   1.428   9.580   5.711 -0.3862 -0.2136 -0.9766
  127MOL0     C17073   1.487   9.720   5.693  0.1751 -0.2892  1.8829
  127MOL0     C17074   1.572   9.730   5.569  0.1635  0.1822 -1.4329
  127MOL0     C17075   1.647   9.741   5.476  0.4341  0.7168  0.5666
  127MOL0     C17076   1.050   9.466   5.599 -0.1569  0.0216 -0.1633
  127MOL0     C17077   0.923   9.505   5.570  0.2487 -0.2003  0.1843
  127MOL0     H17078   0.509   9.772   5.896 -0.4470  2.8227  0.4288
  127MOL0     H17079   0.283   9.865   5.878  0.3573 -2.7718  2.0471
  127MOL0     H17080   0.089   9.942   5.874 -0.7425  1.3652 -0.0693
  127MOL0     H17081   0.150  10.056   5.762  1.1146 -0.4976 -1.1009
  127MOL0     H17082  -0.136   9.929   5.716  2.8005 -2.2276 -0.3732
  127MOL0     H17083  -0.101  10.091   5.785 -4.0312 -0.4501 -0.3979
  127MOL0     H17084  -0.013  10.183   5.590  0.4614 -0.1953  2.7035
  127MOL0     H17085   0.021  10.024   5.523  1.1732 -1.6915  1.9627
  127MOL0     H17086  -0.171  10.126   5.398  1.1192  0.9837  0.1990
  127MOL0     H17087  -0.213   9.978   5.476 -1.1220 -0.1577  2.6326
  127MOL0     H17088  -0.335  10.097   5.647 -1.7482  0.3586 -1.3761
  127MOL0     H17089  -0.236  10.243   5.627 -0.5224  0.0291  0.3482
  127MOL0     H17090  -0.355  10.275   5.408 -2.2124 -0.3083 -2.4401
  127MOL0     H17091  -0.441  10.119   5.431 -0.4761 -1.5358  3.6824
  127MOL0     H17092  -0.472  10.351   5.630 -2.2350 -0.8639  1.5831
  127MOL0     H17093  -0.542  10.354   5.467 -3.2207 -2.6803 -1.7590
  127MOL0     H17094  -0.568  10.122   5.677 -1.6791 -1.6916 -0.9908
  127MOL0     H17095  -0.675  10.142   5.540  0.2414 -0.2915  0.5681
  127MOL0     H17096  -0.821  10.108   5.790 -3.7905  0.9904 -2.3869
  127MOL0     H17097  -0.826  10.302   6.087 -1.2074 -0.2309  0.8319
  127MOL0     H17098  -0.942  10.416   6.016 -0.1839  0.4872  1.8701
  127MOL0     H17099  -0.957  10.118   6.087  2.5058 -0.6690 -2.4446
  127MOL0     H17100  -1.046  10.169   5.943 -1.3512 -2.3839  1.3569
  127MOL0     H17101  -1.168  10.339   6.059  2.2553  0.1634 -2.1099
  127MOL0     H17102  -1.054  10.324   6.192  3.5111  0.7018 -3.0670
  127MOL0     H17103  -1.145  10.086   6.219 -0.0183  0.3770  0.6658
  127MOL0     H17104  -1.274  10.140   6.104 -2.0966  1.7128  1.3874
  127MOL0     H17105  -1.386  10.310   6.521  0.1772 -0.1612  1.6504
  127MOL0     H17106  -1.657  10.211   6.691  0.2866 -3.0101 -0.3260
  127MOL0     H17107  -1.523  10.137   6.785 -3.2319  0.8575  2.7985
  127MOL0     H17108  -1.499  10.303   6.726  1.1072 -0.3494 -1.6200
  127MOL0     H17109  -1.951   9.963   6.639  0.1985 -0.8637  0.6243
  127MOL0     H17110  -2.130   9.801   6.744 -1.2118  0.3009  0.4697
  127MOL0     H17111  -2.112   9.749   7.166 -0.5189 -1.4534 -0.1183
  127MOL0     H17112  -2.146   9.873   7.036  0.6080 -0.1297 -0.3738
  127MOL0     H17113  -2.360   9.797   7.099 -2.5372  0.5169 -3.8184
  127MOL0     H17114  -2.335   9.696   6.953  0.7793 -1.7748 -0.0046
  127MOL0     H17115  -2.246   9.598   7.227  0.0332  1.7164  0.3398
  127MOL0     H17116  -2.245   9.514   7.080 -0.7441 -0.7702 -0.1808
  127MOL0     H17117  -2.488   9.638   7.203  1.2697  1.2713 -3.1135
  127MOL0     H17118  -2.503   9.545   7.065 -0.8542  0.2252  0.5175
  127MOL0     H17119  -2.434   9.430   7.356 -1.9193 -1.5607  0.5646
  127MOL0     H17120  -2.422   9.353   7.203 -0.1065  0.8393  0.3021
  127MOL0     H17121  -2.686   9.480   7.280  0.3007  1.2394 -1.6199
  127MOL0     H17122  -2.650   9.351   7.153  1.1340  0.4609 -0.9499
  127MOL0     H17123  -2.676   9.334   7.449 -0.5727  3.8573 -1.8869
  127MOL0     H17124  -2.584   9.211   7.361  2.0814  1.4999  0.8519
  127MOL0     H17125  -2.773   9.166   7.218  0.6047 -3.6616  1.9290
  127MOL0     H17126  -2.864   9.301   7.286  1.8055  2.6004  0.2614
  127MOL0     H17127  -1.829   9.719   7.047 -1.3668  0.7996  0.1533
  127MOL0     H17128  -1.661   9.825   6.916  0.9804  0.7050 -1.3095
  127MOL0     H17129  -1.505   9.852   6.403  0.4712  0.1680  0.0993
  127MOL0     H17130  -1.346   9.975   6.264  2.4496  2.9693 -0.1677
  127MOL0     H17131   0.215   9.716   5.495 -1.7505  1.4890  1.4288
  127MOL0     H17132   0.433   9.613   5.494  0.2705  2.2079 -1.0218
  127MOL0     H17133   0.786   9.494   5.879 -0.6181 -1.2009 -0.0985
  127MOL0     H17134   0.991   9.371   5.919 -0.8628 -0.8891 -0.1780
  127MOL0     H17135   1.211   9.432   5.949 -0.1179 -2.4432 -1.0914
  127MOL0     H17136   1.373   9.391   5.890 -1.4747 -0.9550  3.3512
  127MOL0     H17137   1.378   9.614   5.909  2.6056 -0.1092 -1.4651
  127MOL0     H17138   1.235   9.645   5.809  0.7938  1.3266 -0.7028
  127MOL0     H17139   1.377   9.546   5.620  0.2015  0.1767 -1.4606
  127MOL0     H17140   1.508   9.516   5.747 -2.0581 -1.0562  1.4488
  127MOL0     H17141   1.550   9.744   5.779 -0.6800 -0.1630  2.4897
  127MOL0     H17142   1.404   9.790   5.677 -1.5140 -2.7909 -1.4677
  127MOL0     H17143   1.711   9.733   5.391 -0.0194  1.1334  0.1760
  127MOL0     H17144   1.123   9.469   5.519 -1.3498  2.2112 -1.2759
  127MOL0     H17145   0.896   9.531   5.468 -0.6268  0.6167  0.5976
  128MOL0     O17146   2.586   7.145   3.225  0.0752 -0.3668 -0.1669
  128MOL0     C17147   2.694   7.190   3.188 -0.8444 -0.7689  0.8721
  128MOL0     O17148   2.736   7.218   3.067  0.1076 -0.1054  0.7437
  128MOL0     C17149   2.648   7.223   2.964 -0.1899  0.1605  0.2291
  128MOL0     C17150   2.642   7.337   2.889 -0.6572  0.0524 -0.1669
  128MOL0     C17151   2.555   7.350   2.781 -0.2069 -0.0223  0.8371
  128MOL0     C17152   2.472   7.246   2.740 -0.4147  0.5355  0.2125
  128MOL0     O17153   2.395   7.263   2.628  1.0523 -0.3773  0.2804
  128MOL0     C17154   2.384   7.145   2.547  0.2237 -0.1916 -0.9073
  128MOL0     C17155   2.354   7.179   2.400 -0.3430 -1.0069  0.2019
  128MOL0     C17156   2.258   7.306   2.379 -0.1659  0.1394 -0.8945
  128MOL0     C17157   2.127   7.297   2.457  0.3426  0.2904 -0.2374
  128MOL0     C17158   2.022   7.364   2.376  0.9281 -0.4261  0.2025
  128MOL0     C17159   1.888   7.359   2.457 -0.1899  0.4392  0.5916
  128MOL0     C17160   1.761   7.387   2.365 -0.8197  0.4503 -0.4319
  128MOL0     C17161   1.764   7.524   2.309 -0.0875  0.8093 -0.8543
  128MOL0     N17162   1.635   7.571   2.257 -0.7720  0.1183  0.1134
  128MOL0     C17163   1.509   7.549   2.312 -0.3644 -0.1032  0.4940
  128MOL0     C17164   1.417   7.593   2.220 -1.0929  0.4366  0.2297
  128MOL0     C17165   1.270   7.598   2.244 -0.2029  0.0832  0.2658
  128MOL0     C17166   1.191   7.684   2.140 -0.4462  0.1734 -0.2050
  128MOL0     C17167   1.039   7.675   2.154 -0.2858  0.7028 -0.4576
  128MOL0     C17168   0.988   7.742   2.279  0.1603 -1.1341 -0.2743
  128MOL0     O17169   0.842   7.760   2.258  0.1337 -0.0723 -0.1112
  128MOL0     C17170   0.761   7.818   2.357 -0.3715  0.5538  0.0567
  128MOL0     C17171   0.620   7.803   2.343 -0.1019 -0.3021 -0.8929
  128MOL0     C17172   0.529   7.852   2.443 -0.6517 -0.0785  0.0307
  128MOL0     C17173   0.382   7.828   2.425 -0.2386  0.0081 -0.1804
  128MOL0     C17174   0.577   7.912   2.558  0.4373 -0.4647  0.0416
  128MOL0     C17175   0.503   7.949   2.683 -0.4765  0.9143  0.0721
  128MOL0     O17176   0.381   7.876   2.700 -0.1168 -0.0273  0.1780
  128MOL0     C17177   0.277   7.936   2.765  0.2188  0.2279 -0.5862
  128MOL0     C17178   0.269   7.908   2.902  0.3336  0.4389  0.2351
  128MOL0     C17179   0.164   7.955   2.979  0.3331  0.8063 -0.3040
  128MOL0     C17180   0.065   8.028   2.920  0.0995 -0.3252  0.2483
  128MOL0     O17181  -0.044   8.076   2.977  0.3635  0.0481  0.0205
  128MOL0     C17182  -0.040   8.070   3.119 -0.1858 -0.4688 -0.3882
  128MOL0     C17183  -0.172   8.136   3.178  0.0490 -0.1585  0.1411
  128MOL0     C17184  -0.188   8.275   3.124  0.0394  0.3004  0.2203
  128MOL0     C17185  -0.304   8.345   3.207 -2.0989  0.1316 -0.7640
  128MOL0     C17186  -0.357   8.474   3.159  0.2298  0.4722 -0.0754
  128MOL0     C17187  -0.411   8.478   3.021  0.3263 -0.6302  0.3103
  128MOL0     C17188  -0.428   8.622   2.968 -0.0835  0.6928 -0.8163
  128MOL0     C17189  -0.513   8.622   2.837 -0.1073 -0.1799  0.7024
  128MOL0    Cl17190  -0.457   8.533   2.702 -0.3515 -0.1936  0.4524
  128MOL0     C17191   0.077   8.057   2.786 -0.2792  0.2415 -0.3905
  128MOL0     C17192   0.178   8.012   2.700 -0.6132  0.3400  0.1059
  128MOL0     O17193   0.544   8.032   2.760  0.2177  0.1427 -0.4000
  128MOL0     C17194   0.718   7.923   2.567 -0.6403  0.3856 -0.7694
  128MOL0     C17195   0.813   7.880   2.470 -0.1473 -0.6144 -0.0577
  128MOL0     N17196   1.493   7.630   2.109 -0.4240  0.0597  0.5240
  128MOL0     N17197   1.617   7.614   2.134 -0.6879 -0.2151  0.3173
  128MOL0     C17198   2.474   7.122   2.815 -0.0693 -0.7026  0.6772
  128MOL0     C17199   2.572   7.117   2.920  0.2133  0.1913 -0.6939
  128MOL0     C17200   2.804   7.193   3.293  1.1217 -0.1924 -0.1897
  128MOL0     C17201   2.779   7.147   3.422 -0.4176  0.7978 -1.4578
  128MOL0     C17202   2.876   7.157   3.518 -0.3513 -0.7711  0.0920
  128MOL0     C17203   3.001   7.205   3.481 -0.5435  0.4674 -0.7912
  128MOL0     O17204   3.108   7.210   3.566 -0.8125 -0.1152  0.4245
  128MOL0     C17205   3.093   7.203   3.709 -0.0804  0.3471  0.1352
  128MOL0     C17206   3.217   7.153   3.781 -0.4648 -0.1282  0.2815
  128MOL0     C17207   3.272   7.024   3.729 -0.5284 -0.2040  0.1091
  128MOL0     C17208   3.408   6.991   3.798 -0.4358  0.9174  0.6098
  128MOL0     C17209   3.502   7.075   3.728 -0.1232  0.3079  0.3877
  128MOL0     C17210   3.571   7.152   3.677  0.1321 -1.3303 -0.1494
  128MOL0     C17211   3.033   7.234   3.349 -0.3027  0.4369 -0.3880
  128MOL0     C17212   2.930   7.237   3.261 -1.4936  0.3189 -0.0671
  128MOL0     H17213   2.709   7.421   2.909  0.2056 -1.1899  2.6110
  128MOL0     H17214   2.561   7.439   2.718 -1.1527  0.1045  0.9172
  128MOL0     H17215   2.476   7.086   2.546  1.3515  1.3674  1.5436
  128MOL0     H17216   2.297   7.091   2.584  0.9866 -1.1165 -0.4161
  128MOL0     H17217   2.446   7.195   2.343  0.8032 -0.4833  2.1174
  128MOL0     H17218   2.291   7.100   2.359 -1.1191  0.7049 -2.1588
  128MOL0     H17219   2.313   7.395   2.412  0.9548 -1.5180  2.1859
  128MOL0     H17220   2.237   7.311   2.272 -0.9157  4.1509 -0.6934
  128MOL0     H17221   2.099   7.194   2.482  1.8089  0.2183  1.3180
  128MOL0     H17222   2.139   7.363   2.543 -0.2203  1.5909 -1.1258
  128MOL0     H17223   2.046   7.468   2.352 -0.1666 -0.2876 -0.3127
  128MOL0     H17224   2.016   7.307   2.283  2.1162  1.4119 -1.0709
  128MOL0     H17225   1.868   7.254   2.482 -0.4032  0.2441 -0.3391
  128MOL0     H17226   1.891   7.424   2.544 -0.1722  0.9885  0.1830
  128MOL0     H17227   1.758   7.322   2.278  1.8608  2.0781 -1.8643
  128MOL0     H17228   1.673   7.378   2.430 -1.0413  0.5030 -0.7216
  128MOL0     H17229   1.837   7.525   2.229  1.2286  0.8386  0.3057
  128MOL0     H17230   1.795   7.590   2.391  0.2779 -0.9177  0.4611
  128MOL0     H17231   1.477   7.526   2.413 -1.4495 -0.6804  0.0411
  128MOL0     H17232   1.239   7.493   2.235  2.8333 -0.8137 -1.2027
  128MOL0     H17233   1.245   7.639   2.342 -1.6731  1.3026 -0.5805
  128MOL0     H17234   1.219   7.639   2.044 -1.2376 -1.2815  0.2105
  128MOL0     H17235   1.224   7.788   2.141  0.2987 -0.0335  1.4871
  128MOL0     H17236   1.004   7.571   2.152 -0.5028  0.7796 -1.4252
  128MOL0     H17237   0.988   7.700   2.060  1.2719  0.3061 -1.4498
  128MOL0     H17238   1.036   7.837   2.302 -2.2149  0.8127 -2.7223
  128MOL0     H17239   1.001   7.678   2.367 -1.1757  2.3322  2.6647
  128MOL0     H17240   0.581   7.755   2.253  0.2524  1.3775 -1.9773
  128MOL0     H17241   0.317   7.900   2.475 -4.4430  0.0052 -4.7727
  128MOL0     H17242   0.353   7.847   2.321 -0.5773  3.1556  0.4082
  128MOL0     H17243   0.351   7.733   2.469  1.7223 -0.8141 -0.4524
  128MOL0     H17244   0.333   7.833   2.947 -1.2739 -1.1007  0.0416
  128MOL0     H17245   0.158   7.928   3.084 -0.2452 -1.9805 -0.9646
  128MOL0     H17246  -0.048   7.964   3.145 -1.3811 -0.5146 -0.8712
  128MOL0     H17247   0.054   8.115   3.152 -1.6430  1.2057  1.7466
  128MOL0     H17248  -0.257   8.070   3.158 -0.1453 -0.3381  1.4929
  128MOL0     H17249  -0.158   8.142   3.286 -1.1374 -0.1867  0.3087
  128MOL0     H17250  -0.202   8.267   3.015  1.1322 -2.4292  0.1904
  128MOL0     H17251  -0.094   8.325   3.147  0.5461 -0.4116 -0.2509
  128MOL0     H17252  -0.391   8.279   3.201 -2.5877  0.5329  1.2313
  128MOL0     H17253  -0.265   8.359   3.308  2.3617 -2.7208 -1.8249
  128MOL0     H17254  -0.272   8.542   3.173 -0.2447  1.1570 -0.4508
  128MOL0     H17255  -0.433   8.508   3.230  0.7880 -1.8060  1.7374
  128MOL0     H17256  -0.336   8.437   2.952  2.6134  1.9999  1.0789
  128MOL0     H17257  -0.508   8.429   3.016  0.1598 -0.1836 -1.9131
  128MOL0     H17258  -0.338   8.672   2.929 -0.8310  0.4678 -2.9838
  128MOL0     H17259  -0.475   8.684   3.045 -0.6580 -1.6923  0.8660
  128MOL0     H17260  -0.521   8.718   2.785  1.4065  0.8093  2.2182
  128MOL0     H17261  -0.615   8.585   2.853  0.3435 -2.2430 -0.7277
  128MOL0     H17262   0.001   8.115   2.734  0.0149  0.4840 -0.5567
  128MOL0     H17263   0.167   8.035   2.595 -1.6181  2.5996  0.6532
  128MOL0     H17264   0.761   7.954   2.662 -3.1126 -0.2830  0.6350
  128MOL0     H17265   0.920   7.883   2.489 -0.5447 -0.9427  2.7172
  128MOL0     H17266   2.421   7.032   2.788  0.4860 -0.9646  0.4420
  128MOL0     H17267   2.573   7.025   2.977 -0.8556 -0.3080 -1.4428
  128MOL0     H17268   2.679   7.117   3.453  0.6970 -0.3855  1.2892
  128MOL0     H17269   2.847   7.115   3.614 -1.1281 -1.5006 -0.4436
  128MOL0     H17270   3.082   7.306   3.744  3.6883  2.2492 -3.3471
  128MOL0     H17271   3.010   7.137   3.737 -2.0719  3.2744  1.5695
  128MOL0     H17272   3.191   7.130   3.885 -0.3878  1.1728  0.6142
  128MOL0     H17273   3.291   7.234   3.781  2.1553 -2.3676  0.0249
  128MOL0     H17274   3.278   7.037   3.621  1.1920 -1.1918  0.0580
  128MOL0     H17275   3.198   6.951   3.765 -1.9092  1.1313  0.1171
  128MOL0     H17276   3.435   6.887   3.776 -2.7017  0.8843 -2.5870
  128MOL0     H17277   3.409   7.003   3.907  0.1010 -2.5168  1.1185
  128MOL0     H17278   3.636   7.225   3.633 -1.0540 -0.5681 -0.7069
  128MOL0     H17279   3.135   7.259   3.318 -0.4122  1.9714  0.3955
  128MOL0     H17280   2.965   7.263   3.162  1.5359  2.9800  1.5026
  129MOL0     O17281   7.927   5.296   1.468 -0.4313 -0.0756  0.0875
  129MOL0     C17282   7.984   5.233   1.386  0.1113  0.4860 -0.1182
  129MOL0     O17283   7.937   5.190   1.261  0.4111 -0.0722  0.4368
  129MOL0     C17284   7.812   5.217   1.211 -1.0400  0.3808  0.0289
  129MOL0     C17285   7.704   5.222   1.295  0.2229 -0.4083 -0.5378
  129MOL0     C17286   7.577   5.244   1.244 -0.4437  0.0057 -0.0309
  129MOL0     C17287   7.569   5.259   1.105 -0.3053  0.4147 -0.0238
  129MOL0     O17288   7.436   5.267   1.060 -0.5782  0.6241 -0.0418
  129MOL0     C17289   7.412   5.242   0.917  0.6352  0.5424 -0.2903
  129MOL0     C17290   7.260   5.214   0.922  0.5072  0.1421 -0.4342
  129MOL0     C17291   7.199   5.263   0.789  0.0431  0.6358 -0.2739
  129MOL0     C17292   7.057   5.229   0.768 -0.5741 -0.1805  0.7754
  129MOL0     C17293   6.962   5.290   0.874 -0.7287 -0.7469 -0.1333
  129MOL0     C17294   6.835   5.214   0.879 -0.0479  0.1149 -0.3094
  129MOL0     C17295   6.732   5.275   0.967  0.6814 -0.7718  0.3759
  129MOL0     C17296   6.658   5.396   0.907 -0.0114 -0.8145 -0.5652
  129MOL0     N17297   6.510   5.378   0.901 -0.1454  0.0028  0.5971
  129MOL0     C17298   6.456   5.277   0.824 -0.3627 -0.1810  0.1399
  129MOL0     C17299   6.328   5.279   0.859 -0.0123 -0.6890  0.3839
  129MOL0     C17300   6.213   5.188   0.801 -0.4352  0.6961 -0.3207
  129MOL0     C17301   6.139   5.118   0.915  0.0458 -0.1094  0.4899
  129MOL0     C17302   6.118   4.967   0.900  0.1643 -0.5918  0.1464
  129MOL0     C17303   6.256   4.892   0.926  0.6919 -0.2499 -0.6635
  129MOL0     O17304   6.342   4.916   0.818 -0.1877  0.6866 -0.5555
  129MOL0     C17305   6.477   4.877   0.828  0.2885 -0.7061 -0.0158
  129MOL0     C17306   6.563   4.921   0.726  0.6224  0.3219 -0.1282
  129MOL0     C17307   6.695   4.873   0.715 -0.5180  0.1948 -0.7759
  129MOL0     C17308   6.774   4.929   0.607  0.0194  0.0324  1.2015
  129MOL0     C17309   6.753   4.794   0.818 -0.3972 -0.3529 -0.0853
  129MOL0     C17310   6.899   4.756   0.828  0.0408  0.2142  0.2433
  129MOL0     O17311   6.974   4.836   0.912 -0.5072  0.2684  0.8585
  129MOL0     C17312   7.111   4.828   0.896  0.5157 -0.1814 -0.0278
  129MOL0     C17313   7.178   4.805   1.015 -0.3176 -0.5986  0.1924
  129MOL0     C17314   7.314   4.822   1.019 -0.2116 -0.4971 -0.0975
  129MOL0     C17315   7.387   4.850   0.896  0.0765  0.0551 -1.0295
  129MOL0     O17316   7.521   4.860   0.893 -0.0835  0.1675 -0.4501
  129MOL0     C17317   7.594   4.853   1.017 -0.0225  0.2744  0.0456
  129MOL0     C17318   7.740   4.867   0.990  0.1990  0.1453 -0.6628
  129MOL0     C17319   7.819   4.837   1.117 -0.1899  0.4267 -1.5632
  129MOL0     C17320   7.964   4.841   1.083 -0.5234  0.5459  0.5563
  129MOL0     C17321   8.059   4.821   1.202 -1.2513 -0.6127 -0.2756
  129MOL0     C17322   8.202   4.827   1.151 -0.7669  0.4809 -0.2914
  129MOL0     C17323   8.314   4.782   1.254  0.7241  1.8984  0.2993
  129MOL0     C17324   8.461   4.761   1.198 -0.0286  1.1599 -0.1225
  129MOL0    Cl17325   8.459   4.621   1.102 -0.2960 -0.2565  0.2491
  129MOL0     C17326   7.320   4.874   0.773 -0.4713 -0.6803  0.0541
  129MOL0     C17327   7.180   4.863   0.776 -1.0907 -0.3884  0.2887
  129MOL0     O17328   6.932   4.663   0.756  0.7396  0.5146 -0.0736
  129MOL0     C17329   6.666   4.760   0.921 -0.2328 -0.3802 -0.0048
  129MOL0     C17330   6.534   4.790   0.921 -0.1568 -0.3527 -1.1338
  129MOL0     N17331   6.305   5.376   0.958 -0.6671  0.7342  0.2162
  129MOL0     N17332   6.422   5.423   0.991  0.3790  0.2313 -0.1915
  129MOL0     C17333   7.685   5.242   1.023 -0.0789  0.3410  0.5070
  129MOL0     C17334   7.805   5.226   1.074 -0.4228 -0.2900  0.1567
  129MOL0     C17335   8.119   5.203   1.428  0.0725  0.7750 -0.4259
  129MOL0     C17336   8.220   5.173   1.327  0.5089 -0.2320 -0.5932
  129MOL0     C17337   8.341   5.131   1.365  0.6470  0.0617  0.5754
  129MOL0     C17338   8.386   5.118   1.494  0.0701 -0.2035 -0.0466
  129MOL0     O17339   8.513   5.063   1.511 -0.5677 -0.3237 -0.0078
  129MOL0     C17340   8.537   4.988   1.632  0.6861 -0.0026  0.2845
  129MOL0     C17341   8.638   4.876   1.600 -0.5066  0.2159 -0.0644
  129MOL0     C17342   8.763   4.919   1.518  0.3465 -0.0794 -0.5348
  129MOL0     C17343   8.872   4.812   1.505 -0.1905 -0.0566 -0.5901
  129MOL0     C17344   8.817   4.693   1.435 -0.1374  0.3418 -0.0668
  129MOL0     C17345   8.754   4.604   1.379 -0.2428  0.0848 -0.4539
  129MOL0     C17346   8.302   5.156   1.597 -0.1381  0.3930  0.2020
  129MOL0     C17347   8.169   5.189   1.558 -0.2986  0.7016 -0.4259
  129MOL0     H17348   7.721   5.216   1.402  0.5189  1.4326 -0.4398
  129MOL0     H17349   7.487   5.241   1.305  1.2521  1.7522  2.7760
  129MOL0     H17350   7.442   5.328   0.857 -0.1142  1.5887  0.7651
  129MOL0     H17351   7.463   5.151   0.887 -0.6919 -1.3470  2.7142
  129MOL0     H17352   7.253   5.107   0.943  2.4658  0.0210 -0.2213
  129MOL0     H17353   7.228   5.280   1.004  2.3854  0.8834 -0.2384
  129MOL0     H17354   7.208   5.371   0.808 -0.6362  0.4000  1.6858
  129MOL0     H17355   7.251   5.226   0.701 -2.3277 -1.9876 -0.6965
  129MOL0     H17356   7.021   5.256   0.669  0.0200  0.6301  0.7672
  129MOL0     H17357   7.053   5.120   0.775  0.0979 -0.1658  1.7006
  129MOL0     H17358   7.012   5.268   0.969  1.2633  1.0310 -0.6912
  129MOL0     H17359   6.953   5.398   0.855 -0.1179  0.1746  3.8918
  129MOL0     H17360   6.795   5.202   0.779 -1.4289 -0.7553  0.3170
  129MOL0     H17361   6.855   5.114   0.918  0.3692 -0.4395 -1.9134
  129MOL0     H17362   6.664   5.194   0.997  3.2053 -2.6838  1.3308
  129MOL0     H17363   6.785   5.303   1.059 -1.6795 -0.9621  1.8863
  129MOL0     H17364   6.699   5.422   0.809  3.0348  0.5203  0.9186
  129MOL0     H17365   6.685   5.482   0.970 -2.7835 -0.1181 -0.1879
  129MOL0     H17366   6.496   5.217   0.743 -1.4356  0.2795 -0.7545
  129MOL0     H17367   6.148   5.253   0.742 -0.2468  0.8050 -0.4108
  129MOL0     H17368   6.249   5.112   0.731 -1.8394  1.9403 -2.5083
  129MOL0     H17369   6.043   5.171   0.917 -0.6547 -1.0497 -2.5069
  129MOL0     H17370   6.176   5.135   1.017 -3.8781  0.4196  2.0196
  129MOL0     H17371   6.099   4.950   0.794  1.7437  1.4229 -0.5314
  129MOL0     H17372   6.033   4.939   0.963 -1.0777  1.0746 -0.6889
  129MOL0     H17373   6.236   4.785   0.938  1.0732 -0.4810 -1.8899
  129MOL0     H17374   6.292   4.924   1.024 -0.2330 -0.3664 -0.2720
  129MOL0     H17375   6.524   4.986   0.649  0.0617  0.3316  0.1563
  129MOL0     H17376   6.862   4.874   0.571 -1.4544 -1.4482 -0.3248
  129MOL0     H17377   6.708   4.919   0.521  0.2261  0.5202  0.9813
  129MOL0     H17378   6.802   5.024   0.654 -2.6162  0.5465  1.8984
  129MOL0     H17379   7.126   4.796   1.110  0.0224 -1.2046  0.3208
  129MOL0     H17380   7.360   4.821   1.117 -0.8815 -0.1888  0.2231
  129MOL0     H17381   7.566   4.937   1.082  1.5921  1.3312 -0.5618
  129MOL0     H17382   7.582   4.755   1.064 -0.1616 -0.4358 -1.4004
  129MOL0     H17383   7.766   4.793   0.915 -1.0457  0.0616 -1.0390
  129MOL0     H17384   7.750   4.973   0.962 -1.6416  1.0680  1.7645
  129MOL0     H17385   7.790   4.743   1.166 -2.2900  0.9991 -1.5961
  129MOL0     H17386   7.803   4.916   1.191  1.6343  1.5545 -2.3129
  129MOL0     H17387   7.981   4.768   1.004 -3.2342  1.1436 -0.6920
  129MOL0     H17388   7.972   4.941   1.039  0.9511 -0.0301 -0.5481
  129MOL0     H17389   8.035   4.723   1.241 -2.1958 -1.8956 -3.6980
  129MOL0     H17390   8.043   4.903   1.273  3.2892 -0.2471  0.6775
  129MOL0     H17391   8.206   4.755   1.069  0.4497 -2.3619  2.1036
  129MOL0     H17392   8.219   4.932   1.123 -3.9398  1.2544  0.2352
  129MOL0     H17393   8.277   4.690   1.301 -0.0055  1.0814 -1.7524
  129MOL0     H17394   8.316   4.863   1.328  2.8614  1.8432  0.3545
  129MOL0     H17395   8.527   4.743   1.283 -0.2467 -0.1559 -0.2137
  129MOL0     H17396   8.501   4.845   1.141  1.4659 -0.2223 -1.1975
  129MOL0     H17397   7.383   4.896   0.687 -1.3582 -2.3539 -1.0839
  129MOL0     H17398   7.125   4.880   0.685 -3.4723  1.4626  1.9458
  129MOL0     H17399   6.716   4.704   1.000  0.0087 -1.3071 -0.7873
  129MOL0     H17400   6.464   4.770   1.001 -1.8015  3.9075 -1.2482
  129MOL0     H17401   7.668   5.236   0.916 -1.0437  0.1206  0.6598
  129MOL0     H17402   7.888   5.215   1.006  0.3848  1.7381  0.7270
  129MOL0     H17403   8.197   5.195   1.224 -2.2382 -0.9783 -0.2155
  129MOL0     H17404   8.408   5.113   1.281  3.7135  2.4438  2.2771
  129MOL0     H17405   8.592   5.050   1.703  2.2095 -0.1802 -0.6859
  129MOL0     H17406   8.445   4.943   1.670  0.7480 -0.7942 -0.4779
  129MOL0     H17407   8.590   4.804   1.534 -1.2047  1.0245 -0.4618
  129MOL0     H17408   8.672   4.820   1.687  2.6249 -1.0248 -1.9356
  129MOL0     H17409   8.799   5.008   1.571  0.2341  0.2543 -1.0104
  129MOL0     H17410   8.735   4.962   1.421  2.2505 -0.4546 -1.2968
  129MOL0     H17411   8.910   4.778   1.602  0.2337  3.1446  0.4727
  129MOL0     H17412   8.955   4.849   1.444 -1.1189 -0.4107 -2.1448
  129MOL0     H17413   8.710   4.518   1.334  0.2848 -0.7139  0.5252
  129MOL0     H17414   8.338   5.144   1.699  1.6026 -0.3057 -0.4410
  129MOL0     H17415   8.099   5.200   1.641 -0.7578  4.6027 -1.1326
  130MOL0     O17416   4.477   0.654   6.061 -0.5732  0.4721 -0.0619
  130MOL0     C17417   4.514   0.551   6.017 -0.7894 -0.1399 -0.7055
  130MOL0     O17418   4.434   0.441   6.001  1.0499 -0.0295  0.4482
  130MOL0     C17419   4.295   0.454   6.009 -0.1401 -0.2322  0.1982
  130MOL0     C17420   4.215   0.341   6.051  0.5686  0.3529  0.0287
  130MOL0     C17421   4.076   0.354   6.068 -0.3707 -0.4120  0.1241
  130MOL0     C17422   4.007   0.472   6.054 -0.4871  0.1313  1.0004
  130MOL0     O17423   3.867   0.467   6.065 -0.9462  0.0220 -0.4997
  130MOL0     C17424   3.783   0.579   6.026 -1.0576 -0.0719  0.5674
  130MOL0     C17425   3.656   0.603   6.108  0.5631  0.2982 -0.5932
  130MOL0     C17426   3.563   0.695   6.038 -0.5832  0.2715  0.1925
  130MOL0     C17427   3.458   0.739   6.141  0.2166 -0.5621 -0.1307
  130MOL0     C17428   3.365   0.849   6.104  0.9344  0.0164  0.6638
  130MOL0     C17429   3.266   0.813   5.994  0.7708  0.4980  0.8904
  130MOL0     C17430   3.163   0.924   5.961  0.0671 -0.3330 -0.4987
  130MOL0     C17431   3.085   0.979   6.081 -0.3725  0.3814 -0.1335
  130MOL0     N17432   2.979   1.080   6.042  0.0854 -0.5424  0.0947
  130MOL0     C17433   2.843   1.070   6.071  0.0259 -0.1221 -0.2846
  130MOL0     C17434   2.798   1.201   6.051  1.0400  0.3099 -0.0182
  130MOL0     C17435   2.654   1.246   6.047  0.2199  0.3993 -0.0660
  130MOL0     C17436   2.625   1.376   6.127 -0.3006  0.1228  0.0519
  130MOL0     C17437   2.490   1.430   6.071 -0.0630 -0.6191 -0.2958
  130MOL0     C17438   2.423   1.521   6.177  0.6211  0.0042  0.6202
  130MOL0     O17439   2.322   1.600   6.101 -0.7689 -0.1933  0.0841
  130MOL0     C17440   2.215   1.654   6.165 -0.2622  0.2043  0.0145
  130MOL0     C17441   2.137   1.734   6.087 -0.0409 -0.2573  0.7865
  130MOL0     C17442   2.029   1.805   6.130 -0.0829  0.2208 -0.0601
  130MOL0     C17443   1.935   1.875   6.037 -0.3135 -0.1018  0.6592
  130MOL0     C17444   1.997   1.806   6.269  0.4073  0.2649 -0.4420
  130MOL0     C17445   1.892   1.881   6.334  0.7167  0.3327 -0.0116
  130MOL0     O17446   1.805   1.810   6.402 -0.2398 -0.0303  0.0967
  130MOL0     C17447   1.688   1.867   6.451  0.2540  0.2068  0.0398
  130MOL0     C17448   1.611   1.960   6.376  0.7998  0.2811 -0.0130
  130MOL0     C17449   1.482   1.987   6.416  0.1958 -0.1226  0.1558
  130MOL0     C17450   1.424   1.938   6.529 -0.0405 -0.3379  0.0975
  130MOL0     O17451   1.305   2.005   6.565  0.3985 -0.0814  0.0737
  130MOL0     C17452   1.214   1.928   6.640  0.0203 -0.7854 -0.6656
  130MOL0     C17453   1.073   1.992   6.641  0.8645 -0.0135  0.2549
  130MOL0     C17454   1.021   1.960   6.501 -0.3474 -1.1485  0.0496
  130MOL0     C17455   0.889   2.040   6.473  0.1910 -0.2221  0.9445
  130MOL0     C17456   0.811   1.994   6.349 -0.6352 -0.1077  0.4609
  130MOL0     C17457   0.700   2.093   6.313  0.3077 -0.0230  0.1836
  130MOL0     C17458   0.618   2.043   6.200  0.8965 -0.0284  0.2908
  130MOL0     C17459   0.504   2.121   6.142 -0.0582  0.6436 -0.2236
  130MOL0    Cl17460   0.496   2.065   5.971 -0.0674  0.1442 -0.3613
  130MOL0     C17461   1.497   1.846   6.608 -0.0270 -0.0460  0.5597
  130MOL0     C17462   1.629   1.815   6.568  0.5012 -0.9006  1.0064
  130MOL0     O17463   1.901   2.001   6.333  0.6078 -0.1098  0.7245
  130MOL0     C17464   2.067   1.718   6.354  0.3614 -0.2148 -0.4878
  130MOL0     C17465   2.180   1.651   6.305  0.6451 -1.1739  0.3195
  130MOL0     N17466   2.900   1.279   6.021  0.2838 -0.3458  0.4135
  130MOL0     N17467   3.009   1.213   6.025  0.6063  0.0349 -0.1785
  130MOL0     C17468   4.083   0.578   6.026  0.8557  0.1053 -0.5159
  130MOL0     C17469   4.220   0.569   5.988  0.3629 -0.1646  1.1266
  130MOL0     C17470   4.656   0.538   5.985 -0.0790  0.7740 -0.2989
  130MOL0     C17471   4.704   0.418   5.923  0.4614  0.1015 -0.2639
  130MOL0     C17472   4.842   0.398   5.908  0.3191 -0.3063  1.0922
  130MOL0     C17473   4.935   0.487   5.962  0.5753  0.5218 -0.0363
  130MOL0     O17474   5.059   0.437   5.951 -0.1846 -0.4922  0.3263
  130MOL0     C17475   5.152   0.517   5.878 -0.0965  0.8139  0.0965
  130MOL0     C17476   5.281   0.445   5.862  0.8920 -0.2083  0.5080
  130MOL0     C17477   5.267   0.330   5.765 -0.5150  0.1922  0.7786
  130MOL0     C17478   5.371   0.222   5.790 -0.6743  0.1322  0.3789
  130MOL0     C17479   5.505   0.276   5.772 -0.7808 -0.0116 -0.2953
  130MOL0     C17480   5.613   0.322   5.763 -1.1092 -0.4157 -0.2813
  130MOL0     C17481   4.889   0.614   6.004  0.2337 -0.6472 -0.2453
  130MOL0     C17482   4.751   0.634   6.026  0.1541 -0.2125  0.1249
  130MOL0     H17483   4.254   0.244   6.081  0.1222  0.4662  0.9945
  130MOL0     H17484   4.017   0.269   6.103  1.2453 -1.8733 -0.5323
  130MOL0     H17485   3.837   0.673   6.029  1.4109 -1.3919 -0.0346
  130MOL0     H17486   3.773   0.558   5.919  0.1971  6.0775 -1.1405
  130MOL0     H17487   3.614   0.511   6.150 -0.6529  0.6370 -1.0006
  130MOL0     H17488   3.688   0.651   6.200 -1.0233  0.2219  0.0387
  130MOL0     H17489   3.620   0.784   6.011 -1.4744  0.8072  0.0679
  130MOL0     H17490   3.515   0.651   5.950  0.9386  1.3750 -1.2476
  130MOL0     H17491   3.418   0.646   6.182  2.9870 -1.9516 -0.3788
  130MOL0     H17492   3.519   0.783   6.220 -2.0084  2.7456 -0.0729
  130MOL0     H17493   3.310   0.888   6.190  0.7521  2.1650 -0.3589
  130MOL0     H17494   3.429   0.930   6.067 -0.9181  1.2162 -0.0533
  130MOL0     H17495   3.328   0.784   5.909 -1.1861  2.4387 -1.3340
  130MOL0     H17496   3.212   0.725   6.031  1.5067  0.0090  0.8259
  130MOL0     H17497   3.205   1.008   5.905 -1.5765 -0.4354 -1.9780
  130MOL0     H17498   3.098   0.873   5.888 -0.4188 -0.1754 -0.1786
  130MOL0     H17499   3.154   1.031   6.147  0.3210 -2.2429  1.3310
  130MOL0     H17500   3.043   0.902   6.146  0.4353 -1.2993 -1.5207
  130MOL0     H17501   2.791   0.979   6.097  0.2234 -0.4631 -1.0618
  130MOL0     H17502   2.627   1.264   5.942  1.0013 -0.6455 -0.4544
  130MOL0     H17503   2.585   1.173   6.090  2.1353 -1.3557  0.1671
  130MOL0     H17504   2.703   1.452   6.122  0.0758 -0.1906  0.9106
  130MOL0     H17505   2.614   1.350   6.233  2.2235  0.0435  0.3500
  130MOL0     H17506   2.415   1.356   6.044  0.3910 -0.3046 -2.6350
  130MOL0     H17507   2.507   1.480   5.975 -0.0127 -1.0950 -0.5382
  130MOL0     H17508   2.501   1.588   6.216 -0.4485  0.7805  1.4928
  130MOL0     H17509   2.378   1.461   6.257  0.6580 -0.6407  0.1687
  130MOL0     H17510   2.157   1.727   5.980 -1.3567  1.1947  0.3965
  130MOL0     H17511   1.972   1.978   6.040 -0.9278  0.1554 -0.1745
  130MOL0     H17512   1.942   1.846   5.932  2.0639  0.3953  0.6202
  130MOL0     H17513   1.830   1.887   6.065  0.0070  3.3766  0.8988
  130MOL0     H17514   1.648   1.998   6.282  4.0731  2.9435  2.1267
  130MOL0     H17515   1.429   2.064   6.361  0.8711  0.4644  0.3119
  130MOL0     H17516   1.196   1.827   6.602 -0.0940 -1.5772  1.3905
  130MOL0     H17517   1.255   1.914   6.741  1.9491 -1.9527 -1.5457
  130MOL0     H17518   1.000   1.942   6.706 -2.3916 -0.5801 -3.5033
  130MOL0     H17519   1.072   2.099   6.664  2.9480  0.3062 -0.8709
  130MOL0     H17520   1.002   1.853   6.494 -3.8467 -0.6235  0.0203
  130MOL0     H17521   1.105   1.985   6.435 -0.1233 -2.7254 -0.2996
  130MOL0     H17522   0.825   2.024   6.560  0.8545  1.5676  1.8093
  130MOL0     H17523   0.908   2.147   6.458 -4.1494  0.2585 -3.9409
  130MOL0     H17524   0.785   1.889   6.367  1.7983 -0.9070 -0.2153
  130MOL0     H17525   0.879   1.997   6.263  2.9055  2.1830  3.1062
  130MOL0     H17526   0.629   2.091   6.397  0.3733  0.4078  0.2518
  130MOL0     H17527   0.744   2.190   6.289  2.9557 -1.0571  0.5050
  130MOL0     H17528   0.570   1.953   6.237  1.9059 -1.5167 -1.7927
  130MOL0     H17529   0.688   2.017   6.120 -1.0206 -0.4907 -1.3174
  130MOL0     H17530   0.526   2.227   6.125 -0.0573  0.5342 -0.9599
  130MOL0     H17531   0.416   2.109   6.204 -0.4234 -1.3475 -1.0426
  130MOL0     H17532   1.468   1.802   6.704 -1.3833 -1.2127 -0.3399
  130MOL0     H17533   1.690   1.749   6.629  2.4006 -0.0320  0.1318
  130MOL0     H17534   2.043   1.704   6.459  2.1442  4.4374  0.8007
  130MOL0     H17535   2.249   1.602   6.374  0.9881  2.2251  2.6531
  130MOL0     H17536   4.039   0.675   6.002  1.4934 -0.0432 -2.4848
  130MOL0     H17537   4.253   0.669   5.962  0.5425 -0.6385 -0.5831
  130MOL0     H17538   4.635   0.350   5.876  1.0025 -0.0253 -0.8922
  130MOL0     H17539   4.875   0.306   5.861 -1.0162  0.8222 -2.3731
  130MOL0     H17540   5.125   0.555   5.779 -0.3921  1.2417  0.3378
  130MOL0     H17541   5.178   0.612   5.926  0.6421  1.2188 -1.0559
  130MOL0     H17542   5.308   0.410   5.962  0.1900 -1.6772  0.2047
  130MOL0     H17543   5.359   0.514   5.829  1.7373 -1.4185 -0.1240
  130MOL0     H17544   5.275   0.366   5.662 -2.2634  1.5466  1.0747
  130MOL0     H17545   5.171   0.286   5.791 -1.0683  0.9757  0.1270
  130MOL0     H17546   5.348   0.141   5.720 -1.1135  0.2352  0.4033
  130MOL0     H17547   5.359   0.186   5.893  2.5509 -1.9642  0.1783
  130MOL0     H17548   5.708   0.365   5.736 -1.2373 -0.3848 -0.6905
  130MOL0     H17549   4.964   0.686   6.036  1.8674 -3.1755  2.0705
  130MOL0     H17550   4.708   0.728   6.061 -1.7222 -0.4042 -1.4970
  131MOL0     O17551  10.268   5.772   0.390  0.3404 -0.3780  0.2234
  131MOL0     C17552  10.301   5.734   0.278  0.4090 -0.5785  0.1813
  131MOL0     O17553  10.226   5.746   0.170 -0.1834  0.9300  0.5568
  131MOL0     C17554  10.106   5.816   0.157 -0.4329  1.2543 -0.6725
  131MOL0     C17555  10.039   5.882   0.260  0.0261 -0.0377  0.4946
  131MOL0     C17556   9.920   5.950   0.229 -0.4420  0.0798 -0.2843
  131MOL0     C17557   9.871   5.964   0.102  0.9400 -0.2229 -0.2814
  131MOL0     O17558   9.772   6.052   0.084  0.3533 -0.5030 -0.1497
  131MOL0     C17559   9.646   6.006   0.054  0.3219  0.1883 -0.1255
  131MOL0     C17560   9.562   6.020   0.184  0.2681 -0.3129 -0.2647
  131MOL0     C17561   9.415   6.043   0.145  0.4018 -0.0651  0.3775
  131MOL0     C17562   9.321   6.084   0.256 -0.6521  0.5394 -0.1287
  131MOL0     C17563   9.184   6.106   0.192  0.0598 -0.0492 -1.0166
  131MOL0     C17564   9.085   6.031   0.285  0.3164 -0.1250  1.3295
  131MOL0     C17565   8.930   6.060   0.264 -0.8595  0.0084  0.6768
  131MOL0     C17566   8.838   5.977   0.367 -1.4200 -0.6671  1.0466
  131MOL0     N17567   8.830   5.850   0.291  0.8975  0.4775  0.4584
  131MOL0     C17568   8.731   5.826   0.190 -0.2593  0.4784 -0.8045
  131MOL0     C17569   8.741   5.690   0.175  0.6410 -0.3478 -0.1194
  131MOL0     C17570   8.642   5.617   0.090  0.0096  0.5694  0.7013
  131MOL0     C17571   8.497   5.634   0.131  0.2001 -0.6448  0.2273
  131MOL0     C17572   8.399   5.559   0.042 -0.3434 -0.3391  0.1918
  131MOL0     C17573   8.249   5.551   0.086 -0.5947  1.1448  0.3345
  131MOL0     O17574   8.191   5.450  -0.004  0.1174 -0.5058  0.4389
  131MOL0     C17575   8.059   5.441  -0.011 -0.1187  0.0389 -0.6392
  131MOL0     C17576   8.001   5.407  -0.129 -0.4617 -0.2355  0.1395
  131MOL0     C17577   7.860   5.394  -0.141 -0.3415 -0.4713 -0.1458
  131MOL0     C17578   7.807   5.402  -0.285 -0.3261 -0.4343 -0.5397
  131MOL0     C17579   7.777   5.390  -0.019  0.0430  0.0282 -0.3568
  131MOL0     C17580   7.621   5.388  -0.019 -0.2450 -0.3487 -0.0314
  131MOL0     O17581   7.555   5.328  -0.130 -0.0622 -0.1741 -1.0348
  131MOL0     C17582   7.416   5.319  -0.110  0.2287 -0.4341  0.3817
  131MOL0     C17583   7.345   5.422  -0.164  0.8179 -0.5078 -0.1585
  131MOL0     C17584   7.199   5.422  -0.173 -0.1084 -0.1400 -0.5767
  131MOL0     C17585   7.134   5.315  -0.109 -0.3108 -1.1543  0.4801
  131MOL0     O17586   7.001   5.312  -0.097 -0.0359  0.6179  0.4815
  131MOL0     C17587   6.913   5.379  -0.191 -1.1489  0.4446 -0.1149
  131MOL0     C17588   6.777   5.327  -0.156  0.0892  0.1398  0.0765
  131MOL0     C17589   6.660   5.401  -0.219 -0.4125  0.4173 -0.1886
  131MOL0     C17590   6.538   5.394  -0.127  0.4558  0.2161  0.3012
  131MOL0     C17591   6.419   5.476  -0.182 -0.2502  0.3970 -0.7435
  131MOL0     C17592   6.302   5.477  -0.085  0.1044  0.0509 -0.3499
  131MOL0     C17593   6.172   5.529  -0.154 -0.4206  0.3290  0.1357
  131MOL0     C17594   6.068   5.553  -0.055 -0.9526 -1.0801  0.5602
  131MOL0    Cl17595   6.002   5.406   0.016  0.1713  0.3154 -0.1042
  131MOL0     C17596   7.206   5.216  -0.038 -0.2048 -0.2485 -0.2357
  131MOL0     C17597   7.350   5.211  -0.050  0.6272 -0.0130  0.3678
  131MOL0     O17598   7.564   5.424   0.082 -0.2932  0.2747  0.1683
  131MOL0     C17599   7.844   5.404   0.100  0.2503 -0.2213 -0.5315
  131MOL0     C17600   7.980   5.425   0.104  0.0148 -0.4885  0.3349
  131MOL0     N17601   8.834   5.642   0.262  0.5645 -0.9760  0.1280
  131MOL0     N17602   8.892   5.738   0.326  0.3849  0.9587 -0.4972
  131MOL0     C17603   9.937   5.899  -0.005 -0.8601  0.2302 -0.8273
  131MOL0     C17604  10.060   5.827   0.026  1.3182 -0.6893  0.0281
  131MOL0     C17605  10.423   5.661   0.266 -0.3148 -0.0220  0.9740
  131MOL0     C17606  10.507   5.647   0.379  0.1782 -0.3819 -0.3893
  131MOL0     C17607  10.624   5.577   0.360  1.4747  0.1349 -0.5831
  131MOL0     C17608  10.659   5.511   0.244  0.1148  0.6083  0.2466
  131MOL0     O17609  10.770   5.444   0.243 -0.6457 -0.2084  0.0378
  131MOL0     C17610  10.865   5.466   0.134 -0.8030 -0.6239 -0.4806
  131MOL0     C17611  10.933   5.606   0.129  0.3613 -0.7482 -0.6560
  131MOL0     C17612  11.047   5.622   0.027 -0.0647  0.1935 -0.1989
  131MOL0     C17613  11.011   5.618  -0.122 -0.2972  0.0945 -0.9859
  131MOL0     C17614  11.137   5.622  -0.208  1.1623 -0.5435 -0.2263
  131MOL0     C17615  11.240   5.636  -0.275  0.2830 -0.8473 -0.0615
  131MOL0     C17616  10.576   5.525   0.132  0.1484  0.0429  0.6105
  131MOL0     C17617  10.455   5.591   0.144  0.5644 -0.4147  0.1470
  131MOL0     H17618  10.062   5.882   0.366 -0.7761 -0.0604  0.6782
  131MOL0     H17619   9.872   6.002   0.311  0.3312  0.0405  0.2005
  131MOL0     H17620   9.604   6.069  -0.024 -0.9970 -1.6964 -1.0158
  131MOL0     H17621   9.659   5.905   0.014 -1.7980 -0.1648 -0.0451
  131MOL0     H17622   9.572   5.932   0.249 -0.0887 -1.1483 -1.3133
  131MOL0     H17623   9.607   6.103   0.239  0.2455  0.9962 -2.1512
  131MOL0     H17624   9.403   6.114   0.063 -3.1975 -1.3944 -0.4185
  131MOL0     H17625   9.372   5.946   0.118  1.2617 -0.9446  2.0140
  131MOL0     H17626   9.319   6.010   0.336  1.9271  1.1216  0.5590
  131MOL0     H17627   9.358   6.176   0.302 -3.5001  1.7763 -0.1041
  131MOL0     H17628   9.157   6.211   0.180 -2.5757 -0.7842 -2.4110
  131MOL0     H17629   9.183   6.067   0.090 -0.8577  2.1424 -1.8999
  131MOL0     H17630   9.105   5.925   0.266  2.5962  0.5938 -0.9130
  131MOL0     H17631   9.129   6.054   0.383  5.9785 -0.3593 -0.7514
  131MOL0     H17632   8.918   6.165   0.293 -1.3541  0.8144 -2.2228
  131MOL0     H17633   8.893   6.046   0.162  0.5347 -2.8156  0.4805
  131MOL0     H17634   8.742   6.028   0.378 -2.2404 -1.8282 -0.4051
  131MOL0     H17635   8.880   5.952   0.465 -0.2310 -0.2427  0.6668
  131MOL0     H17636   8.650   5.891   0.158 -0.1980  0.7592 -0.3936
  131MOL0     H17637   8.670   5.650  -0.010  1.9417  0.9715  1.3301
  131MOL0     H17638   8.668   5.511   0.095 -1.7990  0.0526 -0.2856
  131MOL0     H17639   8.473   5.741   0.126  0.8922 -0.4736  0.6170
  131MOL0     H17640   8.479   5.603   0.234 -1.5440 -1.0187 -0.1477
  131MOL0     H17641   8.431   5.455   0.039  0.8323 -0.0505  1.6173
  131MOL0     H17642   8.418   5.602  -0.057  2.2927 -3.8092 -1.0024
  131MOL0     H17643   8.208   5.653   0.080 -0.4435  1.2573  1.0792
  131MOL0     H17644   8.237   5.522   0.190 -3.5190  2.5345  0.4819
  131MOL0     H17645   8.060   5.405  -0.221 -0.4067 -1.6135  0.1832
  131MOL0     H17646   7.862   5.480  -0.339 -2.0260  1.2747  0.1154
  131MOL0     H17647   7.819   5.301  -0.326  0.2873 -1.3271  1.7025
  131MOL0     H17648   7.701   5.425  -0.277 -0.4147 -1.1644  0.6542
  131MOL0     H17649   7.395   5.506  -0.210 -0.9942  0.9046  0.3420
  131MOL0     H17650   7.163   5.511  -0.223  1.6345  1.5395  1.0108
  131MOL0     H17651   6.921   5.488  -0.183  1.6032  0.3279 -0.0483
  131MOL0     H17652   6.934   5.348  -0.294 -2.3287 -1.5364  0.1884
  131MOL0     H17653   6.779   5.221  -0.183  3.2172 -0.0004  0.5996
  131MOL0     H17654   6.767   5.320  -0.047 -2.9356  0.8614 -0.0620
  131MOL0     H17655   6.636   5.349  -0.313 -2.5257  0.2491  0.3926
  131MOL0     H17656   6.700   5.500  -0.247  0.6619 -0.2133 -0.9593
  131MOL0     H17657   6.508   5.289  -0.119 -1.3800  0.3380 -3.1918
  131MOL0     H17658   6.575   5.441  -0.036  0.7422  0.5571  0.0095
  131MOL0     H17659   6.388   5.415  -0.268  0.1604  1.3828 -1.6067
  131MOL0     H17660   6.436   5.580  -0.212 -0.0237  0.7001  0.3880
  131MOL0     H17661   6.280   5.374  -0.058 -2.5489  0.7522  0.3719
  131MOL0     H17662   6.323   5.534   0.006  2.5800 -0.7519 -0.3179
  131MOL0     H17663   6.142   5.465  -0.237 -0.0857  0.7785 -0.3420
  131MOL0     H17664   6.198   5.627  -0.195 -0.7744  1.0353  1.5247
  131MOL0     H17665   5.987   5.600  -0.111  0.1514  1.0279  0.6283
  131MOL0     H17666   6.113   5.627   0.011 -0.7048  0.6655 -1.4460
  131MOL0     H17667   7.154   5.145   0.026  4.1392 -1.9827  1.8243
  131MOL0     H17668   7.404   5.129  -0.003 -1.1777  0.9356  4.5425
  131MOL0     H17669   7.790   5.403   0.194 -1.5290  3.7066 -1.3055
  131MOL0     H17670   8.025   5.430   0.202  1.5737 -1.0392 -0.3262
  131MOL0     H17671   9.895   5.901  -0.104 -0.7829 -2.6976 -0.9938
  131MOL0     H17672  10.122   5.775  -0.047  3.8743  0.2517  1.3956
  131MOL0     H17673  10.474   5.682   0.476 -1.8047  3.7023 -2.2892
  131MOL0     H17674  10.676   5.546   0.450 -0.5125 -4.5428 -0.7613
  131MOL0     H17675  10.940   5.388   0.126  1.7332  1.8422 -3.1752
  131MOL0     H17676  10.812   5.437   0.042  0.5196 -1.0039 -1.1462
  131MOL0     H17677  10.970   5.646   0.224 -0.0706  0.3024 -0.9166
  131MOL0     H17678  10.851   5.676   0.110 -0.1324 -0.9701  0.5431
  131MOL0     H17679  11.119   5.540   0.037 -2.2080 -2.1453 -2.3490
  131MOL0     H17680  11.097   5.719   0.039 -1.8423  1.5611 -2.8434
  131MOL0     H17681  10.957   5.708  -0.155 -0.7693  0.3714  0.4492
  131MOL0     H17682  10.976   5.515  -0.134  3.0249 -1.6826  2.4671
  131MOL0     H17683  11.316   5.674  -0.340 -0.7042 -0.7436 -1.1974
  131MOL0     H17684  10.613   5.468   0.048  2.8949 -1.0594  2.4359
  131MOL0     H17685  10.380   5.588   0.065  2.1028  0.2095 -1.3905
  132MOL0     O17686   1.834   1.261   6.267 -0.0828 -0.2974 -0.2502
  132MOL0     C17687   1.879   1.235   6.379  0.7652 -0.2627  0.5038
  132MOL0     O17688   1.809   1.248   6.494 -0.5594  0.3375 -0.4315
  132MOL0     C17689   1.677   1.286   6.484 -0.7618 -0.5034  0.2622
  132MOL0     C17690   1.580   1.182   6.454  0.0004  0.1313  0.8537
  132MOL0     C17691   1.439   1.214   6.436 -0.4045 -0.2850 -1.1964
  132MOL0     C17692   1.400   1.349   6.447 -0.1478  0.0140 -0.0784
  132MOL0     O17693   1.280   1.413   6.430  0.0251 -0.7800  0.1774
  132MOL0     C17694   1.189   1.349   6.338 -1.1137  0.1047  0.8003
  132MOL0     C17695   1.060   1.424   6.324  0.1877  0.1990  0.4510
  132MOL0     C17696   1.097   1.562   6.267  0.1472 -0.5261 -0.5197
  132MOL0     C17697   0.971   1.649   6.233 -0.6431  0.0107 -0.6147
  132MOL0     C17698   0.876   1.584   6.134 -0.8576 -0.6261 -1.2515
  132MOL0     C17699   0.784   1.690   6.078  0.4472 -0.1913  0.3379
  132MOL0     C17700   0.686   1.627   5.976  0.2780 -0.8583 -0.2312
  132MOL0     C17701   0.577   1.728   5.948  0.9788  0.3271 -0.3519
  132MOL0     N17702   0.466   1.656   5.883 -0.1370 -0.3504 -0.5581
  132MOL0     C17703   0.449   1.648   5.746 -0.0983 -0.5568 -0.3559
  132MOL0     C17704   0.334   1.573   5.743  0.3287 -0.0059  0.0550
  132MOL0     C17705   0.296   1.523   5.604 -0.3958 -0.9455 -0.6175
  132MOL0     C17706   0.211   1.636   5.535 -0.6386 -0.3430  0.6484
  132MOL0     C17707   0.074   1.657   5.615  0.3169 -0.2218  0.4677
  132MOL0     C17708  -0.022   1.742   5.533  0.3274 -0.0378  0.1268
  132MOL0     O17709  -0.057   1.695   5.404 -0.1095 -0.2745  0.3435
  132MOL0     C17710  -0.128   1.789   5.330 -0.9572 -0.1542  0.1500
  132MOL0     C17711  -0.074   1.878   5.236 -0.3127  0.8319  0.0497
  132MOL0     C17712  -0.150   1.959   5.153 -0.3520 -0.3241  0.0014
  132MOL0     C17713  -0.086   2.058   5.056  0.3534 -0.5582 -0.1546
  132MOL0     C17714  -0.291   1.949   5.164 -0.1462 -0.4678  0.1064
  132MOL0     C17715  -0.381   2.035   5.095 -0.5349  0.2600 -0.7600
  132MOL0     O17716  -0.422   2.143   5.168  0.5979 -0.2166 -0.4981
  132MOL0     C17717  -0.526   2.223   5.127  0.1967  0.8112 -0.3874
  132MOL0     C17718  -0.654   2.156   5.125 -1.1937 -0.1186  0.0523
  132MOL0     C17719  -0.761   2.232   5.080 -0.4748  0.3195 -0.2844
  132MOL0     C17720  -0.749   2.367   5.034 -0.2904  0.4210 -0.9095
  132MOL0     O17721  -0.854   2.443   5.015 -0.2545 -0.3409  0.2075
  132MOL0     C17722  -0.942   2.469   5.130  0.6181  0.2739  0.3628
  132MOL0     C17723  -1.072   2.540   5.101  0.8782  0.4340  0.0774
  132MOL0     C17724  -1.160   2.460   5.010  0.3489  0.1433  0.6919
  132MOL0     C17725  -1.300   2.514   4.978 -1.1919  0.0530  0.6970
  132MOL0     C17726  -1.377   2.406   4.905 -0.0614  0.4676 -0.2547
  132MOL0     C17727  -1.504   2.464   4.863  0.0942 -0.2015  0.2207
  132MOL0     C17728  -1.557   2.387   4.727 -0.2703  1.0134 -0.2013
  132MOL0     C17729  -1.701   2.337   4.743  0.1346 -0.7631 -0.2315
  132MOL0    Cl17730  -1.753   2.244   4.610 -0.2656  0.5633  0.0039
  132MOL0     C17731  -0.623   2.422   5.029  0.8780 -0.3121 -0.5241
  132MOL0     C17732  -0.513   2.352   5.077  0.2983  0.6789  0.0566
  132MOL0     O17733  -0.415   2.012   4.985  0.7088 -0.1955  0.5044
  132MOL0     C17734  -0.351   1.870   5.264 -0.7687 -0.2453  0.2404
  132MOL0     C17735  -0.269   1.785   5.340  1.0339 -0.3214  0.7668
  132MOL0     N17736   0.282   1.543   5.863  0.0090 -0.2337  0.4018
  132MOL0     N17737   0.363   1.595   5.949  0.2392 -0.0528  0.2957
  132MOL0     C17738   1.500   1.447   6.484 -0.2956 -0.4303 -0.1471
  132MOL0     C17739   1.632   1.419   6.499  0.3730 -0.0795 -0.7103
  132MOL0     C17740   2.017   1.186   6.387 -0.6887 -0.1293 -0.3026
  132MOL0     C17741   2.059   1.119   6.503 -0.1291 -0.4216 -0.2003
  132MOL0     C17742   2.190   1.077   6.517 -0.2415  0.1652 -0.6794
  132MOL0     C17743   2.283   1.094   6.417  0.0484 -0.7350 -0.1182
  132MOL0     O17744   2.413   1.065   6.423 -0.2024 -0.7201  0.1293
  132MOL0     C17745   2.454   0.966   6.510  0.8063  0.6719 -0.4507
  132MOL0     C17746   2.594   0.936   6.474  0.1170 -0.2903 -0.4526
  132MOL0     C17747   2.613   0.853   6.343 -0.0352  0.9175 -0.0517
  132MOL0     C17748   2.758   0.788   6.349  0.8754 -0.4175  0.7512
  132MOL0     C17749   2.801   0.724   6.224  1.0772  0.1285 -0.1698
  132MOL0     C17750   2.818   0.682   6.108  0.0292 -0.6300 -0.0708
  132MOL0     C17751   2.243   1.157   6.300 -0.4944  0.3656  0.1655
  132MOL0     C17752   2.111   1.205   6.282 -0.2356  0.1017  0.0486
  132MOL0     H17753   1.608   1.078   6.440  3.0530  0.9930 -0.2225
  132MOL0     H17754   1.362   1.140   6.415  0.5958 -2.2861  1.4959
  132MOL0     H17755   1.226   1.330   6.237 -1.3133  2.2623  0.2763
  132MOL0     H17756   1.171   1.249   6.379  0.9538 -1.2204 -1.3094
  132MOL0     H17757   1.001   1.376   6.246  2.2400 -0.0334 -1.0143
  132MOL0     H17758   1.008   1.445   6.418 -1.2704 -2.8228  0.4483
  132MOL0     H17759   1.157   1.617   6.339  1.2204  0.1104 -1.8551
  132MOL0     H17760   1.161   1.541   6.181  0.7096  0.5606 -0.3808
  132MOL0     H17761   0.917   1.677   6.324 -0.3408  0.8647 -0.6877
  132MOL0     H17762   1.004   1.744   6.189 -1.1808 -0.2259 -1.5542
  132MOL0     H17763   0.934   1.533   6.057 -0.3967  0.1860 -1.4525
  132MOL0     H17764   0.817   1.508   6.186  1.2604 -1.3626  0.2130
  132MOL0     H17765   0.728   1.741   6.156 -1.3989 -1.3786 -0.1486
  132MOL0     H17766   0.841   1.772   6.032  0.6667  0.0394  1.0120
  132MOL0     H17767   0.722   1.601   5.876  1.7142 -4.2125  0.9993
  132MOL0     H17768   0.642   1.533   6.013 -1.8749  1.0791  2.5581
  132MOL0     H17769   0.612   1.814   5.891  0.4518  0.5687 -0.3174
  132MOL0     H17770   0.542   1.763   6.046 -0.1666 -0.6250 -0.3873
  132MOL0     H17771   0.520   1.677   5.669 -2.8301  2.6208 -1.9298
  132MOL0     H17772   0.382   1.493   5.543 -0.2052 -1.3521 -0.1555
  132MOL0     H17773   0.232   1.435   5.612 -1.1714 -0.3109  0.2450
  132MOL0     H17774   0.174   1.602   5.438 -0.1043 -2.6925  1.1864
  132MOL0     H17775   0.275   1.724   5.541  0.4682 -1.1460  1.1011
  132MOL0     H17776   0.100   1.709   5.707  1.3823  1.6934 -0.8318
  132MOL0     H17777   0.022   1.565   5.646 -1.9679  1.5604  2.2517
  132MOL0     H17778   0.013   1.846   5.533 -0.6683  0.3493  1.8972
  132MOL0     H17779  -0.115   1.755   5.590  0.4600  0.0235  0.3291
  132MOL0     H17780   0.034   1.872   5.233 -0.2734  1.3694  0.2481
  132MOL0     H17781  -0.097   2.158   5.100  1.2277 -1.0525  1.2813
  132MOL0     H17782   0.021   2.034   5.052  0.7771  1.0033  0.5694
  132MOL0     H17783  -0.119   2.058   4.952  1.6719  0.0602 -0.5945
  132MOL0     H17784  -0.668   2.052   5.153 -0.3217 -0.6758 -1.4923
  132MOL0     H17785  -0.860   2.189   5.093  0.2787 -1.3835  0.1434
  132MOL0     H17786  -0.967   2.370   5.169 -0.7697 -0.3615 -1.9958
  132MOL0     H17787  -0.891   2.533   5.203 -0.3097  0.9318  0.4403
  132MOL0     H17788  -1.129   2.555   5.193  2.7847  2.1084  1.0758
  132MOL0     H17789  -1.041   2.635   5.056 -1.5969 -0.5987 -4.4218
  132MOL0     H17790  -1.177   2.360   5.052  0.0388  0.5264  1.4882
  132MOL0     H17791  -1.103   2.461   4.916 -0.5290  0.7928  0.1504
  132MOL0     H17792  -1.356   2.547   5.066 -2.6114  0.5537 -0.3550
  132MOL0     H17793  -1.288   2.604   4.917  1.4264 -0.7187 -0.0589
  132MOL0     H17794  -1.396   2.322   4.973  0.9488  1.5390  1.4244
  132MOL0     H17795  -1.316   2.358   4.828  5.3464  0.2642  3.5334
  132MOL0     H17796  -1.580   2.454   4.940 -1.4870  3.4693 -0.6079
  132MOL0     H17797  -1.495   2.570   4.834 -1.2280 -0.3810 -0.9628
  132MOL0     H17798  -1.501   2.293   4.733  0.7575  1.5915 -0.4817
  132MOL0     H17799  -1.534   2.442   4.635 -0.6915  1.5215 -0.0131
  132MOL0     H17800  -1.773   2.419   4.754  1.8609  0.6968  0.8937
  132MOL0     H17801  -1.710   2.278   4.834 -1.3165  2.4011  1.8636
  132MOL0     H17802  -0.615   2.529   5.011 -1.7469  0.4089  1.8838
  132MOL0     H17803  -0.416   2.400   5.083 -0.0511  1.5091 -0.7417
  132MOL0     H17804  -0.458   1.883   5.273 -0.7647  0.7849 -0.9531
  132MOL0     H17805  -0.326   1.724   5.409  0.3454 -1.5671 -0.8143
  132MOL0     H17806   1.473   1.551   6.499 -1.0652 -0.8114  1.2317
  132MOL0     H17807   1.683   1.508   6.534 -1.7672 -0.3271  3.6754
  132MOL0     H17808   1.992   1.094   6.585 -1.1821 -0.5619 -1.0817
  132MOL0     H17809   2.212   1.030   6.612 -0.5337  0.3885 -0.4956
  132MOL0     H17810   2.451   1.003   6.613 -1.1468  0.4338 -0.3824
  132MOL0     H17811   2.390   0.878   6.505  4.5742 -2.5912  2.2926
  132MOL0     H17812   2.649   0.884   6.553 -0.3539 -0.5490 -0.2910
  132MOL0     H17813   2.654   1.027   6.465 -1.5591  0.8376 -0.7807
  132MOL0     H17814   2.591   0.903   6.248 -3.8153 -1.0290 -0.3779
  132MOL0     H17815   2.543   0.769   6.347 -0.0877  1.0102  1.2835
  132MOL0     H17816   2.760   0.710   6.426  1.3326  1.1086  2.3529
  132MOL0     H17817   2.830   0.867   6.370 -0.2931  1.8515 -2.9232
  132MOL0     H17818   2.802   0.642   6.009 -1.9848 -1.7004  0.6077
  132MOL0     H17819   2.313   1.170   6.218  1.6422  0.2229  1.8790
  132MOL0     H17820   2.094   1.250   6.185  2.3273 -2.1378 -1.5865
  133MOL0     O17821   6.976   0.920   8.895  0.5978 -0.1928 -0.3007
  133MOL0     C17822   6.992   1.033   8.856 -0.2809 -0.6655  0.7992
  133MOL0     O17823   6.898   1.126   8.816  0.5187 -0.3695 -0.2252
  133MOL0     C17824   6.772   1.083   8.794  0.1577  0.5222  0.0624
  133MOL0     C17825   6.682   1.065   8.898 -0.1300 -0.1829  0.6178
  133MOL0     C17826   6.550   1.035   8.882  0.0382 -0.0475  0.2172
  133MOL0     C17827   6.497   1.022   8.757  0.0986 -0.9065 -0.8885
  133MOL0     O17828   6.370   0.980   8.737 -0.2661  0.2133 -0.2257
  133MOL0     C17829   6.299   1.055   8.632  0.0488  0.7208  0.1960
  133MOL0     C17830   6.149   1.029   8.657 -0.1412  0.1288 -0.1775
  133MOL0     C17831   6.101   1.090   8.790 -0.2467 -0.2430 -0.3724
  133MOL0     C17832   5.957   1.047   8.816 -0.2726  0.2752  0.1637
  133MOL0     C17833   5.853   1.120   8.733  0.1615  1.3785 -0.6640
  133MOL0     C17834   5.716   1.071   8.779 -0.9872 -0.8414  0.1369
  133MOL0     C17835   5.604   1.140   8.699 -0.9973  0.1390  0.1072
  133MOL0     C17836   5.475   1.079   8.741 -0.8499 -0.5404 -0.1794
  133MOL0     N17837   5.386   1.107   8.628  0.2593  0.5579  0.3043
  133MOL0     C17838   5.287   1.199   8.627 -0.7578  0.3028 -1.0011
  133MOL0     C17839   5.211   1.175   8.516  0.2708  0.4323 -1.2435
  133MOL0     C17840   5.099   1.267   8.468 -0.2271  0.1735  0.5267
  133MOL0     C17841   4.959   1.203   8.485  0.7421 -0.2018  0.1758
  133MOL0     C17842   4.938   1.121   8.614  0.4764 -0.4549  0.5822
  133MOL0     C17843   4.793   1.068   8.625 -0.5371  0.2593  1.0948
  133MOL0     O17844   4.709   1.179   8.644  0.7765  0.2197 -0.3483
  133MOL0     C17845   4.590   1.154   8.718  0.3418  0.4894 -0.0958
  133MOL0     C17846   4.588   1.202   8.848 -0.1139  0.2278 -0.4088
  133MOL0     C17847   4.487   1.164   8.935 -0.2497 -0.9441 -0.2777
  133MOL0     C17848   4.492   1.225   9.069 -0.0864  0.2583 -0.5814
  133MOL0     C17849   4.387   1.071   8.886 -0.0804 -0.0016  0.9491
  133MOL0     C17850   4.281   1.019   8.969  0.5354  0.2175  0.7163
  133MOL0     O17851   4.202   0.904   8.923 -0.1080 -0.7865 -0.1933
  133MOL0     C17852   4.125   0.832   9.007  0.1469  0.3243  0.4150
  133MOL0     C17853   4.020   0.878   9.085 -0.1324  0.2524 -0.1257
  133MOL0     C17854   3.939   0.796   9.168  0.1013 -0.7933  0.0009
  133MOL0     C17855   3.965   0.658   9.171 -0.2085 -0.6389  0.1512
  133MOL0     O17856   3.890   0.570   9.245  0.4682 -0.7868 -0.0791
  133MOL0     C17857   3.748   0.582   9.240 -0.1335  0.3983 -0.0517
  133MOL0     C17858   3.687   0.476   9.331 -0.4107 -0.1343 -0.0703
  133MOL0     C17859   3.531   0.494   9.324 -0.0234 -0.1641  0.8663
  133MOL0     C17860   3.466   0.414   9.209 -0.8547 -0.6149  0.1253
  133MOL0     C17861   3.321   0.374   9.257 -0.9645 -0.0710  0.4620
  133MOL0     C17862   3.250   0.299   9.142  0.3086 -0.7383  0.5718
  133MOL0     C17863   3.103   0.259   9.176 -0.2734 -0.5179  0.1407
  133MOL0     C17864   3.044   0.197   9.043  0.2104 -0.1263 -0.3392
  133MOL0    Cl17865   2.873   0.148   9.060  0.0714  0.1671  0.0852
  133MOL0     C17866   4.079   0.612   9.109  0.4825 -0.9062 -0.0834
  133MOL0     C17867   4.159   0.699   9.030 -0.2551 -0.3199 -0.2132
  133MOL0     O17868   4.258   1.076   9.079  0.1491 -0.6373 -0.0656
  133MOL0     C17869   4.383   1.029   8.750 -0.2257 -0.3420  0.6497
  133MOL0     C17870   4.483   1.081   8.665 -0.6371  0.2444 -0.5595
  133MOL0     N17871   5.252   1.057   8.466 -0.6985 -0.0759 -0.2239
  133MOL0     N17872   5.349   1.010   8.527  0.0182 -0.1462  0.5818
  133MOL0     C17873   6.579   1.036   8.646  0.7298 -0.4296  0.4230
  133MOL0     C17874   6.719   1.061   8.666 -0.9767  0.4088  0.1880
  133MOL0     C17875   7.124   1.083   8.845 -0.3404  0.8789 -0.0192
  133MOL0     C17876   7.232   1.038   8.919 -0.1522  0.4591  0.6147
  133MOL0     C17877   7.364   1.075   8.886  1.2169  0.3181 -0.1784
  133MOL0     C17878   7.390   1.159   8.776 -1.1499 -1.2770 -0.2644
  133MOL0     O17879   7.511   1.207   8.741 -0.1323  0.4813  0.0007
  133MOL0     C17880   7.635   1.157   8.794 -0.9988  0.6200  0.1743
  133MOL0     C17881   7.696   1.063   8.689 -0.8189  0.6791 -0.0549
  133MOL0     C17882   7.827   0.994   8.745 -0.4359 -0.3924 -0.0676
  133MOL0     C17883   7.888   0.909   8.635 -0.6478 -0.3202 -0.1823
  133MOL0     C17884   7.994   0.985   8.561  0.0332  0.2631  0.1315
  133MOL0     C17885   8.083   1.032   8.497  0.4017 -0.8360 -0.2745
  133MOL0     C17886   7.281   1.221   8.719 -0.7984  0.0990  0.1863
  133MOL0     C17887   7.152   1.176   8.738 -0.3943 -0.5182 -1.1215
  133MOL0     H17888   6.717   1.066   9.000 -0.4500 -0.7794  0.7377
  133MOL0     H17889   6.491   1.021   8.972 -0.4834  0.3834 -0.0499
  133MOL0     H17890   6.313   1.164   8.637 -0.0482  0.9404 -2.6973
  133MOL0     H17891   6.315   1.023   8.529  0.8158  0.4243  0.3994
  133MOL0     H17892   6.089   1.060   8.571  0.6837 -4.8146 -2.8866
  133MOL0     H17893   6.123   0.923   8.655  0.2065 -0.0010  1.2013
  133MOL0     H17894   6.163   1.048   8.869  0.7743 -0.3055 -1.1798
  133MOL0     H17895   6.105   1.199   8.774 -1.0397 -0.1418  0.0794
  133MOL0     H17896   5.947   0.940   8.792 -0.1727  0.3542 -0.2331
  133MOL0     H17897   5.928   1.065   8.920  0.2337  2.4734 -0.0426
  133MOL0     H17898   5.873   1.225   8.760  1.5078  0.5711  1.8510
  133MOL0     H17899   5.864   1.099   8.626 -0.8196  1.0263 -0.7027
  133MOL0     H17900   5.700   0.963   8.770 -3.1313 -0.4758 -1.2283
  133MOL0     H17901   5.700   1.089   8.886  2.9498 -0.9439  0.8848
  133MOL0     H17902   5.584   1.246   8.719 -0.1941  0.9382 -2.7944
  133MOL0     H17903   5.628   1.133   8.593 -1.6506  2.0312 -0.2126
  133MOL0     H17904   5.446   1.129   8.833 -0.1176  0.5467 -0.5158
  133MOL0     H17905   5.476   0.970   8.750 -0.0759 -0.5384 -0.1950
  133MOL0     H17906   5.272   1.280   8.697 -1.5655  0.5622 -1.4661
  133MOL0     H17907   5.107   1.360   8.526 -1.5674  1.0078 -0.5449
  133MOL0     H17908   5.114   1.279   8.361  2.5114  2.5015  1.0399
  133MOL0     H17909   4.936   1.147   8.394  1.6659 -0.1921 -0.0699
  133MOL0     H17910   4.894   1.290   8.476  1.5699  0.2103 -3.0622
  133MOL0     H17911   4.965   1.193   8.692  1.4419  1.2476 -1.2297
  133MOL0     H17912   5.005   1.036   8.599 -1.2735 -1.7845  0.0063
  133MOL0     H17913   4.790   0.987   8.699  0.7631  1.2542  2.2701
  133MOL0     H17914   4.761   1.017   8.533  1.9916 -1.4626  1.0677
  133MOL0     H17915   4.662   1.276   8.879 -0.6737  0.4973  0.3390
  133MOL0     H17916   4.480   1.146   9.144 -2.8952  1.8577  0.8403
  133MOL0     H17917   4.581   1.286   9.088 -0.4857  0.1766  1.7941
  133MOL0     H17918   4.414   1.298   9.094  2.0555  1.9658  1.6249
  133MOL0     H17919   4.010   0.986   9.079 -0.3387  0.2087 -0.6330
  133MOL0     H17920   3.849   0.837   9.212  1.5971  0.3001  2.1923
  133MOL0     H17921   3.706   0.678   9.271 -1.1549  0.0548 -0.3456
  133MOL0     H17922   3.717   0.564   9.136  3.3419 -1.6578 -0.9077
  133MOL0     H17923   3.711   0.380   9.286 -4.0890 -0.9769 -0.5589
  133MOL0     H17924   3.733   0.490   9.430 -0.0784 -0.5306 -0.1679
  133MOL0     H17925   3.501   0.599   9.313  2.5182  0.4236 -1.9489
  133MOL0     H17926   3.494   0.454   9.419 -3.5213  2.8463  1.0200
  133MOL0     H17927   3.471   0.466   9.113 -2.7137  0.0977  0.3660
  133MOL0     H17928   3.522   0.320   9.209 -1.2634 -0.8732 -0.7613
  133MOL0     H17929   3.279   0.471   9.284 -4.6845 -1.5734  0.7003
  133MOL0     H17930   3.317   0.318   9.351  0.7719  2.0111  1.8734
  133MOL0     H17931   3.240   0.365   9.056 -0.1001  0.9601  1.8564
  133MOL0     H17932   3.292   0.201   9.118 -1.4688 -0.9438 -2.0222
  133MOL0     H17933   3.043   0.347   9.198 -0.0142 -0.3955  0.3602
  133MOL0     H17934   3.102   0.188   9.259 -0.6521  2.8415  3.2502
  133MOL0     H17935   3.106   0.111   9.013  2.3676  1.3822 -0.4606
  133MOL0     H17936   3.047   0.275   8.967  0.2332  0.2026 -0.0043
  133MOL0     H17937   4.101   0.507   9.129 -2.1609 -2.0555 -2.5530
  133MOL0     H17938   4.248   0.665   8.977 -0.9429 -1.4185 -0.6960
  133MOL0     H17939   4.309   0.955   8.720 -0.5022 -1.5730  3.9168
  133MOL0     H17940   4.496   1.057   8.560  2.1022 -0.4632 -0.1538
  133MOL0     H17941   6.553   1.033   8.541  0.0876  1.1223  0.5071
  133MOL0     H17942   6.788   1.071   8.583  0.5763  1.7488  1.5560
  133MOL0     H17943   7.201   0.960   8.988 -2.3404 -0.2130 -1.0136
  133MOL0     H17944   7.449   1.038   8.941  1.7834  1.6127 -0.1360
  133MOL0     H17945   7.695   1.248   8.798 -1.1574  0.7281  0.0472
  133MOL0     H17946   7.636   1.112   8.894  3.8279  0.3891  0.2308
  133MOL0     H17947   7.729   1.133   8.612  2.4236 -0.7370 -0.1117
  133MOL0     H17948   7.621   0.991   8.656  0.3920 -0.3767 -0.6077
  133MOL0     H17949   7.811   0.946   8.842 -1.6885  0.9746  0.4315
  133MOL0     H17950   7.904   1.071   8.757  0.8536 -1.3353 -1.7578
  133MOL0     H17951   7.808   0.866   8.574  0.4133 -0.5637 -1.4431
  133MOL0     H17952   7.937   0.829   8.690 -0.6292  0.0063  0.2818
  133MOL0     H17953   8.173   1.073   8.457  0.1132 -0.7794 -0.8747
  133MOL0     H17954   7.301   1.296   8.643 -0.6837  1.0866  1.1623
  133MOL0     H17955   7.063   1.198   8.680 -1.8026 -1.7073  0.5163
  134MOL0     O17956  10.160   9.327  10.848 -0.1999  0.7828 -0.1473
  134MOL0     C17957  10.224   9.418  10.794  0.6846 -0.8005 -0.6468
  134MOL0     O17958  10.188   9.483  10.675  0.1075 -0.4073 -0.0356
  134MOL0     C17959  10.074   9.423  10.614 -0.0091 -0.2933  0.3178
  134MOL0     C17960  10.092   9.344  10.500  0.0255  0.0845  0.8367
  134MOL0     C17961   9.981   9.306  10.425 -0.6883  0.6327  0.6102
  134MOL0     C17962   9.857   9.337  10.475  1.1800  0.7298  0.1118
  134MOL0     O17963   9.756   9.275  10.405  0.7605 -0.6280  1.1441
  134MOL0     C17964   9.625   9.342  10.422  0.0277 -0.5025 -0.2260
  134MOL0     C17965   9.543   9.325  10.286  0.2864  0.5380  0.3242
  134MOL0     C17966   9.480   9.189  10.263  0.8474 -0.1166  0.0577
  134MOL0     C17967   9.338   9.159  10.304  0.8647  0.1156 -0.5717
  134MOL0     C17968   9.277   9.021  10.257  0.6754 -0.3911  0.4385
  134MOL0     C17969   9.142   8.997  10.328  1.2396 -0.1617  0.9917
  134MOL0     C17970   9.034   9.093  10.290  0.6318 -0.2181  0.3586
  134MOL0     C17971   8.885   9.049  10.317 -0.2572  0.0279 -0.2912
  134MOL0     N17972   8.786   9.129  10.239  0.0581 -0.2386  0.8741
  134MOL0     C17973   8.750   9.092  10.112  0.7279 -0.0144 -0.7226
  134MOL0     C17974   8.654   9.184  10.081 -0.5405 -0.2183  0.4298
  134MOL0     C17975   8.578   9.187   9.957  0.8855 -0.5871  0.2945
  134MOL0     C17976   8.426   9.215   9.972  0.0325 -0.4317  0.4195
  134MOL0     C17977   8.363   9.103  10.060 -0.5649  0.4896  0.3174
  134MOL0     C17978   8.212   9.112  10.046 -0.0214 -0.4819 -0.8847
  134MOL0     O17979   8.171   9.239  10.096  1.1159 -0.1441  0.4183
  134MOL0     C17980   8.041   9.273  10.076 -0.2024 -0.0869 -0.6844
  134MOL0     C17981   8.015   9.400  10.122  0.4709 -0.1622  0.1152
  134MOL0     C17982   7.888   9.455  10.104  0.1967  0.5996  0.0125
  134MOL0     C17983   7.885   9.597  10.158  0.7100 -0.6123  0.0458
  134MOL0     C17984   7.790   9.387  10.034  1.1662 -0.8278 -0.6796
  134MOL0     C17985   7.661   9.452  10.000  0.5941 -0.5868  0.2063
  134MOL0     O17986   7.572   9.373   9.934 -0.5551 -0.9393  0.4322
  134MOL0     C17987   7.435   9.402   9.940  0.1421  0.0081 -0.4888
  134MOL0     C17988   7.356   9.335   9.848 -0.0858  0.1604  0.1371
  134MOL0     C17989   7.215   9.341   9.861  1.3776  0.2930 -0.0194
  134MOL0     C17990   7.146   9.421   9.954 -0.4934 -0.0052 -0.2854
  134MOL0     O17991   7.017   9.439   9.962 -0.0596  0.2206 -0.3789
  134MOL0     C17992   6.936   9.355   9.878 -0.6514  0.2788 -0.0267
  134MOL0     C17993   6.785   9.385   9.913 -0.1184  0.9805 -0.2986
  134MOL0     C17994   6.752   9.352  10.056  0.8494 -0.0785  0.5379
  134MOL0     C17995   6.599   9.318  10.070 -0.1674 -0.0571 -0.3512
  134MOL0     C17996   6.571   9.277  10.215  0.1632  0.3892 -0.9603
  134MOL0     C17997   6.453   9.186  10.226  0.8978 -0.3268 -0.4984
  134MOL0     C17998   6.328   9.256  10.183  0.2874 -1.1521  0.7680
  134MOL0     C17999   6.205   9.171  10.156  0.5299  0.3348  0.3748
  134MOL0    Cl18000   6.065   9.258  10.100 -0.5944  0.1492 -0.0987
  134MOL0     C18001   7.232   9.488  10.046  0.3520 -0.2950  0.5304
  134MOL0     C18002   7.371   9.474  10.048 -0.1591  0.9913 -0.5886
  134MOL0     O18003   7.631   9.569  10.028  0.4696  0.6176 -0.8776
  134MOL0     C18004   7.818   9.260   9.996 -0.4178 -0.4895  0.1493
  134MOL0     C18005   7.940   9.201  10.018 -0.6438 -0.6734 -0.4484
  134MOL0     N18006   8.636   9.270  10.188  0.6907  0.0158  0.4516
  134MOL0     N18007   8.719   9.239  10.281  0.5048 -1.4098  0.2059
  134MOL0     C18008   9.844   9.421  10.580 -0.1346  0.2666 -0.2079
  134MOL0     C18009   9.949   9.459  10.653  0.0929 -0.1298 -0.3267
  134MOL0     C18010  10.359   9.448  10.845 -0.3290  0.9157 -0.2498
  134MOL0     C18011  10.440   9.534  10.777  0.6263 -0.2809 -0.1583
  134MOL0     C18012  10.565   9.571  10.832 -0.1865 -0.5632  1.0726
  134MOL0     C18013  10.620   9.517  10.949  1.5374 -0.4576 -0.0902
  134MOL0     O18014  10.743   9.546  10.992 -0.5874 -0.1047 -0.6503
  134MOL0     C18015  10.814   9.488  11.106 -0.3527 -0.7780  0.4490
  134MOL0     C18016  10.958   9.531  11.121 -0.0289 -0.0539 -0.2491
  134MOL0     C18017  11.045   9.468  11.008 -0.1641  1.1302 -0.1788
  134MOL0     C18018  11.191   9.493  11.056 -0.0610 -0.3304  0.4864
  134MOL0     C18019  11.292   9.390  11.019  0.4171  0.6988 -0.2646
  134MOL0     C18020  11.378   9.305  11.011  0.4294  0.0768  1.1605
  134MOL0     C18021  10.522   9.445  11.030 -0.7660  0.1080  0.1615
  134MOL0     C18022  10.395   9.418  10.978  0.2447  0.2533  0.4590
  134MOL0     H18023  10.191   9.313  10.470 -0.5392 -0.6446 -0.2888
  134MOL0     H18024   9.993   9.243  10.338 -3.3368  1.9837 -0.8534
  134MOL0     H18025   9.564   9.310  10.507  0.5102  2.2690  1.2825
  134MOL0     H18026   9.633   9.451  10.427 -0.3945 -0.4066 -1.3263
  134MOL0     H18027   9.462   9.399  10.294 -0.5317 -0.3898  0.8857
  134MOL0     H18028   9.610   9.354  10.205  0.8346 -0.3701  0.4439
  134MOL0     H18029   9.494   9.164  10.157  0.5685 -0.9833  0.2130
  134MOL0     H18030   9.540   9.116  10.317  2.5568  0.0832 -1.4672
  134MOL0     H18031   9.338   9.149  10.413 -1.7972 -0.8435 -0.5846
  134MOL0     H18032   9.267   9.232  10.267  1.3709  1.7267  1.4578
  134MOL0     H18033   9.257   9.032  10.150 -0.3843 -0.0504  0.6649
  134MOL0     H18034   9.344   8.937  10.280  2.3583  0.8458  0.2316
  134MOL0     H18035   9.110   8.895  10.303 -0.5894  0.5502  0.2884
  134MOL0     H18036   9.152   9.008  10.437 -0.7355  1.5105  1.0670
  134MOL0     H18037   9.059   9.189  10.335 -0.1772  1.8261 -3.2173
  134MOL0     H18038   9.033   9.115  10.183 -3.0785 -3.7355 -0.5562
  134MOL0     H18039   8.858   9.053  10.423 -1.1476  1.1927 -0.5472
  134MOL0     H18040   8.884   8.941  10.298 -1.3796 -0.1422  0.6075
  134MOL0     H18041   8.791   9.006  10.060  0.9890 -0.3227 -0.0178
  134MOL0     H18042   8.626   9.257   9.887  1.2597 -1.4715 -0.3533
  134MOL0     H18043   8.568   9.095   9.899 -4.5323 -0.1755  0.0330
  134MOL0     H18044   8.381   9.227   9.873  0.5019  0.5496  0.3051
  134MOL0     H18045   8.422   9.313  10.021  2.9192  1.8355 -3.2937
  134MOL0     H18046   8.413   9.107  10.158 -0.1645 -1.2612  0.2090
  134MOL0     H18047   8.390   9.006  10.019  4.6562  1.1768  1.4524
  134MOL0     H18048   8.155   9.033  10.097  0.7489 -0.3567  0.1887
  134MOL0     H18049   8.190   9.108   9.939 -3.6578  0.7580 -0.3337
  134MOL0     H18050   8.093   9.461  10.168 -0.2723  2.1439 -1.4791
  134MOL0     H18051   7.869   9.673  10.081 -0.8548 -0.8591  0.0924
  134MOL0     H18052   7.797   9.614  10.220 -0.8496  1.1217 -2.4357
  134MOL0     H18053   7.977   9.627  10.210  0.6138 -3.1620  1.8724
  134MOL0     H18054   7.413   9.275   9.778  2.6741  0.8058  1.6962
  134MOL0     H18055   7.152   9.281   9.796 -2.7646  1.3505  2.6683
  134MOL0     H18056   6.950   9.375   9.772  0.9778  1.1719  0.3218
  134MOL0     H18057   6.969   9.253   9.900  2.3333  1.6887  3.0876
  134MOL0     H18058   6.764   9.493   9.911 -1.2479  1.0017  3.5048
  134MOL0     H18059   6.718   9.322   9.855 -0.8385 -1.6236  3.0330
  134MOL0     H18060   6.761   9.437  10.124 -3.1218  1.6883 -0.7810
  134MOL0     H18061   6.809   9.265  10.090 -1.8075 -1.1886  2.5650
  134MOL0     H18062   6.534   9.403  10.047 -0.4412  0.6311  2.6354
  134MOL0     H18063   6.568   9.229  10.015  0.8627 -0.2092 -0.7122
  134MOL0     H18064   6.547   9.364  10.278 -1.5336 -0.5120 -0.3196
  134MOL0     H18065   6.655   9.217  10.251  1.0221  1.9298 -0.2690
  134MOL0     H18066   6.474   9.097  10.166  3.0348  2.0393 -3.5825
  134MOL0     H18067   6.439   9.169  10.334  0.1872  2.0931 -0.1478
  134MOL0     H18068   6.355   9.300  10.087  0.7692 -1.0897  0.9322
  134MOL0     H18069   6.298   9.336  10.252  0.1917 -0.1904 -0.3505
  134MOL0     H18070   6.179   9.131  10.254 -0.5691 -0.7475 -0.3337
  134MOL0     H18071   6.232   9.099  10.078  0.6860  1.2353 -0.4201
  134MOL0     H18072   7.187   9.556  10.118 -2.4337 -0.4922 -0.8774
  134MOL0     H18073   7.428   9.526  10.124  1.2507 -1.5988  0.2460
  134MOL0     H18074   7.750   9.198   9.938 -1.4379  0.5290  0.2189
  134MOL0     H18075   7.961   9.097   9.995  1.9966  0.1999 -2.5249
  134MOL0     H18076   9.746   9.461  10.606 -1.0988 -0.3424 -2.6449
  134MOL0     H18077   9.930   9.538  10.725  1.2322  0.0989 -0.2575
  134MOL0     H18078  10.410   9.575  10.681  0.5953  1.4432  0.5523
  134MOL0     H18079  10.627   9.644  10.780  1.6648  0.7287  4.7576
  134MOL0     H18080  10.760   9.509  11.199  0.5085 -0.5300  0.9061
  134MOL0     H18081  10.813   9.379  11.090  3.6354 -0.9039 -0.0246
  134MOL0     H18082  11.002   9.518  11.221  0.6495  0.0576 -0.5254
  134MOL0     H18083  10.973   9.637  11.101  1.1924  0.2418  1.9182
  134MOL0     H18084  11.019   9.517  10.914 -4.6039  1.5669  1.0168
  134MOL0     H18085  11.032   9.360  11.003  2.7113  0.5168  2.4078
  134MOL0     H18086  11.189   9.501  11.166 -2.8146 -1.4061  0.5868
  134MOL0     H18087  11.219   9.586  11.008 -2.8579 -0.8930 -2.5110
  134MOL0     H18088  11.457   9.235  10.996 -1.9740 -2.5981 -0.0292
  134MOL0     H18089  10.537   9.410  11.132 -4.2754  0.1479  0.8052
  134MOL0     H18090  10.322   9.378  11.047 -0.6320  3.2811  1.4253
  135MOL0     O18091   8.866   6.104   1.620  0.5797 -0.1383  0.5287
  135MOL0     C18092   8.755   6.058   1.622  0.0055  0.3114 -0.3485
  135MOL0     O18093   8.640   6.128   1.623  0.2313  0.5094  0.0722
  135MOL0     C18094   8.632   6.264   1.648  0.3168 -0.2274  0.2834
  135MOL0     C18095   8.520   6.336   1.597 -0.0020  0.1926  0.2520
  135MOL0     C18096   8.515   6.476   1.580 -0.0136  0.4387  0.3320
  135MOL0     C18097   8.620   6.560   1.612  0.4254 -1.0316  0.2389
  135MOL0     O18098   8.612   6.701   1.596  0.0390 -0.8584  0.9877
  135MOL0     C18099   8.708   6.796   1.646 -0.8112 -0.0576 -0.2541
  135MOL0     C18100   8.826   6.839   1.558  0.4785 -0.7161  0.1419
  135MOL0     C18101   8.893   6.730   1.468 -0.1094  0.3402 -0.7370
  135MOL0     C18102   8.922   6.782   1.327 -0.1495 -0.2189 -0.8901
  135MOL0     C18103   8.980   6.668   1.241 -0.4760 -0.5974  0.4962
  135MOL0     C18104   9.006   6.703   1.099 -0.0910 -0.4750 -0.1265
  135MOL0     C18105   8.867   6.748   1.042  0.0647 -0.1018  0.3236
  135MOL0     C18106   8.871   6.744   0.876  1.0226  0.9934 -0.4009
  135MOL0     N18107   8.736   6.758   0.811  0.2853 -0.1497 -0.4952
  135MOL0     C18108   8.627   6.677   0.798 -0.3718 -0.1904 -0.3565
  135MOL0     C18109   8.532   6.752   0.742 -0.8180 -0.0854 -0.3560
  135MOL0     C18110   8.387   6.723   0.727  1.0696 -0.2398 -0.3310
  135MOL0     C18111   8.332   6.604   0.795 -0.3980  0.8020 -0.0914
  135MOL0     C18112   8.180   6.594   0.839  0.3561 -0.1480 -0.3331
  135MOL0     C18113   8.082   6.601   0.727  0.3733 -0.0619 -0.1680
  135MOL0     O18114   8.086   6.479   0.657 -0.0326 -0.3321  0.6732
  135MOL0     C18115   7.983   6.452   0.568 -0.3076 -0.3148  0.4360
  135MOL0     C18116   8.003   6.350   0.474  0.0960  0.1576 -0.0067
  135MOL0     C18117   7.907   6.317   0.376 -1.1781 -0.6021  0.3489
  135MOL0     C18118   7.947   6.210   0.284  0.7143  0.0996  1.0786
  135MOL0     C18119   7.783   6.387   0.363 -0.2626 -0.8114 -0.4319
  135MOL0     C18120   7.667   6.357   0.274 -0.2238 -1.0707  0.2736
  135MOL0     O18121   7.554   6.449   0.281  0.1392  0.7603  0.3609
  135MOL0     C18122   7.459   6.425   0.190  0.3184 -0.0547  1.5642
  135MOL0     C18123   7.402   6.303   0.157  0.2932  0.0840 -0.2034
  135MOL0     C18124   7.290   6.289   0.063 -0.0785 -0.6902 -0.1251
  135MOL0     C18125   7.232   6.409   0.015 -0.7668  0.0981 -0.4606
  135MOL0     O18126   7.124   6.396  -0.058  0.1776 -0.2328  0.5490
  135MOL0     C18127   7.131   6.353  -0.191 -1.5653 -0.5881  0.3872
  135MOL0     C18128   6.992   6.360  -0.256 -0.2263 -0.0846 -0.2505
  135MOL0     C18129   6.944   6.511  -0.276  0.0097 -0.2839 -0.9448
  135MOL0     C18130   6.823   6.519  -0.361 -0.0583  0.6441 -0.2682
  135MOL0     C18131   6.786   6.666  -0.360 -0.3390  0.0806  0.2037
  135MOL0     C18132   6.655   6.693  -0.427 -0.8782  0.3398  0.4070
  135MOL0     C18133   6.646   6.847  -0.431  0.0233  0.0738  0.2839
  135MOL0     C18134   6.519   6.897  -0.491  1.2188 -0.2185 -0.2302
  135MOL0    Cl18135   6.382   6.841  -0.398 -0.2609  0.0845  0.2256
  135MOL0     C18136   7.286   6.539   0.056 -0.8959 -0.0148  0.4662
  135MOL0     C18137   7.402   6.542   0.142  0.3003  0.4693 -0.9173
  135MOL0     O18138   7.677   6.258   0.200 -0.1298 -0.8399  0.2669
  135MOL0     C18139   7.758   6.489   0.466 -0.0847 -0.0227 -0.0478
  135MOL0     C18140   7.860   6.523   0.562 -0.0905  0.1314  0.3690
  135MOL0     N18141   8.578   6.869   0.702 -0.1818  0.1202 -0.2385
  135MOL0     N18142   8.704   6.870   0.754  0.1466 -0.5309 -0.0303
  135MOL0     C18143   8.724   6.502   1.681  0.7292 -0.6057 -0.7857
  135MOL0     C18144   8.736   6.358   1.688 -0.0181  0.4573  0.3950
  135MOL0     C18145   8.747   5.910   1.627  0.5793 -0.2441 -0.4338
  135MOL0     C18146   8.864   5.829   1.620  0.6017 -0.4284 -0.4389
  135MOL0     C18147   8.849   5.693   1.611  0.3317 -0.5483  0.7121
  135MOL0     C18148   8.724   5.635   1.639 -0.2525  0.3272 -0.7502
  135MOL0     O18149   8.725   5.499   1.662 -1.2507  0.7918  0.1922
  135MOL0     C18150   8.638   5.445   1.763 -0.4598 -0.9411  0.3457
  135MOL0     C18151   8.722   5.399   1.876  0.0448  0.3016  0.0018
  135MOL0     C18152   8.640   5.301   1.974 -0.2837 -0.3459  0.0746
  135MOL0     C18153   8.701   5.286   2.116 -0.5010 -0.3757  0.1764
  135MOL0     C18154   8.852   5.283   2.117  0.3482 -0.4002 -0.1030
  135MOL0     C18155   8.971   5.298   2.136  0.4532 -0.4054 -0.2902
  135MOL0     C18156   8.614   5.716   1.643 -0.2452  0.3189  0.3280
  135MOL0     C18157   8.622   5.854   1.639  0.6849  0.0656 -0.1074
  135MOL0     H18158   8.434   6.283   1.558 -1.3011  0.9879  1.9043
  135MOL0     H18159   8.429   6.527   1.536 -1.9700 -2.0452  1.0681
  135MOL0     H18160   8.663   6.894   1.662 -0.6235 -0.1148  0.7156
  135MOL0     H18161   8.742   6.763   1.745  0.8390  2.6416  0.1794
  135MOL0     H18162   8.809   6.923   1.491  1.7425  0.2509  0.9868
  135MOL0     H18163   8.905   6.878   1.623 -0.6250 -0.4677  1.3840
  135MOL0     H18164   8.988   6.710   1.520 -1.1760  1.1470  1.6738
  135MOL0     H18165   8.839   6.636   1.462 -2.1980  1.5175 -1.1368
  135MOL0     H18166   8.828   6.823   1.289 -1.3294 -1.0012  1.0120
  135MOL0     H18167   8.987   6.870   1.330  2.3691 -1.8935 -2.3456
  135MOL0     H18168   9.073   6.638   1.290 -0.4838 -0.4874  0.5798
  135MOL0     H18169   8.913   6.582   1.246 -2.7868  1.1809  3.4825
  135MOL0     H18170   9.079   6.785   1.096  0.5732 -0.8225  3.0584
  135MOL0     H18171   9.040   6.625   1.030 -0.9609  0.1458 -1.3146
  135MOL0     H18172   8.791   6.684   1.087 -0.1660  0.1636  0.3149
  135MOL0     H18173   8.842   6.850   1.073 -2.3804 -0.8315  0.9222
  135MOL0     H18174   8.908   6.645   0.846 -0.5068 -0.4879  2.2394
  135MOL0     H18175   8.942   6.820   0.842  0.3005  0.9894 -2.0094
  135MOL0     H18176   8.607   6.578   0.836  2.9910 -1.2612 -1.0126
  135MOL0     H18177   8.334   6.806   0.774 -0.4809 -1.7472  0.6815
  135MOL0     H18178   8.346   6.724   0.625 -2.7984 -0.4873  1.0713
  135MOL0     H18179   8.370   6.587   0.896 -0.4745 -2.1475 -0.4692
  135MOL0     H18180   8.354   6.513   0.738  0.7815 -0.1657  1.7967
  135MOL0     H18181   8.159   6.664   0.920  1.3694  0.2756 -0.4124
  135MOL0     H18182   8.173   6.493   0.880  0.1365  0.1924  0.4700
  135MOL0     H18183   8.098   6.683   0.656 -1.4467 -0.4490 -1.0877
  135MOL0     H18184   7.982   6.603   0.772  0.7717 -0.4995  0.7537
  135MOL0     H18185   8.104   6.310   0.476 -0.1795 -0.5338  0.5157
  135MOL0     H18186   7.867   6.137   0.274 -0.6555  1.3572  2.3936
  135MOL0     H18187   7.967   6.244   0.181  3.2152 -3.0040  0.3813
  135MOL0     H18188   8.043   6.161   0.304  2.3741  1.5760 -2.2149
  135MOL0     H18189   7.433   6.213   0.210 -3.6714 -0.8347  0.8751
  135MOL0     H18190   7.246   6.193   0.038 -1.2098 -0.2091 -0.0362
  135MOL0     H18191   7.198   6.427  -0.235 -1.6175 -0.7993 -0.0537
  135MOL0     H18192   7.183   6.257  -0.195 -0.9267 -0.4987  3.6490
  135MOL0     H18193   6.992   6.315  -0.356 -3.7760 -1.3960  0.2121
  135MOL0     H18194   6.918   6.307  -0.196  1.4627  0.8927  2.8868
  135MOL0     H18195   7.024   6.561  -0.330  0.2997 -0.0040 -0.2656
  135MOL0     H18196   6.925   6.551  -0.176  1.1191 -1.2947 -0.3060
  135MOL0     H18197   6.836   6.479  -0.462 -0.1692 -3.7622  1.2495
  135MOL0     H18198   6.746   6.452  -0.320 -0.4817  0.5896 -1.1315
  135MOL0     H18199   6.866   6.719  -0.413 -0.2069 -0.5480 -0.2355
  135MOL0     H18200   6.774   6.704  -0.258 -1.7467  1.0156 -0.2802
  135MOL0     H18201   6.641   6.645  -0.524  0.2694  1.1159 -0.1597
  135MOL0     H18202   6.585   6.656  -0.351 -0.8088  2.1859  1.4456
  135MOL0     H18203   6.728   6.884  -0.492  0.5485 -0.0127  0.9230
  135MOL0     H18204   6.658   6.887  -0.330 -2.4100 -2.4855  1.7474
  135MOL0     H18205   6.497   6.875  -0.596 -0.3191  1.5514 -0.3342
  135MOL0     H18206   6.517   7.006  -0.483 -0.8629 -0.0278 -2.2913
  135MOL0     H18207   7.238   6.633   0.028  0.1760  0.4770  0.2428
  135MOL0     H18208   7.427   6.638   0.184  4.3201 -1.5285  1.8799
  135MOL0     H18209   7.676   6.558   0.452  0.6505  0.7544 -0.6181
  135MOL0     H18210   7.849   6.610   0.626  1.5571  1.9753 -1.7535
  135MOL0     H18211   8.804   6.563   1.723 -0.6174  1.0120 -0.4744
  135MOL0     H18212   8.827   6.319   1.733 -0.0199 -1.4241 -1.0780
  135MOL0     H18213   8.967   5.863   1.620  1.8662 -3.8253 -0.4042
  135MOL0     H18214   8.927   5.622   1.586  0.9102 -0.4733  2.2143
  135MOL0     H18215   8.558   5.513   1.792  2.1567  1.8527  1.5411
  135MOL0     H18216   8.583   5.356   1.730 -0.0440 -2.4608  3.3685
  135MOL0     H18217   8.758   5.490   1.925 -0.3388  1.8828 -2.4942
  135MOL0     H18218   8.802   5.344   1.825 -1.3081 -0.6807 -1.1550
  135MOL0     H18219   8.639   5.213   1.909 -1.2173  1.0940 -1.9845
  135MOL0     H18220   8.538   5.339   1.972  0.7789  2.8197  0.5592
  135MOL0     H18221   8.667   5.187   2.148 -1.0690 -0.4514 -0.6365
  135MOL0     H18222   8.672   5.353   2.197  2.2650  0.3016  0.7204
  135MOL0     H18223   9.075   5.320   2.147  1.0103 -3.7088  4.4580
  135MOL0     H18224   8.516   5.671   1.640 -0.3657  0.6039 -1.7057
  135MOL0     H18225   8.531   5.910   1.620  0.7345 -0.1014 -0.8644
  136MOL0     O18226   1.813   6.427   1.852 -0.4238  0.4029  0.2700
  136MOL0     C18227   1.773   6.316   1.818  0.9369  0.1390  0.2623
  136MOL0     O18228   1.696   6.233   1.881 -0.3784  0.1263 -0.0545
  136MOL0     C18229   1.628   6.271   1.993 -1.0232  0.7367  0.4037
  136MOL0     C18230   1.685   6.272   2.123 -0.0203 -0.6144  0.1747
  136MOL0     C18231   1.592   6.281   2.233  0.0850  0.3341 -0.4444
  136MOL0     C18232   1.455   6.293   2.216  0.2072  0.1457 -0.0724
  136MOL0     O18233   1.368   6.303   2.317  0.4740  0.0874 -0.3561
  136MOL0     C18234   1.402   6.261   2.452 -0.2243  0.0773 -0.3243
  136MOL0     C18235   1.272   6.227   2.519  0.0312 -0.0042  0.2338
  136MOL0     C18236   1.174   6.351   2.522 -0.1431  0.4552  0.0393
  136MOL0     C18237   1.031   6.301   2.552  0.3121 -0.5757  0.0444
  136MOL0     C18238   0.920   6.404   2.551  0.8188 -0.3287 -0.4893
  136MOL0     C18239   0.940   6.496   2.671  0.1603  0.2590  0.8266
  136MOL0     C18240   0.836   6.610   2.673 -0.2982  0.0383  0.1029
  136MOL0     C18241   0.888   6.729   2.761  0.0182 -0.6470  0.9088
  136MOL0     N18242   0.797   6.841   2.754 -0.3520  0.3508  0.5773
  136MOL0     C18243   0.726   6.891   2.856 -0.2297 -0.0065 -0.0907
  136MOL0     C18244   0.655   6.985   2.813  0.1860  0.2976  1.0456
  136MOL0     C18245   0.551   7.086   2.884 -1.2623  0.1187 -0.0538
  136MOL0     C18246   0.625   7.209   2.941  0.6528 -0.8297 -0.0712
  136MOL0     C18247   0.534   7.322   2.994 -0.0157 -0.0890  0.6600
  136MOL0     C18248   0.465   7.294   3.135  0.3485  0.0743  0.7577
  136MOL0     O18249   0.570   7.280   3.234  0.5362 -0.1443  0.0920
  136MOL0     C18250   0.556   7.202   3.346  0.3802 -0.2644  0.3227
  136MOL0     C18251   0.435   7.200   3.414 -0.2030 -0.0472 -0.6787
  136MOL0     C18252   0.428   7.130   3.544 -0.5332 -0.2425  0.0467
  136MOL0     C18253   0.297   7.132   3.617 -0.7133  0.8613  0.6155
  136MOL0     C18254   0.549   7.071   3.603  0.1270 -0.1768  0.4618
  136MOL0     C18255   0.571   7.008   3.730  0.1534 -0.2191 -1.3441
  136MOL0     O18256   0.701   6.972   3.764 -0.6036  0.5507 -0.3077
  136MOL0     C18257   0.744   6.957   3.897  0.3673 -0.4384  0.1348
  136MOL0     C18258   0.818   6.842   3.921  0.2732  0.0239 -0.1745
  136MOL0     C18259   0.861   6.812   4.052 -0.1831 -0.7204  1.2183
  136MOL0     C18260   0.847   6.907   4.155  0.2666  0.1929 -0.6425
  136MOL0     O18261   0.885   6.897   4.281 -0.0892 -0.0791 -0.2370
  136MOL0     C18262   0.979   6.790   4.323 -0.3547 -0.3913 -0.5657
  136MOL0     C18263   1.012   6.787   4.478  0.1098 -1.0513  1.0960
  136MOL0     C18264   0.893   6.812   4.567  0.3537  0.1740 -0.1402
  136MOL0     C18265   0.927   6.738   4.700 -0.7265  0.9495 -0.5142
  136MOL0     C18266   0.819   6.753   4.802 -0.0564 -0.5374 -0.1424
  136MOL0     C18267   0.867   6.708   4.939  0.4385  0.1247 -0.3421
  136MOL0     C18268   0.932   6.565   4.939  0.9238 -0.4148 -0.3438
  136MOL0     C18269   0.973   6.504   5.084  0.2189 -0.8151  0.5078
  136MOL0    Cl18270   1.111   6.612   5.141  0.5393 -0.2624  0.2805
  136MOL0     C18271   0.778   7.018   4.130 -0.3839 -0.4322 -0.5253
  136MOL0     C18272   0.719   7.045   4.003 -1.0105 -0.5515  1.5269
  136MOL0     O18273   0.479   7.010   3.804  0.2192  0.6522  0.2920
  136MOL0     C18274   0.667   7.070   3.520  0.1707  0.7045  0.1828
  136MOL0     C18275   0.670   7.129   3.395  0.3263 -0.1545 -0.1008
  136MOL0     N18276   0.661   6.979   2.674  0.4951 -0.2227 -0.1823
  136MOL0     N18277   0.748   6.891   2.641 -0.3128  0.1217 -0.0575
  136MOL0     C18278   1.409   6.318   2.086 -0.2343 -0.4454 -0.2073
  136MOL0     C18279   1.493   6.300   1.977  0.1612  0.5110  0.0560
  136MOL0     C18280   1.832   6.276   1.685  0.4380 -0.8810  0.1543
  136MOL0     C18281   1.780   6.163   1.618 -0.5827 -0.3190 -0.0759
  136MOL0     C18282   1.834   6.116   1.496  0.1277 -0.2162  0.5584
  136MOL0     C18283   1.938   6.187   1.433 -0.8027 -0.7027 -0.3811
  136MOL0     O18284   1.998   6.127   1.323  0.1437 -0.7128 -0.1155
  136MOL0     C18285   2.108   6.210   1.272  0.6627 -0.0455 -0.0160
  136MOL0     C18286   2.142   6.174   1.127 -0.1109  0.5355 -0.3139
  136MOL0     C18287   2.195   6.033   1.124  0.4683 -0.0565  0.1063
  136MOL0     C18288   2.207   5.968   0.986 -0.5017 -0.0141  0.2874
  136MOL0     C18289   2.259   5.828   0.996  0.3302 -0.2067 -0.8691
  136MOL0     C18290   2.320   5.718   0.987 -0.4955  0.3100  0.0204
  136MOL0     C18291   1.989   6.293   1.503  0.5616  0.1684 -0.1387
  136MOL0     C18292   1.945   6.338   1.629  0.1600  1.1942  0.0254
  136MOL0     H18293   1.791   6.253   2.136  0.2461 -0.6551 -1.7350
  136MOL0     H18294   1.638   6.252   2.327 -0.5014 -1.0527 -0.5613
  136MOL0     H18295   1.480   6.186   2.460  1.7841  2.0581 -0.3193
  136MOL0     H18296   1.446   6.346   2.505  0.9220 -0.4524 -0.3930
  136MOL0     H18297   1.213   6.145   2.476  0.3195  1.1822 -2.6271
  136MOL0     H18298   1.290   6.195   2.622 -1.2653  1.0337  0.8185
  136MOL0     H18299   1.199   6.411   2.610 -1.9300  0.8403  0.3364
  136MOL0     H18300   1.175   6.409   2.429 -0.1857 -1.5198 -1.2556
  136MOL0     H18301   1.000   6.233   2.473 -1.9108 -0.7546  1.0033
  136MOL0     H18302   1.027   6.247   2.647 -0.4154 -3.8278 -1.6906
  136MOL0     H18303   0.928   6.460   2.457  1.3029  2.4082  1.0737
  136MOL0     H18304   0.823   6.353   2.548  0.6861 -0.2483  1.2808
  136MOL0     H18305   0.950   6.435   2.761 -0.6834 -0.7469  0.2643
  136MOL0     H18306   1.034   6.544   2.644 -0.0855 -0.5025 -1.6602
  136MOL0     H18307   0.803   6.647   2.576 -0.0432  0.0777  0.0294
  136MOL0     H18308   0.744   6.565   2.710 -1.2372  0.2651 -1.8779
  136MOL0     H18309   0.986   6.762   2.726  0.3340  0.5574  2.7956
  136MOL0     H18310   0.898   6.688   2.862 -1.3393 -0.4380  1.1456
  136MOL0     H18311   0.736   6.863   2.961  2.1454 -2.6269 -0.8814
  136MOL0     H18312   0.476   7.108   2.807  0.8986  0.0910 -2.2934
  136MOL0     H18313   0.500   7.030   2.963  2.4099 -1.2090  1.5707
  136MOL0     H18314   0.684   7.243   2.856 -0.2618 -0.5682 -0.6173
  136MOL0     H18315   0.697   7.167   3.011  0.4485 -4.8442 -1.9684
  136MOL0     H18316   0.453   7.335   2.922 -0.9558 -1.7703  1.3499
  136MOL0     H18317   0.596   7.412   2.997  3.3827 -2.2491  0.8805
  136MOL0     H18318   0.402   7.207   3.114 -3.7073  3.2563 -1.8210
  136MOL0     H18319   0.384   7.366   3.145 -0.7849 -0.4282 -3.0335
  136MOL0     H18320   0.343   7.243   3.377 -0.6909 -3.1196 -3.5158
  136MOL0     H18321   0.253   7.032   3.610  1.8660 -0.2709 -0.3477
  136MOL0     H18322   0.300   7.145   3.726  3.2337 -2.4104  1.1230
  136MOL0     H18323   0.229   7.201   3.567 -0.3224  0.0688 -1.0758
  136MOL0     H18324   0.843   6.769   3.845 -4.6600 -1.2228 -0.9845
  136MOL0     H18325   0.927   6.726   4.057  1.1888  0.0990 -1.1287
  136MOL0     H18326   0.939   6.693   4.291 -4.2938  1.0943 -0.6957
  136MOL0     H18327   1.073   6.787   4.268 -0.6051 -1.9260 -0.9523
  136MOL0     H18328   1.062   6.691   4.492  0.4001 -0.8548  1.4292
  136MOL0     H18329   1.095   6.855   4.501  1.7285 -2.1299 -1.1733
  136MOL0     H18330   0.805   6.762   4.525  1.0037 -1.1032 -0.0455
  136MOL0     H18331   0.867   6.918   4.575 -2.0756 -0.1970 -2.0070
  136MOL0     H18332   0.929   6.631   4.676  1.0468  1.0570 -1.0082
  136MOL0     H18333   1.024   6.768   4.740 -0.6019  0.2411 -0.2627
  136MOL0     H18334   0.733   6.697   4.764  0.5018  0.1879 -2.7047
  136MOL0     H18335   0.798   6.860   4.813  1.6191 -0.1518 -0.3294
  136MOL0     H18336   0.936   6.786   4.973  1.4189 -0.1853 -1.5555
  136MOL0     H18337   0.779   6.712   5.003 -3.4078 -0.3787 -5.0401
  136MOL0     H18338   1.012   6.555   4.865  0.6387 -0.9836 -0.5851
  136MOL0     H18339   0.847   6.506   4.904  1.1411  0.2176 -2.0816
  136MOL0     H18340   1.012   6.403   5.073  3.3730  0.4739 -1.5913
  136MOL0     H18341   0.883   6.506   5.147  0.5075 -1.4741  0.9512
  136MOL0     H18342   0.775   7.094   4.207 -0.8270 -0.7497 -0.2223
  136MOL0     H18343   0.669   7.139   3.981 -2.0461 -0.8576  2.5094
  136MOL0     H18344   0.766   7.040   3.552  0.0304 -0.2930 -0.2770
  136MOL0     H18345   0.768   7.144   3.351  1.3645 -2.4528  1.2439
  136MOL0     H18346   1.310   6.357   2.065  0.3688  0.9528 -0.5930
  136MOL0     H18347   1.452   6.306   1.877  1.6507 -0.6495 -0.6815
  136MOL0     H18348   1.699   6.102   1.657  1.1584 -1.3920  2.0889
  136MOL0     H18349   1.811   6.023   1.445  0.2770  0.1295 -0.1591
  136MOL0     H18350   2.073   6.313   1.266  1.1610  0.1469  0.3020
  136MOL0     H18351   2.192   6.203   1.343 -1.1428 -1.4989  2.1234
  136MOL0     H18352   2.205   6.249   1.078 -0.1768  1.3650  0.8402
  136MOL0     H18353   2.047   6.171   1.073 -1.0344 -1.9051  1.2879
  136MOL0     H18354   2.122   5.979   1.184 -0.6480  1.6057  0.3283
  136MOL0     H18355   2.293   6.035   1.174  2.2386  1.5669 -3.0894
  136MOL0     H18356   2.281   6.029   0.933  0.1560 -0.2275  0.9474
  136MOL0     H18357   2.110   5.946   0.941 -0.0855 -2.2063  0.3292
  136MOL0     H18358   2.386   5.633   0.988 -2.1262 -1.0108 -0.9090
  136MOL0     H18359   2.072   6.350   1.463 -1.1769  3.5221  0.7104
  136MOL0     H18360   1.994   6.420   1.681 -2.7334  1.5736  2.4182
  137MOL0     O18361   5.864   3.005   7.765  0.3340  0.3649  0.2588
  137MOL0     C18362   5.898   2.930   7.859  0.3733 -0.3659  0.9728
  137MOL0     O18363   5.815   2.888   7.955  0.3009  0.2341  0.2072
  137MOL0     C18364   5.675   2.897   7.944 -0.2812 -0.0409 -0.1814
  137MOL0     C18365   5.602   2.796   7.902 -0.1500  0.7631 -0.5459
  137MOL0     C18366   5.458   2.804   7.900 -0.0196  0.3795  0.4051
  137MOL0     C18367   5.390   2.923   7.935 -0.0032  0.8201  0.4862
  137MOL0     O18368   5.255   2.940   7.936  0.0659 -0.1129 -0.4608
  137MOL0     C18369   5.199   2.891   7.811 -0.5491 -0.0550  0.2368
  137MOL0     C18370   5.104   2.777   7.815  1.1346 -0.1411  0.0471
  137MOL0     C18371   5.010   2.785   7.941 -0.0042 -0.2139  0.6839
  137MOL0     C18372   4.900   2.886   7.924 -0.1430  0.1537  0.8243
  137MOL0     C18373   4.792   2.863   8.025  0.2469  0.8140  0.1978
  137MOL0     C18374   4.663   2.940   7.976  0.6585  0.7415  0.4609
  137MOL0     C18375   4.560   2.944   8.089  0.1300  0.5567 -0.2162
  137MOL0     C18376   4.419   2.991   8.052  0.1942 -0.5023 -0.2653
  137MOL0     N18377   4.347   2.865   8.078  0.3656  0.6138  0.0239
  137MOL0     C18378   4.307   2.766   7.986  0.6598 -0.0378 -0.5136
  137MOL0     C18379   4.227   2.681   8.058  0.2880  0.4892 -0.7993
  137MOL0     C18380   4.168   2.548   8.016 -0.0416 -0.2809  0.0891
  137MOL0     C18381   4.022   2.539   8.027 -0.2890 -0.1190 -0.4961
  137MOL0     C18382   3.944   2.594   7.903 -0.8097 -0.0522  0.0919
  137MOL0     C18383   3.958   2.489   7.791  0.6854 -0.8436  0.4280
  137MOL0     O18384   3.884   2.537   7.672 -0.0112 -0.3135 -0.3133
  137MOL0     C18385   3.747   2.515   7.687 -0.4104  0.0932  1.0253
  137MOL0     C18386   3.701   2.381   7.691  0.1919  1.2519 -0.0716
  137MOL0     C18387   3.563   2.351   7.704  0.1330  0.1492 -0.5000
  137MOL0     C18388   3.531   2.206   7.712  0.3527 -0.5802  0.6004
  137MOL0     C18389   3.461   2.457   7.706  0.7155 -0.9212  0.6947
  137MOL0     C18390   3.312   2.426   7.698 -0.3097 -0.1170  0.7873
  137MOL0     O18391   3.238   2.529   7.743  0.2839  0.3332  0.0178
  137MOL0     C18392   3.105   2.542   7.717 -1.1945 -1.7347 -0.0720
  137MOL0     C18393   3.035   2.511   7.604 -0.1755 -0.0690  0.4194
  137MOL0     C18394   2.902   2.554   7.581 -0.0208  1.0141  0.6900
  137MOL0     C18395   2.826   2.616   7.679  0.0553 -0.8074  0.1403
  137MOL0     O18396   2.707   2.675   7.654  0.5974  0.5470  0.3383
  137MOL0     C18397   2.600   2.700   7.755 -0.4406 -0.3854  0.9506
  137MOL0     C18398   2.457   2.693   7.690 -0.4757  0.0637 -0.3344
  137MOL0     C18399   2.434   2.780   7.571  0.2185  0.6732  0.9490
  137MOL0     C18400   2.278   2.769   7.538  1.1977  0.5152 -0.9158
  137MOL0     C18401   2.190   2.880   7.598 -0.0938 -0.7864  0.9307
  137MOL0     C18402   2.074   2.899   7.500  0.2487  0.3156  0.2130
  137MOL0     C18403   1.974   3.007   7.547  0.1389 -0.7341 -0.0335
  137MOL0     C18404   1.861   2.947   7.630  0.3045  0.7713 -0.0512
  137MOL0    Cl18405   1.787   3.066   7.736 -0.8027 -0.0648 -0.3961
  137MOL0     C18406   2.901   2.652   7.796  0.2481 -0.3819  1.0812
  137MOL0     C18407   3.039   2.619   7.814 -0.0838 -0.7289 -0.0902
  137MOL0     O18408   3.271   2.323   7.659  0.3266 -0.0687  0.0723
  137MOL0     C18409   3.512   2.592   7.698 -0.1470 -0.8231 -0.8986
  137MOL0     C18410   3.653   2.619   7.691  0.2521 -0.0195 -0.1469
  137MOL0     N18411   4.223   2.732   8.191  0.9960 -0.4651 -0.4293
  137MOL0     N18412   4.297   2.840   8.201  1.2022 -0.0214 -0.0423
  137MOL0     C18413   5.475   3.028   7.979  0.6859 -0.1219  0.1166
  137MOL0     C18414   5.618   3.019   7.975 -0.0504  0.7273 -0.5548
  137MOL0     C18415   6.037   2.902   7.888  0.9175 -0.2975  0.5558
  137MOL0     C18416   6.142   2.971   7.830  0.6136 -1.2241 -0.8037
  137MOL0     C18417   6.272   2.932   7.843  1.2321  0.6707  0.0242
  137MOL0     C18418   6.299   2.831   7.942  0.3387 -0.2564  0.2373
  137MOL0     O18419   6.424   2.805   7.980  0.4267  0.4243  0.3149
  137MOL0     C18420   6.492   2.689   7.933  0.6398 -0.9363 -0.2188
  137MOL0     C18421   6.637   2.728   7.912  1.0958 -0.0810  0.2987
  137MOL0     C18422   6.644   2.839   7.809 -0.1825  0.4793  0.5338
  137MOL0     C18423   6.795   2.857   7.791 -0.0888 -0.4746  0.4647
  137MOL0     C18424   6.851   2.756   7.708  0.1133 -0.2037  0.0725
  137MOL0     C18425   6.894   2.675   7.626 -0.1839 -0.4331 -0.0263
  137MOL0     C18426   6.195   2.776   8.011 -0.3052 -0.3067  0.2561
  137MOL0     C18427   6.066   2.799   7.972  0.3488  0.4341 -0.6349
  137MOL0     H18428   5.646   2.706   7.861  2.9008  0.1082  3.4979
  137MOL0     H18429   5.397   2.716   7.885 -0.1235  0.4132  0.6382
  137MOL0     H18430   5.152   2.986   7.783 -0.2241 -0.6216 -2.4839
  137MOL0     H18431   5.275   2.884   7.732 -1.7989 -1.5437 -0.8969
  137MOL0     H18432   5.046   2.772   7.722 -1.2370 -0.3367  1.4875
  137MOL0     H18433   5.150   2.678   7.814  2.5474  0.4698 -1.3837
  137MOL0     H18434   4.961   2.687   7.946  0.6424 -0.5478  0.6177
  137MOL0     H18435   5.070   2.805   8.030  1.7219  1.0647 -0.6920
  137MOL0     H18436   4.924   2.992   7.936 -0.9162  0.3103  1.0190
  137MOL0     H18437   4.863   2.878   7.822  1.3214 -1.3914  0.3628
  137MOL0     H18438   4.773   2.755   8.026  0.8828  0.5758 -3.1385
  137MOL0     H18439   4.829   2.878   8.127 -0.0018 -0.6646  0.5351
  137MOL0     H18440   4.685   3.045   7.955 -0.3824  1.2930  1.9138
  137MOL0     H18441   4.632   2.891   7.883  1.3095  1.2473 -0.0323
  137MOL0     H18442   4.557   2.841   8.126  1.0838  0.1469 -1.2249
  137MOL0     H18443   4.596   3.007   8.171  1.7884  0.9559 -1.2041
  137MOL0     H18444   4.419   3.025   7.948 -1.0099 -1.8406 -0.7411
  137MOL0     H18445   4.385   3.079   8.107  0.6575  0.9149 -2.1144
  137MOL0     H18446   4.341   2.757   7.884 -2.2601 -1.2334 -1.4774
  137MOL0     H18447   4.201   2.525   7.915 -0.2298  1.3912 -0.3840
  137MOL0     H18448   4.202   2.480   8.095 -1.8810  0.0322  1.2100
  137MOL0     H18449   3.996   2.602   8.112 -3.4399 -2.1119  0.2099
  137MOL0     H18450   3.999   2.434   8.047 -3.0766  0.4287 -0.2957
  137MOL0     H18451   3.980   2.688   7.859  1.1717 -0.8485 -0.0932
  137MOL0     H18452   3.840   2.612   7.933 -0.2272  0.6215  1.8938
  137MOL0     H18453   3.910   2.398   7.827  0.1218 -0.0851  1.6353
  137MOL0     H18454   4.059   2.473   7.752 -0.8753 -1.2821 -3.9569
  137MOL0     H18455   3.778   2.306   7.682 -2.5773 -1.6889 -1.3688
  137MOL0     H18456   3.617   2.142   7.733  1.5505  0.7844  0.0457
  137MOL0     H18457   3.473   2.190   7.803  1.4151 -1.2828  1.1742
  137MOL0     H18458   3.480   2.172   7.621 -1.4714 -0.9277  1.7102
  137MOL0     H18459   3.085   2.471   7.517  0.1266  3.3391 -1.1294
  137MOL0     H18460   2.857   2.517   7.489 -2.4103  0.9108  1.8131
  137MOL0     H18461   2.610   2.632   7.840  1.8952  0.6870  1.6236
  137MOL0     H18462   2.614   2.804   7.787 -0.2485 -0.6187  1.6500
  137MOL0     H18463   2.438   2.589   7.662 -0.2809 -0.3061  0.8687
  137MOL0     H18464   2.380   2.728   7.760  2.3533  2.4886  1.8276
  137MOL0     H18465   2.493   2.759   7.481  0.5627  0.2290  1.2716
  137MOL0     H18466   2.462   2.880   7.606  1.6744  0.7346 -0.3150
  137MOL0     H18467   2.260   2.768   7.430 -0.6021  2.6513 -0.7228
  137MOL0     H18468   2.232   2.677   7.574 -1.2482  1.6253 -1.0008
  137MOL0     H18469   2.251   2.969   7.613  0.9720 -1.5523  1.2294
  137MOL0     H18470   2.160   2.851   7.699 -0.8320 -2.1677  0.3423
  137MOL0     H18471   2.112   2.938   7.405  0.4860  0.4709  0.3728
  137MOL0     H18472   2.019   2.808   7.475 -0.2091  1.0434 -1.6348
  137MOL0     H18473   1.924   3.043   7.457 -2.9960 -1.9672  1.0774
  137MOL0     H18474   2.024   3.081   7.611  2.3278  0.7400 -3.1902
  137MOL0     H18475   1.897   2.867   7.696 -0.8727  0.5044  0.2751
  137MOL0     H18476   1.778   2.909   7.570  0.7000 -2.5265  1.2574
  137MOL0     H18477   2.852   2.709   7.875 -0.3927 -1.4332  1.4527
  137MOL0     H18478   3.075   2.664   7.906 -0.0351  0.4737 -0.6699
  137MOL0     H18479   3.444   2.677   7.696 -0.4310 -0.9902  0.4947
  137MOL0     H18480   3.677   2.725   7.687  0.2474  0.0222  0.7047
  137MOL0     H18481   5.421   3.115   8.014 -0.3268 -0.1535 -1.2961
  137MOL0     H18482   5.677   3.101   8.016  0.4614  0.2454 -0.3107
  137MOL0     H18483   6.113   3.057   7.770  1.7104  0.1166  0.4773
  137MOL0     H18484   6.358   2.983   7.800 -0.9819  2.4386 -2.6037
  137MOL0     H18485   6.486   2.616   8.014 -3.0645 -0.5729  0.0065
  137MOL0     H18486   6.448   2.637   7.848 -0.8402  3.0025 -2.1033
  137MOL0     H18487   6.704   2.650   7.875  0.6396 -0.6471  0.6422
  137MOL0     H18488   6.678   2.762   8.007 -0.7761 -1.1510  1.5507
  137MOL0     H18489   6.595   2.932   7.839 -0.5810  0.3511  0.2895
  137MOL0     H18490   6.598   2.809   7.715  0.6832  2.6699 -0.6333
  137MOL0     H18491   6.837   2.867   7.892  0.5621  0.9438  0.0786
  137MOL0     H18492   6.809   2.961   7.761 -1.9738 -1.1492 -3.3411
  137MOL0     H18493   6.929   2.601   7.556  0.4478 -0.6988  0.5638
  137MOL0     H18494   6.224   2.699   8.082 -1.4532 -0.8113  0.1984
  137MOL0     H18495   5.992   2.749   8.033  0.9067  2.2099  1.6134
  138MOL0     O18496   5.836   0.555   3.419 -0.9554 -0.6291  0.7726
  138MOL0     C18497   5.925   0.506   3.485 -0.1814  0.4299 -0.2724
  138MOL0     O18498   5.898   0.402   3.570 -0.1269  0.4442  0.8107
  138MOL0     C18499   5.768   0.369   3.609  0.5800 -0.3432  0.3652
  138MOL0     C18500   5.746   0.250   3.682  0.2638 -0.3523  0.2185
  138MOL0     C18501   5.624   0.215   3.736  0.0311  0.0948  0.5205
  138MOL0     C18502   5.521   0.300   3.740  0.0419 -1.0001 -0.3631
  138MOL0     O18503   5.409   0.269   3.808  0.5568  0.3903  0.5415
  138MOL0     C18504   5.310   0.182   3.746  0.4474  0.6893  0.0498
  138MOL0     C18505   5.176   0.141   3.824  0.9409 -0.1281 -0.2626
  138MOL0     C18506   5.079   0.262   3.827 -0.2355  0.3768  0.0798
  138MOL0     C18507   4.945   0.221   3.871 -0.9983  0.6323 -0.4881
  138MOL0     C18508   4.855   0.349   3.885 -0.2925  0.8342 -0.9400
  138MOL0     C18509   4.710   0.296   3.868  0.4755 -0.2481  0.5971
  138MOL0     C18510   4.615   0.397   3.920  1.1520 -0.0470 -0.5223
  138MOL0     C18511   4.614   0.538   3.853 -0.2626  0.1937 -0.8838
  138MOL0     N18512   4.535   0.551   3.729 -0.3928  0.0029  0.2822
  138MOL0     C18513   4.392   0.526   3.717 -0.6256 -0.0345  0.0010
  138MOL0     C18514   4.375   0.529   3.581 -0.3242  0.6059  0.0268
  138MOL0     C18515   4.241   0.491   3.509 -0.2146 -0.7099  0.0315
  138MOL0     C18516   4.153   0.621   3.507 -0.9148  0.1816 -0.6219
  138MOL0     C18517   4.027   0.601   3.431  0.0385  0.6206 -0.3821
  138MOL0     C18518   4.062   0.598   3.282 -0.4098 -0.4911 -0.1183
  138MOL0     O18519   3.939   0.614   3.214  0.5909  0.7678 -0.1001
  138MOL0     C18520   3.928   0.734   3.151  0.0985 -0.2461 -1.4715
  138MOL0     C18521   3.988   0.771   3.029  0.5569 -0.8223  0.3197
  138MOL0     C18522   3.962   0.896   2.965  0.2395  0.7715 -0.5939
  138MOL0     C18523   4.019   0.916   2.818  0.4316 -0.1609 -0.3359
  138MOL0     C18524   3.878   0.992   3.037 -1.2062 -0.2744 -0.2740
  138MOL0     C18525   3.846   1.121   2.982  0.0047  0.8584  0.0439
  138MOL0     O18526   3.775   1.107   2.858 -0.3384  0.2060 -0.4841
  138MOL0     C18527   3.769   1.220   2.779  0.0242  0.5287  0.4796
  138MOL0     C18528   3.889   1.279   2.730 -0.6231  0.3155  0.1870
  138MOL0     C18529   3.876   1.401   2.666 -0.8294 -0.1287  0.0715
  138MOL0     C18530   3.750   1.463   2.640  0.1883 -0.1951 -0.0033
  138MOL0     O18531   3.726   1.576   2.559 -0.2927 -0.0157 -0.7446
  138MOL0     C18532   3.638   1.567   2.446 -0.7917  0.2504  0.4345
  138MOL0     C18533   3.711   1.492   2.335  0.0162  1.7152  0.6038
  138MOL0     C18534   3.674   1.526   2.189 -0.1805  0.1848 -0.1016
  138MOL0     C18535   3.531   1.464   2.169 -0.7867 -0.6433  0.1434
  138MOL0     C18536   3.481   1.486   2.027  0.0816 -0.2079  0.6909
  138MOL0     C18537   3.341   1.439   2.006  0.1146 -0.0496 -0.3693
  138MOL0     C18538   3.272   1.500   1.883  1.2152  0.1975  0.5938
  138MOL0     C18539   3.164   1.404   1.832 -0.4610  0.0808 -0.0215
  138MOL0    Cl18540   3.065   1.480   1.714 -0.2421 -0.1842  0.3072
  138MOL0     C18541   3.640   1.392   2.695 -0.2126 -0.0157 -0.3432
  138MOL0     C18542   3.639   1.272   2.752 -0.2286  1.0995 -1.2233
  138MOL0     O18543   3.864   1.225   3.047 -0.3033 -0.1252  0.7400
  138MOL0     C18544   3.814   0.952   3.150 -0.5640  0.3096 -0.5655
  138MOL0     C18545   3.846   0.829   3.210  0.1793 -0.0470  0.5937
  138MOL0     N18546   4.498   0.545   3.518 -0.2089  0.0446 -0.1063
  138MOL0     N18547   4.585   0.558   3.605 -0.6222  0.4414  0.7903
  138MOL0     C18548   5.535   0.431   3.683  0.7003 -0.2524 -0.0728
  138MOL0     C18549   5.657   0.462   3.617  0.3303  0.5215  0.7169
  138MOL0     C18550   6.064   0.549   3.451 -0.5029  0.4146  0.9159
  138MOL0     C18551   6.166   0.518   3.541 -0.7323  0.0454 -0.5534
  138MOL0     C18552   6.301   0.545   3.508  0.5224  0.0210  0.5629
  138MOL0     C18553   6.336   0.604   3.382  0.2782  0.4135  0.1169
  138MOL0     O18554   6.462   0.637   3.347  0.3366  0.0427  0.4625
  138MOL0     C18555   6.559   0.652   3.456 -0.2912 -0.6116  0.1898
  138MOL0     C18556   6.691   0.706   3.405 -0.1487 -0.0680 -0.1396
  138MOL0     C18557   6.784   0.600   3.333 -0.7043 -0.5433 -0.1043
  138MOL0     C18558   6.914   0.670   3.283  1.2526 -0.2745 -0.2924
  138MOL0     C18559   7.026   0.668   3.377 -0.0897  0.4536  0.1737
  138MOL0     C18560   7.116   0.669   3.459  0.3929  0.6996 -0.4865
  138MOL0     C18561   6.229   0.646   3.300  0.1385  0.0849  0.4790
  138MOL0     C18562   6.091   0.611   3.328  0.1580 -0.3552 -0.8113
  138MOL0     H18563   5.829   0.181   3.681  0.4062 -0.2839 -2.8800
  138MOL0     H18564   5.633   0.116   3.781  2.1345  0.2415  0.5139
  138MOL0     H18565   5.270   0.220   3.651 -1.2703  1.4938  1.0345
  138MOL0     H18566   5.369   0.091   3.734 -0.1236  0.3746 -0.4494
  138MOL0     H18567   5.125   0.057   3.775 -4.2164  2.8238 -0.6178
  138MOL0     H18568   5.202   0.109   3.925  0.7885 -0.7707 -0.4171
  138MOL0     H18569   5.116   0.339   3.895 -0.8485 -1.8605  3.1568
  138MOL0     H18570   5.063   0.302   3.726  0.8532  0.5041 -0.0494
  138MOL0     H18571   4.899   0.146   3.806 -0.2339 -0.5705  0.3188
  138MOL0     H18572   4.962   0.174   3.968  1.6342  0.9108 -0.7176
  138MOL0     H18573   4.868   0.411   3.975 -3.3128 -0.8125  0.8045
  138MOL0     H18574   4.889   0.412   3.802 -1.5211  0.5611 -1.6742
  138MOL0     H18575   4.686   0.271   3.764 -1.1452 -3.2882  1.5898
  138MOL0     H18576   4.692   0.199   3.915  0.1632 -1.1705 -1.3359
  138MOL0     H18577   4.515   0.353   3.922  0.9675  0.3280  1.8623
  138MOL0     H18578   4.637   0.417   4.025  3.6206  0.7441 -1.1306
  138MOL0     H18579   4.716   0.575   3.839 -0.2809  0.2743 -0.8090
  138MOL0     H18580   4.556   0.603   3.919 -0.2769  1.7979 -2.3986
  138MOL0     H18581   4.312   0.510   3.788 -3.0687 -1.2127 -2.8061
  138MOL0     H18582   4.271   0.452   3.411  1.7471 -0.3334  0.4421
  138MOL0     H18583   4.189   0.418   3.571 -3.1807  0.3665 -1.0394
  138MOL0     H18584   4.208   0.706   3.466  3.1916 -0.4140  2.9265
  138MOL0     H18585   4.131   0.640   3.612  3.5850 -0.3760  0.6555
  138MOL0     H18586   3.961   0.683   3.461 -2.0976 -1.2049  0.2520
  138MOL0     H18587   3.980   0.508   3.466  0.2719  1.1673  1.5129
  138MOL0     H18588   4.100   0.497   3.265  0.0664 -0.4239  0.4775
  138MOL0     H18589   4.132   0.675   3.250  1.6063 -3.0878 -2.4149
  138MOL0     H18590   4.056   0.701   2.982 -0.1650 -0.0553 -1.9984
  138MOL0     H18591   3.933   0.892   2.754 -1.9351  0.3275  2.4568
  138MOL0     H18592   4.047   1.021   2.815  0.2605 -0.1149 -0.3298
  138MOL0     H18593   4.107   0.853   2.804  0.6422 -0.4099  1.8106
  138MOL0     H18594   3.984   1.232   2.757 -1.2018  0.3267  2.4711
  138MOL0     H18595   3.968   1.456   2.651 -0.8247 -0.5005 -1.3353
  138MOL0     H18596   3.553   1.499   2.459  0.1121 -1.0664 -0.3396
  138MOL0     H18597   3.600   1.665   2.415 -0.8583 -0.4400 -1.8129
  138MOL0     H18598   3.819   1.508   2.349  0.2483 -0.2190  1.2495
  138MOL0     H18599   3.701   1.384   2.350  1.1210  1.7409  1.7346
  138MOL0     H18600   3.740   1.472   2.122 -0.9184 -1.2518  0.2939
  138MOL0     H18601   3.682   1.634   2.169  0.4604 -0.0009 -0.9201
  138MOL0     H18602   3.531   1.359   2.198  3.2923 -1.0053 -0.5525
  138MOL0     H18603   3.479   1.517   2.250  1.1070  3.1818 -0.8841
  138MOL0     H18604   3.547   1.430   1.960  1.4011 -0.6792  2.3131
  138MOL0     H18605   3.484   1.591   1.998  0.5073 -0.8046 -1.5837
  138MOL0     H18606   3.340   1.331   1.991 -0.2307 -0.0588 -0.2710
  138MOL0     H18607   3.298   1.464   2.103  3.9264  0.8693  1.2774
  138MOL0     H18608   3.341   1.519   1.801 -1.1169 -3.3894 -2.5676
  138MOL0     H18609   3.227   1.596   1.912  0.5815  0.8575 -2.2781
  138MOL0     H18610   3.105   1.381   1.921 -0.3166  3.8364  1.2378
  138MOL0     H18611   3.206   1.311   1.792 -3.5239 -0.6664 -1.8042
  138MOL0     H18612   3.550   1.447   2.669 -0.2963 -0.6522 -1.4906
  138MOL0     H18613   3.551   1.223   2.793  1.2457  1.4633  2.8375
  138MOL0     H18614   3.739   1.016   3.194 -0.1549 -0.1315  0.8116
  138MOL0     H18615   3.819   0.801   3.311  2.0652  0.1367  1.1940
  138MOL0     H18616   5.460   0.509   3.672 -0.6260 -1.7919 -2.9422
  138MOL0     H18617   5.669   0.561   3.574 -0.5627  1.0904  1.7282
  138MOL0     H18618   6.138   0.480   3.639 -3.0946  1.9506 -0.4018
  138MOL0     H18619   6.376   0.534   3.586 -1.9637  2.5763  3.6196
  138MOL0     H18620   6.520   0.707   3.542  0.5069 -6.2776  4.7754
  138MOL0     H18621   6.595   0.554   3.490  0.0133 -0.1021  1.3853
  138MOL0     H18622   6.743   0.757   3.487 -1.8531  3.2390 -0.9461
  138MOL0     H18623   6.666   0.785   3.334  1.6634  1.4215  0.7969
  138MOL0     H18624   6.747   0.547   3.245 -1.2997  0.7566 -0.6678
  138MOL0     H18625   6.813   0.525   3.407 -0.0752 -1.3830 -1.1683
  138MOL0     H18626   6.888   0.775   3.265  0.0846 -0.8793 -2.4563
  138MOL0     H18627   6.925   0.629   3.182 -1.3045  1.6778 -1.4811
  138MOL0     H18628   7.191   0.662   3.536 -3.8765 -1.0324  4.0581
  138MOL0     H18629   6.240   0.718   3.219  2.6659  1.4685  1.9248
  138MOL0     H18630   6.012   0.648   3.263  1.1956  0.9872 -1.3677
  139MOL0     O18631   8.575   8.412   7.084 -0.1900 -0.0833 -0.3181
  139MOL0     C18632   8.636   8.318   7.132 -0.2212  0.8234 -0.0835
  139MOL0     O18633   8.587   8.189   7.139 -0.9690  0.5330  0.4250
  139MOL0     C18634   8.447   8.182   7.118  0.7314  0.7518  0.5173
  139MOL0     C18635   8.351   8.138   7.218 -0.1566 -0.1228  0.6247
  139MOL0     C18636   8.221   8.124   7.175  0.2990 -0.6358 -0.4270
  139MOL0     C18637   8.180   8.125   7.047 -0.3705 -0.5587  0.0501
  139MOL0     O18638   8.052   8.086   7.017  0.1823 -0.6120  0.4785
  139MOL0     C18639   8.015   8.087   6.882 -0.6773  0.2150  0.3418
  139MOL0     C18640   7.871   8.038   6.869  0.4642  0.9896  0.0336
  139MOL0     C18641   7.825   8.042   6.720  0.1055 -0.3859 -0.6417
  139MOL0     C18642   7.680   8.008   6.707 -0.1660  0.4876  0.6123
  139MOL0     C18643   7.635   8.043   6.559 -0.2808  0.4553  0.1167
  139MOL0     C18644   7.485   8.063   6.569 -0.8005  0.3425 -0.1135
  139MOL0     C18645   7.423   8.041   6.440  0.2379  0.8216 -0.1293
  139MOL0     C18646   7.467   8.142   6.333 -0.1570 -0.1423  0.0284
  139MOL0     N18647   7.403   8.268   6.364  1.0285  0.4766 -0.4584
  139MOL0     C18648   7.439   8.383   6.293  0.1963  0.3228  1.1182
  139MOL0     C18649   7.334   8.470   6.319  0.6141 -0.1103  0.3046
  139MOL0     C18650   7.319   8.613   6.291 -0.4932 -0.0462  0.1053
  139MOL0     C18651   7.417   8.690   6.187  0.2387  0.7211 -0.3305
  139MOL0     C18652   7.403   8.644   6.043  0.0631  0.3931 -0.0293
  139MOL0     C18653   7.481   8.735   5.942  0.1270  0.2481  0.0657
  139MOL0     O18654   7.415   8.727   5.813  0.4558  0.5950 -0.1669
  139MOL0     C18655   7.490   8.779   5.709  0.1106  0.2475 -0.1257
  139MOL0     C18656   7.447   8.743   5.589 -0.1665  0.8200  0.2932
  139MOL0     C18657   7.508   8.780   5.468 -0.1122  0.0621  0.0670
  139MOL0     C18658   7.448   8.734   5.335 -0.2651 -0.5043 -0.0146
  139MOL0     C18659   7.624   8.856   5.477  0.1273  0.3316 -0.5260
  139MOL0     C18660   7.707   8.905   5.367 -0.5306  0.2974  0.3635
  139MOL0     O18661   7.757   9.030   5.371 -0.1988  0.3857 -0.5673
  139MOL0     C18662   7.864   9.063   5.282 -0.2123  0.2282  0.1080
  139MOL0     C18663   7.996   9.065   5.318  0.2074  0.1761  0.4411
  139MOL0     C18664   8.100   9.096   5.227 -0.4741  0.5378  0.2430
  139MOL0     C18665   8.072   9.131   5.094  0.0442  1.1148  0.2006
  139MOL0     O18666   8.171   9.183   5.013  0.6980 -0.0882  0.3843
  139MOL0     C18667   8.133   9.233   4.880  0.0968  0.0197 -0.3931
  139MOL0     C18668   8.254   9.295   4.806 -0.3918 -0.2665 -0.3465
  139MOL0     C18669   8.298   9.435   4.869 -0.2430  0.3396 -0.0255
  139MOL0     C18670   8.380   9.521   4.764  0.6134 -0.7516  0.3213
  139MOL0     C18671   8.433   9.649   4.830 -1.1157 -0.0170  0.5030
  139MOL0     C18672   8.510   9.736   4.736 -0.1104 -0.0986 -0.6260
  139MOL0     C18673   8.644   9.664   4.701  1.0152  0.5381 -0.8069
  139MOL0     C18674   8.749   9.764   4.662  0.3136  0.1661 -0.0749
  139MOL0    Cl18675   8.804   9.874   4.796  0.3509  0.0264  0.1903
  139MOL0     C18676   7.931   9.127   5.054 -0.5982  0.6589 -0.3306
  139MOL0     C18677   7.836   9.093   5.144  0.4757 -0.3159 -0.0201
  139MOL0     O18678   7.734   8.820   5.283 -0.0842 -0.5579 -0.3226
  139MOL0     C18679   7.666   8.901   5.608  0.1442 -0.1486  0.1402
  139MOL0     C18680   7.598   8.857   5.719 -0.2257  0.3791  1.0369
  139MOL0     N18681   7.243   8.412   6.405  0.0071 -0.0492  0.2261
  139MOL0     N18682   7.279   8.292   6.426 -0.3052  0.5740  0.2407
  139MOL0     C18683   8.277   8.155   6.943  0.3478  0.0889 -0.2162
  139MOL0     C18684   8.405   8.181   6.984  0.2552  0.2120 -0.8148
  139MOL0     C18685   8.777   8.340   7.180 -0.1977  0.0692 -1.6486
  139MOL0     C18686   8.822   8.468   7.223  0.4575  0.0708  0.6963
  139MOL0     C18687   8.950   8.482   7.268 -0.3697 -0.3169 -0.2752
  139MOL0     C18688   9.046   8.376   7.257 -0.2669  0.3095 -0.1896
  139MOL0     O18689   9.177   8.394   7.284  0.5190  0.6770  0.4592
  139MOL0     C18690   9.272   8.291   7.294  0.6279  0.0063  0.6440
  139MOL0     C18691   9.392   8.352   7.364 -0.1545 -0.4880  0.3089
  139MOL0     C18692   9.373   8.414   7.497 -0.5492  0.1309 -0.1112
  139MOL0     C18693   9.525   8.464   7.549 -0.0787  1.2220 -0.4852
  139MOL0     C18694   9.506   8.567   7.647 -0.6930 -0.0979  0.4410
  139MOL0     C18695   9.528   8.657   7.727  0.3917 -0.4149 -0.6840
  139MOL0     C18696   9.007   8.256   7.199 -0.6566  0.1786  0.2625
  139MOL0     C18697   8.875   8.235   7.170  0.0237  0.1130  0.3959
  139MOL0     H18698   8.372   8.128   7.324 -1.1321 -2.4503  0.6584
  139MOL0     H18699   8.138   8.099   7.241  1.7079 -2.3067  0.7859
  139MOL0     H18700   8.022   8.186   6.835 -0.4884  0.3773  0.7126
  139MOL0     H18701   8.082   8.020   6.827  1.4477  1.5182  1.2420
  139MOL0     H18702   7.861   7.935   6.904 -1.5713  0.0870 -2.8622
  139MOL0     H18703   7.808   8.102   6.932  0.5100  1.9101 -0.8315
  139MOL0     H18704   7.840   8.143   6.681  0.4149 -0.4878 -0.7850
  139MOL0     H18705   7.876   7.962   6.666  1.8789  0.0464  0.3314
  139MOL0     H18706   7.664   7.902   6.732 -0.9278  0.4193 -0.0842
  139MOL0     H18707   7.621   8.061   6.782 -0.6177 -0.5071  0.9801
  139MOL0     H18708   7.686   8.134   6.526  0.3894  1.3234  3.2093
  139MOL0     H18709   7.662   7.958   6.495 -0.1618 -0.2635  1.1095
  139MOL0     H18710   7.442   7.977   6.622  0.7011 -3.0548 -3.8976
  139MOL0     H18711   7.459   8.157   6.618 -3.0331  0.3020 -1.1041
  139MOL0     H18712   7.445   7.940   6.404 -0.5391 -0.5765  2.9938
  139MOL0     H18713   7.314   8.043   6.446  0.3018  0.2791  1.8529
  139MOL0     H18714   7.432   8.127   6.230 -2.5382  1.4623  0.5346
  139MOL0     H18715   7.576   8.156   6.332  0.1014 -2.0000 -0.6220
  139MOL0     H18716   7.529   8.399   6.233 -0.7773 -0.9265 -0.7967
  139MOL0     H18717   7.216   8.632   6.258 -1.0017 -2.6158 -0.0240
  139MOL0     H18718   7.336   8.672   6.382 -0.2817 -1.1087  0.7763
  139MOL0     H18719   7.522   8.683   6.217  0.1133 -1.3406 -0.2284
  139MOL0     H18720   7.392   8.796   6.198 -3.1827 -0.0890  0.9468
  139MOL0     H18721   7.303   8.659   6.002 -0.3756 -2.9420 -0.4580
  139MOL0     H18722   7.422   8.537   6.030  1.0012  0.2737  1.9276
  139MOL0     H18723   7.587   8.706   5.938 -0.4276 -1.7649 -2.2415
  139MOL0     H18724   7.485   8.842   5.965 -0.6281  0.9168 -2.6338
  139MOL0     H18725   7.350   8.696   5.587  0.3403 -0.2649 -1.3408
  139MOL0     H18726   7.462   8.626   5.322  0.6367 -0.3095 -0.7765
  139MOL0     H18727   7.340   8.751   5.339 -0.3026  0.1517 -2.3793
  139MOL0     H18728   7.484   8.785   5.245 -3.5796 -2.0722 -2.4218
  139MOL0     H18729   8.017   9.025   5.417  2.7869 -2.0470 -0.8699
  139MOL0     H18730   8.205   9.094   5.258 -0.4465 -0.6630  0.1482
  139MOL0     H18731   8.087   9.158   4.815 -0.2392  2.6409 -3.4407
  139MOL0     H18732   8.053   9.306   4.891 -0.9117 -0.5822 -2.9126
  139MOL0     H18733   8.336   9.222   4.804 -1.6106 -1.9977  3.5190
  139MOL0     H18734   8.219   9.313   4.704  1.8041  4.3153 -0.5491
  139MOL0     H18735   8.363   9.411   4.954 -0.2200  1.7412  0.3921
  139MOL0     H18736   8.221   9.490   4.925  1.7613  2.7737  0.5494
  139MOL0     H18737   8.454   9.460   4.710 -1.4828 -1.1047 -2.4055
  139MOL0     H18738   8.313   9.546   4.680  0.5369 -3.2606 -0.4544
  139MOL0     H18739   8.496   9.612   4.911 -2.4189  0.6238  1.8402
  139MOL0     H18740   8.340   9.697   4.861 -1.2517 -1.0721  1.8444
  139MOL0     H18741   8.448   9.766   4.651  0.9624  0.1605 -1.3305
  139MOL0     H18742   8.543   9.818   4.801 -2.2302 -0.6468  1.2900
  139MOL0     H18743   8.629   9.583   4.629 -0.6672 -2.8708  3.0327
  139MOL0     H18744   8.676   9.618   4.794  1.0242 -0.8642 -1.4778
  139MOL0     H18745   8.715   9.828   4.581  0.4185  1.4059  0.8250
  139MOL0     H18746   8.830   9.708   4.614 -0.7160 -1.3060 -0.1632
  139MOL0     H18747   7.896   9.143   4.953  2.4561 -0.7997 -1.7406
  139MOL0     H18748   7.731   9.096   5.117  0.3655  3.9162  0.1886
  139MOL0     H18749   7.751   8.964   5.632 -0.3533  1.0499 -1.1149
  139MOL0     H18750   7.623   8.903   5.814 -1.4498  2.4321  0.4108
  139MOL0     H18751   8.253   8.158   6.838  1.7271  0.4718 -0.5331
  139MOL0     H18752   8.482   8.194   6.908  1.5088  2.5813  0.7286
  139MOL0     H18753   8.771   8.564   7.214 -0.2980 -0.4013 -0.3381
  139MOL0     H18754   8.984   8.582   7.296 -0.9033 -0.5922  1.5056
  139MOL0     H18755   9.244   8.207   7.359 -2.7969 -0.2462 -0.9252
  139MOL0     H18756   9.288   8.253   7.192 -1.4853 -1.1686  0.6826
  139MOL0     H18757   9.442   8.420   7.294 -1.0157  1.3661  1.4142
  139MOL0     H18758   9.467   8.277   7.391 -1.0434 -0.4828  3.1393
  139MOL0     H18759   9.335   8.344   7.572  0.1299  0.9722  1.0458
  139MOL0     H18760   9.313   8.504   7.486  3.1477  2.6155 -2.4508
  139MOL0     H18761   9.581   8.500   7.462 -1.4021  2.0522 -1.0256
  139MOL0     H18762   9.572   8.369   7.577 -1.5638 -0.3103 -2.7264
  139MOL0     H18763   9.559   8.737   7.792  0.4148  0.2412 -1.4939
  139MOL0     H18764   9.078   8.178   7.173  0.4895  2.3493 -3.9547
  139MOL0     H18765   8.840   8.136   7.146  0.3582 -0.0409  0.5378
  140MOL0     O18766   2.471   8.717   8.832 -0.9626 -0.3809 -0.1343
  140MOL0     C18767   2.521   8.825   8.796  1.1995  0.3802  0.6112
  140MOL0     O18768   2.459   8.917   8.707 -0.8420  0.1639  0.8574
  140MOL0     C18769   2.341   8.881   8.642 -1.3741 -0.7947  0.3615
  140MOL0     C18770   2.221   8.937   8.689 -0.7472 -0.2658  0.2433
  140MOL0     C18771   2.099   8.913   8.615  0.3577 -0.2956 -0.2186
  140MOL0     C18772   2.094   8.844   8.499  0.3674  0.0754  0.8590
  140MOL0     O18773   1.972   8.842   8.430 -0.5287 -0.4494  0.1423
  140MOL0     C18774   1.975   8.776   8.298 -0.1036 -0.2196 -0.4599
  140MOL0     C18775   1.835   8.727   8.265 -0.2770  0.0046 -0.4755
  140MOL0     C18776   1.723   8.831   8.209 -0.9504  0.0573  0.2114
  140MOL0     C18777   1.591   8.762   8.190 -0.4571  0.4847 -0.1086
  140MOL0     C18778   1.486   8.862   8.149  0.2254 -0.5594 -0.0968
  140MOL0     C18779   1.340   8.799   8.142 -0.2060 -0.0646 -0.4489
  140MOL0     C18780   1.247   8.870   8.045  0.2345  0.4071  0.5916
  140MOL0     C18781   1.216   9.014   8.092  1.0497 -0.7740  0.4124
  140MOL0     N18782   1.098   9.062   8.010  0.4927  0.1846  0.3719
  140MOL0     C18783   1.036   9.185   8.020 -0.8474 -0.1604  0.1091
  140MOL0     C18784   0.956   9.194   7.919 -0.2176  0.8212  0.1195
  140MOL0     C18785   0.878   9.314   7.888 -0.0467  0.3447 -0.2713
  140MOL0     C18786   0.738   9.296   7.834  0.5441  0.3332  0.1525
  140MOL0     C18787   0.673   9.442   7.824  0.1973  0.0011 -0.2633
  140MOL0     C18788   0.548   9.426   7.739 -0.0485 -0.5073  0.0239
  140MOL0     O18789   0.444   9.349   7.801  0.3165 -0.5028 -0.0052
  140MOL0     C18790   0.317   9.367   7.749  0.3913  0.2672 -0.2475
  140MOL0     C18791   0.285   9.445   7.636  0.0535 -0.4202 -0.2542
  140MOL0     C18792   0.154   9.454   7.584 -0.2767 -0.7907 -0.3373
  140MOL0     C18793   0.133   9.534   7.458 -0.2800  0.2154  0.0492
  140MOL0     C18794   0.048   9.385   7.657  0.0951 -0.1906  0.0706
  140MOL0     C18795  -0.101   9.387   7.622 -0.2139 -0.2084 -0.3861
  140MOL0     O18796  -0.180   9.342   7.719  0.3656 -0.4491  0.5092
  140MOL0     C18797  -0.313   9.345   7.709 -0.3705  0.1408  0.3423
  140MOL0     C18798  -0.385   9.462   7.747 -1.0338 -0.9758  0.0540
  140MOL0     C18799  -0.520   9.478   7.735  0.4220  0.1312  0.2477
  140MOL0     C18800  -0.593   9.375   7.682 -0.4157  0.4007 -0.3803
  140MOL0     O18801  -0.725   9.373   7.678  0.0495 -0.0917  0.3617
  140MOL0     C18802  -0.810   9.482   7.726  0.2930  0.5988  0.0444
  140MOL0     C18803  -0.958   9.435   7.737  0.2263 -0.4455  0.7140
  140MOL0     C18804  -1.016   9.404   7.594  0.0679 -0.4499  0.1045
  140MOL0     C18805  -1.163   9.363   7.588 -0.3005 -1.1557  0.2626
  140MOL0     C18806  -1.252   9.482   7.626  1.3888  0.0449 -1.1198
  140MOL0     C18807  -1.399   9.436   7.668 -0.0579  0.2923 -0.6369
  140MOL0     C18808  -1.487   9.558   7.691 -0.4299 -0.3369 -0.8691
  140MOL0     C18809  -1.611   9.529   7.769  0.1882 -0.0539 -0.4573
  140MOL0    Cl18810  -1.685   9.691   7.785 -0.6198  0.2284 -0.0692
  140MOL0     C18811  -0.531   9.253   7.643  0.4119 -1.2703 -0.0909
  140MOL0     C18812  -0.391   9.243   7.652  0.1088  0.2027 -0.7523
  140MOL0     O18813  -0.132   9.424   7.510  0.4290 -0.3843 -0.5735
  140MOL0     C18814   0.086   9.297   7.769 -0.6144 -0.4596  0.3509
  140MOL0     C18815   0.216   9.300   7.819  0.2509  1.1624 -0.5314
  140MOL0     N18816   0.962   9.080   7.839  0.6802  0.8439  0.4609
  140MOL0     N18817   1.038   9.003   7.902  0.2947  0.9780  0.9068
  140MOL0     C18818   2.216   8.792   8.449  0.8826 -0.1671  0.0299
  140MOL0     C18819   2.329   8.811   8.521 -0.4099  0.4432 -0.1730
  140MOL0     C18820   2.661   8.865   8.837  0.4659  0.7829  0.8506
  140MOL0     C18821   2.700   8.993   8.838  0.5213  0.5606  0.3795
  140MOL0     C18822   2.828   9.018   8.866  0.9277 -0.8675 -0.3073
  140MOL0     C18823   2.918   8.930   8.920 -0.5166 -0.0554  0.4848
  140MOL0     O18824   3.032   8.983   8.976  0.0276  0.3696  0.2111
  140MOL0     C18825   3.023   9.044   9.099  0.3119  0.4949 -0.4056
  140MOL0     C18826   3.101   9.160   9.082 -0.4420 -0.2256  0.4392
  140MOL0     C18827   3.151   9.211   9.215 -0.4377  0.3874  0.8837
  140MOL0     C18828   3.225   9.344   9.203  0.1373  0.2355 -1.0607
  140MOL0     C18829   3.275   9.361   9.342 -0.1252 -0.0069 -0.0599
  140MOL0     C18830   3.311   9.379   9.457 -1.1296 -0.2241  1.8804
  140MOL0     C18831   2.877   8.800   8.921 -0.2259 -0.2479 -0.4743
  140MOL0     C18832   2.757   8.763   8.873  0.0218  0.2244  0.1205
  140MOL0     H18833   2.205   8.994   8.780  0.1753 -1.0796  0.9366
  140MOL0     H18834   2.011   8.958   8.660  1.1713 -1.9708  3.4230
  140MOL0     H18835   2.013   8.853   8.230  0.2659  1.7584  1.8546
  140MOL0     H18836   2.030   8.682   8.293 -1.3332 -1.1291  1.9134
  140MOL0     H18837   1.865   8.646   8.197  0.2065 -3.7084  3.7212
  140MOL0     H18838   1.798   8.680   8.356  0.7882 -2.3476 -1.1817
  140MOL0     H18839   1.706   8.921   8.268  0.2963  0.7457 -0.4403
  140MOL0     H18840   1.762   8.866   8.113 -0.1888 -0.8218  0.1861
  140MOL0     H18841   1.595   8.679   8.118  0.6153 -1.3919  2.0091
  140MOL0     H18842   1.567   8.719   8.288  1.5479 -1.4932 -0.4026
  140MOL0     H18843   1.491   8.948   8.217  1.1254  0.3043 -1.2182
  140MOL0     H18844   1.512   8.904   8.051 -1.4491  1.3366  0.2065
  140MOL0     H18845   1.351   8.695   8.110 -1.5600  0.3190 -2.2967
  140MOL0     H18846   1.289   8.805   8.239  0.1416  1.2901 -0.3295
  140MOL0     H18847   1.294   8.882   7.947  0.7533 -0.6466  0.6978
  140MOL0     H18848   1.157   8.810   8.026  0.7418 -1.0273  2.3679
  140MOL0     H18849   1.304   9.074   8.065  1.5785 -0.8337  1.8956
  140MOL0     H18850   1.191   9.022   8.199 -0.9159  0.4540 -0.0758
  140MOL0     H18851   1.049   9.269   8.088 -1.1498 -1.7413  2.2448
  140MOL0     H18852   0.877   9.380   7.975  2.3388  0.3397 -0.1866
  140MOL0     H18853   0.938   9.364   7.813  2.1710 -3.2613 -1.1462
  140MOL0     H18854   0.685   9.229   7.902 -1.7882 -0.6703 -2.4699
  140MOL0     H18855   0.737   9.252   7.734  1.4688  0.1828  0.2012
  140MOL0     H18856   0.749   9.514   7.793  1.0679  0.0044  1.6882
  140MOL0     H18857   0.652   9.485   7.922  2.3405  1.7324 -0.4891
  140MOL0     H18858   0.579   9.386   7.642  1.2909  0.6375 -0.0491
  140MOL0     H18859   0.500   9.522   7.720 -1.0269 -0.4098  2.5564
  140MOL0     H18860   0.369   9.491   7.585 -0.3151  0.0753 -0.4277
  140MOL0     H18861   0.075   9.626   7.473 -1.6688 -0.4963 -0.7706
  140MOL0     H18862   0.231   9.574   7.430  1.0853 -1.8785  1.5702
  140MOL0     H18863   0.092   9.468   7.381  0.6783 -0.6878  0.2887
  140MOL0     H18864  -0.333   9.552   7.780  3.6204 -2.7689 -1.4875
  140MOL0     H18865  -0.560   9.574   7.766 -0.0961  0.2705 -0.8204
  140MOL0     H18866  -0.766   9.516   7.820  0.6054  1.3569 -0.3703
  140MOL0     H18867  -0.798   9.570   7.662  0.1079  0.1036 -0.6843
  140MOL0     H18868  -0.952   9.349   7.803  1.7342 -2.1325 -1.4659
  140MOL0     H18869  -1.013   9.519   7.780  1.6267  0.9161 -0.0602
  140MOL0     H18870  -0.970   9.314   7.552  0.3087  0.0930 -0.8177
  140MOL0     H18871  -0.996   9.484   7.523 -0.4613 -2.2850 -2.2330
  140MOL0     H18872  -1.193   9.336   7.487 -0.9605  0.6930 -0.0864
  140MOL0     H18873  -1.178   9.273   7.649 -1.5149  0.9347  3.3232
  140MOL0     H18874  -1.257   9.550   7.540 -0.5522 -0.0673 -1.1378
  140MOL0     H18875  -1.211   9.532   7.714 -0.2419 -0.6838  0.1029
  140MOL0     H18876  -1.436   9.371   7.588  4.1436 -0.7647 -1.9699
  140MOL0     H18877  -1.381   9.382   7.761  4.5294  0.9543 -0.9106
  140MOL0     H18878  -1.519   9.589   7.591  0.0398 -1.8015 -1.5117
  140MOL0     H18879  -1.423   9.636   7.733 -1.2490 -0.4863  0.7404
  140MOL0     H18880  -1.589   9.481   7.864  0.0289 -1.0482 -0.9183
  140MOL0     H18881  -1.666   9.450   7.717 -0.0390  0.2273 -0.6540
  140MOL0     H18882  -0.594   9.176   7.599 -1.4293  0.3397 -0.4236
  140MOL0     H18883  -0.345   9.152   7.616 -1.4968 -0.7358 -0.5246
  140MOL0     H18884   0.026   9.221   7.819 -0.2577 -0.4529  0.7968
  140MOL0     H18885   0.240   9.261   7.917  0.9788  4.7892  0.9226
  140MOL0     H18886   2.229   8.742   8.354 -1.1736 -0.7018 -0.0133
  140MOL0     H18887   2.415   8.769   8.472 -1.0092  1.0042 -1.7791
  140MOL0     H18888   2.632   9.070   8.803  1.7570  2.3177  1.6761
  140MOL0     H18889   2.864   9.121   8.867  0.2365 -0.5771 -1.9654
  140MOL0     H18890   2.921   9.070   9.130  0.2725  0.1355 -0.2322
  140MOL0     H18891   3.068   8.983   9.178 -1.5075  1.0341  1.1089
  140MOL0     H18892   3.047   9.242   9.033  2.2905  0.6168 -1.3647
  140MOL0     H18893   3.191   9.134   9.025  1.0352  0.2604  2.4585
  140MOL0     H18894   3.208   9.132   9.263  1.0446  1.3924  0.8536
  140MOL0     H18895   3.064   9.231   9.279 -0.0087  0.1031  1.5667
  140MOL0     H18896   3.146   9.414   9.177 -1.0654 -1.0890 -1.0701
  140MOL0     H18897   3.311   9.349   9.135  1.5574  2.7701  0.7436
  140MOL0     H18898   3.354   9.393   9.554  4.5976 -0.4616 -0.2106
  140MOL0     H18899   2.949   8.730   8.961  2.2263  1.9904 -0.6810
  140MOL0     H18900   2.724   8.659   8.880  2.7657 -1.1180 -3.7249
  141MOL0     O18901   7.884   3.993   1.951 -0.6285  0.6463 -0.4833
  141MOL0     C18902   7.878   4.115   1.959  1.0031  0.0841  0.3142
  141MOL0     O18903   7.781   4.179   2.027  0.0311 -0.0631  0.1162
  141MOL0     C18904   7.695   4.108   2.107 -0.1198 -1.0169 -0.3330
  141MOL0     C18905   7.687   4.125   2.245  0.1685  0.5308 -0.3164
  141MOL0     C18906   7.597   4.053   2.319 -0.6373  0.6202 -0.8450
  141MOL0     C18907   7.500   3.966   2.267  0.0144  0.2295 -0.3313
  141MOL0     O18908   7.399   3.921   2.350  0.3209 -0.1962  0.3183
  141MOL0     C18909   7.402   3.782   2.382 -0.2231  0.7273 -0.3823
  141MOL0     C18910   7.276   3.720   2.317 -0.3268  0.1075 -0.5109
  141MOL0     C18911   7.234   3.596   2.393  0.3671  0.4522 -0.1871
  141MOL0     C18912   7.089   3.558   2.346 -1.2893  0.0065 -0.8103
  141MOL0     C18913   7.012   3.447   2.422 -0.3895 -0.6843  0.4316
  141MOL0     C18914   6.867   3.434   2.371  0.6192  0.0829  0.1116
  141MOL0     C18915   6.785   3.338   2.443  0.5203  0.3153 -0.0392
  141MOL0     C18916   6.624   3.329   2.400 -0.3063  0.3279 -0.7785
  141MOL0     N18917   6.554   3.199   2.425  0.8051 -0.7942 -0.1914
  141MOL0     C18918   6.413   3.194   2.444 -0.5556  0.6671 -0.0836
  141MOL0     C18919   6.397   3.062   2.484 -0.5240 -0.3911  0.0350
  141MOL0     C18920   6.267   3.004   2.517  0.2287 -0.6133  0.2356
  141MOL0     C18921   6.186   2.944   2.404  0.1229 -0.0518  0.2615
  141MOL0     C18922   6.049   2.930   2.472  0.5983  0.0551  0.2887
  141MOL0     C18923   5.955   2.854   2.374 -0.0998 -0.1194  0.1899
  141MOL0     O18924   5.827   2.839   2.435  0.6181  0.0612  0.1976
  141MOL0     C18925   5.731   2.777   2.370  0.4813  0.0327  0.0740
  141MOL0     C18926   5.617   2.755   2.452  0.4663 -1.0048 -0.1217
  141MOL0     C18927   5.505   2.691   2.396 -0.0201 -0.6824 -0.4799
  141MOL0     C18928   5.374   2.673   2.469  0.2053  0.0193  0.4145
  141MOL0     C18929   5.514   2.655   2.261  0.4753 -0.0346 -0.2425
  141MOL0     C18930   5.411   2.571   2.194  0.5934 -0.1650 -0.8779
  141MOL0     O18931   5.369   2.450   2.259  0.2455  0.8172 -0.1843
  141MOL0     C18932   5.257   2.381   2.216  0.2568 -0.6317 -0.2840
  141MOL0     C18933   5.257   2.240   2.225  0.0681  0.1878  0.7878
  141MOL0     C18934   5.160   2.161   2.180 -0.4164  1.5476  0.1002
  141MOL0     C18935   5.035   2.214   2.130 -0.5090  0.5167  0.1893
  141MOL0     O18936   4.920   2.143   2.091 -0.0029 -0.5856 -0.9357
  141MOL0     C18937   4.925   2.006   2.051 -0.6111  0.3263  0.6365
  141MOL0     C18938   4.826   1.995   1.943  0.3334  0.5941 -0.1598
  141MOL0     C18939   4.868   1.878   1.848  0.0083 -0.9240 -0.4871
  141MOL0     C18940   4.786   1.861   1.725 -0.6546 -0.8527 -0.0921
  141MOL0     C18941   4.789   1.988   1.639  0.0795  0.7522  0.3882
  141MOL0     C18942   4.688   1.959   1.533  0.6706  0.5864  0.7408
  141MOL0     C18943   4.686   2.055   1.413 -0.4447 -0.0559  0.4753
  141MOL0     C18944   4.585   2.037   1.301  0.0316 -0.2237 -1.2297
  141MOL0    Cl18945   4.577   1.856   1.248  0.0709  0.3261 -0.3125
  141MOL0     C18946   5.031   2.357   2.115  0.3781 -0.0552 -0.2914
  141MOL0     C18947   5.140   2.438   2.161 -0.1096 -0.0770 -0.0156
  141MOL0     O18948   5.369   2.602   2.083  0.6605  0.2498 -0.0687
  141MOL0     C18949   5.622   2.680   2.179 -0.1449 -0.4701 -0.0617
  141MOL0     C18950   5.731   2.752   2.232 -0.0815  0.7537  0.6741
  141MOL0     N18951   6.517   2.996   2.466 -0.0298 -0.7023 -0.1606
  141MOL0     N18952   6.608   3.077   2.434  0.8869  0.3757  0.6524
  141MOL0     C18953   7.512   3.942   2.135  0.1923 -0.8097 -0.5634
  141MOL0     C18954   7.607   4.016   2.055  0.3443 -0.1199  0.2044
  141MOL0     C18955   7.968   4.205   1.898 -0.0606 -0.0036  0.2845
  141MOL0     C18956   7.935   4.340   1.869  0.2552  0.0098  0.5223
  141MOL0     C18957   8.012   4.429   1.802 -0.3198 -0.0825 -0.4925
  141MOL0     C18958   8.143   4.396   1.774  1.2436  0.9262 -0.1228
  141MOL0     O18959   8.241   4.461   1.704  0.4613  0.5535 -0.1076
  141MOL0     C18960   8.229   4.602   1.706 -0.0825 -1.1829  1.1054
  141MOL0     C18961   8.290   4.655   1.839  0.7712  0.1199 -0.3951
  141MOL0     C18962   8.418   4.590   1.887  0.0984 -0.6464  0.4443
  141MOL0     C18963   8.444   4.611   2.033  0.0860  0.1922 -1.1336
  141MOL0     C18964   8.494   4.749   2.052 -1.2356 -0.0649 -0.4873
  141MOL0     C18965   8.521   4.865   2.050 -0.6609  0.0040  0.5086
  141MOL0     C18966   8.187   4.265   1.803 -0.5587 -0.2883  0.5892
  141MOL0     C18967   8.108   4.174   1.878  0.1695  0.3436  0.5982
  141MOL0     H18968   7.752   4.195   2.296 -1.0464  0.8756  0.8022
  141MOL0     H18969   7.592   4.080   2.424 -0.1849  3.0057 -1.3854
  141MOL0     H18970   7.493   3.734   2.346  0.1247  1.8047 -0.9995
  141MOL0     H18971   7.395   3.769   2.491  0.7429  0.7792 -0.3000
  141MOL0     H18972   7.202   3.800   2.314  1.5245  2.1536  2.4926
  141MOL0     H18973   7.294   3.689   2.214 -2.0937  0.3085 -0.9041
  141MOL0     H18974   7.309   3.521   2.368  0.7080  1.4926 -2.5990
  141MOL0     H18975   7.216   3.608   2.501 -1.9954 -0.0442 -0.4835
  141MOL0     H18976   7.020   3.643   2.348  1.2668  2.2637 -1.5441
  141MOL0     H18977   7.108   3.531   2.242 -1.0846  1.5489 -1.2006
  141MOL0     H18978   7.066   3.352   2.430 -0.4827 -0.8069 -0.3053
  141MOL0     H18979   7.015   3.479   2.526  1.4635 -2.7301  1.0868
  141MOL0     H18980   6.811   3.528   2.371 -1.1534 -0.9057  2.0263
  141MOL0     H18981   6.881   3.399   2.268  0.9951  0.8645 -0.1063
  141MOL0     H18982   6.824   3.239   2.418 -0.2696  0.0646 -0.3371
  141MOL0     H18983   6.784   3.375   2.546  0.7658 -0.2401  0.1702
  141MOL0     H18984   6.627   3.330   2.290  0.7819 -3.6118 -0.9152
  141MOL0     H18985   6.568   3.414   2.441 -3.7597 -2.1545  0.1060
  141MOL0     H18986   6.336   3.270   2.447 -0.5936  0.5934  0.9755
  141MOL0     H18987   6.287   2.938   2.602 -1.7686 -2.8006 -0.8665
  141MOL0     H18988   6.209   3.092   2.545  0.4543 -0.5332  0.4518
  141MOL0     H18989   6.232   2.850   2.371 -1.2711 -1.3947  1.8896
  141MOL0     H18990   6.184   3.016   2.322  1.4944  1.7482  1.7078
  141MOL0     H18991   6.005   3.029   2.488  0.7421 -0.2066  2.5745
  141MOL0     H18992   6.048   2.882   2.570 -3.3829 -1.8469 -0.4584
  141MOL0     H18993   6.008   2.763   2.342  1.7799  0.9463  0.1651
  141MOL0     H18994   5.957   2.917   2.285 -1.0405  1.1271  1.0208
  141MOL0     H18995   5.627   2.798   2.551 -0.5608  0.1453 -0.4911
  141MOL0     H18996   5.343   2.568   2.470  1.4337 -0.4492  3.6370
  141MOL0     H18997   5.389   2.692   2.576  0.1814  1.5342  0.1755
  141MOL0     H18998   5.299   2.743   2.431  0.4548 -0.4178 -0.9039
  141MOL0     H18999   5.333   2.203   2.293 -1.3675  0.0512  2.4084
  141MOL0     H19000   5.171   2.055   2.200  0.4382  1.8996  1.7064
  141MOL0     H19001   5.025   1.978   2.016 -0.6362 -0.0799  0.8914
  141MOL0     H19002   4.904   1.940   2.135  0.7905 -0.5171  0.3506
  141MOL0     H19003   4.724   1.980   1.977 -0.1985  2.7286 -0.6519
  141MOL0     H19004   4.823   2.095   1.898  0.4515  0.2478 -0.9448
  141MOL0     H19005   4.857   1.787   1.909 -0.1346 -1.6101 -1.5093
  141MOL0     H19006   4.970   1.894   1.814 -1.2942  1.8043 -3.7539
  141MOL0     H19007   4.811   1.771   1.667 -1.3071  0.4514 -2.5626
  141MOL0     H19008   4.680   1.857   1.753 -1.0812 -0.2241 -1.5308
  141MOL0     H19009   4.888   2.005   1.596  0.5890 -1.0624  0.7897
  141MOL0     H19010   4.758   2.073   1.702 -0.6108  1.4455 -0.8428
  141MOL0     H19011   4.706   1.859   1.493  2.1245  1.2632 -0.4191
  141MOL0     H19012   4.585   1.949   1.568  0.1371 -1.0439 -1.1190
  141MOL0     H19013   4.786   2.057   1.370 -1.0605  2.2447 -1.0134
  141MOL0     H19014   4.669   2.153   1.457  0.2045  0.3168 -0.0865
  141MOL0     H19015   4.585   2.113   1.223 -2.0168  0.1961 -0.8841
  141MOL0     H19016   4.486   2.057   1.344  0.7517  0.2058  0.2875
  141MOL0     H19017   4.946   2.413   2.075 -0.1391 -0.2726  0.4718
  141MOL0     H19018   5.124   2.545   2.152  0.0733 -0.1906 -2.2024
  141MOL0     H19019   5.623   2.649   2.075 -0.0022  0.8988 -0.4773
  141MOL0     H19020   5.813   2.763   2.162 -0.9110 -1.1128 -0.6645
  141MOL0     H19021   7.439   3.876   2.089 -0.6026  0.0497 -0.5580
  141MOL0     H19022   7.618   3.993   1.950 -0.3440 -0.1173  0.1295
  141MOL0     H19023   7.830   4.365   1.881 -0.1821 -0.0742 -2.3358
  141MOL0     H19024   7.982   4.529   1.774  0.7299  0.2350 -0.5160
  141MOL0     H19025   8.291   4.631   1.620  0.6342 -4.4800  0.3925
  141MOL0     H19026   8.128   4.641   1.691 -1.0753 -2.6042  3.4902
  141MOL0     H19027   8.205   4.635   1.906 -0.1076  2.0748 -0.8786
  141MOL0     H19028   8.293   4.764   1.831 -0.4686  0.1201 -0.9774
  141MOL0     H19029   8.507   4.627   1.836 -0.4140  0.4453  0.3051
  141MOL0     H19030   8.413   4.482   1.873  0.1938 -0.4879 -0.9278
  141MOL0     H19031   8.525   4.539   2.049 -1.7258 -1.6282  0.2355
  141MOL0     H19032   8.367   4.580   2.103  2.4451 -0.7530  1.1969
  141MOL0     H19033   8.558   4.965   2.047 -2.3603  0.6861  0.9671
  141MOL0     H19034   8.290   4.242   1.780 -1.0713  1.2226 -4.3548
  141MOL0     H19035   8.140   4.071   1.891 -1.3693 -0.6014 -2.2411
  142MOL0     O19036   0.777   2.520   0.799  0.1954  0.3045 -0.7080
  142MOL0     C19037   0.759   2.608   0.883  0.8576 -0.1286  0.1221
  142MOL0     O19038   0.643   2.640   0.962  0.1575  0.1484  0.1427
  142MOL0     C19039   0.523   2.574   0.945  0.6036  0.0026  0.3473
  142MOL0     C19040   0.495   2.493   0.838  0.2420 -0.4013 -0.5604
  142MOL0     C19041   0.370   2.429   0.831  0.5133  0.8429  0.6524
  142MOL0     C19042   0.268   2.452   0.919  0.9421 -0.7843  0.5371
  142MOL0     O19043   0.144   2.394   0.921 -0.0669 -0.8902  0.6897
  142MOL0     C19044   0.079   2.396   0.794 -0.0403  0.1706  0.1771
  142MOL0     C19045   0.035   2.535   0.748  1.0870 -0.2498 -1.0349
  142MOL0     C19046  -0.058   2.608   0.853  0.3160 -0.7439 -0.0057
  142MOL0     C19047  -0.195   2.541   0.859 -0.3709 -0.1037 -0.6092
  142MOL0     C19048  -0.295   2.599   0.956  0.5817 -0.8020  0.4306
  142MOL0     C19049  -0.444   2.574   0.909 -0.8127  1.2599 -0.1997
  142MOL0     C19050  -0.552   2.670   0.977  0.3160 -0.3358  0.0561
  142MOL0     C19051  -0.617   2.610   1.095  0.1672 -0.4900 -0.0871
  142MOL0     N19052  -0.704   2.492   1.055  0.5812  0.3910 -0.3315
  142MOL0     C19053  -0.784   2.480   0.944 -0.3287 -1.0420 -0.1720
  142MOL0     C19054  -0.848   2.361   0.958  0.3735  0.2730  0.7838
  142MOL0     C19055  -0.935   2.293   0.858  0.1352 -0.0913 -0.5231
  142MOL0     C19056  -1.084   2.319   0.852 -0.0247 -0.1441  0.4549
  142MOL0     C19057  -1.153   2.316   0.984 -0.4185  0.5187  0.0189
  142MOL0     C19058  -1.298   2.383   0.969 -0.2405 -1.5072  0.0089
  142MOL0     O19059  -1.291   2.523   0.952 -0.3383 -0.1316 -0.1689
  142MOL0     C19060  -1.408   2.587   0.934 -0.1576 -0.5207 -0.2681
  142MOL0     C19061  -1.531   2.552   0.995 -0.1337 -0.2036 -0.8741
  142MOL0     C19062  -1.652   2.634   0.973 -0.9609  0.2160  0.1050
  142MOL0     C19063  -1.773   2.603   1.054 -0.3261  0.4454  0.9218
  142MOL0     C19064  -1.637   2.743   0.881  0.4835  0.2244 -0.1664
  142MOL0     C19065  -1.751   2.812   0.817  0.3626  0.9180 -0.5664
  142MOL0     O19066  -1.738   2.877   0.697 -0.3789 -0.0037 -0.0375
  142MOL0     C19067  -1.856   2.888   0.622 -0.3465  0.4046 -0.1370
  142MOL0     C19068  -1.936   2.789   0.558 -0.4048 -0.3368  0.0376
  142MOL0     C19069  -2.066   2.810   0.512 -0.1388  0.6797 -0.3419
  142MOL0     C19070  -2.119   2.938   0.512  0.0650  0.4771  0.1462
  142MOL0     O19071  -2.247   2.953   0.466 -0.7315  0.7974  0.3523
  142MOL0     C19072  -2.259   3.076   0.395  0.1406 -0.5021 -0.5619
  142MOL0     C19073  -2.407   3.076   0.338  0.9107 -0.2258 -0.0458
  142MOL0     C19074  -2.434   2.965   0.240 -0.0434 -0.1561  0.4254
  142MOL0     C19075  -2.583   2.946   0.212 -1.1435  0.1578  0.5413
  142MOL0     C19076  -2.609   2.853   0.093  0.1411  0.2732 -0.4439
  142MOL0     C19077  -2.758   2.855   0.058 -0.0714 -0.5185 -0.5678
  142MOL0     C19078  -2.780   2.750  -0.053  0.4217 -0.3757  0.9292
  142MOL0     C19079  -2.897   2.794  -0.138 -0.7362 -0.0080 -0.1652
  142MOL0    Cl19080  -3.032   2.809  -0.040  0.1735 -0.4179 -0.4220
  142MOL0     C19081  -2.045   3.035   0.584 -0.7986 -0.3827  0.9325
  142MOL0     C19082  -1.916   3.011   0.641  0.7200 -0.2513 -0.3287
  142MOL0     O19083  -1.861   2.795   0.870 -0.4802 -0.2570  0.3426
  142MOL0     C19084  -1.514   2.776   0.825 -0.1360  0.5122 -0.1128
  142MOL0     C19085  -1.398   2.707   0.857  0.9875 -0.5623  0.0283
  142MOL0     N19086  -0.809   2.305   1.080  0.4722 -0.2974  0.0888
  142MOL0     N19087  -0.716   2.376   1.130 -0.0484 -0.3038  0.1493
  142MOL0     C19088   0.290   2.544   1.022  0.1210  0.6353 -0.3094
  142MOL0     C19089   0.422   2.604   1.038 -0.6829 -0.0381 -0.1666
  142MOL0     C19090   0.880   2.693   0.916 -0.0975 -0.1667 -0.6523
  142MOL0     C19091   0.991   2.702   0.825 -0.4776 -0.6043  0.4067
  142MOL0     C19092   1.102   2.784   0.854  0.9093  0.1692 -0.5791
  142MOL0     C19093   1.097   2.872   0.963 -0.0426  0.0970 -0.1105
  142MOL0     O19094   1.211   2.937   0.976  0.0518 -0.0765  0.0896
  142MOL0     C19095   1.254   2.948   1.117  0.7516 -0.5748 -1.2803
  142MOL0     C19096   1.388   3.022   1.115  0.1582 -0.2046 -0.2283
  142MOL0     C19097   1.490   2.944   1.029 -0.4506  0.3783  0.8218
  142MOL0     C19098   1.634   3.002   1.059  0.2713 -0.5356  0.2102
  142MOL0     C19099   1.699   3.051   0.943  0.2564  0.0775  0.0342
  142MOL0     C19100   1.748   3.087   0.834  0.3966  1.0010 -0.0986
  142MOL0     C19101   0.988   2.872   1.044  0.1839  0.9371  0.0328
  142MOL0     C19102   0.873   2.783   1.030 -0.0986 -0.1898  0.9419
  142MOL0     H19103   0.568   2.466   0.762 -0.6048 -0.5020 -1.3558
  142MOL0     H19104   0.365   2.366   0.743  3.6731  2.2928 -0.7382
  142MOL0     H19105   0.149   2.346   0.728  2.6965  0.9459  2.2903
  142MOL0     H19106  -0.018   2.344   0.797 -0.0517  0.0876  4.0531
  142MOL0     H19107   0.130   2.588   0.734  2.2952 -1.5589  1.4489
  142MOL0     H19108  -0.007   2.521   0.649  1.5880 -1.3822 -1.0986
  142MOL0     H19109  -0.015   2.606   0.954  0.5595 -1.4861 -0.1214
  142MOL0     H19110  -0.075   2.713   0.829 -0.8015 -1.2894 -1.7951
  142MOL0     H19111  -0.232   2.546   0.757  1.0794  0.5246 -1.1359
  142MOL0     H19112  -0.172   2.440   0.893 -0.5130  1.0337  3.4312
  142MOL0     H19113  -0.282   2.559   1.057 -0.8817 -2.2619  0.0843
  142MOL0     H19114  -0.292   2.708   0.945 -0.4262 -0.9091 -1.3897
  142MOL0     H19115  -0.453   2.586   0.800  1.6969 -0.7950 -0.7369
  142MOL0     H19116  -0.459   2.467   0.926  0.3793  0.8221 -1.6923
  142MOL0     H19117  -0.499   2.759   1.010  1.2491 -0.5427 -0.8269
  142MOL0     H19118  -0.626   2.713   0.909  2.4160  5.2278  0.7560
  142MOL0     H19119  -0.676   2.692   1.136 -3.5084 -3.1386  0.4344
  142MOL0     H19120  -0.549   2.567   1.168 -0.6492 -2.6099 -0.4922
  142MOL0     H19121  -0.801   2.554   0.867  1.5596  1.5059  1.6765
  142MOL0     H19122  -0.887   2.328   0.766  0.3240  3.3161  0.7171
  142MOL0     H19123  -0.915   2.187   0.871  0.4343 -0.2800 -2.2937
  142MOL0     H19124  -1.136   2.250   0.784 -0.0837  0.1010  0.2501
  142MOL0     H19125  -1.106   2.414   0.803 -1.2173 -2.6145 -4.5323
  142MOL0     H19126  -1.104   2.381   1.058 -1.2981  0.4938  0.6536
  142MOL0     H19127  -1.160   2.217   1.030  0.2400  1.4216  2.2053
  142MOL0     H19128  -1.357   2.365   1.060  0.5247  0.7759  1.0524
  142MOL0     H19129  -1.359   2.352   0.884  0.1552  3.2633 -2.3360
  142MOL0     H19130  -1.534   2.472   1.068 -1.0945  2.0815  1.8268
  142MOL0     H19131  -1.744   2.525   1.125 -1.5653  0.2874  1.2829
  142MOL0     H19132  -1.821   2.687   1.105 -0.4044  0.7898  0.2916
  142MOL0     H19133  -1.853   2.569   0.987  0.4559  2.6044 -1.2733
  142MOL0     H19134  -1.888   2.692   0.565 -1.8143 -0.9715  1.9468
  142MOL0     H19135  -2.132   2.735   0.470  2.4107 -1.6372 -0.4529
  142MOL0     H19136  -2.235   3.163   0.457 -1.3325 -0.0159 -0.6338
  142MOL0     H19137  -2.179   3.075   0.320 -1.0065 -1.6060 -1.8247
  142MOL0     H19138  -2.478   3.083   0.422 -1.4644 -1.1655 -1.8418
  142MOL0     H19139  -2.418   3.166   0.277 -0.4491 -0.1314  0.2919
  142MOL0     H19140  -2.394   2.871   0.280 -0.6428 -0.1820  0.9862
  142MOL0     H19141  -2.381   2.983   0.146  0.5200  0.6680  0.8960
  142MOL0     H19142  -2.627   2.904   0.303  0.3705 -0.5493  0.9837
  142MOL0     H19143  -2.633   3.037   0.177  2.1128  2.0293  0.3457
  142MOL0     H19144  -2.574   2.753   0.120 -1.7399 -0.1685  0.4839
  142MOL0     H19145  -2.555   2.888   0.004  2.4200  0.6066  0.9874
  142MOL0     H19146  -2.812   2.815   0.145 -1.8624  1.7374 -0.5464
  142MOL0     H19147  -2.770   2.962   0.040  3.7319  0.3870  1.1991
  142MOL0     H19148  -2.797   2.649  -0.015 -0.7426 -0.4492  0.2551
  142MOL0     H19149  -2.692   2.741  -0.118 -0.8164 -3.3603 -0.4901
  142MOL0     H19150  -2.915   2.719  -0.215 -0.8670 -0.1718  0.0241
  142MOL0     H19151  -2.876   2.882  -0.200 -2.1332  0.7398  0.3742
  142MOL0     H19152  -2.076   3.138   0.599  0.7223  0.5837 -1.7098
  142MOL0     H19153  -1.860   3.078   0.706  0.0825 -1.0543  1.1032
  142MOL0     H19154  -1.495   2.865   0.767  3.1821 -0.0681 -0.1069
  142MOL0     H19155  -1.300   2.742   0.825  0.9781  0.5898  1.2042
  142MOL0     H19156   0.212   2.552   1.096 -0.0174  0.4393 -0.4329
  142MOL0     H19157   0.458   2.658   1.125 -0.2136 -1.0004  0.2472
  142MOL0     H19158   0.994   2.636   0.739  1.3740 -1.0846  0.8051
  142MOL0     H19159   1.194   2.778   0.796  2.5029  1.1493  1.6457
  142MOL0     H19160   1.191   3.005   1.186  2.1766 -0.0671 -0.3343
  142MOL0     H19161   1.255   2.850   1.165  0.0940  0.0711  0.1115
  142MOL0     H19162   1.423   3.042   1.216 -1.9079 -0.5862  0.6108
  142MOL0     H19163   1.376   3.123   1.074  1.8951 -0.6025 -1.8876
  142MOL0     H19164   1.464   2.954   0.924 -1.1848  0.8409  1.0401
  142MOL0     H19165   1.480   2.836   1.049 -0.1278  0.4289  1.2814
  142MOL0     H19166   1.698   2.928   1.108 -0.3801 -0.3383  1.4027
  142MOL0     H19167   1.621   3.089   1.125 -4.1519  1.1925 -2.4410
  142MOL0     H19168   1.802   3.122   0.748 -1.4532  1.3239 -1.1939
  142MOL0     H19169   0.985   2.938   1.130 -0.3660  1.9422 -0.7310
  142MOL0     H19170   0.795   2.780   1.106  0.8456 -0.2001  1.9204
  143MOL0     O19171   3.864  11.055   1.314  0.1450  0.6742  0.0656
  143MOL0     C19172   3.933  10.962   1.264  0.8531 -0.5962  0.6467
  143MOL0     O19173   3.892  10.845   1.214  1.0270  0.3341 -0.0294
  143MOL0     C19174   3.760  10.814   1.234  0.0752 -0.3161  1.4608
  143MOL0     C19175   3.656  10.890   1.182 -0.9761 -0.1843 -0.5792
  143MOL0     C19176   3.523  10.866   1.214  0.2853 -0.2396  0.6286
  143MOL0     C19177   3.486  10.747   1.273 -0.4080  0.2836 -0.3361
  143MOL0     O19178   3.357  10.706   1.303 -0.1908 -0.2457 -0.2336
  143MOL0     C19179   3.268  10.693   1.197  0.4002 -0.5516  0.7268
  143MOL0     C19180   3.134  10.636   1.267  0.5559 -0.0961  0.8348
  143MOL0     C19181   3.021  10.618   1.171  1.9137  0.2955 -0.5250
  143MOL0     C19182   2.910  10.554   1.256  0.2161 -0.1509  1.2286
  143MOL0     C19183   2.792  10.530   1.150 -0.1358 -0.4432 -0.3325
  143MOL0     C19184   2.665  10.470   1.214 -0.0411 -0.4196 -0.2414
  143MOL0     C19185   2.703  10.355   1.312  0.7424 -0.9013 -0.2126
  143MOL0     C19186   2.570  10.290   1.360  0.7964 -0.7267 -0.2203
  143MOL0     N19187   2.526  10.166   1.299  0.8416  0.2977  0.0851
  143MOL0     C19188   2.437  10.137   1.196  0.9907  0.4317 -0.5933
  143MOL0     C19189   2.472  10.007   1.167  0.7243 -0.0699  0.1198
  143MOL0     C19190   2.405   9.919   1.062  0.1866  1.1785  0.4375
  143MOL0     C19191   2.257   9.908   1.068  0.2490 -0.4231  0.3648
  143MOL0     C19192   2.200   9.988   0.947 -0.4252  0.6026  0.8224
  143MOL0     C19193   2.052   9.980   0.924  0.0878  0.3365 -0.0199
  143MOL0     O19194   2.001   9.846   0.907 -0.2289 -0.8018 -0.5249
  143MOL0     C19195   1.863   9.840   0.922 -0.5743  0.1767 -0.1354
  143MOL0     C19196   1.805   9.747   0.999  0.0985 -0.0085  0.6024
  143MOL0     C19197   1.663   9.736   1.011 -0.8558 -0.5694  1.1477
  143MOL0     C19198   1.613   9.618   1.085  0.9050  0.7907 -0.6935
  143MOL0     C19199   1.585   9.845   0.957 -0.1155  0.0854  0.6403
  143MOL0     C19200   1.439   9.847   0.978  0.2473  0.4920 -0.2821
  143MOL0     O19201   1.369   9.913   0.881 -0.5487 -0.5553  0.1932
  143MOL0     C19202   1.235   9.895   0.883 -0.9467 -0.3118  0.1002
  143MOL0     C19203   1.167   9.780   0.912  0.0371  0.2463  0.3670
  143MOL0     C19204   1.030   9.773   0.925  0.6435 -0.2993  0.7198
  143MOL0     C19205   0.958   9.879   0.881  0.3146 -0.4311  1.0748
  143MOL0     O19206   0.822   9.860   0.873 -0.1978  0.0441 -0.3978
  143MOL0     C19207   0.742   9.983   0.878  0.6053  0.3083  0.2067
  143MOL0     C19208   0.599   9.938   0.883 -0.1699  0.3545  0.1807
  143MOL0     C19209   0.503  10.061   0.878  0.2345  0.4969 -0.1187
  143MOL0     C19210   0.365  10.043   0.803 -0.9735 -0.1091 -0.1431
  143MOL0     C19211   0.284  10.174   0.821 -0.1617  0.1077  0.5349
  143MOL0     C19212   0.130  10.165   0.812  1.0731 -0.1122 -0.2912
  143MOL0     C19213   0.069  10.137   0.675 -0.1199  0.7814  0.7870
  143MOL0     C19214  -0.080  10.082   0.686  0.0602  0.4165 -0.0592
  143MOL0    Cl19215  -0.129  10.001   0.530 -0.1927  0.1555 -0.3555
  143MOL0     C19216   1.020   9.995   0.829  0.3313 -0.9095 -0.9218
  143MOL0     C19217   1.159  10.001   0.839  0.5263  0.6553  0.1665
  143MOL0     O19218   1.396   9.804   1.086 -0.1279  0.0421  0.5675
  143MOL0     C19219   1.650   9.943   0.881 -0.1992  0.6928 -0.7292
  143MOL0     C19220   1.786   9.947   0.866 -0.7593  0.1681 -0.2029
  143MOL0     N19221   2.561   9.959   1.255  0.2289 -0.1188 -0.4490
  143MOL0     N19222   2.599  10.055   1.341  0.7518  0.4533 -0.0272
  143MOL0     C19223   3.591  10.667   1.321 -0.3730  0.0902  0.3697
  143MOL0     C19224   3.723  10.701   1.309 -0.6974 -0.4519  0.2965
  143MOL0     C19225   4.078  10.979   1.258  0.0427  0.7677 -0.5349
  143MOL0     C19226   4.144  11.105   1.255  0.5949 -1.0589 -0.3068
  143MOL0     C19227   4.283  11.119   1.247  0.5125  0.5858 -0.1749
  143MOL0     C19228   4.366  11.004   1.242 -0.6399 -0.6196  0.2393
  143MOL0     O19229   4.506  11.014   1.261  0.5248 -0.2523  0.1849
  143MOL0     C19230   4.574  11.133   1.194  0.9624 -0.5473 -0.2800
  143MOL0     C19231   4.566  11.149   1.043 -0.0366 -0.6731  0.8410
  143MOL0     C19232   4.626  11.039   0.957 -0.2160 -0.8262 -0.4650
  143MOL0     C19233   4.609  11.057   0.803 -1.0387  0.2871 -0.1314
  143MOL0     C19234   4.689  11.176   0.753  0.1420 -0.1513 -0.3459
  143MOL0     C19235   4.745  11.271   0.701 -0.5513 -0.0100  0.0384
  143MOL0     C19236   4.311  10.875   1.253  0.0953  0.0525  0.6839
  143MOL0     C19237   4.167  10.866   1.257  0.3151 -0.3903 -0.1039
  143MOL0     H19238   3.679  10.978   1.123 -0.5834 -1.4881 -2.4626
  143MOL0     H19239   3.452  10.936   1.171  0.0416  0.8899  2.6901
  143MOL0     H19240   3.243  10.789   1.152  1.4435 -0.8078 -0.4487
  143MOL0     H19241   3.296  10.626   1.115 -1.9923 -2.6756  1.4851
  143MOL0     H19242   3.170  10.540   1.305  0.6957 -0.8470 -1.0659
  143MOL0     H19243   3.105  10.688   1.358  2.5902  2.3480  0.1932
  143MOL0     H19244   2.989  10.710   1.121  1.2200  0.6049  0.4710
  143MOL0     H19245   3.049  10.556   1.085  0.3507  0.5529 -1.2536
  143MOL0     H19246   2.956  10.461   1.290 -0.1798 -1.4065 -1.3807
  143MOL0     H19247   2.873  10.625   1.331  1.2842  0.1356  1.4971
  143MOL0     H19248   2.773  10.620   1.092  1.6014  0.5805  0.5845
  143MOL0     H19249   2.832  10.460   1.076  2.2726  1.1056 -0.6057
  143MOL0     H19250   2.606  10.539   1.275 -1.4458 -2.4483  0.8028
  143MOL0     H19251   2.603  10.439   1.130  0.2943  0.9144 -1.0080
  143MOL0     H19252   2.774  10.284   1.268  1.9891  0.5439 -0.6695
  143MOL0     H19253   2.753  10.390   1.403  0.6204 -0.9231 -0.1375
  143MOL0     H19254   2.488  10.362   1.358  0.0279 -1.5779 -1.5055
  143MOL0     H19255   2.599  10.273   1.464 -0.1519 -4.5891 -0.4022
  143MOL0     H19256   2.362  10.198   1.145  0.4407  0.7552  0.5645
  143MOL0     H19257   2.440   9.956   0.966  2.8132  0.9569  1.2237
  143MOL0     H19258   2.442   9.816   1.070 -2.0692  0.1460 -1.2146
  143MOL0     H19259   2.219   9.950   1.163  0.1693  0.1181  0.0990
  143MOL0     H19260   2.210   9.810   1.055  0.0306 -0.0549 -1.9652
  143MOL0     H19261   2.249   9.960   0.854 -3.0769  2.2650 -1.2111
  143MOL0     H19262   2.231  10.091   0.966  1.6669 -0.1352  1.6873
  143MOL0     H19263   2.045  10.033   0.829  1.0982 -0.4744 -0.5661
  143MOL0     H19264   2.005  10.041   1.002  0.4695  1.1219 -0.3890
  143MOL0     H19265   1.873   9.682   1.053 -0.1565 -0.5233  0.3129
  143MOL0     H19266   1.586   9.631   1.190  0.5409 -2.8557 -0.2033
  143MOL0     H19267   1.525   9.579   1.032  1.3884 -1.4623  0.0363
  143MOL0     H19268   1.682   9.534   1.094  0.5512  0.6007  0.3569
  143MOL0     H19269   1.224   9.688   0.924  0.1449  0.4036  1.0908
  143MOL0     H19270   0.976   9.681   0.945 -3.6665  2.1649  1.7068
  143MOL0     H19271   0.759  10.046   0.966 -1.8046  0.7196  0.4672
  143MOL0     H19272   0.756  10.046   0.790  2.7503  3.4163  2.5657
  143MOL0     H19273   0.578   9.868   0.802 -1.0940 -1.1838  1.6597
  143MOL0     H19274   0.604   9.883   0.978  2.3066 -0.3607 -0.2994
  143MOL0     H19275   0.552  10.152   0.842 -2.8688  3.0453  1.6121
  143MOL0     H19276   0.480  10.092   0.980  1.2863 -0.7083  0.5128
  143MOL0     H19277   0.382  10.022   0.697 -0.3116 -0.4334  0.0228
  143MOL0     H19278   0.312   9.956   0.844 -0.3028 -1.4926 -2.0747
  143MOL0     H19279   0.317  10.241   0.742  2.0442 -0.1969  1.1375
  143MOL0     H19280   0.306  10.217   0.919 -1.5872  4.6003 -0.9045
  143MOL0     H19281   0.101  10.079   0.873  0.4953 -2.5423 -3.6995
  143MOL0     H19282   0.077  10.250   0.856 -2.5532 -1.7439 -1.1412
  143MOL0     H19283   0.124  10.052   0.635 -0.3941 -1.4784  4.6791
  143MOL0     H19284   0.061  10.230   0.619  1.0457 -1.5100 -3.6511
  143MOL0     H19285  -0.152  10.160   0.710  0.7817  1.2280 -0.4633
  143MOL0     H19286  -0.082  10.015   0.772  0.8988  0.2462 -0.1622
  143MOL0     H19287   0.963  10.076   0.785 -1.0485 -0.1247  2.0104
  143MOL0     H19288   1.216  10.084   0.801  0.4170  0.6386 -0.0329
  143MOL0     H19289   1.599  10.021   0.826  0.6315  0.6838 -1.5182
  143MOL0     H19290   1.822  10.039   0.821  1.7068 -0.5090  0.1815
  143MOL0     H19291   3.570  10.582   1.385 -1.6457  0.9267  1.1113
  143MOL0     H19292   3.797  10.642   1.362 -0.8810 -2.2242 -1.3098
  143MOL0     H19293   4.083  11.195   1.257  1.3299 -0.4534 -2.4902
  143MOL0     H19294   4.336  11.213   1.256  1.3257  0.0592  0.8197
  143MOL0     H19295   4.539  11.225   1.243 -0.6441 -0.9602 -0.5721
  143MOL0     H19296   4.681  11.128   1.215  0.6192 -4.3989  1.5124
  143MOL0     H19297   4.615  11.244   1.020  2.5008 -2.2724 -0.8480
  143MOL0     H19298   4.462  11.174   1.019  0.3851  1.9866  1.4093
  143MOL0     H19299   4.594  10.939   0.986  0.1870 -0.8537 -0.1004
  143MOL0     H19300   4.734  11.047   0.974  0.2166  3.6671 -3.5754
  143MOL0     H19301   4.503  11.066   0.776 -1.0796 -2.4663 -1.2327
  143MOL0     H19302   4.640  10.962   0.759  1.2309  0.5475  0.7750
  143MOL0     H19303   4.796  11.349   0.650 -0.3255 -0.6994 -0.8110
  143MOL0     H19304   4.379  10.790   1.255 -0.5405 -0.5350 -1.1461
  143MOL0     H19305   4.134  10.763   1.254 -2.0622  0.3196 -2.7988
  144MOL0     O19306   0.686   6.739   0.182 -0.2740  0.4784  0.4328
  144MOL0     C19307   0.741   6.635   0.160  0.2105 -0.2604 -0.4925
  144MOL0     O19308   0.671   6.516   0.152  0.0225  0.3001 -0.0016
  144MOL0     C19309   0.533   6.521   0.133  0.1797 -0.8178 -0.2219
  144MOL0     C19310   0.446   6.593   0.215 -0.1926 -0.7188  0.2593
  144MOL0     C19311   0.312   6.589   0.195 -0.4624 -0.4394 -0.4569
  144MOL0     C19312   0.256   6.518   0.098 -0.1865 -0.5466  0.7332
  144MOL0     O19313   0.123   6.507   0.077 -0.7848 -0.5838 -0.4536
  144MOL0     C19314   0.024   6.584   0.142  0.3915 -0.3823  0.0428
  144MOL0     C19315  -0.098   6.595   0.053 -0.3337  0.2873 -0.4737
  144MOL0     C19316  -0.207   6.684   0.104  0.1700 -1.3041 -0.2608
  144MOL0     C19317  -0.311   6.612   0.198  0.1852 -1.2618 -0.3804
  144MOL0     C19318  -0.401   6.696   0.287 -0.6210  0.6824 -0.4807
  144MOL0     C19319  -0.510   6.773   0.218 -0.3307 -0.1076 -0.4631
  144MOL0     C19320  -0.588   6.855   0.325 -0.3252  0.4640 -0.1303
  144MOL0     C19321  -0.690   6.764   0.402 -0.1916 -0.3982  0.2229
  144MOL0     N19322  -0.693   6.800   0.544 -0.0213 -0.2888  0.0061
  144MOL0     C19323  -0.588   6.763   0.632  0.1402  0.7294  0.7679
  144MOL0     C19324  -0.656   6.741   0.750 -0.6996  0.1315  0.0302
  144MOL0     C19325  -0.576   6.688   0.868  0.0103 -0.1882 -0.9983
  144MOL0     C19326  -0.576   6.534   0.870 -0.7864 -0.7313 -0.7143
  144MOL0     C19327  -0.721   6.475   0.882  0.6336 -0.1659 -0.0981
  144MOL0     C19328  -0.806   6.538   0.998 -0.2786  0.0010  0.8405
  144MOL0     O19329  -0.909   6.453   1.040 -0.0725  0.8324 -0.3144
  144MOL0     C19330  -1.026   6.448   0.964  0.5463 -1.1703  0.7925
  144MOL0     C19331  -1.060   6.546   0.868  0.0501 -0.4393 -0.0523
  144MOL0     C19332  -1.181   6.550   0.799 -0.0270  1.3192 -0.6147
  144MOL0     C19333  -1.210   6.654   0.698 -1.3729 -0.1875 -0.9402
  144MOL0     C19334  -1.279   6.434   0.825 -0.5247  0.2083 -0.0280
  144MOL0     C19335  -1.418   6.427   0.750 -0.0395  0.7913  0.6078
  144MOL0     O19336  -1.488   6.321   0.790  0.2078 -0.5953 -1.1376
  144MOL0     C19337  -1.609   6.299   0.739 -0.1706 -0.0420 -0.3703
  144MOL0     C19338  -1.610   6.196   0.646  0.2722 -0.5219  0.0953
  144MOL0     C19339  -1.730   6.147   0.594  0.6164  0.0613  0.4999
  144MOL0     C19340  -1.847   6.212   0.641  0.0584  0.1655  0.1164
  144MOL0     O19341  -1.970   6.159   0.605 -0.5622  0.1818  0.9425
  144MOL0     C19342  -2.009   6.045   0.678 -0.5802 -0.3762 -0.7225
  144MOL0     C19343  -2.049   6.076   0.823  1.5318  0.6973  0.1596
  144MOL0     C19344  -2.139   5.969   0.904  0.1514 -0.0126 -0.2024
  144MOL0     C19345  -2.084   5.821   0.888 -0.0581 -0.7200  0.4920
  144MOL0     C19346  -1.951   5.794   0.964  0.5824  0.9940  0.0253
  144MOL0     C19347  -1.906   5.647   0.957  0.9051 -0.5090 -0.0499
  144MOL0     C19348  -1.863   5.602   0.818 -0.0306 -0.0023 -0.2769
  144MOL0     C19349  -1.723   5.644   0.766 -0.1220 -0.2502  0.4106
  144MOL0    Cl19350  -1.718   5.787   0.665 -0.3040 -0.6538 -0.0995
  144MOL0     C19351  -1.847   6.322   0.726 -0.0605 -0.1894  0.3448
  144MOL0     C19352  -1.725   6.367   0.769 -0.6863  0.0119 -0.4368
  144MOL0     O19353  -1.448   6.496   0.655 -0.0725 -0.1329  0.6100
  144MOL0     C19354  -1.244   6.340   0.915  0.0597  0.3542  0.1860
  144MOL0     C19355  -1.123   6.347   0.988 -0.4136 -0.8249 -0.2694
  144MOL0     N19356  -0.788   6.774   0.732  0.4289 -0.4886 -0.8984
  144MOL0     N19357  -0.814   6.805   0.606 -0.3333 -0.6784 -0.8668
  144MOL0     C19358   0.344   6.443   0.012  0.0319 -0.4253 -0.1292
  144MOL0     C19359   0.480   6.441   0.034  0.0363 -1.1048  0.4485
  144MOL0     C19360   0.882   6.626   0.131 -0.1204  0.6005  0.8139
  144MOL0     C19361   0.946   6.505   0.111 -0.6590  0.6074  0.2637
  144MOL0     C19362   1.088   6.492   0.087  0.2914  0.3994  0.3256
  144MOL0     C19363   1.163   6.601   0.083  0.9185 -1.1857 -0.1351
  144MOL0     O19364   1.295   6.573   0.064  0.7723 -0.1965 -0.2394
  144MOL0     C19365   1.376   6.686   0.032 -0.8353  0.2491  0.5239
  144MOL0     C19366   1.516   6.653  -0.012  0.3353  0.1724 -0.4914
  144MOL0     C19367   1.508   6.545  -0.121  0.0605  0.1034  0.2819
  144MOL0     C19368   1.640   6.527  -0.176 -0.3681  1.1269  0.3707
  144MOL0     C19369   1.684   6.655  -0.237 -0.3204  0.3984 -1.3509
  144MOL0     C19370   1.743   6.742  -0.302  0.0562  0.3174 -0.3256
  144MOL0     C19371   1.101   6.735   0.097 -0.0686  0.8165  0.8865
  144MOL0     C19372   0.963   6.739   0.130  0.7286  0.5220 -0.2830
  144MOL0     H19373   0.481   6.645   0.304 -0.3460  3.1063 -1.6914
  144MOL0     H19374   0.250   6.630   0.274 -1.8070 -0.1378 -1.6308
  144MOL0     H19375  -0.004   6.521   0.227 -2.4589  0.4015 -0.2140
  144MOL0     H19376   0.063   6.683   0.170 -1.2733  0.0339  1.0543
  144MOL0     H19377  -0.073   6.632  -0.046  2.4437  1.6943  0.6533
  144MOL0     H19378  -0.137   6.493   0.050  2.7479 -0.9854 -0.8183
  144MOL0     H19379  -0.164   6.769   0.157 -0.5655 -0.4661 -0.9660
  144MOL0     H19380  -0.253   6.717   0.010  1.5340 -2.0106 -1.2103
  144MOL0     H19381  -0.371   6.555   0.127  2.5275 -1.8564 -2.0077
  144MOL0     H19382  -0.257   6.548   0.270  0.6484  0.1429  0.5627
  144MOL0     H19383  -0.444   6.624   0.357  1.0226  1.1545  1.0619
  144MOL0     H19384  -0.335   6.764   0.341  2.0890 -2.3591  0.2540
  144MOL0     H19385  -0.462   6.839   0.146 -0.6323  0.2653 -0.3265
  144MOL0     H19386  -0.570   6.699   0.164  1.6149 -0.7968 -1.7703
  144MOL0     H19387  -0.522   6.906   0.396  0.1710 -0.1018 -0.1781
  144MOL0     H19388  -0.640   6.933   0.269  3.0244 -0.5344 -5.4578
  144MOL0     H19389  -0.664   6.660   0.382 -0.9375 -0.2972 -1.4184
  144MOL0     H19390  -0.787   6.786   0.357 -0.3118  1.5641  1.3383
  144MOL0     H19391  -0.485   6.732   0.619  0.3485  1.1992  1.2611
  144MOL0     H19392  -0.475   6.732   0.867 -0.2676  0.5495  0.3474
  144MOL0     H19393  -0.617   6.731   0.960  2.9129  0.4620  0.1275
  144MOL0     H19394  -0.513   6.495   0.950 -0.6066  0.1148 -0.4343
  144MOL0     H19395  -0.525   6.506   0.777 -0.7355  1.0680 -1.2697
  144MOL0     H19396  -0.729   6.366   0.891 -2.4093 -0.0899 -0.9721
  144MOL0     H19397  -0.774   6.490   0.788 -0.4025 -1.5133  0.2452
  144MOL0     H19398  -0.833   6.643   0.985  2.7521  0.9243  1.2837
  144MOL0     H19399  -0.734   6.533   1.080  1.7210 -0.8415 -0.8599
  144MOL0     H19400  -0.991   6.627   0.849 -0.0386  0.0938  1.7052
  144MOL0     H19401  -1.142   6.739   0.694 -2.1202  0.3838 -2.0407
  144MOL0     H19402  -1.226   6.614   0.597 -1.2383 -1.1515 -0.5955
  144MOL0     H19403  -1.307   6.696   0.724 -0.8058 -0.0985  1.2385
  144MOL0     H19404  -1.519   6.149   0.610 -0.2371  0.1553 -2.2205
  144MOL0     H19405  -1.740   6.056   0.535 -0.9045  2.7430 -3.9153
  144MOL0     H19406  -2.087   5.994   0.621 -1.1897 -2.1228  1.5180
  144MOL0     H19407  -1.927   5.972   0.670 -0.6519 -0.2909 -2.7807
  144MOL0     H19408  -1.957   6.092   0.881  1.0335 -1.4525  1.6759
  144MOL0     H19409  -2.101   6.172   0.822  1.6076  0.7944 -2.6889
  144MOL0     H19410  -2.238   5.965   0.859 -0.3596 -3.5254  0.9680
  144MOL0     H19411  -2.154   6.000   1.008  0.6059  2.0976 -0.7039
  144MOL0     H19412  -2.156   5.741   0.902  0.7398 -1.3303  1.2085
  144MOL0     H19413  -2.064   5.817   0.780 -0.0189  0.4708  0.4419
  144MOL0     H19414  -1.960   5.815   1.071 -0.6273 -0.9948  0.3575
  144MOL0     H19415  -1.881   5.860   0.912  0.2780  0.4207 -1.1370
  144MOL0     H19416  -1.817   5.636   1.020 -1.5078  2.7858  4.4772
  144MOL0     H19417  -1.987   5.579   0.985 -0.0147  0.7097  0.3310
  144MOL0     H19418  -1.942   5.630   0.748 -0.1836  1.6114  0.4871
  144MOL0     H19419  -1.861   5.492   0.820  3.1894 -0.1084 -2.8714
  144MOL0     H19420  -1.686   5.573   0.693  0.6017  1.9428 -1.4829
  144MOL0     H19421  -1.661   5.648   0.857 -1.7629  0.4106  1.5505
  144MOL0     H19422  -1.941   6.363   0.762 -1.6626 -1.6291 -1.9160
  144MOL0     H19423  -1.737   6.460   0.823 -2.1517 -1.0851  1.2107
  144MOL0     H19424  -1.311   6.256   0.928  0.2158  0.5335  2.8202
  144MOL0     H19425  -1.098   6.263   1.052 -1.1242 -3.2336 -2.9110
  144MOL0     H19426   0.299   6.399  -0.077 -2.1241 -1.0400  1.1800
  144MOL0     H19427   0.529   6.374  -0.037 -2.7971 -2.9257  0.0264
  144MOL0     H19428   0.881   6.418   0.102 -1.3853  1.2807 -1.7949
  144MOL0     H19429   1.137   6.395   0.085  1.3397  0.9178  0.2711
  144MOL0     H19430   1.340   6.749  -0.049  0.2447  1.1141  0.7025
  144MOL0     H19431   1.386   6.745   0.124 -1.2178 -1.0544  1.4430
  144MOL0     H19432   1.574   6.619   0.073 -0.7370  0.5632  0.4228
  144MOL0     H19433   1.568   6.744  -0.043  3.8503 -0.7463  2.0659
  144MOL0     H19434   1.434   6.557  -0.201  0.9889  0.7077 -0.5088
  144MOL0     H19435   1.484   6.454  -0.065 -0.4863  1.4561  2.3780
  144MOL0     H19436   1.643   6.447  -0.251 -0.7611 -0.0469  1.5627
  144MOL0     H19437   1.711   6.495  -0.100  0.3401  1.1175 -0.2860
  144MOL0     H19438   1.792   6.802  -0.377  2.3028 -1.8659 -0.7311
  144MOL0     H19439   1.159   6.826   0.104  0.9305  0.1479  1.7178
  144MOL0     H19440   0.915   6.836   0.141 -0.3137 -0.1567  1.5464
  145MOL0     O19441   6.685   4.443   1.602  0.3351  0.2305 -0.5672
  145MOL0     C19442   6.685   4.508   1.703  0.0631  0.4658 -0.0534
  145MOL0     O19443   6.579   4.555   1.765 -0.6456 -0.0048 -0.6718
  145MOL0     C19444   6.455   4.520   1.717 -0.3307  0.4232  0.1643
  145MOL0     C19445   6.388   4.599   1.623  0.1610 -0.0377 -0.1538
  145MOL0     C19446   6.258   4.557   1.577 -0.0053 -0.0488 -0.9105
  145MOL0     C19447   6.203   4.433   1.632  0.8266  0.1966  0.2749
  145MOL0     O19448   6.083   4.378   1.601 -0.0495 -0.1430 -0.2270
  145MOL0     C19449   5.983   4.478   1.566 -0.2635 -0.1555 -0.2578
  145MOL0     C19450   5.849   4.402   1.550  0.4483 -0.5171 -0.2308
  145MOL0     C19451   5.741   4.487   1.488  0.4801 -0.0615 -0.4642
  145MOL0     C19452   5.611   4.419   1.526  0.0819 -0.2232  0.4919
  145MOL0     C19453   5.484   4.494   1.471  0.5674  0.0506 -0.0957
  145MOL0     C19454   5.369   4.390   1.457  0.8248  0.1175 -0.2299
  145MOL0     C19455   5.250   4.433   1.381 -0.7399  0.3788  0.3099
  145MOL0     C19456   5.125   4.351   1.408 -0.7326  0.0364  0.0980
  145MOL0     N19457   5.003   4.420   1.372 -0.2234 -0.8637  0.2114
  145MOL0     C19458   4.944   4.431   1.245 -0.2996 -0.3357 -0.7570
  145MOL0     C19459   4.840   4.513   1.267  1.1108 -0.4246  1.3815
  145MOL0     C19460   4.749   4.570   1.163 -0.4176  0.9077 -0.7615
  145MOL0     C19461   4.628   4.478   1.153  0.1329 -0.5266 -0.1741
  145MOL0     C19462   4.520   4.546   1.071  0.1626  0.3760 -0.0733
  145MOL0     C19463   4.562   4.570   0.924 -0.1664 -0.6338  0.9077
  145MOL0     O19464   4.447   4.551   0.836  0.6598  0.7276  0.8855
  145MOL0     C19465   4.358   4.658   0.827  0.1369  0.0607 -0.3702
  145MOL0     C19466   4.244   4.639   0.753  0.7521  0.5594  0.1100
  145MOL0     C19467   4.140   4.732   0.746 -0.3785 -0.3193  0.2864
  145MOL0     C19468   4.015   4.683   0.678  0.5514  0.3297 -0.0455
  145MOL0     C19469   4.147   4.851   0.813 -0.1410  0.0285 -0.1212
  145MOL0     C19470   4.055   4.966   0.809  1.1281 -0.5860 -0.8588
  145MOL0     O19471   3.928   4.941   0.763 -0.1140 -0.9151 -0.0218
  145MOL0     C19472   3.849   5.039   0.703  0.2888 -0.6236  0.5774
  145MOL0     C19473   3.908   5.156   0.639  0.2292  0.2205 -0.2995
  145MOL0     C19474   3.832   5.242   0.562 -0.1717  0.0256  0.4089
  145MOL0     C19475   3.694   5.213   0.545 -0.7680  0.4926  0.2970
  145MOL0     O19476   3.609   5.306   0.497 -0.2567  0.5231 -0.4372
  145MOL0     C19477   3.642   5.420   0.426 -0.6400  0.3993 -0.0460
  145MOL0     C19478   3.514   5.500   0.412 -0.4770  0.2933 -0.2727
  145MOL0     C19479   3.405   5.404   0.345 -0.5918  0.7042 -0.6625
  145MOL0     C19480   3.289   5.484   0.276 -0.4889 -0.3684 -0.2277
  145MOL0     C19481   3.336   5.541   0.141  0.6447 -0.0789 -0.7442
  145MOL0     C19482   3.211   5.580   0.047 -0.5148 -0.0728  0.4139
  145MOL0     C19483   3.124   5.697   0.108 -0.4367  0.4016  0.1339
  145MOL0     C19484   3.008   5.729   0.024 -0.2880  0.5591  0.7296
  145MOL0    Cl19485   3.070   5.817  -0.123 -0.1514  0.4527 -0.0448
  145MOL0     C19486   3.641   5.093   0.591  0.3577 -0.2777 -0.1564
  145MOL0     C19487   3.720   5.007   0.668 -0.3004 -0.0037  0.2932
  145MOL0     O19488   4.090   5.074   0.860  0.0175 -0.4853  0.0777
  145MOL0     C19489   4.272   4.876   0.880  0.4991  0.3181  0.2827
  145MOL0     C19490   4.366   4.781   0.887  0.4279  0.2625 -0.9444
  145MOL0     N19491   4.830   4.538   1.401 -0.5560 -0.3391  0.3216
  145MOL0     N19492   4.935   4.496   1.461 -0.1781  0.2969  0.8868
  145MOL0     C19493   6.277   4.359   1.721 -0.5749  0.2655  0.1793
  145MOL0     C19494   6.400   4.402   1.768 -1.5041  0.5939  0.3093
  145MOL0     C19495   6.816   4.559   1.742  0.3509  0.1868  0.4675
  145MOL0     C19496   6.828   4.619   1.867  0.0683  0.3115 -0.0555
  145MOL0     C19497   6.953   4.665   1.917 -0.4718 -0.1928  0.0284
  145MOL0     C19498   7.070   4.638   1.846 -0.3961  0.8534  0.0386
  145MOL0     O19499   7.196   4.684   1.875 -0.2471 -0.2658 -0.3136
  145MOL0     C19500   7.227   4.771   1.987  0.3201 -0.0239  0.0816
  145MOL0     C19501   7.169   4.905   1.947  1.0476 -0.1550 -0.1531
  145MOL0     C19502   7.219   4.962   1.811 -0.6405  0.0854 -0.2665
  145MOL0     C19503   7.165   5.113   1.786 -0.1646 -0.1243  0.1352
  145MOL0     C19504   7.036   5.107   1.713 -0.2705 -0.0224  0.4063
  145MOL0     C19505   6.934   5.096   1.656  0.2826 -0.3553 -0.1368
  145MOL0     C19506   7.057   4.570   1.717 -0.0088 -0.2181 -0.6063
  145MOL0     C19507   6.938   4.538   1.667 -0.0915 -0.3518 -0.3777
  145MOL0     H19508   6.425   4.696   1.591  0.0541  0.4115  1.0557
  145MOL0     H19509   6.199   4.626   1.517 -0.2267 -0.1232 -0.7800
  145MOL0     H19510   5.981   4.561   1.637  2.8025 -0.1322 -0.0891
  145MOL0     H19511   6.022   4.520   1.473  0.8847 -0.0446  0.2622
  145MOL0     H19512   5.863   4.318   1.480  0.3352 -0.7983  0.0798
  145MOL0     H19513   5.826   4.368   1.651 -0.0387 -0.8914 -0.4670
  145MOL0     H19514   5.732   4.584   1.538 -0.7822  0.8300 -2.3195
  145MOL0     H19515   5.760   4.504   1.382 -1.1188 -3.3928 -1.4133
  145MOL0     H19516   5.608   4.318   1.482 -0.3999 -0.8059  1.8160
  145MOL0     H19517   5.603   4.408   1.634  2.0568 -0.4823  0.6472
  145MOL0     H19518   5.468   4.577   1.540  4.3342  3.0799 -2.4051
  145MOL0     H19519   5.511   4.541   1.376  0.7181  0.0462 -0.0551
  145MOL0     H19520   5.397   4.288   1.431 -0.2321  0.1129 -1.4833
  145MOL0     H19521   5.349   4.397   1.564  1.4637  3.0004 -0.2225
  145MOL0     H19522   5.221   4.538   1.394  2.1633  1.4976 -1.2982
  145MOL0     H19523   5.272   4.416   1.275  2.8897  2.0298  0.6598
  145MOL0     H19524   5.117   4.325   1.514 -2.5228 -2.6006 -0.5813
  145MOL0     H19525   5.124   4.257   1.352 -1.4593 -0.0447  0.2378
  145MOL0     H19526   4.975   4.385   1.151 -1.6323 -0.2108 -1.2836
  145MOL0     H19527   4.717   4.672   1.188 -2.2217 -0.4100  3.1175
  145MOL0     H19528   4.794   4.574   1.064 -0.8048  1.0389 -0.9363
  145MOL0     H19529   4.593   4.451   1.253 -1.0728  1.2276 -0.0837
  145MOL0     H19530   4.652   4.381   1.109  3.0777  0.4062 -0.8753
  145MOL0     H19531   4.494   4.632   1.132 -0.0104  0.3261 -0.0763
  145MOL0     H19532   4.442   4.469   1.071 -0.5534  1.0711  1.5882
  145MOL0     H19533   4.638   4.494   0.903  0.9721  1.1017 -1.8914
  145MOL0     H19534   4.618   4.663   0.910 -1.9075  0.4891  1.1931
  145MOL0     H19535   4.223   4.545   0.703  0.5743  1.4865 -1.6187
  145MOL0     H19536   3.938   4.694   0.755  2.5152 -1.2268  2.3162
  145MOL0     H19537   3.985   4.742   0.591 -0.8065 -0.8995 -0.4287
  145MOL0     H19538   4.026   4.580   0.644  1.2271  0.7936 -1.3206
  145MOL0     H19539   4.015   5.171   0.651  0.1932 -0.9295  1.8749
  145MOL0     H19540   3.874   5.332   0.519  1.0739 -1.4490 -1.6183
  145MOL0     H19541   3.723   5.477   0.473 -0.8003  1.8956 -1.4647
  145MOL0     H19542   3.677   5.404   0.324  2.5516  2.2320  0.6191
  145MOL0     H19543   3.475   5.540   0.506 -0.1497  2.3837 -0.9687
  145MOL0     H19544   3.536   5.591   0.354 -1.1778  1.8348  1.7722
  145MOL0     H19545   3.364   5.333   0.417 -0.1759 -1.3405 -2.3376
  145MOL0     H19546   3.452   5.340   0.269 -3.7563 -1.8049 -0.7054
  145MOL0     H19547   3.207   5.412   0.267  1.0047 -2.4075  1.4651
  145MOL0     H19548   3.250   5.563   0.341  0.7788 -0.7238  1.0118
  145MOL0     H19549   3.394   5.466   0.088  2.2228 -0.3277  1.2181
  145MOL0     H19550   3.412   5.619   0.144 -0.1032  0.7318 -1.7899
  145MOL0     H19551   3.248   5.596  -0.055 -0.1515  1.9460  0.8056
  145MOL0     H19552   3.158   5.487   0.029  1.6499 -0.9072 -2.4210
  145MOL0     H19553   3.187   5.784   0.127  1.3577 -1.1699  1.9763
  145MOL0     H19554   3.079   5.670   0.205  0.5273 -0.9085  0.2481
  145MOL0     H19555   2.932   5.788   0.077 -3.2304 -1.2972 -1.1124
  145MOL0     H19556   2.964   5.634  -0.008  0.6130 -0.0138  1.1672
  145MOL0     H19557   3.540   5.056   0.571 -0.0898  0.5363  0.5185
  145MOL0     H19558   3.674   4.918   0.710 -1.8898  0.2294 -0.8433
  145MOL0     H19559   4.296   4.973   0.923  3.1269  0.0590 -0.4132
  145MOL0     H19560   4.464   4.805   0.927  0.2519 -2.3377  1.3294
  145MOL0     H19561   6.246   4.265   1.767  2.6328 -1.3187 -0.5684
  145MOL0     H19562   6.467   4.346   1.832 -1.5124 -1.3083 -1.2441
  145MOL0     H19563   6.741   4.632   1.931 -0.4440 -1.8746 -0.2263
  145MOL0     H19564   6.951   4.716   2.013 -0.8181  2.3921 -1.2728
  145MOL0     H19565   7.181   4.731   2.078 -0.2590  1.4131  0.4377
  145MOL0     H19566   7.334   4.788   1.999  0.3270 -0.2264  0.3206
  145MOL0     H19567   7.181   4.972   2.032  0.2263  1.9691 -1.6409
  145MOL0     H19568   7.061   4.889   1.942  1.5207 -3.6370 -2.1843
  145MOL0     H19569   7.193   4.899   1.726 -0.3102  1.3525 -1.3443
  145MOL0     H19570   7.327   4.962   1.827 -0.7769  0.9369  0.7488
  145MOL0     H19571   7.238   5.167   1.726 -1.5648  4.9912  2.4584
  145MOL0     H19572   7.176   5.170   1.879 -0.9017  2.3610 -1.2071
  145MOL0     H19573   6.840   5.104   1.605  1.3092  1.5546 -1.8726
  145MOL0     H19574   7.150   4.560   1.661  0.8955  1.7593  0.4333
  145MOL0     H19575   6.953   4.505   1.564  0.2019  0.5062 -0.6196
  146MOL0     O19576   5.498   4.643  11.165 -0.5485  0.4128 -0.6595
  146MOL0     C19577   5.512   4.681  11.049 -0.1387 -0.6869 -0.2961
  146MOL0     O19578   5.427   4.650  10.948 -0.5777 -0.2321  0.1946
  146MOL0     C19579   5.326   4.562  10.964 -0.7305 -0.2426 -0.4465
  146MOL0     C19580   5.199   4.614  10.984 -0.7673  0.1622 -0.4329
  146MOL0     C19581   5.092   4.529  10.989 -0.3602 -1.0916 -0.1518
  146MOL0     C19582   5.108   4.390  10.979  0.3142 -0.1732  0.1991
  146MOL0     O19583   5.003   4.305  11.001  0.7838  0.1263  0.2596
  146MOL0     C19584   5.004   4.166  10.956  0.8420 -1.0782  0.0788
  146MOL0     C19585   4.991   4.159  10.806  0.3191 -0.0263  0.8007
  146MOL0     C19586   4.883   4.057  10.763  0.2758  0.5737  1.2339
  146MOL0     C19587   4.948   3.928  10.718  0.4576  0.1175 -0.2648
  146MOL0     C19588   4.980   3.827  10.833 -0.2192  0.6198 -0.1923
  146MOL0     C19589   4.866   3.806  10.936  0.5002 -0.5621 -0.2032
  146MOL0     C19590   4.881   3.697  11.035  0.1257 -0.9177 -0.6553
  146MOL0     C19591   4.792   3.713  11.161  0.3331  0.1719  0.7929
  146MOL0     N19592   4.843   3.827  11.245  1.0023  0.0059  0.0420
  146MOL0     C19593   4.760   3.920  11.297 -0.3594 -0.0794 -0.3278
  146MOL0     C19594   4.844   3.992  11.380 -0.2467  0.0637 -0.8650
  146MOL0     C19595   4.808   4.121  11.455 -0.3351 -0.1158  0.3083
  146MOL0     C19596   4.734   4.096  11.590  0.0081  0.5521 -1.0780
  146MOL0     C19597   4.834   4.065  11.718 -0.4578  0.1693 -0.0185
  146MOL0     C19598   4.919   3.940  11.706 -0.6219  0.0999  0.2559
  146MOL0     O19599   4.991   3.931  11.832 -0.3010 -0.7232  0.4630
  146MOL0     C19600   5.106   3.858  11.843  0.1063 -0.5741  0.8430
  146MOL0     C19601   5.136   3.753  11.749  0.2845 -0.6015  0.5377
  146MOL0     C19602   5.256   3.688  11.759  0.1421  0.6041 -0.5070
  146MOL0     C19603   5.281   3.587  11.654  0.1016 -0.2279 -0.3878
  146MOL0     C19604   5.350   3.728  11.857 -0.4906 -0.3103 -0.0045
  146MOL0     C19605   5.486   3.674  11.856 -0.7927  0.1626 -0.9444
  146MOL0     O19606   5.522   3.542  11.819  0.5304 -0.0144 -0.3405
  146MOL0     C19607   5.641   3.517  11.755 -0.5029 -1.0217  0.2894
  146MOL0     C19608   5.728   3.415  11.802  0.5982 -0.1774 -0.6221
  146MOL0     C19609   5.851   3.389  11.746  0.2543 -0.2556 -0.7715
  146MOL0     C19610   5.903   3.469  11.642  0.6560 -0.1652 -0.0185
  146MOL0     O19611   6.033   3.441  11.600 -0.5260  0.1539  0.2875
  146MOL0     C19612   6.087   3.515  11.500  0.3359  0.4572  0.7686
  146MOL0     C19613   6.173   3.627  11.553 -0.3174 -1.2435  0.2649
  146MOL0     C19614   6.259   3.683  11.438 -0.9513 -0.9389 -0.3370
  146MOL0     C19615   6.322   3.824  11.457  0.0591  0.2186  0.2458
  146MOL0     C19616   6.418   3.857  11.342  0.0801 -0.5543  0.1384
  146MOL0     C19617   6.551   3.766  11.337  0.8666 -0.0844  0.6639
  146MOL0     C19618   6.668   3.826  11.256 -0.5418 -0.1337  0.4792
  146MOL0     C19619   6.756   3.716  11.200  0.3395 -0.1957  0.9150
  146MOL0    Cl19620   6.861   3.791  11.061  0.7704 -0.3746  0.2167
  146MOL0     C19621   5.817   3.573  11.593  0.2862  0.9455 -0.8810
  146MOL0     C19622   5.687   3.600  11.650  0.5394 -0.0036  0.1135
  146MOL0     O19623   5.572   3.758  11.887 -0.7555  0.0636 -0.3950
  146MOL0     C19624   5.317   3.834  11.948  0.4414 -0.7175  0.5730
  146MOL0     C19625   5.192   3.895  11.937 -0.0264  0.7633 -0.1966
  146MOL0     N19626   4.966   3.945  11.365 -0.3941  0.2051 -0.5637
  146MOL0     N19627   4.970   3.848  11.281  0.1191  0.3175 -0.3832
  146MOL0     C19628   5.243   4.336  10.978  0.4090 -0.4119  0.3577
  146MOL0     C19629   5.351   4.432  10.972 -0.0827  0.3756 -0.1119
  146MOL0     C19630   5.626   4.777  11.018 -0.2414 -1.0102  0.2036
  146MOL0     C19631   5.704   4.820  11.119 -0.3777  0.4283 -0.1605
  146MOL0     C19632   5.824   4.885  11.105  0.1607  0.4102 -1.1297
  146MOL0     C19633   5.860   4.922  10.983  0.6739  0.2141  0.4604
  146MOL0     O19634   5.982   4.985  10.957 -0.4159 -0.5086 -0.5454
  146MOL0     C19635   5.986   5.097  10.867 -0.8134 -0.0461  0.0569
  146MOL0     C19636   6.112   5.179  10.904 -0.9642  0.3840  0.1603
  146MOL0     C19637   6.241   5.087  10.882  0.3333  0.4001  0.4041
  146MOL0     C19638   6.381   5.156  10.898 -0.6229  0.3674 -0.1997
  146MOL0     C19639   6.496   5.065  10.901 -0.4271 -0.1420  0.4298
  146MOL0     C19640   6.589   4.991  10.897  0.0222  0.1380 -1.2103
  146MOL0     C19641   5.782   4.893  10.876  0.0144  0.2054 -0.4215
  146MOL0     C19642   5.671   4.818  10.887 -0.0587  0.2580  0.6480
  146MOL0     H19643   5.186   4.721  10.980  1.7557  0.5735  0.5487
  146MOL0     H19644   4.991   4.569  10.989 -0.7926 -2.1603  0.5283
  146MOL0     H19645   5.088   4.107  10.993 -0.1695 -0.8503  3.0014
  146MOL0     H19646   4.908   4.129  10.995 -1.0597 -0.4189 -3.4987
  146MOL0     H19647   4.964   4.254  10.759  2.9120 -0.5597 -2.0224
  146MOL0     H19648   5.092   4.136  10.773 -0.6102 -3.6870  0.0131
  146MOL0     H19649   4.806   4.035  10.838 -0.2713 -0.8814  0.2918
  146MOL0     H19650   4.835   4.107  10.679  0.1417 -1.7915 -0.1844
  146MOL0     H19651   4.880   3.887  10.644  0.5850  2.0937 -1.5519
  146MOL0     H19652   5.043   3.958  10.673  0.5218  0.8272  0.3166
  146MOL0     H19653   5.003   3.736  10.777  2.2041  1.6110 -0.9335
  146MOL0     H19654   5.065   3.869  10.889 -0.0685 -1.5860  1.3708
  146MOL0     H19655   4.832   3.893  10.992  0.8512  0.1540 -1.0831
  146MOL0     H19656   4.778   3.787  10.873  0.7094  0.8217 -0.9582
  146MOL0     H19657   4.838   3.605  10.993  3.0262 -2.1417 -1.2024
  146MOL0     H19658   4.986   3.676  11.059  0.6923 -0.5513 -2.6649
  146MOL0     H19659   4.788   3.621  11.220  1.2613 -1.7663 -1.9682
  146MOL0     H19660   4.688   3.727  11.129  0.4123 -1.5494 -0.3494
  146MOL0     H19661   4.654   3.932  11.277  0.1841  1.7925 -2.4545
  146MOL0     H19662   4.895   4.185  11.469  2.7372 -2.9620 -3.4385
  146MOL0     H19663   4.739   4.177  11.391 -2.3242 -0.7030  1.8527
  146MOL0     H19664   4.647   4.029  11.589 -1.1729  1.8157  2.0654
  146MOL0     H19665   4.689   4.194  11.611  1.4835  0.6267  2.3009
  146MOL0     H19666   4.775   4.054  11.809  0.8090 -1.9857  0.6056
  146MOL0     H19667   4.902   4.151  11.728 -2.1255  1.8485 -2.1506
  146MOL0     H19668   4.986   3.945  11.620 -0.8700  0.6726  0.0907
  146MOL0     H19669   4.852   3.855  11.692 -0.6756  0.0630  0.7256
  146MOL0     H19670   5.064   3.722  11.674  1.8944 -0.0977 -1.2661
  146MOL0     H19671   5.236   3.611  11.557 -1.2643  0.3824  0.3715
  146MOL0     H19672   5.386   3.585  11.623  0.2693  1.1450 -0.0048
  146MOL0     H19673   5.247   3.489  11.688 -1.5944  0.0115 -1.3034
  146MOL0     H19674   5.705   3.345  11.882 -1.7130 -1.6204 -2.3842
  146MOL0     H19675   5.912   3.308  11.786 -0.5409 -0.4923  0.0008
  146MOL0     H19676   6.160   3.453  11.448 -0.2740 -0.3105  0.8183
  146MOL0     H19677   6.010   3.553  11.431  1.2645  0.6242 -0.2040
  146MOL0     H19678   6.109   3.703  11.597  3.1853  0.4978  2.8553
  146MOL0     H19679   6.232   3.589  11.637 -2.4584 -0.0661  2.4125
  146MOL0     H19680   6.194   3.703  11.353  0.2749  2.0919 -0.6960
  146MOL0     H19681   6.340   3.612  11.414 -0.2764 -1.0465  2.0207
  146MOL0     H19682   6.246   3.902  11.467  1.0552  1.1490  0.8268
  146MOL0     H19683   6.382   3.820  11.549  0.3765  0.5377  0.0573
  146MOL0     H19684   6.447   3.960  11.368  1.1534 -0.6953 -0.4386
  146MOL0     H19685   6.367   3.863  11.246 -2.0015  1.5090  1.2619
  146MOL0     H19686   6.576   3.753  11.442  0.7694 -1.2743  0.5446
  146MOL0     H19687   6.530   3.671  11.288  1.8501  0.4479 -0.8855
  146MOL0     H19688   6.718   3.894  11.326  1.1979 -0.4751 -0.3803
  146MOL0     H19689   6.639   3.888  11.171 -1.1779 -1.9899 -0.7097
  146MOL0     H19690   6.695   3.638  11.154  0.2556 -0.7483  1.9448
  146MOL0     H19691   6.817   3.676  11.282  0.3640  2.1204  2.0970
  146MOL0     H19692   5.838   3.638  11.509 -1.5906  1.4322 -1.0364
  146MOL0     H19693   5.620   3.684  11.632  1.5266  1.4457  2.6542
  146MOL0     H19694   5.394   3.890  12.001 -0.0770  1.9118 -1.2295
  146MOL0     H19695   5.161   3.970  12.009 -1.8351 -1.1278  1.1226
  146MOL0     H19696   5.257   4.229  10.989  0.1722 -0.4581  0.2334
  146MOL0     H19697   5.453   4.394  10.978  0.4846  1.6138 -1.2653
  146MOL0     H19698   5.680   4.782  11.218  0.0870  1.4913  0.3746
  146MOL0     H19699   5.890   4.910  11.188  1.2186 -2.2062 -1.1020
  146MOL0     H19700   5.990   5.067  10.762  0.2786  0.2502  0.0040
  146MOL0     H19701   5.908   5.173  10.872  0.9791  1.8939 -0.2265
  146MOL0     H19702   6.110   5.204  11.010 -2.2252  1.5793 -0.1336
  146MOL0     H19703   6.096   5.265  10.838  0.4797  2.0607  1.8894
  146MOL0     H19704   6.245   5.063  10.775 -0.6158  0.0760  0.4348
  146MOL0     H19705   6.238   4.995  10.940 -0.3955  1.3512  1.9367
  146MOL0     H19706   6.371   5.212  10.992  1.4066  1.8097 -0.7621
  146MOL0     H19707   6.380   5.230  10.817 -0.7608  2.4596  1.6263
  146MOL0     H19708   6.682   4.937  10.898 -1.1072 -1.9816 -2.3521
  146MOL0     H19709   5.811   4.930  10.778  1.8957 -2.3479 -0.9038
  146MOL0     H19710   5.611   4.804  10.797  1.4550  0.6262 -0.4631
  147MOL0     O19711   3.459   7.473   0.278  0.0052  0.0698 -0.0743
  147MOL0     C19712   3.508   7.457   0.393 -0.3731  0.1779  0.1973
  147MOL0     O19713   3.442   7.472   0.516 -0.0267  0.1274  0.2829
  147MOL0     C19714   3.320   7.531   0.505 -0.1535 -0.4192  0.6764
  147MOL0     C19715   3.317   7.662   0.495 -0.7112  0.2219  0.2805
  147MOL0     C19716   3.198   7.732   0.517 -1.2865 -0.6766  0.2952
  147MOL0     C19717   3.073   7.676   0.532 -0.3287  0.4194 -0.3002
  147MOL0     O19718   2.964   7.766   0.556 -0.5652 -0.4224  0.6684
  147MOL0     C19719   2.835   7.715   0.558 -0.2461  0.4409  0.5905
  147MOL0     C19720   2.736   7.829   0.586 -0.6559 -0.0529  0.0420
  147MOL0     C19721   2.600   7.780   0.547 -0.4431  0.5497  0.2222
  147MOL0     C19722   2.522   7.724   0.660 -1.0928  0.4291  1.4787
  147MOL0     C19723   2.370   7.720   0.630  0.9530  0.5191 -0.2764
  147MOL0     C19724   2.275   7.697   0.743 -0.3886  0.3054 -0.6841
  147MOL0     C19725   2.123   7.680   0.718  0.5568  0.4399  0.2063
  147MOL0     C19726   2.091   7.555   0.626  0.8976  0.1519 -0.3912
  147MOL0     N19727   1.946   7.531   0.632 -0.1585  0.4632 -0.7687
  147MOL0     C19728   1.844   7.620   0.635  0.3917  0.0262 -0.9582
  147MOL0     C19729   1.725   7.550   0.639 -0.3370  0.4587 -0.3653
  147MOL0     C19730   1.578   7.594   0.635 -0.2427 -0.2134  0.2237
  147MOL0     C19731   1.509   7.552   0.771  0.4050  0.3966 -0.8037
  147MOL0     C19732   1.365   7.606   0.788  0.1786  0.2789 -0.3736
  147MOL0     C19733   1.368   7.748   0.839  0.5770  0.3534 -0.1077
  147MOL0     O19734   1.238   7.791   0.878  0.0741 -0.6125 -0.4359
  147MOL0     C19735   1.226   7.919   0.926 -0.6138 -0.0822 -0.0470
  147MOL0     C19736   1.098   7.959   0.914  0.0625 -0.3463 -1.1740
  147MOL0     C19737   1.067   8.084   0.968  0.5387 -0.5932  0.3359
  147MOL0     C19738   0.921   8.109   0.954  1.1102  0.4587 -0.4473
  147MOL0     C19739   1.159   8.177   1.028  0.3311 -0.0878  0.1427
  147MOL0     C19740   1.121   8.308   1.096 -0.2948 -0.1297  0.2415
  147MOL0     O19741   1.002   8.371   1.064 -0.0716 -0.3948  0.7098
  147MOL0     C19742   0.966   8.497   1.116  0.0544 -0.8609 -0.3737
  147MOL0     C19743   0.834   8.534   1.140  0.1956  0.4105  0.4404
  147MOL0     C19744   0.804   8.659   1.193  0.4376 -0.0872  0.9184
  147MOL0     C19745   0.893   8.756   1.223 -0.8835  0.4841  0.6484
  147MOL0     O19746   0.841   8.878   1.263 -0.5013 -0.0947  0.9924
  147MOL0     C19747   0.948   8.972   1.302 -0.0496 -0.0367  0.2439
  147MOL0     C19748   0.884   9.099   1.346 -0.4020 -0.2491  0.1172
  147MOL0     C19749   0.820   9.196   1.242 -0.4668 -0.0150 -0.1352
  147MOL0     C19750   0.767   9.322   1.307  0.8243  0.2947  0.4158
  147MOL0     C19751   0.626   9.301   1.367  0.3073 -0.3178  1.1120
  147MOL0     C19752   0.522   9.311   1.246  0.1966 -0.3169 -0.0068
  147MOL0     C19753   0.378   9.277   1.297  0.2238  0.2026 -0.6602
  147MOL0     C19754   0.278   9.321   1.194 -0.0692  1.3714  0.1060
  147MOL0    Cl19755   0.312   9.213   1.039  0.1073 -0.2305 -0.1892
  147MOL0     C19756   1.027   8.720   1.201 -0.4671  0.5692 -0.4137
  147MOL0     C19757   1.063   8.600   1.150  0.4319  0.3244  0.3644
  147MOL0     O19758   1.192   8.338   1.195  0.4514  0.4860 -0.1845
  147MOL0     C19759   1.290   8.130   1.034 -0.2095  0.6805 -0.3257
  147MOL0     C19760   1.324   8.003   0.979 -0.9503 -0.1612  1.0580
  147MOL0     N19761   1.765   7.420   0.651  0.6440 -0.5317 -0.9353
  147MOL0     N19762   1.894   7.410   0.646 -0.3998  0.4521 -0.4378
  147MOL0     C19763   3.071   7.537   0.520  0.0025  0.4100  0.2855
  147MOL0     C19764   3.191   7.469   0.515 -0.4955  0.5013 -0.6182
  147MOL0     C19765   3.655   7.432   0.398 -0.1460  0.9213 -0.0745
  147MOL0     C19766   3.733   7.404   0.274 -0.6751 -0.3071  0.0700
  147MOL0     C19767   3.868   7.374   0.278 -0.0142  0.7790  0.3900
  147MOL0     C19768   3.937   7.388   0.399 -0.6459  0.1776 -0.5494
  147MOL0     O19769   4.068   7.359   0.420  0.0851  0.7171  0.3474
  147MOL0     C19770   4.149   7.386   0.304  0.3517 -0.3324 -0.3137
  147MOL0     C19771   4.261   7.477   0.359 -0.0465 -0.3907  0.2114
  147MOL0     C19772   4.383   7.482   0.266  0.4428 -0.3359 -0.6033
  147MOL0     C19773   4.479   7.586   0.323 -0.4595 -0.1837 -0.0196
  147MOL0     C19774   4.619   7.578   0.276  0.6940  0.4786 -0.5457
  147MOL0     C19775   4.736   7.552   0.257  0.5563  0.6982  0.5550
  147MOL0     C19776   3.871   7.416   0.519  0.1099  0.0253 -0.3121
  147MOL0     C19777   3.726   7.432   0.525 -0.4209 -0.1133  0.3876
  147MOL0     H19778   3.407   7.721   0.483 -1.2497  0.6054 -2.3149
  147MOL0     H19779   3.203   7.839   0.506  3.2423 -0.7065  0.3146
  147MOL0     H19780   2.810   7.672   0.461  3.2865 -1.6946  0.4211
  147MOL0     H19781   2.832   7.634   0.632 -4.8325 -0.5378 -0.4020
  147MOL0     H19782   2.730   7.859   0.691 -0.5550  1.2797 -0.3096
  147MOL0     H19783   2.766   7.914   0.524  1.0520  0.3413  1.3642
  147MOL0     H19784   2.543   7.867   0.512  0.5899  0.7093 -1.1419
  147MOL0     H19785   2.597   7.715   0.459  2.2037  1.1400 -0.3965
  147MOL0     H19786   2.557   7.622   0.674 -2.9395 -0.1089  2.6475
  147MOL0     H19787   2.523   7.779   0.755 -0.0489  1.2537  1.0080
  147MOL0     H19788   2.334   7.807   0.574  1.6272  1.0031  0.0202
  147MOL0     H19789   2.350   7.633   0.568 -3.2908  1.0966  0.0343
  147MOL0     H19790   2.314   7.605   0.787 -0.5549 -1.2372 -3.5125
  147MOL0     H19791   2.287   7.781   0.813  1.2604 -1.7755  1.6827
  147MOL0     H19792   2.066   7.678   0.811  1.4516  0.6615  0.7731
  147MOL0     H19793   2.082   7.761   0.657  0.1963  1.2369  1.4737
  147MOL0     H19794   2.149   7.472   0.668  1.1026 -0.1705 -1.3025
  147MOL0     H19795   2.116   7.565   0.520 -3.8031 -3.0030 -2.1133
  147MOL0     H19796   1.851   7.729   0.639 -1.3029  0.1432 -0.5215
  147MOL0     H19797   1.570   7.702   0.623 -0.3016 -0.0346  1.6259
  147MOL0     H19798   1.524   7.540   0.557  0.4978 -0.4689 -0.1193
  147MOL0     H19799   1.564   7.586   0.859 -1.6510 -1.6596  1.4152
  147MOL0     H19800   1.506   7.442   0.774 -1.2105  0.2437 -3.9620
  147MOL0     H19801   1.325   7.537   0.862  2.2916 -0.9743 -0.3185
  147MOL0     H19802   1.304   7.596   0.697 -0.7950 -1.4846  0.4347
  147MOL0     H19803   1.415   7.816   0.767  0.9615 -0.8321 -0.9945
  147MOL0     H19804   1.431   7.765   0.927 -0.3295  0.8088  0.4676
  147MOL0     H19805   1.020   7.898   0.869 -1.7232  3.8202 -4.3574
  147MOL0     H19806   0.914   8.186   0.876 -1.3981 -1.8808 -2.7536
  147MOL0     H19807   0.861   8.027   0.914  1.4495  0.4761 -1.0030
  147MOL0     H19808   0.876   8.155   1.042  0.1610  0.6243 -1.0028
  147MOL0     H19809   0.750   8.470   1.116 -0.1337  0.2821  1.8215
  147MOL0     H19810   0.696   8.673   1.201  0.1150 -1.8189  0.0426
  147MOL0     H19811   1.018   8.937   1.379  0.3668  1.9071  0.8191
  147MOL0     H19812   1.008   9.004   1.216 -0.7663 -1.8886 -0.9875
  147MOL0     H19813   0.813   9.058   1.419 -0.0850  1.6481  1.5816
  147MOL0     H19814   0.966   9.157   1.388  0.3494 -0.3652 -1.1473
  147MOL0     H19815   0.740   9.147   1.185 -1.3916 -0.4309  1.4661
  147MOL0     H19816   0.892   9.232   1.169 -1.5059  0.1856 -1.0863
  147MOL0     H19817   0.835   9.357   1.386  3.3356 -1.1396 -0.9983
  147MOL0     H19818   0.753   9.390   1.223 -1.4844  0.0882  0.5573
  147MOL0     H19819   0.609   9.378   1.443 -0.1136  1.0992 -0.3396
  147MOL0     H19820   0.619   9.202   1.411  1.4518 -0.1928  1.6265
  147MOL0     H19821   0.512   9.413   1.206 -0.2602  1.0594  3.3104
  147MOL0     H19822   0.546   9.244   1.163 -0.4409 -3.3230  2.0781
  147MOL0     H19823   0.361   9.329   1.392  2.3548 -0.1616 -0.0254
  147MOL0     H19824   0.374   9.171   1.320  2.8260  0.3177  0.6851
  147MOL0     H19825   0.296   9.424   1.162  2.4497  1.7988  2.5222
  147MOL0     H19826   0.181   9.286   1.230  1.4917 -2.3993  1.1381
  147MOL0     H19827   1.113   8.786   1.215  1.5354 -1.8642 -0.5517
  147MOL0     H19828   1.167   8.576   1.127  0.1048 -0.9423  0.1777
  147MOL0     H19829   1.374   8.178   1.083  1.2097 -3.1213  1.2987
  147MOL0     H19830   1.423   7.960   0.990 -0.7142  0.7085  2.6102
  147MOL0     H19831   2.982   7.476   0.536  1.6636 -2.5692 -0.9428
  147MOL0     H19832   3.180   7.362   0.525 -0.4865  0.5834  0.3866
  147MOL0     H19833   3.682   7.401   0.178  1.1766  1.3880 -1.0402
  147MOL0     H19834   3.920   7.335   0.191 -1.4931 -0.0219 -0.1686
  147MOL0     H19835   4.182   7.295   0.253 -2.8966 -1.0960 -1.2623
  147MOL0     H19836   4.098   7.446   0.228 -1.1578  0.0545  0.9440
  147MOL0     H19837   4.288   7.444   0.460 -2.6524 -1.1578  0.7419
  147MOL0     H19838   4.205   7.569   0.376 -3.0626 -2.2219  0.9354
  147MOL0     H19839   4.356   7.516   0.165 -3.5256  4.3397  1.6333
  147MOL0     H19840   4.431   7.384   0.267 -0.9668 -1.0719  1.9682
  147MOL0     H19841   4.493   7.572   0.430 -0.0882  1.7484  0.2179
  147MOL0     H19842   4.442   7.687   0.306 -0.1020  0.1173  0.9583
  147MOL0     H19843   4.833   7.508   0.241  0.7584  0.6386  1.8574
  147MOL0     H19844   3.934   7.428   0.606  2.4233 -1.4201 -1.6529
  147MOL0     H19845   3.665   7.447   0.613 -0.3964  1.9944  0.0834
  148MOL0     O19846   9.784   8.525   3.007  0.5081 -0.2447 -0.0340
  148MOL0     C19847   9.777   8.610   2.918  0.2861 -0.6786 -0.1778
  148MOL0     O19848   9.666   8.657   2.862  0.2751 -0.1003 -0.1977
  148MOL0     C19849   9.541   8.600   2.887 -0.1608  0.2360 -0.0274
  148MOL0     C19850   9.488   8.520   2.786 -0.4424  0.5551  0.6226
  148MOL0     C19851   9.364   8.465   2.802  0.4240  0.0682  0.5567
  148MOL0     C19852   9.280   8.495   2.905  0.0370  0.0242 -0.7166
  148MOL0     O19853   9.164   8.422   2.920 -0.4667  0.7245  0.3802
  148MOL0     C19854   9.061   8.451   3.013  1.0887 -0.4886 -0.6833
  148MOL0     C19855   8.939   8.359   3.007 -0.3018  0.5431 -0.3969
  148MOL0     C19856   8.876   8.332   3.148  0.5327  0.2723  0.3187
  148MOL0     C19857   8.743   8.253   3.146  0.5774  0.3120 -0.4064
  148MOL0     C19858   8.713   8.210   3.292 -0.0315  0.2940 -0.4392
  148MOL0     C19859   8.576   8.141   3.294 -0.4730  0.0894  0.0831
  148MOL0     C19860   8.513   8.122   3.437 -0.7054  0.7788  0.1442
  148MOL0     C19861   8.382   8.060   3.425  0.5228 -0.2488 -0.5225
  148MOL0     N19862   8.318   8.048   3.562  1.1132  0.3152 -0.0501
  148MOL0     C19863   8.226   7.952   3.595 -0.0234  0.1647  0.0983
  148MOL0     C19864   8.197   7.967   3.724  0.3064  0.1859  0.6983
  148MOL0     C19865   8.086   7.903   3.810  0.4081  0.9679 -1.3494
  148MOL0     C19866   7.941   7.945   3.788 -0.3158  0.0725 -0.1036
  148MOL0     C19867   7.907   7.931   3.641  0.7722 -0.1190  0.5037
  148MOL0     C19868   7.759   7.882   3.622  0.0540 -0.7614 -0.3994
  148MOL0     O19869   7.673   7.991   3.674 -0.0136  0.2118  0.3717
  148MOL0     C19870   7.536   7.975   3.660  0.3368  0.1948 -0.1410
  148MOL0     C19871   7.480   7.850   3.662 -0.2990 -0.1136 -0.6753
  148MOL0     C19872   7.335   7.834   3.639 -0.8956  0.7852  1.0123
  148MOL0     C19873   7.274   7.692   3.644  0.9479  0.6829  0.1571
  148MOL0     C19874   7.254   7.943   3.635 -0.8280 -1.3361  0.4189
  148MOL0     C19875   7.104   7.940   3.627 -0.6224  0.2927 -0.5505
  148MOL0     O19876   7.039   7.823   3.579 -0.5448 -0.8937  0.3945
  148MOL0     C19877   6.910   7.807   3.615  0.2285 -0.0798 -0.2465
  148MOL0     C19878   6.808   7.815   3.512 -0.4937  0.3468 -0.0760
  148MOL0     C19879   6.676   7.808   3.539 -0.2335  0.4301  0.1594
  148MOL0     C19880   6.638   7.778   3.677  0.4247 -0.5389  0.0960
  148MOL0     O19881   6.506   7.758   3.695 -0.1621 -0.0758  0.0425
  148MOL0     C19882   6.463   7.703   3.814  0.0841 -0.0898 -0.4019
  148MOL0     C19883   6.326   7.631   3.791 -0.3606  0.1880 -0.5284
  148MOL0     C19884   6.215   7.726   3.739 -0.6027  0.3187  0.5370
  148MOL0     C19885   6.147   7.828   3.837 -0.5469 -0.3928 -0.2800
  148MOL0     C19886   6.057   7.926   3.770  0.1452 -0.3514  0.3437
  148MOL0     C19887   5.932   7.865   3.713  0.4192  0.0338 -0.3251
  148MOL0     C19888   5.833   7.979   3.699  0.0267  0.3583 -0.3190
  148MOL0     C19889   5.781   8.041   3.825  0.2922 -0.3076 -0.0812
  148MOL0    Cl19890   5.652   8.155   3.780 -0.5243 -0.2218  0.2762
  148MOL0     C19891   6.738   7.772   3.780  0.4737  0.3124 -0.0268
  148MOL0     C19892   6.872   7.787   3.747 -0.7114  0.2357  0.0415
  148MOL0     O19893   7.046   8.041   3.675 -0.6930  0.4431 -0.2042
  148MOL0     C19894   7.315   8.075   3.632  0.0169  0.2566  0.4211
  148MOL0     C19895   7.456   8.084   3.640  0.3081 -0.0040  0.4912
  148MOL0     N19896   8.266   8.074   3.768  0.5662  0.2284 -0.0658
  148MOL0     N19897   8.341   8.122   3.675 -0.0372  0.2273 -0.1047
  148MOL0     C19898   9.333   8.573   3.008 -0.2104  0.3820  0.2151
  148MOL0     C19899   9.466   8.630   2.995 -0.2558 -0.8811  0.7699
  148MOL0     C19900   9.899   8.682   2.877 -0.0905 -0.5369  0.3054
  148MOL0     C19901  10.033   8.649   2.909  0.1406 -1.0032 -0.6389
  148MOL0     C19902  10.140   8.741   2.883  0.5812 -0.6282 -0.6400
  148MOL0     C19903  10.118   8.858   2.814 -0.2647 -0.5609  1.2102
  148MOL0     O19904  10.220   8.949   2.787  0.1896  0.1132  0.0448
  148MOL0     C19905  10.354   8.891   2.775 -0.1179  0.0893  0.0205
  148MOL0     C19906  10.452   8.986   2.717 -0.1294  0.1533 -0.7576
  148MOL0     C19907  10.592   8.910   2.718  0.5120 -0.9649  0.8430
  148MOL0     C19908  10.702   9.009   2.659  0.2552 -0.1190  0.7529
  148MOL0     C19909  10.828   8.992   2.733 -0.7536 -0.4682 -0.4481
  148MOL0     C19910  10.932   8.942   2.779  0.5570 -0.4476  0.1201
  148MOL0     C19911   9.990   8.898   2.785  0.5867 -0.2073  0.1021
  148MOL0     C19912   9.879   8.809   2.810 -0.4968  0.3030  0.2681
  148MOL0     H19913   9.550   8.500   2.699  1.9051  3.4913  1.4407
  148MOL0     H19914   9.326   8.397   2.726  0.7183 -1.6621  1.8918
  148MOL0     H19915   9.107   8.449   3.112 -0.5401  1.1082  0.1879
  148MOL0     H19916   9.043   8.558   2.997  2.9215 -0.1551 -0.7434
  148MOL0     H19917   8.867   8.401   2.936  0.0884  0.8553 -0.6124
  148MOL0     H19918   8.985   8.264   2.978 -0.6859  0.6560 -1.4198
  148MOL0     H19919   8.950   8.266   3.195  1.8134  0.2452 -1.6498
  148MOL0     H19920   8.873   8.425   3.205  0.0643  1.0299 -0.9056
  148MOL0     H19921   8.667   8.327   3.118 -1.4868  0.1730  3.9990
  148MOL0     H19922   8.745   8.167   3.079  0.9760  1.1056 -1.4501
  148MOL0     H19923   8.791   8.146   3.334  0.2077  1.0820  0.3476
  148MOL0     H19924   8.713   8.301   3.352  2.8295 -1.7432  3.0284
  148MOL0     H19925   8.512   8.197   3.226 -0.4365  2.1374  1.6143
  148MOL0     H19926   8.580   8.039   3.256 -0.5362 -0.0921  0.5479
  148MOL0     H19927   8.574   8.060   3.503 -0.7843  0.9843  0.4156
  148MOL0     H19928   8.509   8.218   3.490  2.7531 -0.0783  2.3187
  148MOL0     H19929   8.396   7.965   3.373  2.9465 -0.5599  0.5511
  148MOL0     H19930   8.327   8.122   3.354 -0.4430 -1.1774 -0.5947
  148MOL0     H19931   8.183   7.880   3.526  1.5250 -1.7827  1.0865
  148MOL0     H19932   8.099   7.796   3.789 -1.4145  0.6988 -1.3153
  148MOL0     H19933   8.112   7.912   3.915 -0.4687  1.7386 -1.1942
  148MOL0     H19934   7.927   8.047   3.824  3.7161  0.3381  1.2401
  148MOL0     H19935   7.877   7.876   3.843  0.4188 -0.9240 -0.4616
  148MOL0     H19936   7.970   7.855   3.593 -1.0683 -1.5655  0.3018
  148MOL0     H19937   7.924   8.028   3.594 -0.0966  0.1940  0.8208
  148MOL0     H19938   7.745   7.794   3.686 -0.5437  0.8534  1.8386
  148MOL0     H19939   7.727   7.865   3.519 -3.8109 -2.2104  0.8452
  148MOL0     H19940   7.538   7.758   3.675  1.4979  0.7408 -2.1423
  148MOL0     H19941   7.241   7.661   3.545 -0.2070  1.3468  0.3058
  148MOL0     H19942   7.360   7.628   3.666  0.1287  0.1074  1.8970
  148MOL0     H19943   7.206   7.679   3.729  2.6767 -0.4976  1.4283
  148MOL0     H19944   6.837   7.826   3.408  0.9005 -3.2106 -0.2234
  148MOL0     H19945   6.605   7.823   3.458 -1.9336  0.3615  1.5895
  148MOL0     H19946   6.528   7.626   3.856 -0.2940 -1.3082 -1.9833
  148MOL0     H19947   6.448   7.782   3.889 -2.1391 -0.0045 -0.8727
  148MOL0     H19948   6.346   7.557   3.713 -0.8909  1.1929 -1.6416
  148MOL0     H19949   6.291   7.595   3.888 -1.5261  1.9218 -0.2834
  148MOL0     H19950   6.134   7.664   3.700  0.7190 -1.1803  0.0786
  148MOL0     H19951   6.260   7.777   3.653 -1.1936 -0.9329 -0.5445
  148MOL0     H19952   6.108   7.774   3.923 -0.8688 -0.3249 -0.3811
  148MOL0     H19953   6.233   7.888   3.866 -0.0934  0.0542 -2.3492
  148MOL0     H19954   6.111   7.984   3.694 -3.2882  1.8026 -0.7056
  148MOL0     H19955   6.040   7.994   3.854  0.0389 -0.0720  0.0993
  148MOL0     H19956   5.947   7.822   3.614 -0.9477 -3.2058  0.7359
  148MOL0     H19957   5.900   7.781   3.775  0.1897 -0.4075 -1.0255
  148MOL0     H19958   5.746   7.948   3.640 -1.0447 -0.0976  1.4491
  148MOL0     H19959   5.882   8.048   3.629  0.3870  0.9281  0.4842
  148MOL0     H19960   5.860   8.092   3.881  1.6994  0.6719 -2.7551
  148MOL0     H19961   5.737   7.973   3.898 -0.0483  0.9995  0.9834
  148MOL0     H19962   6.709   7.758   3.884  0.5635  0.3014 -0.0030
  148MOL0     H19963   6.949   7.786   3.823  1.4288 -0.0995 -2.0494
  148MOL0     H19964   7.248   8.156   3.607  0.2322  0.1513 -0.5424
  148MOL0     H19965   7.498   8.183   3.621 -2.3104  1.1921  0.5587
  148MOL0     H19966   9.269   8.583   3.094  0.3542 -1.7986  0.9497
  148MOL0     H19967   9.506   8.704   3.063  0.7835  1.1777 -1.9120
  148MOL0     H19968  10.045   8.555   2.962 -2.0211 -1.6711 -1.1924
  148MOL0     H19969  10.243   8.719   2.911  0.0163 -0.5074  1.7287
  148MOL0     H19970  10.388   8.861   2.874  0.8787 -0.9239 -0.5906
  148MOL0     H19971  10.355   8.804   2.707  0.6214  1.2596 -1.5272
  148MOL0     H19972  10.459   9.074   2.782 -0.2139  0.4847 -1.1955
  148MOL0     H19973  10.419   9.024   2.620 -4.7241 -0.5616  0.3113
  148MOL0     H19974  10.586   8.824   2.650 -1.2104  0.0891 -0.4134
  148MOL0     H19975  10.609   8.892   2.824  0.4692  2.2348  1.4871
  148MOL0     H19976  10.677   9.116   2.656  0.3684 -0.0259  2.1553
  148MOL0     H19977  10.719   8.984   2.554  2.4384  2.2353  0.4471
  148MOL0     H19978  11.027   8.910   2.818  1.4870  1.7630 -0.1720
  148MOL0     H19979   9.977   8.996   2.740  1.2252 -0.2825 -0.2535
  148MOL0     H19980   9.778   8.839   2.785 -0.3674 -1.1601 -2.4281
  149MOL0     O19981  10.895   3.068   9.646  0.0326 -0.5005  0.2736
  149MOL0     C19982  10.983   3.140   9.602 -0.0425 -0.2257 -0.0177
  149MOL0     O19983  10.954   3.266   9.551  0.3063  0.2858 -0.6565
  149MOL0     C19984  10.845   3.334   9.582 -0.2081  0.1871 -0.1258
  149MOL0     C19985  10.712   3.289   9.542 -0.8287 -0.6253 -0.7177
  149MOL0     C19986  10.601   3.377   9.573  0.4017  0.4823 -0.8011
  149MOL0     C19987  10.626   3.514   9.604 -0.4141  0.1310 -1.0812
  149MOL0     O19988  10.533   3.610   9.617  0.0139 -0.0668  0.8052
  149MOL0     C19989  10.397   3.591   9.560 -0.3494  0.1535 -0.1136
  149MOL0     C19990  10.311   3.702   9.599 -0.1091 -0.6001 -0.4551
  149MOL0     C19991  10.173   3.701   9.532 -0.1244  0.2604 -0.0893
  149MOL0     C19992  10.061   3.657   9.630 -0.1863  0.1206 -0.1235
  149MOL0     C19993   9.919   3.666   9.572 -0.8844 -0.2670 -0.2580
  149MOL0     C19994   9.907   3.634   9.424  0.2712  0.8791  1.0590
  149MOL0     C19995   9.768   3.657   9.365  0.4014  0.0594  0.1730
  149MOL0     C19996   9.710   3.790   9.412  0.6591 -0.2880 -0.6660
  149MOL0     N19997   9.606   3.841   9.329 -1.0392 -0.6860  0.2396
  149MOL0     C19998   9.468   3.836   9.344 -0.3738  0.8551 -0.3863
  149MOL0     C19999   9.413   3.908   9.238 -0.0881  0.7672  0.0261
  149MOL0     C20000   9.276   3.933   9.188  0.3042  0.2653 -0.4565
  149MOL0     C20001   9.183   3.827   9.225  0.0000  0.0996  0.0804
  149MOL0     C20002   9.041   3.886   9.189 -0.0370 -0.1898 -0.1653
  149MOL0     C20003   8.926   3.789   9.194 -0.4658 -1.0714 -0.0705
  149MOL0     O20004   8.896   3.757   9.327 -0.1147  0.3131  0.0263
  149MOL0     C20005   8.780   3.687   9.355 -0.0863  0.0839 -0.1257
  149MOL0     C20006   8.715   3.598   9.265 -0.2549 -0.0083 -0.4201
  149MOL0     C20007   8.601   3.522   9.297 -0.6049  0.5818 -0.2940
  149MOL0     C20008   8.577   3.403   9.192  0.3362 -0.0127 -0.5598
  149MOL0     C20009   8.544   3.532   9.424 -0.3794  0.0386  0.3088
  149MOL0     C20010   8.418   3.464   9.474  0.8756  0.0986 -0.6977
  149MOL0     O20011   8.351   3.395   9.383  0.5811  0.0942 -0.5196
  149MOL0     C20012   8.275   3.277   9.407 -0.1017  0.2822  0.1002
  149MOL0     C20013   8.178   3.242   9.316 -0.1184  0.1060  0.1622
  149MOL0     C20014   8.078   3.150   9.351  0.1015 -0.6452  0.5826
  149MOL0     C20015   8.082   3.079   9.471 -0.1781  0.6422 -0.4442
  149MOL0     O20016   7.984   2.976   9.486 -0.0813 -0.2686 -0.2072
  149MOL0     C20017   7.985   2.906   9.611  0.0730  0.3142 -0.4452
  149MOL0     C20018   7.877   2.801   9.622  0.6766  0.3773  0.0463
  149MOL0     C20019   7.739   2.851   9.688 -0.5472  0.8543  0.3760
  149MOL0     C20020   7.637   2.740   9.677  0.7811  0.6230 -0.6310
  149MOL0     C20021   7.505   2.787   9.740 -0.1863 -0.3059 -0.1785
  149MOL0     C20022   7.417   2.666   9.781 -1.1171 -0.2721  0.7012
  149MOL0     C20023   7.295   2.705   9.869 -0.0876  0.1580 -0.3696
  149MOL0     C20024   7.197   2.583   9.891  0.1155  0.2305 -0.7131
  149MOL0    Cl20025   7.288   2.438   9.959  0.1904  0.0988  0.2240
  149MOL0     C20026   8.180   3.119   9.566 -0.0626  0.9089 -0.0550
  149MOL0     C20027   8.274   3.223   9.535  0.0106  0.5140  0.3403
  149MOL0     O20028   8.375   3.488   9.587  0.0145 -0.7943 -0.2369
  149MOL0     C20029   8.613   3.622   9.517 -0.7657  0.1005 -0.6982
  149MOL0     C20030   8.730   3.696   9.483  0.7438  1.2491 -0.7256
  149MOL0     N20031   9.529   3.944   9.164 -0.2246  0.2259 -0.9207
  149MOL0     N20032   9.640   3.909   9.213 -0.2683  0.3151 -1.1312
  149MOL0     C20033  10.756   3.546   9.641  1.0154  0.6465  0.4154
  149MOL0     C20034  10.860   3.457   9.637 -0.3046 -0.6342 -0.1461
  149MOL0     C20035  11.128   3.096   9.600  0.9844  0.7356  0.2436
  149MOL0     C20036  11.233   3.164   9.544 -0.5084 -0.2785  0.3569
  149MOL0     C20037  11.372   3.139   9.578 -0.2014  0.8389  0.4310
  149MOL0     C20038  11.399   3.028   9.665  0.4815 -0.0426  1.0958
  149MOL0     O20039  11.522   2.986   9.701 -0.4134  0.4242  0.1831
  149MOL0     C20040  11.624   3.081   9.724  1.6298  0.6627  0.1933
  149MOL0     C20041  11.582   3.208   9.803 -0.1220 -0.4443 -0.0824
  149MOL0     C20042  11.513   3.165   9.939  0.1314  0.0732 -0.4916
  149MOL0     C20043  11.439   3.278  10.006  1.5323  0.1185  0.0400
  149MOL0     C20044  11.319   3.325   9.925 -1.4403 -0.0727  0.8761
  149MOL0     C20045  11.247   3.376   9.845 -0.5115 -0.3526 -0.5788
  149MOL0     C20046  11.292   2.953   9.711  0.9295  0.2289 -0.0108
  149MOL0     C20047  11.162   2.982   9.675 -0.8591 -0.2706  0.0547
  149MOL0     H20048  10.692   3.188   9.510 -0.1644 -0.6828 -0.9855
  149MOL0     H20049  10.502   3.335   9.556 -1.2473  2.5346  2.6375
  149MOL0     H20050  10.404   3.565   9.454 -0.9750  1.3949 -0.4772
  149MOL0     H20051  10.351   3.503   9.606  1.8580  0.8199  3.7357
  149MOL0     H20052  10.294   3.679   9.704  2.6124  0.1312  0.2245
  149MOL0     H20053  10.363   3.796   9.577 -2.7352  0.4586 -2.6578
  149MOL0     H20054  10.170   3.800   9.485  5.2805 -0.2832 -2.2527
  149MOL0     H20055  10.177   3.626   9.453  2.8777 -2.6762  2.5243
  149MOL0     H20056  10.075   3.553   9.660  1.4247  0.4483  0.3583
  149MOL0     H20057  10.073   3.726   9.715  0.8026  0.2956 -0.3859
  149MOL0     H20058   9.839   3.613   9.624 -4.1950  1.6441 -2.9254
  149MOL0     H20059   9.899   3.774   9.576 -4.3668 -0.6533 -2.4398
  149MOL0     H20060   9.980   3.691   9.366 -1.2611  0.8064 -1.0388
  149MOL0     H20061   9.928   3.528   9.407 -1.2480  0.9743 -2.0038
  149MOL0     H20062   9.783   3.676   9.259 -0.0645 -2.0176 -0.2997
  149MOL0     H20063   9.701   3.572   9.382  1.5900 -1.0355 -0.3783
  149MOL0     H20064   9.788   3.867   9.412 -0.8133  1.2793 -0.1181
  149MOL0     H20065   9.675   3.775   9.515 -0.9903 -2.7496 -1.5122
  149MOL0     H20066   9.425   3.784   9.429 -3.6990  0.6214 -2.0536
  149MOL0     H20067   9.246   4.029   9.232 -3.2685 -1.5996  1.6672
  149MOL0     H20068   9.271   3.949   9.079 -1.1833  3.2327 -0.0550
  149MOL0     H20069   9.205   3.804   9.330  2.6307  0.8853 -0.2412
  149MOL0     H20070   9.201   3.740   9.161 -2.9877 -0.7002  0.1432
  149MOL0     H20071   9.049   3.923   9.087  1.0718 -1.3204 -0.5168
  149MOL0     H20072   9.020   3.968   9.258  2.1475 -1.1188  1.7285
  149MOL0     H20073   8.944   3.697   9.138  0.2513 -1.0889  0.1721
  149MOL0     H20074   8.840   3.840   9.149  2.3418  2.1283 -2.3324
  149MOL0     H20075   8.767   3.566   9.175  0.3678 -0.1203 -0.0288
  149MOL0     H20076   8.666   3.395   9.129 -0.1487 -1.2195 -1.1196
  149MOL0     H20077   8.545   3.306   9.230 -1.8193  0.4277 -1.1140
  149MOL0     H20078   8.494   3.419   9.122  2.4755  1.6202 -2.9146
  149MOL0     H20079   8.171   3.301   9.225 -1.9644  2.1868  1.5652
  149MOL0     H20080   7.998   3.121   9.283  0.1616 -1.0731  0.6915
  149MOL0     H20081   8.081   2.856   9.622  0.8178  1.9184  0.8859
  149MOL0     H20082   7.981   2.960   9.707 -0.3183 -0.2736 -0.1251
  149MOL0     H20083   7.867   2.758   9.522  0.3121  1.0971 -0.2301
  149MOL0     H20084   7.909   2.726   9.696 -0.7263  1.0483  1.4090
  149MOL0     H20085   7.700   2.938   9.635 -3.0686 -2.3786 -3.6839
  149MOL0     H20086   7.762   2.873   9.793 -0.1572  3.2487 -0.1569
  149MOL0     H20087   7.627   2.720   9.570  2.9801  0.3234 -0.8191
  149MOL0     H20088   7.677   2.654   9.731  0.4931  1.4039  0.8934
  149MOL0     H20089   7.450   2.861   9.681 -1.3459 -1.9087 -1.1933
  149MOL0     H20090   7.541   2.840   9.829 -1.2015  0.3893 -0.1648
  149MOL0     H20091   7.382   2.621   9.687  0.0561 -2.1687  1.1227
  149MOL0     H20092   7.477   2.589   9.830 -0.4143 -0.9539 -1.1325
  149MOL0     H20093   7.241   2.792   9.829  0.3006 -0.6587 -2.8375
  149MOL0     H20094   7.337   2.727   9.968 -0.4296  1.5301 -0.4977
  149MOL0     H20095   7.145   2.554   9.798 -1.8288  0.8758  0.1175
  149MOL0     H20096   7.131   2.611   9.973  4.5956  0.6269  3.1452
  149MOL0     H20097   8.194   3.062   9.658 -1.6827 -0.7619 -0.7699
  149MOL0     H20098   8.347   3.242   9.614  1.1556 -0.3947 -0.4787
  149MOL0     H20099   8.567   3.641   9.613  0.2482 -1.0754  0.0518
  149MOL0     H20100   8.776   3.765   9.553  1.5734 -0.0636  0.0679
  149MOL0     H20101  10.780   3.650   9.661  0.9016  0.6558  0.5066
  149MOL0     H20102  10.951   3.490   9.688 -1.7242  2.8575  0.4076
  149MOL0     H20103  11.211   3.249   9.481  0.4872  0.0975  0.5109
  149MOL0     H20104  11.451   3.201   9.537  0.8025  0.9207  2.3817
  149MOL0     H20105  11.703   3.028   9.778  1.1863  1.4402  1.6398
  149MOL0     H20106  11.664   3.111   9.627  0.2495  2.5461  0.1473
  149MOL0     H20107  11.509   3.266   9.746  0.9956  0.8881 -0.2020
  149MOL0     H20108  11.676   3.264   9.811  2.5389 -3.7369 -4.0314
  149MOL0     H20109  11.587   3.128  10.010 -1.3621  0.8877  1.5765
  149MOL0     H20110  11.446   3.079   9.926 -2.8935  2.3477 -0.9187
  149MOL0     H20111  11.502   3.363  10.032 -0.6223  1.1788  2.2609
  149MOL0     H20112  11.405   3.240  10.103  1.4327  2.7136  1.0926
  149MOL0     H20113  11.173   3.427   9.786  0.0807  0.0062 -1.0280
  149MOL0     H20114  11.306   2.865   9.773 -0.9993  0.0728  0.2718
  149MOL0     H20115  11.076   2.927   9.712 -1.5776 -0.1697 -1.3979
  150MOL0     O20116   8.628   3.805   0.881 -0.1202  0.1299  0.5313
  150MOL0     C20117   8.663   3.782   0.769  0.4202  0.4180  0.1231
  150MOL0     O20118   8.575   3.765   0.663  0.1252  0.3741  0.0853
  150MOL0     C20119   8.436   3.788   0.675  0.0997  1.1064  0.1036
  150MOL0     C20120   8.356   3.730   0.581 -0.0169 -0.1698 -0.6950
  150MOL0     C20121   8.216   3.722   0.592 -0.3987 -0.0996 -1.3948
  150MOL0     C20122   8.151   3.792   0.697  0.3068 -0.6087 -0.4992
  150MOL0     O20123   8.011   3.800   0.715 -0.2511 -0.6752  0.7739
  150MOL0     C20124   7.952   3.756   0.838  1.1510 -0.5428  0.2107
  150MOL0     C20125   7.840   3.855   0.873 -0.3431 -0.4738  0.4509
  150MOL0     C20126   7.765   3.834   1.002 -1.6839  1.1791  1.3735
  150MOL0     C20127   7.668   3.955   1.023 -0.2201  0.0081 -0.7845
  150MOL0     C20128   7.586   3.924   1.150  1.1550 -0.1664  0.0929
  150MOL0     C20129   7.480   3.815   1.129  0.5201  0.4629 -0.0763
  150MOL0     C20130   7.373   3.828   1.241 -0.5657 -0.2522 -0.1997
  150MOL0     C20131   7.249   3.745   1.206 -0.1476 -0.5390  0.2063
  150MOL0     N20132   7.131   3.772   1.288 -0.8866  0.5267 -0.1225
  150MOL0     C20133   7.117   3.723   1.411  0.4130 -0.0746  0.1560
  150MOL0     C20134   6.982   3.747   1.434 -0.3098  0.7993  0.6982
  150MOL0     C20135   6.924   3.689   1.558 -0.0759 -0.8421  0.3741
  150MOL0     C20136   6.877   3.550   1.535 -0.2029 -0.1479 -0.6070
  150MOL0     C20137   6.750   3.532   1.453 -0.6937 -0.0159 -0.2673
  150MOL0     C20138   6.761   3.516   1.301 -0.0610  0.5330  0.3559
  150MOL0     O20139   6.850   3.409   1.274  0.1999  0.1306  0.2543
  150MOL0     C20140   6.935   3.430   1.171  0.2516  0.0813 -0.5904
  150MOL0     C20141   6.906   3.501   1.055 -0.2330 -0.4466 -0.2370
  150MOL0     C20142   7.002   3.517   0.953  0.2796 -0.0448 -0.0179
  150MOL0     C20143   6.958   3.588   0.829  0.1514 -0.0416  0.3325
  150MOL0     C20144   7.131   3.465   0.968  0.6348 -0.7216  0.5857
  150MOL0     C20145   7.239   3.478   0.877  0.6000  0.0269  0.6513
  150MOL0     O20146   7.362   3.508   0.938  0.6973 -0.5283  0.0271
  150MOL0     C20147   7.458   3.538   0.846 -0.3030  0.0246 -0.0661
  150MOL0     C20148   7.551   3.441   0.817  0.0512 -0.8045  0.1429
  150MOL0     C20149   7.657   3.474   0.731 -0.1834 -0.0812  0.1942
  150MOL0     C20150   7.656   3.604   0.671  0.2018  0.3094 -0.1270
  150MOL0     O20151   7.737   3.646   0.571 -0.5063 -0.5224  0.2777
  150MOL0     C20152   7.816   3.546   0.504 -0.3665 -0.3181  0.6444
  150MOL0     C20153   7.890   3.595   0.380  0.1927  0.3871 -0.0057
  150MOL0     C20154   8.008   3.503   0.343 -0.2721  0.5014 -0.7462
  150MOL0     C20155   7.950   3.371   0.282 -0.6380  0.1081  0.5324
  150MOL0     C20156   8.074   3.298   0.221  0.8567  0.1243 -0.3143
  150MOL0     C20157   8.192   3.260   0.317  0.1606 -0.5708  0.1578
  150MOL0     C20158   8.312   3.203   0.227  0.9712 -0.3775  0.3667
  150MOL0     C20159   8.427   3.202   0.315  0.5802  0.0985 -0.4097
  150MOL0    Cl20160   8.511   3.355   0.293 -0.2282 -0.0915 -0.5343
  150MOL0     C20161   7.555   3.691   0.699  0.4535  0.2538  0.0228
  150MOL0     C20162   7.461   3.664   0.791  0.3106  0.6455 -0.2485
  150MOL0     O20163   7.214   3.443   0.762 -0.1453  0.0812  0.2946
  150MOL0     C20164   7.154   3.396   1.092 -0.2147  0.3918 -0.0467
  150MOL0     C20165   7.063   3.377   1.191 -0.1872  0.3883 -0.8228
  150MOL0     N20166   6.935   3.834   1.339  0.2237  0.4042 -0.4860
  150MOL0     N20167   7.024   3.854   1.247 -0.2725 -0.0805  0.4840
  150MOL0     C20168   8.228   3.870   0.791  0.5327 -0.2503 -0.4750
  150MOL0     C20169   8.375   3.878   0.771  0.0194  1.4785  0.5558
  150MOL0     C20170   8.805   3.754   0.745  0.7590 -0.0771  0.2114
  150MOL0     C20171   8.904   3.809   0.836  0.2119 -1.0109 -0.4175
  150MOL0     C20172   9.043   3.789   0.811 -0.4931  0.1209  0.0891
  150MOL0     C20173   9.086   3.718   0.693 -0.5703  0.7498  0.4579
  150MOL0     O20174   9.214   3.683   0.656 -0.1536 -1.4842  0.2080
  150MOL0     C20175   9.322   3.713   0.746  0.2272  0.5391  0.0909
  150MOL0     C20176   9.381   3.847   0.711 -0.0681 -0.0148  0.0623
  150MOL0     C20177   9.486   3.843   0.595  0.6363 -0.5292 -0.2794
  150MOL0     C20178   9.624   3.894   0.651  0.9818  0.6418 -0.3247
  150MOL0     C20179   9.733   3.893   0.555 -0.0452 -0.7840 -0.2855
  150MOL0     C20180   9.807   3.872   0.467 -0.2352 -0.5364 -0.3268
  150MOL0     C20181   8.987   3.666   0.605  0.5446 -0.6768  0.1315
  150MOL0     C20182   8.849   3.684   0.633 -1.1168 -0.1470 -0.0788
  150MOL0     H20183   8.394   3.672   0.497 -0.9116 -0.8493 -0.6428
  150MOL0     H20184   8.150   3.669   0.523  0.1288  0.6483 -2.5173
  150MOL0     H20185   7.922   3.651   0.825 -0.5904 -0.0703  0.1263
  150MOL0     H20186   8.013   3.765   0.927 -0.5549  0.8832  1.3081
  150MOL0     H20187   7.886   3.954   0.877  0.6783 -0.9188  0.0776
  150MOL0     H20188   7.767   3.844   0.792 -1.4791 -0.7603  1.4792
  150MOL0     H20189   7.711   3.740   0.985 -0.1736  0.9185 -3.1341
  150MOL0     H20190   7.835   3.822   1.086  0.4810  2.1458 -0.1840
  150MOL0     H20191   7.725   4.047   1.040 -0.1081 -0.5712  2.7607
  150MOL0     H20192   7.606   3.976   0.936  1.3296  2.4639 -1.3966
  150MOL0     H20193   7.649   3.881   1.228  1.5093  2.2329  1.2358
  150MOL0     H20194   7.542   4.017   1.187  0.1012  0.1557 -1.8336
  150MOL0     H20195   7.436   3.832   1.030 -0.6545 -0.7663  0.2160
  150MOL0     H20196   7.522   3.714   1.125 -0.1199  0.1188  1.3280
  150MOL0     H20197   7.422   3.791   1.331  0.5689 -0.9863 -1.0847
  150MOL0     H20198   7.348   3.933   1.258  1.0416  0.4706 -1.8558
  150MOL0     H20199   7.264   3.637   1.203 -0.9031 -0.6310 -0.3868
  150MOL0     H20200   7.222   3.786   1.108  1.5878  1.1939  0.3692
  150MOL0     H20201   7.187   3.663   1.468 -0.3638 -1.1820 -0.0207
  150MOL0     H20202   7.008   3.693   1.628  1.2486  0.8342 -1.1770
  150MOL0     H20203   6.838   3.740   1.600  0.7409 -1.0339  2.3766
  150MOL0     H20204   6.849   3.518   1.636 -0.3537  1.0333 -0.2473
  150MOL0     H20205   6.957   3.482   1.506  0.9928  0.1722  1.7292
  150MOL0     H20206   6.679   3.613   1.472 -0.2140  0.2638  0.3512
  150MOL0     H20207   6.711   3.438   1.492  0.7896 -0.2853  0.6570
  150MOL0     H20208   6.784   3.617   1.265 -1.6501  1.6099  2.1246
  150MOL0     H20209   6.662   3.498   1.258  0.3353 -0.8360 -0.0028
  150MOL0     H20210   6.812   3.554   1.045  0.1255  0.2578  0.0443
  150MOL0     H20211   7.037   3.656   0.797 -0.4648  0.4327 -0.2097
  150MOL0     H20212   6.944   3.524   0.742 -0.5759  1.5800 -0.7984
  150MOL0     H20213   6.862   3.641   0.838 -1.1189 -1.5655 -2.8035
  150MOL0     H20214   7.554   3.339   0.854  1.0450 -0.9148 -0.2227
  150MOL0     H20215   7.736   3.401   0.722 -0.8200 -1.1978  2.6926
  150MOL0     H20216   7.876   3.499   0.583  0.5751  0.6019  0.4865
  150MOL0     H20217   7.743   3.472   0.468  1.0987 -0.7387 -1.6873
  150MOL0     H20218   7.825   3.599   0.292 -0.7466 -1.4994  0.5571
  150MOL0     H20219   7.937   3.693   0.392  2.4938 -0.5440 -0.9248
  150MOL0     H20220   8.073   3.488   0.430 -2.2950  3.2361  1.4313
  150MOL0     H20221   8.074   3.557   0.275  1.0117  2.2921  1.7344
  150MOL0     H20222   7.913   3.302   0.358  0.1061 -2.2535 -1.1242
  150MOL0     H20223   7.878   3.380   0.200 -1.5109  0.0692  1.2926
  150MOL0     H20224   8.120   3.356   0.141  1.4189  0.1656  0.0369
  150MOL0     H20225   8.030   3.206   0.180  0.9389 -1.2455  2.4600
  150MOL0     H20226   8.217   3.349   0.376  0.3637  1.7340 -3.1421
  150MOL0     H20227   8.156   3.182   0.385 -0.2147 -2.3781 -1.9765
  150MOL0     H20228   8.324   3.277   0.146 -0.0155 -0.1212  0.4380
  150MOL0     H20229   8.294   3.101   0.191  0.8673 -0.3518  0.3451
  150MOL0     H20230   8.493   3.119   0.288  2.0342  0.8882  0.5551
  150MOL0     H20231   8.411   3.195   0.423  0.4000  2.6970 -0.2184
  150MOL0     H20232   7.542   3.784   0.646 -1.2907 -1.1314 -2.1897
  150MOL0     H20233   7.386   3.738   0.815 -0.7120 -0.0833 -1.1059
  150MOL0     H20234   7.259   3.377   1.111  0.5448  3.6450 -0.4104
  150MOL0     H20235   7.098   3.329   1.282 -2.2682 -0.8108 -0.5814
  150MOL0     H20236   8.180   3.918   0.876 -0.9666 -0.0093 -1.4286
  150MOL0     H20237   8.433   3.926   0.849  1.4240  2.1311 -0.8577
  150MOL0     H20238   8.877   3.886   0.908 -0.6275  0.4208 -2.1946
  150MOL0     H20239   9.112   3.841   0.876 -0.9279  1.5291 -0.5455
  150MOL0     H20240   9.297   3.712   0.853 -1.0636  4.8629  0.0378
  150MOL0     H20241   9.391   3.628   0.754 -2.3972 -1.5580  4.2037
  150MOL0     H20242   9.424   3.898   0.798 -0.5663  1.7224 -0.6490
  150MOL0     H20243   9.310   3.925   0.681  1.3358  1.3873  0.2328
  150MOL0     H20244   9.448   3.913   0.521 -1.2904 -1.1069  0.1049
  150MOL0     H20245   9.495   3.742   0.553  0.0416 -0.5221 -0.4250
  150MOL0     H20246   9.649   3.834   0.739 -1.2754 -0.0763 -0.1047
  150MOL0     H20247   9.609   3.993   0.694 -0.6328  0.0388  0.5765
  150MOL0     H20248   9.877   3.840   0.393 -1.5550 -0.8095 -1.5138
  150MOL0     H20249   9.005   3.606   0.516 -1.2324  2.1078 -2.3104
  150MOL0     H20250   8.780   3.644   0.559 -1.7852 -2.1092  1.5088
  151MOL0     O20251   4.449   5.425   2.498 -0.1700 -0.2538  0.7657
  151MOL0     C20252   4.409   5.315   2.523 -0.1125 -0.4491 -0.4126
  151MOL0     O20253   4.276   5.277   2.532 -0.0552 -0.9403  0.0260
  151MOL0     C20254   4.179   5.361   2.474 -0.2689  0.1258 -0.0589
  151MOL0     C20255   4.193   5.435   2.352 -0.7096  0.0989  0.2988
  151MOL0     C20256   4.095   5.522   2.311  0.7898  0.6416  1.0953
  151MOL0     C20257   3.972   5.524   2.382  0.3733 -0.6334  0.1780
  151MOL0     O20258   3.867   5.609   2.360 -0.1012  0.6124 -0.4226
  151MOL0     C20259   3.881   5.717   2.268 -0.2082  1.0381  0.7389
  151MOL0     C20260   3.762   5.816   2.291 -0.3111  0.4532  0.2758
  151MOL0     C20261   3.790   5.946   2.366 -0.2809 -0.0790 -0.7428
  151MOL0     C20262   3.667   6.040   2.370 -0.2059  0.1079  0.7129
  151MOL0     C20263   3.653   6.143   2.255 -0.1397  0.8054 -0.8461
  151MOL0     C20264   3.530   6.231   2.289  0.4132 -0.3331 -0.5027
  151MOL0     C20265   3.407   6.154   2.239  0.3852  1.5770 -0.2260
  151MOL0     C20266   3.288   6.249   2.268  0.2202  0.8912 -0.1744
  151MOL0     N20267   3.158   6.210   2.227 -0.6831  0.4719  0.2092
  151MOL0     C20268   3.077   6.125   2.299 -0.4665 -0.5296  0.3669
  151MOL0     C20269   2.975   6.101   2.216 -0.1529  0.0488  0.3609
  151MOL0     C20270   2.863   6.010   2.233 -0.3633 -0.0797  0.2901
  151MOL0     C20271   2.747   6.061   2.319 -0.2692 -1.5228  0.0528
  151MOL0     C20272   2.661   6.180   2.263 -0.6761 -0.2310  0.2517
  151MOL0     C20273   2.575   6.133   2.141  0.5941 -0.1128  0.3948
  151MOL0     O20274   2.499   6.009   2.158  0.6730 -0.2495 -0.2738
  151MOL0     C20275   2.379   6.013   2.235 -0.1758  0.4456  0.3220
  151MOL0     C20276   2.309   5.886   2.251 -0.1250 -0.4646  0.0728
  151MOL0     C20277   2.183   5.876   2.312  0.0021  1.0335  0.4279
  151MOL0     C20278   2.125   5.741   2.307 -0.5804 -0.4558 -0.2599
  151MOL0     C20279   2.118   5.988   2.365  0.1471  0.3798  0.1076
  151MOL0     C20280   1.995   5.994   2.432 -0.0357  0.0140 -0.1772
  151MOL0     O20281   1.983   5.896   2.533 -0.3382  0.1942  0.1002
  151MOL0     C20282   1.869   5.912   2.605  0.1898 -0.9317 -0.8656
  151MOL0     C20283   1.742   5.930   2.551 -0.5579  0.8585  0.5761
  151MOL0     C20284   1.623   5.944   2.627  0.0142  0.4920  0.5588
  151MOL0     C20285   1.644   5.936   2.761  0.3165  0.2324  0.1828
  151MOL0     O20286   1.528   5.943   2.834  1.0761  0.0304  0.4442
  151MOL0     C20287   1.526   5.974   2.975 -0.6002  0.8546 -0.6330
  151MOL0     C20288   1.381   5.981   3.032 -0.5295 -0.2707 -0.6203
  151MOL0     C20289   1.335   5.842   3.065 -0.1872 -0.0674  0.2698
  151MOL0     C20290   1.199   5.858   3.116  0.8183 -0.0481  0.4718
  151MOL0     C20291   1.136   5.723   3.160  1.2592  0.1417  0.1460
  151MOL0     C20292   0.986   5.735   3.204 -0.3963  0.1214  0.2678
  151MOL0     C20293   0.926   5.603   3.248  0.1794 -1.0140  0.9094
  151MOL0     C20294   0.777   5.606   3.197 -0.0541  0.2314 -0.2841
  151MOL0    Cl20295   0.682   5.731   3.292  0.1808 -0.3013  0.5062
  151MOL0     C20296   1.769   5.938   2.821 -0.0533  0.4523  0.4501
  151MOL0     C20297   1.887   5.924   2.745  0.0881 -0.7964 -0.0405
  151MOL0     O20298   1.924   6.096   2.421 -0.4609  0.3985 -0.1191
  151MOL0     C20299   2.183   6.111   2.350  0.1058 -0.1481 -0.0627
  151MOL0     C20300   2.309   6.129   2.282  0.3652  0.6503  0.1753
  151MOL0     N20301   2.997   6.167   2.099  0.3714 -0.2268  0.6624
  151MOL0     N20302   3.097   6.244   2.115 -0.8547  0.0896  0.6063
  151MOL0     C20303   3.957   5.445   2.493  0.0782 -0.0748  0.4610
  151MOL0     C20304   4.057   5.371   2.547 -0.7090 -0.2189 -0.6716
  151MOL0     C20305   4.512   5.228   2.589  0.7510  0.7069  0.2068
  151MOL0     C20306   4.641   5.268   2.620  0.0154 -0.0436  0.1823
  151MOL0     C20307   4.734   5.178   2.675 -0.9058 -0.4504  0.0415
  151MOL0     C20308   4.694   5.047   2.710 -0.4212 -0.3014  0.0232
  151MOL0     O20309   4.773   4.963   2.791  0.0734  0.5589  0.8470
  151MOL0     C20310   4.804   5.014   2.920  0.0103 -0.0430  0.0718
  151MOL0     C20311   4.842   4.903   3.018 -0.0561  0.0782  0.0129
  151MOL0     C20312   4.945   4.797   2.952 -0.3602 -0.1855 -0.7230
  151MOL0     C20313   4.986   4.686   3.054  0.1886  0.2923  0.0228
  151MOL0     C20314   5.076   4.739   3.153 -0.4377 -0.2753 -0.2686
  151MOL0     C20315   5.153   4.785   3.232  0.4843  0.0859 -1.0460
  151MOL0     C20316   4.574   5.006   2.662  0.4446 -0.0580  0.0369
  151MOL0     C20317   4.479   5.097   2.613  0.3922 -0.6406 -0.0328
  151MOL0     H20318   4.288   5.417   2.303 -0.9226 -0.7589  0.1907
  151MOL0     H20319   4.114   5.568   2.214 -0.9447 -0.3672  0.2448
  151MOL0     H20320   3.973   5.776   2.270 -0.6969  1.8094  1.5653
  151MOL0     H20321   3.882   5.663   2.173 -1.2475 -0.1144  1.3569
  151MOL0     H20322   3.740   5.840   2.187  1.8687 -0.5548 -0.4965
  151MOL0     H20323   3.677   5.760   2.330 -0.2690 -0.7943 -1.3071
  151MOL0     H20324   3.814   5.919   2.470  0.4594 -1.9816 -1.3681
  151MOL0     H20325   3.870   5.998   2.314  0.3627 -2.3532 -2.2000
  151MOL0     H20326   3.573   5.989   2.393 -0.7602  1.3635  1.3261
  151MOL0     H20327   3.690   6.101   2.458  0.1338 -0.2739  0.8885
  151MOL0     H20328   3.749   6.197   2.250  2.2157 -2.6915  1.7760
  151MOL0     H20329   3.639   6.090   2.161 -1.0224 -1.5415  0.5311
  151MOL0     H20330   3.510   6.250   2.395  0.8838 -0.3441 -0.4119
  151MOL0     H20331   3.541   6.329   2.243 -3.3576  0.6596  0.3242
  151MOL0     H20332   3.408   6.133   2.132  1.3451  1.0386 -0.1238
  151MOL0     H20333   3.409   6.061   2.296  3.7402  2.9124  2.1909
  151MOL0     H20334   3.306   6.342   2.213  0.1669 -1.0010 -3.5950
  151MOL0     H20335   3.283   6.272   2.375 -0.0058 -0.7852  0.2038
  151MOL0     H20336   3.096   6.079   2.396 -1.9154 -2.4433 -0.1663
  151MOL0     H20337   2.831   5.991   2.130  2.9917 -1.0132 -0.6751
  151MOL0     H20338   2.893   5.917   2.281 -1.0703 -0.0656  0.7798
  151MOL0     H20339   2.781   6.099   2.416  0.1591 -0.5678 -0.4595
  151MOL0     H20340   2.679   5.978   2.338 -1.4856 -1.0732 -2.0266
  151MOL0     H20341   2.729   6.263   2.240 -3.0277  1.5352 -0.6371
  151MOL0     H20342   2.593   6.208   2.344 -1.5709 -1.7286  0.0472
  151MOL0     H20343   2.640   6.133   2.052 -1.4122  0.4709 -1.1602
  151MOL0     H20344   2.501   6.209   2.115 -1.3534 -2.1116 -0.1859
  151MOL0     H20345   2.364   5.799   2.216  1.2512  0.1627  0.6305
  151MOL0     H20346   2.158   5.693   2.215  0.6279  0.3289 -0.2682
  151MOL0     H20347   2.145   5.674   2.392  1.8250 -0.2132 -0.5577
  151MOL0     H20348   2.018   5.756   2.296 -0.3310  1.5766 -0.3069
  151MOL0     H20349   1.733   5.943   2.444 -0.6676  0.7342  0.5692
  151MOL0     H20350   1.524   5.953   2.582  0.1575 -0.9647 -0.1005
  151MOL0     H20351   1.580   5.900   3.035 -3.5063 -1.4376 -0.6321
  151MOL0     H20352   1.576   6.070   2.990  0.4167  0.3247 -0.4970
  151MOL0     H20353   1.387   6.047   3.119  3.2497  1.2680 -1.8507
  151MOL0     H20354   1.329   6.026   2.946 -0.1727  0.2170 -0.5816
  151MOL0     H20355   1.410   5.792   3.127  2.0477  1.6672 -0.8538
  151MOL0     H20356   1.331   5.783   2.974  0.9610 -2.2681  1.5705
  151MOL0     H20357   1.206   5.935   3.194  0.2152 -0.2863  0.7644
  151MOL0     H20358   1.131   5.898   3.040  0.0154 -0.4243  0.9808
  151MOL0     H20359   1.185   5.679   3.247  0.8758  0.5822  0.5883
  151MOL0     H20360   1.147   5.655   3.075  1.2148  1.5366 -1.0236
  151MOL0     H20361   0.990   5.805   3.288  5.2705  1.7472 -0.8839
  151MOL0     H20362   0.933   5.783   3.121  0.8594 -0.4839 -0.9294
  151MOL0     H20363   0.933   5.587   3.355 -0.3267 -0.3094  1.0601
  151MOL0     H20364   0.978   5.523   3.195  1.1878 -0.6000  1.2470
  151MOL0     H20365   0.736   5.506   3.215  1.5327 -0.6138 -1.1944
  151MOL0     H20366   0.767   5.619   3.089 -3.9826 -4.6512 -0.9114
  151MOL0     H20367   1.776   5.944   2.929  1.3536  4.1691  0.2875
  151MOL0     H20368   1.986   5.914   2.788 -0.0295 -0.9650  0.1885
  151MOL0     H20369   2.142   6.206   2.384 -0.0230  0.9420 -2.9445
  151MOL0     H20370   2.341   6.232   2.271 -0.6584  0.7609 -2.1694
  151MOL0     H20371   3.865   5.445   2.551  0.4238  0.8618  1.0360
  151MOL0     H20372   4.042   5.311   2.636 -1.1367  0.2311 -0.4335
  151MOL0     H20373   4.664   5.373   2.603  3.0278 -0.3976  1.2775
  151MOL0     H20374   4.838   5.211   2.675 -1.0308  0.1648 -2.8373
  151MOL0     H20375   4.891   5.080   2.913 -1.3621  1.7118 -1.6936
  151MOL0     H20376   4.720   5.076   2.952 -0.8684 -0.1555 -1.8476
  151MOL0     H20377   4.756   4.851   3.061  0.3832  1.2903  2.5369
  151MOL0     H20378   4.899   4.949   3.099  3.5612 -1.0944 -1.6444
  151MOL0     H20379   5.019   4.855   2.895 -1.1357  1.5026 -0.0948
  151MOL0     H20380   4.887   4.751   2.871 -3.1704  2.9966 -0.7305
  151MOL0     H20381   5.014   4.596   2.998  1.9841  1.1326 -0.5057
  151MOL0     H20382   4.891   4.661   3.102  1.1193  1.5088  2.6559
  151MOL0     H20383   5.229   4.818   3.301 -1.9509 -2.9011  3.5586
  151MOL0     H20384   4.562   4.899   2.650  0.4236  0.0055 -0.5514
  151MOL0     H20385   4.381   5.065   2.577  0.6576 -2.8112  1.0087
  152MOL0     O20386   4.779   6.163   8.982  0.0920 -0.9663  0.4239
  152MOL0     C20387   4.857   6.163   9.076  0.4820 -0.7370 -0.3183
  152MOL0     O20388   4.845   6.239   9.189  0.1281 -0.4252 -0.6886
  152MOL0     C20389   4.736   6.318   9.224 -0.4548  0.3530 -0.6356
  152MOL0     C20390   4.771   6.393   9.331  0.4971 -0.0682 -0.9900
  152MOL0     C20391   4.673   6.476   9.399  0.1970  0.6469  0.4935
  152MOL0     C20392   4.542   6.496   9.345 -0.0385  0.3692  0.7183
  152MOL0     O20393   4.445   6.586   9.379  0.3024  0.3544 -0.1097
  152MOL0     C20394   4.473   6.666   9.495 -0.2766  0.5493 -0.0651
  152MOL0     C20395   4.351   6.761   9.507 -0.1066 -0.1434 -0.3350
  152MOL0     C20396   4.210   6.695   9.508  0.8317  0.4440 -0.1454
  152MOL0     C20397   4.131   6.735   9.624  0.8171 -0.8221  1.1172
  152MOL0     C20398   3.989   6.686   9.591  0.0064  0.3811 -0.2308
  152MOL0     C20399   3.884   6.709   9.697 -0.0216  0.5184 -0.3126
  152MOL0     C20400   3.747   6.672   9.635  0.0482  0.1126 -0.0544
  152MOL0     C20401   3.628   6.691   9.742 -0.1169 -0.3222  0.3032
  152MOL0     N20402   3.512   6.594   9.728 -0.3539  0.1055  0.7428
  152MOL0     C20403   3.412   6.563   9.817  0.4085 -0.2530  1.2169
  152MOL0     C20404   3.309   6.498   9.744 -0.2525  0.0439  0.6733
  152MOL0     C20405   3.182   6.433   9.797  0.0336  0.5640 -0.3479
  152MOL0     C20406   3.056   6.464   9.713 -1.4846  0.3556 -0.2790
  152MOL0     C20407   2.940   6.373   9.761 -0.1175  0.4604 -0.8828
  152MOL0     C20408   2.817   6.396   9.684 -0.5011  0.4144  0.3872
  152MOL0     O20409   2.708   6.315   9.744 -0.1846  0.2915  0.1349
  152MOL0     C20410   2.625   6.357   9.842  0.6130 -0.0948  0.2560
  152MOL0     C20411   2.631   6.477   9.912  0.7615  0.1048 -0.3752
  152MOL0     C20412   2.549   6.511  10.022 -0.7993 -0.3535  0.8664
  152MOL0     C20413   2.579   6.643  10.077  0.3604 -0.0070 -0.3624
  152MOL0     C20414   2.445   6.425  10.060 -0.1200  0.7406  0.9975
  152MOL0     C20415   2.333   6.461  10.157  0.1697  0.5180 -0.3464
  152MOL0     O20416   2.236   6.366  10.179 -0.0232 -0.4611 -0.0173
  152MOL0     C20417   2.131   6.389  10.261  0.3036  0.3449  0.3912
  152MOL0     C20418   2.146   6.357  10.393  0.2802  0.7598  0.3212
  152MOL0     C20419   2.047   6.389  10.487 -0.4327 -0.1746 -0.7331
  152MOL0     C20420   1.935   6.463  10.455  0.6772  0.0682  0.5452
  152MOL0     O20421   1.855   6.507  10.557  0.4213 -0.0938  0.5604
  152MOL0     C20422   1.746   6.588  10.518  0.2678 -0.2888  0.0279
  152MOL0     C20423   1.659   6.629  10.640 -0.3827 -0.6715  0.3816
  152MOL0     C20424   1.528   6.694  10.595  0.5244 -0.6336  0.6027
  152MOL0     C20425   1.451   6.778  10.703 -0.5316  0.0768  0.4700
  152MOL0     C20426   1.394   6.676  10.801  0.4958 -0.2166  0.2370
  152MOL0     C20427   1.346   6.740  10.933  0.0514  0.2849 -0.3234
  152MOL0     C20428   1.222   6.833  10.927 -0.0795  0.1609 -0.1563
  152MOL0     C20429   1.180   6.874  11.066  1.1904 -0.2451 -0.6377
  152MOL0    Cl20430   1.039   6.989  11.050 -0.1998 -0.6107  0.1180
  152MOL0     C20431   1.917   6.487  10.314  0.7894  0.0742  0.4667
  152MOL0     C20432   2.017   6.459  10.217  0.2443 -0.0726 -0.5292
  152MOL0     O20433   2.341   6.572  10.213 -0.6514  0.2521 -0.3249
  152MOL0     C20434   2.435   6.296   9.987  1.2344  1.1200  0.5795
  152MOL0     C20435   2.523   6.268   9.874 -0.1798 -0.0245 -0.5908
  152MOL0     N20436   3.356   6.495   9.614 -0.2422 -0.1267 -0.4494
  152MOL0     N20437   3.472   6.551   9.601 -0.2639  0.3190 -0.1597
  152MOL0     C20438   4.512   6.405   9.237 -0.3490  0.3908 -0.8165
  152MOL0     C20439   4.606   6.316   9.182  1.2317 -0.5272 -0.5384
  152MOL0     C20440   4.985   6.096   9.054 -0.0983 -0.5613 -0.7970
  152MOL0     C20441   5.096   6.164   9.103 -0.9298 -0.8395 -0.4711
  152MOL0     C20442   5.218   6.104   9.084 -0.1400  0.6619 -0.1639
  152MOL0     C20443   5.233   5.985   9.011 -0.5938 -0.8612 -0.0749
  152MOL0     O20444   5.360   5.935   8.970  0.5201  0.3653  0.1611
  152MOL0     C20445   5.477   5.993   9.034 -0.0244  0.2442  0.2105
  152MOL0     C20446   5.599   5.943   8.949 -0.1246  0.2749  0.1494
  152MOL0     C20447   5.724   6.029   8.988  0.1626 -0.2965  0.1483
  152MOL0     C20448   5.863   5.990   8.914  0.4221  0.5753 -0.3068
  152MOL0     C20449   5.850   6.012   8.770  0.5221 -0.5314  0.2769
  152MOL0     C20450   5.813   6.042   8.662 -0.0711  0.1567  0.8129
  152MOL0     C20451   5.122   5.928   8.957 -0.5945  0.5372 -0.6459
  152MOL0     C20452   4.997   5.978   8.976 -0.1940 -0.0239 -0.4583
  152MOL0     H20453   4.871   6.379   9.370 -0.7455  0.3358  2.6732
  152MOL0     H20454   4.703   6.529   9.489  0.7904  0.0208  0.6713
  152MOL0     H20455   4.472   6.591   9.575 -0.6185 -0.6276 -1.1358
  152MOL0     H20456   4.570   6.716   9.485  0.1544 -0.3985 -0.7884
  152MOL0     H20457   4.349   6.821   9.599  0.4450 -1.6266  0.6802
  152MOL0     H20458   4.354   6.837   9.428  1.6501  0.3389  0.1429
  152MOL0     H20459   4.162   6.733   9.418 -2.5556  1.9995  2.1084
  152MOL0     H20460   4.226   6.587   9.510  1.0753  0.4560 -1.1499
  152MOL0     H20461   4.160   6.688   9.718  2.0457 -2.1877  0.1084
  152MOL0     H20462   4.126   6.843   9.634  1.9655 -0.6107 -0.1872
  152MOL0     H20463   3.962   6.734   9.496  0.3852  0.7679 -0.1461
  152MOL0     H20464   3.991   6.578   9.573 -0.2162  0.3021  0.1929
  152MOL0     H20465   3.912   6.643   9.780 -1.3448  2.1454  1.5061
  152MOL0     H20466   3.888   6.815   9.723  0.6701  0.3701  0.2128
  152MOL0     H20467   3.717   6.723   9.543  0.4828 -1.1561 -0.9381
  152MOL0     H20468   3.761   6.568   9.602  2.5283  0.1998  0.5284
  152MOL0     H20469   3.593   6.793   9.727  3.4906  0.8912 -0.8956
  152MOL0     H20470   3.670   6.671   9.841  1.0448 -1.0718 -0.3089
  152MOL0     H20471   3.422   6.568   9.925  5.7426  0.6609  0.9021
  152MOL0     H20472   3.206   6.326   9.798  1.1060  0.7788  1.4476
  152MOL0     H20473   3.167   6.476   9.897  0.2919 -0.6235  0.2243
  152MOL0     H20474   3.078   6.439   9.609 -1.9341 -1.5054  0.0263
  152MOL0     H20475   3.024   6.566   9.735 -0.5989  0.4359  0.7598
  152MOL0     H20476   2.925   6.393   9.868  0.6705 -1.0908 -0.4523
  152MOL0     H20477   2.972   6.271   9.742  0.4315  0.9212 -2.6266
  152MOL0     H20478   2.831   6.363   9.581  0.3872  0.0190  0.6177
  152MOL0     H20479   2.801   6.504   9.679  1.1345  0.6422 -0.5493
  152MOL0     H20480   2.719   6.536   9.891  1.3337 -0.3513  0.6717
  152MOL0     H20481   2.679   6.676  10.045  0.6125  0.3116  0.7040
  152MOL0     H20482   2.502   6.719  10.064  0.9736  0.6752 -0.0827
  152MOL0     H20483   2.581   6.638  10.186  0.6571 -0.9269 -0.3990
  152MOL0     H20484   2.230   6.293  10.417 -1.7346 -2.2598 -0.1216
  152MOL0     H20485   2.050   6.354  10.590 -2.9786  0.3122 -0.4076
  152MOL0     H20486   1.776   6.673  10.456 -1.6909 -0.5835 -1.3928
  152MOL0     H20487   1.689   6.522  10.453 -0.7004  0.8669 -0.3185
  152MOL0     H20488   1.637   6.533  10.687  0.5509 -0.9395  0.3048
  152MOL0     H20489   1.722   6.694  10.701  1.2610 -0.2016 -1.6966
  152MOL0     H20490   1.451   6.630  10.550  0.1304  1.9247 -2.7678
  152MOL0     H20491   1.544   6.760  10.509 -3.8849  0.5586  0.4668
  152MOL0     H20492   1.517   6.842  10.762 -2.1210  1.0466  1.2833
  152MOL0     H20493   1.374   6.837  10.652 -0.1050  0.6723  0.5003
  152MOL0     H20494   1.466   6.600  10.832  0.0310 -0.9994 -0.5713
  152MOL0     H20495   1.304   6.631  10.759 -0.5676  0.7128  1.4156
  152MOL0     H20496   1.309   6.656  10.994 -1.1951  1.1948  0.2312
  152MOL0     H20497   1.430   6.791  10.980  0.5135 -1.5140  0.9100
  152MOL0     H20498   1.144   6.780  10.873 -0.5729  1.7560 -1.0568
  152MOL0     H20499   1.250   6.928  10.881 -0.2154 -0.1040 -0.7916
  152MOL0     H20500   1.248   6.936  11.125  0.1161 -1.3442  1.8515
  152MOL0     H20501   1.148   6.788  11.124  3.5542 -0.6094  0.2491
  152MOL0     H20502   1.843   6.553  10.270  2.5714  1.3417 -0.7789
  152MOL0     H20503   2.001   6.490  10.114  3.5106 -1.0329 -1.4402
  152MOL0     H20504   2.358   6.223  10.011  2.3129 -0.4602 -0.5044
  152MOL0     H20505   2.516   6.176   9.817 -1.5607 -1.6966  2.0703
  152MOL0     H20506   4.411   6.417   9.198 -1.3446  0.1967  1.5513
  152MOL0     H20507   4.581   6.260   9.092  3.2746 -0.6433 -1.0847
  152MOL0     H20508   5.096   6.266   9.140 -0.2504 -0.7857 -0.6194
  152MOL0     H20509   5.303   6.159   9.123  1.2573 -2.8236  2.2281
  152MOL0     H20510   5.476   6.102   9.026  2.3255  0.3265  0.1982
  152MOL0     H20511   5.499   5.950   9.132 -0.2073 -1.6287 -0.5162
  152MOL0     H20512   5.581   5.947   8.841  0.3864  1.9677  0.0998
  152MOL0     H20513   5.612   5.836   8.967  0.1329  0.6328  2.4168
  152MOL0     H20514   5.736   6.039   9.096 -4.0360  0.1137  0.7132
  152MOL0     H20515   5.700   6.130   8.953  0.2050 -1.1083 -2.4718
  152MOL0     H20516   5.878   5.884   8.941  1.8426  0.5953 -0.9197
  152MOL0     H20517   5.951   6.042   8.951  1.2920 -0.5201 -0.7611
  152MOL0     H20518   5.776   6.076   8.567  1.3338 -0.4673  0.0214
  152MOL0     H20519   5.137   5.848   8.886 -3.1852 -0.2444 -0.4213
  152MOL0     H20520   4.918   5.927   8.921 -1.1188  1.4875 -0.5670
  153MOL0     O20521   0.739   5.620   0.445 -0.0857 -0.3733 -0.2271
  153MOL0     C20522   0.757   5.643   0.321  0.1773  0.6767 -0.7023
  153MOL0     O20523   0.872   5.690   0.259 -0.3289  0.0163 -0.0105
  153MOL0     C20524   0.983   5.686   0.339  1.0438 -0.1531  0.3752
  153MOL0     C20525   1.086   5.624   0.280  0.1491 -0.1658  0.3143
  153MOL0     C20526   1.210   5.598   0.342  0.2444 -0.0484  0.4811
  153MOL0     C20527   1.234   5.644   0.469 -0.1531  0.1556 -0.9901
  153MOL0     O20528   1.355   5.646   0.542  0.0018 -0.1406 -0.9770
  153MOL0     C20529   1.482   5.643   0.462  0.7658 -0.1553  0.6356
  153MOL0     C20530   1.599   5.696   0.535 -0.5044 -0.5686  0.3275
  153MOL0     C20531   1.601   5.847   0.561 -0.2789  0.0610  0.7106
  153MOL0     C20532   1.724   5.898   0.642 -0.2290 -1.0043  0.3532
  153MOL0     C20533   1.683   5.890   0.793 -1.0236  0.0145  0.3258
  153MOL0     C20534   1.810   5.932   0.873 -0.8575  0.0327 -1.0196
  153MOL0     C20535   1.764   5.963   1.020  0.0496  0.8835  0.1696
  153MOL0     C20536   1.664   6.077   1.035 -0.6363  0.4961  0.0721
  153MOL0     N20537   1.630   6.098   1.172 -0.4967  1.1434 -0.6532
  153MOL0     C20538   1.547   6.009   1.243 -0.1512 -0.0653  0.1733
  153MOL0     C20539   1.515   6.071   1.365  0.6613  0.1299 -0.1446
  153MOL0     C20540   1.420   6.031   1.474  0.0624 -0.2329 -0.0002
  153MOL0     C20541   1.420   5.881   1.489 -0.8134 -0.5184  0.4949
  153MOL0     C20542   1.339   5.835   1.615 -0.7843 -0.0090  0.2246
  153MOL0     C20543   1.182   5.818   1.590  0.8787  0.1060  0.7192
  153MOL0     O20544   1.164   5.721   1.490  0.7482  0.8176 -0.0422
  153MOL0     C20545   1.041   5.658   1.476 -0.4298 -0.5467  0.3293
  153MOL0     C20546   0.926   5.730   1.484  0.1821 -0.9305  0.3158
  153MOL0     C20547   0.796   5.672   1.461  0.0074 -0.2445 -0.3251
  153MOL0     C20548   0.679   5.759   1.469 -0.1551  0.1088  0.8338
  153MOL0     C20549   0.791   5.528   1.433  0.1130 -0.4707  0.0411
  153MOL0     C20550   0.663   5.443   1.418 -0.3203 -0.5539 -0.9032
  153MOL0     O20551   0.565   5.507   1.357  0.4938 -1.4436 -0.0566
  153MOL0     C20552   0.444   5.443   1.322 -0.7327 -0.3879 -0.2159
  153MOL0     C20553   0.394   5.313   1.335 -0.1406 -0.7522 -1.1000
  153MOL0     C20554   0.261   5.279   1.305 -0.5465  1.4348 -0.7776
  153MOL0     C20555   0.169   5.368   1.260 -0.4710  0.4460 -0.3592
  153MOL0     O20556   0.035   5.330   1.228 -0.1273  0.0988 -0.1088
  153MOL0     C20557  -0.040   5.413   1.134 -0.0901 -0.1148 -0.0656
  153MOL0     C20558  -0.179   5.345   1.117 -0.9123 -0.6800 -0.4903
  153MOL0     C20559  -0.288   5.382   1.229 -0.5186  0.6053 -0.8400
  153MOL0     C20560  -0.421   5.302   1.219  0.2633  0.1031 -0.1607
  153MOL0     C20561  -0.511   5.335   1.341 -0.5638  0.4848  0.6433
  153MOL0     C20562  -0.654   5.277   1.335  0.0698 -0.2976 -0.4392
  153MOL0     C20563  -0.725   5.309   1.196  0.8807  0.0920 -0.2407
  153MOL0     C20564  -0.875   5.278   1.201  0.4945  0.0690 -0.6034
  153MOL0    Cl20565  -0.938   5.115   1.261  0.4001  0.0096  0.0296
  153MOL0     C20566   0.217   5.491   1.244  0.0519 -0.1660 -0.7448
  153MOL0     C20567   0.350   5.536   1.269  0.3021  0.1277  0.6284
  153MOL0     O20568   0.655   5.336   1.478 -0.2397 -0.0725  0.1466
  153MOL0     C20569   0.912   5.462   1.416  0.1930  0.7947  0.1874
  153MOL0     C20570   1.035   5.530   1.430  0.7348  0.3985 -0.7101
  153MOL0     N20571   1.577   6.197   1.357  0.2447  0.1594  0.1385
  153MOL0     N20572   1.645   6.214   1.246  0.3981  0.5457 -0.2192
  153MOL0     C20573   1.125   5.703   0.536 -0.0218  0.1299  0.2925
  153MOL0     C20574   0.997   5.727   0.474  0.3129  0.3399  0.4440
  153MOL0     C20575   0.631   5.635   0.241 -0.8340  0.5256  0.4326
  153MOL0     C20576   0.520   5.585   0.298 -0.0897 -0.6019  0.0249
  153MOL0     C20577   0.399   5.572   0.220 -0.4594 -0.1413  0.2256
  153MOL0     C20578   0.396   5.614   0.090 -0.6928  0.7443 -0.1357
  153MOL0     O20579   0.273   5.610   0.036  0.2622 -0.2117 -0.0790
  153MOL0     C20580   0.243   5.675  -0.090  0.1453  0.4961 -0.2105
  153MOL0     C20581   0.210   5.822  -0.078 -0.6390 -0.3771 -1.0938
  153MOL0     C20582   0.085   5.830   0.023  0.6237 -0.0578 -0.7851
  153MOL0     C20583   0.064   5.965   0.078 -0.0685  0.1425 -0.4385
  153MOL0     C20584   0.038   6.065  -0.021  0.0081 -0.6821  0.4761
  153MOL0     C20585   0.038   6.140  -0.112 -0.5507 -0.5193 -0.4195
  153MOL0     C20586   0.507   5.670   0.023 -0.7321  0.0917 -1.3216
  153MOL0     C20587   0.620   5.679   0.108 -0.1834 -0.5977  0.1194
  153MOL0     H20588   1.079   5.602   0.174  1.6899  2.8134 -0.5272
  153MOL0     H20589   1.282   5.538   0.289  0.6018 -0.9191  1.8898
  153MOL0     H20590   1.479   5.540   0.426  0.2072 -0.3186  1.1284
  153MOL0     H20591   1.481   5.713   0.378  0.1752 -1.5652 -0.5728
  153MOL0     H20592   1.611   5.636   0.626 -0.0943 -0.8794  0.0729
  153MOL0     H20593   1.687   5.680   0.473 -0.5440 -1.2080  0.4201
  153MOL0     H20594   1.601   5.899   0.465  0.3311 -1.5379 -0.1841
  153MOL0     H20595   1.512   5.877   0.618  0.9073  2.0727  1.6344
  153MOL0     H20596   1.809   5.831   0.623 -0.7278 -1.5373 -0.0317
  153MOL0     H20597   1.754   6.001   0.623 -0.4298 -1.1456 -0.7446
  153MOL0     H20598   1.596   5.953   0.809 -0.9474  0.2033  0.0081
  153MOL0     H20599   1.662   5.790   0.832 -0.8769  0.6350  2.1072
  153MOL0     H20600   1.893   5.860   0.865 -2.2992 -1.9163  0.4493
  153MOL0     H20601   1.854   6.027   0.841  0.4234  0.8720  2.7298
  153MOL0     H20602   1.722   5.867   1.052  0.1664  1.1962  1.3073
  153MOL0     H20603   1.854   5.989   1.076  0.7333 -2.5389  0.9242
  153MOL0     H20604   1.581   6.057   0.966  0.9575 -1.8450 -1.2986
  153MOL0     H20605   1.722   6.165   1.008 -0.4450  0.1405 -0.6911
  153MOL0     H20606   1.511   5.913   1.208  3.2850 -1.6109  0.4435
  153MOL0     H20607   1.429   6.077   1.573 -1.4517 -0.4916  0.2923
  153MOL0     H20608   1.317   6.057   1.445 -0.6482 -2.4597  0.3519
  153MOL0     H20609   1.526   5.852   1.496 -0.6078 -1.2932 -3.4322
  153MOL0     H20610   1.387   5.824   1.401 -0.3791  0.2390 -0.1800
  153MOL0     H20611   1.338   5.916   1.689 -4.4727  2.4797 -2.1993
  153MOL0     H20612   1.382   5.749   1.667 -1.4168 -0.5131 -0.0641
  153MOL0     H20613   1.136   5.912   1.559 -1.7031 -0.8006  1.5523
  153MOL0     H20614   1.130   5.797   1.684 -0.1969  1.4979  0.4626
  153MOL0     H20615   0.923   5.838   1.483  2.1945 -0.8172 -1.0231
  153MOL0     H20616   0.624   5.765   1.374  3.4005 -1.6274 -1.5856
  153MOL0     H20617   0.616   5.714   1.546 -1.2564  0.9652  0.4642
  153MOL0     H20618   0.711   5.861   1.488  2.3459 -0.5256  0.4252
  153MOL0     H20619   0.464   5.237   1.369  3.0078  1.6880 -1.6042
  153MOL0     H20620   0.219   5.179   1.302 -0.2708  1.3397 -2.3910
  153MOL0     H20621  -0.062   5.509   1.181  0.0501  0.4678 -1.1468
  153MOL0     H20622   0.009   5.427   1.037 -0.6596 -4.2698 -1.1465
  153MOL0     H20623  -0.216   5.381   1.021 -0.4729  0.1652 -0.3541
  153MOL0     H20624  -0.161   5.237   1.114  1.7599 -0.2949 -1.0417
  153MOL0     H20625  -0.311   5.488   1.217  2.2723  1.5469  1.1849
  153MOL0     H20626  -0.239   5.371   1.326  1.1565 -1.2916 -1.8393
  153MOL0     H20627  -0.470   5.341   1.130 -2.7542  2.2995  2.2233
  153MOL0     H20628  -0.406   5.195   1.202  0.8982  0.4873 -2.2687
  153MOL0     H20629  -0.522   5.443   1.341 -0.1756  0.5792 -1.5638
  153MOL0     H20630  -0.448   5.305   1.425  0.9781  1.8149  0.0181
  153MOL0     H20631  -0.649   5.169   1.354 -0.6894 -0.3606 -0.5780
  153MOL0     H20632  -0.718   5.317   1.413  0.7285  3.2641 -1.5487
  153MOL0     H20633  -0.681   5.244   1.119  1.1354  0.8081 -0.7165
  153MOL0     H20634  -0.707   5.410   1.158  1.7794  1.8315  4.1912
  153MOL0     H20635  -0.923   5.284   1.103 -1.5394 -1.7283  0.1993
  153MOL0     H20636  -0.924   5.355   1.262 -1.7833 -1.9716  0.2628
  153MOL0     H20637   0.149   5.565   1.203 -1.2079  0.0959  1.6485
  153MOL0     H20638   0.384   5.638   1.277 -0.0427  0.1913  1.3747
  153MOL0     H20639   0.921   5.358   1.386  0.2844  1.0147 -0.5817
  153MOL0     H20640   1.127   5.479   1.404 -0.0026 -1.1561 -0.4147
  153MOL0     H20641   1.151   5.745   0.632 -1.1738  0.4006  0.5013
  153MOL0     H20642   0.929   5.799   0.517  0.4310 -0.8466  2.7964
  153MOL0     H20643   0.504   5.565   0.404  0.3868 -1.2613 -0.0215
  153MOL0     H20644   0.325   5.527   0.286  0.4812 -1.8710  0.1704
  153MOL0     H20645   0.323   5.649  -0.160 -0.8107 -3.4157 -0.1184
  153MOL0     H20646   0.149   5.632  -0.126 -0.9322  1.5490  1.2255
  153MOL0     H20647   0.175   5.859  -0.175 -1.6869  0.5249 -0.4005
  153MOL0     H20648   0.293   5.882  -0.037 -0.8812 -0.4974 -0.4053
  153MOL0     H20649   0.079   5.746   0.094 -1.0188 -1.1785 -2.1599
  153MOL0     H20650  -0.003   5.816  -0.040 -0.3712 -1.3443  0.7899
  153MOL0     H20651   0.151   5.994   0.137 -0.9749  0.1448  0.9460
  153MOL0     H20652  -0.015   5.972   0.153 -0.2284  0.2519 -0.6173
  153MOL0     H20653   0.035   6.204  -0.198 -1.2504 -3.6965 -2.9259
  153MOL0     H20654   0.510   5.711  -0.077  0.2523 -1.1534 -1.8280
  153MOL0     H20655   0.710   5.723   0.066  0.6228  2.4862  4.4595
  154MOL0     O20656  10.268  10.001   0.318  0.7373  0.2039  0.6216
  154MOL0     C20657  10.203  10.079   0.387 -0.1789 -0.4766 -0.0439
  154MOL0     O20658  10.075  10.084   0.390  0.1291  0.3971 -0.3923
  154MOL0     C20659  10.004   9.978   0.348  0.0125 -0.3806  0.2250
  154MOL0     C20660   9.892  10.010   0.271  0.3747  0.1244  0.5438
  154MOL0     C20661   9.811   9.907   0.219 -0.6170 -0.3654 -1.2718
  154MOL0     C20662   9.836   9.772   0.265 -0.5153  0.1833 -0.0935
  154MOL0     O20663   9.765   9.667   0.218  0.1017  0.3580  0.4111
  154MOL0     C20664   9.654   9.689   0.128  0.0125  0.1653 -0.2470
  154MOL0     C20665   9.622   9.547   0.078  0.6808 -0.2391 -0.0035
  154MOL0     C20666   9.515   9.562  -0.032  0.6864  0.3704  0.0198
  154MOL0     C20667   9.488   9.434  -0.114 -0.4335  0.2404 -0.4121
  154MOL0     C20668   9.369   9.353  -0.070 -0.0762 -0.1137  0.3902
  154MOL0     C20669   9.240   9.413  -0.139 -0.6600  0.4154  0.4288
  154MOL0     C20670   9.123   9.318  -0.131 -0.2508  0.0436 -0.0343
  154MOL0     C20671   9.015   9.354  -0.238 -0.3943  0.0780  0.5633
  154MOL0     N20672   8.945   9.483  -0.214  0.1312 -0.1990  0.4667
  154MOL0     C20673   8.816   9.509  -0.178  0.1209 -0.5241  0.0698
  154MOL0     C20674   8.797   9.642  -0.179 -0.1076 -0.0341  0.1387
  154MOL0     C20675   8.672   9.720  -0.147 -0.1601 -0.3092  0.5091
  154MOL0     C20676   8.574   9.719  -0.269  0.0818  0.5450 -0.2505
  154MOL0     C20677   8.491   9.590  -0.294 -0.2506 -0.9813 -0.5558
  154MOL0     C20678   8.342   9.629  -0.315  1.1017 -0.3448  0.3520
  154MOL0     O20679   8.248   9.522  -0.339 -0.4746  0.4545 -0.3366
  154MOL0     C20680   8.121   9.543  -0.314  0.0771 -0.1113 -0.9637
  154MOL0     C20681   8.052   9.426  -0.303 -0.1177 -0.0205 -0.0297
  154MOL0     C20682   7.911   9.416  -0.278  0.7098  0.3384  1.1676
  154MOL0     C20683   7.844   9.283  -0.270  0.4843  1.3586  0.1574
  154MOL0     C20684   7.842   9.528  -0.248  0.2415 -0.5150  0.0386
  154MOL0     C20685   7.701   9.534  -0.205 -0.3857  0.1756 -0.0752
  154MOL0     O20686   7.674   9.564  -0.078  0.3759 -0.1705  0.3860
  154MOL0     C20687   7.542   9.561  -0.041 -0.2748  0.1236  0.2285
  154MOL0     C20688   7.488   9.674   0.024  0.6355 -0.5748  0.0212
  154MOL0     C20689   7.355   9.680   0.065 -0.3733 -0.1511 -1.2432
  154MOL0     C20690   7.267   9.568   0.031 -0.4665 -0.9309 -0.9161
  154MOL0     O20691   7.132   9.563   0.059  0.2684  0.6708  0.0081
  154MOL0     C20692   7.063   9.660   0.146 -0.3926  0.1845  0.0970
  154MOL0     C20693   7.010   9.771   0.066  0.4812 -0.4203  0.9469
  154MOL0     C20694   6.859   9.750   0.025  0.2439 -0.3618 -0.7871
  154MOL0     C20695   6.806   9.861  -0.064 -0.3670 -0.7311  0.9815
  154MOL0     C20696   6.655   9.863  -0.070 -0.3095 -0.0520  0.2988
  154MOL0     C20697   6.607   9.995  -0.125  0.3080 -0.3154 -0.7114
  154MOL0     C20698   6.634  10.000  -0.274 -0.6841 -0.5533 -0.0933
  154MOL0     C20699   6.510  10.022  -0.346 -0.6150 -0.4290  1.1690
  154MOL0    Cl20700   6.420   9.880  -0.336  0.0464  0.9936  0.0644
  154MOL0     C20701   7.324   9.457  -0.021  0.2460 -0.3518 -0.1995
  154MOL0     C20702   7.461   9.452  -0.060 -0.7273 -1.1478 -0.0920
  154MOL0     O20703   7.620   9.516  -0.297  1.0024 -0.2433  0.3944
  154MOL0     C20704   7.917   9.652  -0.249 -0.1302 -0.4142 -0.7315
  154MOL0     C20705   8.051   9.657  -0.286 -0.6183  1.1802 -0.5533
  154MOL0     N20706   8.927   9.704  -0.211 -0.6545  0.3062 -0.3567
  154MOL0     N20707   9.011   9.605  -0.228  0.3004  0.0589 -0.5137
  154MOL0     C20708   9.940   9.744   0.360  0.6959  0.8488  0.3659
  154MOL0     C20709  10.022   9.845   0.396 -0.5809 -0.1398  0.1862
  154MOL0     C20710  10.277  10.176   0.465 -0.3835 -0.2241  0.4241
  154MOL0     C20711  10.213  10.283   0.524  0.6655  0.2487 -0.5857
  154MOL0     C20712  10.283  10.381   0.587  0.3584 -0.5409  0.5998
  154MOL0     C20713  10.421  10.385   0.588 -0.2775  0.7387  0.9417
  154MOL0     O20714  10.474  10.482   0.668 -0.5804 -0.5271  1.1033
  154MOL0     C20715  10.606  10.469   0.732 -0.9506  0.0965  0.1551
  154MOL0     C20716  10.716  10.515   0.653  0.8772 -0.8676  0.1374
  154MOL0     C20717  10.687  10.663   0.624 -0.3579 -0.5787 -0.3467
  154MOL0     C20718  10.785  10.700   0.499  0.7938  0.7558  0.2183
  154MOL0     C20719  10.916  10.745   0.542  0.0280  1.3725  0.3531
  154MOL0     C20720  11.028  10.779   0.580 -0.4664  1.3878  0.1027
  154MOL0     C20721  10.488  10.274   0.532 -0.7075  0.3026  0.0366
  154MOL0     C20722  10.424  10.172   0.475  1.0010 -0.4955 -0.1925
  154MOL0     H20723   9.881  10.108   0.226 -0.5199 -0.6268 -0.9675
  154MOL0     H20724   9.736   9.940   0.148 -0.2126  0.9907 -1.1001
  154MOL0     H20725   9.572   9.733   0.186  1.2150 -1.2904  2.8175
  154MOL0     H20726   9.678   9.750   0.041 -0.3594 -0.0515 -0.5051
  154MOL0     H20727   9.715   9.502   0.042  0.3630 -1.7596  0.9677
  154MOL0     H20728   9.575   9.491   0.159  0.7128 -2.7319 -1.5888
  154MOL0     H20729   9.415   9.589   0.003  0.7522  0.6848 -0.0358
  154MOL0     H20730   9.546   9.641  -0.100  0.9281  0.0783 -0.2122
  154MOL0     H20731   9.482   9.465  -0.219  2.6803  1.3294 -0.3819
  154MOL0     H20732   9.576   9.372  -0.098  0.0095  0.4808 -1.7850
  154MOL0     H20733   9.399   9.252  -0.099  0.2091 -0.1536  0.8098
  154MOL0     H20734   9.357   9.347   0.039 -2.6210  0.9380  0.2348
  154MOL0     H20735   9.225   9.512  -0.095  1.1035  0.8419  0.1493
  154MOL0     H20736   9.258   9.421  -0.247  1.4140 -2.2853  0.4583
  154MOL0     H20737   9.149   9.218  -0.167 -1.6625 -0.8228  1.2707
  154MOL0     H20738   9.094   9.312  -0.026  2.1895  0.4077  0.7199
  154MOL0     H20739   8.948   9.267  -0.241  0.6498 -0.8142  1.9773
  154MOL0     H20740   9.063   9.352  -0.336 -2.0699 -0.9625 -0.2937
  154MOL0     H20741   8.752   9.425  -0.152  0.3763 -0.2469  1.6974
  154MOL0     H20742   8.623   9.674  -0.060 -0.4103 -1.8180 -0.3933
  154MOL0     H20743   8.696   9.823  -0.119  0.3937  0.0485 -1.1842
  154MOL0     H20744   8.630   9.745  -0.359  1.7733  0.8364  0.8503
  154MOL0     H20745   8.503   9.800  -0.253 -2.0637 -1.6806  2.9626
  154MOL0     H20746   8.502   9.534  -0.201  0.3839  1.2835  0.8017
  154MOL0     H20747   8.532   9.532  -0.377  0.4382 -2.1418  0.5579
  154MOL0     H20748   8.326   9.698  -0.398 -0.6414 -2.2371 -0.9964
  154MOL0     H20749   8.309   9.692  -0.232 -1.0211  0.4234 -0.9857
  154MOL0     H20750   8.111   9.339  -0.328  0.3486 -0.2140  1.6441
  154MOL0     H20751   7.857   9.238  -0.172  1.9172  0.1139 -0.5639
  154MOL0     H20752   7.738   9.283  -0.298  0.8526 -0.7036 -1.5268
  154MOL0     H20753   7.890   9.216  -0.343  2.2892  0.1665  2.2675
  154MOL0     H20754   7.556   9.753   0.055 -0.8266  1.8987 -2.6757
  154MOL0     H20755   7.311   9.766   0.115  2.7603  1.0252 -0.2730
  154MOL0     H20756   6.980   9.615   0.200  1.9890 -1.4344  2.6679
  154MOL0     H20757   7.134   9.699   0.219 -0.7276 -0.8074  0.9772
  154MOL0     H20758   7.017   9.869   0.114 -1.6019  1.0378 -1.4699
  154MOL0     H20759   7.071   9.784  -0.023  2.0569 -2.4379  1.6672
  154MOL0     H20760   6.789   9.739   0.108  1.9035  0.6688  0.8157
  154MOL0     H20761   6.847   9.650  -0.020  2.0222 -1.0029  0.0957
  154MOL0     H20762   6.852   9.957  -0.038 -2.0541  0.3518  0.1280
  154MOL0     H20763   6.837   9.833  -0.165  0.5391  0.0951  1.0134
  154MOL0     H20764   6.621   9.855   0.034  0.1192 -0.6508  0.3959
  154MOL0     H20765   6.614   9.779  -0.126 -0.7862  0.1962  0.2716
  154MOL0     H20766   6.500  10.009  -0.102  1.0405  2.2106  1.7229
  154MOL0     H20767   6.661  10.074  -0.072 -1.5577  2.5054 -2.7372
  154MOL0     H20768   6.684   9.908  -0.305 -1.5015 -1.1138  0.2144
  154MOL0     H20769   6.698  10.085  -0.295 -0.1443 -0.7547  0.6781
  154MOL0     H20770   6.533  10.046  -0.451 -2.8680  1.5882  1.0358
  154MOL0     H20771   6.450  10.108  -0.317 -2.8121 -1.3060 -0.5039
  154MOL0     H20772   7.261   9.369  -0.030  0.1133 -0.2140 -0.6549
  154MOL0     H20773   7.514   9.365  -0.100 -0.9352 -1.9233  1.2769
  154MOL0     H20774   7.876   9.742  -0.205 -0.0685 -2.1043  3.1834
  154MOL0     H20775   8.104   9.752  -0.290  3.1705 -0.7251 -0.2693
  154MOL0     H20776   9.955   9.641   0.390  1.2320  0.5458 -0.8616
  154MOL0     H20777  10.098   9.819   0.469  0.0595  0.9264 -0.0833
  154MOL0     H20778  10.107  10.305   0.511 -0.0081 -0.3249  2.9357
  154MOL0     H20779  10.236  10.466   0.636  0.7507 -0.0185  0.0840
  154MOL0     H20780  10.607  10.529   0.824  0.6004  0.9158 -0.3799
  154MOL0     H20781  10.624  10.365   0.759 -1.0036  0.2486  0.7916
  154MOL0     H20782  10.721  10.459   0.559 -0.9251  0.0971 -0.5700
  154MOL0     H20783  10.812  10.516   0.705  0.9757 -3.3522  0.1201
  154MOL0     H20784  10.706  10.728   0.710 -0.2563  1.1666 -1.6207
  154MOL0     H20785  10.584  10.694   0.603 -0.9522 -0.3525  2.5168
  154MOL0     H20786  10.730  10.782   0.451 -1.1935 -1.1205 -0.8780
  154MOL0     H20787  10.793  10.621   0.424  1.5220  0.3128  0.7521
  154MOL0     H20788  11.128  10.810   0.603  1.2240 -2.3773 -1.3569
  154MOL0     H20789  10.597  10.276   0.541 -0.2090  0.3183 -4.0826
  154MOL0     H20790  10.467  10.079   0.439 -0.1728 -1.6961  1.3265
  155MOL0     O20791   2.219   7.935   5.936 -0.5180 -0.1820 -0.0809
  155MOL0     C20792   2.276   7.824   5.935  0.1638 -0.1438 -0.0837
  155MOL0     O20793   2.209   7.705   5.951 -0.7604 -0.2365  0.1767
  155MOL0     C20794   2.079   7.720   5.966 -0.2769  0.4217  0.0782
  155MOL0     C20795   2.029   7.742   6.089  0.1148  0.0518 -1.1820
  155MOL0     C20796   1.891   7.732   6.108  0.3249 -0.0672 -0.1156
  155MOL0     C20797   1.800   7.704   6.008  0.0670  0.6561  0.0792
  155MOL0     O20798   1.670   7.702   6.053  0.1843  0.2643 -0.1741
  155MOL0     C20799   1.570   7.695   5.949  0.2598 -0.0576 -0.4637
  155MOL0     C20800   1.418   7.665   5.986  0.0911 -0.6524 -0.2142
  155MOL0     C20801   1.342   7.626   5.863  1.0447 -0.3810 -0.6006
  155MOL0     C20802   1.186   7.614   5.895 -0.8800 -0.5279 -0.4136
  155MOL0     C20803   1.116   7.569   5.771 -0.0932  0.2225 -0.3300
  155MOL0     C20804   0.966   7.546   5.789  0.5651  0.2985  0.3779
  155MOL0     C20805   0.891   7.679   5.808 -0.5517  0.3118  0.1000
  155MOL0     C20806   0.740   7.654   5.826 -0.8534 -0.5082  0.4449
  155MOL0     N20807   0.693   7.578   5.716  0.6667 -0.1697 -0.2161
  155MOL0     C20808   0.681   7.631   5.589 -0.2465  1.2972  0.3642
  155MOL0     C20809   0.611   7.547   5.510  0.6204 -0.1041  0.3768
  155MOL0     C20810   0.564   7.567   5.362 -0.1479  0.5698  0.6301
  155MOL0     C20811   0.438   7.653   5.366 -0.2210 -0.4512  0.4873
  155MOL0     C20812   0.380   7.670   5.226  0.4027 -1.2014  0.5086
  155MOL0     C20813   0.264   7.770   5.221 -0.5270 -0.0403  0.3492
  155MOL0     O20814   0.178   7.739   5.327  0.7421  0.3931  1.3345
  155MOL0     C20815   0.046   7.771   5.325  0.2102  0.3363  1.0089
  155MOL0     C20816  -0.044   7.700   5.401  0.5220 -0.3231 -0.8290
  155MOL0     C20817  -0.186   7.707   5.389  0.5151  0.1150 -0.1023
  155MOL0     C20818  -0.279   7.627   5.477 -0.4307  0.6774 -0.5965
  155MOL0     C20819  -0.246   7.795   5.303  0.8652 -0.2215 -0.0281
  155MOL0     C20820  -0.397   7.815   5.281 -0.3792 -0.9279 -0.9179
  155MOL0     O20821  -0.485   7.780   5.384 -0.2274 -0.1892  0.0634
  155MOL0     C20822  -0.616   7.783   5.354 -0.4710  0.4327 -0.3616
  155MOL0     C20823  -0.693   7.669   5.370 -0.4741  0.1913 -0.2476
  155MOL0     C20824  -0.831   7.667   5.344  0.9695  0.0301 -0.6750
  155MOL0     C20825  -0.903   7.787   5.316  0.2806 -0.3785 -0.3739
  155MOL0     O20826  -1.035   7.767   5.290 -0.0282  0.1855 -0.1098
  155MOL0     C20827  -1.122   7.869   5.329  0.2868  0.0426 -0.4058
  155MOL0     C20828  -1.157   7.952   5.202  0.2742 -0.5027  0.5590
  155MOL0     C20829  -1.180   8.104   5.222 -0.8953 -0.8449  0.0488
  155MOL0     C20830  -1.231   8.181   5.104 -0.2400 -0.9075  0.3864
  155MOL0     C20831  -1.167   8.145   4.969  0.1762  0.6775  1.2605
  155MOL0     C20832  -1.236   8.210   4.846  0.2159 -0.4222  0.3776
  155MOL0     C20833  -1.382   8.186   4.821  0.2290 -0.4237  0.8755
  155MOL0     C20834  -1.438   8.263   4.707  1.0766 -1.8160  0.2200
  155MOL0    Cl20835  -1.463   8.432   4.748 -0.4392 -0.5306  0.1067
  155MOL0     C20836  -0.830   7.902   5.316  0.2888 -0.9668 -0.4837
  155MOL0     C20837  -0.681   7.901   5.331 -0.4134 -0.3120 -0.0798
  155MOL0     O20838  -0.435   7.862   5.168 -0.2595  0.5000 -0.2421
  155MOL0     C20839  -0.154   7.862   5.217 -0.0939  0.8504 -0.0552
  155MOL0     C20840  -0.009   7.854   5.227  0.5752  0.1523  0.3520
  155MOL0     N20841   0.576   7.443   5.602 -0.3814 -0.2066  0.0288
  155MOL0     N20842   0.631   7.457   5.719  0.8974 -0.3543 -0.2997
  155MOL0     C20843   1.858   7.701   5.874  0.8290 -0.2667  0.1733
  155MOL0     C20844   1.997   7.698   5.859 -0.4799 -0.4577  1.0634
  155MOL0     C20845   2.424   7.816   5.918  0.0445  0.6768  0.0532
  155MOL0     C20846   2.493   7.694   5.910 -0.4294  0.9346 -0.3881
  155MOL0     C20847   2.634   7.690   5.915  0.2269 -0.1146  0.1059
  155MOL0     C20848   2.710   7.810   5.933  0.0389  0.9094 -0.1025
  155MOL0     O20849   2.841   7.808   5.930 -0.3305  0.6118  0.5808
  155MOL0     C20850   2.908   7.703   6.002 -0.5475  0.0428 -0.0875
  155MOL0     C20851   3.026   7.753   6.083  0.0688  0.1427 -0.0304
  155MOL0     C20852   2.979   7.849   6.204 -0.0387 -0.1321 -0.8492
  155MOL0     C20853   3.110   7.890   6.288  0.5735  0.3361 -1.7522
  155MOL0     C20854   3.174   7.774   6.348  0.4186  0.6855  0.5231
  155MOL0     C20855   3.222   7.684   6.410 -0.0660  0.3278 -0.5163
  155MOL0     C20856   2.637   7.925   5.933  0.1063  0.3556  0.2335
  155MOL0     C20857   2.500   7.938   5.928  0.3166  0.0861 -0.6196
  155MOL0     H20858   2.086   7.754   6.180 -2.1554 -0.7544  0.4130
  155MOL0     H20859   1.839   7.754   6.201  2.1689  3.0979  0.3018
  155MOL0     H20860   1.569   7.787   5.890  0.4624  0.0506 -0.2969
  155MOL0     H20861   1.602   7.615   5.881 -2.0508 -0.4742 -1.1416
  155MOL0     H20862   1.410   7.584   6.059  3.0814 -0.2812  0.6689
  155MOL0     H20863   1.386   7.757   6.036  0.2577 -1.1497  0.8405
  155MOL0     H20864   1.366   7.701   5.787  3.0531  0.7722  1.0633
  155MOL0     H20865   1.376   7.530   5.826 -1.5448 -0.0744 -4.3787
  155MOL0     H20866   1.176   7.530   5.965 -0.4075 -0.3388 -0.1172
  155MOL0     H20867   1.142   7.709   5.926 -1.0703 -0.0033 -2.1849
  155MOL0     H20868   1.131   7.643   5.691 -2.8013  0.8772 -0.3381
  155MOL0     H20869   1.159   7.474   5.737 -0.1694  0.3561 -0.8192
  155MOL0     H20870   0.938   7.491   5.699  2.4845 -0.2987  0.0927
  155MOL0     H20871   0.948   7.483   5.877  1.4029  1.3856  1.3627
  155MOL0     H20872   0.924   7.734   5.896  1.1824 -0.7730  0.1638
  155MOL0     H20873   0.910   7.735   5.716  1.0069  0.1922  0.3268
  155MOL0     H20874   0.675   7.742   5.830 -1.2803 -0.8374  0.9572
  155MOL0     H20875   0.727   7.592   5.916 -0.9037 -0.7070  0.3017
  155MOL0     H20876   0.728   7.723   5.554 -0.0106  1.8762  2.1139
  155MOL0     H20877   0.648   7.612   5.307 -0.3251 -2.0945 -2.1013
  155MOL0     H20878   0.558   7.470   5.311  0.5212  0.6906  0.3070
  155MOL0     H20879   0.461   7.748   5.414 -0.9785 -0.1228  0.2221
  155MOL0     H20880   0.367   7.606   5.434 -3.0572  2.6427 -0.0828
  155MOL0     H20881   0.334   7.574   5.196 -2.7832 -0.3707  2.2131
  155MOL0     H20882   0.455   7.702   5.154 -0.5826 -0.5953 -0.2788
  155MOL0     H20883   0.207   7.763   5.128 -0.7898 -0.5662  0.5488
  155MOL0     H20884   0.310   7.868   5.236  0.7337 -0.6937  0.8883
  155MOL0     H20885  -0.005   7.636   5.479  1.3831 -1.9189 -2.4764
  155MOL0     H20886  -0.220   7.543   5.515  1.4126  1.8462 -0.7623
  155MOL0     H20887  -0.304   7.690   5.563  0.2679 -0.0739  0.1678
  155MOL0     H20888  -0.368   7.585   5.429 -0.8985  2.8476 -1.7579
  155MOL0     H20889  -0.638   7.579   5.393  0.1844  0.0727 -2.0958
  155MOL0     H20890  -0.882   7.571   5.332  3.7281 -1.3396 -2.6510
  155MOL0     H20891  -1.210   7.833   5.382 -0.1405 -0.3880 -1.4030
  155MOL0     H20892  -1.076   7.941   5.399 -0.5562 -0.9218  1.2045
  155MOL0     H20893  -1.076   7.956   5.128  1.6960  1.5975  2.0987
  155MOL0     H20894  -1.249   7.904   5.168  1.9472 -2.2431 -1.8579
  155MOL0     H20895  -1.087   8.149   5.259 -2.2851 -0.0320  2.8052
  155MOL0     H20896  -1.249   8.133   5.301 -1.0231 -0.0664 -0.3334
  155MOL0     H20897  -1.336   8.153   5.094  0.1145 -2.0684 -0.3038
  155MOL0     H20898  -1.232   8.290   5.113 -0.5193 -0.6156 -2.3355
  155MOL0     H20899  -1.167   8.037   4.952 -2.4504  0.1991  3.5254
  155MOL0     H20900  -1.066   8.185   4.961 -0.7004  2.5388 -2.7150
  155MOL0     H20901  -1.217   8.317   4.845 -1.4669 -0.0773  1.1961
  155MOL0     H20902  -1.195   8.175   4.751 -0.6920  2.0706 -1.0348
  155MOL0     H20903  -1.450   8.192   4.907 -0.6510  4.0242  0.1395
  155MOL0     H20904  -1.383   8.081   4.789  0.3707  0.6249 -3.0143
  155MOL0     H20905  -1.531   8.228   4.661  0.3376  0.3648 -0.0357
  155MOL0     H20906  -1.372   8.262   4.620  0.0453 -1.2645 -0.6031
  155MOL0     H20907  -0.882   7.997   5.312  1.5389 -0.3048 -1.8478
  155MOL0     H20908  -0.620   7.991   5.320  0.1449 -0.5095  1.2775
  155MOL0     H20909  -0.198   7.931   5.145 -1.6987  1.7679  1.7189
  155MOL0     H20910   0.049   7.905   5.151 -2.5405  1.5750 -1.2559
  155MOL0     H20911   1.796   7.674   5.789 -0.6089  0.6432  0.8802
  155MOL0     H20912   2.048   7.680   5.765 -0.0761  1.9647  0.7358
  155MOL0     H20913   2.439   7.600   5.914  1.9132 -0.4785  0.2569
  155MOL0     H20914   2.683   7.594   5.908  0.9093  0.1395  1.1831
  155MOL0     H20915   2.836   7.663   6.074 -0.5676 -0.0332 -0.1504
  155MOL0     H20916   2.955   7.622   5.944  3.9466  1.1007  1.6638
  155MOL0     H20917   3.098   7.807   6.020 -1.5902  1.3160 -0.9939
  155MOL0     H20918   3.066   7.665   6.134 -0.4801  1.4882  2.9289
  155MOL0     H20919   2.909   7.801   6.272 -0.7463  1.7452 -0.1974
  155MOL0     H20920   2.941   7.945   6.166  0.4651  0.7502  0.7746
  155MOL0     H20921   3.089   7.961   6.369  0.3548 -0.5351 -1.0277
  155MOL0     H20922   3.184   7.941   6.226  2.4305 -1.1487 -0.8634
  155MOL0     H20923   3.262   7.607   6.472  2.8758  2.2147  0.0860
  155MOL0     H20924   2.704   8.009   5.947 -0.8433  0.8976  1.8656
  155MOL0     H20925   2.451   8.035   5.931  0.8343  0.3425 -0.4339
  156MOL0     O20926   5.598   5.555   2.983 -0.6751  0.5088 -0.6585
  156MOL0     C20927   5.556   5.471   3.060 -0.5107  0.1023  1.0515
  156MOL0     O20928   5.429   5.460   3.101  0.8926 -0.1671  0.1992
  156MOL0     C20929   5.339   5.530   3.024  0.1956  1.5164  0.2562
  156MOL0     C20930   5.244   5.614   3.087  1.2362 -0.1857  0.8960
  156MOL0     C20931   5.136   5.668   3.010  0.4706  0.0032 -0.6504
  156MOL0     C20932   5.126   5.654   2.870  0.1499 -0.6496 -0.0141
  156MOL0     O20933   5.036   5.716   2.786 -1.3789  0.7624 -0.3999
  156MOL0     C20934   4.970   5.620   2.701  0.7412 -0.3927  0.6699
  156MOL0     C20935   4.998   5.656   2.555  0.2970 -0.1521 -1.1074
  156MOL0     C20936   4.914   5.575   2.460 -0.3966 -0.2357 -0.6691
  156MOL0     C20937   4.831   5.659   2.371  0.2501 -0.9219  0.1708
  156MOL0     C20938   4.724   5.734   2.459 -0.0045  0.2831 -0.4765
  156MOL0     C20939   4.603   5.737   2.370  0.4807 -0.6192 -0.4196
  156MOL0     C20940   4.479   5.805   2.440 -1.1770  0.7071 -0.4848
  156MOL0     C20941   4.347   5.752   2.394 -0.1227 -0.0502  0.7308
  156MOL0     N20942   4.240   5.773   2.495 -0.8912  0.0929 -0.0889
  156MOL0     C20943   4.236   5.712   2.624  0.4163  0.4177 -0.1189
  156MOL0     C20944   4.116   5.767   2.672  0.1923 -0.3108  0.0705
  156MOL0     C20945   4.043   5.749   2.800 -0.3628  0.5697 -0.1683
  156MOL0     C20946   3.941   5.637   2.788 -0.0677  0.1821 -0.5042
  156MOL0     C20947   3.852   5.624   2.914 -0.0022 -0.0087 -0.0346
  156MOL0     C20948   3.752   5.505   2.914 -0.6735 -0.3235  0.1711
  156MOL0     O20949   3.627   5.566   2.874 -0.8033 -1.0739  0.0853
  156MOL0     C20950   3.513   5.494   2.888 -1.2433  0.1523 -0.2180
  156MOL0     C20951   3.403   5.557   2.839 -0.0243  0.9951 -0.1652
  156MOL0     C20952   3.279   5.498   2.842 -0.0007 -0.1641  0.1757
  156MOL0     C20953   3.169   5.589   2.781 -0.4525  0.3040 -0.3829
  156MOL0     C20954   3.257   5.378   2.911 -0.4496 -0.4934  0.4692
  156MOL0     C20955   3.124   5.317   2.938 -0.1436  0.8246 -0.3060
  156MOL0     O20956   3.125   5.176   2.924 -0.8403  0.6844 -0.7251
  156MOL0     C20957   3.003   5.129   2.904  0.0932 -0.2368  0.7777
  156MOL0     C20958   2.904   5.130   3.004 -0.4214 -0.3337  0.2806
  156MOL0     C20959   2.782   5.074   2.981 -0.0738 -0.0435 -0.1108
  156MOL0     C20960   2.746   5.018   2.860  0.4295  0.2354  1.0368
  156MOL0     O20961   2.617   4.984   2.848  0.0561  0.2154 -0.1223
  156MOL0     C20962   2.558   4.963   2.721 -0.3621  0.4062 -0.2331
  156MOL0     C20963   2.409   4.939   2.744  0.2639 -0.3525  0.5324
  156MOL0     C20964   2.333   4.901   2.617 -0.0833  0.4647  0.1753
  156MOL0     C20965   2.179   4.899   2.624  0.5788  0.6345  0.3901
  156MOL0     C20966   2.119   4.830   2.500 -0.2532  0.1411 -0.4304
  156MOL0     C20967   1.970   4.814   2.524 -0.7291 -0.8768 -0.0423
  156MOL0     C20968   1.896   4.931   2.458  0.2635 -0.3325 -0.2248
  156MOL0     C20969   1.832   4.873   2.333 -0.6630 -0.6598  0.4153
  156MOL0    Cl20970   1.717   4.732   2.375 -0.0479 -0.1669  0.3262
  156MOL0     C20971   2.855   4.995   2.759 -0.1352  0.1713  0.0441
  156MOL0     C20972   2.981   5.061   2.786 -0.5441  0.4375  0.4539
  156MOL0     O20973   3.023   5.385   2.942 -0.3839 -0.4803 -0.1099
  156MOL0     C20974   3.376   5.310   2.961  0.2524  0.1522 -0.7438
  156MOL0     C20975   3.505   5.366   2.939  0.2377  0.8010 -0.4715
  156MOL0     N20976   4.072   5.846   2.576 -0.2976 -0.3225  0.1133
  156MOL0     N20977   4.138   5.855   2.469  0.0439  0.4817  0.7340
  156MOL0     C20978   5.226   5.573   2.814 -0.0103 -0.0154  0.1247
  156MOL0     C20979   5.333   5.511   2.886 -0.6473  0.6116  0.6890
  156MOL0     C20980   5.655   5.384   3.135 -0.2478 -0.4596 -0.0322
  156MOL0     C20981   5.793   5.398   3.101  0.2210  0.6726  0.3320
  156MOL0     C20982   5.896   5.340   3.169  0.8924 -0.9685 -0.0179
  156MOL0     C20983   5.867   5.253   3.273  0.2134  0.6230 -0.2885
  156MOL0     O20984   5.955   5.183   3.350 -0.1045 -0.1984  0.6764
  156MOL0     C20985   6.084   5.141   3.301  0.5380  0.5380 -0.5258
  156MOL0     C20986   6.183   5.232   3.371 -0.0831  0.2918 -1.0032
  156MOL0     C20987   6.202   5.194   3.527 -0.3957 -0.5811  0.1660
  156MOL0     C20988   6.270   5.061   3.561 -0.3391  0.0347 -0.0724
  156MOL0     C20989   6.267   5.062   3.705  0.4805 -0.8733 -0.4176
  156MOL0     C20990   6.274   5.040   3.829 -0.0306 -0.9105 -0.3701
  156MOL0     C20991   5.734   5.234   3.307  0.2974  0.5119  0.3790
  156MOL0     C20992   5.624   5.298   3.239  0.1236 -0.6166 -0.0731
  156MOL0     H20993   5.261   5.636   3.192  1.2818  0.6037  0.7326
  156MOL0     H20994   5.075   5.736   3.068  3.1287  3.0538 -1.1303
  156MOL0     H20995   5.009   5.518   2.716  0.1168 -0.5665  1.1778
  156MOL0     H20996   4.863   5.626   2.723  1.1768  1.9297  2.5151
  156MOL0     H20997   4.988   5.764   2.540  0.2174 -0.0781 -0.5358
  156MOL0     H20998   5.105   5.642   2.539  0.5435  0.5987 -0.1909
  156MOL0     H20999   4.980   5.517   2.395  1.4308 -3.2602  3.4048
  156MOL0     H21000   4.860   5.500   2.518  0.3398 -0.8639 -0.7839
  156MOL0     H21001   4.897   5.731   2.321 -1.6832  0.4898 -0.4674
  156MOL0     H21002   4.784   5.594   2.297  1.2567 -1.0060 -0.4203
  156MOL0     H21003   4.697   5.683   2.552  1.2655  0.5812  0.0788
  156MOL0     H21004   4.756   5.835   2.489 -1.6608  0.5921  0.3859
  156MOL0     H21005   4.614   5.784   2.272 -1.4522 -0.7514 -0.7373
  156MOL0     H21006   4.572   5.636   2.341 -2.2318  0.1530 -0.5146
  156MOL0     H21007   4.490   5.777   2.545  1.1578 -0.9169 -1.0707
  156MOL0     H21008   4.483   5.913   2.425 -0.1738  0.9842  1.4937
  156MOL0     H21009   4.358   5.643   2.388 -1.9223 -0.3018  1.3942
  156MOL0     H21010   4.333   5.790   2.292  2.6944  0.2694  0.3747
  156MOL0     H21011   4.314   5.650   2.667  0.1571  0.2759  0.1504
  156MOL0     H21012   4.119   5.723   2.875  0.6647 -1.8852 -1.9112
  156MOL0     H21013   4.003   5.846   2.831  0.1469  0.9391 -0.6328
  156MOL0     H21014   3.997   5.548   2.759 -1.4230  0.0274 -2.9471
  156MOL0     H21015   3.875   5.659   2.703 -2.1469 -1.8158  0.4814
  156MOL0     H21016   3.798   5.717   2.935 -0.1365  0.9327 -3.7960
  156MOL0     H21017   3.929   5.603   2.988  0.0463 -1.4576 -0.4762
  156MOL0     H21018   3.745   5.464   3.015  1.2822 -0.7016  0.1965
  156MOL0     H21019   3.789   5.432   2.841  2.2562 -0.3063  1.4738
  156MOL0     H21020   3.427   5.660   2.814  4.2841  1.0747  2.9299
  156MOL0     H21021   3.152   5.676   2.845  2.2150  0.4547  0.2498
  156MOL0     H21022   3.196   5.617   2.678 -0.8908 -2.8530 -1.4450
  156MOL0     H21023   3.078   5.535   2.755 -0.0029  0.0392 -1.5073
  156MOL0     H21024   2.921   5.167   3.105  0.7720 -1.6228  0.5875
  156MOL0     H21025   2.717   5.095   3.065  0.3547  0.0760  0.1915
  156MOL0     H21026   2.584   5.044   2.652  0.7969 -0.4877 -0.8667
  156MOL0     H21027   2.599   4.871   2.679 -2.7413 -0.2258 -1.3588
  156MOL0     H21028   2.395   4.860   2.818  0.9659 -0.1376  0.8998
  156MOL0     H21029   2.382   5.039   2.780  0.1701 -1.2179  3.0762
  156MOL0     H21030   2.378   4.807   2.583  2.4076  2.6010 -3.0463
  156MOL0     H21031   2.369   4.971   2.541  0.5277  0.7243  0.6926
  156MOL0     H21032   2.140   4.865   2.720 -1.9847 -0.0788 -0.8199
  156MOL0     H21033   2.138   5.000   2.616 -0.2364  0.3085  0.3523
  156MOL0     H21034   2.168   4.732   2.506 -2.0582 -0.8134 -0.6491
  156MOL0     H21035   2.151   4.894   2.418  2.5068  0.1661  0.5651
  156MOL0     H21036   1.940   4.715   2.489 -2.4170 -0.5452  0.3953
  156MOL0     H21037   1.946   4.805   2.630 -0.5482 -0.6707  0.0181
  156MOL0     H21038   1.961   5.016   2.438  1.5770 -0.4368  2.9678
  156MOL0     H21039   1.822   4.970   2.529 -0.6305  0.4769 -1.5644
  156MOL0     H21040   1.913   4.836   2.269 -0.1023  1.9613 -0.5186
  156MOL0     H21041   1.785   4.956   2.279  0.7355  0.0886  0.3070
  156MOL0     H21042   2.830   4.948   2.664 -0.1748  1.7770 -0.7856
  156MOL0     H21043   3.056   5.075   2.710  0.3344  4.2752  1.7846
  156MOL0     H21044   3.371   5.219   3.021 -0.7131 -1.0614 -2.5620
  156MOL0     H21045   3.582   5.307   2.989 -0.5021  0.6495  0.5217
  156MOL0     H21046   5.226   5.554   2.707 -2.9980 -0.0884  0.0489
  156MOL0     H21047   5.409   5.447   2.842 -0.1280  2.6089 -1.5674
  156MOL0     H21048   5.833   5.457   3.018  0.7000 -1.2601 -0.8994
  156MOL0     H21049   5.989   5.364   3.119  0.0046 -0.2611 -1.3839
  156MOL0     H21050   6.096   5.037   3.332  0.2723  1.0629  1.5174
  156MOL0     H21051   6.093   5.146   3.192  0.8687 -2.2290 -0.6853
  156MOL0     H21052   6.150   5.335   3.359 -4.0334 -0.5149  1.2086
  156MOL0     H21053   6.279   5.209   3.323 -0.8490 -2.3808 -1.4275
  156MOL0     H21054   6.103   5.202   3.573 -0.0113  0.2788  0.8559
  156MOL0     H21055   6.267   5.269   3.573 -1.2549 -0.7653  1.7551
  156MOL0     H21056   6.373   5.050   3.527  0.7145 -2.5277  3.3794
  156MOL0     H21057   6.209   4.980   3.521 -0.8209  1.9034 -3.5078
  156MOL0     H21058   6.302   5.036   3.932 -0.4649  0.5203 -0.1678
  156MOL0     H21059   5.713   5.174   3.395  2.1156  1.5533  1.5915
  156MOL0     H21060   5.521   5.292   3.272  0.6114 -2.8880  1.3048
  157MOL0     O21061   8.709   4.691   9.120 -0.0374  1.5635 -0.2980
  157MOL0     C21062   8.794   4.761   9.086 -0.9010  0.5395 -0.5936
  157MOL0     O21063   8.812   4.812   8.962 -0.1036  0.6317  0.2601
  157MOL0     C21064   8.745   4.740   8.866 -0.9472  0.6669  0.8275
  157MOL0     C21065   8.800   4.623   8.798  0.7588 -0.6746  0.6398
  157MOL0     C21066   8.721   4.550   8.702  0.7577  0.3812  0.7085
  157MOL0     C21067   8.586   4.604   8.678 -0.1965  0.9969 -0.5429
  157MOL0     O21068   8.496   4.544   8.585 -0.0042 -0.9318 -0.1552
  157MOL0     C21069   8.550   4.442   8.499 -0.6574 -0.1251 -0.3193
  157MOL0     C21070   8.454   4.405   8.379  0.5044  0.1434  0.8083
  157MOL0     C21071   8.319   4.364   8.442  0.0496 -0.6376 -0.0083
  157MOL0     C21072   8.237   4.316   8.327 -0.3496  0.3743  1.0391
  157MOL0     C21073   8.089   4.297   8.370  0.1405 -0.3470  0.7913
  157MOL0     C21074   8.006   4.217   8.259  0.1341 -0.1641 -0.1715
  157MOL0     C21075   7.865   4.194   8.306  0.0984 -0.8989  0.4004
  157MOL0     C21076   7.786   4.141   8.184 -0.6723 -0.8184  0.0184
  157MOL0     N21077   7.668   4.066   8.228  0.4548  0.4674 -0.1534
  157MOL0     C21078   7.628   3.955   8.153  0.2047 -0.2747 -0.0036
  157MOL0     C21079   7.505   3.924   8.200  1.3389  0.3311  0.4503
  157MOL0     C21080   7.417   3.822   8.139 -0.4755 -0.4927  0.2029
  157MOL0     C21081   7.266   3.859   8.153  0.4377  0.1037 -0.0511
  157MOL0     C21082   7.179   3.736   8.102 -0.0602  0.3464  0.0886
  157MOL0     C21083   7.219   3.677   7.970 -0.1666 -0.7977 -0.0214
  157MOL0     O21084   7.121   3.586   7.945  0.3933  0.9951 -0.0743
  157MOL0     C21085   7.008   3.617   7.869 -0.1368 -0.2016 -0.3468
  157MOL0     C21086   6.968   3.740   7.814  0.7357  0.1098 -0.1431
  157MOL0     C21087   6.841   3.758   7.754  0.5123 -0.4606 -0.1779
  157MOL0     C21088   6.809   3.895   7.708 -0.1529 -0.2406  0.0870
  157MOL0     C21089   6.751   3.649   7.737  0.2039  0.0919  0.0546
  157MOL0     C21090   6.625   3.662   7.669  0.0479  0.2528 -0.2956
  157MOL0     O21091   6.572   3.543   7.619  1.1550 -0.7495 -1.2797
  157MOL0     C21092   6.442   3.556   7.571  0.1222 -0.9177  0.1811
  157MOL0     C21093   6.340   3.608   7.641 -0.5319  0.5847  0.5264
  157MOL0     C21094   6.210   3.605   7.584 -0.4267 -0.6982 -0.0256
  157MOL0     C21095   6.181   3.559   7.459 -0.6600  0.9872 -0.9460
  157MOL0     O21096   6.053   3.564   7.429 -0.0708  0.3151 -0.1561
  157MOL0     C21097   6.018   3.478   7.325 -0.1233 -0.0230 -0.7934
  157MOL0     C21098   5.887   3.423   7.360 -0.0055  0.1602 -0.0199
  157MOL0     C21099   5.765   3.519   7.359 -0.3142  0.4785 -0.1013
  157MOL0     C21100   5.709   3.519   7.217 -0.0175 -1.0038  1.2100
  157MOL0     C21101   5.566   3.581   7.196 -0.4990 -0.8332 -0.6533
  157MOL0     C21102   5.454   3.539   7.300  0.1600  0.4475  0.3615
  157MOL0     C21103   5.304   3.579   7.267 -0.4908 -0.1377 -0.5245
  157MOL0     C21104   5.250   3.482   7.163  0.5817 -0.8938  0.5314
  157MOL0    Cl21105   5.081   3.523   7.122 -0.1202  0.2486  0.2739
  157MOL0     C21106   6.293   3.499   7.380 -0.9485  0.0083 -0.6856
  157MOL0     C21107   6.421   3.510   7.443 -0.4568  0.7918  0.2850
  157MOL0     O21108   6.563   3.769   7.674 -0.2549  0.5062  0.2278
  157MOL0     C21109   6.796   3.526   7.782  0.3759  0.6032 -0.2083
  157MOL0     C21110   6.923   3.508   7.836  0.1548  0.3896 -1.0193
  157MOL0     N21111   7.468   4.014   8.304 -0.6444 -0.2628  0.2689
  157MOL0     N21112   7.572   4.101   8.317 -0.1988 -0.0804  0.1154
  157MOL0     C21113   8.540   4.717   8.747 -1.2044 -0.3764 -0.5748
  157MOL0     C21114   8.626   4.791   8.838 -0.8959  0.9300  0.3377
  157MOL0     C21115   8.898   4.804   9.191 -0.2216 -0.6894  1.0038
  157MOL0     C21116   9.008   4.880   9.143  0.1992  0.9246  0.0728
  157MOL0     C21117   9.105   4.924   9.239  0.4762 -0.5878  0.4251
  157MOL0     C21118   9.104   4.884   9.370 -0.3421 -0.7821 -0.1205
  157MOL0     O21119   9.207   4.922   9.438 -0.3370  0.7285 -1.0537
  157MOL0     C21120   9.276   4.818   9.504 -0.4622 -0.2433 -0.2597
  157MOL0     C21121   9.388   4.758   9.411 -0.0075 -0.2708  0.5427
  157MOL0     C21122   9.498   4.862   9.383 -0.0686 -0.8364  0.8123
  157MOL0     C21123   9.597   4.872   9.488  0.2677  0.5825  0.2881
  157MOL0     C21124   9.674   4.751   9.511  0.2734  0.2250 -0.8524
  157MOL0     C21125   9.748   4.654   9.533  0.5598 -0.3565  0.5140
  157MOL0     C21126   8.998   4.813   9.415  1.1857 -0.1409 -0.0107
  157MOL0     C21127   8.894   4.772   9.327  0.7569 -0.5266 -0.8443
  157MOL0     H21128   8.903   4.595   8.815  0.6621  0.3227  3.3254
  157MOL0     H21129   8.766   4.463   8.655  0.5445  1.1087 -0.8994
  157MOL0     H21130   8.640   4.495   8.466 -0.2000 -0.5071  0.2895
  157MOL0     H21131   8.569   4.354   8.561 -2.1632  0.0462  0.4248
  157MOL0     H21132   8.449   4.495   8.317  1.0366 -0.6421 -0.4214
  157MOL0     H21133   8.488   4.326   8.311 -1.6069  2.5304 -3.4495
  157MOL0     H21134   8.333   4.293   8.524 -1.6715 -0.2037  0.7140
  157MOL0     H21135   8.267   4.446   8.491 -0.5131 -0.1685 -1.3348
  157MOL0     H21136   8.246   4.385   8.243 -1.3208 -0.2225  0.4193
  157MOL0     H21137   8.272   4.221   8.285  1.5758  1.9606 -1.1335
  157MOL0     H21138   8.080   4.243   8.465 -0.7922  0.9928  1.4982
  157MOL0     H21139   8.043   4.392   8.396  0.1946 -0.8863  3.0242
  157MOL0     H21140   8.000   4.277   8.168 -0.7167 -1.0398 -0.7044
  157MOL0     H21141   8.051   4.117   8.248 -0.3271 -0.5065  0.8596
  157MOL0     H21142   7.857   4.128   8.392 -0.6947 -0.4090  0.7137
  157MOL0     H21143   7.818   4.285   8.347 -3.2897 -2.8129  1.1684
  157MOL0     H21144   7.855   4.097   8.112  0.7143  3.1231 -1.3408
  157MOL0     H21145   7.742   4.226   8.132  0.7236  0.4904  0.8957
  157MOL0     H21146   7.679   3.910   8.069  0.0987 -0.1998 -0.1076
  157MOL0     H21147   7.453   3.816   8.036  0.8000 -1.5108  0.6772
  157MOL0     H21148   7.434   3.722   8.179  0.3020  0.4419  2.3208
  157MOL0     H21149   7.239   3.955   8.110 -0.3717  0.5422  1.3662
  157MOL0     H21150   7.253   3.876   8.261 -2.2546 -1.4383 -0.0550
  157MOL0     H21151   7.076   3.772   8.103  1.1485  4.4781  3.2163
  157MOL0     H21152   7.198   3.660   8.178 -0.0951 -0.5272 -0.7592
  157MOL0     H21153   7.319   3.632   7.975 -0.2277 -0.9976 -0.5595
  157MOL0     H21154   7.235   3.754   7.894  1.4199  1.7285  2.6159
  157MOL0     H21155   7.025   3.832   7.816 -0.6661  0.9846  0.9599
  157MOL0     H21156   6.738   3.940   7.777  0.9393 -0.8958  1.6976
  157MOL0     H21157   6.898   3.959   7.712 -1.4891  1.8287 -1.4815
  157MOL0     H21158   6.767   3.916   7.609 -0.0505  2.1128  0.4913
  157MOL0     H21159   6.364   3.645   7.740  0.2991  1.0438  0.1649
  157MOL0     H21160   6.139   3.667   7.639 -0.4962 -0.8682  0.0746
  157MOL0     H21161   6.006   3.530   7.229  0.5914 -1.6418 -1.7897
  157MOL0     H21162   6.082   3.391   7.311 -0.1761  0.0977 -1.8648
  157MOL0     H21163   5.874   3.339   7.291  3.7490 -1.0223  0.4795
  157MOL0     H21164   5.897   3.371   7.456  2.0892  0.1548 -0.1967
  157MOL0     H21165   5.786   3.622   7.388 -1.3991  2.7209 -5.8125
  157MOL0     H21166   5.695   3.472   7.427  1.5040 -1.0138  0.8184
  157MOL0     H21167   5.780   3.559   7.145 -0.3968 -0.4058  1.1605
  157MOL0     H21168   5.695   3.413   7.192 -1.7933 -0.4256 -0.5096
  157MOL0     H21169   5.530   3.544   7.099  1.1060 -2.1793 -0.7818
  157MOL0     H21170   5.565   3.690   7.195  2.6968 -0.7049 -0.0934
  157MOL0     H21171   5.464   3.431   7.294  0.7047  0.3567  2.1650
  157MOL0     H21172   5.481   3.564   7.403 -0.0434 -0.7224  0.7147
  157MOL0     H21173   5.301   3.684   7.236 -0.1018 -0.0132 -0.1375
  157MOL0     H21174   5.251   3.556   7.360 -0.9023  2.0898 -0.1684
  157MOL0     H21175   5.250   3.385   7.213  1.0155 -1.5552 -0.6933
  157MOL0     H21176   5.306   3.473   7.069 -2.1087 -0.9754 -1.1749
  157MOL0     H21177   6.286   3.472   7.275  0.0031 -0.5015 -0.6342
  157MOL0     H21178   6.515   3.472   7.404  0.2941  2.9245 -0.1283
  157MOL0     H21179   6.754   3.429   7.758  1.6352  0.1898 -0.8132
  157MOL0     H21180   6.965   3.415   7.873 -2.1635 -0.3540 -0.0549
  157MOL0     H21181   8.439   4.749   8.727 -0.7154  0.3303 -2.0092
  157MOL0     H21182   8.587   4.868   8.904 -1.3105  0.5697  0.5193
  157MOL0     H21183   9.015   4.916   9.041 -0.3001  2.2409  0.4921
  157MOL0     H21184   9.169   4.992   9.183  2.2289 -1.3681  1.4022
  157MOL0     H21185   9.307   4.864   9.598 -2.9245  1.5715 -0.2565
  157MOL0     H21186   9.214   4.738   9.546  1.3416 -0.1561  2.9173
  157MOL0     H21187   9.333   4.722   9.323 -2.1285 -1.2284  2.1760
  157MOL0     H21188   9.434   4.666   9.449  0.1991 -0.5327 -0.2998
  157MOL0     H21189   9.455   4.961   9.363 -0.4529 -0.8507  1.5558
  157MOL0     H21190   9.550   4.844   9.288  2.1464 -1.2931  2.0669
  157MOL0     H21191   9.548   4.910   9.578  0.2621 -0.1709  0.6094
  157MOL0     H21192   9.663   4.957   9.468 -1.6678  1.9795 -0.5405
  157MOL0     H21193   9.801   4.563   9.548 -1.5893 -2.5605 -3.5411
  157MOL0     H21194   8.997   4.771   9.515  2.6601 -0.5814 -0.1458
  157MOL0     H21195   8.822   4.699   9.363  0.5740 -1.7330 -3.4531
  158MOL0     O21196   0.336  11.249   6.873  0.0068  0.2722 -0.7542
  158MOL0     C21197   0.413  11.157   6.893  0.4834 -0.6323 -0.1061
  158MOL0     O21198   0.391  11.054   6.984  0.0350 -0.0644 -0.2110
  158MOL0     C21199   0.294  11.069   7.077 -0.1353  0.2192  0.9676
  158MOL0     C21200   0.323  11.158   7.175  0.7615 -0.4946 -0.1987
  158MOL0     C21201   0.209  11.199   7.258 -0.4990 -0.7029  0.5097
  158MOL0     C21202   0.090  11.137   7.248  1.0496 -0.1084  0.0614
  158MOL0     O21203  -0.005  11.158   7.346 -0.4142 -0.1153 -0.5267
  158MOL0     C21204  -0.145  11.189   7.302  0.2107 -0.2424  0.1054
  158MOL0     C21205  -0.177  11.320   7.379  0.1925 -0.0934 -0.2726
  158MOL0     C21206  -0.325  11.364   7.366 -0.0741  0.2321  0.1787
  158MOL0     C21207  -0.429  11.297   7.459 -0.5299 -0.3922 -0.3193
  158MOL0     C21208  -0.531  11.400   7.501  1.0534 -0.0294 -0.0470
  158MOL0     C21209  -0.642  11.332   7.578  0.7016 -0.1197 -0.5037
  158MOL0     C21210  -0.732  11.448   7.628 -0.3727  0.1871  0.3263
  158MOL0     C21211  -0.828  11.496   7.520 -0.0929 -0.1198  0.5179
  158MOL0     N21212  -0.946  11.557   7.593 -1.3058  0.2153 -0.8668
  158MOL0     C21213  -1.062  11.484   7.627  0.7750  0.6234  0.0279
  158MOL0     C21214  -1.151  11.568   7.676  0.1953  0.1196 -0.8790
  158MOL0     C21215  -1.293  11.537   7.713 -0.5643  0.6366  0.4776
  158MOL0     C21216  -1.381  11.652   7.701 -0.3544  0.0483 -0.2439
  158MOL0     C21217  -1.392  11.693   7.549  0.2794  0.6980  0.6170
  158MOL0     C21218  -1.491  11.803   7.515 -0.3936  0.1555  0.3832
  158MOL0     O21219  -1.622  11.767   7.560  0.2637  0.1310 -0.1171
  158MOL0     C21220  -1.715  11.864   7.568 -0.3954  1.1172  0.3052
  158MOL0     C21221  -1.826  11.844   7.646 -0.3382 -0.2722 -0.7427
  158MOL0     C21222  -1.933  11.936   7.650  0.4308 -0.2529 -0.6781
  158MOL0     C21223  -2.057  11.902   7.721 -0.3326  0.6047  0.4172
  158MOL0     C21224  -1.926  12.060   7.577  0.8697  0.2196 -0.0544
  158MOL0     C21225  -2.026  12.171   7.574  0.0043  0.4434 -0.4154
  158MOL0     O21226  -2.049  12.217   7.455  0.2628  0.1827 -0.4579
  158MOL0     C21227  -2.137  12.320   7.426  0.0120  0.1824 -0.3833
  158MOL0     C21228  -2.093  12.436   7.358 -0.1046  0.6616  0.1359
  158MOL0     C21229  -2.185  12.538   7.334 -0.8079  0.0287  0.8602
  158MOL0     C21230  -2.316  12.533   7.387 -0.8900  0.0576  0.1734
  158MOL0     O21231  -2.415  12.626   7.366  1.1993  0.1961  0.6741
  158MOL0     C21232  -2.392  12.750   7.295  0.4911 -0.1404  0.6021
  158MOL0     C21233  -2.515  12.833   7.268  0.0429 -0.6960  0.1718
  158MOL0     C21234  -2.473  12.964   7.214  0.1345 -0.9426  0.6029
  158MOL0     C21235  -2.575  13.033   7.122  0.5334 -0.3191  0.0916
  158MOL0     C21236  -2.568  13.002   6.975 -0.2289 -0.1823 -0.2965
  158MOL0     C21237  -2.694  13.064   6.905  0.1521 -0.1351 -0.5367
  158MOL0     C21238  -2.677  13.058   6.752 -0.0838 -0.7972  0.0705
  158MOL0     C21239  -2.778  13.141   6.677  0.6991 -0.3581  1.2109
  158MOL0    Cl21240  -2.946  13.112   6.740  0.0410 -0.0054 -0.7186
  158MOL0     C21241  -2.362  12.422   7.461  0.0908  0.1683 -0.7475
  158MOL0     C21242  -2.268  12.315   7.482  0.5282  0.2125 -0.4556
  158MOL0     O21243  -2.074  12.219   7.673 -0.0521 -0.3514  0.7134
  158MOL0     C21244  -1.820  12.077   7.489 -0.8989 -0.1889  0.9210
  158MOL0     C21245  -1.716  11.979   7.489  0.1746 -0.4076  0.8864
  158MOL0     N21246  -1.096  11.696   7.675 -0.3681 -0.6394  0.1251
  158MOL0     N21247  -0.970  11.689   7.631  0.2681  0.3943 -0.1067
  158MOL0     C21248   0.067  11.041   7.153 -0.3599  0.2063 -0.2421
  158MOL0     C21249   0.170  11.005   7.063 -1.1454  0.0853  0.0390
  158MOL0     C21250   0.536  11.128   6.810 -0.0297 -0.4859 -0.8940
  158MOL0     C21251   0.556  11.205   6.697  0.2896 -0.2948  0.0926
  158MOL0     C21252   0.666  11.176   6.615 -0.2076 -0.9913 -0.3016
  158MOL0     C21253   0.758  11.083   6.648  0.8766  0.3542  0.9329
  158MOL0     O21254   0.880  11.085   6.582  0.1793  0.0829  0.0231
  158MOL0     C21255   0.934  10.954   6.563  0.2954 -0.3707 -0.1544
  158MOL0     C21256   1.036  10.973   6.449  0.2784  1.4962  0.3527
  158MOL0     C21257   1.091  10.833   6.419 -0.3360 -0.2165 -0.4009
  158MOL0     C21258   1.204  10.825   6.315  0.1040  0.6357 -0.2447
  158MOL0     C21259   1.184  10.900   6.191 -0.4990  0.1993 -1.0767
  158MOL0     C21260   1.166  10.961   6.090  0.6652 -0.8948 -0.0977
  158MOL0     C21261   0.743  11.003   6.760  0.2585  0.3471 -0.2947
  158MOL0     C21262   0.634  11.027   6.849  0.1003  0.0450 -0.6993
  158MOL0     H21263   0.417  11.213   7.172  0.4196  0.0917 -0.4476
  158MOL0     H21264   0.220  11.281   7.328  4.0603  0.3700 -1.1067
  158MOL0     H21265  -0.163  11.225   7.200 -3.8125 -0.5686  0.5402
  158MOL0     H21266  -0.216  11.109   7.323  0.3804 -0.4354 -0.0487
  158MOL0     H21267  -0.153  11.296   7.483  0.3408 -2.3178 -0.7681
  158MOL0     H21268  -0.123  11.405   7.335 -0.7903  0.6928  0.0023
  158MOL0     H21269  -0.319  11.470   7.390 -0.4371 -0.1293  2.0320
  158MOL0     H21270  -0.347  11.362   7.259  1.5023 -1.5720 -0.1542
  158MOL0     H21271  -0.483  11.214   7.412 -0.0293  0.0218 -1.6952
  158MOL0     H21272  -0.376  11.265   7.549  0.2587 -1.9406 -1.2999
  158MOL0     H21273  -0.471  11.476   7.552  1.1956 -1.6555  2.3902
  158MOL0     H21274  -0.581  11.441   7.413 -0.5004  0.2144  0.9142
  158MOL0     H21275  -0.697  11.256   7.521 -3.5531 -0.5803  3.6047
  158MOL0     H21276  -0.597  11.281   7.663  1.5802 -0.1364 -0.9709
  158MOL0     H21277  -0.777  11.399   7.715  1.6867 -1.3584  0.5751
  158MOL0     H21278  -0.667  11.532   7.651  0.2790 -0.3006  0.2777
  158MOL0     H21279  -0.860  11.410   7.459 -1.9886  2.1224 -1.8536
  158MOL0     H21280  -0.774  11.561   7.451 -0.8978 -2.3994 -2.5288
  158MOL0     H21281  -1.069  11.376   7.616 -0.5763  0.4626  2.0370
  158MOL0     H21282  -1.326  11.458   7.645  0.5738 -1.2212  2.0003
  158MOL0     H21283  -1.295  11.499   7.815 -1.5087  0.9114  0.5717
  158MOL0     H21284  -1.338  11.730   7.764 -2.3811  1.3951 -0.4297
  158MOL0     H21285  -1.484  11.629   7.731 -0.6675  2.0064  0.3172
  158MOL0     H21286  -1.422  11.605   7.491  0.7600 -0.3117  1.8561
  158MOL0     H21287  -1.293  11.716   7.508 -1.3009  0.8335 -3.6186
  158MOL0     H21288  -1.494  11.814   7.406 -1.3967 -0.7090  0.3140
  158MOL0     H21289  -1.455  11.902   7.547 -2.4235  0.5318  1.6282
  158MOL0     H21290  -1.830  11.739   7.673 -1.6407 -0.7925 -2.7649
  158MOL0     H21291  -2.078  11.795   7.726 -1.4407  0.7160 -1.3164
  158MOL0     H21292  -2.056  11.943   7.823  0.0567 -3.5361  2.2889
  158MOL0     H21293  -2.141  11.941   7.664 -0.3503  3.1601  2.0432
  158MOL0     H21294  -1.990  12.425   7.325 -0.4670 -2.8380 -0.2211
  158MOL0     H21295  -2.163  12.619   7.266  1.8442 -1.2638  0.0380
  158MOL0     H21296  -2.336  12.811   7.367  0.0396  1.6657 -0.5164
  158MOL0     H21297  -2.343  12.732   7.199  2.5675 -0.0234  1.5845
  158MOL0     H21298  -2.578  12.781   7.194  1.2379  0.3914 -1.6964
  158MOL0     H21299  -2.581  12.843   7.355  0.1617 -1.9360  0.4192
  158MOL0     H21300  -2.375  12.950   7.167  0.5080  0.8800  0.7608
  158MOL0     H21301  -2.451  13.031   7.297  0.3310  0.2229 -0.3525
  158MOL0     H21302  -2.677  13.018   7.161  1.2762 -2.4537  1.3927
  158MOL0     H21303  -2.557  13.141   7.125  0.0172 -0.2454  1.2724
  158MOL0     H21304  -2.556  12.895   6.952  0.6231 -0.1720  0.0612
  158MOL0     H21305  -2.477  13.050   6.940  0.7985 -0.4542  1.8087
  158MOL0     H21306  -2.783  13.008   6.934  0.7278 -0.9731 -0.3424
  158MOL0     H21307  -2.700  13.169   6.934  1.3313 -0.3282  0.5169
  158MOL0     H21308  -2.674  12.953   6.723  0.8772 -0.5618 -0.7319
  158MOL0     H21309  -2.583  13.108   6.727 -1.9193  2.3273 -1.0784
  158MOL0     H21310  -2.769  13.119   6.570  0.0625  0.7716  0.9083
  158MOL0     H21311  -2.756  13.247   6.693 -0.7742  0.2151 -0.2828
  158MOL0     H21312  -2.462  12.419   7.503 -0.1132  2.2896 -0.9603
  158MOL0     H21313  -2.296  12.230   7.543 -1.1014  0.1406 -1.2696
  158MOL0     H21314  -1.818  12.154   7.412  0.4496 -1.5378 -0.4634
  158MOL0     H21315  -1.639  12.008   7.418 -1.4767 -0.6086 -1.0653
  158MOL0     H21316  -0.030  10.994   7.148  0.3601 -1.2328 -1.5141
  158MOL0     H21317   0.154  10.926   6.991 -0.3924 -2.6984  2.7014
  158MOL0     H21318   0.493  11.284   6.655  2.0488  0.0808 -1.9993
  158MOL0     H21319   0.693  11.242   6.533 -0.3617 -0.7854 -0.1900
  158MOL0     H21320   0.982  10.913   6.653 -2.2151  0.0853  1.4901
  158MOL0     H21321   0.857  10.889   6.520 -1.2899  1.0532  0.4433
  158MOL0     H21322   1.112  11.049   6.470  1.8862  0.2025 -0.5608
  158MOL0     H21323   0.991  11.009   6.356  1.6219  0.2168 -0.8272
  158MOL0     H21324   1.017  10.769   6.371  1.7152 -1.2037 -2.3864
  158MOL0     H21325   1.122  10.803   6.519 -0.5020  3.4908  0.9252
  158MOL0     H21326   1.217  10.720   6.288 -0.7288  0.6897 -0.8865
  158MOL0     H21327   1.299  10.853   6.361 -1.0978  1.4221  1.8775
  158MOL0     H21328   1.161  11.007   5.993 -0.1710 -1.0515 -0.1399
  158MOL0     H21329   0.808  10.930   6.808  0.0403 -1.4852 -2.6254
  158MOL0     H21330   0.638  10.972   6.942  2.4191 -1.4262 -1.5557
  159MOL0     O21331   0.910   4.785   7.871 -0.9678  0.3144  0.3084
  159MOL0     C21332   0.928   4.903   7.837 -0.1082 -1.0685 -0.8155
  159MOL0     O21333   0.855   5.009   7.888  0.2251  0.5272 -0.2178
  159MOL0     C21334   0.738   4.996   7.969 -0.0406 -0.3164 -0.0643
  159MOL0     C21335   0.730   4.903   8.070  1.1448  0.4764 -0.1442
  159MOL0     C21336   0.609   4.890   8.149  0.2527 -0.0264  0.1970
  159MOL0     C21337   0.509   4.989   8.140  0.0846 -0.4135 -0.3477
  159MOL0     O21338   0.403   5.008   8.220  0.1908 -0.0760 -0.1371
  159MOL0     C21339   0.362   4.901   8.303  0.1806  0.4714  0.6254
  159MOL0     C21340   0.238   4.923   8.375  0.4614  0.6238 -0.9341
  159MOL0     C21341   0.125   4.956   8.278  0.6528  0.3623 -0.8184
  159MOL0     C21342   0.066   4.832   8.200 -0.2387  0.4273 -0.3819
  159MOL0     C21343   0.005   4.727   8.301 -0.0153  0.5920  0.4245
  159MOL0     C21344  -0.115   4.649   8.243  0.1373 -0.5490 -0.1931
  159MOL0     C21345  -0.079   4.544   8.133 -0.2320  0.1158  0.0243
  159MOL0     C21346  -0.123   4.600   8.001  0.2404 -0.3967 -0.2665
  159MOL0     N21347  -0.081   4.531   7.875 -0.0485  1.0850  0.4345
  159MOL0     C21348  -0.165   4.444   7.802 -0.6663 -0.5259  0.1742
  159MOL0     C21349  -0.084   4.371   7.727 -0.0192 -0.4136 -0.3035
  159MOL0     C21350  -0.136   4.274   7.617  0.0046 -0.0827 -0.1803
  159MOL0     C21351  -0.284   4.258   7.597 -0.6145 -0.2297 -0.3661
  159MOL0     C21352  -0.341   4.278   7.451 -0.2564  0.4807 -0.1731
  159MOL0     C21353  -0.488   4.246   7.441 -0.2157 -0.8617 -0.4862
  159MOL0     O21354  -0.526   4.117   7.483  0.2898 -1.0654  0.3503
  159MOL0     C21355  -0.667   4.086   7.479 -0.2828  0.1122 -0.4139
  159MOL0     C21356  -0.690   3.957   7.528 -0.2007 -0.6810  0.1879
  159MOL0     C21357  -0.816   3.905   7.546  0.0823  0.0640 -0.0101
  159MOL0     C21358  -0.826   3.762   7.582  0.1299 -1.8969  0.2862
  159MOL0     C21359  -0.925   3.995   7.532 -1.1761  0.0098  0.5012
  159MOL0     C21360  -1.061   3.954   7.571 -0.3291 -0.6241  0.8052
  159MOL0     O21361  -1.157   4.051   7.535  0.0496  0.2898 -0.1744
  159MOL0     C21362  -1.285   4.055   7.589 -0.3461 -0.5945 -0.2464
  159MOL0     C21363  -1.380   4.105   7.500  0.4534 -0.2249 -0.2326
  159MOL0     C21364  -1.513   4.122   7.548  0.4506 -0.5383  0.1176
  159MOL0     C21365  -1.552   4.080   7.674 -0.6195 -0.0793 -0.3022
  159MOL0     O21366  -1.672   4.091   7.727  0.2202  0.5924  0.7457
  159MOL0     C21367  -1.777   4.061   7.627 -0.0091 -0.2582 -0.3983
  159MOL0     C21368  -1.900   4.015   7.705  0.4264  0.6107  0.1385
  159MOL0     C21369  -2.020   4.021   7.606 -0.0081 -0.0879  0.4687
  159MOL0     C21370  -2.131   3.944   7.665  0.7314  1.4359  0.0788
  159MOL0     C21371  -2.245   3.924   7.562  0.1636  0.7095  0.5216
  159MOL0     C21372  -2.363   3.833   7.620 -0.0561 -0.0886 -0.3198
  159MOL0     C21373  -2.473   3.812   7.522 -0.1696 -0.6542 -0.2053
  159MOL0     C21374  -2.605   3.750   7.571  0.4250 -0.5885 -0.1725
  159MOL0    Cl21375  -2.704   3.881   7.639  0.2663  0.1858  0.2597
  159MOL0     C21376  -1.445   4.042   7.759 -0.3167  0.8807  0.4506
  159MOL0     C21377  -1.318   4.024   7.719  0.1691 -0.2675 -0.5130
  159MOL0     O21378  -1.085   3.850   7.617 -0.5353 -0.1419  0.2150
  159MOL0     C21379  -0.896   4.134   7.495  0.1396 -0.4097 -0.9479
  159MOL0     C21380  -0.767   4.174   7.475 -0.6679 -0.0618  0.0323
  159MOL0     N21381   0.046   4.396   7.759 -1.0896  0.1236  1.1275
  159MOL0     N21382   0.043   4.494   7.849  0.4112  0.1695  0.1719
  159MOL0     C21383   0.529   5.097   8.042  0.2387 -0.1898 -0.8495
  159MOL0     C21384   0.646   5.103   7.964  0.8755 -0.9436  0.6639
  159MOL0     C21385   1.039   4.946   7.751 -0.0480  0.3099  0.1672
  159MOL0     C21386   1.135   4.858   7.707  0.9827  0.1529  0.3851
  159MOL0     C21387   1.236   4.896   7.627 -0.0440 -0.1373 -0.5405
  159MOL0     C21388   1.259   5.034   7.612 -0.0471  0.2388 -0.4002
  159MOL0     O21389   1.377   5.079   7.562 -0.0798  0.0282 -0.1305
  159MOL0     C21390   1.427   4.993   7.458 -0.6042 -0.0496  0.1978
  159MOL0     C21391   1.534   5.066   7.376 -0.3292 -0.0563 -0.7919
  159MOL0     C21392   1.606   4.969   7.291  0.3910 -0.1995 -0.0540
  159MOL0     C21393   1.714   4.898   7.370  0.5476 -0.1709 -0.4108
  159MOL0     C21394   1.802   4.824   7.286  0.0187 -0.7733  0.1861
  159MOL0     C21395   1.895   4.785   7.225 -0.2220 -0.1641  0.3428
  159MOL0     C21396   1.168   5.127   7.657 -0.8889 -0.4584  1.7061
  159MOL0     C21397   1.059   5.080   7.722 -0.5955 -0.0424  0.0481
  159MOL0     H21398   0.804   4.824   8.073 -0.4185 -1.0596  0.1113
  159MOL0     H21399   0.605   4.811   8.223  1.4921  0.7616  1.1453
  159MOL0     H21400   0.344   4.813   8.242 -0.3628  0.9309  0.1137
  159MOL0     H21401   0.439   4.887   8.380 -1.7936  1.0270  2.8241
  159MOL0     H21402   0.221   4.832   8.432  1.1248  0.4700 -0.9776
  159MOL0     H21403   0.256   5.008   8.441 -0.4017  0.7357 -0.8383
  159MOL0     H21404   0.041   4.999   8.334 -1.6118 -0.0789 -3.6296
  159MOL0     H21405   0.152   5.033   8.205  0.2357  0.6362 -0.6920
  159MOL0     H21406  -0.014   4.876   8.139  0.1140 -1.4240 -2.3227
  159MOL0     H21407   0.134   4.781   8.130  0.8054  1.2713 -0.0068
  159MOL0     H21408   0.083   4.657   8.331  2.4949  2.0014 -2.2706
  159MOL0     H21409  -0.026   4.770   8.397 -1.8585 -2.7990  1.5155
  159MOL0     H21410  -0.147   4.595   8.333 -1.0512  1.4504  0.6543
  159MOL0     H21411  -0.198   4.715   8.214 -2.5275 -3.3166  0.5922
  159MOL0     H21412   0.031   4.542   8.133 -0.2112  0.2892  1.4977
  159MOL0     H21413  -0.124   4.447   8.155 -3.5978  1.4249 -0.5691
  159MOL0     H21414  -0.094   4.706   7.999 -2.3195  0.3600 -0.0255
  159MOL0     H21415  -0.231   4.597   7.988  0.3113  0.0618 -1.0224
  159MOL0     H21416  -0.273   4.446   7.798 -0.8916 -4.7764  0.0379
  159MOL0     H21417  -0.094   4.306   7.521  0.8741 -0.4497  0.0672
  159MOL0     H21418  -0.097   4.173   7.636 -2.0956 -0.6872  1.3444
  159MOL0     H21419  -0.340   4.328   7.659 -0.3531  0.0398 -0.4343
  159MOL0     H21420  -0.303   4.155   7.628 -1.8069  0.0539 -0.1035
  159MOL0     H21421  -0.287   4.219   7.376 -2.8579  0.4537 -2.1601
  159MOL0     H21422  -0.317   4.381   7.423 -1.2673  0.3362 -1.7097
  159MOL0     H21423  -0.522   4.252   7.337 -1.4853  2.5948 -0.0206
  159MOL0     H21424  -0.543   4.324   7.496 -0.3696  0.4626 -2.4348
  159MOL0     H21425  -0.608   3.886   7.526 -1.7182 -2.5622  0.8767
  159MOL0     H21426  -0.875   3.711   7.499  0.6617  0.7322 -1.8059
  159MOL0     H21427  -0.731   3.708   7.589  1.1348 -0.0193  2.1588
  159MOL0     H21428  -0.870   3.730   7.677 -0.6871 -0.8634  0.2774
  159MOL0     H21429  -1.348   4.134   7.400 -1.2401 -1.0885 -1.0782
  159MOL0     H21430  -1.584   4.160   7.475  2.9029  1.4952 -1.3758
  159MOL0     H21431  -1.803   4.151   7.572 -0.1762 -0.0241  0.0647
  159MOL0     H21432  -1.746   3.979   7.562 -2.2862 -1.8914  0.4435
  159MOL0     H21433  -1.885   3.918   7.753  1.4345  2.8719  4.9412
  159MOL0     H21434  -1.905   4.082   7.791 -0.6714 -0.2136  0.7367
  159MOL0     H21435  -1.981   3.972   7.517 -0.6931 -1.9975  1.1765
  159MOL0     H21436  -2.049   4.125   7.587 -1.5639 -0.4255  0.8750
  159MOL0     H21437  -2.094   3.844   7.692 -0.2152  1.1540  0.3561
  159MOL0     H21438  -2.167   3.987   7.758 -0.4195 -0.9153  0.7986
  159MOL0     H21439  -2.203   3.869   7.477  0.6545 -1.0137  1.8237
  159MOL0     H21440  -2.286   4.021   7.532  0.9736  0.4622 -1.5802
  159MOL0     H21441  -2.318   3.736   7.642  1.3832  0.7417  0.5729
  159MOL0     H21442  -2.394   3.886   7.710  1.0452 -3.1380  2.0299
  159MOL0     H21443  -2.449   3.742   7.442 -1.1375 -1.1904 -0.0513
  159MOL0     H21444  -2.490   3.911   7.478 -0.4790  0.4362  2.2006
  159MOL0     H21445  -2.585   3.684   7.655 -0.8565  1.6048  1.9841
  159MOL0     H21446  -2.657   3.709   7.484 -1.5056  1.6434 -0.1625
  159MOL0     H21447  -1.462   4.013   7.862 -0.2571  0.6857  0.4061
  159MOL0     H21448  -1.227   4.003   7.774  1.4270  2.5660 -1.3255
  159MOL0     H21449  -0.975   4.208   7.501  0.2343 -0.4192  2.5755
  159MOL0     H21450  -0.755   4.281   7.461 -1.7525 -0.0574 -0.9114
  159MOL0     H21451   0.450   5.172   8.038  0.1024 -0.3555 -4.3707
  159MOL0     H21452   0.667   5.191   7.904 -0.7852 -1.3789 -0.6356
  159MOL0     H21453   1.109   4.756   7.734 -1.3117  0.1316 -1.5220
  159MOL0     H21454   1.289   4.815   7.577 -0.0907  0.3691 -1.4196
  159MOL0     H21455   1.463   4.901   7.504  0.2071 -0.2268 -0.7647
  159MOL0     H21456   1.348   4.958   7.391 -2.1149  0.3109  1.7052
  159MOL0     H21457   1.606   5.109   7.446 -2.8658  1.5715  1.0067
  159MOL0     H21458   1.492   5.155   7.328 -2.3926  0.5865  1.8944
  159MOL0     H21459   1.648   5.012   7.200 -0.8737 -2.8137 -2.0117
  159MOL0     H21460   1.539   4.898   7.241  0.0856  2.8838 -4.5831
  159MOL0     H21461   1.660   4.840   7.446  1.7781  0.3360  0.9102
  159MOL0     H21462   1.759   4.972   7.438  0.4675 -1.3887  1.0132
  159MOL0     H21463   1.969   4.743   7.160 -3.6270 -3.6963 -1.6548
  159MOL0     H21464   1.195   5.229   7.633  0.3778 -0.9849  0.7242
  159MOL0     H21465   0.998   5.160   7.765  1.1790  0.4656  1.7662
  160MOL0     O21466   4.529   7.456  10.603 -0.5039 -0.6648 -0.4463
  160MOL0     C21467   4.614   7.378  10.561 -0.7510 -0.0260 -0.3045
  160MOL0     O21468   4.630   7.244  10.589 -0.2730  0.0951  0.5185
  160MOL0     C21469   4.549   7.178  10.676  0.6693  0.8078  0.1919
  160MOL0     C21470   4.419   7.212  10.706  0.9071  0.5779  0.2545
  160MOL0     C21471   4.349   7.128  10.788  0.7276  0.3646  0.2744
  160MOL0     C21472   4.393   7.000  10.824 -0.7103  0.1357  0.1223
  160MOL0     O21473   4.331   6.913  10.911 -0.2339  0.4626  0.2676
  160MOL0     C21474   4.195   6.936  10.929  0.4202  0.4075 -0.1103
  160MOL0     C21475   4.142   6.855  11.044 -0.3253  0.0992  0.4939
  160MOL0     C21476   4.183   6.702  11.044  0.0426 -1.1281 -0.9903
  160MOL0     C21477   4.162   6.623  11.178  0.5045  0.7486  0.3945
  160MOL0     C21478   4.027   6.631  11.231  0.9855 -0.2800  0.6454
  160MOL0     C21479   3.926   6.553  11.134  1.0965 -0.4198  0.0855
  160MOL0     C21480   3.771   6.578  11.161 -0.2326  0.0232  0.8090
  160MOL0     C21481   3.710   6.550  11.305 -0.0472  0.3562  0.3831
  160MOL0     N21482   3.564   6.571  11.291  0.2194  0.3289  0.4426
  160MOL0     C21483   3.499   6.677  11.340 -0.1995 -0.3911  1.1174
  160MOL0     C21484   3.373   6.640  11.332  0.5221 -0.4495 -0.1085
  160MOL0     C21485   3.262   6.733  11.379  0.2835  0.1622  0.2962
  160MOL0     C21486   3.120   6.698  11.335 -0.0256 -0.2800  0.1579
  160MOL0     C21487   3.018   6.782  11.401  0.1808 -0.2114  0.1582
  160MOL0     C21488   2.879   6.719  11.382  0.6377 -0.2372 -0.4756
  160MOL0     O21489   2.789   6.828  11.395 -0.0245  0.3054 -0.1906
  160MOL0     C21490   2.658   6.800  11.415  0.3074 -0.7245  0.3134
  160MOL0     C21491   2.563   6.911  11.424 -1.1457  0.7205  0.6572
  160MOL0     C21492   2.423   6.888  11.445 -0.9339  0.0175 -0.0569
  160MOL0     C21493   2.346   7.006  11.479  0.0800 -0.3911 -0.6485
  160MOL0     C21494   2.367   6.756  11.445 -0.0145  0.0466  0.2912
  160MOL0     C21495   2.217   6.734  11.458 -0.0352 -0.8814  0.0624
  160MOL0     O21496   2.169   6.642  11.550  0.9119 -0.6808  0.4620
  160MOL0     C21497   2.036   6.643  11.578  0.6402 -0.1621  0.3217
  160MOL0     C21498   1.977   6.756  11.637  0.2298 -0.0730  0.7850
  160MOL0     C21499   1.837   6.754  11.671  0.2161  0.7070 -0.8159
  160MOL0     C21500   1.761   6.640  11.650  0.5998 -1.0326 -0.3590
  160MOL0     O21501   1.625   6.634  11.669  0.5849 -0.3271 -0.0675
  160MOL0     C21502   1.565   6.724  11.766 -0.3686 -0.5249 -0.8231
  160MOL0     C21503   1.416   6.679  11.775  0.3000  0.0077 -0.4475
  160MOL0     C21504   1.324   6.797  11.823 -0.3288  0.9456  0.4291
  160MOL0     C21505   1.183   6.744  11.849 -0.5984 -1.1278  1.0253
  160MOL0     C21506   1.077   6.847  11.835  0.1786  0.4485  0.0261
  160MOL0     C21507   0.936   6.787  11.855  0.5237  0.0185 -0.6253
  160MOL0     C21508   0.819   6.879  11.809 -0.2608  0.6686  0.5198
  160MOL0     C21509   0.806   6.978  11.915  0.0471  0.0641  0.1415
  160MOL0    Cl21510   0.677   7.101  11.881 -0.4257  0.2313 -0.0700
  160MOL0     C21511   1.821   6.530  11.582 -0.2102  0.4991  0.5940
  160MOL0     C21512   1.956   6.529  11.559  0.5088 -0.2300  0.7360
  160MOL0     O21513   2.144   6.814  11.395  0.4362 -0.6678 -0.0697
  160MOL0     C21514   2.454   6.653  11.414  0.4544 -0.1454  0.2744
  160MOL0     C21515   2.595   6.674  11.395  0.6907  0.8458  0.7447
  160MOL0     N21516   3.362   6.507  11.302  0.3796 -0.2282  0.2660
  160MOL0     N21517   3.476   6.467  11.274 -0.2296  0.7339  0.6480
  160MOL0     C21518   4.524   6.971  10.791 -0.2091 -0.2780  0.4686
  160MOL0     C21519   4.594   7.053  10.716 -1.1200 -1.2823  1.1462
  160MOL0     C21520   4.737   7.443  10.499  0.5925  0.5446  0.7872
  160MOL0     C21521   4.728   7.575  10.450  0.3670 -0.3368 -0.5166
  160MOL0     C21522   4.840   7.636  10.394 -0.6588 -0.3959 -0.1836
  160MOL0     C21523   4.959   7.561  10.376  0.3957  0.2276 -0.2223
  160MOL0     O21524   5.065   7.619  10.309  0.1661  0.0722 -0.6802
  160MOL0     C21525   5.108   7.736  10.377  0.0336 -0.1726 -0.3364
  160MOL0     C21526   5.241   7.725  10.460  0.3006  0.2051 -0.4517
  160MOL0     C21527   5.244   7.615  10.569  0.2087 -0.3707  0.7650
  160MOL0     C21528   5.187   7.675  10.696 -0.1332  0.0125 -0.5557
  160MOL0     C21529   5.244   7.592  10.803  0.0017 -0.5529 -0.7984
  160MOL0     C21530   5.294   7.512  10.873 -0.0214  0.3983 -0.0295
  160MOL0     C21531   4.965   7.431  10.422 -0.0026 -0.4252 -0.2465
  160MOL0     C21532   4.854   7.373  10.491 -0.5859 -0.6141 -0.1122
  160MOL0     H21533   4.370   7.305  10.679  1.3069  0.4171 -1.1064
  160MOL0     H21534   4.249   7.160  10.813  0.4108  0.3052 -0.8502
  160MOL0     H21535   4.159   7.036  10.953 -0.5058 -0.3432  1.8706
  160MOL0     H21536   4.140   6.891  10.846 -1.2680 -0.2887  1.3066
  160MOL0     H21537   4.177   6.901  11.137 -0.2849  3.0548 -0.8624
  160MOL0     H21538   4.034   6.862  11.033 -0.2421  0.7873 -0.0054
  160MOL0     H21539   4.132   6.649  10.963 -0.6409  1.4954 -2.3976
  160MOL0     H21540   4.291   6.703  11.031  0.8690 -0.2858  4.0356
  160MOL0     H21541   4.186   6.518  11.159 -1.5383  0.2125  0.5243
  160MOL0     H21542   4.230   6.657  11.256 -1.4951  2.8138  1.3611
  160MOL0     H21543   4.023   6.576  11.326  0.4906 -5.3869 -1.9842
  160MOL0     H21544   3.991   6.734  11.231 -4.3214 -1.6827 -3.5758
  160MOL0     H21545   3.944   6.589  11.032 -2.1448 -1.3270 -0.9110
  160MOL0     H21546   3.946   6.446  11.146  3.4107  0.1369  2.1007
  160MOL0     H21547   3.754   6.686  11.159 -1.2082 -0.1231  0.9705
  160MOL0     H21548   3.715   6.521  11.086 -1.7952  0.0783  1.8962
  160MOL0     H21549   3.746   6.624  11.376 -3.3557 -0.0041  2.6513
  160MOL0     H21550   3.740   6.450  11.337  1.3783  0.9445  0.9288
  160MOL0     H21551   3.546   6.772  11.363  0.4217 -0.7812  1.5353
  160MOL0     H21552   3.259   6.722  11.488 -0.2079 -4.5433  0.0279
  160MOL0     H21553   3.282   6.838  11.356  1.3530  0.0825  0.8214
  160MOL0     H21554   3.112   6.591  11.355 -1.3468 -0.1278  0.5636
  160MOL0     H21555   3.123   6.703  11.225  1.8215 -3.7697 -0.0828
  160MOL0     H21556   3.034   6.874  11.343 -0.6158 -1.4865 -2.1803
  160MOL0     H21557   3.035   6.793  11.509 -3.3795  1.8124  0.6570
  160MOL0     H21558   2.847   6.645  11.456 -4.1965  2.1322  0.1973
  160MOL0     H21559   2.862   6.678  11.282  2.7257  1.7401 -1.7592
  160MOL0     H21560   2.599   7.013  11.432 -1.8555  1.1956 -1.4583
  160MOL0     H21561   2.274   6.973  11.554  2.6696  0.8876  2.6688
  160MOL0     H21562   2.408   7.076  11.536 -0.5670  1.2498 -1.8606
  160MOL0     H21563   2.305   7.058  11.392  2.3433 -0.2492 -1.6772
  160MOL0     H21564   2.037   6.846  11.648  0.8471 -0.2388 -0.9073
  160MOL0     H21565   1.796   6.847  11.708  0.1241 -0.1730  1.4744
  160MOL0     H21566   1.621   6.717  11.860  0.6838 -1.3870 -1.4909
  160MOL0     H21567   1.560   6.830  11.739  0.0076  0.2711  1.9471
  160MOL0     H21568   1.381   6.651  11.675  0.6403  1.0148 -0.8610
  160MOL0     H21569   1.416   6.601  11.852  2.5737  3.2525  3.2002
  160MOL0     H21570   1.315   6.869  11.742 -0.0710 -1.6345 -2.0251
  160MOL0     H21571   1.374   6.842  11.910 -0.9844 -1.6564  2.3165
  160MOL0     H21572   1.150   6.667  11.778 -3.1826  1.8489 -1.3077
  160MOL0     H21573   1.184   6.698  11.948  0.1473 -1.6658  0.7759
  160MOL0     H21574   1.077   6.882  11.732 -2.4646  2.0716  0.5032
  160MOL0     H21575   1.097   6.934  11.899  2.2629  1.1107 -1.4227
  160MOL0     H21576   0.926   6.698  11.791 -4.2574 -0.4368  0.4221
  160MOL0     H21577   0.903   6.751  11.953 -0.2585  2.4352  0.0638
  160MOL0     H21578   0.733   6.811  11.805  1.6518 -1.8851 -0.0670
  160MOL0     H21579   0.848   6.924  11.714 -0.6821  2.5692  1.2501
  160MOL0     H21580   0.903   7.025  11.932  1.7104 -1.3057 -4.1170
  160MOL0     H21581   0.766   6.933  12.006  1.3615  0.1465  0.7738
  160MOL0     H21582   1.765   6.443  11.549 -3.7327  2.6093  0.5967
  160MOL0     H21583   1.990   6.438  11.511  3.5329  0.8640  0.5955
  160MOL0     H21584   2.413   6.555  11.390 -0.1542 -0.4217  2.2146
  160MOL0     H21585   2.650   6.586  11.363 -1.3288 -0.6439  1.1575
  160MOL0     H21586   4.564   6.873  10.814  1.3974  0.0483 -0.7209
  160MOL0     H21587   4.692   7.024  10.680 -1.2895 -1.3683  0.7596
  160MOL0     H21588   4.639   7.633  10.472  0.8066  0.7673 -1.4917
  160MOL0     H21589   4.845   7.736  10.354 -1.1452 -1.4748 -3.2269
  160MOL0     H21590   5.139   7.818  10.311  1.5230  1.1075  1.8077
  160MOL0     H21591   5.038   7.774  10.451  1.9813  2.0898  0.4782
  160MOL0     H21592   5.272   7.813  10.516  3.4965 -0.6237 -0.7579
  160MOL0     H21593   5.323   7.720  10.388  2.4462 -1.5202  1.9270
  160MOL0     H21594   5.345   7.576  10.579  0.5976  0.7753  1.6116
  160MOL0     H21595   5.181   7.532  10.536 -0.4097 -0.0274  1.0527
  160MOL0     H21596   5.078   7.671  10.706 -0.2864 -1.4532 -2.4256
  160MOL0     H21597   5.223   7.778  10.708  0.3974 -0.4740  2.9571
  160MOL0     H21598   5.338   7.444  10.944  0.7079 -0.7942 -1.5604
  160MOL0     H21599   5.040   7.359  10.392 -0.2465 -1.2996  1.1720
  160MOL0     H21600   4.869   7.269  10.519  0.9173 -0.5990 -0.7685
  161MOL0     O21601   7.039  10.685   0.013 -0.9205  0.1184 -0.3734
  161MOL0     C21602   7.048  10.805  -0.024 -0.4658  0.0655 -0.2858
  161MOL0     O21603   7.167  10.870  -0.051  0.0238  0.1299 -0.3220
  161MOL0     C21604   7.295  10.827  -0.039 -0.4191  0.8527 -0.6509
  161MOL0     C21605   7.350  10.696  -0.054  0.0284  0.0709  0.4248
  161MOL0     C21606   7.483  10.662  -0.066  0.2887 -0.8505  0.4778
  161MOL0     C21607   7.577  10.760  -0.033 -0.1630 -0.3265  0.5661
  161MOL0     O21608   7.711  10.738  -0.018  0.0315  0.0034  0.4165
  161MOL0     C21609   7.770  10.726  -0.152 -0.2205  0.8245  0.1904
  161MOL0     C21610   7.880  10.618  -0.150  0.1582  0.4202  0.6055
  161MOL0     C21611   7.821  10.494  -0.085  0.6049 -0.2958  0.6618
  161MOL0     C21612   7.878  10.377  -0.169  0.5552  0.7626  0.1372
  161MOL0     C21613   7.887  10.252  -0.077 -0.7503 -0.3401  0.2456
  161MOL0     C21614   7.758  10.188  -0.025  0.3216  0.1772 -0.6975
  161MOL0     C21615   7.675  10.122  -0.136 -0.5855  0.1029  0.2108
  161MOL0     C21616   7.587  10.015  -0.064  0.5259 -0.7958 -0.4434
  161MOL0     N21617   7.467   9.984  -0.132  0.1996 -0.1743  0.0412
  161MOL0     C21618   7.458   9.909  -0.251 -0.8256  0.1923  0.0905
  161MOL0     C21619   7.328   9.899  -0.273 -0.3673 -0.4341 -0.1876
  161MOL0     C21620   7.259   9.818  -0.371 -0.4794  1.1830 -0.2297
  161MOL0     C21621   7.144   9.747  -0.305  0.0756 -0.2073  0.5209
  161MOL0     C21622   7.101   9.640  -0.405  0.3143 -0.1384 -0.7047
  161MOL0     C21623   6.992   9.555  -0.346  0.2313 -0.2326 -1.4305
  161MOL0     O21624   6.937   9.460  -0.438  0.0167  0.7576 -0.0765
  161MOL0     C21625   6.812   9.411  -0.403 -0.4978 -0.1825  0.1341
  161MOL0     C21626   6.700   9.487  -0.372 -0.1267 -0.3315  0.4980
  161MOL0     C21627   6.572   9.424  -0.378 -0.2074  0.8335 -0.0919
  161MOL0     C21628   6.443   9.499  -0.359  0.4197  0.4152  0.5752
  161MOL0     C21629   6.562   9.281  -0.407 -0.1521 -0.5539 -0.2074
  161MOL0     C21630   6.429   9.200  -0.413  0.0823 -0.6301  0.9773
  161MOL0     O21631   6.311   9.267  -0.430  0.5019 -0.3671  0.1373
  161MOL0     C21632   6.192   9.196  -0.422  0.2747 -0.8829  0.6175
  161MOL0     C21633   6.133   9.157  -0.550 -0.3304 -0.2267  0.1312
  161MOL0     C21634   6.011   9.083  -0.557  0.5814  0.3275  0.3667
  161MOL0     C21635   5.945   9.055  -0.431  0.0886 -0.9481 -0.4526
  161MOL0     O21636   5.827   8.991  -0.418  0.3566  0.3862  0.6246
  161MOL0     C21637   5.785   8.898  -0.519 -0.4345 -0.9019 -0.1411
  161MOL0     C21638   5.686   8.960  -0.621 -0.1344  0.3517  0.0330
  161MOL0     C21639   5.643   8.853  -0.717  0.2503  1.0665  0.0378
  161MOL0     C21640   5.516   8.875  -0.791 -0.1812  0.0711 -0.0540
  161MOL0     C21641   5.464   8.749  -0.863 -0.1222 -0.4070  0.8853
  161MOL0     C21642   5.409   8.630  -0.778 -0.4930  0.0256  0.9215
  161MOL0     C21643   5.303   8.669  -0.683  0.7574 -0.3555  0.9275
  161MOL0     C21644   5.262   8.552  -0.587 -0.7656  0.2928  0.1783
  161MOL0    Cl21645   5.166   8.424  -0.671 -0.0077 -0.0450  0.5024
  161MOL0     C21646   6.011   9.087  -0.311  0.2976  0.9566 -0.5124
  161MOL0     C21647   6.134   9.158  -0.303 -0.2941  0.2469  0.1808
  161MOL0     O21648   6.435   9.082  -0.402 -0.1437  0.1528 -0.3395
  161MOL0     C21649   6.681   9.219  -0.437 -0.3040  0.5337 -0.5999
  161MOL0     C21650   6.804   9.277  -0.435 -0.6728 -0.3467 -0.2482
  161MOL0     N21651   7.259   9.972  -0.172  1.2777 -0.1196  0.1942
  161MOL0     N21652   7.346  10.028  -0.093 -0.1237  0.7005  0.1139
  161MOL0     C21653   7.528  10.887  -0.005 -0.6274 -0.4503  0.0639
  161MOL0     C21654   7.393  10.927  -0.011 -0.2275  0.2486  0.2065
  161MOL0     C21655   6.927  10.892  -0.019  0.5935 -0.9243  0.0357
  161MOL0     C21656   6.798  10.841   0.017  0.0970 -0.2077  0.6962
  161MOL0     C21657   6.689  10.928   0.012  0.0750  0.2472 -0.4711
  161MOL0     C21658   6.700  11.065  -0.005 -0.0438 -0.4122  0.2723
  161MOL0     O21659   6.592  11.150   0.018 -0.7285  0.1400 -0.1459
  161MOL0     C21660   6.473  11.129  -0.047  0.5205  0.0383  0.3099
  161MOL0     C21661   6.374  11.234   0.008  0.4334  0.2692 -0.2519
  161MOL0     C21662   6.232  11.184  -0.024  0.0065 -0.4263  0.0514
  161MOL0     C21663   6.176  11.215  -0.163 -0.4286  0.1589  0.1471
  161MOL0     C21664   6.240  11.137  -0.266 -0.3712  0.1376  0.2780
  161MOL0     C21665   6.303  11.071  -0.356  0.3136 -0.7481 -0.2371
  161MOL0     C21666   6.823  11.114  -0.038  0.4092 -0.6343  1.1250
  161MOL0     C21667   6.934  11.022  -0.061 -0.1245 -0.2082 -0.3067
  161MOL0     H21668   7.281  10.618  -0.084 -0.7339  1.1554 -0.7479
  161MOL0     H21669   7.507  10.558  -0.091  0.7150 -0.8409  0.8309
  161MOL0     H21670   7.691  10.702  -0.224  0.4755 -1.7135  0.1836
  161MOL0     H21671   7.816  10.821  -0.180  1.4712  0.5949  1.9765
  161MOL0     H21672   7.918  10.604  -0.252  0.2984 -2.6234  0.9593
  161MOL0     H21673   7.958  10.651  -0.081 -1.3569  1.6378  1.7815
  161MOL0     H21674   7.836  10.477   0.022 -2.1450  1.9350  1.5397
  161MOL0     H21675   7.714  10.485  -0.106  1.1098 -2.2514 -1.4812
  161MOL0     H21676   7.811  10.363  -0.254  1.5163 -1.6316 -0.3009
  161MOL0     H21677   7.974  10.408  -0.209 -0.3257 -0.1042 -2.8876
  161MOL0     H21678   7.924  10.171  -0.141  0.1810  0.8761 -0.8230
  161MOL0     H21679   7.962  10.258   0.003 -0.2866 -1.4090 -0.0857
  161MOL0     H21680   7.774  10.107   0.046  0.3971 -2.0453 -3.1208
  161MOL0     H21681   7.703  10.272   0.020 -1.0394  0.7151 -3.2115
  161MOL0     H21682   7.613  10.195  -0.189  0.3242  1.5259  1.0262
  161MOL0     H21683   7.744  10.070  -0.204  0.2710  0.8117  0.5110
  161MOL0     H21684   7.554  10.070   0.024  0.5625  1.4765 -1.7618
  161MOL0     H21685   7.640   9.920  -0.059 -1.3875 -1.9975 -1.5858
  161MOL0     H21686   7.533   9.863  -0.313  0.2114  1.2017  0.5589
  161MOL0     H21687   7.238   9.883  -0.457 -0.5152  1.2108 -0.2005
  161MOL0     H21688   7.337   9.746  -0.397 -0.7520  0.0901  1.8151
  161MOL0     H21689   7.058   9.814  -0.299  1.3032  1.7735 -2.2052
  161MOL0     H21690   7.175   9.703  -0.210  0.3571  0.8343  0.9174
  161MOL0     H21691   7.176   9.574  -0.449  2.4947  1.4864  0.3746
  161MOL0     H21692   7.046   9.684  -0.489  0.0201  0.1032 -0.3884
  161MOL0     H21693   6.920   9.623  -0.301  2.7686  1.9578 -0.3860
  161MOL0     H21694   7.035   9.498  -0.264  0.7406  0.9095 -0.8799
  161MOL0     H21695   6.702   9.590  -0.337  3.9524 -0.3300  0.6913
  161MOL0     H21696   6.383   9.454  -0.279  2.3750 -0.7817  1.4484
  161MOL0     H21697   6.455   9.598  -0.314  2.3755 -0.3444  1.8589
  161MOL0     H21698   6.382   9.501  -0.449 -1.9984 -1.8961  2.0291
  161MOL0     H21699   6.184   9.177  -0.643 -0.4495 -3.6200 -0.7746
  161MOL0     H21700   5.972   9.070  -0.657  0.6235  0.6930  0.3043
  161MOL0     H21701   5.863   8.849  -0.579  0.8058  2.4267 -1.4916
  161MOL0     H21702   5.736   8.814  -0.469  1.3345 -1.0641  1.4507
  161MOL0     H21703   5.603   9.002  -0.563 -0.7775  0.7925 -1.1675
  161MOL0     H21704   5.733   9.039  -0.681  1.5407 -0.3262  0.4051
  161MOL0     H21705   5.639   8.759  -0.661  0.4236  0.2359 -1.2938
  161MOL0     H21706   5.722   8.836  -0.791 -0.1014  0.1760 -0.1528
  161MOL0     H21707   5.448   8.924  -0.720 -0.4351 -0.9559  0.4355
  161MOL0     H21708   5.539   8.937  -0.878 -1.3852 -0.3703 -0.7053
  161MOL0     H21709   5.557   8.709  -0.905 -0.6588  1.4545 -2.4371
  161MOL0     H21710   5.396   8.774  -0.944 -0.6481  1.5758  1.8577
  161MOL0     H21711   5.376   8.568  -0.862 -0.0392  1.8929 -0.7386
  161MOL0     H21712   5.485   8.581  -0.716  1.5150 -0.4706 -1.7045
  161MOL0     H21713   5.215   8.694  -0.744 -0.2489 -0.9131  2.1204
  161MOL0     H21714   5.335   8.754  -0.622 -0.5381 -1.1513  2.7949
  161MOL0     H21715   5.212   8.586  -0.496 -0.9180  0.5018  0.0148
  161MOL0     H21716   5.350   8.499  -0.547 -0.7546 -0.9669 -1.4019
  161MOL0     H21717   5.967   9.041  -0.223  3.3152 -0.4943  0.3654
  161MOL0     H21718   6.183   9.184  -0.210  1.5113  2.4031 -1.2713
  161MOL0     H21719   6.681   9.115  -0.467 -0.0382  0.1211  0.7520
  161MOL0     H21720   6.892   9.219  -0.460 -0.5884  0.2328 -1.3187
  161MOL0     H21721   7.600  10.965   0.016 -0.3520 -0.4132 -0.9694
  161MOL0     H21722   7.361  11.027   0.015  0.5014  1.5502 -3.2816
  161MOL0     H21723   6.789  10.736   0.041 -1.0639 -1.3141 -3.6447
  161MOL0     H21724   6.590  10.889   0.037  0.9207 -1.6341  0.0928
  161MOL0     H21725   6.486  11.142  -0.155 -1.4555 -1.3044 -0.1584
  161MOL0     H21726   6.440  11.026  -0.030  0.3663 -0.1141 -0.8488
  161MOL0     H21727   6.401  11.324  -0.048 -0.1338 -0.7607 -2.2682
  161MOL0     H21728   6.382  11.252   0.115 -3.8488  0.1862  0.2594
  161MOL0     H21729   6.163  11.227   0.049 -1.0348 -2.3249  0.2636
  161MOL0     H21730   6.222  11.076  -0.008 -2.6600 -0.0946  1.1448
  161MOL0     H21731   6.180  11.322  -0.187 -0.3399  0.4256  1.3064
  161MOL0     H21732   6.072  11.179  -0.164 -0.6904  0.7693  1.8538
  161MOL0     H21733   6.362  11.047  -0.443  3.4812  4.1401  0.1628
  161MOL0     H21734   6.837  11.220  -0.059  0.5322 -0.9083 -0.2450
  161MOL0     H21735   7.026  11.057  -0.107 -0.0891  1.1134  0.7263
  162MOL0     O21736   4.159   6.530   6.098 -0.5183 -0.9228 -0.0329
  162MOL0     C21737   4.153   6.604   6.000  0.4141 -0.0433 -1.0536
  162MOL0     O21738   4.245   6.618   5.901  0.5928 -1.0388 -0.2090
  162MOL0     C21739   4.342   6.528   5.889  0.0442 -0.8103  0.3140
  162MOL0     C21740   4.446   6.508   5.985  0.0352 -0.5944  0.0686
  162MOL0     C21741   4.555   6.426   5.958  0.3121 -0.1977  0.3066
  162MOL0     C21742   4.568   6.367   5.831 -0.8867  0.5339  0.1021
  162MOL0     O21743   4.678   6.279   5.826  0.1645  0.6031  0.5980
  162MOL0     C21744   4.715   6.217   5.699 -0.4255  0.3288 -0.3825
  162MOL0     C21745   4.830   6.116   5.737  0.4493  0.3867 -0.5401
  162MOL0     C21746   4.961   6.172   5.792  0.6731 -0.9358 -0.1946
  162MOL0     C21747   5.079   6.079   5.781 -0.1249  0.6950 -1.1589
  162MOL0     C21748   5.222   6.143   5.767  0.0509 -0.5952 -0.3198
  162MOL0     C21749   5.343   6.061   5.827 -0.3254 -0.5324 -0.1362
  162MOL0     C21750   5.477   6.136   5.791  0.2944  0.5222 -0.5811
  162MOL0     C21751   5.521   6.239   5.904 -0.3188  0.0289  0.3458
  162MOL0     N21752   5.453   6.368   5.915  0.1238  0.4966  0.3033
  162MOL0     C21753   5.460   6.461   5.812 -0.4297  0.0582 -0.1494
  162MOL0     C21754   5.395   6.563   5.860  0.2149  0.1502  0.5059
  162MOL0     C21755   5.329   6.667   5.773  0.6871 -0.2381  0.9571
  162MOL0     C21756   5.194   6.611   5.707  0.1851  0.2433 -0.3039
  162MOL0     C21757   5.075   6.614   5.801  0.3198  0.8109  0.9511
  162MOL0     C21758   4.948   6.553   5.733  0.0385  0.1708  0.1768
  162MOL0     O21759   4.902   6.648   5.633  0.1567 -0.5727 -0.3140
  162MOL0     C21760   4.779   6.691   5.615  0.2700 -0.0224  0.2487
  162MOL0     C21761   4.763   6.747   5.494 -0.1343  0.6286  0.5906
  162MOL0     C21762   4.639   6.797   5.449 -0.2789  0.2980  1.0865
  162MOL0     C21763   4.632   6.831   5.301  0.1901 -0.9208 -1.6527
  162MOL0     C21764   4.523   6.786   5.536  0.0657 -0.0781 -0.5037
  162MOL0     C21765   4.379   6.835   5.517 -0.6794 -0.2208  0.2407
  162MOL0     O21766   4.277   6.788   5.601  0.0618 -0.2316  0.5711
  162MOL0     C21767   4.157   6.806   5.546 -0.0248 -0.1748  0.7364
  162MOL0     C21768   4.099   6.692   5.477 -0.4018  0.3368 -0.6854
  162MOL0     C21769   3.959   6.692   5.447 -0.6054 -0.4569 -0.1681
  162MOL0     C21770   3.873   6.799   5.481 -0.1664 -0.6766  0.5927
  162MOL0     O21771   3.740   6.808   5.432 -0.5620  0.1379  0.3455
  162MOL0     C21772   3.668   6.931   5.448 -0.3716  0.3408  0.1838
  162MOL0     C21773   3.531   6.925   5.379 -0.4726 -0.2776  1.2537
  162MOL0     C21774   3.548   6.904   5.228 -0.0280 -0.7147  0.6086
  162MOL0     C21775   3.426   6.860   5.147  0.4728  0.0255  0.8301
  162MOL0     C21776   3.334   6.972   5.099  0.6886  0.2361  0.0280
  162MOL0     C21777   3.190   6.916   5.060 -0.0900  0.5395 -0.1498
  162MOL0     C21778   3.106   7.015   4.978 -0.0086 -0.1747  0.3108
  162MOL0     C21779   2.963   6.987   5.009  0.2254 -0.0228  0.6364
  162MOL0    Cl21780   2.883   7.122   4.936  0.0095  0.0889 -0.2239
  162MOL0     C21781   3.935   6.910   5.541 -0.3259 -0.4140  0.1176
  162MOL0     C21782   4.072   6.910   5.587 -0.5850  0.2509 -0.1394
  162MOL0     O21783   4.366   6.929   5.439 -0.4675 -0.0912 -0.6902
  162MOL0     C21784   4.544   6.748   5.676 -0.1152 -0.3537  0.0025
  162MOL0     C21785   4.673   6.691   5.708 -0.3671 -0.2704 -0.0246
  162MOL0     N21786   5.358   6.550   5.989  0.1933  0.5896 -0.2970
  162MOL0     N21787   5.401   6.430   6.025 -0.0791  0.1861  0.4035
  162MOL0     C21788   4.474   6.386   5.730 -0.1713 -1.0105  0.4101
  162MOL0     C21789   4.370   6.475   5.760 -0.1332 -0.0703  0.1029
  162MOL0     C21790   4.049   6.711   6.003 -0.7551  0.1582  1.3929
  162MOL0     C21791   4.014   6.783   5.887 -0.2694 -0.0223 -0.0661
  162MOL0     C21792   3.898   6.859   5.887  0.6265  0.1257  0.1367
  162MOL0     C21793   3.811   6.875   6.000 -1.0467  0.7871 -0.4239
  162MOL0     O21794   3.701   6.955   5.987  0.1534 -0.3584  0.2221
  162MOL0     C21795   3.632   6.993   6.103  0.3200 -0.2677 -1.2336
  162MOL0     C21796   3.542   7.118   6.067 -0.0484  0.4169 -0.2949
  162MOL0     C21797   3.452   7.166   6.189 -0.7445 -1.2162 -0.1477
  162MOL0     C21798   3.507   7.290   6.261  0.4436  0.1184 -0.6085
  162MOL0     C21799   3.647   7.289   6.292 -0.0891 -0.2037 -0.1363
  162MOL0     C21800   3.760   7.298   6.297 -0.6324 -0.7083  0.5571
  162MOL0     C21801   3.860   6.806   6.112  0.1349  0.3962  0.2425
  162MOL0     C21802   3.974   6.732   6.117 -0.5158 -0.4360 -0.3939
  162MOL0     H21803   4.440   6.551   6.084 -0.0326 -0.3225 -0.0508
  162MOL0     H21804   4.622   6.403   6.040 -0.5148 -1.8313  0.5611
  162MOL0     H21805   4.626   6.166   5.660  0.1939 -0.5227 -0.7063
  162MOL0     H21806   4.748   6.292   5.627 -3.0476  0.4089 -1.6297
  162MOL0     H21807   4.786   6.042   5.803  0.5451 -2.7279 -3.6809
  162MOL0     H21808   4.854   6.059   5.647 -1.3903 -1.6972  0.2136
  162MOL0     H21809   4.978   6.267   5.741 -4.5609  1.1224  1.3076
  162MOL0     H21810   4.947   6.202   5.896 -0.3583 -1.2513 -0.2336
  162MOL0     H21811   5.067   6.027   5.876 -0.2704  2.0660 -0.3976
  162MOL0     H21812   5.075   6.000   5.706  2.7004 -2.0786  1.3374
  162MOL0     H21813   5.242   6.169   5.662  2.1478  1.3198  0.4545
  162MOL0     H21814   5.224   6.241   5.816  1.1956 -1.0257  0.5481
  162MOL0     H21815   5.333   6.039   5.933 -1.7609 -0.9529 -0.3434
  162MOL0     H21816   5.357   5.966   5.774 -1.0245 -0.6828 -0.0530
  162MOL0     H21817   5.559   6.064   5.792  0.7168  0.9907  0.7832
  162MOL0     H21818   5.471   6.186   5.694  2.8636 -1.9504 -2.1460
  162MOL0     H21819   5.627   6.262   5.897 -0.4853  0.4596 -1.0056
  162MOL0     H21820   5.500   6.191   6.001  3.1277 -1.0824  0.6764
  162MOL0     H21821   5.500   6.440   5.714 -1.6948 -1.6848 -0.3272
  162MOL0     H21822   5.313   6.760   5.829  0.0149 -1.3018  2.6114
  162MOL0     H21823   5.391   6.698   5.689  2.3024 -1.4604  1.6426
  162MOL0     H21824   5.201   6.509   5.670  0.0526 -0.5088  1.6358
  162MOL0     H21825   5.172   6.673   5.620 -1.2932  0.0916 -0.0494
  162MOL0     H21826   5.059   6.717   5.834 -1.5692  0.4718  1.2199
  162MOL0     H21827   5.102   6.553   5.888  0.6539  0.7419  0.7985
  162MOL0     H21828   4.883   6.536   5.819  0.6884  0.9397  0.8256
  162MOL0     H21829   4.964   6.465   5.669 -0.8565 -0.0493  0.2412
  162MOL0     H21830   4.846   6.754   5.425 -0.9356  0.9185 -0.3755
  162MOL0     H21831   4.642   6.940   5.296 -1.9171 -0.5252  0.6555
  162MOL0     H21832   4.700   6.786   5.227 -0.8456 -2.6207 -1.6181
  162MOL0     H21833   4.526   6.822   5.274 -0.8777 -1.1904  2.1629
  162MOL0     H21834   4.159   6.612   5.434  2.3333  2.7085 -1.6448
  162MOL0     H21835   3.926   6.620   5.373  1.1205  1.6926 -3.2492
  162MOL0     H21836   3.643   6.958   5.551 -1.6278 -0.4720  0.1174
  162MOL0     H21837   3.729   7.000   5.389 -0.1311  0.3065  0.3938
  162MOL0     H21838   3.463   6.855   5.427  0.9327 -0.4421  3.1387
  162MOL0     H21839   3.485   7.024   5.379  0.4005  0.1432  2.2781
  162MOL0     H21840   3.634   6.840   5.206  0.4183 -0.9729  2.8973
  162MOL0     H21841   3.575   7.003   5.190  2.1037 -2.1893 -2.1258
  162MOL0     H21842   3.456   6.789   5.069 -0.0395 -1.1516  1.6614
  162MOL0     H21843   3.367   6.800   5.217 -1.5736  0.1107 -0.7167
  162MOL0     H21844   3.374   7.028   5.014 -1.8145  2.6191  0.2999
  162MOL0     H21845   3.330   7.048   5.177  2.1553  0.5766 -0.1924
  162MOL0     H21846   3.213   6.829   4.998  0.3663  0.4093  0.1989
  162MOL0     H21847   3.142   6.881   5.152 -2.5267 -0.5301 -1.7278
  162MOL0     H21848   3.129   6.993   4.873  0.7909  1.2271  0.1721
  162MOL0     H21849   3.140   7.117   4.998 -1.1489  0.6865 -1.8088
  162MOL0     H21850   2.948   6.983   5.117  0.9934 -1.5990  0.7074
  162MOL0     H21851   2.933   6.886   4.980  1.2614  0.0192 -0.7051
  162MOL0     H21852   3.874   6.991   5.581  0.5425  0.1098  0.4197
  162MOL0     H21853   4.115   6.979   5.659 -0.3391  0.1428 -0.1796
  162MOL0     H21854   4.473   6.750   5.758 -1.3871  3.1367 -0.9985
  162MOL0     H21855   4.695   6.646   5.804  1.1927 -1.7837 -1.0273
  162MOL0     H21856   4.480   6.327   5.639 -0.6804 -0.4283 -0.0039
  162MOL0     H21857   4.296   6.495   5.683 -3.0564  4.1067  3.5031
  162MOL0     H21858   4.069   6.771   5.794 -1.0612  0.7623 -0.6515
  162MOL0     H21859   3.874   6.910   5.794 -0.9386 -1.0936 -0.1673
  162MOL0     H21860   3.560   6.920   6.141 -2.8386  3.2758  0.1722
  162MOL0     H21861   3.698   7.019   6.186 -0.3176  0.1637 -0.8566
  162MOL0     H21862   3.483   7.090   5.979 -1.0580  1.2588  0.1033
  162MOL0     H21863   3.612   7.198   6.041  2.5479 -1.8784 -0.8671
  162MOL0     H21864   3.458   7.092   6.270 -0.1623  0.3764  1.3190
  162MOL0     H21865   3.348   7.189   6.164 -1.0658 -1.9291  0.5040
  162MOL0     H21866   3.445   7.308   6.349  1.9603 -1.7041  0.9210
  162MOL0     H21867   3.502   7.378   6.197 -0.9666  1.9886  1.9080
  162MOL0     H21868   3.867   7.300   6.303 -0.5560 -0.4155 -0.6028
  162MOL0     H21869   3.801   6.812   6.202 -3.8257  0.9184 -2.1308
  162MOL0     H21870   4.013   6.705   6.215 -4.1983  0.5447  1.5258
  163MOL0     O21871   6.089   1.493   6.608  0.3523  0.1790 -0.1060
  163MOL0     C21872   6.135   1.596   6.659  0.4902  0.4204 -0.6667
  163MOL0     O21873   6.058   1.696   6.722  0.1520 -0.2647  0.0360
  163MOL0     C21874   5.928   1.675   6.739 -0.6222 -0.0302  0.0640
  163MOL0     C21875   5.870   1.640   6.857 -0.2939  0.1705  0.2362
  163MOL0     C21876   5.736   1.603   6.863 -0.2692 -0.0246 -0.1534
  163MOL0     C21877   5.654   1.620   6.751 -0.0017  0.2725  0.7646
  163MOL0     O21878   5.522   1.593   6.746  0.6681  0.6257  0.3075
  163MOL0     C21879   5.439   1.604   6.863  0.4185 -0.1867 -0.6557
  163MOL0     C21880   5.293   1.602   6.817  0.1494  0.1223 -0.2237
  163MOL0     C21881   5.198   1.580   6.937 -0.1200  0.0018  1.2734
  163MOL0     C21882   5.063   1.596   6.885  0.5890  0.6979 -0.2936
  163MOL0     C21883   4.994   1.730   6.934 -0.2137  0.2034  0.1244
  163MOL0     C21884   4.864   1.736   6.863  0.3288 -0.0970  0.5414
  163MOL0     C21885   4.793   1.877   6.866  0.6481  0.5189  0.4079
  163MOL0     C21886   4.761   1.920   7.009 -2.1752  0.4941  0.6407
  163MOL0     N21887   4.655   2.015   7.020  0.6488 -0.0857 -0.0219
  163MOL0     C21888   4.525   1.985   6.986 -0.5575 -0.1423  0.6352
  163MOL0     C21889   4.460   2.105   6.988  0.4869 -0.3751  0.2332
  163MOL0     C21890   4.325   2.119   6.941  0.3606 -0.0071  0.0459
  163MOL0     C21891   4.242   2.187   7.056 -0.9612 -0.0225  0.1008
  163MOL0     C21892   4.100   2.192   7.003 -0.2021 -0.4684  0.2133
  163MOL0     C21893   4.019   2.268   7.102  0.6806 -0.7623 -0.0408
  163MOL0     O21894   3.903   2.334   7.042  0.3595 -0.1899 -0.7701
  163MOL0     C21895   3.840   2.434   7.114 -0.8094  0.5413  0.2100
  163MOL0     C21896   3.725   2.489   7.045 -0.1485 -0.6160 -0.0839
  163MOL0     C21897   3.644   2.588   7.093  1.1136 -0.1437 -0.5785
  163MOL0     C21898   3.534   2.626   7.000  0.7987  0.3300  0.2876
  163MOL0     C21899   3.661   2.626   7.230  0.1965 -0.8008 -0.3790
  163MOL0     C21900   3.576   2.728   7.304 -0.6901  0.6278  0.1370
  163MOL0     O21901   3.445   2.728   7.267 -1.3726 -0.1827 -0.8190
  163MOL0     C21902   3.371   2.820   7.335  0.0045  0.5312 -0.4826
  163MOL0     C21903   3.292   2.771   7.437  0.9491 -0.3742 -0.1500
  163MOL0     C21904   3.192   2.857   7.491 -0.4512  0.2475 -0.5313
  163MOL0     C21905   3.185   2.995   7.454  0.3178 -0.5046 -0.1036
  163MOL0     O21906   3.091   3.084   7.500  0.0651  0.0431 -0.1712
  163MOL0     C21907   2.993   3.138   7.415 -0.1859  0.3120 -0.4466
  163MOL0     C21908   2.922   3.051   7.321 -0.0966  0.0808  0.2239
  163MOL0     C21909   2.783   3.116   7.281 -0.1465  0.6122  0.4875
  163MOL0     C21910   2.729   3.044   7.157 -0.0296  1.1245 -0.6730
  163MOL0     C21911   2.591   3.086   7.111 -0.0660 -0.4919  0.3794
  163MOL0     C21912   2.550   3.237   7.095 -0.9234  0.7153  0.3140
  163MOL0     C21913   2.422   3.249   7.013  0.4275 -0.1927 -0.9408
  163MOL0     C21914   2.391   3.398   6.991 -0.9499  0.3713 -0.3061
  163MOL0    Cl21915   2.238   3.391   6.896 -0.0795  0.5320 -0.3681
  163MOL0     C21916   3.294   3.047   7.371 -0.2355 -0.1246  0.0962
  163MOL0     C21917   3.385   2.961   7.320 -0.8319  0.6089  0.6267
  163MOL0     O21918   3.631   2.790   7.398  0.3369 -0.5084  0.2793
  163MOL0     C21919   3.771   2.572   7.304  0.3489  0.7931  0.5505
  163MOL0     C21920   3.855   2.476   7.246 -0.3476 -0.3869  0.0675
  163MOL0     N21921   4.550   2.200   7.022  0.5710 -0.0868  0.9784
  163MOL0     N21922   4.668   2.147   7.043 -0.9953  0.2564  0.3799
  163MOL0     C21923   5.714   1.674   6.633  0.7372 -0.1191  0.4957
  163MOL0     C21924   5.848   1.697   6.625  0.8289 -1.0174 -0.2961
  163MOL0     C21925   6.281   1.601   6.677 -0.6257 -0.7294  0.5164
  163MOL0     C21926   6.345   1.725   6.692  0.7587  0.8645  0.2207
  163MOL0     C21927   6.477   1.740   6.702 -0.5667  0.3022 -0.3831
  163MOL0     C21928   6.567   1.635   6.698 -0.3299 -0.5059 -0.8950
  163MOL0     O21929   6.705   1.658   6.713  0.1307 -0.2390  0.5030
  163MOL0     C21930   6.768   1.684   6.589  0.8116 -0.0646  0.2542
  163MOL0     C21931   6.853   1.559   6.556 -1.0503 -0.1763  0.7206
  163MOL0     C21932   6.990   1.593   6.482  1.0778  0.9331 -0.2967
  163MOL0     C21933   6.977   1.644   6.340 -0.0734 -0.1518 -0.0847
  163MOL0     C21934   6.870   1.584   6.265 -0.2463 -0.5415  0.8005
  163MOL0     C21935   6.781   1.562   6.176 -0.1680 -0.2448  0.0132
  163MOL0     C21936   6.518   1.503   6.691  0.2925  0.4459  0.4374
  163MOL0     C21937   6.371   1.486   6.670 -0.8329 -0.4177 -1.2746
  163MOL0     H21938   5.945   1.635   6.936 -0.7492 -0.4344  0.6355
  163MOL0     H21939   5.683   1.580   6.955 -2.0332  0.3698 -1.0297
  163MOL0     H21940   5.461   1.519   6.928  1.6696 -0.1832 -1.0511
  163MOL0     H21941   5.458   1.698   6.916 -1.4959 -0.2769  0.2457
  163MOL0     H21942   5.278   1.697   6.765  3.6465  0.3635 -1.0257
  163MOL0     H21943   5.283   1.524   6.742  1.4860 -0.8620  0.5770
  163MOL0     H21944   5.212   1.478   6.977 -0.3678  0.2379  1.9776
  163MOL0     H21945   5.223   1.649   7.019 -0.2122  1.1952  0.3161
  163MOL0     H21946   5.054   1.581   6.777  1.4780 -0.3145 -0.2497
  163MOL0     H21947   4.998   1.515   6.920 -0.2606  1.2639 -0.5352
  163MOL0     H21948   4.987   1.722   7.043  1.1673  2.4789  0.4327
  163MOL0     H21949   5.054   1.821   6.925 -0.9313  0.4722 -3.1280
  163MOL0     H21950   4.872   1.713   6.757  0.2954 -0.5428  0.6359
  163MOL0     H21951   4.796   1.659   6.900 -0.3331 -0.8365 -2.0165
  163MOL0     H21952   4.870   1.948   6.833  0.9100  0.6993  1.3617
  163MOL0     H21953   4.707   1.883   6.799  0.5974  1.2119  0.5226
  163MOL0     H21954   4.850   1.967   7.052 -1.1957  0.3107 -1.1309
  163MOL0     H21955   4.733   1.829   7.062  0.9202 -1.2880 -0.5542
  163MOL0     H21956   4.474   1.892   6.963 -2.6269  0.9384  0.5612
  163MOL0     H21957   4.314   2.182   6.852 -1.3342  0.5399  0.6188
  163MOL0     H21958   4.274   2.025   6.920 -1.1958  0.6313  0.8441
  163MOL0     H21959   4.274   2.286   7.090 -2.1851  0.7421 -0.8688
  163MOL0     H21960   4.248   2.123   7.143  0.4550  0.9616  0.7627
  163MOL0     H21961   4.050   2.096   6.989  1.0091 -1.2818  1.2523
  163MOL0     H21962   4.105   2.249   6.910 -0.2077 -3.1938 -1.5679
  163MOL0     H21963   4.073   2.340   7.164 -0.8730 -0.2092  0.7192
  163MOL0     H21964   3.990   2.193   7.176 -1.9087 -0.6545 -0.8442
  163MOL0     H21965   3.697   2.453   6.947  1.2500 -0.6640 -0.4892
  163MOL0     H21966   3.471   2.702   7.047  2.0219  1.3856  0.2862
  163MOL0     H21967   3.573   2.660   6.903  2.0745 -1.1703  0.2442
  163MOL0     H21968   3.463   2.545   6.982 -1.8678  2.0426  2.2917
  163MOL0     H21969   3.289   2.668   7.470  2.1148 -0.5668 -0.5949
  163MOL0     H21970   3.115   2.830   7.562 -0.4925 -0.9969 -1.0251
  163MOL0     H21971   2.923   3.189   7.482  0.2482  0.3301  0.0016
  163MOL0     H21972   3.033   3.226   7.363 -0.1757  3.0772  3.7327
  163MOL0     H21973   2.985   3.030   7.234  1.4189  1.9905  0.8013
  163MOL0     H21974   2.895   2.957   7.370  0.3774  0.4524  1.2181
  163MOL0     H21975   2.787   3.225   7.271 -1.6137  0.6606  0.2007
  163MOL0     H21976   2.705   3.107   7.358  1.7372  2.7398  2.8359
  163MOL0     H21977   2.797   3.053   7.072  2.0369  2.5876  1.0378
  163MOL0     H21978   2.723   2.936   7.174  1.1698  0.9184 -1.5023
  163MOL0     H21979   2.516   3.042   7.177  0.6503 -2.9512 -0.3373
  163MOL0     H21980   2.575   3.038   7.014  1.0884 -0.3862  0.1224
  163MOL0     H21981   2.550   3.283   7.195  3.5927 -3.2164  2.5237
  163MOL0     H21982   2.637   3.279   7.044  0.2794 -2.9812 -1.0100
  163MOL0     H21983   2.340   3.192   7.058 -1.0851  2.1975 -0.4906
  163MOL0     H21984   2.442   3.211   6.912  1.1345  2.4422 -1.8756
  163MOL0     H21985   2.471   3.447   6.937  1.9345 -1.9673  1.5152
  163MOL0     H21986   2.376   3.434   7.094  2.8098 -1.3365  1.0189
  163MOL0     H21987   3.302   3.152   7.347 -0.0245 -0.3579 -0.8980
  163MOL0     H21988   3.453   3.004   7.248 -1.8903  1.7167  0.2595
  163MOL0     H21989   3.787   2.600   7.408  2.6853 -0.4612  0.5961
  163MOL0     H21990   3.932   2.423   7.303 -0.2123 -0.0121  0.2337
  163MOL0     H21991   5.639   1.705   6.561  2.9463  0.5867 -1.6564
  163MOL0     H21992   5.898   1.730   6.535  1.6687 -2.5071 -0.4140
  163MOL0     H21993   6.284   1.814   6.705 -0.6848 -0.3335  2.0969
  163MOL0     H21994   6.520   1.839   6.716  0.9049 -0.2935 -0.4622
  163MOL0     H21995   6.692   1.699   6.512  0.5565  1.9466  0.8391
  163MOL0     H21996   6.825   1.777   6.588 -0.1079  0.5114 -0.3795
  163MOL0     H21997   6.792   1.492   6.495  3.5117 -0.8343 -3.8118
  163MOL0     H21998   6.879   1.500   6.644 -1.7918 -2.7833 -0.7137
  163MOL0     H21999   7.048   1.501   6.479 -0.6332 -0.1892 -0.3143
  163MOL0     H22000   7.042   1.670   6.539  3.2301 -1.7738  1.6859
  163MOL0     H22001   7.070   1.626   6.286  1.9447  1.4265  2.6029
  163MOL0     H22002   6.953   1.751   6.343  0.1133 -0.0346 -1.8924
  163MOL0     H22003   6.693   1.547   6.116  0.3850 -1.5964 -0.5023
  163MOL0     H22004   6.584   1.417   6.683 -0.4305 -1.0034  6.0776
  163MOL0     H22005   6.336   1.384   6.652  0.3908 -1.2707  0.8090
  164MOL0     O22006   7.977   8.870   8.133  0.8137 -0.5493 -0.3954
  164MOL0     C22007   7.997   8.809   8.240  0.0579 -0.6912  0.2474
  164MOL0     O22008   7.902   8.767   8.328 -0.1856 -0.4415 -0.2881
  164MOL0     C22009   7.776   8.810   8.314  0.4607  0.2410  0.8708
  164MOL0     C22010   7.731   8.883   8.425  0.3781 -0.0739  0.3217
  164MOL0     C22011   7.601   8.922   8.423  0.0339 -1.0639  0.4171
  164MOL0     C22012   7.515   8.906   8.313  0.2949  0.4931  0.2415
  164MOL0     O22013   7.389   8.958   8.303 -0.5734  0.3498 -0.0505
  164MOL0     C22014   7.318   8.948   8.431  0.7648  0.6605 -0.2929
  164MOL0     C22015   7.180   9.029   8.419 -0.2292  0.1731  0.9346
  164MOL0     C22016   7.097   8.989   8.300 -0.2170  0.3806 -0.4020
  164MOL0     C22017   6.994   9.100   8.280  0.0573  0.1174 -0.4435
  164MOL0     C22018   6.878   9.050   8.188 -0.5909  0.2239 -0.2543
  164MOL0     C22019   6.767   9.154   8.161 -0.4009  0.1676  0.2368
  164MOL0     C22020   6.739   9.268   8.262  0.0276 -0.3826 -0.4472
  164MOL0     C22021   6.614   9.354   8.244  1.2588 -0.2120 -0.5994
  164MOL0     N22022   6.498   9.272   8.295  0.5080 -0.2693  0.5176
  164MOL0     C22023   6.490   9.174   8.398  0.4893  0.7727  0.8180
  164MOL0     C22024   6.359   9.129   8.394  0.4173  0.2722 -0.9022
  164MOL0     C22025   6.304   9.027   8.492 -0.1486 -1.4822 -0.1471
  164MOL0     C22026   6.368   8.892   8.475 -0.0811 -0.0425  0.2280
  164MOL0     C22027   6.354   8.843   8.324 -0.6890 -1.0588  0.2812
  164MOL0     C22028   6.217   8.783   8.294 -0.5488 -1.1658 -0.1058
  164MOL0     O22029   6.210   8.661   8.369  0.1908  0.4924  0.3125
  164MOL0     C22030   6.110   8.580   8.326 -0.0310 -0.1055  1.3168
  164MOL0     C22031   6.120   8.448   8.374 -0.5031  0.1946  0.6511
  164MOL0     C22032   6.028   8.346   8.336 -0.1562  0.0721  0.3613
  164MOL0     C22033   6.056   8.210   8.393 -0.3483 -0.2016  0.2504
  164MOL0     C22034   5.924   8.379   8.251 -0.0153  0.1821 -0.8654
  164MOL0     C22035   5.830   8.269   8.199  0.3558 -0.8889  0.6682
  164MOL0     O22036   5.704   8.315   8.150 -0.7191 -0.7265 -0.6249
  164MOL0     C22037   5.606   8.238   8.091  0.4038 -0.3438  0.0561
  164MOL0     C22038   5.480   8.296   8.091  0.3947  0.3013 -0.5823
  164MOL0     C22039   5.368   8.230   8.032 -0.5483 -0.5509  0.1385
  164MOL0     C22040   5.386   8.104   7.972  0.0738  0.5970 -0.3227
  164MOL0     O22041   5.268   8.051   7.928  0.3079  0.3585 -0.5690
  164MOL0     C22042   5.273   7.914   7.886 -0.0379  0.0509  0.4623
  164MOL0     C22043   5.125   7.876   7.866 -0.1199 -0.3078 -0.4100
  164MOL0     C22044   5.061   7.953   7.758 -0.0156 -0.4728  0.1434
  164MOL0     C22045   4.923   7.896   7.729  0.2748 -0.4098 -0.0580
  164MOL0     C22046   4.842   7.972   7.623 -0.8665 -0.1296 -0.5850
  164MOL0     C22047   4.702   7.914   7.600 -0.1273  0.1020  0.3316
  164MOL0     C22048   4.615   7.989   7.497  0.1703  0.0954  0.3845
  164MOL0     C22049   4.483   7.921   7.463 -0.4133  0.0796 -0.3528
  164MOL0    Cl22050   4.488   7.734   7.476 -0.3565  0.4470 -0.1919
  164MOL0     C22051   5.513   8.049   7.977 -0.3530 -0.1747 -0.5258
  164MOL0     C22052   5.623   8.121   8.017  0.4826  0.5150 -0.3224
  164MOL0     O22053   5.866   8.152   8.178 -0.5957 -0.2644 -0.1650
  164MOL0     C22054   5.906   8.511   8.221 -0.0387 -0.9153  0.0907
  164MOL0     C22055   5.996   8.613   8.249  0.0366  0.5261 -0.6214
  164MOL0     N22056   6.293   9.193   8.288 -0.5604  0.2605  0.4180
  164MOL0     N22057   6.375   9.270   8.227  0.4656  0.2049 -0.4352
  164MOL0     C22058   7.559   8.828   8.208 -0.6308  0.5281 -0.2117
  164MOL0     C22059   7.690   8.783   8.205 -0.2889 -0.8801 -0.1522
  164MOL0     C22060   8.130   8.806   8.300 -0.9312 -0.1608  0.6372
  164MOL0     C22061   8.244   8.868   8.242  0.1536  0.2050 -0.6184
  164MOL0     C22062   8.364   8.886   8.309 -0.1130  0.7806 -0.0325
  164MOL0     C22063   8.385   8.815   8.425  0.4066 -0.5872 -0.1847
  164MOL0     O22064   8.501   8.806   8.502  0.3964  0.3634  0.0780
  164MOL0     C22065   8.633   8.816   8.441  0.1284 -0.0113 -0.5571
  164MOL0     C22066   8.701   8.933   8.515  0.4735 -0.2244 -0.5111
  164MOL0     C22067   8.725   8.896   8.665  0.1085  0.7724 -0.3464
  164MOL0     C22068   8.813   9.000   8.731 -0.0548  0.0256  0.2084
  164MOL0     C22069   8.946   8.992   8.671 -0.2059 -0.2204  0.5365
  164MOL0     C22070   9.058   8.987   8.622 -0.5390 -0.6301 -0.4467
  164MOL0     C22071   8.278   8.752   8.486  0.8119 -0.3982  0.2766
  164MOL0     C22072   8.156   8.747   8.424  0.3940  0.2956  0.4938
  164MOL0     H22073   7.807   8.899   8.500  0.7689 -1.1395  0.1712
  164MOL0     H22074   7.569   8.983   8.507 -2.4407  1.8379 -2.3703
  164MOL0     H22075   7.290   8.845   8.456 -0.2135  0.5621 -1.7034
  164MOL0     H22076   7.372   8.992   8.516 -2.0572  2.5362  0.6841
  164MOL0     H22077   7.139   8.995   8.514  0.4717 -2.4344  0.3835
  164MOL0     H22078   7.188   9.137   8.431 -0.8037 -0.0037  3.3580
  164MOL0     H22079   7.142   8.974   8.201 -2.3739  2.0383 -1.7279
  164MOL0     H22080   7.049   8.895   8.330 -1.9675  0.8196 -1.6702
  164MOL0     H22081   6.955   9.121   8.380  1.7615  0.1613  0.2461
  164MOL0     H22082   7.039   9.191   8.239  1.0235 -0.8089 -1.5052
  164MOL0     H22083   6.913   9.007   8.094 -3.7978 -4.2328  0.2683
  164MOL0     H22084   6.828   8.965   8.234 -1.3584  1.7672  1.9366
  164MOL0     H22085   6.780   9.187   8.057 -1.8059 -0.5525 -0.1922
  164MOL0     H22086   6.671   9.103   8.149  0.7189 -1.7595 -1.1184
  164MOL0     H22087   6.745   9.241   8.368  0.5429 -0.7262 -0.5565
  164MOL0     H22088   6.817   9.343   8.244 -0.4804  0.5504  1.1240
  164MOL0     H22089   6.594   9.362   8.137  1.9347 -2.6808 -0.9955
  164MOL0     H22090   6.623   9.451   8.293 -2.5106  0.6589 -1.3538
  164MOL0     H22091   6.575   9.137   8.454 -0.3929 -1.7279  0.5921
  164MOL0     H22092   6.330   9.050   8.596  0.3171  2.0394 -0.9321
  164MOL0     H22093   6.196   9.014   8.481 -0.2119 -2.0086  0.9313
  164MOL0     H22094   6.309   8.833   8.547 -0.5895 -1.7933 -1.5244
  164MOL0     H22095   6.473   8.902   8.501 -0.1026 -0.2334  0.3949
  164MOL0     H22096   6.427   8.764   8.304  0.3715 -0.8418  2.8336
  164MOL0     H22097   6.380   8.925   8.257 -1.5267 -3.1669 -2.8168
  164MOL0     H22098   6.206   8.773   8.185  0.4280  0.6411 -0.4115
  164MOL0     H22099   6.134   8.847   8.323 -0.6759 -0.4892 -1.8309
  164MOL0     H22100   6.197   8.430   8.449 -1.5025 -0.2295  1.6094
  164MOL0     H22101   6.137   8.157   8.342 -0.1432  0.6366 -0.3293
  164MOL0     H22102   6.082   8.225   8.498 -0.5749  1.2393  0.1251
  164MOL0     H22103   5.972   8.140   8.398 -0.6798  0.1621 -0.0970
  164MOL0     H22104   5.489   8.391   8.142  1.2784 -0.7808  1.4045
  164MOL0     H22105   5.277   8.289   8.027 -0.1432  0.0056 -2.1119
  164MOL0     H22106   5.329   7.891   7.795  0.1255 -1.2743  0.8769
  164MOL0     H22107   5.317   7.855   7.967 -1.9704 -3.5654 -0.8888
  164MOL0     H22108   5.119   7.766   7.860  0.1994 -0.4049  0.6798
  164MOL0     H22109   5.065   7.902   7.954 -1.4258 -0.6606 -1.1769
  164MOL0     H22110   5.116   7.945   7.664 -0.7059  0.2199 -0.3352
  164MOL0     H22111   5.052   8.060   7.778  0.7644  0.0733 -2.1888
  164MOL0     H22112   4.928   7.792   7.696  3.3278  0.0199 -1.3246
  164MOL0     H22113   4.856   7.899   7.815 -0.1752 -2.2670 -0.3076
  164MOL0     H22114   4.904   7.977   7.533 -0.1163 -1.8051 -0.1882
  164MOL0     H22115   4.833   8.077   7.655 -1.0070 -0.6107  1.0090
  164MOL0     H22116   4.702   7.811   7.561  1.3145  0.6027 -1.0829
  164MOL0     H22117   4.643   7.918   7.693 -0.3075  0.5135  0.2019
  164MOL0     H22118   4.670   7.993   7.403  1.4038 -1.3479  0.9919
  164MOL0     H22119   4.596   8.090   7.535  0.7594 -0.0213  1.0228
  164MOL0     H22120   4.452   7.946   7.362  2.1082  1.2399 -0.9249
  164MOL0     H22121   4.407   7.961   7.530  0.2882  1.9987 -0.6359
  164MOL0     H22122   5.540   7.954   7.931  1.3026 -0.6608  1.2876
  164MOL0     H22123   5.720   8.072   8.011  1.1490  1.7568  0.0536
  164MOL0     H22124   5.832   8.544   8.149  0.2845 -1.9028 -0.7166
  164MOL0     H22125   5.983   8.716   8.217  1.1751  0.0658 -2.8080
  164MOL0     H22126   7.502   8.811   8.118  0.5280  3.0754 -1.5390
  164MOL0     H22127   7.732   8.727   8.121  3.8216 -0.1056  1.1428
  164MOL0     H22128   8.227   8.927   8.153 -0.1933 -0.7893 -1.2275
  164MOL0     H22129   8.455   8.932   8.270  1.4736 -0.7086  1.6860
  164MOL0     H22130   8.699   8.731   8.458  0.9758  0.3929 -1.7001
  164MOL0     H22131   8.631   8.828   8.332 -2.1022  2.0698 -0.3834
  164MOL0     H22132   8.633   9.018   8.505  0.2010  0.2113  3.3730
  164MOL0     H22133   8.790   8.972   8.464  0.0995 -0.3708 -1.2803
  164MOL0     H22134   8.777   8.800   8.650  0.1776  0.8919 -0.8998
  164MOL0     H22135   8.629   8.894   8.717 -0.7557 -0.5604 -1.8777
  164MOL0     H22136   8.822   8.971   8.836 -0.4498 -1.5692 -0.1665
  164MOL0     H22137   8.779   9.102   8.715  0.9694  0.2015 -0.9453
  164MOL0     H22138   9.149   8.978   8.565  1.4035 -0.9554  2.5264
  164MOL0     H22139   8.290   8.689   8.573  1.2317 -1.9637 -0.8684
  164MOL0     H22140   8.070   8.716   8.482  0.1189  3.2423  1.8243
  165MOL0     O22141   2.765   5.736   7.987 -0.2212  0.2292  0.3558
  165MOL0     C22142   2.853   5.806   7.943 -0.4163  0.5109 -0.0542
  165MOL0     O22143   2.834   5.924   7.893 -0.7663 -0.8440 -0.0049
  165MOL0     C22144   2.715   5.976   7.844 -0.5668 -0.7199 -0.1783
  165MOL0     C22145   2.624   6.015   7.939  0.6273  0.4327  0.3681
  165MOL0     C22146   2.503   6.058   7.896 -0.3854 -0.2051 -0.1647
  165MOL0     C22147   2.471   6.073   7.762 -0.0512  0.0569  0.3524
  165MOL0     O22148   2.347   6.115   7.717 -0.0013 -0.0751 -0.4638
  165MOL0     C22149   2.232   6.140   7.810 -0.4504 -0.2722  0.0934
  165MOL0     C22150   2.102   6.116   7.724  0.3341  0.0846  0.3125
  165MOL0     C22151   1.975   6.109   7.811  0.5176  0.1156 -0.4656
  165MOL0     C22152   1.851   6.093   7.719 -0.5795 -0.3411  0.1339
  165MOL0     C22153   1.722   6.094   7.793  0.5156 -0.3623 -0.2579
  165MOL0     C22154   1.608   6.110   7.691  0.4706 -0.7430  0.5190
  165MOL0     C22155   1.471   6.059   7.727  0.7671 -0.1281  0.7982
  165MOL0     C22156   1.451   5.915   7.761  0.3885  0.1055 -0.8199
  165MOL0     N22157   1.314   5.874   7.757  0.6509  0.1694 -0.1031
  165MOL0     C22158   1.256   5.789   7.663 -0.4224 -1.1561 -0.0139
  165MOL0     C22159   1.117   5.784   7.687 -0.7790 -0.2806 -0.6292
  165MOL0     C22160   1.016   5.696   7.619  0.1173 -0.1560 -0.2151
  165MOL0     C22161   0.888   5.777   7.613 -0.3412  0.3743 -0.8555
  165MOL0     C22162   0.774   5.703   7.541  0.2808  0.7755  0.0818
  165MOL0     C22163   0.649   5.784   7.536  0.3853  0.5426 -0.3182
  165MOL0     O22164   0.552   5.713   7.463 -0.0297  0.3635  0.8840
  165MOL0     C22165   0.423   5.768   7.451  0.0530 -0.4230 -0.0958
  165MOL0     C22166   0.337   5.726   7.344  0.3384  0.0640  0.3616
  165MOL0     C22167   0.206   5.787   7.336  1.1742  1.3276  0.6062
  165MOL0     C22168   0.117   5.724   7.230  0.2362  0.3008 -0.7372
  165MOL0     C22169   0.165   5.897   7.417  0.6805 -0.0541 -0.1973
  165MOL0     C22170   0.032   5.974   7.414 -0.2387  0.4944 -0.1310
  165MOL0     O22171   0.012   6.080   7.505 -0.0090 -0.3935  0.1697
  165MOL0     C22172  -0.120   6.123   7.536 -0.2807 -0.1153  0.5182
  165MOL0     C22173  -0.143   6.256   7.558  0.1209 -0.4680 -0.3449
  165MOL0     C22174  -0.268   6.302   7.609  1.2264  0.3131  0.2921
  165MOL0     C22175  -0.373   6.213   7.644 -0.4857  0.0572 -0.0913
  165MOL0     O22176  -0.492   6.236   7.712  0.0769 -0.7939 -0.1317
  165MOL0     C22177  -0.502   6.358   7.793 -0.3040 -0.1139  0.2325
  165MOL0     C22178  -0.566   6.341   7.932  0.1786 -0.6326  0.1186
  165MOL0     C22179  -0.715   6.301   7.932 -0.2643 -0.7371  0.3900
  165MOL0     C22180  -0.808   6.397   7.868  0.3055  0.1526  1.2282
  165MOL0     C22181  -0.957   6.360   7.880 -1.0020  0.2600  0.6567
  165MOL0     C22182  -1.018   6.426   8.010 -0.2093  0.2416  0.1880
  165MOL0     C22183  -1.167   6.416   8.038  0.2688 -0.6809 -0.5798
  165MOL0     C22184  -1.207   6.270   8.068  0.1754 -0.0335  0.1624
  165MOL0    Cl22185  -1.377   6.267   8.136 -0.0976  0.4605 -0.0068
  165MOL0     C22186  -0.351   6.088   7.597  0.4511 -0.3868 -0.4172
  165MOL0     C22187  -0.230   6.040   7.548 -0.7223  0.3514 -0.1303
  165MOL0     O22188  -0.059   5.930   7.337 -0.2639  0.6691 -0.9039
  165MOL0     C22189   0.257   5.935   7.518  0.5802 -0.0423  0.3463
  165MOL0     C22190   0.378   5.871   7.542 -0.2225 -0.3839  0.6584
  165MOL0     N22191   1.100   5.856   7.803  0.2917  0.1647  0.2114
  165MOL0     N22192   1.207   5.908   7.843 -0.6135  0.2238 -0.4535
  165MOL0     C22193   2.565   6.026   7.664  0.2923  0.0470  0.5032
  165MOL0     C22194   2.683   5.977   7.707  0.8815 -0.3082  0.1869
  165MOL0     C22195   2.993   5.759   7.962 -0.0346  0.6286 -0.1398
  165MOL0     C22196   3.097   5.845   7.911  0.7800  0.5824 -0.5693
  165MOL0     C22197   3.228   5.802   7.927 -0.6560  0.6907  0.6944
  165MOL0     C22198   3.260   5.681   7.987 -0.1869  0.0779  0.0359
  165MOL0     O22199   3.397   5.680   8.019  0.0416  0.2172 -0.1484
  165MOL0     C22200   3.451   5.553   8.063  0.5040 -0.3113 -0.0306
  165MOL0     C22201   3.582   5.606   8.140 -0.4397 -0.6262  0.7430
  165MOL0     C22202   3.670   5.485   8.192  0.1856 -0.4208 -0.2659
  165MOL0     C22203   3.793   5.523   8.259 -0.0146 -0.3163 -0.2641
  165MOL0     C22204   3.773   5.585   8.392 -0.2190  0.5189 -0.6787
  165MOL0     C22205   3.761   5.648   8.490  0.1582  1.2815 -0.4942
  165MOL0     C22206   3.156   5.592   8.020 -0.1448  0.5547  0.9656
  165MOL0     C22207   3.026   5.629   8.012  0.5231  0.0820  0.3728
  165MOL0     H22208   2.654   6.000   8.042 -0.9787 -0.3681  0.7470
  165MOL0     H22209   2.434   6.071   7.979 -0.6945 -2.8092  0.0673
  165MOL0     H22210   2.233   6.062   7.886  0.6665 -0.1971  0.1569
  165MOL0     H22211   2.243   6.239   7.855 -0.5978 -0.1011 -0.2352
  165MOL0     H22212   2.089   6.194   7.649 -0.3761 -0.5351 -0.2155
  165MOL0     H22213   2.121   6.029   7.661 -1.7563 -0.9148  0.9593
  165MOL0     H22214   1.989   6.024   7.878  0.5107 -0.0280 -0.6447
  165MOL0     H22215   1.967   6.202   7.867  0.2597 -0.4197  0.4108
  165MOL0     H22216   1.847   6.170   7.641 -1.9082 -0.5784 -0.0529
  165MOL0     H22217   1.855   5.996   7.669  0.3515 -0.2130 -0.0587
  165MOL0     H22218   1.714   6.000   7.850  1.7311  0.3925  1.2403
  165MOL0     H22219   1.717   6.174   7.868  1.4650  1.3777 -1.9808
  165MOL0     H22220   1.601   6.215   7.662 -1.9743 -1.4294 -1.7941
  165MOL0     H22221   1.632   6.057   7.599  2.4491  1.9100 -0.6165
  165MOL0     H22222   1.440   6.114   7.816 -1.3185 -2.5769  1.6981
  165MOL0     H22223   1.401   6.085   7.648  1.1185  0.2858  0.6117
  165MOL0     H22224   1.486   5.900   7.864 -0.6354  0.4297 -0.4117
  165MOL0     H22225   1.528   5.862   7.705  1.4604 -0.2016  0.8562
  165MOL0     H22226   1.307   5.746   7.578 -0.9038 -0.6093 -0.5910
  165MOL0     H22227   1.052   5.679   7.517 -2.9174  0.1636 -1.4494
  165MOL0     H22228   1.001   5.602   7.672  0.2029  0.8288  1.6686
  165MOL0     H22229   0.900   5.868   7.554  0.1576 -1.5833 -3.9778
  165MOL0     H22230   0.851   5.800   7.714  0.0570  0.2557 -0.6840
  165MOL0     H22231   0.759   5.609   7.596  1.6725  0.9813  0.8557
  165MOL0     H22232   0.796   5.666   7.441 -1.8125 -3.3278  0.9003
  165MOL0     H22233   0.674   5.878   7.486 -1.1029  1.8538  1.3018
  165MOL0     H22234   0.612   5.797   7.638 -0.2715 -1.3671 -0.2722
  165MOL0     H22235   0.381   5.665   7.266  0.7557  1.5773 -0.6469
  165MOL0     H22236   0.009   5.730   7.245  0.4466 -0.4134  1.4445
  165MOL0     H22237   0.141   5.768   7.133  3.8605 -0.6889 -0.4138
  165MOL0     H22238   0.125   5.615   7.234  1.8511  0.4239 -0.0113
  165MOL0     H22239  -0.060   6.325   7.546 -2.1618  2.3812 -1.0036
  165MOL0     H22240  -0.293   6.408   7.610  1.1088  0.3041 -0.9789
  165MOL0     H22241  -0.404   6.398   7.818 -1.7798  2.9016  1.7109
  165MOL0     H22242  -0.559   6.432   7.736 -0.7421 -1.0206 -0.5272
  165MOL0     H22243  -0.525   6.263   7.996  0.5851 -0.6731 -0.1870
  165MOL0     H22244  -0.543   6.431   7.990  3.9764 -1.2862 -0.1436
  165MOL0     H22245  -0.748   6.273   8.033  0.0352 -3.3585 -0.1564
  165MOL0     H22246  -0.734   6.204   7.886 -0.6526 -1.4925  2.0454
  165MOL0     H22247  -0.800   6.502   7.898 -0.7960  1.2554 -1.9452
  165MOL0     H22248  -0.792   6.414   7.761  1.2906  1.6536  1.5787
  165MOL0     H22249  -0.963   6.250   7.876  2.0112  0.0095 -2.8919
  165MOL0     H22250  -1.006   6.393   7.788  1.3135  0.3069 -0.6377
  165MOL0     H22251  -0.964   6.383   8.095  1.0028 -0.1991 -0.7772
  165MOL0     H22252  -1.000   6.533   8.021 -2.8410  1.0186 -2.1159
  165MOL0     H22253  -1.225   6.454   7.954 -0.1486 -0.1850 -0.0755
  165MOL0     H22254  -1.202   6.481   8.119  2.6290  0.5427 -0.4344
  165MOL0     H22255  -1.129   6.236   8.137  1.1043 -1.3696 -1.4771
  165MOL0     H22256  -1.191   6.207   7.980  0.7843 -1.3021  1.1611
  165MOL0     H22257  -0.421   6.007   7.617  0.2416 -0.0238  0.3842
  165MOL0     H22258  -0.226   5.933   7.533  2.9309  0.7606 -4.0184
  165MOL0     H22259   0.236   6.024   7.577 -0.9534  0.6768 -1.2154
  165MOL0     H22260   0.435   5.896   7.631  0.0028  0.3432  0.3157
  165MOL0     H22261   2.549   6.042   7.558 -2.8650  1.5241  1.0896
  165MOL0     H22262   2.759   5.950   7.633 -0.1008  2.2155 -1.9318
  165MOL0     H22263   3.081   5.942   7.866  2.0417  2.2606  2.3221
  165MOL0     H22264   3.303   5.873   7.892  2.7899 -2.5331  0.9115
  165MOL0     H22265   3.386   5.502   8.135 -1.2894  1.2106 -0.5203
  165MOL0     H22266   3.481   5.483   7.984  1.6717  0.5848 -0.4122
  165MOL0     H22267   3.550   5.665   8.227  2.3837 -0.6374  1.8901
  165MOL0     H22268   3.640   5.673   8.077 -1.7752  1.8641  1.9947
  165MOL0     H22269   3.703   5.429   8.105  0.1130  0.5298 -0.9272
  165MOL0     H22270   3.618   5.410   8.252 -3.3096  2.6433  0.9270
  165MOL0     H22271   3.842   5.612   8.217 -1.4105  1.1018  0.9445
  165MOL0     H22272   3.869   5.445   8.267  1.6714  1.1822 -0.7340
  165MOL0     H22273   3.762   5.697   8.586  0.8832 -0.0287  0.2078
  165MOL0     H22274   3.177   5.498   8.070  1.4272  1.1661  1.5398
  165MOL0     H22275   2.941   5.565   8.035  1.4641 -0.9204  1.1929
  166MOL0     O22276   3.403   7.804   3.947 -0.1864  0.0848 -0.0828
  166MOL0     C22277   3.477   7.893   3.983 -0.4519 -0.3826  0.4979
  166MOL0     O22278   3.430   8.027   4.016 -0.2823 -0.3944 -0.6991
  166MOL0     C22279   3.298   8.063   4.011  0.5912  0.3622  0.2225
  166MOL0     C22280   3.207   8.026   3.909 -0.2992  0.2373  0.4765
  166MOL0     C22281   3.074   8.065   3.909  0.0666 -0.6278 -0.4592
  166MOL0     C22282   3.028   8.137   4.023 -0.0519 -0.7309  0.4590
  166MOL0     O22283   2.896   8.182   4.041 -0.3622  0.4272  1.1132
  166MOL0     C22284   2.807   8.179   3.928 -0.1332  0.7441  0.0476
  166MOL0     C22285   2.681   8.237   3.989  0.4673 -0.2966  0.3171
  166MOL0     C22286   2.585   8.254   3.870  0.3447 -0.3617  0.7754
  166MOL0     C22287   2.451   8.308   3.920 -0.9485  0.3737  0.8571
  166MOL0     C22288   2.339   8.273   3.822 -0.3599  0.3193 -0.2404
  166MOL0     C22289   2.195   8.322   3.874  0.4945  0.9722  1.2156
  166MOL0     C22290   2.118   8.214   3.947 -0.8879 -0.5984  0.0960
  166MOL0     C22291   1.979   8.262   3.988  0.2989  0.1657  0.5416
  166MOL0     N22292   1.892   8.268   3.874 -0.2469  0.0436 -0.3297
  166MOL0     C22293   1.863   8.156   3.806  0.1676  0.2727  0.5011
  166MOL0     C22294   1.800   8.209   3.693 -0.1357  0.5741 -0.5714
  166MOL0     C22295   1.765   8.128   3.566  0.2612 -0.1772  0.0988
  166MOL0     C22296   1.882   8.100   3.471 -0.3471 -0.3124 -0.5008
  166MOL0     C22297   1.982   7.987   3.511 -0.3402  0.0664 -0.0048
  166MOL0     C22298   2.089   7.983   3.401  0.1369  0.0490  0.0359
  166MOL0     O22299   2.168   8.099   3.422  0.3245  0.5547 -0.0660
  166MOL0     C22300   2.289   8.097   3.482 -0.1489  0.2171  0.5164
  166MOL0     C22301   2.338   7.987   3.550 -0.0527 -0.4015 -0.3792
  166MOL0     C22302   2.475   7.970   3.582 -0.6883 -0.1798 -0.2290
  166MOL0     C22303   2.521   7.849   3.657  0.1067  0.2488  0.5891
  166MOL0     C22304   2.569   8.073   3.542  1.0821  0.4390  0.4864
  166MOL0     C22305   2.716   8.076   3.565 -0.3022  0.4071  0.5128
  166MOL0     O22306   2.782   8.154   3.471  0.2144 -0.4809  0.0110
  166MOL0     C22307   2.923   8.154   3.491  0.4538 -0.4982 -0.4304
  166MOL0     C22308   2.987   8.047   3.426 -1.1346  0.0698  0.2782
  166MOL0     C22309   3.124   8.025   3.437  0.5546  0.0817 -0.1653
  166MOL0     C22310   3.204   8.117   3.501 -0.0038 -0.0964  0.1585
  166MOL0     O22311   3.338   8.084   3.498  0.1926 -0.4363 -0.5844
  166MOL0     C22312   3.429   8.162   3.572 -0.3694  0.9212  0.5392
  166MOL0     C22313   3.555   8.081   3.578  0.7087  0.1173  0.1970
  166MOL0     C22314   3.636   8.092   3.449  0.9096  0.2221  0.8177
  166MOL0     C22315   3.788   8.094   3.471 -0.3198  0.7198 -0.0880
  166MOL0     C22316   3.867   8.147   3.355 -0.4460 -0.6087 -0.4588
  166MOL0     C22317   4.011   8.151   3.391 -0.0351  0.3586  0.8069
  166MOL0     C22318   4.092   8.232   3.282  0.1134  0.0476  0.3300
  166MOL0     C22319   4.124   8.151   3.162  0.0125 -0.3875  0.3401
  166MOL0    Cl22320   4.272   8.048   3.205 -0.1632  0.0952  0.0309
  166MOL0     C22321   3.138   8.220   3.568 -0.2377  0.1029  0.5543
  166MOL0     C22322   3.001   8.247   3.559  0.1781  0.0681 -1.2702
  166MOL0     O22323   2.772   7.996   3.647  1.1388  0.0379  0.0423
  166MOL0     C22324   2.511   8.181   3.463 -0.9015  0.0566 -0.3521
  166MOL0     C22325   2.377   8.191   3.437  0.1451  0.0503  0.6490
  166MOL0     N22326   1.806   8.347   3.696  0.6511 -0.6831 -0.0458
  166MOL0     N22327   1.854   8.380   3.813  0.6640  0.0039  0.1695
  166MOL0     C22328   3.118   8.174   4.125 -0.0496  1.0374 -0.0148
  166MOL0     C22329   3.247   8.142   4.109  0.9034 -0.4676  0.6547
  166MOL0     C22330   3.627   7.884   3.994 -0.5235 -0.1197  0.3161
  166MOL0     C22331   3.679   7.758   4.024  0.1373 -0.9593 -1.1222
  166MOL0     C22332   3.821   7.747   4.024  0.5711  0.8308 -0.0196
  166MOL0     C22333   3.911   7.844   3.988 -0.2070  0.6381 -0.5558
  166MOL0     O22334   4.048   7.820   3.991  0.1321  0.3377 -0.5353
  166MOL0     C22335   4.138   7.935   3.964 -0.6561  1.0202 -0.1302
  166MOL0     C22336   4.284   7.901   3.980 -0.1891 -0.6401  0.3905
  166MOL0     C22337   4.395   7.994   3.945  0.1511  0.2273 -0.1794
  166MOL0     C22338   4.518   7.935   4.004  0.3366 -0.4465 -0.3393
  166MOL0     C22339   4.629   8.023   3.984 -0.5314  0.1694 -0.9463
  166MOL0     C22340   4.700   8.120   3.961 -0.8246  1.2820 -0.5653
  166MOL0     C22341   3.847   7.965   3.947 -0.9028  0.6977  0.0207
  166MOL0     C22342   3.708   7.980   3.946  0.3753 -0.9477  0.3401
  166MOL0     H22343   3.245   7.957   3.834 -2.0205  0.5368 -0.7394
  166MOL0     H22344   3.002   8.040   3.831 -1.6212  0.2005  0.7835
  166MOL0     H22345   2.849   8.240   3.847  2.8623 -2.9076 -1.4505
  166MOL0     H22346   2.780   8.079   3.894  2.5165  0.0060 -0.0487
  166MOL0     H22347   2.635   8.161   4.052  0.6982 -0.1141  0.7069
  166MOL0     H22348   2.701   8.330   4.043 -2.0221  0.5422 -0.0837
  166MOL0     H22349   2.632   8.319   3.796  0.4049 -1.2912 -0.0218
  166MOL0     H22350   2.557   8.158   3.825  0.9556  0.5244 -1.6315
  166MOL0     H22351   2.419   8.286   4.023 -0.0332  2.6590  1.6973
  166MOL0     H22352   2.463   8.416   3.922  2.7223  0.0923  0.3844
  166MOL0     H22353   2.365   8.320   3.726  0.3994  0.5245  0.0572
  166MOL0     H22354   2.329   8.165   3.811  0.9345  0.2378 -0.8077
  166MOL0     H22355   2.201   8.414   3.934 -0.3772  3.0923 -1.7319
  166MOL0     H22356   2.133   8.346   3.788 -0.2890  2.8805  2.2539
  166MOL0     H22357   2.111   8.134   3.872  0.0170 -0.3188 -0.3038
  166MOL0     H22358   2.164   8.185   4.042 -0.1306  0.4334  0.0530
  166MOL0     H22359   1.994   8.360   4.035  2.8044  0.8104 -1.3858
  166MOL0     H22360   1.941   8.189   4.060 -0.5098 -1.3369 -1.3002
  166MOL0     H22361   1.902   8.055   3.814  1.4905  0.6018 -1.3638
  166MOL0     H22362   1.731   8.029   3.598 -0.0700 -1.9750 -4.9636
  166MOL0     H22363   1.690   8.188   3.514 -0.2549  0.3731  1.4363
  166MOL0     H22364   1.932   8.197   3.466 -1.4271  0.2032 -1.8435
  166MOL0     H22365   1.839   8.075   3.374 -0.6454 -0.6480 -0.2834
  166MOL0     H22366   1.942   7.886   3.526 -0.8670  0.4488  1.3546
  166MOL0     H22367   2.031   8.011   3.606  1.7604 -2.3257 -0.3845
  166MOL0     H22368   2.038   7.988   3.304  2.4881 -1.0737 -1.3610
  166MOL0     H22369   2.156   7.897   3.405  2.1841  1.4452 -1.5991
  166MOL0     H22370   2.268   7.907   3.573 -1.6777  1.0151 -0.2180
  166MOL0     H22371   2.441   7.794   3.707  0.6097 -2.1514 -1.0481
  166MOL0     H22372   2.581   7.784   3.592 -0.2861  1.7574 -1.3853
  166MOL0     H22373   2.576   7.884   3.744 -1.6447  2.4388  0.9123
  166MOL0     H22374   2.941   7.969   3.367  0.0784 -1.4746  1.2904
  166MOL0     H22375   3.176   7.940   3.393 -0.6051 -0.8629  0.2485
  166MOL0     H22376   3.449   8.252   3.513 -0.2638  1.4345  1.3443
  166MOL0     H22377   3.381   8.177   3.669 -0.7418 -4.2614  1.3925
  166MOL0     H22378   3.631   8.102   3.654  0.1274  0.0846  0.7901
  166MOL0     H22379   3.521   7.977   3.584 -0.0664  0.4461  2.1439
  166MOL0     H22380   3.614   8.185   3.395  2.2189 -0.4921 -1.0556
  166MOL0     H22381   3.619   8.009   3.381 -2.3112 -0.1068  1.8253
  166MOL0     H22382   3.805   8.168   3.551  1.4684 -0.1598  0.3980
  166MOL0     H22383   3.831   7.996   3.494 -3.7451 -0.8886  0.1113
  166MOL0     H22384   3.831   8.249   3.344 -0.3038 -0.4514  0.4328
  166MOL0     H22385   3.851   8.103   3.256  1.2532  2.6330 -2.3527
  166MOL0     H22386   4.015   8.189   3.494 -1.2512 -0.9634  1.3845
  166MOL0     H22387   4.045   8.047   3.392  0.7464  0.6059  1.9274
  166MOL0     H22388   4.187   8.256   3.330  1.6787 -0.6647 -2.2227
  166MOL0     H22389   4.034   8.321   3.254  1.8038  0.6575 -1.4676
  166MOL0     H22390   4.137   8.210   3.071 -2.3687 -0.5942 -0.2032
  166MOL0     H22391   4.037   8.090   3.134 -1.1111  1.9140 -1.5690
  166MOL0     H22392   3.205   8.286   3.624 -0.2488 -1.2383  2.2330
  166MOL0     H22393   2.959   8.337   3.602 -1.8691 -2.1959  1.9756
  166MOL0     H22394   2.574   8.260   3.423  2.0260 -2.1390 -0.4764
  166MOL0     H22395   2.328   8.261   3.371  1.2975  2.1446  1.8958
  166MOL0     H22396   3.082   8.208   4.221  2.7029 -1.3373  2.0122
  166MOL0     H22397   3.311   8.179   4.188  0.2651  1.2817  0.3812
  166MOL0     H22398   3.607   7.680   4.047 -0.6750  0.4567  1.4534
  166MOL0     H22399   3.860   7.650   4.052  0.1127  0.9328  1.0065
  166MOL0     H22400   4.119   7.964   3.860 -1.6478 -0.0879 -0.2827
  166MOL0     H22401   4.119   8.016   4.036  1.4110 -1.1612  3.1643
  166MOL0     H22402   4.293   7.810   3.920 -0.0003  0.4525 -1.3039
  166MOL0     H22403   4.282   7.889   4.089 -0.8572  2.7652  0.8639
  166MOL0     H22404   4.366   8.090   3.988 -3.6448  0.2087 -2.3345
  166MOL0     H22405   4.397   8.014   3.838  0.5050 -0.5295 -0.3218
  166MOL0     H22406   4.533   7.836   3.960 -1.1035 -0.2104 -1.4066
  166MOL0     H22407   4.513   7.934   4.113 -2.9421  1.2576 -0.3456
  166MOL0     H22408   4.771   8.200   3.952 -1.9185  2.5148  1.1481
  166MOL0     H22409   3.909   8.052   3.927 -0.1489 -0.2236 -1.9662
  166MOL0     H22410   3.657   8.070   3.912  2.2431  0.6718  1.5885
  167MOL0     O22411   7.669   0.641   1.324  0.0262  0.2087  0.5991
  167MOL0     C22412   7.688   0.762   1.294  1.1300 -0.0371 -0.5363
  167MOL0     O22413   7.584   0.849   1.300 -0.2086  0.6505  0.1304
  167MOL0     C22414   7.460   0.801   1.333 -0.1624 -0.9512  0.1062
  167MOL0     C22415   7.358   0.841   1.249 -0.7295  0.8026 -0.1247
  167MOL0     C22416   7.227   0.800   1.281 -0.6042  0.3291 -0.0165
  167MOL0     C22417   7.192   0.722   1.397  0.3125 -0.5293 -0.3905
  167MOL0     O22418   7.066   0.662   1.416 -0.1589 -0.0272 -1.0673
  167MOL0     C22419   6.970   0.677   1.315 -0.3161  0.7399  0.8124
  167MOL0     C22420   6.837   0.623   1.363 -0.5128 -0.0944  0.6903
  167MOL0     C22421   6.718   0.667   1.264 -0.2892  0.3854  0.5715
  167MOL0     C22422   6.608   0.564   1.268  0.1035 -0.0145  0.3035
  167MOL0     C22423   6.485   0.627   1.207 -0.2460  0.6464  0.3697
  167MOL0     C22424   6.370   0.515   1.220  0.2740 -1.0789  1.1267
  167MOL0     C22425   6.239   0.567   1.147  0.0150 -0.2994 -0.4477
  167MOL0     C22426   6.250   0.574   0.990  0.1276 -0.1601 -0.8125
  167MOL0     N22427   6.277   0.445   0.926 -0.8171  0.1840  0.3970
  167MOL0     C22428   6.408   0.400   0.900 -0.3632  0.3856 -0.1366
  167MOL0     C22429   6.389   0.278   0.858 -0.4530  0.5065 -0.6080
  167MOL0     C22430   6.500   0.183   0.824  0.2299 -0.0412  0.2338
  167MOL0     C22431   6.526   0.099   0.947  0.7195  0.2822  0.2674
  167MOL0     C22432   6.641  -0.002   0.921  0.4193  0.2246 -0.2162
  167MOL0     C22433   6.578  -0.142   0.883 -0.1518 -0.0755 -0.3042
  167MOL0     O22434   6.696  -0.222   0.874 -0.0684 -0.3788  0.3432
  167MOL0     C22435   6.685  -0.359   0.864 -0.4681 -0.2056  1.0101
  167MOL0     C22436   6.798  -0.439   0.840 -0.2415 -0.2598  0.4068
  167MOL0     C22437   6.791  -0.576   0.840 -1.0936 -0.5435 -0.3524
  167MOL0     C22438   6.924  -0.641   0.836 -0.1651  0.1068  0.6435
  167MOL0     C22439   6.669  -0.640   0.859 -0.0718 -0.6656  0.6575
  167MOL0     C22440   6.660  -0.794   0.861  0.9223  0.2362 -0.3591
  167MOL0     O22441   6.735  -0.858   0.770  0.0910 -0.6013  0.0420
  167MOL0     C22442   6.720  -0.996   0.742  0.6957  0.2203 -0.2847
  167MOL0     C22443   6.688  -1.045   0.612  0.2641  0.5045 -0.5301
  167MOL0     C22444   6.669  -1.182   0.597  1.0562  0.0878  0.2706
  167MOL0     C22445   6.672  -1.278   0.699 -0.1654  0.0446  0.9567
  167MOL0     O22446   6.653  -1.414   0.664  0.6251  0.3010  0.5333
  167MOL0     C22447   6.695  -1.531   0.745 -0.3827 -0.5757 -0.1598
  167MOL0     C22448   6.848  -1.545   0.761 -1.1081 -0.2348 -1.2474
  167MOL0     C22449   6.908  -1.551   0.621 -0.4528  0.0366  0.0872
  167MOL0     C22450   7.057  -1.528   0.638 -0.2655  0.0279 -0.4252
  167MOL0     C22451   7.136  -1.520   0.503  0.6761 -0.2514 -0.2715
  167MOL0     C22452   7.281  -1.505   0.541 -0.1820 -0.2838 -0.2798
  167MOL0     C22453   7.350  -1.498   0.404 -0.5850  0.1990 -0.2506
  167MOL0     C22454   7.488  -1.438   0.437  0.1096  0.5640  0.9019
  167MOL0    Cl22455   7.583  -1.461   0.288 -0.1382  0.0395 -0.1292
  167MOL0     C22456   6.705  -1.228   0.830 -0.6262  0.5201  0.6077
  167MOL0     C22457   6.725  -1.094   0.847  0.1996 -0.1064  0.7349
  167MOL0     O22458   6.574  -0.842   0.935 -0.1925  0.4619  0.5553
  167MOL0     C22459   6.557  -0.558   0.878  0.6680 -0.4224 -0.0015
  167MOL0     C22460   6.561  -0.420   0.884 -0.1840  0.0437 -0.3519
  167MOL0     N22461   6.259   0.242   0.866  0.3200 -0.7115  0.3213
  167MOL0     N22462   6.193   0.341   0.910  0.1388 -0.6811  0.4139
  167MOL0     C22463   7.293   0.696   1.488 -0.3722 -0.4428  0.0250
  167MOL0     C22464   7.428   0.735   1.455  0.7167  0.3961 -0.0716
  167MOL0     C22465   7.826   0.808   1.257  0.7742  0.8938  0.2024
  167MOL0     C22466   7.846   0.945   1.258 -0.4426 -0.3540 -0.5091
  167MOL0     C22467   7.983   0.987   1.235 -0.5391 -0.4467  0.5982
  167MOL0     C22468   8.085   0.900   1.209 -0.3494 -0.0195 -0.5518
  167MOL0     O22469   8.205   0.955   1.192  0.5804 -0.3039 -0.2165
  167MOL0     C22470   8.300   0.918   1.296 -0.8760  0.6220 -0.4242
  167MOL0     C22471   8.417   1.017   1.316 -0.6411  0.6816 -1.1058
  167MOL0     C22472   8.505   1.059   1.194  0.0532 -0.0132  0.9880
  167MOL0     C22473   8.575   0.937   1.142  0.2271  0.2898  0.1664
  167MOL0     C22474   8.642   0.850   1.243 -0.1161  0.9794  0.3879
  167MOL0     C22475   8.708   0.783   1.321 -1.2954 -0.0013  0.1601
  167MOL0     C22476   8.061   0.767   1.221  0.1360  0.6600 -0.4364
  167MOL0     C22477   7.934   0.720   1.236  0.3004 -0.5856 -0.8088
  167MOL0     H22478   7.388   0.913   1.174  2.3322 -0.0301  0.1654
  167MOL0     H22479   7.146   0.822   1.212 -2.5574 -4.1110  0.5352
  167MOL0     H22480   6.945   0.782   1.299 -2.7174 -0.0289 -1.1532
  167MOL0     H22481   7.015   0.633   1.226  2.8494  4.2684  0.4067
  167MOL0     H22482   6.843   0.514   1.376 -0.4000 -0.0816  0.7482
  167MOL0     H22483   6.820   0.679   1.456  2.1126  0.8325  0.6708
  167MOL0     H22484   6.683   0.764   1.300  1.8641  1.4000  0.0902
  167MOL0     H22485   6.747   0.672   1.158 -1.4216 -1.1603  0.1460
  167MOL0     H22486   6.644   0.477   1.212  0.0207 -0.9778  1.7094
  167MOL0     H22487   6.590   0.533   1.371 -1.9965 -3.1762 -0.8686
  167MOL0     H22488   6.454   0.722   1.253  2.0189  1.7772 -0.3193
  167MOL0     H22489   6.505   0.642   1.101 -0.6014 -2.4182 -0.2091
  167MOL0     H22490   6.394   0.426   1.161 -1.0071 -0.8390  0.1908
  167MOL0     H22491   6.360   0.494   1.327  3.0123  0.9946  1.9021
  167MOL0     H22492   6.160   0.493   1.163 -0.9910  0.5004 -1.4978
  167MOL0     H22493   6.217   0.661   1.198 -0.1615 -1.5538  1.9145
  167MOL0     H22494   6.322   0.654   0.969 -1.1869  1.6513  1.1319
  167MOL0     H22495   6.154   0.604   0.948 -0.2800 -2.8095 -1.9662
  167MOL0     H22496   6.502   0.453   0.913 -0.3138  0.4655 -0.7894
  167MOL0     H22497   6.469   0.123   0.738 -1.0730 -1.1845  1.4389
  167MOL0     H22498   6.591   0.240   0.803 -1.0559  2.0201 -0.0321
  167MOL0     H22499   6.435   0.048   0.980 -0.1850  0.6616 -1.5148
  167MOL0     H22500   6.559   0.166   1.026  0.2831 -0.4008  1.0338
  167MOL0     H22501   6.690  -0.008   1.018  2.6966  0.7268 -1.2661
  167MOL0     H22502   6.716   0.025   0.846  0.2391  0.9987 -0.1253
  167MOL0     H22503   6.519  -0.124   0.793  0.8244 -2.8317 -1.6271
  167MOL0     H22504   6.502  -0.165   0.958  0.3620  4.3826  1.9181
  167MOL0     H22505   6.897  -0.398   0.824  0.4791 -1.9745  0.2497
  167MOL0     H22506   6.979  -0.607   0.924  1.2678  0.9187 -0.5171
  167MOL0     H22507   6.927  -0.750   0.831  1.0426  0.1770 -1.2043
  167MOL0     H22508   6.976  -0.610   0.745  1.4997 -0.5488  1.3288
  167MOL0     H22509   6.676  -0.978   0.527  0.5350  1.8186  0.4344
  167MOL0     H22510   6.650  -1.228   0.500  0.2338 -1.9552  1.3395
  167MOL0     H22511   6.642  -1.546   0.840  0.3166 -0.0987  0.3158
  167MOL0     H22512   6.667  -1.612   0.678 -0.9012  0.7643 -1.6315
  167MOL0     H22513   6.888  -1.461   0.820 -1.0710 -0.9325 -0.2681
  167MOL0     H22514   6.873  -1.634   0.819 -1.4845  1.3844  1.5828
  167MOL0     H22515   6.871  -1.465   0.564 -1.5472  0.6240  1.6109
  167MOL0     H22516   6.891  -1.648   0.572  1.9941 -1.4309  1.8856
  167MOL0     H22517   7.077  -1.444   0.705  3.3499 -3.5762  3.6406
  167MOL0     H22518   7.093  -1.612   0.698 -1.3376 -0.9576 -1.1160
  167MOL0     H22519   7.117  -1.426   0.450  2.9707 -0.0533 -0.8133
  167MOL0     H22520   7.114  -1.608   0.443 -5.3190  0.5859  0.0690
  167MOL0     H22521   7.288  -1.409   0.592 -1.9780  0.5369 -1.4782
  167MOL0     H22522   7.331  -1.582   0.601  3.0961  1.5873 -0.3572
  167MOL0     H22523   7.289  -1.431   0.342 -1.8380 -1.4434 -0.8472
  167MOL0     H22524   7.362  -1.596   0.356  3.1053  1.1732 -1.7450
  167MOL0     H22525   7.539  -1.494   0.517 -0.0951 -0.0161  0.6372
  167MOL0     H22526   7.472  -1.334   0.462 -1.4516  0.3306  0.9321
  167MOL0     H22527   6.704  -1.286   0.921 -0.2102  2.1582  1.7075
  167MOL0     H22528   6.752  -1.058   0.946 -0.3619  0.7512  0.5928
  167MOL0     H22529   6.456  -0.595   0.894 -1.6414  3.2876 -3.9017
  167MOL0     H22530   6.471  -0.360   0.892 -0.2963 -0.2036  0.3338
  167MOL0     H22531   7.263   0.644   1.579 -1.9083 -1.3771 -0.9628
  167MOL0     H22532   7.511   0.736   1.525  2.0428 -1.5331 -1.4965
  167MOL0     H22533   7.762   1.008   1.285  0.1410 -0.7878  2.8039
  167MOL0     H22534   8.016   1.089   1.253  3.2000 -1.0937 -1.5309
  167MOL0     H22535   8.245   0.896   1.388 -2.2493 -1.6366 -1.6891
  167MOL0     H22536   8.353   0.832   1.253 -0.7723  0.8599 -0.7787
  167MOL0     H22537   8.485   0.982   1.394  0.0332  2.6920 -0.7201
  167MOL0     H22538   8.370   1.109   1.353 -2.1218  0.5697 -2.6094
  167MOL0     H22539   8.583   1.134   1.212 -0.0893  1.0923 -2.2881
  167MOL0     H22540   8.451   1.105   1.111  4.8768 -0.7452 -3.0167
  167MOL0     H22541   8.655   0.980   1.083  2.5594 -1.5041  1.8284
  167MOL0     H22542   8.509   0.878   1.077  0.2883  0.6277 -0.2063
  167MOL0     H22543   8.741   0.736   1.412  0.5160  1.1807  0.1591
  167MOL0     H22544   8.141   0.694   1.213 -0.8562 -0.6144  0.7937
  167MOL0     H22545   7.907   0.615   1.238 -0.3880 -0.4084  1.0446
  168MOL0     O22546   4.104   1.713  10.369 -0.1522 -0.0802 -0.2450
  168MOL0     C22547   4.143   1.822  10.321 -0.5465 -0.7101  0.3780
  168MOL0     O22548   4.068   1.935  10.311  0.2554  0.1133  0.0847
  168MOL0     C22549   3.932   1.935  10.317  0.5237  1.1787 -0.0636
  168MOL0     C22550   3.851   1.863  10.408  0.3205 -0.4961  0.1510
  168MOL0     C22551   3.710   1.877  10.410 -0.1481 -1.0303 -0.1535
  168MOL0     C22552   3.643   1.975  10.332 -1.0203 -0.3275  0.4068
  168MOL0     O22553   3.510   1.999  10.336 -0.1648 -0.0760  0.1603
  168MOL0     C22554   3.448   1.973  10.467 -0.1000 -0.3606  0.0909
  168MOL0     C22555   3.299   2.023  10.457 -0.5386 -0.3246  0.3321
  168MOL0     C22556   3.224   1.993  10.592 -0.0153  0.2601 -0.3382
  168MOL0     C22557   3.069   2.012  10.587  0.4540  0.5878  0.0442
  168MOL0     C22558   2.990   1.992  10.721 -0.9145  0.1482  0.5834
  168MOL0     C22559   3.024   2.111  10.818 -0.1206  0.1083  0.2319
  168MOL0     C22560   2.949   2.109  10.943  0.3400 -0.4512 -0.7553
  168MOL0     C22561   2.810   2.175  10.927  0.0321  0.1123 -0.6355
  168MOL0     N22562   2.735   2.176  11.056  0.3247 -0.0574  0.6444
  168MOL0     C22563   2.728   2.269  11.159  0.2143  1.2821  0.2746
  168MOL0     C22564   2.650   2.218  11.253  0.1399  0.4850  0.0991
  168MOL0     C22565   2.611   2.286  11.381 -0.0971 -0.7630  0.1192
  168MOL0     C22566   2.555   2.187  11.484  0.6115  0.2473 -0.3612
  168MOL0     C22567   2.654   2.094  11.554  0.1419  0.3553 -0.0402
  168MOL0     C22568   2.736   2.173  11.661  0.7767  0.1309  0.1873
  168MOL0     O22569   2.845   2.098  11.694  0.0635 -0.0806 -0.0847
  168MOL0     C22570   2.938   2.160  11.776 -0.6127  0.4920 -0.1082
  168MOL0     C22571   2.907   2.247  11.887 -0.2875 -0.0103 -0.3685
  168MOL0     C22572   3.003   2.303  11.973 -0.0873  0.3437  0.0043
  168MOL0     C22573   2.963   2.402  12.074  0.1736 -0.1969 -0.7560
  168MOL0     C22574   3.146   2.262  11.955 -0.0268 -0.6447 -0.0225
  168MOL0     C22575   3.259   2.310  12.038 -0.1798 -0.3217 -0.7396
  168MOL0     O22576   3.367   2.230  12.057  0.1271 -0.2794  0.1708
  168MOL0     C22577   3.481   2.272  12.120 -0.7229 -0.1575  0.7834
  168MOL0     C22578   3.464   2.325  12.250 -1.0008  0.6539 -1.3066
  168MOL0     C22579   3.576   2.352  12.325 -1.1545  0.4835 -0.3149
  168MOL0     C22580   3.707   2.324  12.279 -0.5698 -0.6562  0.4061
  168MOL0     O22581   3.809   2.379  12.349 -0.2764  0.6572  0.4817
  168MOL0     C22582   3.898   2.281  12.401  0.4199  0.7776 -0.4091
  168MOL0     C22583   3.987   2.367  12.491 -0.1273  0.2793 -0.6279
  168MOL0     C22584   4.108   2.298  12.548 -0.5631  0.4658 -0.3451
  168MOL0     C22585   4.104   2.282  12.705 -0.8410  0.0195 -0.4716
  168MOL0     C22586   4.223   2.219  12.777 -0.2998 -0.0807  0.0760
  168MOL0     C22587   4.218   2.207  12.922  0.7149 -0.2721  0.5007
  168MOL0     C22588   4.325   2.113  12.991  0.7691 -0.1470 -0.0135
  168MOL0     C22589   4.274   2.072  13.128  0.1271  0.7443 -0.1903
  168MOL0    Cl22590   4.238   2.208  13.247 -0.0447  0.2730  0.1366
  168MOL0     C22591   3.723   2.270  12.148 -0.4673  0.4074 -1.0767
  168MOL0     C22592   3.607   2.239  12.076 -0.8545 -0.6689 -0.9941
  168MOL0     O22593   3.247   2.423  12.088  0.5399 -0.1754 -0.8564
  168MOL0     C22594   3.170   2.173  11.853  0.1658  0.6464  0.3739
  168MOL0     C22595   3.071   2.129  11.767 -0.6670 -0.6539  0.6361
  168MOL0     N22596   2.598   2.104  11.202  0.3145 -0.4186  1.0375
  168MOL0     N22597   2.654   2.078  11.087  0.2862  0.4500 -0.3129
  168MOL0     C22598   3.721   2.043  10.240 -0.4232 -0.3404 -0.2539
  168MOL0     C22599   3.863   2.032  10.235  0.0424 -0.2982 -0.5907
  168MOL0     C22600   4.291   1.838  10.282 -0.2298  0.0163 -0.0750
  168MOL0     C22601   4.399   1.773  10.343  0.4459 -0.0045  0.2089
  168MOL0     C22602   4.529   1.790  10.297 -0.2061  0.5763 -0.2798
  168MOL0     C22603   4.557   1.865  10.186 -0.5205 -0.8793  0.3282
  168MOL0     O22604   4.688   1.867  10.153  0.4359  0.4546 -0.1586
  168MOL0     C22605   4.730   1.923  10.032  0.3474  0.1192 -0.1615
  168MOL0     C22606   4.862   1.876  10.000 -1.2399  0.2950  0.1557
  168MOL0     C22607   4.969   1.882  10.106 -0.1382 -0.0158  0.1060
  168MOL0     C22608   5.109   1.883  10.036 -0.1163 -0.6935 -0.0195
  168MOL0     C22609   5.215   1.900  10.135  0.2064 -0.1777  0.2650
  168MOL0     C22610   5.304   1.907  10.224 -0.0999 -0.3775  1.3972
  168MOL0     C22611   4.453   1.937  10.125 -0.1498  1.2436 -0.3159
  168MOL0     C22612   4.318   1.927  10.171 -0.8117  0.2380 -0.0156
  168MOL0     H22613   3.901   1.799  10.480  0.0216 -2.4996 -1.3410
  168MOL0     H22614   3.654   1.824  10.485  0.3443  0.0342  1.0027
  168MOL0     H22615   3.451   1.864  10.476  0.1873 -0.4395 -0.8180
  168MOL0     H22616   3.485   2.016  10.560  1.1663  0.1068 -0.6182
  168MOL0     H22617   3.295   2.129  10.432 -0.3804 -0.7904 -1.8698
  168MOL0     H22618   3.255   1.976  10.369 -0.0991  0.3910 -0.2795
  168MOL0     H22619   3.229   1.885  10.606 -2.3438 -0.0556 -1.5055
  168MOL0     H22620   3.271   2.047  10.675  0.6657 -1.4796  0.4527
  168MOL0     H22621   3.056   2.120  10.576 -1.5429  0.4278  0.5092
  168MOL0     H22622   3.034   1.954  10.501 -1.5504  1.3702  0.2928
  168MOL0     H22623   2.883   1.982  10.700 -1.0108 -0.5778  1.3812
  168MOL0     H22624   3.011   1.895  10.766 -1.3216 -2.7612 -4.6418
  168MOL0     H22625   3.129   2.096  10.846  0.1331  1.6115  0.1664
  168MOL0     H22626   3.015   2.204  10.762 -0.4479  0.8786  1.5459
  168MOL0     H22627   2.943   2.008  10.984 -0.0107 -0.1223  0.0338
  168MOL0     H22628   3.001   2.167  11.021 -0.6422 -0.6535  0.0712
  168MOL0     H22629   2.749   2.109  10.865 -1.2235 -0.3066  0.9881
  168MOL0     H22630   2.819   2.276  10.885  0.1253  0.1161 -0.6044
  168MOL0     H22631   2.787   2.358  11.178  1.6221  0.2189  1.1009
  168MOL0     H22632   2.695   2.344  11.420  0.0505 -1.2833  0.5898
  168MOL0     H22633   2.527   2.347  11.348  1.2414  0.3759 -1.2983
  168MOL0     H22634   2.479   2.120  11.443  0.2654  1.5288 -1.9342
  168MOL0     H22635   2.500   2.234  11.566 -0.4088 -1.2344 -0.1723
  168MOL0     H22636   2.715   2.037  11.483 -1.0719 -1.1063  0.0399
  168MOL0     H22637   2.594   2.017  11.604  0.8352  0.3654  0.8366
  168MOL0     H22638   2.677   2.187  11.752  0.4968 -0.8910  0.1850
  168MOL0     H22639   2.750   2.277  11.631  0.8180 -0.2327 -1.1199
  168MOL0     H22640   2.805   2.279  11.904 -0.7043 -0.6481 -1.5563
  168MOL0     H22641   2.979   2.505  12.042 -2.7184  0.0382 -1.7395
  168MOL0     H22642   2.856   2.393  12.097  0.2784 -0.1559 -0.2411
  168MOL0     H22643   3.016   2.396  12.170 -0.2820  2.1458 -0.3038
  168MOL0     H22644   3.368   2.344  12.297  0.4859  2.6471  1.1498
  168MOL0     H22645   3.568   2.394  12.425  1.6080  0.0493  0.1847
  168MOL0     H22646   3.849   2.198  12.452  0.6052 -0.9283 -2.8381
  168MOL0     H22647   3.966   2.226  12.335  0.8098 -1.5130  1.7725
  168MOL0     H22648   4.027   2.453  12.437  1.1535 -0.0267 -0.2149
  168MOL0     H22649   3.932   2.410  12.575  0.8742 -1.1912  0.8361
  168MOL0     H22650   4.199   2.355  12.528  0.1926 -0.0437  1.4139
  168MOL0     H22651   4.117   2.196  12.509  0.1471  0.4117 -0.0580
  168MOL0     H22652   4.102   2.383  12.747  0.1831 -0.6710  1.3700
  168MOL0     H22653   4.010   2.234  12.734 -0.7120  0.0884  0.0767
  168MOL0     H22654   4.309   2.281  12.749 -1.8838  1.4505 -1.7514
  168MOL0     H22655   4.226   2.120  12.732  0.1726  0.5257 -1.2864
  168MOL0     H22656   4.236   2.308  12.961  2.3795  0.4144 -1.8693
  168MOL0     H22657   4.119   2.173  12.954  1.9126 -1.0949  3.7584
  168MOL0     H22658   4.420   2.168  12.999  0.2727  0.4789  4.2650
  168MOL0     H22659   4.341   2.023  12.931  2.0419  0.2371 -0.2870
  168MOL0     H22660   4.350   2.005  13.169 -0.4059 -0.3607 -0.9374
  168MOL0     H22661   4.185   2.011  13.108  4.5059 -6.2965 -1.5620
  168MOL0     H22662   3.815   2.244  12.097 -1.4217 -0.1062 -2.5921
  168MOL0     H22663   3.632   2.177  11.990  0.7573 -1.4854  0.0176
  168MOL0     H22664   3.274   2.153  11.829  0.2462  0.1603  1.1005
  168MOL0     H22665   3.102   2.071  11.680 -2.2157  0.3412 -0.6387
  168MOL0     H22666   3.678   2.115  10.170 -1.5234 -0.1628  0.5788
  168MOL0     H22667   3.928   2.094  10.174  0.0814  1.2343  0.9510
  168MOL0     H22668   4.376   1.719  10.434 -1.4709  0.4300  0.0130
  168MOL0     H22669   4.610   1.746  10.356 -2.4215 -0.6801  2.0243
  168MOL0     H22670   4.658   1.904   9.952 -0.0467  0.0445  0.2136
  168MOL0     H22671   4.736   2.032  10.043  0.3740  0.1557 -0.5069
  168MOL0     H22672   4.886   1.940   9.914 -0.5434 -2.0878 -1.5439
  168MOL0     H22673   4.857   1.772   9.967  0.8339  0.4820 -0.9090
  168MOL0     H22674   4.961   1.797  10.175 -1.5634 -0.1166 -0.1406
  168MOL0     H22675   4.956   1.972  10.167  0.7780  0.4667 -0.3962
  168MOL0     H22676   5.118   1.969   9.969 -2.0164 -0.4379 -0.0224
  168MOL0     H22677   5.136   1.789   9.987  0.0528 -1.0256  0.6843
  168MOL0     H22678   5.365   1.911  10.313  0.1359  1.5726  1.1969
  168MOL0     H22679   4.480   1.998  10.040  2.9351  1.3252  0.6034
  168MOL0     H22680   4.240   1.987  10.127  0.5974  2.5670  0.4672
  169MOL0     O22681   5.467   9.174   2.928 -0.7972 -0.1978  0.5745
  169MOL0     C22682   5.426   9.064   2.903  1.0568 -0.8409 -0.6883
  169MOL0     O22683   5.292   9.049   2.861 -0.4155  0.1080 -0.4536
  169MOL0     C22684   5.209   9.159   2.843  0.2544  0.1420  0.2615
  169MOL0     C22685   5.214   9.248   2.734  0.0899 -0.3430  0.5504
  169MOL0     C22686   5.111   9.340   2.714 -0.1696  0.9794 -0.6340
  169MOL0     C22687   5.002   9.337   2.790  0.2679 -0.3811 -0.1287
  169MOL0     O22688   4.910   9.427   2.755 -1.3219  0.2605 -0.3843
  169MOL0     C22689   4.777   9.378   2.759 -0.4250 -0.6363 -0.3490
  169MOL0     C22690   4.682   9.463   2.682 -0.3425 -0.3137 -0.6130
  169MOL0     C22691   4.536   9.415   2.710  0.2164  0.4192  0.1664
  169MOL0     C22692   4.420   9.468   2.624 -0.4780 -0.5870  1.0398
  169MOL0     C22693   4.284   9.407   2.663 -0.0956  0.0960 -0.3825
  169MOL0     C22694   4.194   9.437   2.547  0.9045  1.1641  0.0076
  169MOL0     C22695   4.051   9.383   2.550  0.2820 -0.7142 -0.3184
  169MOL0     C22696   3.961   9.458   2.656  0.0998 -0.4583 -0.5462
  169MOL0     N22697   3.940   9.598   2.609  0.8915 -1.1825 -0.3518
  169MOL0     C22698   3.980   9.714   2.675  0.3794  0.0187  0.7128
  169MOL0     C22699   3.931   9.811   2.593 -0.0811 -0.0208  0.2470
  169MOL0     C22700   3.970   9.953   2.597  0.3187 -0.2962 -0.2579
  169MOL0     C22701   3.895  10.028   2.716 -0.7243 -0.2206  0.1525
  169MOL0     C22702   3.913   9.974   2.853  0.1226 -0.2320 -0.0989
  169MOL0     C22703   4.060   9.969   2.892 -0.4357  0.8352 -0.3081
  169MOL0     O22704   4.113  10.092   2.913  0.0005  0.4604 -0.7425
  169MOL0     C22705   4.244  10.113   2.942  0.9776 -0.8021  0.9882
  169MOL0     C22706   4.285  10.243   2.955 -0.2382 -0.5689  0.1348
  169MOL0     C22707   4.417  10.278   2.989 -0.3407 -0.3764  0.3657
  169MOL0     C22708   4.449  10.429   3.006  0.4781  0.9185  0.3894
  169MOL0     C22709   4.512  10.172   3.009  1.4925 -0.1989  0.2637
  169MOL0     C22710   4.649  10.194   3.055  0.3614  1.3216  0.8367
  169MOL0     O22711   4.749  10.122   2.993  0.3585  0.1809  0.3761
  169MOL0     C22712   4.877  10.136   3.035  0.0670 -0.7678  0.3112
  169MOL0     C22713   4.930  10.180   3.158  1.1383 -0.3601  0.1044
  169MOL0     C22714   5.071  10.186   3.170 -0.1608 -0.5352 -1.0154
  169MOL0     C22715   5.158  10.133   3.070 -0.7845  0.2161 -0.0833
  169MOL0     O22716   5.291  10.133   3.103 -0.0947 -0.3031 -0.3976
  169MOL0     C22717   5.374  10.046   3.023  0.2012  0.7300 -0.3723
  169MOL0     C22718   5.515  10.045   3.105  0.8941 -0.1239 -0.5627
  169MOL0     C22719   5.610   9.962   3.014 -0.1997  0.0563  0.6726
  169MOL0     C22720   5.746   9.936   3.082  0.0089  0.3256 -0.8350
  169MOL0     C22721   5.829  10.067   3.107  0.2713  0.1263 -0.3604
  169MOL0     C22722   5.962  10.030   3.164 -0.0990 -0.3203 -0.8146
  169MOL0     C22723   6.033  10.160   3.203 -0.4523 -0.0331  0.5385
  169MOL0     C22724   6.180  10.130   3.227  0.8836 -0.1407  0.3572
  169MOL0    Cl22725   6.270  10.099   3.073 -0.0038  0.5275  0.2180
  169MOL0     C22726   5.103  10.092   2.947 -0.2291 -0.5026 -0.5896
  169MOL0     C22727   4.965  10.094   2.931  0.4320 -0.3397  0.5041
  169MOL0     O22728   4.665  10.288   3.136 -0.3022 -0.6778  0.9667
  169MOL0     C22729   4.470  10.042   2.985 -0.7186  0.5859  0.0799
  169MOL0     C22730   4.338  10.013   2.945  0.8864 -0.2693 -0.4874
  169MOL0     N22731   3.861   9.755   2.490 -0.6822  0.4085  0.7754
  169MOL0     N22732   3.848   9.628   2.512  0.6252 -0.7947  0.7181
  169MOL0     C22733   4.988   9.256   2.903 -0.3878 -0.7432  0.0105
  169MOL0     C22734   5.097   9.170   2.923 -0.8099 -0.0444 -0.8594
  169MOL0     C22735   5.516   8.952   2.928  0.2225  0.6534 -0.3105
  169MOL0     C22736   5.651   8.961   2.964 -0.2218 -0.3180 -0.1402
  169MOL0     C22737   5.734   8.842   2.974 -0.1110 -0.7856 -1.2578
  169MOL0     C22738   5.678   8.711   2.954 -0.4027 -1.1441  0.4534
  169MOL0     O22739   5.754   8.595   2.969  0.2019  0.2763 -0.7968
  169MOL0     C22740   5.868   8.611   3.062  0.2833  0.4920  1.3082
  169MOL0     C22741   5.825   8.625   3.212  0.6327 -0.1300 -0.8472
  169MOL0     C22742   5.766   8.494   3.259 -0.0711 -0.6629 -0.6975
  169MOL0     C22743   5.744   8.502   3.409  0.9793 -0.6226 -0.7454
  169MOL0     C22744   5.678   8.376   3.444  0.5279 -0.7934 -0.6391
  169MOL0     C22745   5.621   8.278   3.480 -0.6447  0.0533  0.1745
  169MOL0     C22746   5.540   8.708   2.924 -0.3011 -0.2431 -0.9442
  169MOL0     C22747   5.463   8.822   2.914  0.0705  0.1671  0.4602
  169MOL0     H22748   5.293   9.243   2.659 -0.7188  0.7314 -0.3984
  169MOL0     H22749   5.107   9.416   2.636 -1.3274  2.7482  1.0417
  169MOL0     H22750   4.765   9.277   2.720 -2.6274 -0.0112 -1.4734
  169MOL0     H22751   4.733   9.381   2.859  0.8997  1.4424  0.2616
  169MOL0     H22752   4.692   9.568   2.712  3.8199 -0.4133 -0.9699
  169MOL0     H22753   4.694   9.464   2.573  0.9392  0.7112 -0.4952
  169MOL0     H22754   4.544   9.307   2.700 -1.3102  0.3756 -0.8358
  169MOL0     H22755   4.512   9.447   2.812  0.9084 -0.6941  0.6953
  169MOL0     H22756   4.413   9.576   2.637  4.0078  0.4484 -2.6460
  169MOL0     H22757   4.451   9.454   2.521 -0.4592 -0.4677  1.0292
  169MOL0     H22758   4.286   9.301   2.690 -2.6305  0.3677  1.2183
  169MOL0     H22759   4.255   9.461   2.754  5.1019  2.5349  0.1866
  169MOL0     H22760   4.189   9.546   2.538 -2.0402  1.2045  1.2239
  169MOL0     H22761   4.238   9.400   2.454  0.4090  0.5567  0.0107
  169MOL0     H22762   3.996   9.378   2.455 -0.5577  0.5507  0.0710
  169MOL0     H22763   4.057   9.277   2.577 -1.8165 -1.1827 -1.4641
  169MOL0     H22764   3.997   9.446   2.758 -1.0861  0.7576  0.0442
  169MOL0     H22765   3.863   9.412   2.670  0.5735 -1.4687 -0.4860
  169MOL0     H22766   4.045   9.729   2.760 -0.1817  2.5792  0.7654
  169MOL0     H22767   4.078   9.972   2.607  0.3448  0.0885 -1.1404
  169MOL0     H22768   3.938  10.005   2.506 -1.6228 -1.8190 -0.4862
  169MOL0     H22769   3.789  10.016   2.690 -0.9345  0.7549  0.5300
  169MOL0     H22770   3.923  10.133   2.711  0.9976 -0.6564  0.1406
  169MOL0     H22771   3.868   9.874   2.860 -1.7134  0.5458 -0.3668
  169MOL0     H22772   3.869  10.046   2.923  1.6726  1.1343 -0.4881
  169MOL0     H22773   4.124   9.915   2.822  0.2386  1.6447 -0.3355
  169MOL0     H22774   4.059   9.915   2.987 -0.9698  0.6746 -0.3981
  169MOL0     H22775   4.207  10.318   2.946  0.3678  0.1040  0.3428
  169MOL0     H22776   4.434  10.467   3.107 -1.4351 -1.1819  0.9752
  169MOL0     H22777   4.557  10.440   2.993  0.5376  1.7230  1.3952
  169MOL0     H22778   4.388  10.481   2.932  0.6732  0.7172  0.0806
  169MOL0     H22779   4.870  10.217   3.240  2.0694 -0.5258  0.8680
  169MOL0     H22780   5.113  10.230   3.260 -0.6482  1.7050 -1.8127
  169MOL0     H22781   5.327   9.948   3.033 -0.0442  0.8402 -0.4531
  169MOL0     H22782   5.402  10.071   2.920  1.5383 -4.0892 -1.4515
  169MOL0     H22783   5.542  10.151   3.110  1.8629 -0.3804 -0.0044
  169MOL0     H22784   5.496  10.006   3.205  0.5487  3.0796  0.7421
  169MOL0     H22785   5.623  10.020   2.922  0.9527  0.1800  0.8891
  169MOL0     H22786   5.555   9.869   2.996 -2.8133  1.2586  1.9397
  169MOL0     H22787   5.724   9.883   3.175 -3.2706 -2.0245 -2.7141
  169MOL0     H22788   5.807   9.871   3.019  0.4777  1.0207 -1.1023
  169MOL0     H22789   5.786  10.139   3.177  3.1618 -0.4980  2.2686
  169MOL0     H22790   5.856  10.127   3.020 -2.7030  1.7830 -0.2720
  169MOL0     H22791   5.953   9.968   3.253  2.4072 -0.5665 -0.6554
  169MOL0     H22792   6.030   9.978   3.096  2.3592  1.8748 -0.2066
  169MOL0     H22793   5.983  10.190   3.295 -0.1140  0.5640  0.5337
  169MOL0     H22794   6.015  10.240   3.132  0.9413  0.6259  0.8912
  169MOL0     H22795   6.187  10.042   3.291 -1.3221  1.7647  3.5124
  169MOL0     H22796   6.217  10.211   3.289  2.6946 -1.9929  1.8285
  169MOL0     H22797   5.169  10.041   2.877  0.1229 -1.3588  0.3248
  169MOL0     H22798   4.930  10.057   2.835 -2.7438 -0.7006  1.7034
  169MOL0     H22799   4.538   9.959   2.999 -0.9697 -0.0458 -2.0096
  169MOL0     H22800   4.321   9.907   2.933  1.3191 -0.9149  3.3785
  169MOL0     H22801   4.901   9.262   2.968  0.6631 -0.9619  1.4887
  169MOL0     H22802   5.096   9.098   3.005  0.3973 -0.1573 -0.9192
  169MOL0     H22803   5.690   9.055   3.003 -0.9459 -0.9071  2.1639
  169MOL0     H22804   5.834   8.863   3.011 -0.3308 -1.6336 -0.1326
  169MOL0     H22805   5.927   8.520   3.048 -3.6822 -2.0253 -1.1452
  169MOL0     H22806   5.934   8.694   3.037 -0.5307  0.2948 -1.8118
  169MOL0     H22807   5.744   8.698   3.225 -1.1137 -1.8655 -1.4474
  169MOL0     H22808   5.918   8.641   3.267 -0.0638 -2.1993  1.0587
  169MOL0     H22809   5.829   8.407   3.240  2.4247 -0.0132  3.4521
  169MOL0     H22810   5.669   8.487   3.208 -0.0903  1.9998 -1.1438
  169MOL0     H22811   5.680   8.585   3.438 -0.5854 -2.4003  1.1951
  169MOL0     H22812   5.842   8.518   3.455  0.0396  0.6342  0.9045
  169MOL0     H22813   5.561   8.189   3.485 -2.5290  0.9910 -2.8140
  169MOL0     H22814   5.487   8.620   2.890 -0.0920 -0.2257 -1.3317
  169MOL0     H22815   5.357   8.803   2.901 -0.0791 -0.2338  2.0833
  170MOL0     O22816  11.125   3.830   3.066 -0.0489  0.1969  0.3747
  170MOL0     C22817  11.089   3.717   3.045 -0.8068 -0.0410 -0.5788
  170MOL0     O22818  10.967   3.671   3.040  0.3111 -0.7928  0.1803
  170MOL0     C22819  10.860   3.725   3.100 -0.0215  0.4531 -0.5980
  170MOL0     C22820  10.735   3.671   3.062 -1.0621  0.6209  0.1637
  170MOL0     C22821  10.624   3.716   3.125 -0.1132  0.0369  0.1410
  170MOL0     C22822  10.629   3.800   3.231 -0.0942  0.9235 -0.4228
  170MOL0     O22823  10.510   3.846   3.282  0.5913 -0.0018 -0.8082
  170MOL0     C22824  10.511   3.981   3.315  0.4995 -0.1933 -0.4622
  170MOL0     C22825  10.378   4.030   3.258 -0.3995 -0.7861  0.5018
  170MOL0     C22826  10.403   4.082   3.112 -0.2592  0.1910  0.0477
  170MOL0     C22827  10.287   4.181   3.082 -0.2754 -0.9999 -0.0553
  170MOL0     C22828  10.145   4.118   3.078 -0.0623  0.2175  0.8098
  170MOL0     C22829  10.039   4.212   3.128 -0.3431  0.3481 -0.1848
  170MOL0     C22830   9.894   4.159   3.144 -0.7199  0.4349  0.2391
  170MOL0     C22831   9.794   4.271   3.174 -0.5101  0.4672  0.7766
  170MOL0     N22832   9.665   4.221   3.222  0.3257 -0.4495  0.0325
  170MOL0     C22833   9.619   4.109   3.290 -0.5663  1.2251 -0.2673
  170MOL0     C22834   9.498   4.133   3.337  0.5203 -0.9075  0.4049
  170MOL0     C22835   9.394   4.038   3.404  0.4256  0.3626  1.0629
  170MOL0     C22836   9.285   4.009   3.302  0.5090  0.2221 -0.3302
  170MOL0     C22837   9.157   3.983   3.378 -0.0768 -0.1289  0.5575
  170MOL0     C22838   9.095   4.099   3.456 -0.4046 -0.1543  0.1803
  170MOL0     O22839   8.959   4.057   3.476  0.5215  0.7959  0.6238
  170MOL0     C22840   8.860   4.109   3.391  0.0034 -0.4122  0.2415
  170MOL0     C22841   8.754   4.020   3.370 -0.0323  1.5341 -0.0092
  170MOL0     C22842   8.637   4.059   3.300 -0.6307  0.1949 -1.0071
  170MOL0     C22843   8.539   3.943   3.280 -0.4725 -0.7467 -0.6593
  170MOL0     C22844   8.638   4.182   3.233 -0.4381 -0.6487 -0.3180
  170MOL0     C22845   8.517   4.224   3.154 -0.5996 -0.7628  0.4709
  170MOL0     O22846   8.547   4.320   3.054  0.0871  0.2254 -0.4177
  170MOL0     C22847   8.449   4.351   2.965  0.6830  0.3634 -0.7524
  170MOL0     C22848   8.433   4.279   2.847  0.4067 -0.6591 -0.3229
  170MOL0     C22849   8.354   4.331   2.749  0.2767  0.0275  0.0326
  170MOL0     C22850   8.280   4.453   2.759  0.3624  0.0991 -0.3053
  170MOL0     O22851   8.208   4.515   2.662  1.1091  0.0563  0.4942
  170MOL0     C22852   8.271   4.510   2.531 -0.1898 -0.3446  0.3174
  170MOL0     C22853   8.240   4.640   2.453  0.3783 -0.6799  0.3202
  170MOL0     C22854   8.316   4.755   2.523  0.0200  0.6006 -0.2192
  170MOL0     C22855   8.326   4.876   2.421  0.1776  0.1228 -0.5275
  170MOL0     C22856   8.219   4.986   2.434  0.1383  0.2021 -0.2643
  170MOL0     C22857   8.246   5.107   2.351 -0.6378 -0.1265  0.5095
  170MOL0     C22858   8.248   5.081   2.200 -0.0711  0.0776 -0.2586
  170MOL0     C22859   8.260   5.211   2.116  0.2786  0.6229 -1.3867
  170MOL0    Cl22860   8.292   5.189   1.953 -0.1411  0.3479  0.1374
  170MOL0     C22861   8.300   4.523   2.877 -0.1591 -0.2624  0.3988
  170MOL0     C22862   8.382   4.468   2.976  0.7925  0.7440  0.3199
  170MOL0     O22863   8.411   4.166   3.163 -0.1437  1.6588 -0.2513
  170MOL0     C22864   8.752   4.267   3.251  0.5368 -0.1658 -0.3816
  170MOL0     C22865   8.858   4.238   3.333 -0.0750  0.5150 -0.3080
  170MOL0     N22866   9.478   4.267   3.311 -0.0876 -0.1796 -1.1359
  170MOL0     N22867   9.572   4.314   3.241 -0.2136 -0.0931  0.0115
  170MOL0     C22868  10.756   3.833   3.285 -0.6323 -0.6127 -0.3778
  170MOL0     C22869  10.870   3.796   3.223  0.5984  0.4103  0.2633
  170MOL0     C22870  11.192   3.608   3.039 -1.1695 -0.4798  0.5702
  170MOL0     C22871  11.322   3.623   3.092  0.0727 -0.4795 -0.3363
  170MOL0     C22872  11.416   3.520   3.091 -0.0813  0.0759  0.0880
  170MOL0     C22873  11.380   3.389   3.047  0.1823  0.7618  0.2737
  170MOL0     O22874  11.481   3.287   3.027  0.4798  0.3030  0.2141
  170MOL0     C22875  11.619   3.318   3.028  0.4220 -0.4725 -0.5807
  170MOL0     C22876  11.695   3.188   3.009 -0.4960  0.3166 -0.2419
  170MOL0     C22877  11.840   3.207   3.045 -0.5608  0.9507 -0.2642
  170MOL0     C22878  11.909   3.069   3.066  0.1310  0.1882  0.4966
  170MOL0     C22879  12.052   3.073   3.091 -0.1007 -0.6263  0.9618
  170MOL0     C22880  12.166   3.079   3.123 -0.0066 -0.5003  0.3042
  170MOL0     C22881  11.248   3.369   2.995  0.5871  0.4693  0.1636
  170MOL0     C22882  11.160   3.478   2.986  0.3058  0.6530 -0.7320
  170MOL0     H22883  10.756   3.598   2.985  4.7601 -0.0556  1.9579
  170MOL0     H22884  10.528   3.680   3.090  0.2993 -1.1564  0.1786
  170MOL0     H22885  10.505   3.995   3.423  1.1912  2.1460 -0.6904
  170MOL0     H22886  10.588   4.048   3.276 -1.9789  2.1162 -1.7026
  170MOL0     H22887  10.302   3.951   3.252 -2.0622  0.8299 -4.0642
  170MOL0     H22888  10.340   4.114   3.316  1.6377  1.0536 -0.7022
  170MOL0     H22889  10.499   4.133   3.099  0.3116 -0.5431  1.2650
  170MOL0     H22890  10.392   3.999   3.041 -2.2429 -0.3091  0.8792
  170MOL0     H22891  10.302   4.247   3.169 -2.7354 -2.0683  1.3034
  170MOL0     H22892  10.310   4.241   2.994  0.9699  0.4713  1.1854
  170MOL0     H22893  10.123   4.070   2.983 -1.4495 -1.9842  2.1644
  170MOL0     H22894  10.144   4.042   3.157 -0.0293  0.2194  0.8124
  170MOL0     H22895  10.083   4.262   3.214  2.2695 -1.7791 -0.1363
  170MOL0     H22896  10.037   4.283   3.045  0.0042 -1.7372 -2.0961
  170MOL0     H22897   9.861   4.098   3.060  1.4693 -1.2328  0.4916
  170MOL0     H22898   9.886   4.085   3.225 -1.8052 -2.1050 -2.0165
  170MOL0     H22899   9.778   4.332   3.085  1.9459 -2.0968 -1.6351
  170MOL0     H22900   9.843   4.333   3.250 -0.2235  1.3041 -0.0728
  170MOL0     H22901   9.677   4.018   3.304 -0.3907  1.2681 -0.7011
  170MOL0     H22902   9.440   3.945   3.439 -2.1176 -1.5552 -0.3804
  170MOL0     H22903   9.351   4.094   3.488  0.5369  1.0401  0.6764
  170MOL0     H22904   9.309   3.921   3.242  0.0190  1.1464 -1.9566
  170MOL0     H22905   9.269   4.091   3.231  1.7989 -1.1307 -2.3146
  170MOL0     H22906   9.171   3.884   3.424 -0.2759 -0.4130  0.0135
  170MOL0     H22907   9.088   3.968   3.294 -0.2840  1.1653  0.4783
  170MOL0     H22908   9.101   4.188   3.393  1.1111  0.1125  0.6440
  170MOL0     H22909   9.140   4.130   3.551  1.6934  0.3691 -0.9078
  170MOL0     H22910   8.757   3.922   3.418  0.6257  0.6432 -1.7829
  170MOL0     H22911   8.581   3.845   3.303 -0.5237 -0.4966  0.5507
  170MOL0     H22912   8.457   3.962   3.350 -0.6908  0.0257 -1.1143
  170MOL0     H22913   8.505   3.948   3.176 -4.0259  2.8786  0.3977
  170MOL0     H22914   8.496   4.192   2.833  0.8951 -0.4190  0.2781
  170MOL0     H22915   8.345   4.282   2.652 -1.4738  0.6251 -0.1556
  170MOL0     H22916   8.379   4.498   2.527 -0.4895 -3.3536 -1.7572
  170MOL0     H22917   8.225   4.433   2.469 -2.2166  1.1264 -0.1221
  170MOL0     H22918   8.266   4.615   2.350  0.1703  1.6593 -0.3440
  170MOL0     H22919   8.132   4.658   2.455  0.5040  1.3271 -3.3311
  170MOL0     H22920   8.421   4.732   2.543 -0.6697 -0.5653  2.6159
  170MOL0     H22921   8.272   4.788   2.618 -4.6358 -2.9678 -0.7589
  170MOL0     H22922   8.420   4.924   2.450 -1.2408  0.8436  3.4520
  170MOL0     H22923   8.329   4.839   2.318 -1.8461 -0.3040 -0.4653
  170MOL0     H22924   8.210   5.019   2.538 -1.8865 -1.3969  0.1414
  170MOL0     H22925   8.116   4.954   2.415 -0.7293  0.7298  3.0075
  170MOL0     H22926   8.161   5.175   2.362  0.9447  2.7461 -2.7417
  170MOL0     H22927   8.341   5.150   2.386 -0.3536 -1.0565  0.8911
  170MOL0     H22928   8.159   5.024   2.171 -0.2973 -0.3931  1.2294
  170MOL0     H22929   8.336   5.020   2.176  1.5370  2.0874  0.2337
  170MOL0     H22930   8.346   5.265   2.156 -0.4764 -0.5304  2.1188
  170MOL0     H22931   8.181   5.283   2.138  0.6103  0.6063 -0.0737
  170MOL0     H22932   8.252   4.617   2.900  1.8565  0.5642  1.4596
  170MOL0     H22933   8.400   4.518   3.070  2.2758  0.3446  0.2596
  170MOL0     H22934   8.750   4.359   3.193  1.8339 -1.4459 -2.6184
  170MOL0     H22935   8.943   4.304   3.336  0.3576 -0.0226  3.3464
  170MOL0     H22936  10.760   3.890   3.377 -0.4056  1.8523 -1.8220
  170MOL0     H22937  10.965   3.810   3.274  0.1945 -0.1956  1.2106
  170MOL0     H22938  11.347   3.719   3.136  0.3219 -0.3272 -0.8089
  170MOL0     H22939  11.518   3.547   3.117 -0.5191  2.5427 -0.5015
  170MOL0     H22940  11.649   3.387   2.949  1.6986 -0.8690 -0.4628
  170MOL0     H22941  11.652   3.364   3.122  3.3289  0.4278 -1.9286
  170MOL0     H22942  11.688   3.150   2.907 -0.0210 -0.6161  0.0577
  170MOL0     H22943  11.667   3.099   3.066 -0.5418 -0.4095 -1.3820
  170MOL0     H22944  11.849   3.254   3.143 -0.4581  0.8265 -0.2130
  170MOL0     H22945  11.878   3.274   2.967 -1.2174  0.4213 -1.0592
  170MOL0     H22946  11.889   3.015   2.973 -0.4553  3.0601 -1.1807
  170MOL0     H22947  11.857   3.027   3.152 -1.8494  0.6430 -0.4158
  170MOL0     H22948  12.271   3.070   3.141  0.5248 -3.0349 -3.0557
  170MOL0     H22949  11.227   3.268   2.961  2.7141  0.3003 -0.8008
  170MOL0     H22950  11.058   3.456   2.956  1.0491 -1.9939 -1.6365
  171MOL0     O22951   1.110   9.990   8.577  0.4925  0.4605  0.3766
  171MOL0     C22952   1.075   9.914   8.670 -0.1205 -0.0153 -0.6677
  171MOL0     O22953   0.976   9.816   8.667  0.9015 -0.0830 -0.2491
  171MOL0     C22954   0.917   9.807   8.546 -0.1123 -0.2438 -0.1189
  171MOL0     C22955   0.819   9.895   8.509  0.6225  0.1343 -0.3108
  171MOL0     C22956   0.747   9.881   8.391 -0.1661  0.1076 -1.0394
  171MOL0     C22957   0.784   9.780   8.303 -0.0684 -0.0629 -0.3327
  171MOL0     O22958   0.719   9.760   8.181 -0.4983 -0.8257  0.2743
  171MOL0     C22959   0.627   9.852   8.116  0.2526  0.2200  0.1659
  171MOL0     C22960   0.579   9.772   7.991 -0.1302 -0.8537  0.0736
  171MOL0     C22961   0.434   9.813   7.943 -0.0113  0.3219  0.0762
  171MOL0     C22962   0.387   9.741   7.815 -0.1392 -0.1217 -0.2213
  171MOL0     C22963   0.259   9.802   7.751  0.0726  0.8564  0.2648
  171MOL0     C22964   0.136   9.754   7.830 -0.1772 -0.3503 -0.3599
  171MOL0     C22965   0.006   9.807   7.755 -0.1735  0.9436  0.1195
  171MOL0     C22966  -0.126   9.731   7.804  0.1211  0.3607 -1.1456
  171MOL0     N22967  -0.234   9.792   7.729 -0.4770 -0.4324  0.8961
  171MOL0     C22968  -0.261   9.760   7.596 -0.7367 -0.3323  0.4585
  171MOL0     C22969  -0.366   9.832   7.559  0.1529 -1.3460 -0.6204
  171MOL0     C22970  -0.437   9.824   7.418 -0.0626  0.7603 -0.0793
  171MOL0     C22971  -0.551   9.719   7.417 -0.8326 -0.5300 -0.3051
  171MOL0     C22972  -0.488   9.579   7.381  0.2147 -0.6103  0.1521
  171MOL0     C22973  -0.593   9.475   7.364  0.8060 -0.2931  0.3240
  171MOL0     O22974  -0.638   9.493   7.222 -0.4141  0.6424 -0.0960
  171MOL0     C22975  -0.757   9.435   7.193  0.0206 -0.3246 -0.0936
  171MOL0     C22976  -0.833   9.479   7.087  0.8240 -0.8259 -0.4237
  171MOL0     C22977  -0.955   9.423   7.045  0.3867 -0.2793 -0.1660
  171MOL0     C22978  -1.009   9.459   6.908 -0.2732  0.2356  0.4961
  171MOL0     C22979  -1.016   9.322   7.117 -0.2374 -0.1025  0.2431
  171MOL0     C22980  -1.151   9.262   7.091 -0.2441  0.2329 -0.2037
  171MOL0     O22981  -1.182   9.149   7.163  0.1385  0.5237  0.5426
  171MOL0     C22982  -1.257   9.038   7.115  1.3075  0.6892  0.2335
  171MOL0     C22983  -1.272   9.004   6.980  0.2242  0.1943 -0.3103
  171MOL0     C22984  -1.363   8.910   6.932 -0.6030 -0.1451 -0.0230
  171MOL0     C22985  -1.456   8.849   7.020 -0.6565  0.1603  0.0378
  171MOL0     O22986  -1.543   8.748   6.995  0.3093 -0.1870  0.4726
  171MOL0     C22987  -1.577   8.721   6.856  0.0281 -0.4557  0.5847
  171MOL0     C22988  -1.621   8.574   6.840  0.1314 -0.4712 -0.8386
  171MOL0     C22989  -1.749   8.555   6.911 -0.8365  0.0318  0.1975
  171MOL0     C22990  -1.824   8.416   6.887  0.0693 -0.2170 -0.3440
  171MOL0     C22991  -1.976   8.439   6.906  0.2984 -0.1980 -0.2262
  171MOL0     C22992  -2.058   8.313   6.856  0.1499  0.1776 -0.3968
  171MOL0     C22993  -2.211   8.333   6.848 -0.7773 -0.3966  0.6949
  171MOL0     C22994  -2.280   8.191   6.845  0.3417 -0.5353  0.5245
  171MOL0    Cl22995  -2.438   8.208   6.771  0.0578 -0.4609 -0.4516
  171MOL0     C22996  -1.445   8.886   7.152  1.2819 -0.0291  1.1008
  171MOL0     C22997  -1.346   8.972   7.203  1.2468  0.2544  0.7281
  171MOL0     O22998  -1.217   9.305   6.997 -0.1826  0.5453  0.6963
  171MOL0     C22999  -0.942   9.275   7.228  0.6478  0.7602  0.3346
  171MOL0     C23000  -0.820   9.329   7.265 -0.0228 -0.2578 -0.0791
  171MOL0     N23001  -0.408   9.894   7.673 -0.3860 -0.5923 -0.5910
  171MOL0     N23002  -0.329   9.879   7.773  0.2800  0.2518  0.7833
  171MOL0     C23003   0.886   9.694   8.334 -1.1163 -0.8287  0.0035
  171MOL0     C23004   0.957   9.712   8.450 -0.3466 -0.8913 -0.2644
  171MOL0     C23005   1.153   9.930   8.791 -0.3241 -0.7242  0.1538
  171MOL0     C23006   1.268  10.006   8.799  0.1375 -0.5242  0.1368
  171MOL0     C23007   1.354  10.000   8.912  0.1095  0.5905  0.0691
  171MOL0     C23008   1.320   9.924   9.029  0.4857 -0.8908  0.5304
  171MOL0     O23009   1.392   9.928   9.143  1.0132 -0.7767 -0.3732
  171MOL0     C23010   1.505  10.013   9.152 -0.6126 -0.0085 -0.0537
  171MOL0     C23011   1.577  10.018   9.292  0.6291  0.5680 -0.6717
  171MOL0     C23012   1.671   9.895   9.318  0.3381 -0.7310  0.0689
  171MOL0     C23013   1.740   9.911   9.456 -0.6362 -0.2807  0.1316
  171MOL0     C23014   1.800  10.044   9.463  0.2084 -0.8385 -0.2473
  171MOL0     C23015   1.832  10.160   9.477 -0.0709  0.4929  0.0471
  171MOL0     C23016   1.192   9.874   9.024 -0.2712 -1.3865 -0.2706
  171MOL0     C23017   1.119   9.863   8.908 -0.1300 -0.8990  0.6627
  171MOL0     H23018   0.801   9.984   8.569  0.2362 -0.9807  1.3256
  171MOL0     H23019   0.670   9.956   8.374  0.0116  0.0019 -2.4878
  171MOL0     H23020   0.539   9.862   8.179 -0.4177 -4.0899  0.2352
  171MOL0     H23021   0.679   9.941   8.081  0.3347 -0.1276 -0.6204
  171MOL0     H23022   0.643   9.794   7.905  1.7772 -3.9908  0.5067
  171MOL0     H23023   0.591   9.665   8.013  1.8536 -0.5609  0.6275
  171MOL0     H23024   0.360   9.806   8.024 -0.3332  3.4039  0.1434
  171MOL0     H23025   0.441   9.919   7.917  0.6117  0.1939 -0.3004
  171MOL0     H23026   0.466   9.761   7.742 -0.5667 -0.5938 -0.8210
  171MOL0     H23027   0.374   9.635   7.841 -0.2963  0.1528  0.8752
  171MOL0     H23028   0.268   9.911   7.749  0.0226  0.8926 -2.4247
  171MOL0     H23029   0.240   9.748   7.658  2.4412  2.3666 -1.1939
  171MOL0     H23030   0.154   9.646   7.835  2.2296 -0.0635 -1.3249
  171MOL0     H23031   0.140   9.798   7.930  5.0540  2.3835 -1.4113
  171MOL0     H23032   0.003   9.915   7.776  0.1691  0.4616  3.0652
  171MOL0     H23033   0.029   9.797   7.648  0.0262 -3.7875  0.3885
  171MOL0     H23034  -0.139   9.733   7.913 -0.6858  0.1352 -1.2392
  171MOL0     H23035  -0.101   9.628   7.778 -1.9909 -1.2835  2.6323
  171MOL0     H23036  -0.205   9.693   7.532 -2.2367  1.0229 -2.5233
  171MOL0     H23037  -0.478   9.922   7.390  1.3533  0.8912 -1.8803
  171MOL0     H23038  -0.361   9.804   7.342  1.3683  1.0264  1.2301
  171MOL0     H23039  -0.626   9.750   7.344  0.7486 -1.0630 -2.2208
  171MOL0     H23040  -0.604   9.722   7.513 -3.7861  0.9652 -1.8664
  171MOL0     H23041  -0.424   9.549   7.464 -0.8529  0.7854  1.5440
  171MOL0     H23042  -0.434   9.577   7.286 -1.6662 -2.3953 -0.9651
  171MOL0     H23043  -0.672   9.478   7.440  0.0714  0.5294 -0.4402
  171MOL0     H23044  -0.540   9.379   7.368  3.1224  0.8389 -1.2534
  171MOL0     H23045  -0.779   9.547   7.021 -0.0345  1.5050  1.1515
  171MOL0     H23046  -0.937   9.525   6.860 -2.0659  2.3690  0.5941
  171MOL0     H23047  -1.027   9.372   6.844 -2.5680 -1.3433  3.0473
  171MOL0     H23048  -1.099   9.521   6.914  0.8776  2.2330 -1.5407
  171MOL0     H23049  -1.211   9.059   6.909  0.5603 -2.1619 -1.9498
  171MOL0     H23050  -1.359   8.895   6.825 -0.7830  0.8449 -0.1808
  171MOL0     H23051  -1.648   8.795   6.819  1.0378 -0.1299 -0.7741
  171MOL0     H23052  -1.489   8.737   6.793 -0.6002 -0.6577 -0.3565
  171MOL0     H23053  -1.638   8.551   6.734 -0.2969 -1.6421 -0.5332
  171MOL0     H23054  -1.546   8.501   6.871  1.6427  0.9398 -1.0624
  171MOL0     H23055  -1.809   8.637   6.871  0.7197  0.6788 -0.8887
  171MOL0     H23056  -1.719   8.564   7.016  1.5166  1.6815 -0.5467
  171MOL0     H23057  -1.797   8.378   6.788  2.8667 -1.8795  0.9336
  171MOL0     H23058  -1.789   8.339   6.956  2.6906 -1.7314 -3.1163
  171MOL0     H23059  -2.004   8.530   6.852  4.6247  0.7104 -1.3242
  171MOL0     H23060  -1.998   8.458   7.011 -0.3368  0.4386 -0.4680
  171MOL0     H23061  -2.015   8.289   6.758  2.4821  0.5209  0.4740
  171MOL0     H23062  -2.037   8.233   6.928  3.6797 -0.9769 -2.4577
  171MOL0     H23063  -2.238   8.397   6.764  0.6966 -0.3197  0.2509
  171MOL0     H23064  -2.250   8.394   6.931 -0.6580  0.6896 -0.0181
  171MOL0     H23065  -2.276   8.142   6.943  2.4252  0.5991  1.0767
  171MOL0     H23066  -2.222   8.127   6.778  0.0423  0.6194 -0.8781
  171MOL0     H23067  -1.513   8.841   7.223  2.4361  0.0012  2.2622
  171MOL0     H23068  -1.361   8.999   7.307  3.3155  0.2981  1.0569
  171MOL0     H23069  -0.994   9.202   7.290 -1.5237  1.8854 -0.0610
  171MOL0     H23070  -0.771   9.302   7.359  2.3104  3.0872 -0.1709
  171MOL0     H23071   0.917   9.616   8.265 -0.0034 -0.8955  0.5556
  171MOL0     H23072   1.034   9.638   8.468 -1.0410 -1.2266  1.5964
  171MOL0     H23073   1.304  10.054   8.709 -1.1921  2.0113  0.8652
  171MOL0     H23074   1.445  10.059   8.904  1.3597 -1.1088  0.9671
  171MOL0     H23075   1.580   9.989   9.076 -0.1449  3.4337 -0.8288
  171MOL0     H23076   1.481  10.117   9.131  1.4423  0.8785  1.5806
  171MOL0     H23077   1.502  10.018   9.372  1.7788  0.4436  0.4528
  171MOL0     H23078   1.635  10.110   9.304 -0.8177  1.7153 -2.1699
  171MOL0     H23079   1.746   9.902   9.238 -1.2384 -1.1723 -1.5314
  171MOL0     H23080   1.628   9.795   9.311 -0.4505 -0.4688  1.0249
  171MOL0     H23081   1.826   9.849   9.483  0.1998  1.9332  2.9995
  171MOL0     H23082   1.671   9.891   9.538  2.9327 -0.3864  3.3842
  171MOL0     H23083   1.838  10.265   9.494  1.5891  0.4541 -0.1248
  171MOL0     H23084   1.148   9.824   9.110 -0.7722 -5.2958 -2.5312
  171MOL0     H23085   1.029   9.803   8.914 -0.0501 -0.9455  1.6251
  172MOL0     O23086   0.137   6.024  10.930  0.2084 -0.0625  0.5805
  172MOL0     C23087   0.213   5.933  10.889  0.4542 -0.1539 -0.0086
  172MOL0     O23088   0.178   5.832  10.808  1.0570  0.4724  0.1824
  172MOL0     C23089   0.071   5.836  10.726  0.1538 -0.1993 -0.0177
  172MOL0     C23090   0.022   5.714  10.682  0.8248  0.5886 -0.4643
  172MOL0     C23091  -0.077   5.697  10.577  0.6219 -0.6651 -0.1367
  172MOL0     C23092  -0.128   5.821  10.518  0.4400  0.0927  0.9399
  172MOL0     O23093  -0.210   5.810  10.405  0.7829 -0.4122  0.0238
  172MOL0     C23094  -0.206   5.694  10.323  0.6622 -0.5411 -0.1133
  172MOL0     C23095  -0.238   5.728  10.175  0.1406 -0.5969  0.0065
  172MOL0     C23096  -0.388   5.747  10.155  0.9670 -0.5640  0.7118
  172MOL0     C23097  -0.405   5.754  10.000  0.3936  0.0327 -0.4523
  172MOL0     C23098  -0.552   5.771   9.952 -0.6924  0.0389  0.6432
  172MOL0     C23099  -0.621   5.903  10.010 -0.0839  0.2024 -0.2431
  172MOL0     C23100  -0.758   5.945   9.948  0.2469  0.3459 -0.5327
  172MOL0     C23101  -0.768   5.962   9.796  0.3540  0.0593 -0.2091
  172MOL0     N23102  -0.759   5.831   9.727  0.2970  0.6018 -0.1382
  172MOL0     C23103  -0.689   5.810   9.611  0.0464 -0.4584 -0.4520
  172MOL0     C23104  -0.707   5.687   9.579 -0.4715  0.0120  0.2400
  172MOL0     C23105  -0.626   5.613   9.486 -0.6786 -0.5375  0.2796
  172MOL0     C23106  -0.493   5.549   9.543 -0.4588  0.2584  0.4695
  172MOL0     C23107  -0.401   5.649   9.621  0.3589  0.5773  0.6742
  172MOL0     C23108  -0.253   5.615   9.597 -0.1508  0.2698  0.1771
  172MOL0     O23109  -0.176   5.675   9.705 -0.4124  0.2405 -0.0079
  172MOL0     C23110  -0.039   5.652   9.699  0.1976 -0.5795 -0.1723
  172MOL0     C23111   0.043   5.723   9.785  0.2286  0.2304  0.7827
  172MOL0     C23112   0.177   5.714   9.790  0.5407 -0.3466 -0.7908
  172MOL0     C23113   0.237   5.789   9.910  0.2389  0.4191 -0.1572
  172MOL0     C23114   0.246   5.624   9.710 -0.2731  0.1881 -0.3703
  172MOL0     C23115   0.392   5.611   9.699 -0.1260  0.4366  0.1464
  172MOL0     O23116   0.453   5.507   9.637 -0.1081  0.1481  0.5040
  172MOL0     C23117   0.585   5.495   9.609 -0.1920 -0.5638  0.0672
  172MOL0     C23118   0.623   5.435   9.489  0.6150  0.3287 -0.5011
  172MOL0     C23119   0.745   5.418   9.443 -0.2896 -0.5930 -0.5151
  172MOL0     C23120   0.853   5.445   9.538  0.0634  0.0561 -0.0474
  172MOL0     O23121   0.981   5.425   9.491 -0.5553 -1.0226  0.0761
  172MOL0     C23122   1.077   5.523   9.517  0.5175  0.3313 -0.2061
  172MOL0     C23123   1.199   5.502   9.423  0.3842  0.2411  0.3918
  172MOL0     C23124   1.311   5.597   9.447  0.0796 -0.0424 -0.3295
  172MOL0     C23125   1.427   5.551   9.359  0.6022  0.0550 -0.2162
  172MOL0     C23126   1.533   5.654   9.362 -0.5768  0.1442  0.2523
  172MOL0     C23127   1.602   5.668   9.231 -0.1370 -0.2430  0.1723
  172MOL0     C23128   1.737   5.739   9.239 -0.3796 -0.0903 -0.4579
  172MOL0     C23129   1.767   5.791   9.095 -0.3587  0.1677  0.0192
  172MOL0    Cl23130   1.920   5.880   9.108 -0.6874 -0.1319 -0.2726
  172MOL0     C23131   0.822   5.498   9.663  0.3663  0.0331 -0.0253
  172MOL0     C23132   0.692   5.528   9.693  0.0861  0.4413  0.0204
  172MOL0     O23133   0.453   5.713   9.730  0.9833  0.4063 -0.2363
  172MOL0     C23134   0.169   5.551   9.610  0.5403  0.5649 -0.6458
  172MOL0     C23135   0.035   5.563   9.614 -0.2919 -0.3102 -0.4899
  172MOL0     N23136  -0.785   5.622   9.667  0.7156 -0.1160 -0.0929
  172MOL0     N23137  -0.830   5.717   9.752  0.5583 -0.6323  1.2826
  172MOL0     C23138  -0.082   5.941  10.565  1.0387  0.2456 -0.2687
  172MOL0     C23139   0.019   5.955  10.668  0.9238 -0.2045 -0.5917
  172MOL0     C23140   0.348   5.929  10.946 -0.4157  0.4549  0.5041
  172MOL0     C23141   0.387   6.036  11.029 -0.3768 -0.2693 -0.0310
  172MOL0     C23142   0.519   6.045  11.082 -0.0770  0.0885 -0.9325
  172MOL0     C23143   0.607   5.944  11.064  0.2149 -1.0688  0.2824
  172MOL0     O23144   0.728   5.965  11.122 -0.0195 -0.0588  0.4359
  172MOL0     C23145   0.822   5.849  11.137 -0.1600  0.0248  0.3704
  172MOL0     C23146   0.955   5.885  11.208 -0.0118 -0.6975 -0.8284
  172MOL0     C23147   0.922   5.956  11.342  1.0242 -0.5783 -0.3299
  172MOL0     C23148   1.056   5.996  11.411 -0.1629  0.6280 -0.0967
  172MOL0     C23149   1.168   6.044  11.322 -0.1723 -1.0338 -0.1932
  172MOL0     C23150   1.264   6.084  11.254 -0.1507 -0.3340  0.1762
  172MOL0     C23151   0.561   5.843  10.978 -0.2803  0.5980  0.1855
  172MOL0     C23152   0.437   5.829  10.926  0.2513  0.5440 -0.0488
  172MOL0     H23153   0.065   5.626  10.729 -0.5600  1.1553  2.0608
  172MOL0     H23154  -0.112   5.601  10.541 -5.0463  0.4991  1.3022
  172MOL0     H23155  -0.117   5.632  10.328 -0.0529 -1.8135 -1.9065
  172MOL0     H23156  -0.293   5.638  10.359  0.4130 -1.1596 -1.5956
  172MOL0     H23157  -0.178   5.814  10.147 -1.3847  1.0156  1.4263
  172MOL0     H23158  -0.206   5.639  10.119 -0.7701 -0.5619 -0.5837
  172MOL0     H23159  -0.437   5.661  10.202 -0.8092 -0.6760 -1.1606
  172MOL0     H23160  -0.426   5.838  10.203 -3.8600 -1.8034 -0.2024
  172MOL0     H23161  -0.339   5.833   9.963 -1.3357  0.7112 -2.3120
  172MOL0     H23162  -0.360   5.669   9.948  2.9944  1.6646 -1.0415
  172MOL0     H23163  -0.541   5.788   9.845  4.2474 -1.4139  0.6856
  172MOL0     H23164  -0.622   5.688   9.968 -1.4994  0.5860  0.0434
  172MOL0     H23165  -0.646   5.900  10.116  2.1018 -0.0109  0.3225
  172MOL0     H23166  -0.556   5.991  10.003 -2.4337  2.4569  3.1482
  172MOL0     H23167  -0.841   5.886   9.990 -1.2298  1.1349 -2.2115
  172MOL0     H23168  -0.778   6.047   9.983 -0.6046  0.7241 -2.0310
  172MOL0     H23169  -0.684   6.024   9.765  1.5915 -0.5672  1.7127
  172MOL0     H23170  -0.862   6.012   9.772  1.0150  1.1366 -0.6308
  172MOL0     H23171  -0.627   5.886   9.564 -0.8925  1.1599  0.7905
  172MOL0     H23172  -0.687   5.532   9.446  0.4937 -0.9572 -0.7475
  172MOL0     H23173  -0.589   5.670   9.399 -1.8335 -0.1358  0.0331
  172MOL0     H23174  -0.432   5.488   9.476  2.1254 -1.7582  4.2566
  172MOL0     H23175  -0.516   5.472   9.618  4.4652 -2.9690 -0.8300
  172MOL0     H23176  -0.422   5.631   9.727 -2.0106 -0.5754  0.0698
  172MOL0     H23177  -0.424   5.754   9.598  0.5093  0.0044 -2.5772
  172MOL0     H23178  -0.218   5.656   9.501 -1.0987 -2.4877 -1.4776
  172MOL0     H23179  -0.236   5.507   9.601  2.5733  0.5747 -0.6766
  172MOL0     H23180  -0.005   5.789   9.857 -0.0675  0.0430  0.7596
  172MOL0     H23181   0.327   5.734   9.938 -0.3223 -1.2106 -1.3602
  172MOL0     H23182   0.266   5.887   9.871  0.2678  1.0280  1.3446
  172MOL0     H23183   0.166   5.809   9.991  1.3449 -0.8014  1.1585
  172MOL0     H23184   0.540   5.419   9.420  1.7510  1.0126 -2.0942
  172MOL0     H23185   0.760   5.381   9.342 -1.1138 -0.7706 -0.5803
  172MOL0     H23186   1.043   5.625   9.501  0.2345  0.6172  1.9591
  172MOL0     H23187   1.107   5.525   9.622 -0.9149  0.1665  0.2213
  172MOL0     H23188   1.217   5.395   9.435 -2.0977  0.0678  4.1834
  172MOL0     H23189   1.171   5.521   9.319 -2.3968  0.5448  1.1179
  172MOL0     H23190   1.336   5.605   9.553  0.2797 -1.3978 -0.2558
  172MOL0     H23191   1.285   5.697   9.413 -1.1208 -0.7519 -1.6280
  172MOL0     H23192   1.476   5.460   9.393 -1.2397 -0.0189  2.5110
  172MOL0     H23193   1.394   5.540   9.255 -0.4293 -0.5177  0.1598
  172MOL0     H23194   1.602   5.640   9.446  0.1989 -4.4581 -0.8687
  172MOL0     H23195   1.495   5.755   9.380 -2.4638  0.2112 -3.2295
  172MOL0     H23196   1.612   5.570   9.183 -3.3506  0.2778 -1.8894
  172MOL0     H23197   1.526   5.723   9.175 -0.6930 -1.9325 -0.8277
  172MOL0     H23198   1.807   5.661   9.269  0.2246  0.8347  0.5906
  172MOL0     H23199   1.753   5.825   9.305  1.9350  0.3816 -1.5675
  172MOL0     H23200   1.684   5.848   9.053 -0.3702 -1.8209 -2.9797
  172MOL0     H23201   1.788   5.712   9.022  2.5270 -0.9568  1.8658
  172MOL0     H23202   0.902   5.534   9.726  1.3219 -0.2709 -1.0250
  172MOL0     H23203   0.677   5.581   9.787  1.2119 -0.1257  0.5464
  172MOL0     H23204   0.203   5.497   9.523 -0.3529 -0.9386 -0.0980
  172MOL0     H23205  -0.016   5.506   9.537  2.4454 -0.6019 -2.2424
  172MOL0     H23206  -0.126   6.026  10.514  3.4156  1.3573 -0.6161
  172MOL0     H23207   0.054   6.055  10.695  2.7005 -0.9753  0.1162
  172MOL0     H23208   0.323   6.119  11.059 -0.1607  0.0898 -0.5396
  172MOL0     H23209   0.546   6.115  11.161  2.9509 -2.6680  0.6992
  172MOL0     H23210   0.770   5.770  11.192  0.2742  0.6968  1.7844
  172MOL0     H23211   0.844   5.813  11.036 -1.8833  0.1658 -0.0793
  172MOL0     H23212   1.020   5.940  11.139 -1.0008 -0.9410 -1.9813
  172MOL0     H23213   1.008   5.790  11.224 -2.3041 -1.7348  1.1908
  172MOL0     H23214   0.872   5.904  11.425 -2.5065  2.1928 -0.4550
  172MOL0     H23215   0.870   6.051  11.327 -0.8827 -1.4000  0.6499
  172MOL0     H23216   1.094   5.904  11.456 -1.2696  0.6721  0.9856
  172MOL0     H23217   1.047   6.076  11.485  1.3535  1.5463 -0.8638
  172MOL0     H23218   1.352   6.116  11.203 -1.4128 -1.3591 -2.8603
  172MOL0     H23219   0.640   5.772  10.955 -3.3361 -2.5554 -1.7992
  172MOL0     H23220   0.416   5.740  10.869  1.0218 -0.6722  1.4892
  173MOL0     O23221   0.971   7.230   2.801 -0.0255  0.5129  0.5936
  173MOL0     C23222   1.082   7.195   2.838  0.2514 -0.2414 -0.6403
  173MOL0     O23223   1.142   7.224   2.960  0.0829 -0.7540 -0.0663
  173MOL0     C23224   1.100   7.322   3.043  1.1298  0.1417  1.0868
  173MOL0     C23225   0.968   7.336   3.067  0.0848 -0.1663 -0.1698
  173MOL0     C23226   0.926   7.427   3.168  0.2978 -0.1282 -0.8242
  173MOL0     C23227   1.011   7.525   3.227 -0.2563 -1.0783 -1.1526
  173MOL0     O23228   0.961   7.603   3.325  0.1469 -0.3001 -0.2080
  173MOL0     C23229   1.040   7.696   3.392  0.4108  0.4550 -0.9194
  173MOL0     C23230   0.965   7.774   3.502 -0.3264  0.2827 -0.2583
  173MOL0     C23231   0.892   7.900   3.446  0.2545 -0.4468 -0.2027
  173MOL0     C23232   0.788   7.957   3.547  0.5539 -0.0310 -0.4790
  173MOL0     C23233   0.685   8.052   3.486 -0.2051  0.9768  0.2285
  173MOL0     C23234   0.601   8.111   3.602 -0.3158 -0.6265  0.5735
  173MOL0     C23235   0.531   8.245   3.557 -0.2603  0.2564 -0.1047
  173MOL0     C23236   0.440   8.217   3.433 -0.8613 -0.2244  0.4734
  173MOL0     N23237   0.324   8.131   3.460 -0.7705  0.0468 -0.5428
  173MOL0     C23238   0.276   8.087   3.582  0.2051 -1.1081 -1.6140
  173MOL0     C23239   0.228   7.966   3.564  0.6285  0.0488 -0.5118
  173MOL0     C23240   0.176   7.870   3.657 -0.0711  0.4398 -1.1539
  173MOL0     C23241   0.287   7.764   3.695  0.3501  0.2298  0.5795
  173MOL0     C23242   0.265   7.644   3.604 -0.1072  0.6621  0.0874
  173MOL0     C23243   0.383   7.552   3.587  0.4535 -0.6734 -0.1374
  173MOL0     O23244   0.425   7.519   3.721 -0.0056  0.3431  0.0188
  173MOL0     C23245   0.553   7.468   3.741  0.5697 -0.0702  0.3869
  173MOL0     C23246   0.654   7.438   3.646 -0.6540 -0.3886 -0.3797
  173MOL0     C23247   0.786   7.402   3.673  0.5883  0.6876  0.0708
  173MOL0     C23248   0.875   7.397   3.553  0.2064 -0.4023 -1.2254
  173MOL0     C23249   0.810   7.361   3.808 -0.1597 -0.3725 -0.2816
  173MOL0     C23250   0.943   7.299   3.852 -0.3711 -0.4132  0.2435
  173MOL0     O23251   0.952   7.232   3.968 -0.2578 -0.1482 -0.0154
  173MOL0     C23252   1.065   7.191   4.028  0.1371  0.4605  0.1287
  173MOL0     C23253   1.178   7.132   3.955  0.3422  0.6440 -0.0327
  173MOL0     C23254   1.299   7.100   4.023  0.8750  1.0058  0.9291
  173MOL0     C23255   1.301   7.110   4.163 -0.8514 -0.6313  0.4554
  173MOL0     O23256   1.414   7.076   4.233  0.3920  0.6473  0.1325
  173MOL0     C23257   1.489   6.956   4.194 -0.3397 -0.1852  0.2102
  173MOL0     C23258   1.461   6.860   4.311 -0.7997 -0.0887  0.2565
  173MOL0     C23259   1.501   6.915   4.444 -0.6185 -0.1401 -0.1543
  173MOL0     C23260   1.651   6.928   4.466 -0.6315 -0.4562 -0.8659
  173MOL0     C23261   1.682   6.977   4.612  0.1862 -0.4484 -0.7687
  173MOL0     C23262   1.615   7.119   4.638 -0.1887 -0.1800  0.8322
  173MOL0     C23263   1.650   7.176   4.781 -0.0416 -0.3117 -0.2714
  173MOL0     C23264   1.616   7.323   4.797  0.2936  0.0188 -0.6019
  173MOL0    Cl23265   1.742   7.424   4.718 -0.0552  0.2769 -0.5601
  173MOL0     C23266   1.191   7.165   4.223 -0.0162 -0.6124 -0.4890
  173MOL0     C23267   1.076   7.203   4.160 -0.3062 -0.4751  0.0917
  173MOL0     O23268   1.039   7.328   3.785  0.0585  0.3385 -0.0907
  173MOL0     C23269   0.708   7.376   3.907  1.2328 -0.6266  0.3579
  173MOL0     C23270   0.582   7.432   3.869 -0.5238 -0.5817 -0.3776
  173MOL0     N23271   0.231   7.938   3.430  0.0978 -0.0280  0.3232
  173MOL0     N23272   0.299   8.031   3.372  0.8182  0.2532  0.0098
  173MOL0     C23273   1.145   7.511   3.190  0.1481 -0.5456  0.3505
  173MOL0     C23274   1.193   7.412   3.095 -0.2033 -0.9301  0.1087
  173MOL0     C23275   1.156   7.092   2.756 -0.6737 -0.3284  0.1679
  173MOL0     C23276   1.288   7.060   2.779  0.1595 -0.2935  0.2019
  173MOL0     C23277   1.354   6.961   2.703 -0.0457 -0.3501  0.7042
  173MOL0     C23278   1.291   6.910   2.592  1.2628 -0.6171  0.5638
  173MOL0     O23279   1.357   6.811   2.514 -0.1401 -0.0965 -0.0377
  173MOL0     C23280   1.275   6.726   2.426 -0.0872  0.8348 -0.7455
  173MOL0     C23281   1.357   6.628   2.345  0.8482 -1.0026  0.0887
  173MOL0     C23282   1.450   6.698   2.239 -0.6212 -1.1677  0.2092
  173MOL0     C23283   1.406   6.685   2.091 -0.5744 -0.4767 -0.4824
  173MOL0     C23284   1.269   6.717   2.074 -0.1677  0.0196  0.3165
  173MOL0     C23285   1.148   6.745   2.068 -0.4978  0.3747 -0.1578
  173MOL0     C23286   1.152   6.951   2.567 -0.3953 -0.0691 -0.5977
  173MOL0     C23287   1.089   7.042   2.648  0.1537  0.2292  0.1106
  173MOL0     H23288   0.899   7.266   3.022  1.4168 -2.1939  0.7521
  173MOL0     H23289   0.822   7.435   3.197  0.4367 -0.9838 -0.0284
  173MOL0     H23290   1.125   7.644   3.439  0.4317 -0.2952 -1.7551
  173MOL0     H23291   1.076   7.765   3.316 -0.5980  0.3674 -1.4910
  173MOL0     H23292   0.905   7.703   3.558  2.1556 -0.2455  1.9366
  173MOL0     H23293   1.042   7.810   3.571  0.1165 -1.4701  0.2226
  173MOL0     H23294   0.972   7.974   3.442  0.1662 -0.2211  1.3653
  173MOL0     H23295   0.849   7.882   3.347  3.9741 -1.6805 -1.7672
  173MOL0     H23296   0.740   7.874   3.600  1.5028 -1.1288 -1.2754
  173MOL0     H23297   0.845   8.009   3.624  3.4662 -1.9658 -1.1400
  173MOL0     H23298   0.734   8.134   3.432  2.8726 -1.9786 -1.9247
  173MOL0     H23299   0.632   7.993   3.410  3.2200 -0.2171 -1.4511
  173MOL0     H23300   0.527   8.042   3.643  0.1315  0.5586  3.6339
  173MOL0     H23301   0.673   8.144   3.677  1.3956  0.7837 -1.5734
  173MOL0     H23302   0.488   8.290   3.647  0.7880  1.7861 -0.3129
  173MOL0     H23303   0.617   8.310   3.535  1.5737 -1.6460  1.1394
  173MOL0     H23304   0.505   8.178   3.354  0.5716  0.9878  1.0046
  173MOL0     H23305   0.411   8.308   3.381  0.6250  0.8352  1.4451
  173MOL0     H23306   0.277   8.125   3.683 -0.1111 -0.7440 -1.7442
  173MOL0     H23307   0.133   7.920   3.745  1.6824  0.4631 -0.2680
  173MOL0     H23308   0.097   7.820   3.599  0.0661 -0.0787 -0.9018
  173MOL0     H23309   0.264   7.739   3.799  1.9710  0.0080  0.9070
  173MOL0     H23310   0.387   7.808   3.693 -0.5686  2.5556  1.7112
  173MOL0     H23311   0.237   7.677   3.503  1.1880  0.3434 -0.4021
  173MOL0     H23312   0.180   7.587   3.640  1.1074 -0.8802  0.5961
  173MOL0     H23313   0.459   7.603   3.526 -1.2063 -0.6026 -2.2890
  173MOL0     H23314   0.349   7.466   3.528 -2.9954  0.6959 -0.4064
  173MOL0     H23315   0.637   7.466   3.543  0.4571  1.3502 -0.1300
  173MOL0     H23316   0.929   7.303   3.551  0.4562 -0.3429  0.7268
  173MOL0     H23317   0.820   7.400   3.459  0.0007  3.1087 -1.1275
  173MOL0     H23318   0.941   7.484   3.559 -0.4262  0.0269 -0.1695
  173MOL0     H23319   1.170   7.114   3.848  0.9618 -1.0663  0.1793
  173MOL0     H23320   1.390   7.076   3.969 -0.0967  0.9048 -0.7148
  173MOL0     H23321   1.450   6.928   4.095 -0.9617  1.6504 -0.0896
  173MOL0     H23322   1.596   6.975   4.185 -0.2698 -0.5782  0.1657
  173MOL0     H23323   1.354   6.841   4.318 -1.0773  0.2868 -2.1062
  173MOL0     H23324   1.507   6.764   4.286  3.6486  2.3849 -2.5595
  173MOL0     H23325   1.464   6.843   4.517 -0.8760  0.6582  0.5133
  173MOL0     H23326   1.457   7.014   4.458  1.4054  0.6333  1.2038
  173MOL0     H23327   1.700   6.831   4.454 -0.8908 -0.8805  1.0849
  173MOL0     H23328   1.693   7.003   4.398  1.9715  0.1387  1.2158
  173MOL0     H23329   1.789   6.978   4.633  0.7759 -3.1120 -2.9973
  173MOL0     H23330   1.635   6.910   4.684 -2.4024  1.5805 -0.4136
  173MOL0     H23331   1.650   7.195   4.567 -0.0790  0.2342  1.3240
  173MOL0     H23332   1.507   7.112   4.621  0.3855 -4.6913 -3.3324
  173MOL0     H23333   1.758   7.163   4.796  0.0593 -0.8100 -1.3543
  173MOL0     H23334   1.596   7.115   4.855  2.2293 -1.9525  0.1576
  173MOL0     H23335   1.617   7.337   4.905  0.1930 -2.3846 -0.2447
  173MOL0     H23336   1.521   7.350   4.749  1.1889  2.0340 -1.3637
  173MOL0     H23337   1.199   7.165   4.331  1.1593 -4.4148 -0.4383
  173MOL0     H23338   0.989   7.238   4.215  1.3691  2.4702  1.1254
  173MOL0     H23339   0.722   7.353   4.012 -0.0979  0.8057  0.8849
  173MOL0     H23340   0.508   7.442   3.948 -1.5085  1.4787 -1.4895
  173MOL0     H23341   1.217   7.577   3.237  0.6288 -0.4156 -0.5461
  173MOL0     H23342   1.297   7.417   3.064  0.0802 -1.9498  0.8420
  173MOL0     H23343   1.340   7.109   2.860 -1.6092  0.2702  1.0463
  173MOL0     H23344   1.457   6.938   2.728  0.3362  1.4222  0.9180
  173MOL0     H23345   1.213   6.669   2.496  1.9321 -1.5695 -0.7603
  173MOL0     H23346   1.215   6.786   2.356 -2.3667 -1.0426 -0.5593
  173MOL0     H23347   1.290   6.552   2.305 -1.0603 -0.3258  1.8154
  173MOL0     H23348   1.421   6.571   2.412  2.0627 -2.0204 -1.8327
  173MOL0     H23349   1.553   6.660   2.246 -1.0942 -2.1758  2.5969
  173MOL0     H23350   1.457   6.804   2.268  0.6578 -0.5485 -2.0883
  173MOL0     H23351   1.423   6.586   2.047 -0.9987 -0.3424 -0.9582
  173MOL0     H23352   1.468   6.756   2.036  0.9798  0.2699  2.0550
  173MOL0     H23353   1.045   6.773   2.057 -1.0437 -1.5374 -0.3554
  173MOL0     H23354   1.086   6.916   2.488 -0.5762  1.7773 -1.3341
  173MOL0     H23355   0.986   7.058   2.617 -0.9223 -1.1807  2.7139
  174MOL0     O23356  11.024   6.467   0.582 -0.2759 -0.1838  0.3272
  174MOL0     C23357  11.074   6.394   0.490  0.3954  0.5533  0.0516
  174MOL0     O23358  10.996   6.325   0.395  0.2119 -0.6857  0.0201
  174MOL0     C23359  10.861   6.336   0.400 -0.8949  0.2733  0.8096
  174MOL0     C23360  10.784   6.334   0.509  0.1436  0.3165 -0.0256
  174MOL0     C23361  10.650   6.359   0.503  0.4126  0.5766  0.2683
  174MOL0     C23362  10.587   6.369   0.379 -0.1972 -0.4481 -0.2719
  174MOL0     O23363  10.450   6.389   0.358 -0.2045  0.3964 -0.1644
  174MOL0     C23364  10.368   6.425   0.468  0.6570 -0.6065  0.8420
  174MOL0     C23365  10.290   6.299   0.520  0.0436  0.2695 -0.0448
  174MOL0     C23366  10.203   6.238   0.415 -0.1712 -0.0989  0.9985
  174MOL0     C23367  10.093   6.342   0.374  0.0863  1.2300  0.2731
  174MOL0     C23368   9.971   6.269   0.303 -0.8918 -0.2000 -0.4624
  174MOL0     C23369   9.880   6.370   0.229 -0.3049  0.0963  0.0707
  174MOL0     C23370   9.793   6.451   0.328 -0.0319 -1.0236  0.2770
  174MOL0     C23371   9.842   6.592   0.335  0.0903 -0.0025  0.2516
  174MOL0     N23372   9.859   6.659   0.207  0.0528 -0.3541 -0.1483
  174MOL0     C23373   9.752   6.689   0.127 -0.0242 -0.3478 -0.0531
  174MOL0     C23374   9.809   6.765   0.024  0.1527  0.0008  0.1791
  174MOL0     C23375   9.731   6.830  -0.090 -0.4404 -0.5024 -0.1446
  174MOL0     C23376   9.765   6.755  -0.220 -0.4736 -0.9105  0.6973
  174MOL0     C23377   9.722   6.845  -0.339 -0.5142  0.3887 -0.0768
  174MOL0     C23378   9.573   6.821  -0.369  0.3450 -0.0139 -0.0202
  174MOL0     O23379   9.555   6.902  -0.488 -0.1229  0.1416 -0.3182
  174MOL0     C23380   9.461   6.858  -0.571  0.9716 -0.0907 -0.8452
  174MOL0     C23381   9.480   6.864  -0.707  0.3912 -0.3970  0.0468
  174MOL0     C23382   9.385   6.812  -0.803  0.0944  0.0561  0.5441
  174MOL0     C23383   9.422   6.828  -0.946 -0.3949 -0.7206  1.1501
  174MOL0     C23384   9.276   6.735  -0.755  0.0543  0.1211  0.5362
  174MOL0     C23385   9.171   6.660  -0.826 -0.0063  0.4321  0.3325
  174MOL0     O23386   9.035   6.631  -0.767 -0.3380 -0.2049  0.0463
  174MOL0     C23387   8.929   6.618  -0.853  0.0716  0.2524  0.4270
  174MOL0     C23388   8.916   6.670  -0.981  0.5019  0.5288 -0.4441
  174MOL0     C23389   8.797   6.642  -1.058 -0.5062  0.1587  0.4123
  174MOL0     C23390   8.701   6.552  -1.002  0.1405 -0.0271  0.3432
  174MOL0     O23391   8.594   6.514  -1.071  0.2824 -0.1442  0.0238
  174MOL0     C23392   8.497   6.621  -1.079 -0.0059 -0.0319 -0.4392
  174MOL0     C23393   8.359   6.555  -1.131 -0.3437 -0.4625  0.5094
  174MOL0     C23394   8.241   6.650  -1.125 -0.1182  0.1237 -0.4095
  174MOL0     C23395   8.109   6.580  -1.140  1.4760  0.8465  0.5088
  174MOL0     C23396   8.004   6.660  -1.216 -0.7542 -0.8390 -0.1852
  174MOL0     C23397   7.880   6.592  -1.266 -1.1205 -0.6044 -0.1017
  174MOL0     C23398   7.764   6.700  -1.296 -0.2452 -0.6920 -0.0062
  174MOL0     C23399   7.656   6.647  -1.389  0.3015  0.7997 -0.6204
  174MOL0    Cl23400   7.490   6.684  -1.334 -0.0130  0.2084 -0.1012
  174MOL0     C23401   8.723   6.504  -0.867  0.0899 -0.2860 -0.2564
  174MOL0     C23402   8.837   6.535  -0.795 -0.0504 -1.4598  0.7156
  174MOL0     O23403   9.206   6.619  -0.942  0.8918  0.3458 -0.5974
  174MOL0     C23404   9.256   6.732  -0.616 -0.0916 -0.3716  0.0950
  174MOL0     C23405   9.345   6.790  -0.532  0.4653 -0.2551 -1.1799
  174MOL0     N23406   9.945   6.765   0.036  0.9173 -0.1917 -0.3697
  174MOL0     N23407   9.971   6.703   0.144 -0.4365  0.1502  0.5631
  174MOL0     C23408  10.664   6.357   0.259 -0.2079  0.0455 -0.7847
  174MOL0     C23409  10.803   6.346   0.274  0.4266 -0.5800 -0.3567
  174MOL0     C23410  11.222   6.385   0.476 -0.8138  0.0351  0.2538
  174MOL0     C23411  11.281   6.301   0.377 -0.0126 -0.7435 -0.0693
  174MOL0     C23412  11.421   6.282   0.374  0.4544 -0.9507 -0.7543
  174MOL0     C23413  11.498   6.352   0.473  0.1780 -0.1266  0.5423
  174MOL0     O23414  11.641   6.346   0.474 -0.1713 -0.4387  0.5411
  174MOL0     C23415  11.710   6.292   0.366 -0.3733  1.0414  0.6598
  174MOL0     C23416  11.732   6.141   0.388 -0.7123  1.3057 -0.6482
  174MOL0     C23417  11.767   6.054   0.270  0.2113 -0.2239  0.0422
  174MOL0     C23418  11.908   6.066   0.208 -0.3295 -0.8464 -0.4155
  174MOL0     C23419  12.013   6.051   0.309 -0.8058  0.3026  0.1344
  174MOL0     C23420  12.105   6.023   0.382 -0.0884 -0.1217  0.7776
  174MOL0     C23421  11.436   6.439   0.558  0.6587  0.7969 -1.2716
  174MOL0     C23422  11.302   6.453   0.565  0.6245  0.2819  0.5872
  174MOL0     H23423  10.829   6.342   0.608 -1.3520  1.1995  0.6191
  174MOL0     H23424  10.589   6.362   0.592  1.2222  1.6832  0.8212
  174MOL0     H23425  10.428   6.481   0.540 -0.1135 -1.6142  2.3345
  174MOL0     H23426  10.290   6.495   0.438 -0.4813 -2.0825  0.2469
  174MOL0     H23427  10.366   6.224   0.544  0.5699  0.2334 -1.7406
  174MOL0     H23428  10.233   6.324   0.610  1.5564 -0.8058  1.2760
  174MOL0     H23429  10.252   6.217   0.320 -0.3088 -0.5997  1.0345
  174MOL0     H23430  10.160   6.144   0.451 -1.5484  0.1300  0.0089
  174MOL0     H23431  10.061   6.397   0.463  1.0065 -0.5879  1.8064
  174MOL0     H23432  10.142   6.406   0.300 -1.5100  1.2123 -0.8254
  174MOL0     H23433   9.994   6.195   0.226 -3.5967  0.7809 -2.3771
  174MOL0     H23434   9.896   6.224   0.370 -0.3116  0.6617  0.8118
  174MOL0     H23435   9.953   6.416   0.162  1.5485 -1.4770  0.9374
  174MOL0     H23436   9.807   6.307   0.178  0.1131  0.5095 -1.0695
  174MOL0     H23437   9.693   6.445   0.283 -0.7494 -0.6535  1.7778
  174MOL0     H23438   9.776   6.399   0.422 -2.2385 -0.8988 -0.0015
  174MOL0     H23439   9.940   6.589   0.384 -0.0265 -0.6824  0.4457
  174MOL0     H23440   9.769   6.646   0.397 -0.4074 -0.6740  0.2591
  174MOL0     H23441   9.645   6.688   0.147  0.3969  1.6218  2.8837
  174MOL0     H23442   9.625   6.826  -0.060 -0.3352  1.2053  0.5944
  174MOL0     H23443   9.768   6.933  -0.086  0.3661 -0.8205  1.4601
  174MOL0     H23444   9.720   6.656  -0.226 -3.6795  0.4931 -1.2945
  174MOL0     H23445   9.873   6.741  -0.216 -0.3492  0.3344  3.5984
  174MOL0     H23446   9.764   6.804  -0.431 -1.9754 -1.6734  0.1240
  174MOL0     H23447   9.754   6.949  -0.330  0.1467  0.1909 -0.0928
  174MOL0     H23448   9.504   6.855  -0.292  0.7061 -2.5207  1.5100
  174MOL0     H23449   9.546   6.717  -0.386  1.0646 -0.1687 -0.2442
  174MOL0     H23450   9.570   6.909  -0.746 -1.5594  5.0465  1.0161
  174MOL0     H23451   9.357   6.896  -1.002  0.7442  1.0484  1.8999
  174MOL0     H23452   9.518   6.880  -0.949 -0.4199 -0.6904 -1.2150
  174MOL0     H23453   9.436   6.732  -0.997 -0.7352  1.0140 -2.5962
  174MOL0     H23454   8.998   6.728  -1.024 -0.1079  0.2255 -2.0842
  174MOL0     H23455   8.791   6.675  -1.161  1.4445  0.7084  0.4503
  174MOL0     H23456   8.490   6.661  -0.977  2.0788 -0.1698 -0.1973
  174MOL0     H23457   8.533   6.705  -1.139  1.3359  0.0116  0.3751
  174MOL0     H23458   8.380   6.536  -1.236  1.2996  3.3963 -0.0498
  174MOL0     H23459   8.348   6.461  -1.076  3.0805 -2.4858 -1.8862
  174MOL0     H23460   8.254   6.740  -1.187  1.8606  0.9727  1.1308
  174MOL0     H23461   8.254   6.678  -1.020 -2.0047  3.1298 -0.8284
  174MOL0     H23462   8.123   6.484  -1.191 -2.5569  0.5023 -0.2841
  174MOL0     H23463   8.066   6.562  -1.041  0.6300 -0.5088 -0.0690
  174MOL0     H23464   8.050   6.706  -1.305  0.3943  2.2331  1.8106
  174MOL0     H23465   7.979   6.742  -1.148 -0.4638 -1.1584  0.3115
  174MOL0     H23466   7.908   6.537  -1.357 -1.9645  0.7484 -1.2201
  174MOL0     H23467   7.842   6.517  -1.196  2.1335 -1.0929  1.3326
  174MOL0     H23468   7.811   6.787  -1.342  0.6487 -0.9446  0.4123
  174MOL0     H23469   7.728   6.731  -1.197  0.7435 -0.5700  0.3316
  174MOL0     H23470   7.659   6.538  -1.400 -1.7710  0.7950 -1.6716
  174MOL0     H23471   7.674   6.686  -1.490 -0.7297  2.4523 -0.2057
  174MOL0     H23472   8.644   6.444  -0.824 -0.5944  0.1533 -0.8682
  174MOL0     H23473   8.852   6.500  -0.694 -3.2046 -1.9097  1.1401
  174MOL0     H23474   9.173   6.679  -0.572 -1.1487  1.6988  0.7381
  174MOL0     H23475   9.324   6.788  -0.426  0.5963  2.6706 -1.0197
  174MOL0     H23476  10.609   6.354   0.166 -0.8759  3.8388 -0.6899
  174MOL0     H23477  10.851   6.346   0.176  0.0452 -0.8918 -0.5472
  174MOL0     H23478  11.223   6.243   0.307 -0.0854 -1.6258  0.7035
  174MOL0     H23479  11.470   6.214   0.303  2.4192 -1.8307  1.3181
  174MOL0     H23480  11.659   6.312   0.271  0.1618 -2.2003 -0.4525
  174MOL0     H23481  11.802   6.351   0.357 -0.3878  0.7801 -2.2576
  174MOL0     H23482  11.634   6.115   0.431 -1.1125  1.9332 -1.1465
  174MOL0     H23483  11.805   6.123   0.467 -1.9790 -0.1039  0.2684
  174MOL0     H23484  11.684   6.071   0.201 -1.9198  0.5984  2.6110
  174MOL0     H23485  11.757   5.950   0.301 -0.2917  0.1653  1.2655
  174MOL0     H23486  11.911   6.162   0.156 -1.6747  0.0361  1.0431
  174MOL0     H23487  11.921   5.997   0.124  0.5017 -0.0029 -1.0000
  174MOL0     H23488  12.172   5.988   0.458  0.6138  1.4215  0.9289
  174MOL0     H23489  11.504   6.484   0.630 -1.2641 -2.7835  3.2779
  174MOL0     H23490  11.258   6.521   0.637 -0.0058 -1.4454  1.8908
  175MOL0     O23491   4.050   9.605  10.046 -0.6757  0.4415  0.5213
  175MOL0     C23492   4.159   9.542  10.068  0.1421 -0.3810 -0.5489
  175MOL0     O23493   4.214   9.518  10.195  0.4873  0.3122  0.5843
  175MOL0     C23494   4.130   9.515  10.314  0.4648  0.6879 -0.0839
  175MOL0     C23495   4.140   9.410  10.412  0.3538 -0.3525 -0.5367
  175MOL0     C23496   4.055   9.410  10.527  0.5897 -0.4573 -0.1752
  175MOL0     C23497   3.968   9.512  10.554  0.3453  0.6178  0.6647
  175MOL0     O23498   3.887   9.534  10.662  0.5933 -0.1998 -0.3943
  175MOL0     C23499   3.823   9.419  10.732 -0.5737 -0.0730  0.3277
  175MOL0     C23500   3.672   9.414  10.724 -0.2980 -0.2755  0.1394
  175MOL0     C23501   3.607   9.305  10.819 -0.1374 -0.1986 -0.2359
  175MOL0     C23502   3.455   9.318  10.814 -0.4228  0.3114 -0.0118
  175MOL0     C23503   3.380   9.226  10.917 -0.8374  0.5912 -0.1679
  175MOL0     C23504   3.232   9.210  10.886  0.1945 -0.4940  0.4043
  175MOL0     C23505   3.177   9.101  10.978  0.0955 -0.7986 -0.3560
  175MOL0     C23506   3.026   9.100  10.991 -0.0459  1.3142 -0.2578
  175MOL0     N23507   2.975   8.990  11.074  0.4233 -0.2288  0.3081
  175MOL0     C23508   2.965   8.997  11.214  0.6358  0.7026 -0.0086
  175MOL0     C23509   2.920   8.873  11.250 -0.0587  1.3941 -0.4191
  175MOL0     C23510   2.856   8.840  11.382 -0.6407  0.4249  0.2313
  175MOL0     C23511   2.711   8.859  11.401  0.4526  0.0367  0.1036
  175MOL0     C23512   2.672   8.890  11.548 -0.2982 -0.7131 -0.3988
  175MOL0     C23513   2.517   8.900  11.573 -0.1665  0.3946  0.2123
  175MOL0     O23514   2.441   8.786  11.542 -0.3628  1.0603 -0.9355
  175MOL0     C23515   2.306   8.800  11.574 -0.5881  0.1968  0.0973
  175MOL0     C23516   2.270   8.809  11.707 -0.5199 -1.5142 -0.0303
  175MOL0     C23517   2.138   8.824  11.747  0.7637 -0.1249 -0.1150
  175MOL0     C23518   2.114   8.805  11.897 -0.2035  0.2339 -0.0233
  175MOL0     C23519   2.035   8.821  11.647  0.1947 -0.4327  0.7547
  175MOL0     C23520   1.901   8.823  11.680 -0.4206  0.0029  0.3820
  175MOL0     O23521   1.869   8.927  11.766  0.1407  0.0394  0.1746
  175MOL0     C23522   1.746   8.915  11.831  0.6489 -0.3862 -0.8234
  175MOL0     C23523   1.636   8.990  11.797 -0.1214 -0.0454 -0.1428
  175MOL0     C23524   1.516   8.985  11.875 -0.3467  0.4182 -0.0594
  175MOL0     C23525   1.506   8.918  11.998 -0.3746  0.7924 -0.6875
  175MOL0     O23526   1.395   8.923  12.074  0.1336 -0.0977 -0.2088
  175MOL0     C23527   1.383   8.852  12.198 -0.3929  0.2020  0.0436
  175MOL0     C23528   1.264   8.890  12.281 -0.5960  0.5843 -0.2454
  175MOL0     C23529   1.246   9.035  12.293 -0.1989  0.4636 -1.0366
  175MOL0     C23530   1.358   9.092  12.376 -0.4596  0.2900  0.3082
  175MOL0     C23531   1.346   9.243  12.402 -0.1040 -0.2071 -0.4228
  175MOL0     C23532   1.251   9.260  12.524  0.0634 -0.1158  0.1343
  175MOL0     C23533   1.251   9.407  12.562  0.0719 -0.1820 -0.1489
  175MOL0     C23534   1.141   9.426  12.656  0.0208  0.5460 -0.5965
  175MOL0    Cl23535   1.195   9.394  12.821 -0.1342 -0.0251 -0.3960
  175MOL0     C23536   1.625   8.839  12.030  0.3126 -0.1847  0.0397
  175MOL0     C23537   1.738   8.844  11.952  0.3450 -0.0153  0.2879
  175MOL0     O23538   1.825   8.738  11.631 -0.7340  0.8475  0.4257
  175MOL0     C23539   2.080   8.815  11.514 -0.5019 -0.4607 -0.8519
  175MOL0     C23540   2.213   8.815  11.480  0.4583  0.0642  0.5567
  175MOL0     N23541   2.926   8.791  11.141 -0.4271  0.2848  0.3218
  175MOL0     N23542   2.939   8.862  11.039 -0.0509  0.2953 -0.1595
  175MOL0     C23543   3.958   9.614  10.454 -0.3265 -0.3417  1.4623
  175MOL0     C23544   4.039   9.615  10.335  0.7979 -0.0383  0.3646
  175MOL0     C23545   4.231   9.490   9.945  0.0208  0.6049  0.1875
  175MOL0     C23546   4.310   9.374   9.958 -0.2007 -0.3250 -0.2402
  175MOL0     C23547   4.377   9.324   9.852  0.5627  0.3353  0.0986
  175MOL0     C23548   4.357   9.379   9.722 -0.4128 -0.4384  0.7757
  175MOL0     O23549   4.400   9.319   9.608  0.0800 -0.4238  0.1813
  175MOL0     C23550   4.539   9.332   9.594  0.4104  0.0780 -0.4086
  175MOL0     C23551   4.600   9.244   9.482 -0.5559 -0.0092  0.2537
  175MOL0     C23552   4.747   9.274   9.445 -0.5855  0.5392 -0.1012
  175MOL0     C23553   4.804   9.173   9.337 -0.0288  0.1737  0.0076
  175MOL0     C23554   4.950   9.163   9.333  0.8879  0.3261 -0.2392
  175MOL0     C23555   5.070   9.134   9.341  0.4300 -1.0271 -0.9419
  175MOL0     C23556   4.274   9.487   9.711 -1.6401 -0.8758  0.3400
  175MOL0     C23557   4.222   9.554   9.823 -1.1829 -0.1558  0.2489
  175MOL0     H23558   4.214   9.331  10.401  0.2415 -0.1378 -3.5644
  175MOL0     H23559   4.065   9.332  10.602 -0.3350 -0.6599 -0.2606
  175MOL0     H23560   3.869   9.325  10.701  4.2603  2.2792 -0.6926
  175MOL0     H23561   3.853   9.438  10.835 -0.4023  0.3191  0.2100
  175MOL0     H23562   3.632   9.511  10.752  1.7112  0.4703  0.5543
  175MOL0     H23563   3.649   9.385  10.621 -0.1107 -0.1828  0.0712
  175MOL0     H23564   3.634   9.203  10.791 -2.5253 -0.5257 -1.6552
  175MOL0     H23565   3.641   9.316  10.922 -2.4795  1.5104  0.4503
  175MOL0     H23566   3.422   9.421  10.830  0.2990  0.4144  0.9279
  175MOL0     H23567   3.418   9.285  10.717  0.3207  1.5212 -0.7224
  175MOL0     H23568   3.437   9.133  10.914 -1.1553  0.4083 -0.6966
  175MOL0     H23569   3.395   9.259  11.020 -0.3424 -3.0984  1.0918
  175MOL0     H23570   3.190   9.310  10.906  1.7853  0.0087  1.4062
  175MOL0     H23571   3.225   9.181  10.781 -0.3755 -1.2746  0.6509
  175MOL0     H23572   3.205   9.005  10.934 -2.6544  0.0821 -4.6906
  175MOL0     H23573   3.222   9.114  11.077 -0.1571 -0.5696 -0.2699
  175MOL0     H23574   2.971   9.094  10.896 -1.1940  2.0877  0.3263
  175MOL0     H23575   2.990   9.196  11.029  1.3838  1.9132 -0.3616
  175MOL0     H23576   2.983   9.083  11.277  0.8481  2.1968 -2.0444
  175MOL0     H23577   2.875   8.736  11.408 -1.9942  0.6140  2.1818
  175MOL0     H23578   2.916   8.905  11.446  0.2268 -0.3392  0.2050
  175MOL0     H23579   2.661   8.765  11.374 -0.3901  1.0957 -2.3557
  175MOL0     H23580   2.670   8.934  11.332 -0.3380 -0.5313 -0.0646
  175MOL0     H23581   2.715   8.985  11.579  1.4422 -1.1028 -1.4839
  175MOL0     H23582   2.719   8.809  11.605 -0.6947  0.4567  1.6918
  175MOL0     H23583   2.474   8.982  11.515 -1.5162 -0.1735  0.3523
  175MOL0     H23584   2.490   8.927  11.676 -2.7247 -1.4260  0.1301
  175MOL0     H23585   2.352   8.793  11.776  0.0849  3.3006  0.7351
  175MOL0     H23586   2.075   8.888  11.956  1.6186  1.6957 -0.7710
  175MOL0     H23587   2.048   8.718  11.910 -3.2643  2.4872  0.6376
  175MOL0     H23588   2.205   8.768  11.947 -0.6072  1.0572  1.3861
  175MOL0     H23589   1.651   9.048  11.707 -0.3213  0.2381  0.0043
  175MOL0     H23590   1.425   9.037  11.844 -1.8232 -0.6309  2.2135
  175MOL0     H23591   1.385   8.743  12.187  0.6620  0.3153 -1.0596
  175MOL0     H23592   1.472   8.872  12.259 -0.3319  0.4202 -0.1168
  175MOL0     H23593   1.170   8.856  12.238 -0.4604  0.3197 -0.3386
  175MOL0     H23594   1.272   8.841  12.378 -1.7947  1.3493  0.2672
  175MOL0     H23595   1.145   9.042  12.333 -0.8906 -0.0896 -2.6016
  175MOL0     H23596   1.240   9.094  12.201  1.3233  1.2402 -0.6755
  175MOL0     H23597   1.368   9.039  12.471  2.0071 -1.0982 -0.6463
  175MOL0     H23598   1.456   9.078  12.330 -0.6083  0.5605 -0.0924
  175MOL0     H23599   1.302   9.296  12.318  0.9787 -1.9841 -2.2048
  175MOL0     H23600   1.435   9.303  12.426 -0.7554  1.1426 -1.2859
  175MOL0     H23601   1.153   9.224  12.490  0.9084  1.1436 -4.2314
  175MOL0     H23602   1.280   9.206  12.614  6.2041 -0.5660 -1.7087
  175MOL0     H23603   1.237   9.473  12.476  2.1185  0.6225  0.0969
  175MOL0     H23604   1.350   9.437  12.597  2.3215 -2.1341 -4.0734
  175MOL0     H23605   1.053   9.366  12.633 -0.2323  0.2128  1.1347
  175MOL0     H23606   1.101   9.527  12.658 -0.0054  0.5411  1.4952
  175MOL0     H23607   1.637   8.777  12.118  1.4734 -1.4510 -0.9651
  175MOL0     H23608   1.824   8.781  11.975 -0.9918 -1.6650  0.9519
  175MOL0     H23609   2.012   8.823  11.429  3.0039  2.3234 -3.6952
  175MOL0     H23610   2.242   8.817  11.376  0.6582 -0.8801  0.5849
  175MOL0     H23611   3.886   9.690  10.484 -0.1993  0.5378 -0.3081
  175MOL0     H23612   4.017   9.695  10.265  0.7025 -1.1624 -0.9415
  175MOL0     H23613   4.317   9.339  10.060 -5.1817  3.1451  1.7006
  175MOL0     H23614   4.434   9.232   9.854  0.8315  0.4883 -0.3171
  175MOL0     H23615   4.568   9.437   9.583 -0.3557  0.4634  0.9545
  175MOL0     H23616   4.586   9.286   9.681  0.6639 -0.7692 -0.9748
  175MOL0     H23617   4.528   9.254   9.401 -0.2065  0.0715 -0.0493
  175MOL0     H23618   4.587   9.138   9.506  2.4980 -0.8114 -1.1452
  175MOL0     H23619   4.794   9.284   9.543 -2.5373  2.1956  0.7293
  175MOL0     H23620   4.769   9.368   9.393 -0.0731 -0.8796 -2.6132
  175MOL0     H23621   4.784   9.218   9.239 -2.1022 -0.6535  0.0112
  175MOL0     H23622   4.764   9.073   9.355  1.1117 -0.4096 -0.5349
  175MOL0     H23623   5.173   9.111   9.360  1.0935 -0.1391 -3.1420
  175MOL0     H23624   4.239   9.526   9.615 -1.0871 -0.6499  0.2270
  175MOL0     H23625   4.162   9.642   9.803 -0.1127  0.3280 -0.9017
  176MOL0     O23626   4.406  10.914   1.798 -0.1526 -0.0382  0.2321
  176MOL0     C23627   4.512  10.943   1.848 -1.2569 -0.1430 -0.2867
  176MOL0     O23628   4.536  10.980   1.984 -0.1843  0.4037  0.9828
  176MOL0     C23629   4.428  10.986   2.069 -0.8312 -0.0603  0.0730
  176MOL0     C23630   4.439  10.915   2.186  0.0335 -0.0670  0.6264
  176MOL0     C23631   4.347  10.937   2.287  1.1408  0.1371  0.1841
  176MOL0     C23632   4.238  11.031   2.275 -0.3100 -0.6172 -0.2875
  176MOL0     O23633   4.155  11.045   2.383  0.5993  0.0034 -1.0413
  176MOL0     C23634   4.019  11.079   2.345 -0.2203 -0.6672  0.1843
  176MOL0     C23635   3.921  10.982   2.420 -0.7326  0.1639 -0.1636
  176MOL0     C23636   3.770  11.027   2.409 -0.0374 -0.4625 -0.4532
  176MOL0     C23637   3.746  11.163   2.483 -0.0886 -0.3161 -0.2860
  176MOL0     C23638   3.593  11.192   2.484 -0.9975  0.3564  0.2828
  176MOL0     C23639   3.537  11.312   2.554 -0.3640 -0.1630 -0.5268
  176MOL0     C23640   3.387  11.338   2.520  0.3711 -0.3864  0.1654
  176MOL0     C23641   3.346  11.469   2.594 -0.1802  0.3734  0.3333
  176MOL0     N23642   3.206  11.498   2.591  0.3380 -0.1302  0.1657
  176MOL0     C23643   3.144  11.515   2.473  0.4860 -0.3393  0.0153
  176MOL0     C23644   3.008  11.526   2.502 -0.3398  1.4723  0.1708
  176MOL0     C23645   2.887  11.536   2.404 -0.6189 -0.3940  0.1433
  176MOL0     C23646   2.757  11.468   2.453 -0.0087 -0.3843  0.0554
  176MOL0     C23647   2.771  11.312   2.433  0.4350  0.7314  0.7149
  176MOL0     C23648   2.652  11.234   2.473  0.0558  0.5845 -0.5963
  176MOL0     O23649   2.553  11.275   2.374  0.0646  0.5378 -0.6180
  176MOL0     C23650   2.418  11.255   2.379 -0.0537 -0.3075 -0.7919
  176MOL0     C23651   2.332  11.286   2.272  0.5853  0.3327 -0.1848
  176MOL0     C23652   2.193  11.261   2.287  0.6124  0.6688  0.2916
  176MOL0     C23653   2.104  11.286   2.161  0.5385 -0.3783  0.3072
  176MOL0     C23654   2.139  11.199   2.404 -0.2776  1.0870 -0.3390
  176MOL0     C23655   1.995  11.168   2.433 -0.5663  0.5460  0.5059
  176MOL0     O23656   1.914  11.128   2.321 -1.1757 -0.2787 -0.0022
  176MOL0     C23657   1.781  11.118   2.333  0.1659  0.6356  0.8247
  176MOL0     C23658   1.702  11.141   2.225 -0.3018  0.0654 -0.8928
  176MOL0     C23659   1.562  11.112   2.225  0.4111  0.3020 -0.4716
  176MOL0     C23660   1.505  11.041   2.331  0.2097 -0.3749 -0.6679
  176MOL0     O23661   1.378  11.006   2.357 -0.0780 -0.4150 -0.2956
  176MOL0     C23662   1.273  11.070   2.281  0.3811  0.1121  0.6554
  176MOL0     C23663   1.149  11.010   2.332  0.2407 -0.6151  0.1873
  176MOL0     C23664   1.030  11.017   2.236 -0.9958  0.0761  0.1870
  176MOL0     C23665   0.897  10.962   2.289 -0.0630 -0.3277  0.3577
  176MOL0     C23666   0.794  10.924   2.179 -0.5997 -0.6568 -0.3811
  176MOL0     C23667   0.655  10.904   2.242  0.6385 -0.4409 -0.9661
  176MOL0     C23668   0.569  10.845   2.131 -0.0550 -0.4730  1.2128
  176MOL0     C23669   0.424  10.827   2.182 -0.4003 -0.2690  0.0124
  176MOL0    Cl23670   0.348  10.691   2.097  0.0379 -0.1164 -0.3395
  176MOL0     C23671   1.591  11.014   2.439  0.5090 -0.3015  0.5490
  176MOL0     C23672   1.722  11.050   2.437 -0.5431 -0.7368  0.2089
  176MOL0     O23673   1.967  11.149   2.548  0.0700 -0.1684 -0.4046
  176MOL0     C23674   2.238  11.172   2.507 -0.3778  0.3516  0.2728
  176MOL0     C23675   2.370  11.205   2.499  0.3008  0.0849 -0.1550
  176MOL0     N23676   2.993  11.516   2.642  0.4101 -0.4709 -0.3869
  176MOL0     N23677   3.113  11.492   2.691 -0.2045  0.4998 -0.0065
  176MOL0     C23678   4.221  11.095   2.149 -0.4991  0.0626  0.5007
  176MOL0     C23679   4.317  11.069   2.048  0.0842  0.2721 -0.3456
  176MOL0     C23680   4.630  10.942   1.756  0.7992  0.1760  0.4863
  176MOL0     C23681   4.614  10.964   1.614 -0.7272  0.3226 -0.3022
  176MOL0     C23682   4.727  10.982   1.534  0.2881  0.2280  0.0827
  176MOL0     C23683   4.851  10.983   1.593 -0.3698  1.1479 -0.2353
  176MOL0     O23684   4.956  10.988   1.510  0.3468 -0.5331  0.4122
  176MOL0     C23685   5.059  11.079   1.536 -0.1901 -0.1783 -0.2735
  176MOL0     C23686   5.181  11.067   1.439 -0.3405  0.3532 -0.5079
  176MOL0     C23687   5.146  11.051   1.289 -0.0589  1.0044  0.7990
  176MOL0     C23688   5.063  11.173   1.241  0.4348  0.2590 -0.8318
  176MOL0     C23689   5.022  11.164   1.096  0.1056  0.0577 -0.0542
  176MOL0     C23690   4.968  11.151   0.993 -1.1733 -0.3572 -0.1330
  176MOL0     C23691   4.871  10.965   1.732  0.4179 -0.4190 -0.4787
  176MOL0     C23692   4.761  10.938   1.807 -0.8476  0.0325  0.6649
  176MOL0     H23693   4.524  10.848   2.197  0.0147 -0.4872 -1.3520
  176MOL0     H23694   4.346  10.890   2.385 -0.0201 -3.5795 -1.4410
  176MOL0     H23695   3.990  11.175   2.389 -2.1601 -1.0199 -0.2156
  176MOL0     H23696   3.998  11.067   2.239  0.8121  0.7178 -0.2072
  176MOL0     H23697   3.928  10.883   2.376 -0.3691 -0.4818  1.2805
  176MOL0     H23698   3.949  10.977   2.526 -0.7032  0.0289 -0.1775
  176MOL0     H23699   3.735  11.042   2.307 -0.6370 -0.6495 -0.2847
  176MOL0     H23700   3.715  10.950   2.465 -1.9488  1.9151  1.1783
  176MOL0     H23701   3.781  11.159   2.587  0.6490 -1.5938 -0.5671
  176MOL0     H23702   3.797  11.243   2.429  2.9489  0.0401  2.7384
  176MOL0     H23703   3.562  11.193   2.379 -1.6939 -0.4024  0.4644
  176MOL0     H23704   3.549  11.104   2.532  1.3180 -0.8941  0.2177
  176MOL0     H23705   3.551  11.291   2.660  2.2806  1.0981 -0.5585
  176MOL0     H23706   3.605  11.394   2.529  0.8987  0.0882  3.2065
  176MOL0     H23707   3.369  11.343   2.412 -1.2019 -0.5461  0.4102
  176MOL0     H23708   3.334  11.248   2.549  0.5725 -1.3044 -2.0883
  176MOL0     H23709   3.394  11.550   2.538  0.4710 -1.4780 -1.9786
  176MOL0     H23710   3.382  11.471   2.697 -2.6555 -1.6320  1.3353
  176MOL0     H23711   3.182  11.514   2.372  2.4634 -2.2875  0.7095
  176MOL0     H23712   2.870  11.644   2.399 -2.5169 -0.7044 -1.3489
  176MOL0     H23713   2.918  11.505   2.304 -1.5355 -1.4879  0.1709
  176MOL0     H23714   2.673  11.508   2.395  0.1683 -2.3725 -1.6578
  176MOL0     H23715   2.751  11.482   2.562 -0.3161 -3.0416  0.4331
  176MOL0     H23716   2.859  11.294   2.496  0.5749  1.6859  0.8080
  176MOL0     H23717   2.792  11.285   2.329 -0.8348  1.1827  0.3276
  176MOL0     H23718   2.626  11.267   2.574 -0.5391  1.1953 -0.9399
  176MOL0     H23719   2.671  11.127   2.470 -0.6675  0.2568  2.8190
  176MOL0     H23720   2.384  11.328   2.186  1.1366 -1.2986 -0.6810
  176MOL0     H23721   2.161  11.312   2.071 -1.4451  2.0430 -0.3663
  176MOL0     H23722   2.045  11.195   2.146  1.9511 -0.9049 -2.7879
  176MOL0     H23723   2.040  11.373   2.176 -0.6042 -0.8697 -1.3905
  176MOL0     H23724   1.741  11.189   2.136 -1.3610  0.2055 -1.2932
  176MOL0     H23725   1.498  11.146   2.144 -1.1934  1.2751  1.1221
  176MOL0     H23726   1.267  11.179   2.286 -0.9724  0.1675 -1.1447
  176MOL0     H23727   1.289  11.052   2.174  0.7996  3.0256  0.1495
  176MOL0     H23728   1.163  10.905   2.356  2.3058 -0.8722 -1.8428
  176MOL0     H23729   1.134  11.059   2.429  1.5299 -1.8831  1.0681
  176MOL0     H23730   1.060  10.968   2.143  0.1692  4.0103 -1.7589
  176MOL0     H23731   1.012  11.119   2.200  0.8172  0.7776  1.1006
  176MOL0     H23732   0.922  10.873   2.348  1.4773 -2.0734 -2.6724
  176MOL0     H23733   0.848  11.032   2.357  1.8773  0.3695  1.1162
  176MOL0     H23734   0.826  10.847   2.108 -1.9975  0.7777 -2.6719
  176MOL0     H23735   0.790  11.011   2.113  1.2450 -0.1961  0.0364
  176MOL0     H23736   0.658  10.831   2.323  3.9763  1.4930  0.8494
  176MOL0     H23737   0.612  10.999   2.274 -0.9749 -0.9225 -1.5806
  176MOL0     H23738   0.603  10.757   2.076 -0.0573 -0.5262  1.2957
  176MOL0     H23739   0.555  10.917   2.050  0.1908  0.2521  1.7986
  176MOL0     H23740   0.357  10.914   2.182 -1.5028 -1.0980 -0.7842
  176MOL0     H23741   0.434  10.799   2.287  0.9131 -0.2617 -0.0846
  176MOL0     H23742   1.547  10.960   2.523 -0.1824 -0.4867  0.0764
  176MOL0     H23743   1.785  11.026   2.522  2.4473 -2.9390 -2.3602
  176MOL0     H23744   2.200  11.116   2.591 -0.1906  0.4560  0.4266
  176MOL0     H23745   2.430  11.170   2.582 -0.8872  0.7137  1.0128
  176MOL0     H23746   4.147  11.168   2.119 -1.0180  0.1152  1.8257
  176MOL0     H23747   4.305  11.127   1.957 -3.2449 -0.3672 -0.4237
  176MOL0     H23748   4.512  10.977   1.580 -1.1673  2.2596  1.5082
  176MOL0     H23749   4.718  10.998   1.427  1.3502  0.3357 -0.0034
  176MOL0     H23750   5.003  11.173   1.529  0.0139 -0.0352 -0.0117
  176MOL0     H23751   5.099  11.055   1.634 -1.2135 -1.2768 -0.0959
  176MOL0     H23752   5.240  10.978   1.464  3.6260  3.1699  1.1534
  176MOL0     H23753   5.246  11.154   1.451 -0.5106  0.1183  3.2213
  176MOL0     H23754   5.089  10.963   1.257  0.1927  1.3030 -0.5431
  176MOL0     H23755   5.247  11.048   1.247 -0.0864 -0.1855  0.7754
  176MOL0     H23756   5.112  11.268   1.266  1.0834 -0.1317 -0.6158
  176MOL0     H23757   4.966  11.171   1.292  1.5913 -0.8496  1.4989
  176MOL0     H23758   4.933  11.129   0.894  1.9492 -0.2940 -1.3661
  176MOL0     H23759   4.970  10.968   1.776 -1.1278  2.0141  3.3872
  176MOL0     H23760   4.763  10.912   1.913  2.7797 -0.5409  0.5874
  177MOL0     O23761   7.762   1.350   6.401 -0.0283  0.5180  0.4922
  177MOL0     C23762   7.869   1.406   6.376  0.1686  0.5007 -0.1010
  177MOL0     O23763   7.949   1.386   6.265  0.2145 -0.1817  0.7719
  177MOL0     C23764   7.918   1.297   6.160  1.1476 -0.0121 -0.7041
  177MOL0     C23765   7.785   1.278   6.117 -0.6156 -0.1828  0.4296
  177MOL0     C23766   7.759   1.200   6.007  0.1776  0.2799 -1.0307
  177MOL0     C23767   7.861   1.130   5.944 -1.3737 -0.4057 -0.4739
  177MOL0     O23768   7.830   1.045   5.849  0.1565 -0.0137  0.4753
  177MOL0     C23769   7.922   1.022   5.737  0.4527  1.2134 -0.1235
  177MOL0     C23770   7.850   0.976   5.612  0.5623  0.6749 -0.3357
  177MOL0     C23771   7.750   1.083   5.570 -0.1538  0.2507  0.5195
  177MOL0     C23772   7.668   1.024   5.451  0.0571  0.2883 -0.3806
  177MOL0     C23773   7.541   1.107   5.421 -0.9578  0.1242  0.3805
  177MOL0     C23774   7.437   1.022   5.336  0.1841  0.3123 -0.1529
  177MOL0     C23775   7.375   0.902   5.412  0.4930 -1.1691  0.0196
  177MOL0     C23776   7.285   0.816   5.324  0.6451 -0.7981  1.1111
  177MOL0     N23777   7.168   0.884   5.271  0.3867 -0.3077 -0.2207
  177MOL0     C23778   7.066   0.941   5.341 -0.3652  0.2495 -0.3542
  177MOL0     C23779   6.983   0.987   5.245  0.8086  0.4965 -0.1736
  177MOL0     C23780   6.861   1.066   5.285 -0.6893 -0.5533  0.1101
  177MOL0     C23781   6.908   1.186   5.364  0.6964 -0.5401 -0.5469
  177MOL0     C23782   6.797   1.275   5.424  0.1315  0.2794 -0.0564
  177MOL0     C23783   6.671   1.278   5.343  0.0394 -0.3592 -0.3483
  177MOL0     O23784   6.587   1.374   5.402 -1.0653 -0.4203  0.0532
  177MOL0     C23785   6.457   1.391   5.353  0.0478  0.1522 -0.8457
  177MOL0     C23786   6.378   1.477   5.434 -0.0053  0.4790  0.6633
  177MOL0     C23787   6.251   1.510   5.398  0.1495  0.0661 -0.2652
  177MOL0     C23788   6.164   1.573   5.508 -0.2698  0.1097 -0.2706
  177MOL0     C23789   6.188   1.456   5.282  0.2214 -0.1829 -0.3437
  177MOL0     C23790   6.045   1.486   5.240  1.0202 -0.1566  0.1546
  177MOL0     O23791   5.983   1.391   5.163 -0.0887  0.1750 -0.2859
  177MOL0     C23792   5.851   1.400   5.136  0.4694  0.1014  0.3517
  177MOL0     C23793   5.804   1.431   5.007  0.1271 -0.5742 -0.6828
  177MOL0     C23794   5.665   1.442   4.981  0.5174  0.2589 -0.2800
  177MOL0     C23795   5.577   1.413   5.085 -0.1469  0.1016 -0.3041
  177MOL0     O23796   5.440   1.420   5.051 -0.2449 -0.3587 -0.5728
  177MOL0     C23797   5.343   1.368   5.155  0.4139 -0.6947  0.2699
  177MOL0     C23798   5.217   1.318   5.070 -0.1826  0.3671  0.0734
  177MOL0     C23799   5.122   1.249   5.167  1.1623  0.1779  0.7356
  177MOL0     C23800   4.985   1.220   5.088 -0.0626 -0.3785 -0.7565
  177MOL0     C23801   4.892   1.340   5.078  0.3316 -0.6441 -0.3003
  177MOL0     C23802   4.758   1.302   5.010 -0.3979 -0.0543  0.4318
  177MOL0     C23803   4.670   1.424   4.990  0.2718  0.8584  0.2628
  177MOL0     C23804   4.552   1.411   4.895 -0.1681  0.2276 -0.2430
  177MOL0    Cl23805   4.434   1.287   4.946  0.2666  0.3442  0.3292
  177MOL0     C23806   5.622   1.370   5.203 -0.5843  0.2834 -0.0506
  177MOL0     C23807   5.761   1.370   5.238  0.8557 -1.1478 -0.0897
  177MOL0     O23808   6.001   1.594   5.267 -0.2834  0.5334  0.4811
  177MOL0     C23809   6.260   1.361   5.211  0.1749 -0.3629 -0.6196
  177MOL0     C23810   6.392   1.334   5.237 -0.5318 -0.9476 -0.2927
  177MOL0     N23811   7.030   0.953   5.120  0.5133 -0.2923  0.9130
  177MOL0     N23812   7.146   0.911   5.137  0.9930 -0.5169  0.9985
  177MOL0     C23813   7.996   1.138   5.991 -0.0401 -0.0063  0.8156
  177MOL0     C23814   8.022   1.226   6.099 -0.0665 -0.1069 -1.8174
  177MOL0     C23815   7.919   1.494   6.480  0.0049 -0.4314 -0.5372
  177MOL0     C23816   7.836   1.536   6.582 -0.4309  1.1589  0.4756
  177MOL0     C23817   7.881   1.617   6.682 -0.4096 -0.4815 -0.0681
  177MOL0     C23818   8.013   1.658   6.688  0.8065 -0.8435  0.1964
  177MOL0     O23819   8.064   1.742   6.780  0.1285  0.6955  0.6180
  177MOL0     C23820   7.985   1.780   6.900 -0.2754  0.2801  0.5722
  177MOL0     C23821   7.984   1.667   6.999 -0.1239 -0.6057  0.1108
  177MOL0     C23822   8.125   1.654   7.074 -0.1010  0.0649  0.3626
  177MOL0     C23823   8.099   1.596   7.217  0.2524  0.2818  0.4775
  177MOL0     C23824   8.232   1.552   7.268 -0.0047  0.6764 -0.7718
  177MOL0     C23825   8.331   1.500   7.320  0.5563  0.8264 -0.1654
  177MOL0     C23826   8.100   1.620   6.586 -0.4375 -0.1952 -0.0536
  177MOL0     C23827   8.052   1.533   6.485 -1.1570 -0.6751  0.3355
  177MOL0     H23828   7.698   1.329   6.156  0.1171 -0.0482  1.9513
  177MOL0     H23829   7.660   1.187   5.963  0.0813 -0.9680 -0.5033
  177MOL0     H23830   7.963   1.120   5.712  1.8525  1.2298  2.0019
  177MOL0     H23831   7.997   0.946   5.759 -1.1703 -0.8259 -1.2134
  177MOL0     H23832   7.923   0.953   5.534 -0.4272 -1.1637 -0.7825
  177MOL0     H23833   7.793   0.884   5.630 -1.9488  1.6378 -2.6017
  177MOL0     H23834   7.685   1.116   5.653  1.1736 -0.5779  1.9460
  177MOL0     H23835   7.796   1.172   5.527  0.4883  1.5194  3.5728
  177MOL0     H23836   7.717   1.020   5.353 -0.1781 -3.3862 -0.4952
  177MOL0     H23837   7.636   0.922   5.474 -1.4656  1.2677  2.1512
  177MOL0     H23838   7.490   1.127   5.516  0.3666  1.3777  0.8724
  177MOL0     H23839   7.565   1.207   5.385  3.8515 -0.3718  1.5008
  177MOL0     H23840   7.357   1.088   5.299  0.5192  0.8285  0.0281
  177MOL0     H23841   7.484   0.989   5.243 -1.9072  0.5143 -1.3681
  177MOL0     H23842   7.449   0.837   5.460  1.4743  1.7860  2.8789
  177MOL0     H23843   7.317   0.931   5.500 -0.5328 -0.7984 -0.7578
  177MOL0     H23844   7.244   0.755   5.405 -1.4651 -0.0944  0.6159
  177MOL0     H23845   7.348   0.774   5.245 -1.0236  1.0462 -1.3363
  177MOL0     H23846   7.054   0.948   5.448 -3.4873  1.3947 -0.6544
  177MOL0     H23847   6.818   1.115   5.197  0.2872  3.3780  1.6082
  177MOL0     H23848   6.784   1.011   5.341 -0.3912  1.8930  3.2101
  177MOL0     H23849   6.974   1.248   5.303  0.4255 -0.6350 -0.9396
  177MOL0     H23850   6.977   1.158   5.445  2.2472  2.2046 -0.8128
  177MOL0     H23851   6.840   1.372   5.452  1.4324 -0.3488  0.1875
  177MOL0     H23852   6.774   1.229   5.521  0.2692  1.5280  0.5850
  177MOL0     H23853   6.625   1.179   5.346  0.0467 -0.3300  0.7866
  177MOL0     H23854   6.685   1.293   5.235 -1.5277 -2.0814 -0.8325
  177MOL0     H23855   6.427   1.504   5.527  3.4391 -0.2191 -0.7994
  177MOL0     H23856   6.205   1.567   5.610 -0.7907 -1.7735 -0.1241
  177MOL0     H23857   6.165   1.679   5.485  0.6586 -0.4383 -3.1051
  177MOL0     H23858   6.066   1.526   5.521  2.0985 -5.1724  1.7603
  177MOL0     H23859   5.875   1.459   4.930  1.4395  0.4384  0.7979
  177MOL0     H23860   5.628   1.473   4.884  3.3669  3.0777 -0.6147
  177MOL0     H23861   5.378   1.278   5.207 -0.3068 -0.5783  0.9674
  177MOL0     H23862   5.321   1.456   5.215  0.3726  0.4427 -1.3520
  177MOL0     H23863   5.172   1.406   5.024 -0.0678  0.9774  1.1071
  177MOL0     H23864   5.258   1.246   4.998  1.4511 -0.1306  1.4254
  177MOL0     H23865   5.101   1.321   5.247 -2.9788  2.1491 -1.8285
  177MOL0     H23866   5.165   1.150   5.185 -0.5340 -0.7260  0.0540
  177MOL0     H23867   5.002   1.173   4.991 -1.2747 -0.4986 -0.9266
  177MOL0     H23868   4.921   1.157   5.150  0.3209 -2.1447 -2.0705
  177MOL0     H23869   4.932   1.426   5.023 -2.8023  2.3828  1.7273
  177MOL0     H23870   4.856   1.380   5.173 -1.4737 -0.1012 -1.1523
  177MOL0     H23871   4.761   1.245   4.916 -2.0814 -0.1430  0.3914
  177MOL0     H23872   4.711   1.248   5.092 -0.8078  0.8043  0.7734
  177MOL0     H23873   4.735   1.510   4.975  0.0400  1.1282  0.7761
  177MOL0     H23874   4.627   1.451   5.087  1.2885  3.1457  0.1523
  177MOL0     H23875   4.585   1.398   4.792  1.8926  1.1647  0.2613
  177MOL0     H23876   4.510   1.512   4.899  0.6546  0.5950 -0.6212
  177MOL0     H23877   5.555   1.346   5.284 -2.6931 -0.4928 -1.9350
  177MOL0     H23878   5.797   1.343   5.337  0.0438 -2.0059 -0.0189
  177MOL0     H23879   6.210   1.300   5.137 -1.4441 -1.5047  1.2874
  177MOL0     H23880   6.440   1.262   5.173  1.7328  1.9412 -2.0883
  177MOL0     H23881   8.070   1.071   5.947  0.2980 -0.0324  1.4139
  177MOL0     H23882   8.117   1.231   6.151 -1.7394 -1.2429  1.6150
  177MOL0     H23883   7.728   1.521   6.589 -0.1730 -1.3789  0.0440
  177MOL0     H23884   7.803   1.652   6.749 -1.0691  3.2186 -2.4802
  177MOL0     H23885   8.033   1.866   6.948  1.1320 -1.2585  2.1003
  177MOL0     H23886   7.884   1.809   6.871 -1.1668 -1.6840  1.5360
  177MOL0     H23887   7.954   1.573   6.951  1.7393 -0.1797 -2.0560
  177MOL0     H23888   7.914   1.689   7.080 -0.6226 -1.8472  0.0422
  177MOL0     H23889   8.184   1.746   7.075  1.9265 -1.1330 -0.8332
  177MOL0     H23890   8.190   1.588   7.015  0.4767  1.8742 -1.1064
  177MOL0     H23891   8.039   1.506   7.201  0.2148  0.7741 -3.1164
  177MOL0     H23892   8.045   1.672   7.274 -0.3099 -1.3150  2.1652
  177MOL0     H23893   8.415   1.460   7.372 -0.2086 -1.2965 -0.4830
  177MOL0     H23894   8.202   1.649   6.609 -0.0253 -0.9517 -0.8661
  177MOL0     H23895   8.119   1.507   6.403 -1.0320  1.7965 -0.4321
  178MOL0     O23896   6.269   4.262   2.780  0.1399  0.5340  0.0497
  178MOL0     C23897   6.341   4.194   2.707 -0.6877 -0.7254  0.4693
  178MOL0     O23898   6.306   4.075   2.651  0.2359 -0.3848 -0.2859
  178MOL0     C23899   6.183   4.011   2.685 -0.3530  1.1414 -0.4030
  178MOL0     C23900   6.118   4.012   2.816 -0.2270 -0.4807  0.3507
  178MOL0     C23901   5.996   3.949   2.839  0.2232 -0.4316  0.4481
  178MOL0     C23902   5.938   3.859   2.747 -0.0028  0.4125  1.3668
  178MOL0     O23903   5.823   3.786   2.773 -0.8184 -0.1114  1.1199
  178MOL0     C23904   5.802   3.665   2.706 -0.0196  0.4709  0.7689
  178MOL0     C23905   5.703   3.581   2.783  0.1585 -0.7748  0.1066
  178MOL0     C23906   5.580   3.669   2.829 -0.5429  0.0604 -0.3894
  178MOL0     C23907   5.466   3.572   2.832  0.1368  0.8513  0.5231
  178MOL0     C23908   5.347   3.641   2.889 -0.0434 -0.0946  0.4035
  178MOL0     C23909   5.230   3.556   2.926  0.4260  0.7261 -0.5879
  178MOL0     C23910   5.149   3.480   2.827 -0.8242  0.6962 -0.5173
  178MOL0     C23911   5.108   3.573   2.715 -0.4852 -0.0566 -0.4502
  178MOL0     N23912   4.980   3.542   2.658 -0.2792 -0.5175  0.7036
  178MOL0     C23913   4.863   3.620   2.647  0.4124  0.4876 -0.4761
  178MOL0     C23914   4.769   3.528   2.614  0.7796 -0.5694  0.3214
  178MOL0     C23915   4.620   3.561   2.594 -0.5588 -0.5041 -0.4846
  178MOL0     C23916   4.599   3.595   2.445  0.0276 -0.2954  0.5728
  178MOL0     C23917   4.454   3.630   2.400 -0.1217  0.7176 -0.0550
  178MOL0     C23918   4.455   3.688   2.262 -0.0548  0.4618 -0.2620
  178MOL0     O23919   4.322   3.736   2.226  0.4289  0.3010 -0.4115
  178MOL0     C23920   4.221   3.637   2.214 -0.0953  0.1771 -1.3820
  178MOL0     C23921   4.235   3.513   2.156 -0.5453 -0.3167  0.0325
  178MOL0     C23922   4.129   3.428   2.125 -0.8316 -0.5897  0.1598
  178MOL0     C23923   4.162   3.295   2.055  0.3988 -0.1208 -0.9283
  178MOL0     C23924   3.997   3.470   2.158 -0.2430  0.4494 -0.6027
  178MOL0     C23925   3.876   3.393   2.116 -1.1109 -0.5169  0.4674
  178MOL0     O23926   3.779   3.461   2.053  0.7798  0.4897 -0.3109
  178MOL0     C23927   3.658   3.396   2.030  0.0169  0.8473 -1.7838
  178MOL0     C23928   3.654   3.271   1.965 -0.3634  0.7191  0.3508
  178MOL0     C23929   3.536   3.207   1.931  0.2449  0.0027 -0.1573
  178MOL0     C23930   3.416   3.260   1.984 -0.5715 -0.5880 -0.2089
  178MOL0     O23931   3.295   3.200   1.937  0.0355  0.8326  0.2276
  178MOL0     C23932   3.185   3.282   1.901 -0.4719  0.1226  0.7428
  178MOL0     C23933   3.071   3.204   1.840 -0.2670  0.0908 -0.0941
  178MOL0     C23934   3.032   3.086   1.927 -0.0118  0.1084 -0.4080
  178MOL0     C23935   2.896   3.045   1.908  0.9511  0.8622  0.3307
  178MOL0     C23936   2.860   2.922   1.984 -0.4414 -0.5200 -0.1653
  178MOL0     C23937   2.730   2.853   1.936  0.0242 -0.1333  0.4506
  178MOL0     C23938   2.758   2.774   1.798  0.1875  0.0924 -0.2004
  178MOL0     C23939   2.651   2.666   1.764 -0.4566 -0.4200  0.1638
  178MOL0    Cl23940   2.688   2.623   1.595  0.0106  0.1559 -0.0046
  178MOL0     C23941   3.421   3.373   2.076  0.7766  0.4458  0.6516
  178MOL0     C23942   3.546   3.441   2.088 -0.4634  1.2617 -0.7813
  178MOL0     O23943   3.864   3.282   2.174 -0.1006 -0.5461  0.4460
  178MOL0     C23944   3.980   3.601   2.227 -0.0755  0.2231 -0.3757
  178MOL0     C23945   4.091   3.678   2.251 -0.3635 -0.3169 -0.4051
  178MOL0     N23946   4.827   3.412   2.561  0.3055  0.3279 -0.7265
  178MOL0     N23947   4.957   3.417   2.600 -0.1847  0.0690 -0.1610
  178MOL0     C23948   6.007   3.845   2.621 -0.3575 -0.7481 -0.0521
  178MOL0     C23949   6.123   3.920   2.591 -1.1277 -0.0051  0.8133
  178MOL0     C23950   6.463   4.269   2.677 -1.6874 -0.4067  0.7892
  178MOL0     C23951   6.494   4.406   2.704  0.6198  0.7880 -0.1539
  178MOL0     C23952   6.615   4.461   2.664  0.0914  0.0794  0.0730
  178MOL0     C23953   6.718   4.390   2.612 -0.5918 -0.2888 -0.4293
  178MOL0     O23954   6.842   4.425   2.573  0.2277  0.5272  0.0323
  178MOL0     C23955   6.904   4.555   2.608 -0.9686 -0.6881 -0.2005
  178MOL0     C23956   6.888   4.655   2.499  0.6142  0.0595  0.4826
  178MOL0     C23957   7.005   4.659   2.394  0.2244 -0.3257 -1.4189
  178MOL0     C23958   6.965   4.575   2.266  0.0470  0.7939  0.7468
  178MOL0     C23959   6.974   4.431   2.282 -0.6630 -0.5561 -0.0684
  178MOL0     C23960   6.946   4.314   2.298  0.2102 -0.0141 -0.4852
  178MOL0     C23961   6.688   4.261   2.579  0.1896 -0.3688 -0.8518
  178MOL0     C23962   6.567   4.197   2.612 -0.7464 -0.7430  0.7035
  178MOL0     H23963   6.159   4.073   2.896  1.2905 -0.2590 -0.5549
  178MOL0     H23964   5.956   3.949   2.940  0.7208 -2.8561  0.7009
  178MOL0     H23965   5.757   3.687   2.609  1.0112 -2.2134 -0.4004
  178MOL0     H23966   5.898   3.617   2.688 -1.3567 -1.1371 -3.2124
  178MOL0     H23967   5.675   3.495   2.721  0.4696 -0.8929  0.1293
  178MOL0     H23968   5.757   3.543   2.870  3.6704  0.1499 -1.4860
  178MOL0     H23969   5.605   3.711   2.927  2.2221 -3.1955  0.4898
  178MOL0     H23970   5.560   3.754   2.763 -0.0047  0.2609 -0.2965
  178MOL0     H23971   5.456   3.531   2.731  0.0554 -1.5383  1.4276
  178MOL0     H23972   5.484   3.491   2.904  1.0509  0.7771  0.2273
  178MOL0     H23973   5.381   3.690   2.981  1.1936  1.2139 -0.7010
  178MOL0     H23974   5.312   3.723   2.825  0.3452 -2.1840 -2.7224
  178MOL0     H23975   5.269   3.478   2.992  0.4469  1.0709 -0.1869
  178MOL0     H23976   5.171   3.627   2.985  1.7615  2.0124 -0.7343
  178MOL0     H23977   5.199   3.395   2.781  0.7548  0.6513  1.1860
  178MOL0     H23978   5.060   3.451   2.883  1.0600 -3.4990  0.7378
  178MOL0     H23979   5.184   3.585   2.637  0.4299 -4.7856 -0.6250
  178MOL0     H23980   5.092   3.666   2.769 -0.1966  0.9236 -1.9896
  178MOL0     H23981   4.850   3.720   2.688  1.9864 -0.0135  1.3826
  178MOL0     H23982   4.554   3.479   2.625 -1.2780  0.5940  1.0144
  178MOL0     H23983   4.590   3.649   2.651  0.9875  1.2556 -2.2516
  178MOL0     H23984   4.644   3.519   2.382 -0.6085  0.1741 -0.4703
  178MOL0     H23985   4.664   3.681   2.429  1.1336 -0.8236  2.0549
  178MOL0     H23986   4.416   3.713   2.461 -4.0888  0.0776 -1.3997
  178MOL0     H23987   4.377   3.555   2.418 -0.7801  1.1710 -0.9317
  178MOL0     H23988   4.490   3.616   2.188 -1.3268  1.1076 -1.5191
  178MOL0     H23989   4.520   3.776   2.275  1.5847 -0.5064 -1.4735
  178MOL0     H23990   4.339   3.487   2.140 -0.4276 -0.8311  1.4320
  178MOL0     H23991   4.147   3.216   2.129  1.4819  0.5695  0.0774
  178MOL0     H23992   4.106   3.284   1.962 -0.1192 -0.0025 -0.6338
  178MOL0     H23993   4.269   3.287   2.032  0.0702 -2.4833 -1.8265
  178MOL0     H23994   3.742   3.224   1.922 -1.0551  0.0772 -0.3947
  178MOL0     H23995   3.530   3.118   1.868 -0.8332  0.0745 -0.1815
  178MOL0     H23996   3.160   3.336   1.993  3.3423  1.1046  1.3910
  178MOL0     H23997   3.220   3.356   1.828 -0.4809  0.5648  1.1776
  178MOL0     H23998   2.991   3.278   1.834 -1.6305 -1.3900 -1.2419
  178MOL0     H23999   3.113   3.168   1.745 -0.6939 -1.7242  0.3744
  178MOL0     H24000   3.039   3.116   2.033 -1.3511  1.2545 -0.6083
  178MOL0     H24001   3.107   3.008   1.919  0.2947  0.5218 -1.9410
  178MOL0     H24002   2.827   3.128   1.930  0.9877  1.3876 -1.3471
  178MOL0     H24003   2.879   3.020   1.803 -0.6934 -2.3349  1.2457
  178MOL0     H24004   2.841   2.954   2.087 -2.2703  0.6328 -0.8119
  178MOL0     H24005   2.945   2.853   1.977  0.3527  0.3255  0.8606
  178MOL0     H24006   2.690   2.779   2.005  1.3203 -0.3355  1.0274
  178MOL0     H24007   2.648   2.925   1.927  0.4081  0.5524  2.0029
  178MOL0     H24008   2.853   2.719   1.802 -0.5173 -1.0877  1.0075
  178MOL0     H24009   2.763   2.844   1.715  0.7561 -0.2901 -0.4956
  178MOL0     H24010   2.552   2.711   1.772  1.3355  3.5850  2.7326
  178MOL0     H24011   2.669   2.587   1.837  3.2702  0.5848  0.5421
  178MOL0     H24012   3.324   3.414   2.100  1.1894  2.5064 -0.8365
  178MOL0     H24013   3.545   3.533   2.145 -0.8440  1.8670 -1.7335
  178MOL0     H24014   3.882   3.637   2.254  0.5306  1.1040  0.7330
  178MOL0     H24015   4.081   3.772   2.304  1.2697 -0.5127  0.2926
  178MOL0     H24016   5.975   3.779   2.541  0.9407  3.2000 -4.2619
  178MOL0     H24017   6.185   3.912   2.502 -0.7181  1.1733  0.9781
  178MOL0     H24018   6.425   4.469   2.759  1.6507  1.7527  0.0759
  178MOL0     H24019   6.629   4.568   2.675 -1.4779  0.1893  1.3795
  178MOL0     H24020   6.881   4.605   2.702  3.5877  1.3003  0.1379
  178MOL0     H24021   7.013   4.541   2.615 -0.9007 -0.0070  0.2478
  178MOL0     H24022   6.897   4.751   2.552 -0.2298 -0.2327  1.1753
  178MOL0     H24023   6.792   4.650   2.448  0.5909  2.3200  0.1717
  178MOL0     H24024   7.096   4.621   2.441 -0.4620 -1.3500 -0.8861
  178MOL0     H24025   7.015   4.763   2.362  0.5861  0.1817  0.2302
  178MOL0     H24026   7.023   4.593   2.175  0.4420 -2.8191  0.1464
  178MOL0     H24027   6.861   4.595   2.237 -0.2199 -0.8086  0.4685
  178MOL0     H24028   6.913   4.213   2.306  0.7538 -0.2138 -0.6772
  178MOL0     H24029   6.769   4.194   2.549  1.4627  0.1231  1.2510
  178MOL0     H24030   6.570   4.091   2.591  2.7463 -0.5887 -0.2095
  179MOL0     O24031  10.184   0.606   4.147  0.2366  0.2117  0.0418
  179MOL0     C24032  10.236   0.502   4.182  0.0223 -0.1917  0.0358
  179MOL0     O24033  10.173   0.400   4.256  0.0798  0.0721 -0.5723
  179MOL0     C24034  10.045   0.430   4.275  0.3469 -0.5391 -1.3576
  179MOL0     C24035   9.948   0.394   4.187  0.2003 -0.7101  0.0556
  179MOL0     C24036   9.808   0.416   4.206 -0.4056 -0.0093 -0.7368
  179MOL0     C24037   9.766   0.494   4.316  0.5166  0.1721  0.0484
  179MOL0     O24038   9.643   0.539   4.338  0.0991 -0.0243  0.3732
  179MOL0     C24039   9.540   0.506   4.243  0.4611 -0.5285  0.0800
  179MOL0     C24040   9.414   0.584   4.273 -0.2973 -0.0945 -0.1441
  179MOL0     C24041   9.287   0.522   4.215 -0.3394 -1.0807 -0.1125
  179MOL0     C24042   9.165   0.607   4.243  0.0783 -0.1590 -1.2248
  179MOL0     C24043   9.033   0.537   4.205 -0.4294 -0.1019  0.6384
  179MOL0     C24044   8.993   0.410   4.280  0.0957  0.2398 -0.0218
  179MOL0     C24045   8.863   0.347   4.230 -0.6286  0.7379 -0.4052
  179MOL0     C24046   8.816   0.221   4.315  0.1276  0.8284 -0.3446
  179MOL0     N24047   8.709   0.135   4.254  0.0077 -0.7763  0.3614
  179MOL0     C24048   8.581   0.169   4.267  0.2447 -0.4544 -0.3997
  179MOL0     C24049   8.509   0.090   4.186 -0.2141  0.3228  0.3944
  179MOL0     C24050   8.364   0.090   4.164 -0.0090  0.5746 -0.4776
  179MOL0     C24051   8.331   0.163   4.035  0.0249  1.1242  0.2719
  179MOL0     C24052   8.189   0.133   3.986  0.0550 -0.4375  0.1653
  179MOL0     C24053   8.178   0.000   3.908  0.1914 -0.2476  0.5628
  179MOL0     O24054   8.037  -0.018   3.870  0.1277 -0.2217 -0.1805
  179MOL0     C24055   7.943  -0.051   3.968  0.6995  0.4719  0.1318
  179MOL0     C24056   7.965  -0.096   4.102 -0.2531 -0.1351  0.9077
  179MOL0     C24057   7.850  -0.139   4.183 -0.0259  0.1037  0.5113
  179MOL0     C24058   7.872  -0.179   4.329  0.1509  0.3054  0.5598
  179MOL0     C24059   7.718  -0.131   4.122 -0.6338  0.0273  0.5976
  179MOL0     C24060   7.600  -0.192   4.183 -0.4751 -0.8170 -0.1287
  179MOL0     O24061   7.584  -0.176   4.318 -0.4774 -0.4281 -0.1353
  179MOL0     C24062   7.497  -0.257   4.382 -0.6005 -0.8506  0.4109
  179MOL0     C24063   7.478  -0.392   4.351  0.3203 -0.0393 -0.7133
  179MOL0     C24064   7.399  -0.475   4.440  0.2845 -0.2701  0.3270
  179MOL0     C24065   7.328  -0.412   4.539 -0.9288 -0.7050 -0.3241
  179MOL0     O24066   7.246  -0.488   4.618  0.3709  0.0186  0.4127
  179MOL0     C24067   7.164  -0.592   4.556 -0.2416 -0.0086  0.3575
  179MOL0     C24068   7.048  -0.515   4.489 -0.0604 -0.6606 -0.3144
  179MOL0     C24069   6.920  -0.589   4.500 -0.5612  0.4020 -0.0780
  179MOL0     C24070   6.888  -0.708   4.401 -0.5323 -0.0145 -0.0264
  179MOL0     C24071   6.743  -0.744   4.419 -0.0236 -0.3855  0.9571
  179MOL0     C24072   6.697  -0.851   4.325  0.4849  1.0114  0.1169
  179MOL0     C24073   6.556  -0.841   4.267 -0.2232 -0.0029 -0.1044
  179MOL0     C24074   6.562  -0.750   4.139  0.0723 -0.9164  0.4683
  179MOL0    Cl24075   6.399  -0.731   4.074 -0.2774 -0.1517 -0.2152
  179MOL0     C24076   7.349  -0.279   4.570  0.1339 -0.5014  0.9109
  179MOL0     C24077   7.436  -0.195   4.494 -0.8968  0.4507  0.5407
  179MOL0     O24078   7.518  -0.249   4.112  0.7828 -0.0586  0.2940
  179MOL0     C24079   7.705  -0.080   3.989 -0.2053 -0.2104 -0.0816
  179MOL0     C24080   7.816  -0.045   3.913 -0.3529  0.4881 -0.4905
  179MOL0     N24081   8.608   0.015   4.119 -0.4994  0.1777  0.3202
  179MOL0     N24082   8.731   0.047   4.152  0.1423 -0.5572 -0.2709
  179MOL0     C24083   9.873   0.521   4.409  0.5403 -0.7351  0.9665
  179MOL0     C24084  10.006   0.487   4.397 -0.0723 -0.6359  0.0247
  179MOL0     C24085  10.382   0.477   4.150  0.0040 -0.3885 -0.3660
  179MOL0     C24086  10.468   0.589   4.150 -0.0049 -0.5480  0.4589
  179MOL0     C24087  10.604   0.578   4.133 -0.3353 -0.9600  0.5584
  179MOL0     C24088  10.662   0.453   4.110 -0.0197 -0.3783 -0.3163
  179MOL0     O24089  10.790   0.416   4.075 -0.2537  1.2293  0.1611
  179MOL0     C24090  10.900   0.480   4.137  0.4539 -0.1129  0.2279
  179MOL0     C24091  11.035   0.416   4.100  0.1580  0.4591 -0.0697
  179MOL0     C24092  11.084   0.467   3.964  1.1763  0.2856 -0.3326
  179MOL0     C24093  11.199   0.388   3.894 -0.0343 -0.4151  0.1230
  179MOL0     C24094  11.237   0.446   3.769  0.1356  0.6179  1.2657
  179MOL0     C24095  11.271   0.494   3.665  0.5500  0.0341 -0.4645
  179MOL0     C24096  10.581   0.348   4.119  0.6124 -0.1212  0.0200
  179MOL0     C24097  10.447   0.360   4.138 -0.0642 -0.3453 -0.1335
  179MOL0     H24098   9.990   0.340   4.102  1.0783 -2.8174  1.7437
  179MOL0     H24099   9.739   0.377   4.133  0.8510  1.9683 -3.1338
  179MOL0     H24100   9.582   0.540   4.148  0.4869 -0.6791  0.0381
  179MOL0     H24101   9.528   0.399   4.224  1.2558 -0.3834 -1.3190
  179MOL0     H24102   9.389   0.586   4.379  0.4292  0.7369  0.0198
  179MOL0     H24103   9.434   0.690   4.255  3.4594 -0.6918 -0.1513
  179MOL0     H24104   9.290   0.503   4.107 -0.0724 -1.4393 -0.0468
  179MOL0     H24105   9.279   0.419   4.252  0.6964 -2.0334 -2.3300
  179MOL0     H24106   9.173   0.630   4.350  1.5760 -0.0473 -1.3351
  179MOL0     H24107   9.178   0.702   4.192  1.2591  0.2765 -0.1799
  179MOL0     H24108   8.948   0.604   4.220 -0.4452  0.3148 -1.1087
  179MOL0     H24109   9.032   0.516   4.098  0.8191  0.0954  0.5665
  179MOL0     H24110   9.077   0.339   4.272  0.6266  0.7997  0.5194
  179MOL0     H24111   8.984   0.437   4.385 -3.3622  1.3165 -0.4841
  179MOL0     H24112   8.792   0.428   4.244  2.3397  3.4850 -0.1711
  179MOL0     H24113   8.875   0.319   4.125  0.7405  0.9677 -0.3233
  179MOL0     H24114   8.791   0.244   4.419  1.1446 -3.0192  0.9216
  179MOL0     H24115   8.903   0.155   4.317  0.2848  0.9988 -1.1455
  179MOL0     H24116   8.528   0.246   4.323  0.4262 -1.0926  0.6813
  179MOL0     H24117   8.335  -0.015   4.155  0.5174  0.2873  1.0029
  179MOL0     H24118   8.321   0.143   4.249  1.1204 -1.2625  1.3394
  179MOL0     H24119   8.394   0.127   3.953 -1.7556 -3.3415  0.5677
  179MOL0     H24120   8.330   0.272   4.046 -3.1841  1.4048 -1.4744
  179MOL0     H24121   8.166   0.216   3.919  2.2390  2.2584  2.4964
  179MOL0     H24122   8.116   0.136   4.068 -2.2821 -0.1069 -1.8066
  179MOL0     H24123   8.227  -0.084   3.958  2.1844  1.4608  1.6592
  179MOL0     H24124   8.239   0.005   3.818  4.0986 -1.4487  2.9118
  179MOL0     H24125   8.064  -0.092   4.146  0.5501  3.1010 -0.9363
  179MOL0     H24126   7.978  -0.169   4.355  0.7031  2.0791 -2.0243
  179MOL0     H24127   7.815  -0.105   4.385 -0.2241 -0.3625  1.0751
  179MOL0     H24128   7.839  -0.282   4.351 -3.4147  0.6439 -2.2688
  179MOL0     H24129   7.524  -0.445   4.268 -0.2094 -3.2226  0.8621
  179MOL0     H24130   7.398  -0.581   4.413 -1.3779  0.0443 -1.0417
  179MOL0     H24131   7.208  -0.664   4.486  1.6157 -0.9631  2.3691
  179MOL0     H24132   7.122  -0.654   4.635  1.0821  0.2482  1.3035
  179MOL0     H24133   7.040  -0.415   4.533 -0.2957  0.1320 -2.0716
  179MOL0     H24134   7.072  -0.483   4.387 -0.1301  1.5435  0.3102
  179MOL0     H24135   6.839  -0.516   4.492 -1.2371 -0.2881  0.2733
  179MOL0     H24136   6.911  -0.632   4.601  3.9054 -0.5018  0.1266
  179MOL0     H24137   6.912  -0.677   4.299 -0.6004 -2.4698 -0.8315
  179MOL0     H24138   6.948  -0.792   4.435 -1.3766  1.2224  5.4992
  179MOL0     H24139   6.681  -0.655   4.407 -1.1958 -1.4519 -1.6328
  179MOL0     H24140   6.737  -0.775   4.524 -0.2763  1.9210  1.6857
  179MOL0     H24141   6.761  -0.867   4.238 -1.6066 -2.3172 -0.9891
  179MOL0     H24142   6.704  -0.946   4.379  1.6055  0.8635 -0.2470
  179MOL0     H24143   6.492  -0.792   4.341  1.0483 -0.1086  1.1086
  179MOL0     H24144   6.520  -0.941   4.237  2.7030 -2.1385  2.8100
  179MOL0     H24145   6.627  -0.791   4.062 -1.2114  1.9766 -2.3650
  179MOL0     H24146   6.606  -0.651   4.158  0.4822 -0.6832 -1.5259
  179MOL0     H24147   7.296  -0.239   4.656 -1.1577  0.1102 -0.1432
  179MOL0     H24148   7.460  -0.097   4.533 -0.5814  0.6034 -0.0329
  179MOL0     H24149   7.610  -0.072   3.938  0.6239 -0.5998 -1.7615
  179MOL0     H24150   7.814  -0.015   3.809 -2.3763 -0.9939 -0.9319
  179MOL0     H24151   9.842   0.586   4.490 -0.9634  0.3746 -0.4278
  179MOL0     H24152  10.082   0.522   4.466 -0.0856  0.2782 -0.4024
  179MOL0     H24153  10.419   0.683   4.172 -0.0967 -0.9887  2.2847
  179MOL0     H24154  10.678   0.656   4.121  2.2023 -3.3592 -0.4161
  179MOL0     H24155  10.900   0.585   4.104  1.1911 -0.7607 -2.0120
  179MOL0     H24156  10.891   0.475   4.246  1.2831 -1.3694  0.2521
  179MOL0     H24157  11.025   0.307   4.097  0.8221  0.4012 -0.2694
  179MOL0     H24158  11.107   0.435   4.179  1.1861 -3.8851  0.3185
  179MOL0     H24159  11.103   0.574   3.966  0.8783  0.3832 -1.8323
  179MOL0     H24160  10.992   0.454   3.906 -1.0568  3.8488  2.0288
  179MOL0     H24161  11.177   0.282   3.875 -0.8787 -0.5839  1.8893
  179MOL0     H24162  11.283   0.389   3.964 -0.4400 -0.5493  0.6159
  179MOL0     H24163  11.306   0.540   3.575 -2.3792 -0.7608 -2.1437
  179MOL0     H24164  10.633   0.253   4.113 -2.7993 -2.1322 -0.2157
  179MOL0     H24165  10.403   0.261   4.148 -1.6267  0.1853 -1.2927
  180MOL0     O24166   4.000   7.895   3.640  0.7394 -0.1699 -0.3532
  180MOL0     C24167   4.064   7.802   3.594 -0.4637  0.1537  0.0746
  180MOL0     O24168   4.016   7.679   3.557 -0.0655  0.7951 -0.9389
  180MOL0     C24169   3.883   7.639   3.578  0.1935 -0.1960 -0.2399
  180MOL0     C24170   3.834   7.564   3.479  1.1625  0.6355 -0.2377
  180MOL0     C24171   3.694   7.540   3.461 -0.1530  0.1333  0.3404
  180MOL0     C24172   3.607   7.581   3.555  0.0610  0.9967  0.0982
  180MOL0     O24173   3.473   7.556   3.538 -0.8716  0.0235 -1.1488
  180MOL0     C24174   3.380   7.616   3.631  0.1809  0.4608 -0.0113
  180MOL0     C24175   3.236   7.570   3.610 -0.7236  0.1304 -0.2239
  180MOL0     C24176   3.189   7.566   3.468 -0.3031 -0.0678  0.6645
  180MOL0     C24177   3.040   7.588   3.461  0.1327 -0.0789  0.1815
  180MOL0     C24178   2.974   7.618   3.329  0.5004 -0.1663  0.5556
  180MOL0     C24179   2.828   7.661   3.347 -0.4551 -0.3920 -0.5272
  180MOL0     C24180   2.767   7.695   3.212 -0.1425 -0.6979  0.4940
  180MOL0     C24181   2.629   7.750   3.226  0.3909  0.4460 -0.6164
  180MOL0     N24182   2.545   7.648   3.279  0.4309  0.9429  0.4950
  180MOL0     C24183   2.507   7.533   3.206  0.2150 -0.1519 -0.5312
  180MOL0     C24184   2.416   7.469   3.286 -0.1750  0.6893  0.7976
  180MOL0     C24185   2.326   7.349   3.240 -0.2444  0.3289 -0.4309
  180MOL0     C24186   2.198   7.394   3.175 -0.2956 -0.0220  0.0052
  180MOL0     C24187   2.118   7.279   3.111 -0.6325  0.6078  0.4445
  180MOL0     C24188   1.973   7.335   3.112 -0.4210 -0.7036 -0.0225
  180MOL0     O24189   1.965   7.473   3.056  0.0826 -0.1191  0.2898
  180MOL0     C24190   1.849   7.541   3.058 -0.0046 -0.3963 -0.4725
  180MOL0     C24191   1.870   7.675   3.043  0.4959 -0.9089  0.3313
  180MOL0     C24192   1.764   7.766   3.038 -0.9756 -0.0870  0.0560
  180MOL0     C24193   1.822   7.911   3.068 -0.1296  0.1984  0.4708
  180MOL0     C24194   1.629   7.721   3.039  1.0848  0.9665  0.5491
  180MOL0     C24195   1.513   7.817   3.022  0.0724  0.1812 -0.4794
  180MOL0     O24196   1.396   7.755   3.000  0.1977 -0.3512 -0.3160
  180MOL0     C24197   1.283   7.835   2.976  0.5481  0.4362  0.3083
  180MOL0     C24198   1.278   7.912   2.856 -0.8644  0.5254  0.0788
  180MOL0     C24199   1.172   8.001   2.838  0.6052 -0.0728 -0.3490
  180MOL0     C24200   1.070   8.025   2.935 -0.0278  0.0882 -0.3245
  180MOL0     O24201   0.958   8.099   2.898  0.6490 -0.3168  0.2280
  180MOL0     C24202   0.841   8.101   2.978 -0.4111  0.8769 -0.5396
  180MOL0     C24203   0.753   8.219   2.926  0.3236  1.0032 -0.7853
  180MOL0     C24204   0.826   8.350   2.935  0.4405 -0.5942 -0.4772
  180MOL0     C24205   0.735   8.468   2.916 -0.5625  0.0515 -0.0268
  180MOL0     C24206   0.671   8.513   3.038  0.6097  0.2579  0.7209
  180MOL0     C24207   0.602   8.652   3.020 -0.7467  0.5244 -0.3349
  180MOL0     C24208   0.597   8.720   3.155  0.5107 -0.2711  0.4239
  180MOL0     C24209   0.523   8.860   3.144 -0.6094  0.5859 -0.0030
  180MOL0    Cl24210   0.350   8.849   3.094 -0.0274 -0.0764 -0.1881
  180MOL0     C24211   1.078   7.945   3.051 -0.2245 -0.2486 -0.6174
  180MOL0     C24212   1.187   7.862   3.074  0.6348 -0.0296 -0.2533
  180MOL0     O24213   1.529   7.937   3.044 -0.0580  0.6391 -0.6990
  180MOL0     C24214   1.611   7.581   3.061  0.2584  0.2908 -0.1318
  180MOL0     C24215   1.720   7.489   3.076  0.3324  0.0587 -0.1586
  180MOL0     N24216   2.386   7.552   3.394 -0.2893  0.0508  0.0786
  180MOL0     N24217   2.471   7.653   3.392 -0.0922  0.9984  0.3866
  180MOL0     C24218   3.653   7.650   3.669  0.1679  0.3524 -0.5006
  180MOL0     C24219   3.789   7.679   3.670 -0.2011 -0.1934 -0.4621
  180MOL0     C24220   4.209   7.822   3.595  0.1268  0.6106 -0.2115
  180MOL0     C24221   4.293   7.704   3.615  1.0092 -0.4921  0.1602
  180MOL0     C24222   4.430   7.722   3.590 -0.7200  0.9363  0.3209
  180MOL0     C24223   4.483   7.841   3.563 -0.3856 -0.1544  0.2186
  180MOL0     O24224   4.620   7.852   3.546 -0.2874  0.1185  0.9873
  180MOL0     C24225   4.705   7.909   3.648 -0.6678  0.5691 -0.4136
  180MOL0     C24226   4.824   7.971   3.586 -0.9402  1.2366  0.6337
  180MOL0     C24227   4.778   8.091   3.494 -0.4645  0.1031  0.1049
  180MOL0     C24228   4.889   8.188   3.465  0.7674 -0.1497  0.3774
  180MOL0     C24229   4.855   8.291   3.365 -0.2833 -0.9648  0.4337
  180MOL0     C24230   4.829   8.364   3.270 -0.3718 -0.0966  0.5760
  180MOL0     C24231   4.405   7.956   3.563 -0.1636  0.6623  0.3729
  180MOL0     C24232   4.264   7.948   3.563  0.5076  0.0586 -0.2267
  180MOL0     H24233   3.895   7.525   3.398 -1.5666 -2.3301 -1.0494
  180MOL0     H24234   3.656   7.505   3.365  3.4662 -0.3123 -1.0750
  180MOL0     H24235   3.388   7.592   3.737 -1.4421 -2.0709 -0.3746
  180MOL0     H24236   3.394   7.724   3.627 -0.9914  0.6081 -0.5128
  180MOL0     H24237   3.230   7.470   3.652 -0.2891  0.8378  1.5983
  180MOL0     H24238   3.180   7.643   3.669  0.1621  0.3173  0.3929
  180MOL0     H24239   3.242   7.648   3.420  0.8926  0.2952  2.4764
  180MOL0     H24240   3.213   7.474   3.415 -0.5946  0.0954  0.2473
  180MOL0     H24241   2.992   7.496   3.496 -0.8978  0.5302  0.3876
  180MOL0     H24242   3.011   7.667   3.530  2.5747 -0.6500  2.0302
  180MOL0     H24243   3.016   7.709   3.284 -0.8917 -0.9844 -2.6672
  180MOL0     H24244   2.989   7.546   3.248 -1.0289 -0.3463  0.4086
  180MOL0     H24245   2.771   7.578   3.391 -0.8345  0.7266  1.1790
  180MOL0     H24246   2.826   7.749   3.411 -1.8765 -0.6968 -0.1017
  180MOL0     H24247   2.828   7.773   3.165  0.0217 -0.6813  0.7314
  180MOL0     H24248   2.779   7.616   3.138  2.8595  0.9496 -0.9683
  180MOL0     H24249   2.585   7.776   3.129 -1.6890 -1.5555 -0.2991
  180MOL0     H24250   2.633   7.837   3.292  2.6695  0.4921 -0.7363
  180MOL0     H24251   2.537   7.501   3.107  0.0495  2.7705 -1.6154
  180MOL0     H24252   2.386   7.280   3.181 -0.3217 -1.2692  1.2640
  180MOL0     H24253   2.300   7.296   3.332  0.4685 -1.3583 -1.1721
  180MOL0     H24254   2.217   7.458   3.088  1.9786 -1.4541 -0.6263
  180MOL0     H24255   2.142   7.440   3.257  3.7998  0.6032  2.7079
  180MOL0     H24256   2.129   7.185   3.166  0.1709  1.5579  1.9892
  180MOL0     H24257   2.155   7.265   3.009  0.9016  2.7496  0.6386
  180MOL0     H24258   1.928   7.339   3.211 -1.8932 -0.3059 -0.6751
  180MOL0     H24259   1.913   7.272   3.045  3.1657 -1.3195 -2.9871
  180MOL0     H24260   1.972   7.712   3.032  1.2651 -2.2659  2.3891
  180MOL0     H24261   1.851   7.917   3.173 -2.5362  1.1739  1.1518
  180MOL0     H24262   1.909   7.935   3.007  1.4626 -1.0153  2.1477
  180MOL0     H24263   1.754   7.992   3.041 -0.9074 -0.6835 -0.3087
  180MOL0     H24264   1.348   7.884   2.778 -1.0565  1.5895 -0.4975
  180MOL0     H24265   1.169   8.046   2.739 -2.1949 -1.9882 -1.2481
  180MOL0     H24266   0.782   8.011   2.961 -3.5007  2.9084 -1.5259
  180MOL0     H24267   0.867   8.121   3.082  3.5400 -2.1025 -0.7428
  180MOL0     H24268   0.727   8.207   2.821  0.4166  0.6000 -0.7621
  180MOL0     H24269   0.663   8.227   2.987 -2.1649 -0.0610 -4.0387
  180MOL0     H24270   0.910   8.362   2.866  1.3747 -2.9126  0.1441
  180MOL0     H24271   0.880   8.361   3.030 -2.2882  0.7096  1.0562
  180MOL0     H24272   0.783   8.554   2.868 -0.3624 -1.5649 -2.9463
  180MOL0     H24273   0.662   8.439   2.841 -0.4604  0.2472 -0.2026
  180MOL0     H24274   0.742   8.526   3.121 -2.3109 -1.9941  3.8633
  180MOL0     H24275   0.596   8.439   3.066  2.6046 -1.9583  0.4952
  180MOL0     H24276   0.661   8.718   2.955 -0.7707  2.7458  1.7547
  180MOL0     H24277   0.504   8.639   2.973 -2.9445  0.1466  3.8700
  180MOL0     H24278   0.697   8.751   3.184  1.5962  1.5879 -4.3326
  180MOL0     H24279   0.533   8.661   3.221  1.6224 -3.1259 -0.8948
  180MOL0     H24280   0.580   8.924   3.076  4.2335 -0.3199  2.7116
  180MOL0     H24281   0.525   8.910   3.242  4.0205 -2.7420  1.9751
  180MOL0     H24282   1.006   7.950   3.133  1.4648  0.4310  0.8973
  180MOL0     H24283   1.183   7.797   3.161 -0.4826  2.1877  1.4370
  180MOL0     H24284   1.511   7.543   3.078  0.6330  0.3867  2.7751
  180MOL0     H24285   1.701   7.386   3.105  0.2996  0.1665  0.2200
  180MOL0     H24286   3.593   7.696   3.746  1.1732  0.0456  0.5041
  180MOL0     H24287   3.828   7.729   3.759  0.2203 -0.5202 -0.4595
  180MOL0     H24288   4.258   7.606   3.644 -2.8970  0.2155 -1.5512
  180MOL0     H24289   4.496   7.636   3.598 -0.7347  0.8762 -0.1394
  180MOL0     H24290   4.652   7.983   3.710 -1.4013  1.2637 -1.8010
  180MOL0     H24291   4.731   7.830   3.718 -0.7443 -0.2585 -1.3085
  180MOL0     H24292   4.882   7.902   3.524 -0.1777  0.6107  1.9967
  180MOL0     H24293   4.890   8.003   3.667 -0.0685 -0.4283  0.6113
  180MOL0     H24294   4.697   8.145   3.545 -0.2217  1.8309 -1.2506
  180MOL0     H24295   4.742   8.069   3.394  0.9236  1.4892 -0.7424
  180MOL0     H24296   4.970   8.134   3.415 -0.9554 -1.8077 -0.7483
  180MOL0     H24297   4.911   8.236   3.561 -1.8017  0.0778  0.9253
  180MOL0     H24298   4.812   8.429   3.187 -0.1994  1.9356  2.0723
  180MOL0     H24299   4.453   8.052   3.551 -0.9113  1.2453  1.7416
  180MOL0     H24300   4.198   8.033   3.555  2.3678  1.4960 -0.8197
  181MOL0     O24301  10.929   1.595   7.448  0.7406 -0.7102 -0.8267
  181MOL0     C24302  11.017   1.522   7.396  0.4047 -0.6528 -0.0859
  181MOL0     O24303  11.009   1.454   7.280 -0.5363  0.1650  0.1258
  181MOL0     C24304  10.897   1.467   7.213  0.7090 -0.1595  0.4655
  181MOL0     C24305  10.903   1.505   7.077  0.0896  0.5695  0.8858
  181MOL0     C24306  10.787   1.511   6.998 -0.7384 -0.1651  0.0216
  181MOL0     C24307  10.660   1.487   7.054 -0.0447 -0.5222  1.0391
  181MOL0     O24308  10.536   1.478   6.981  0.2139  0.6339  0.2533
  181MOL0     C24309  10.530   1.517   6.840  0.1015  0.2944 -0.8108
  181MOL0     C24310  10.403   1.448   6.785  0.2041  1.0444  0.2659
  181MOL0     C24311  10.366   1.514   6.644  0.0257 -0.2420  0.3363
  181MOL0     C24312  10.240   1.451   6.580 -0.3696  0.9561 -0.8521
  181MOL0     C24313  10.182   1.543   6.469  0.0805 -0.2041  0.6728
  181MOL0     C24314  10.113   1.459   6.350 -0.7519 -0.6358 -0.1341
  181MOL0     C24315   9.992   1.386   6.403  0.0649 -0.4436 -0.5076
  181MOL0     C24316   9.918   1.301   6.316  0.4232  0.1374  0.9131
  181MOL0     N24317   9.878   1.372   6.195  0.0040 -0.3122  0.0476
  181MOL0     C24318   9.770   1.450   6.187  0.1133 -0.2871 -0.0472
  181MOL0     C24319   9.742   1.459   6.050 -0.2515  0.3807 -0.3703
  181MOL0     C24320   9.622   1.514   5.984  0.4160 -0.3203 -0.3333
  181MOL0     C24321   9.523   1.405   5.957  0.0344 -0.6831  0.3189
  181MOL0     C24322   9.377   1.467   5.936 -0.9656  0.1144  0.1433
  181MOL0     C24323   9.287   1.353   5.877 -0.3890 -0.4685  0.5313
  181MOL0     O24324   9.302   1.231   5.952 -0.2833 -0.1520 -0.1021
  181MOL0     C24325   9.223   1.130   5.910  0.5347  0.1154 -0.1929
  181MOL0     C24326   9.155   1.134   5.789  0.4894 -0.2956  0.2622
  181MOL0     C24327   9.059   1.030   5.758 -0.4835  0.8348  0.3365
  181MOL0     C24328   8.975   1.053   5.635  0.1215  0.4547  0.1506
  181MOL0     C24329   9.043   0.924   5.850 -0.5420  0.7586  0.4453
  181MOL0     C24330   8.950   0.804   5.826 -0.6853  0.1389  0.5871
  181MOL0     O24331   8.911   0.728   5.941 -0.5996 -0.0223  0.2539
  181MOL0     C24332   8.824   0.618   5.925  0.2972 -0.8319 -0.5839
  181MOL0     C24333   8.695   0.609   5.980 -0.7553 -0.4903  0.4043
  181MOL0     C24334   8.623   0.486   5.967  0.3793 -0.5129 -0.6582
  181MOL0     C24335   8.679   0.371   5.910 -0.4592  0.4797 -0.5968
  181MOL0     O24336   8.599   0.263   5.902  0.0041 -0.1993 -1.4103
  181MOL0     C24337   8.647   0.131   5.870  0.0963  0.6024 -0.1371
  181MOL0     C24338   8.524   0.045   5.859 -0.5834 -0.2188  1.3068
  181MOL0     C24339   8.479  -0.003   5.997  0.2426  0.0331 -0.4606
  181MOL0     C24340   8.392   0.092   6.075  0.6157 -0.2706 -0.2608
  181MOL0     C24341   8.332   0.025   6.207 -0.3963  0.2057 -0.1421
  181MOL0     C24342   8.237  -0.090   6.171  0.3795 -1.5516 -0.0059
  181MOL0     C24343   8.155  -0.144   6.293  1.1121 -1.1241  0.3635
  181MOL0     C24344   8.075  -0.262   6.248  0.1454  0.4545 -0.3475
  181MOL0    Cl24345   7.964  -0.314   6.382 -0.3606  0.5313  0.0250
  181MOL0     C24346   8.818   0.372   5.882  0.4939  0.3256  0.6546
  181MOL0     C24347   8.876   0.500   5.880 -0.0528 -0.0379  0.5013
  181MOL0     O24348   8.910   0.787   5.711 -0.8611  0.5195  0.1790
  181MOL0     C24349   9.120   0.920   5.969 -0.4083  0.0673  0.3822
  181MOL0     C24350   9.209   1.021   5.996  0.3962  0.2241 -0.3414
  181MOL0     N24351   9.843   1.404   5.979 -0.4425 -0.2986 -0.5668
  181MOL0     N24352   9.929   1.351   6.071 -0.0581 -0.5199  0.0962
  181MOL0     C24353  10.650   1.462   7.188 -0.8288  0.1390 -0.2845
  181MOL0     C24354  10.767   1.446   7.270 -0.0145 -0.1591 -0.6898
  181MOL0     C24355  11.143   1.497   7.475 -0.8161  0.1583  0.6390
  181MOL0     C24356  11.176   1.579   7.588  0.2635 -0.4684  0.0248
  181MOL0     C24357  11.293   1.552   7.664  0.8362 -0.5305  0.6923
  181MOL0     C24358  11.381   1.457   7.616 -0.0139  0.1008  0.4039
  181MOL0     O24359  11.499   1.426   7.676  0.3121  0.0086  0.2928
  181MOL0     C24360  11.559   1.519   7.770 -0.0944 -0.4782 -0.1849
  181MOL0     C24361  11.683   1.445   7.837  0.3633 -0.2528  0.7459
  181MOL0     C24362  11.799   1.429   7.726 -0.2155  0.3773 -0.2195
  181MOL0     C24363  11.893   1.563   7.711  0.4070  0.6017  0.2365
  181MOL0     C24364  12.032   1.523   7.664  0.2299  0.1240 -0.1069
  181MOL0     C24365  12.153   1.498   7.634  0.6040 -0.2717  0.2354
  181MOL0     C24366  11.346   1.381   7.504 -0.3481 -0.0371 -0.0184
  181MOL0     C24367  11.242   1.407   7.427  0.5429 -0.0631 -0.1365
  181MOL0     H24368  10.994   1.538   7.028 -0.0433 -1.5500 -0.8982
  181MOL0     H24369  10.807   1.553   6.900 -0.2384  1.3242  0.7405
  181MOL0     H24370  10.528   1.626   6.829  2.7619  0.4287 -0.5199
  181MOL0     H24371  10.617   1.481   6.785  0.7730 -0.5081  0.7247
  181MOL0     H24372  10.418   1.342   6.763  0.0569  0.8902  0.8787
  181MOL0     H24373  10.331   1.451   6.868 -0.0577 -1.0036  0.1511
  181MOL0     H24374  10.340   1.620   6.648 -1.1812 -0.4353 -1.3568
  181MOL0     H24375  10.455   1.509   6.580 -0.2682  1.0954 -0.2264
  181MOL0     H24376  10.253   1.349   6.544 -0.2839 -0.4868  2.9073
  181MOL0     H24377  10.162   1.449   6.657 -0.2110 -0.5117 -0.7179
  181MOL0     H24378  10.102   1.606   6.509 -0.3157 -0.1308 -0.2182
  181MOL0     H24379  10.264   1.594   6.418 -0.3461  0.3959  0.5781
  181MOL0     H24380  10.086   1.530   6.271 -1.5764 -1.5603 -0.7087
  181MOL0     H24381  10.179   1.387   6.300 -1.0057  0.3061 -1.9297
  181MOL0     H24382  10.006   1.332   6.497  1.5464  1.5836  0.5108
  181MOL0     H24383   9.921   1.459   6.442  1.5180 -0.1502  1.7891
  181MOL0     H24384   9.826   1.262   6.360 -1.4623  2.8233 -0.4229
  181MOL0     H24385   9.986   1.220   6.286  0.8404  0.4280  1.0607
  181MOL0     H24386   9.708   1.490   6.267 -1.7777 -0.2382 -1.4404
  181MOL0     H24387   9.580   1.592   6.048  2.0780  1.2155 -1.0075
  181MOL0     H24388   9.651   1.572   5.896 -0.7942  1.4619  0.3823
  181MOL0     H24389   9.532   1.340   6.044  1.8914  1.3932  1.8056
  181MOL0     H24390   9.552   1.357   5.864 -1.0695  0.9234 -0.9116
  181MOL0     H24391   9.380   1.555   5.871  1.3930 -0.4580 -0.5963
  181MOL0     H24392   9.352   1.498   6.039 -0.1238  1.2441  0.0203
  181MOL0     H24393   9.307   1.340   5.771  0.2763 -2.3870  0.8655
  181MOL0     H24394   9.185   1.393   5.881 -1.7328 -3.6582  3.7328
  181MOL0     H24395   9.153   1.215   5.716 -0.8538 -0.3347  0.2283
  181MOL0     H24396   9.014   0.991   5.554  0.4482 -1.3512  1.6213
  181MOL0     H24397   8.870   1.030   5.654 -0.6953  1.3316 -2.7734
  181MOL0     H24398   8.976   1.161   5.617 -0.7908  1.0636  3.1817
  181MOL0     H24399   8.656   0.701   6.024  2.3983  0.6995  0.9925
  181MOL0     H24400   8.519   0.482   5.998  0.3145  1.4360 -0.5032
  181MOL0     H24401   8.702   0.143   5.776 -0.3907  0.3268 -0.4598
  181MOL0     H24402   8.712   0.103   5.953 -2.0930  1.5451  1.9911
  181MOL0     H24403   8.450   0.095   5.796  0.1719 -0.5147  0.1721
  181MOL0     H24404   8.552  -0.047   5.808 -1.3816 -0.1241  0.6737
  181MOL0     H24405   8.565  -0.020   6.063 -0.3664  2.2552  1.0133
  181MOL0     H24406   8.430  -0.101   5.988 -3.5035  0.8249  5.7122
  181MOL0     H24407   8.453   0.175   6.112 -0.4251 -0.9718  3.4604
  181MOL0     H24408   8.317   0.133   6.008  0.1978 -1.6820 -0.6944
  181MOL0     H24409   8.282   0.105   6.262  1.5885  2.0131 -0.8478
  181MOL0     H24410   8.418  -0.012   6.264  0.6482  1.7578 -0.6400
  181MOL0     H24411   8.166  -0.058   6.094 -0.0784 -1.5267  0.4226
  181MOL0     H24412   8.293  -0.171   6.126  1.2634  1.1977 -4.5354
  181MOL0     H24413   8.081  -0.078   6.338 -0.2534 -1.7493 -0.9027
  181MOL0     H24414   8.228  -0.180   6.367  0.5612 -2.7089  0.1881
  181MOL0     H24415   8.155  -0.335   6.228 -0.0854  0.5075 -1.5339
  181MOL0     H24416   8.024  -0.243   6.153  0.7422 -0.5965 -0.9014
  181MOL0     H24417   8.879   0.289   5.848  1.1682  1.9058 -2.3639
  181MOL0     H24418   8.975   0.511   5.837 -1.1653  0.7430 -2.0536
  181MOL0     H24419   9.098   0.851   6.050  2.3587  1.2081  2.2764
  181MOL0     H24420   9.275   1.010   6.082 -1.4153  1.1666  1.2319
  181MOL0     H24421  10.551   1.439   7.225 -1.8577  0.9299 -2.4042
  181MOL0     H24422  10.749   1.431   7.376  0.3319  3.4867  0.0043
  181MOL0     H24423  11.102   1.652   7.621  0.7116 -0.1969  0.4356
  181MOL0     H24424  11.312   1.617   7.749 -1.5295  1.3008 -0.0935
  181MOL0     H24425  11.590   1.613   7.724 -2.9988  0.6229 -0.1532
  181MOL0     H24426  11.485   1.544   7.848  1.7619 -0.4912  1.6711
  181MOL0     H24427  11.653   1.344   7.867  1.1572 -0.8643 -0.4171
  181MOL0     H24428  11.715   1.501   7.925 -1.2140 -0.2471  1.3499
  181MOL0     H24429  11.749   1.418   7.629  0.7851  1.8743 -0.9397
  181MOL0     H24430  11.852   1.337   7.749  1.5008  1.4169  0.1339
  181MOL0     H24431  11.910   1.606   7.810  3.1281  1.9514 -0.7217
  181MOL0     H24432  11.837   1.635   7.650  0.1807 -0.6192 -1.0370
  181MOL0     H24433  12.253   1.498   7.595 -0.2751  2.6195 -2.4217
  181MOL0     H24434  11.418   1.304   7.477 -1.9322 -1.6447  0.1905
  181MOL0     H24435  11.218   1.346   7.341 -0.7767 -2.9632  2.1164
  182MOL0     O24436   7.239   5.268   2.370  0.5026  1.0106 -0.1508
  182MOL0     C24437   7.281   5.189   2.285  0.6273  0.3947 -0.0250
  182MOL0     O24438   7.286   5.220   2.147  0.4289 -0.1907  0.3963
  182MOL0     C24439   7.269   5.348   2.096  0.7576 -0.5777  0.0120
  182MOL0     C24440   7.380   5.410   2.033  1.2440 -0.1396  0.1073
  182MOL0     C24441   7.370   5.537   1.978 -0.4536  0.0061 -0.1651
  182MOL0     C24442   7.251   5.605   1.983  0.3384  0.3509  0.0702
  182MOL0     O24443   7.209   5.722   1.921 -0.3264 -0.4998 -0.0732
  182MOL0     C24444   7.322   5.802   1.872  0.3389  0.3385 -0.0524
  182MOL0     C24445   7.265   5.949   1.859  0.1791  0.0680  0.3504
  182MOL0     C24446   7.150   5.956   1.758  0.5279  0.6821 -0.4317
  182MOL0     C24447   7.134   6.108   1.735  0.7401 -0.6356 -0.0372
  182MOL0     C24448   7.033   6.136   1.624 -1.2012  0.7382  0.7097
  182MOL0     C24449   7.018   6.289   1.599 -1.4586 -0.7301  0.3431
  182MOL0     C24450   6.910   6.310   1.494 -1.0085  0.3072  0.1489
  182MOL0     C24451   6.957   6.274   1.354  0.4741  0.0702 -0.3653
  182MOL0     N24452   6.869   6.326   1.251  0.0005 -0.0465 -0.1278
  182MOL0     C24453   6.878   6.431   1.162  0.1956  0.4382  0.6034
  182MOL0     C24454   6.762   6.437   1.090  0.0778 -0.0091 -1.2710
  182MOL0     C24455   6.739   6.542   0.985 -0.3199  1.3335  1.1926
  182MOL0     C24456   6.739   6.468   0.847 -0.8869  0.4238 -0.0713
  182MOL0     C24457   6.884   6.423   0.806  0.2673 -0.8438 -0.8136
  182MOL0     C24458   6.896   6.325   0.687  0.6087 -0.0637  0.9644
  182MOL0     O24459   6.851   6.385   0.569 -0.0472 -0.2176  0.3791
  182MOL0     C24460   6.873   6.327   0.449  0.8895 -0.4114 -0.9566
  182MOL0     C24461   6.850   6.395   0.329  0.3700  0.2211  0.9246
  182MOL0     C24462   6.854   6.337   0.204 -0.2561  0.8559 -0.1731
  182MOL0     C24463   6.833   6.428   0.089  0.0743 -0.5819 -0.7139
  182MOL0     C24464   6.892   6.200   0.200 -0.2500  0.6753  0.2972
  182MOL0     C24465   6.911   6.121   0.077  0.3906 -0.0476 -0.0205
  182MOL0     O24466   6.998   6.018   0.067 -0.3583 -0.3240 -0.2324
  182MOL0     C24467   7.010   5.947  -0.057  0.0023 -0.2090  0.2606
  182MOL0     C24468   7.139   5.941  -0.107  0.0103 -0.1549 -0.0669
  182MOL0     C24469   7.163   5.853  -0.217  0.2820  0.4667  0.5627
  182MOL0     C24470   7.054   5.794  -0.290  0.2378  0.3441  0.2158
  182MOL0     O24471   7.060   5.709  -0.395 -0.4620  0.0592  0.2110
  182MOL0     C24472   7.141   5.745  -0.510 -0.3117  0.0109  0.0878
  182MOL0     C24473   7.092   5.672  -0.642 -0.0898  1.3990 -0.9618
  182MOL0     C24474   6.944   5.652  -0.675  0.5873  0.7993 -0.5418
  182MOL0     C24475   6.870   5.791  -0.674  0.3115  0.3928 -1.0671
  182MOL0     C24476   6.718   5.784  -0.697  0.0829 -0.0921 -0.3352
  182MOL0     C24477   6.643   5.712  -0.580  1.1157  0.4017  0.3975
  182MOL0     C24478   6.497   5.752  -0.560 -1.0911  0.7245  0.5024
  182MOL0     C24479   6.414   5.752  -0.689 -0.9075  1.2053  0.1631
  182MOL0    Cl24480   6.360   5.581  -0.702  0.4981 -0.0594 -0.2707
  182MOL0     C24481   6.926   5.793  -0.231  0.0743 -1.0142  1.0653
  182MOL0     C24482   6.908   5.874  -0.121 -0.7236 -0.0765 -0.0457
  182MOL0     O24483   6.824   6.148  -0.007 -0.2838 -0.0735  0.0207
  182MOL0     C24484   6.938   6.130   0.317 -0.0796 -0.4317  0.4816
  182MOL0     C24485   6.921   6.189   0.439 -0.0051 -0.1784 -0.1833
  182MOL0     N24486   6.680   6.333   1.128 -0.0903 -0.1266  0.3712
  182MOL0     N24487   6.750   6.261   1.214 -0.0161  0.1385 -0.0224
  182MOL0     C24488   7.138   5.540   2.040 -0.6971 -0.6622 -0.2574
  182MOL0     C24489   7.148   5.416   2.098 -0.2531  0.1954  0.9105
  182MOL0     C24490   7.312   5.051   2.332  1.6090 -0.0841 -0.8220
  182MOL0     C24491   7.280   5.014   2.464 -0.0037 -0.8082  0.0786
  182MOL0     C24492   7.294   4.884   2.511  0.8658  0.0748 -0.3145
  182MOL0     C24493   7.353   4.785   2.425 -0.3956  0.3881  0.0763
  182MOL0     O24494   7.377   4.660   2.489  0.3397 -0.7642  0.8578
  182MOL0     C24495   7.432   4.563   2.407 -0.2065 -0.4150 -0.8265
  182MOL0     C24496   7.441   4.435   2.488 -0.1421  0.1645  0.3192
  182MOL0     C24497   7.296   4.386   2.523  0.0232  0.5237 -0.7469
  182MOL0     C24498   7.270   4.231   2.525  0.3535  0.4555  0.7168
  182MOL0     C24499   7.357   4.165   2.620 -0.4175 -0.5233  0.0820
  182MOL0     C24500   7.436   4.102   2.677  0.4630  0.6563  0.0132
  182MOL0     C24501   7.388   4.818   2.289  0.0486 -0.1384  0.0478
  182MOL0     C24502   7.365   4.948   2.249 -0.4538 -0.2757  0.2778
  182MOL0     H24503   7.473   5.355   2.026  1.7401  0.5288  1.1345
  182MOL0     H24504   7.458   5.585   1.938 -0.0014 -1.1799 -0.6424
  182MOL0     H24505   7.408   5.801   1.939 -0.9351 -0.6362  1.6472
  182MOL0     H24506   7.365   5.758   1.782  0.4198 -0.8023  0.5282
  182MOL0     H24507   7.232   5.984   1.957  2.2035 -1.2678  1.5840
  182MOL0     H24508   7.351   6.005   1.820  2.7132 -4.7646 -1.8026
  182MOL0     H24509   7.177   5.917   1.659  0.0176  1.6594 -0.9821
  182MOL0     H24510   7.055   5.914   1.791 -1.0053  0.5702 -4.3449
  182MOL0     H24511   7.087   6.152   1.824  1.3288  1.1530 -0.5684
  182MOL0     H24512   7.227   6.161   1.713  0.0135  0.6902 -0.0436
  182MOL0     H24513   7.084   6.080   1.546 -0.9072  0.0957  1.3518
  182MOL0     H24514   6.936   6.089   1.640 -0.7018 -1.3714 -1.7771
  182MOL0     H24515   6.986   6.349   1.685 -0.1227 -2.2371  1.9731
  182MOL0     H24516   7.112   6.334   1.566 -1.9488 -0.0497 -0.1386
  182MOL0     H24517   6.822   6.252   1.524 -2.5232  2.4043 -0.0294
  182MOL0     H24518   6.872   6.413   1.490 -0.6298  0.4155 -2.4019
  182MOL0     H24519   6.966   6.166   1.335  0.1358 -0.0827  0.3079
  182MOL0     H24520   7.057   6.317   1.341  0.8627 -0.9867 -1.0223
  182MOL0     H24521   6.959   6.502   1.147  0.4389 -0.0944 -0.7976
  182MOL0     H24522   6.637   6.580   0.981 -1.5884 -1.7057  1.8873
  182MOL0     H24523   6.819   6.617   0.987  0.5273  0.4463  2.3744
  182MOL0     H24524   6.699   6.542   0.777  0.3668  1.8305  0.6246
  182MOL0     H24525   6.676   6.379   0.848 -2.3318  1.3982 -0.7028
  182MOL0     H24526   6.929   6.364   0.886  1.5365  1.5859  0.3729
  182MOL0     H24527   6.955   6.505   0.794 -0.1960 -0.4959 -1.1899
  182MOL0     H24528   6.849   6.230   0.712 -1.7288  1.2630  1.9938
  182MOL0     H24529   7.003   6.307   0.682  0.7100 -0.1533  2.8546
  182MOL0     H24530   6.821   6.497   0.352  0.3985  0.9634 -1.9857
  182MOL0     H24531   6.874   6.389  -0.005  1.2615  1.0411 -0.9288
  182MOL0     H24532   6.726   6.447   0.076 -0.1201 -0.5774  0.7509
  182MOL0     H24533   6.880   6.527   0.100 -0.2376 -0.3948 -1.0458
  182MOL0     H24534   7.224   5.968  -0.047  1.0144 -0.9612 -1.0648
  182MOL0     H24535   7.267   5.841  -0.246  0.1236 -0.1160  0.2214
  182MOL0     H24536   7.117   5.849  -0.533 -1.9066 -0.0303  1.3442
  182MOL0     H24537   7.249   5.735  -0.494 -0.0399  0.6687 -1.2593
  182MOL0     H24538   7.144   5.728  -0.721  2.6138  0.0481 -0.2935
  182MOL0     H24539   7.136   5.572  -0.639  1.6360  2.1589  1.0098
  182MOL0     H24540   6.906   5.577  -0.606  1.6522 -0.1916 -0.9912
  182MOL0     H24541   6.931   5.609  -0.775 -1.9899  4.5745 -2.0765
  182MOL0     H24542   6.881   5.843  -0.579  0.1626 -0.3137 -0.6523
  182MOL0     H24543   6.921   5.843  -0.756 -1.0840  1.0749 -1.5261
  182MOL0     H24544   6.695   5.732  -0.790  1.6289 -2.0410  0.2983
  182MOL0     H24545   6.690   5.889  -0.701  0.8584  0.1290 -0.1912
  182MOL0     H24546   6.647   5.604  -0.598 -0.9628  0.0765  1.5250
  182MOL0     H24547   6.709   5.716  -0.493  2.5477  0.2973 -0.6395
  182MOL0     H24548   6.485   5.853  -0.518 -1.2639  0.2193  1.7111
  182MOL0     H24549   6.457   5.674  -0.495  0.2081 -0.9571 -0.6465
  182MOL0     H24550   6.479   5.795  -0.765 -1.0619  1.4418  0.1652
  182MOL0     H24551   6.322   5.811  -0.693 -1.0756  0.8897 -1.0696
  182MOL0     H24552   6.844   5.742  -0.280  1.7750  1.1684 -4.9440
  182MOL0     H24553   6.811   5.892  -0.075  0.5255 -0.1587  2.8264
  182MOL0     H24554   6.987   6.032   0.315  0.6495 -0.0862  0.8883
  182MOL0     H24555   6.945   6.129   0.525  1.5406  0.8516  0.1464
  182MOL0     H24556   7.039   5.584   2.033 -0.1749  0.6282  0.1299
  182MOL0     H24557   7.066   5.369   2.150  0.4071 -0.2104  1.6050
  182MOL0     H24558   7.244   5.093   2.529 -1.2784 -1.6595  0.4327
  182MOL0     H24559   7.268   4.865   2.614  4.0256  2.5519  1.1174
  182MOL0     H24560   7.375   4.544   2.315 -1.2941 -1.0317 -0.0448
  182MOL0     H24561   7.534   4.595   2.382  0.9666 -1.0943  2.5759
  182MOL0     H24562   7.498   4.470   2.575  0.2129 -0.0456  0.1726
  182MOL0     H24563   7.490   4.354   2.434 -1.0820 -0.6820  0.7070
  182MOL0     H24564   7.227   4.434   2.453 -1.2961  0.9963  0.8268
  182MOL0     H24565   7.264   4.418   2.623  0.2425  0.4814 -0.6642
  182MOL0     H24566   7.295   4.182   2.431  0.1905 -0.6687  1.2510
  182MOL0     H24567   7.163   4.208   2.528  0.1620  0.2791 -3.0199
  182MOL0     H24568   7.504   4.047   2.739 -1.2272 -3.8295 -1.7232
  182MOL0     H24569   7.430   4.736   2.232  0.4381 -0.4594  0.7862
  182MOL0     H24570   7.393   4.975   2.148 -2.1764 -3.1278 -1.0874
  183MOL0     O24571  10.109   1.763   4.635 -0.1236 -0.5362 -0.4886
  183MOL0     C24572  10.168   1.739   4.743  0.9732  0.5036 -0.4033
  183MOL0     O24573  10.104   1.752   4.865 -0.5174 -0.1549  0.6736
  183MOL0     C24574   9.985   1.826   4.875 -0.4898 -0.7816 -0.9409
  183MOL0     C24575   9.897   1.780   4.983 -1.0281 -0.2607  0.9481
  183MOL0     C24576   9.772   1.837   4.994 -0.2739 -0.3172  0.5431
  183MOL0     C24577   9.727   1.941   4.913 -0.4710  1.0416  0.2175
  183MOL0     O24578   9.609   2.009   4.940 -0.1826 -0.4902 -0.3815
  183MOL0     C24579   9.502   1.954   5.017  0.0984 -0.0637 -0.2980
  183MOL0     C24580   9.370   2.010   4.959 -0.6772  0.4061  0.0504
  183MOL0     C24581   9.251   1.946   5.040  0.2377  0.2216 -0.3184
  183MOL0     C24582   9.206   1.813   4.987 -0.1620 -0.4224 -0.4473
  183MOL0     C24583   9.071   1.771   5.041  0.5178  0.4129 -0.4453
  183MOL0     C24584   9.031   1.630   4.981  0.7893  0.6496 -0.4462
  183MOL0     C24585   8.894   1.571   5.041  0.8079 -0.2341  0.1080
  183MOL0     C24586   8.786   1.675   5.058 -0.6895  0.2516 -0.2133
  183MOL0     N24587   8.653   1.620   5.086  0.4285 -0.4640 -0.1505
  183MOL0     C24588   8.622   1.503   5.145 -0.4969 -0.2107  0.6437
  183MOL0     C24589   8.490   1.494   5.135  0.5773  0.7207  0.5192
  183MOL0     C24590   8.406   1.380   5.180  0.7371  0.1207  0.1705
  183MOL0     C24591   8.362   1.284   5.070  0.0244  0.0933  0.4004
  183MOL0     C24592   8.266   1.189   5.132  0.5231  0.6608  0.2587
  183MOL0     C24593   8.237   1.069   5.034  0.3468  0.2184  0.3034
  183MOL0     O24594   8.100   1.028   5.063  0.1414 -0.2295  0.0416
  183MOL0     C24595   8.072   0.932   5.157 -0.7587  0.2748  0.6145
  183MOL0     C24596   8.171   0.872   5.232 -0.4553 -0.4777 -0.0442
  183MOL0     C24597   8.145   0.771   5.323  1.0782 -0.2541 -0.3621
  183MOL0     C24598   8.268   0.724   5.411 -0.3169  0.0016  0.5391
  183MOL0     C24599   8.014   0.727   5.340 -0.2427 -1.1779 -0.1626
  183MOL0     C24600   7.975   0.612   5.421 -0.3991  0.4667 -1.0648
  183MOL0     O24601   7.878   0.627   5.511 -0.4687  0.5239 -0.0424
  183MOL0     C24602   7.812   0.518   5.575 -0.0366  0.1187 -0.5163
  183MOL0     C24603   7.835   0.377   5.560  0.1233  0.3108 -0.5022
  183MOL0     C24604   7.768   0.280   5.639 -0.1845 -0.0224  0.0365
  183MOL0     C24605   7.660   0.323   5.722 -0.6263  0.2827  1.2407
  183MOL0     O24606   7.586   0.237   5.807  0.7377 -0.1035  0.3860
  183MOL0     C24607   7.563   0.102   5.767  0.8388 -0.8093 -0.7427
  183MOL0     C24608   7.481   0.043   5.880 -0.3508  1.5869  0.0065
  183MOL0     C24609   7.333   0.090   5.869  0.0309  0.1152 -0.0783
  183MOL0     C24610   7.258   0.018   5.980  0.5415  0.5151 -1.0870
  183MOL0     C24611   7.284   0.084   6.118  0.2283  1.0045 -0.1787
  183MOL0     C24612   7.193   0.211   6.123 -0.0240  0.5286  0.1425
  183MOL0     C24613   7.209   0.268   6.259 -0.4712 -0.5241  0.3109
  183MOL0     C24614   7.081   0.319   6.319  0.2188  0.2875 -1.0557
  183MOL0    Cl24615   6.977   0.191   6.385 -0.0086  0.0585  0.5195
  183MOL0     C24616   7.640   0.459   5.738 -0.3967 -0.0777  0.4189
  183MOL0     C24617   7.717   0.559   5.670  0.2042  0.0021 -1.2359
  183MOL0     O24618   8.046   0.511   5.415 -0.3421  0.0231 -0.2972
  183MOL0     C24619   7.907   0.790   5.273  0.3990 -0.4310 -0.2147
  183MOL0     C24620   7.940   0.890   5.183 -0.7524 -0.3425  0.0360
  183MOL0     N24621   8.437   1.610   5.077  0.7447 -0.0321 -0.2349
  183MOL0     N24622   8.539   1.680   5.050  0.0657  0.0172 -0.9766
  183MOL0     C24623   9.812   1.983   4.816 -0.0596  0.4130 -0.1829
  183MOL0     C24624   9.944   1.944   4.800 -0.6951 -0.2136 -0.7657
  183MOL0     C24625  10.315   1.702   4.736  0.5361 -0.0415  0.7479
  183MOL0     C24626  10.377   1.684   4.611 -0.8567  0.7368  0.3812
  183MOL0     C24627  10.506   1.620   4.605  0.4474 -0.4008 -0.3082
  183MOL0     C24628  10.564   1.584   4.723 -0.4767 -0.0597 -1.2440
  183MOL0     O24629  10.693   1.529   4.730  0.8596  0.2205  0.6215
  183MOL0     C24630  10.735   1.448   4.623  0.1991  0.1512 -0.5669
  183MOL0     C24631  10.873   1.394   4.670  0.5718 -0.6517 -0.1554
  183MOL0     C24632  10.923   1.274   4.596  0.9072 -0.2812 -0.1821
  183MOL0     C24633  11.070   1.244   4.627  0.5369 -0.1035  0.4463
  183MOL0     C24634  11.132   1.135   4.549  0.6206 -0.0056  0.2026
  183MOL0     C24635  11.173   1.054   4.469 -0.0017 -0.0732 -0.0956
  183MOL0     C24636  10.499   1.599   4.846  0.4021  0.1320 -1.1830
  183MOL0     C24637  10.379   1.667   4.856 -0.5069  0.1420 -0.0971
  183MOL0     H24638   9.924   1.698   5.048  3.0996 -0.6475 -0.9028
  183MOL0     H24639   9.700   1.800   5.067 -2.2888  3.0630  0.4790
  183MOL0     H24640   9.503   1.845   5.017 -0.1962 -0.1223  2.1077
  183MOL0     H24641   9.513   1.982   5.122  0.7826  0.5498 -0.5211
  183MOL0     H24642   9.380   2.119   4.967 -2.9403  0.8562 -2.1886
  183MOL0     H24643   9.354   1.997   4.851 -0.0446 -1.3305  0.1349
  183MOL0     H24644   9.282   1.949   5.145  6.0441 -0.8908 -1.6862
  183MOL0     H24645   9.169   2.017   5.021 -0.7979 -0.3853  1.5771
  183MOL0     H24646   9.193   1.819   4.879 -0.3340  1.2201 -0.3593
  183MOL0     H24647   9.282   1.741   5.018  1.9776  1.6186 -0.7249
  183MOL0     H24648   9.074   1.771   5.150  0.9365  0.6957 -0.4564
  183MOL0     H24649   8.999   1.844   5.005  0.9683 -0.1998 -2.8180
  183MOL0     H24650   9.030   1.636   4.872  3.7016 -3.7063 -0.9366
  183MOL0     H24651   9.109   1.564   5.020 -1.2035 -0.0550  2.7508
  183MOL0     H24652   8.861   1.514   4.953 -0.7150  2.4418 -1.1864
  183MOL0     H24653   8.898   1.511   5.133 -2.9796 -0.8627  0.0341
  183MOL0     H24654   8.773   1.738   4.969 -0.2373 -1.7641 -1.7757
  183MOL0     H24655   8.814   1.738   5.143 -3.2674  0.9856  0.1792
  183MOL0     H24656   8.692   1.428   5.180 -0.6876  0.2030  1.9656
  183MOL0     H24657   8.461   1.318   5.251  0.4130 -0.8291 -0.3960
  183MOL0     H24658   8.318   1.425   5.227  1.4547  0.8701  0.8439
  183MOL0     H24659   8.439   1.222   5.022  0.1535  1.1557 -0.8065
  183MOL0     H24660   8.318   1.330   4.981  1.7140 -2.7147 -2.1033
  183MOL0     H24661   8.173   1.231   5.170 -0.7297 -1.8863  0.2762
  183MOL0     H24662   8.307   1.132   5.216 -2.1388  0.0972  1.2977
  183MOL0     H24663   8.315   0.994   5.041  1.2281  1.2013  1.4288
  183MOL0     H24664   8.232   1.110   4.932 -1.8951 -1.1820 -0.2349
  183MOL0     H24665   8.274   0.907   5.229 -0.8316  0.5973 -1.0425
  183MOL0     H24666   8.362   0.762   5.371 -1.5127  1.9939 -0.5617
  183MOL0     H24667   8.258   0.737   5.519 -2.2772  0.0905  0.3821
  183MOL0     H24668   8.274   0.616   5.394  0.7598  0.4394 -2.4505
  183MOL0     H24669   7.906   0.329   5.494 -0.9927 -1.0835 -0.7093
  183MOL0     H24670   7.807   0.180   5.628  0.7496  0.3782 -0.3667
  183MOL0     H24671   7.505   0.108   5.674 -1.2337 -1.2969  0.4608
  183MOL0     H24672   7.655   0.045   5.755  1.0158 -0.3544 -1.6416
  183MOL0     H24673   7.484  -0.065   5.868  1.0225  1.7019 -0.9148
  183MOL0     H24674   7.531   0.068   5.975  1.3190 -3.3036  0.6776
  183MOL0     H24675   7.288   0.068   5.772  0.9921  0.2159 -0.5555
  183MOL0     H24676   7.331   0.198   5.886  1.3108  0.2645 -0.6910
  183MOL0     H24677   7.152   0.001   5.957 -0.3495  1.4148  1.8126
  183MOL0     H24678   7.310  -0.078   5.989  0.7350  0.7039 -0.0078
  183MOL0     H24679   7.387   0.114   6.138  0.3049  1.2637 -0.9295
  183MOL0     H24680   7.265   0.008   6.195  1.1980 -0.3464 -1.2212
  183MOL0     H24681   7.212   0.275   6.037 -1.2970 -1.5195 -1.7831
  183MOL0     H24682   7.091   0.176   6.106 -0.2350  1.2668 -0.1431
  183MOL0     H24683   7.278   0.353   6.256 -0.4368 -0.5766 -0.4052
  183MOL0     H24684   7.258   0.190   6.318 -1.1828 -1.1851  0.0334
  183MOL0     H24685   7.034   0.376   6.238  1.7317  1.6877 -1.0155
  183MOL0     H24686   7.100   0.381   6.408  1.2238 -1.6555  0.1564
  183MOL0     H24687   7.583   0.511   5.814  4.3215  1.2143  3.4856
  183MOL0     H24688   7.694   0.665   5.678 -0.6014 -0.1884 -0.9505
  183MOL0     H24689   7.807   0.749   5.273 -0.1855  0.9093  1.0525
  183MOL0     H24690   7.857   0.933   5.128 -1.9654  1.0602  2.7900
  183MOL0     H24691   9.769   2.061   4.755 -0.6421 -0.4401 -0.8763
  183MOL0     H24692  10.005   2.001   4.731  0.7682  0.5716  1.0878
  183MOL0     H24693  10.325   1.707   4.518  1.3118 -0.6759 -1.2728
  183MOL0     H24694  10.545   1.605   4.505 -0.7187 -1.9352 -0.5568
  183MOL0     H24695  10.673   1.360   4.603  0.0202  0.2143 -0.3025
  183MOL0     H24696  10.747   1.505   4.530  3.6162  3.0774  1.4338
  183MOL0     H24697  10.870   1.370   4.776  0.2062 -0.0222 -0.0183
  183MOL0     H24698  10.949   1.472   4.662 -0.0314  0.2437  2.2611
  183MOL0     H24699  10.914   1.296   4.490  0.3354  1.2061  0.1426
  183MOL0     H24700  10.851   1.193   4.613 -1.0254  0.9482 -2.0051
  183MOL0     H24701  11.071   1.238   4.736 -2.1455  3.9361  0.8634
  183MOL0     H24702  11.126   1.336   4.607  0.4856 -0.0223  0.6696
  183MOL0     H24703  11.206   0.976   4.404 -0.4336  0.0301 -0.4527
  183MOL0     H24704  10.548   1.567   4.938  2.7887  1.1858 -2.0058
  183MOL0     H24705  10.336   1.685   4.954  0.8988  2.3754  0.1597
  184MOL0     O24706   6.249   0.948   7.719 -0.4480 -0.2288 -0.4739
  184MOL0     C24707   6.313   0.914   7.825 -0.0473 -0.3802 -0.0500
  184MOL0     O24708   6.252   0.913   7.948  0.0048 -0.1702  0.4423
  184MOL0     C24709   6.124   0.959   7.940  0.1574 -0.2448 -0.8369
  184MOL0     C24710   6.011   0.867   7.920 -0.1746 -0.8683 -0.0883
  184MOL0     C24711   5.886   0.919   7.915 -0.2807 -0.7881 -0.5759
  184MOL0     C24712   5.869   1.061   7.912 -0.7477 -0.0767  0.3194
  184MOL0     O24713   5.745   1.105   7.881 -0.1939 -0.4568  0.1608
  184MOL0     C24714   5.707   1.234   7.941 -0.7406 -0.1124  0.1938
  184MOL0     C24715   5.560   1.239   7.908 -0.4686 -0.5335  0.4476
  184MOL0     C24716   5.482   1.124   7.970 -0.3141 -1.1824  0.4136
  184MOL0     C24717   5.335   1.169   7.993  0.3228 -0.6210  0.3226
  184MOL0     C24718   5.254   1.061   8.071  0.2102 -0.4400  0.3507
  184MOL0     C24719   5.108   1.110   8.065  0.0957 -0.2525 -0.7640
  184MOL0     C24720   5.023   1.007   8.142  0.3370  0.1624 -0.3984
  184MOL0     C24721   4.873   1.025   8.115 -0.1420  0.2145 -0.2374
  184MOL0     N24722   4.791   0.915   8.174  0.3727  0.0703  0.3103
  184MOL0     C24723   4.743   0.806   8.108 -0.3656  0.5010 -0.1793
  184MOL0     C24724   4.653   0.748   8.182  0.5797 -0.2932  0.2815
  184MOL0     C24725   4.589   0.624   8.149 -0.3904  0.1665  0.0458
  184MOL0     C24726   4.503   0.640   8.025  0.1044  0.0098 -0.7581
  184MOL0     C24727   4.369   0.704   8.052 -0.7392 -0.7782 -0.5948
  184MOL0     C24728   4.273   0.709   7.931  0.6581 -1.1813 -1.2642
  184MOL0     O24729   4.193   0.588   7.917 -0.0262 -1.2773  0.2741
  184MOL0     C24730   4.067   0.611   7.961  0.4992 -0.2004  0.8394
  184MOL0     C24731   3.963   0.568   7.881  0.1220  0.6373 -0.0375
  184MOL0     C24732   3.828   0.588   7.920  0.0690  0.7915  0.4765
  184MOL0     C24733   3.729   0.545   7.812 -0.0420 -0.0357 -1.1247
  184MOL0     C24734   3.795   0.630   8.051  0.0436 -0.1334 -0.1656
  184MOL0     C24735   3.662   0.655   8.092  0.0744  0.9680 -0.3445
  184MOL0     O24736   3.564   0.582   8.037  0.3800  0.4045 -0.1967
  184MOL0     C24737   3.440   0.631   8.052 -0.5925  0.2570  0.0319
  184MOL0     C24738   3.369   0.638   8.168  0.2144 -0.3647 -0.1589
  184MOL0     C24739   3.236   0.675   8.166  0.7584 -0.0216 -0.0354
  184MOL0     C24740   3.184   0.715   8.046 -0.4580 -0.1842 -0.0496
  184MOL0     O24741   3.064   0.780   8.063  0.4728  0.1025  0.2309
  184MOL0     C24742   2.962   0.695   8.127  0.1666 -1.2751  0.0618
  184MOL0     C24743   2.828   0.754   8.072  0.1585  0.2795  0.7382
  184MOL0     C24744   2.714   0.667   8.127 -0.5546  0.4459 -0.2722
  184MOL0     C24745   2.589   0.718   8.058 -0.7020 -0.8854 -0.4976
  184MOL0     C24746   2.516   0.818   8.153  0.9588 -0.0191  0.4513
  184MOL0     C24747   2.369   0.835   8.094  0.7148 -0.5364 -0.1163
  184MOL0     C24748   2.307   0.969   8.150 -0.5944 -0.0310  0.8194
  184MOL0     C24749   2.218   0.944   8.265 -0.8554  0.7482 -0.0728
  184MOL0    Cl24750   2.312   0.876   8.403 -0.0854  0.2136 -0.1468
  184MOL0     C24751   3.251   0.708   7.932  0.4360  0.6414  0.0359
  184MOL0     C24752   3.384   0.663   7.932  0.5463  0.2555 -0.6232
  184MOL0     O24753   3.648   0.740   8.180  0.2077  0.5625 -0.1639
  184MOL0     C24754   3.908   0.647   8.133 -0.3849  0.1351  0.5644
  184MOL0     C24755   4.036   0.640   8.087 -0.4779 -0.8511  0.1951
  184MOL0     N24756   4.637   0.821   8.297  0.6449  0.8785  0.1028
  184MOL0     N24757   4.728   0.917   8.294  0.0107 -0.1043  0.3113
  184MOL0     C24758   5.977   1.145   7.928 -0.1342 -1.0540  0.8447
  184MOL0     C24759   6.104   1.100   7.943 -0.4794  0.1774 -0.3167
  184MOL0     C24760   6.458   0.878   7.814  0.2496  0.6610 -0.0577
  184MOL0     C24761   6.525   0.813   7.917 -0.4037 -0.7225  0.1179
  184MOL0     C24762   6.656   0.767   7.897 -0.2171 -0.0182 -0.2648
  184MOL0     C24763   6.721   0.784   7.774 -0.2883 -0.2555  0.0350
  184MOL0     O24764   6.840   0.720   7.739 -0.6591 -0.5004 -0.4711
  184MOL0     C24765   6.958   0.805   7.743  0.6277  0.2344 -0.3154
  184MOL0     C24766   7.002   0.825   7.599 -0.2902 -0.1228 -0.5042
  184MOL0     C24767   7.107   0.932   7.596 -0.9172 -0.0849 -0.0641
  184MOL0     C24768   7.194   0.943   7.471  0.4360  0.3130  0.5938
  184MOL0     C24769   7.271   1.072   7.451  0.9179  0.2464 -0.5215
  184MOL0     C24770   7.327   1.178   7.445  0.0899 -0.1183  0.1473
  184MOL0     C24771   6.651   0.848   7.673 -0.3136  0.7600  0.1443
  184MOL0     C24772   6.521   0.892   7.690  1.0011 -0.1731 -0.7768
  184MOL0     H24773   6.028   0.759   7.912 -0.0738 -1.1668  3.0437
  184MOL0     H24774   5.800   0.856   7.896 -2.0374  1.6197 -1.0012
  184MOL0     H24775   5.717   1.232   8.050  1.5308 -2.6782  0.0550
  184MOL0     H24776   5.753   1.316   7.886 -0.4565 -1.7858 -2.2599
  184MOL0     H24777   5.531   1.334   7.953  2.1552  1.7291 -2.1815
  184MOL0     H24778   5.538   1.240   7.800  0.8589  0.6846  0.1628
  184MOL0     H24779   5.476   1.038   7.904  2.6170  0.7071 -2.6263
  184MOL0     H24780   5.537   1.098   8.061  3.4972  0.4170 -1.1961
  184MOL0     H24781   5.328   1.263   8.049  0.1280  2.1696 -3.8831
  184MOL0     H24782   5.291   1.185   7.894  2.5907 -1.7081 -0.9400
  184MOL0     H24783   5.285   0.967   8.025  2.3241 -0.2479  1.2628
  184MOL0     H24784   5.284   1.065   8.177 -0.4001 -0.3427  0.5246
  184MOL0     H24785   5.090   1.211   8.102 -2.5583 -1.6353  2.1268
  184MOL0     H24786   5.076   1.111   7.960 -3.3341  0.3367  0.1773
  184MOL0     H24787   5.055   0.907   8.112 -1.2074 -0.4000 -0.2772
  184MOL0     H24788   5.031   1.008   8.251 -2.8143 -0.0515 -0.0670
  184MOL0     H24789   4.863   1.012   8.006 -0.3889 -1.4878 -0.0389
  184MOL0     H24790   4.843   1.127   8.141 -0.5959  0.6997 -2.4334
  184MOL0     H24791   4.771   0.769   8.009 -1.0931 -1.9398  0.4588
  184MOL0     H24792   4.674   0.563   8.117 -0.8039  1.1244 -3.3508
  184MOL0     H24793   4.546   0.584   8.241 -1.0647  2.1817  0.6548
  184MOL0     H24794   4.476   0.540   7.989 -2.3847  0.8831 -1.5296
  184MOL0     H24795   4.552   0.698   7.947  2.3604 -4.5973 -3.2080
  184MOL0     H24796   4.398   0.806   8.081 -0.4881 -1.3269  1.2421
  184MOL0     H24797   4.319   0.648   8.131 -0.6252 -0.0284  0.0183
  184MOL0     H24798   4.326   0.722   7.836  0.7255 -1.0670 -1.2115
  184MOL0     H24799   4.211   0.794   7.961  2.0494 -0.1255 -1.2755
  184MOL0     H24800   3.994   0.509   7.795  0.9285 -0.8755  1.2329
  184MOL0     H24801   3.656   0.626   7.802 -0.1469  0.0598  0.2049
  184MOL0     H24802   3.779   0.520   7.718  0.9810  0.6059 -0.7710
  184MOL0     H24803   3.682   0.451   7.843  0.1335  0.9601  2.5493
  184MOL0     H24804   3.417   0.621   8.264  1.4584  0.8975 -0.5170
  184MOL0     H24805   3.189   0.701   8.260  0.3670  0.4234 -0.3448
  184MOL0     H24806   2.975   0.591   8.099 -0.4699 -0.6367 -2.9145
  184MOL0     H24807   2.963   0.716   8.235  0.6901 -1.2212  0.0454
  184MOL0     H24808   2.805   0.858   8.098 -1.8806 -0.0297  0.4060
  184MOL0     H24809   2.837   0.755   7.963 -1.0151  0.4310  0.6271
  184MOL0     H24810   2.705   0.676   8.236  1.8041 -0.7293  0.0710
  184MOL0     H24811   2.737   0.564   8.099  3.6910  1.1384  0.0211
  184MOL0     H24812   2.611   0.758   7.959  3.9839 -1.9026 -0.0948
  184MOL0     H24813   2.521   0.632   8.059 -2.0104  0.1225 -0.5674
  184MOL0     H24814   2.571   0.912   8.160 -0.8446  1.0035  1.6782
  184MOL0     H24815   2.503   0.773   8.252  0.5034 -0.2556  0.2871
  184MOL0     H24816   2.375   0.852   7.986  0.0153  0.9127  0.0470
  184MOL0     H24817   2.311   0.745   8.114  0.4376 -0.3978 -0.2943
  184MOL0     H24818   2.258   1.026   8.070  2.4298  1.7045  0.0352
  184MOL0     H24819   2.392   1.028   8.188  0.7318 -1.4411  0.1216
  184MOL0     H24820   2.139   0.876   8.231 -0.6399  1.5350 -2.3620
  184MOL0     H24821   2.171   1.040   8.285 -0.7118  1.0527 -1.1038
  184MOL0     H24822   3.206   0.751   7.843  1.4257  1.0353 -0.2969
  184MOL0     H24823   3.445   0.677   7.843  1.3044  2.0165  0.1287
  184MOL0     H24824   3.883   0.671   8.236  2.1158 -0.4612  1.3828
  184MOL0     H24825   4.114   0.666   8.159 -2.6399 -1.8789  3.1123
  184MOL0     H24826   5.962   1.251   7.944  1.4802 -0.7030  0.2546
  184MOL0     H24827   6.184   1.172   7.959 -0.4083  0.9146 -3.4002
  184MOL0     H24828   6.476   0.788   8.011 -1.3054 -0.2839 -0.2125
  184MOL0     H24829   6.722   0.730   7.975  0.1946  2.5507  0.7269
  184MOL0     H24830   6.928   0.901   7.786  1.8079 -0.2716  1.7907
  184MOL0     H24831   7.043   0.773   7.805  1.1622  0.3945 -0.9630
  184MOL0     H24832   6.924   0.845   7.525  0.9850  2.1773 -1.2948
  184MOL0     H24833   7.054   0.735   7.567  3.8514  2.0860 -0.6518
  184MOL0     H24834   7.169   0.927   7.686 -1.2331  2.0186  0.3221
  184MOL0     H24835   7.041   1.020   7.586 -1.1623 -0.4096 -1.5860
  184MOL0     H24836   7.132   0.935   7.382  1.3293  1.0672 -0.1183
  184MOL0     H24837   7.268   0.863   7.477  2.6181  2.1610 -0.2405
  184MOL0     H24838   7.360   1.280   7.453 -3.5024  1.0207  3.0232
  184MOL0     H24839   6.710   0.858   7.583  0.5554  0.2092  0.6432
  184MOL0     H24840   6.473   0.939   7.605  1.9521  2.5029  0.0253
  185MOL0     O24841   3.336  11.118  11.072 -0.2775 -0.4850 -0.8071
  185MOL0     C24842   3.234  11.065  11.033  0.3342 -0.8904 -0.7477
  185MOL0     O24843   3.105  11.111  11.054 -0.0019  0.2303 -0.2113
  185MOL0     C24844   3.079  11.217  11.149 -0.3690 -0.6592  0.1284
  185MOL0     C24845   3.139  11.210  11.279 -0.2516 -0.4826  0.5091
  185MOL0     C24846   3.113  11.309  11.375  0.5752 -1.2329  0.2806
  185MOL0     C24847   3.002  11.408  11.360  0.0434 -0.2232 -0.3228
  185MOL0     O24848   2.962  11.499  11.450 -0.9916 -0.1122  0.1291
  185MOL0     C24849   3.009  11.480  11.580  0.8504 -0.0857 -0.0885
  185MOL0     C24850   2.939  11.572  11.686  0.5273  0.8905 -0.6063
  185MOL0     C24851   2.788  11.551  11.703 -0.6909 -0.1852  0.2609
  185MOL0     C24852   2.743  11.605  11.843 -0.2863 -0.2893  0.4291
  185MOL0     C24853   2.591  11.611  11.864 -0.5110 -0.5922 -0.3860
  185MOL0     C24854   2.507  11.693  11.759  0.5863 -0.2713 -0.0397
  185MOL0     C24855   2.361  11.718  11.808  0.1011  0.2918  0.6695
  185MOL0     C24856   2.300  11.842  11.752  0.1858  0.7947  0.0298
  185MOL0     N24857   2.229  11.819  11.618  0.1746 -0.5333 -0.1824
  185MOL0     C24858   2.206  11.915  11.530  0.7245  0.3203  0.0836
  185MOL0     C24859   2.151  11.854  11.423  0.2307 -0.4655 -0.3114
  185MOL0     C24860   2.094  11.927  11.306 -0.1119  1.2905  0.3923
  185MOL0     C24861   1.948  11.966  11.330 -0.1048 -0.2457  0.3202
  185MOL0     C24862   1.881  11.997  11.196  0.2487 -0.7826 -0.9297
  185MOL0     C24863   1.727  11.993  11.231 -0.6426 -0.9727 -0.2194
  185MOL0     O24864   1.666  12.034  11.110 -0.1551  0.0674 -0.0168
  185MOL0     C24865   1.527  12.043  11.108 -1.0124  1.3766 -0.6798
  185MOL0     C24866   1.440  12.012  11.216 -0.3921 -0.6715 -0.1328
  185MOL0     C24867   1.300  12.024  11.203 -0.0808 -0.3932  0.2834
  185MOL0     C24868   1.219  11.984  11.326 -0.1721 -0.5167  0.5781
  185MOL0     C24869   1.249  12.085  11.089 -0.2910  0.6744  0.6811
  185MOL0     C24870   1.095  12.110  11.070 -0.4112  0.0378  0.3854
  185MOL0     O24871   1.061  12.208  10.973  0.1764  0.2182  0.6419
  185MOL0     C24872   0.927  12.230  10.954  0.0539  0.0864 -0.2988
  185MOL0     C24873   0.853  12.179  10.850 -0.0779  0.0762 -0.7912
  185MOL0     C24874   0.716  12.213  10.840  0.1367 -0.6535  0.0481
  185MOL0     C24875   0.653  12.288  10.938 -0.3815  0.7354 -0.5057
  185MOL0     O24876   0.516  12.302  10.926 -0.4436  0.8040  0.3262
  185MOL0     C24877   0.438  12.379  11.016  0.0812  0.1703 -0.0309
  185MOL0     C24878   0.337  12.294  11.090 -1.5568 -0.3384  0.0473
  185MOL0     C24879   0.236  12.221  10.998 -0.1605 -0.0684 -0.3905
  185MOL0     C24880   0.129  12.157  11.080  0.1511  0.3123 -0.2982
  185MOL0     C24881   0.021  12.100  10.993  0.0484  0.2413  0.3251
  185MOL0     C24882  -0.118  12.089  11.069 -0.0868 -0.3369 -0.7317
  185MOL0     C24883  -0.228  12.000  11.000 -0.1561 -0.3971  0.9560
  185MOL0     C24884  -0.360  12.038  11.054 -0.0080  0.1387 -0.0859
  185MOL0    Cl24885  -0.497  11.936  11.003  0.1168  0.1474  0.1446
  185MOL0     C24886   0.726  12.321  11.049  1.3578  0.7944  0.2796
  185MOL0     C24887   0.863  12.300  11.056  0.2553 -0.4514 -0.3589
  185MOL0     O24888   1.023  12.049  11.138  0.1812 -0.4479  1.1879
  185MOL0     C24889   1.337  12.131  10.987  0.2737  0.5654  0.3774
  185MOL0     C24890   1.470  12.100  10.995  0.6966  0.2407  0.2645
  185MOL0     N24891   2.146  11.720  11.449  0.1500  0.1987  0.0636
  185MOL0     N24892   2.193  11.699  11.569  0.8051  0.0583 -0.0140
  185MOL0     C24893   2.953  11.416  11.227 -0.0693  0.1861 -0.2321
  185MOL0     C24894   2.988  11.320  11.124  0.5981  0.7246  0.0055
  185MOL0     C24895   3.256  10.952  10.940  0.3296 -0.2889  0.3943
  185MOL0     C24896   3.376  10.917  10.882 -0.7485  0.3362  0.3467
  185MOL0     C24897   3.384  10.821  10.781 -0.0627  0.4332 -0.3331
  185MOL0     C24898   3.264  10.768  10.725  0.2564  1.4691 -1.0809
  185MOL0     O24899   3.258  10.689  10.611  0.5807  0.2381 -0.3400
  185MOL0     C24900   3.361  10.696  10.505 -0.7030 -0.3785 -0.9129
  185MOL0     C24901   3.299  10.707  10.373 -0.2902 -0.3390  0.8555
  185MOL0     C24902   3.245  10.857  10.370 -0.3168 -0.0580  0.5129
  185MOL0     C24903   3.150  10.888  10.245 -0.4810 -0.0788 -0.3608
  185MOL0     C24904   3.221  10.889  10.118 -0.2682  0.3661  0.8268
  185MOL0     C24905   3.273  10.908  10.010 -1.3666  0.3980  0.6677
  185MOL0     C24906   3.145  10.790  10.791 -0.3546 -0.7379 -0.8980
  185MOL0     C24907   3.140  10.884  10.893  0.0068 -0.3192 -0.2506
  185MOL0     H24908   3.200  11.123  11.302  0.5585 -0.4849 -1.4279
  185MOL0     H24909   3.173  11.313  11.466  1.0947  3.0285 -0.0189
  185MOL0     H24910   2.999  11.377  11.616 -0.7398  0.0055 -0.2160
  185MOL0     H24911   3.116  11.504  11.582  0.6706  1.2211 -2.4192
  185MOL0     H24912   2.979  11.569  11.787 -2.1913  2.4010  0.6234
  185MOL0     H24913   2.950  11.675  11.651  1.5367  0.4489 -1.6674
  185MOL0     H24914   2.735  11.603  11.623  1.6008 -0.4527 -1.5342
  185MOL0     H24915   2.771  11.443  11.706  3.8247 -1.0950 -0.0845
  185MOL0     H24916   2.786  11.544  11.923 -3.9701 -2.8501  0.7128
  185MOL0     H24917   2.791  11.703  11.851  0.1236 -0.3473 -1.0430
  185MOL0     H24918   2.550  11.510  11.861  0.7965 -1.1211 -3.2347
  185MOL0     H24919   2.570  11.650  11.965 -1.8124 -1.2797 -0.3768
  185MOL0     H24920   2.554  11.791  11.742 -1.7167  0.9300  0.1090
  185MOL0     H24921   2.511  11.640  11.664  0.6952  2.4879 -1.6831
  185MOL0     H24922   2.300  11.628  11.796  0.4340  0.4002 -2.4863
  185MOL0     H24923   2.364  11.741  11.915 -0.7589 -1.2733  1.0545
  185MOL0     H24924   2.357  11.934  11.769 -0.8850  0.8308  4.7539
  185MOL0     H24925   2.219  11.869  11.820 -0.1480 -1.1537  0.4817
  185MOL0     H24926   2.226  12.022  11.539 -1.1719  0.6313  1.0230
  185MOL0     H24927   2.157  12.013  11.285 -0.5410  1.6337  0.4935
  185MOL0     H24928   2.111  11.861  11.220  2.0720  1.0977  0.9165
  185MOL0     H24929   1.952  12.062  11.382 -1.7056  0.7281 -1.2213
  185MOL0     H24930   1.889  11.887  11.378 -2.8302  0.2272 -1.9740
  185MOL0     H24931   1.911  11.919  11.126  1.7457 -0.7821 -0.3252
  185MOL0     H24932   1.919  12.095  11.166 -0.0621  0.0637  1.2715
  185MOL0     H24933   1.695  12.061  11.310 -1.1680 -0.2940 -1.0026
  185MOL0     H24934   1.699  11.889  11.253 -1.2830 -0.3707  2.0677
  185MOL0     H24935   1.488  11.981  11.308  0.4048 -0.0422 -0.3269
  185MOL0     H24936   1.182  11.881  11.316  0.8790 -0.8418 -0.1473
  185MOL0     H24937   1.290  11.973  11.408  4.1189  0.0373 -2.7360
  185MOL0     H24938   1.133  12.047  11.351 -0.5449 -0.3124 -1.0879
  185MOL0     H24939   0.906  12.129  10.771  0.7470  1.4481 -1.1426
  185MOL0     H24940   0.664  12.185  10.749  1.3864 -2.6211 -0.1218
  185MOL0     H24941   0.492  12.415  11.104 -3.3386  1.0287  1.8945
  185MOL0     H24942   0.383  12.460  10.967  0.8024  1.4111  1.1479
  185MOL0     H24943   0.382  12.217  11.154 -1.9691  0.1214  0.8963
  185MOL0     H24944   0.290  12.361  11.162 -0.6965 -1.5548  1.8296
  185MOL0     H24945   0.285  12.143  10.940  2.3707 -0.7440  2.3814
  185MOL0     H24946   0.187  12.295  10.935  2.0851  3.4776  1.6738
  185MOL0     H24947   0.169  12.085  11.152  3.4745  2.1113 -0.1393
  185MOL0     H24948   0.086  12.236  11.142 -0.5461  1.2798 -1.9438
  185MOL0     H24949   0.060  12.002  10.965  0.8704  1.1042 -1.7118
  185MOL0     H24950   0.005  12.147  10.896  1.6735  1.1617  0.4797
  185MOL0     H24951  -0.106  12.048  11.170 -0.3439  1.5773  0.1294
  185MOL0     H24952  -0.156  12.192  11.065 -1.4103 -0.8582 -2.4194
  185MOL0     H24953  -0.200  11.895  11.006 -0.3455 -0.6019 -1.0570
  185MOL0     H24954  -0.240  12.033  10.896  0.4639  1.0858  1.3199
  185MOL0     H24955  -0.400  12.138  11.037  0.0573  0.2805  0.5836
  185MOL0     H24956  -0.349  12.019  11.161  0.0278 -0.6711 -0.2287
  185MOL0     H24957   0.676  12.370  11.132  2.7835  3.5469 -0.3647
  185MOL0     H24958   0.920  12.324  11.145  0.0484 -0.0728 -0.3246
  185MOL0     H24959   1.308  12.178  10.894  2.7531  1.4749  0.0033
  185MOL0     H24960   1.538  12.131  10.916  0.8653 -2.9375 -0.9749
  185MOL0     H24961   2.895  11.503  11.199  1.5156  0.6550 -2.2338
  185MOL0     H24962   2.942  11.336  11.028  0.4771  0.3219 -0.0029
  185MOL0     H24963   3.469  10.966  10.911 -0.4919  0.2435 -0.3179
  185MOL0     H24964   3.481  10.786  10.749  0.3938 -1.1926  2.5305
  185MOL0     H24965   3.438  10.772  10.516  0.4487 -1.1137 -3.3117
  185MOL0     H24966   3.411  10.599  10.504 -1.6419 -1.0218 -4.9027
  185MOL0     H24967   3.222  10.632  10.353  0.1554 -0.1471 -1.8908
  185MOL0     H24968   3.379  10.688  10.302 -1.7034 -2.2218 -0.3128
  185MOL0     H24969   3.322  10.934  10.378 -1.2918  0.9293  0.6871
  185MOL0     H24970   3.179  10.861  10.457 -0.4722  0.1438  0.3855
  185MOL0     H24971   3.110  10.989  10.260 -0.9870 -0.1940 -0.8998
  185MOL0     H24972   3.069  10.815  10.252  0.9755 -1.8286 -1.1476
  185MOL0     H24973   3.331  10.921   9.921 -0.7900 -0.1003  0.9626
  185MOL0     H24974   3.043  10.764  10.762 -0.4639 -0.3669 -0.8433
  185MOL0     H24975   3.046  10.911  10.941 -0.0550  1.9762 -1.5216
  186MOL0     O24976  10.463   4.360   1.504  0.2141 -0.5703 -0.9094
  186MOL0     C24977  10.550   4.386   1.595  1.2374 -0.2204  0.1946
  186MOL0     O24978  10.519   4.407   1.731  0.4566  0.5290 -0.1035
  186MOL0     C24979  10.385   4.398   1.762 -0.1582  0.5412  0.2339
  186MOL0     C24980  10.306   4.500   1.723  0.2066 -0.4634 -0.5207
  186MOL0     C24981  10.172   4.487   1.750  0.5317  0.2382 -0.1629
  186MOL0     C24982  10.119   4.377   1.816  0.2232 -0.1892  0.2944
  186MOL0     O24983   9.985   4.362   1.824  0.7194 -0.8301  0.0084
  186MOL0     C24984   9.931   4.380   1.954  0.2393 -0.0381  0.9036
  186MOL0     C24985   9.862   4.242   1.991 -0.3161 -0.4495 -0.3475
  186MOL0     C24986   9.722   4.227   1.945  0.1348 -1.2724  0.9169
  186MOL0     C24987   9.624   4.333   2.010  0.2391  0.3290 -0.7934
  186MOL0     C24988   9.484   4.307   1.947  0.4967  0.0248  0.0243
  186MOL0     C24989   9.402   4.198   2.019 -0.2620  0.7050 -0.6623
  186MOL0     C24990   9.261   4.193   1.984 -0.3809  0.6327  0.4929
  186MOL0     C24991   9.202   4.055   2.011  1.0748  0.8259 -0.1678
  186MOL0     N24992   9.059   4.046   1.973  0.4148 -0.1492  0.2378
  186MOL0     C24993   8.949   4.048   2.046  0.0014 -0.4420  0.3253
  186MOL0     C24994   8.847   3.994   1.976 -0.0559  0.5692 -0.5298
  186MOL0     C24995   8.696   3.976   2.011  0.6464  0.0492 -0.9517
  186MOL0     C24996   8.646   4.121   2.008 -0.0864 -0.2939 -0.3240
  186MOL0     C24997   8.497   4.130   2.019  0.4791  0.5171 -0.7167
  186MOL0     C24998   8.434   4.025   2.102  0.1374  0.9337 -0.5572
  186MOL0     O24999   8.289   4.030   2.093  0.7596 -0.0558 -0.5001
  186MOL0     C25000   8.217   3.950   2.181 -0.7297 -0.8014 -0.0715
  186MOL0     C25001   8.271   3.854   2.265  0.4324  0.2203  0.0195
  186MOL0     C25002   8.201   3.770   2.356  0.0698  0.4143 -0.6539
  186MOL0     C25003   8.290   3.681   2.436  0.3685  1.2561 -0.2490
  186MOL0     C25004   8.065   3.784   2.358  0.9371 -0.0728 -0.0764
  186MOL0     C25005   7.971   3.713   2.456 -0.7288 -0.4370  0.2214
  186MOL0     O25006   7.840   3.746   2.454  0.2815 -0.2373 -0.4742
  186MOL0     C25007   7.746   3.667   2.520 -0.2222 -0.0482 -0.9211
  186MOL0     C25008   7.688   3.738   2.626 -0.5405  0.0224 -0.6661
  186MOL0     C25009   7.603   3.659   2.707  0.4045 -0.7703  0.2397
  186MOL0     C25010   7.570   3.528   2.681  0.8859  0.1837 -0.4065
  186MOL0     O25011   7.479   3.454   2.756 -0.2306 -0.5517  0.2553
  186MOL0     C25012   7.383   3.526   2.826  0.3748  0.7622 -0.7136
  186MOL0     C25013   7.255   3.457   2.870 -0.7562 -0.3512  0.1603
  186MOL0     C25014   7.178   3.392   2.750 -0.3117 -0.1869  0.2605
  186MOL0     C25015   7.051   3.333   2.777  0.0334 -0.9112 -0.0713
  186MOL0     C25016   7.025   3.236   2.890  0.3075  0.0008 -0.0091
  186MOL0     C25017   6.873   3.216   2.903  0.3535  0.2328 -0.5852
  186MOL0     C25018   6.803   3.159   2.783  0.3439 -0.1211 -0.4105
  186MOL0     C25019   6.653   3.118   2.804  0.8898  0.5898 -0.0979
  186MOL0    Cl25020   6.625   3.031   2.946 -0.8512 -0.0147  0.3438
  186MOL0     C25021   7.622   3.457   2.573  0.8385  0.3581 -0.1657
  186MOL0     C25022   7.712   3.532   2.497 -0.1675 -0.7091 -0.3676
  186MOL0     O25023   8.014   3.615   2.517  0.2928 -0.3216 -0.1018
  186MOL0     C25024   8.006   3.872   2.270  0.5529 -0.4153  0.1374
  186MOL0     C25025   8.080   3.957   2.186  0.4148  0.6637 -0.6613
  186MOL0     N25026   8.894   3.954   1.858 -0.6011 -0.0386 -0.2932
  186MOL0     N25027   9.020   3.988   1.852 -0.2650  0.2187  0.2626
  186MOL0     C25028  10.206   4.263   1.856  0.5672 -0.5269  0.2401
  186MOL0     C25029  10.343   4.284   1.828 -0.1632  0.1114 -1.0398
  186MOL0     C25030  10.696   4.408   1.551  0.1562  0.8789  0.0647
  186MOL0     C25031  10.793   4.461   1.645  0.4816  0.4668  0.7564
  186MOL0     C25032  10.931   4.453   1.612  0.0757 -0.1000 -1.1431
  186MOL0     C25033  10.974   4.407   1.484 -0.5536  0.0942  0.1957
  186MOL0     O25034  11.101   4.409   1.441  0.1424 -0.2766 -0.2326
  186MOL0     C25035  11.191   4.513   1.494  0.2301  0.8738 -0.4592
  186MOL0     C25036  11.319   4.517   1.414  0.1436  0.4600 -0.0779
  186MOL0     C25037  11.435   4.582   1.482 -0.2591 -0.3848  0.2292
  186MOL0     C25038  11.414   4.728   1.524 -0.6186 -0.1042  0.3479
  186MOL0     C25039  11.544   4.780   1.562 -0.1327  0.2621  0.3751
  186MOL0     C25040  11.654   4.826   1.594 -0.0949 -0.5802 -0.0076
  186MOL0     C25041  10.880   4.357   1.391 -0.1075 -0.4405  0.4175
  186MOL0     C25042  10.744   4.347   1.431  0.1129  0.5420  1.3191
  186MOL0     H25043  10.339   4.585   1.664  1.3375  0.2122  0.9987
  186MOL0     H25044  10.103   4.560   1.709 -0.8695 -0.9248  0.0372
  186MOL0     H25045  10.000   4.385   2.039 -0.6976 -0.7233  1.7328
  186MOL0     H25046   9.859   4.462   1.955  0.7272  0.6031 -2.9571
  186MOL0     H25047   9.924   4.158   1.958  2.7732  1.0663  1.1216
  186MOL0     H25048   9.850   4.232   2.099 -2.9423 -3.2133 -0.7660
  186MOL0     H25049   9.733   4.242   1.837  0.4896 -0.0696  1.1134
  186MOL0     H25050   9.698   4.120   1.953 -1.1379 -0.9724  1.3790
  186MOL0     H25051   9.626   4.317   2.118  0.4119 -1.2848 -1.0076
  186MOL0     H25052   9.655   4.434   1.984  1.5724  0.6382  1.7622
  186MOL0     H25053   9.424   4.398   1.956  0.8444  0.7814 -3.7552
  186MOL0     H25054   9.496   4.293   1.839 -1.1118  2.2992 -0.5203
  186MOL0     H25055   9.445   4.097   2.012 -2.7690 -0.4388 -0.4411
  186MOL0     H25056   9.410   4.214   2.127  1.0981  0.7184 -0.7468
  186MOL0     H25057   9.209   4.270   2.042 -1.5520  0.2367 -0.0064
  186MOL0     H25058   9.247   4.220   1.879  3.8621  2.7107  0.2495
  186MOL0     H25059   9.210   4.022   2.115 -0.1028  3.1666  0.7611
  186MOL0     H25060   9.263   3.989   1.950  1.5101  1.8721 -0.9051
  186MOL0     H25061   8.946   4.105   2.139  0.3417  1.5437 -0.8224
  186MOL0     H25062   8.655   3.909   1.935  0.1026  0.7208 -1.2586
  186MOL0     H25063   8.703   3.941   2.114 -1.5981 -0.1962 -0.8342
  186MOL0     H25064   8.685   4.175   1.920  0.3279 -0.8404 -0.4816
  186MOL0     H25065   8.677   4.172   2.099 -1.2710 -0.7721  0.3613
  186MOL0     H25066   8.461   4.103   1.919 -2.6746 -0.0898  0.4711
  186MOL0     H25067   8.461   4.230   2.045 -1.7980  0.0177 -1.6822
  186MOL0     H25068   8.468   4.053   2.203  2.2741 -0.4212 -0.8401
  186MOL0     H25069   8.467   3.926   2.072 -0.6093  0.2403  0.8164
  186MOL0     H25070   8.379   3.845   2.260  0.3027 -2.3107  0.4593
  186MOL0     H25071   8.270   3.574   2.423 -1.1762  1.5501 -0.4874
  186MOL0     H25072   8.394   3.695   2.405 -0.0834  0.6224 -2.1805
  186MOL0     H25073   8.289   3.688   2.545  3.5185 -3.0917  0.3333
  186MOL0     H25074   7.723   3.839   2.646  4.5748 -1.3117 -1.5494
  186MOL0     H25075   7.573   3.717   2.794 -2.8246  1.4065 -2.0680
  186MOL0     H25076   7.425   3.563   2.920  0.0629 -0.1443 -0.2019
  186MOL0     H25077   7.358   3.615   2.767  2.6278  0.5099 -2.1726
  186MOL0     H25078   7.279   3.383   2.947 -1.7312  0.5011  1.3329
  186MOL0     H25079   7.191   3.522   2.932 -1.9522 -3.1550  2.0555
  186MOL0     H25080   7.246   3.321   2.702 -1.6988 -0.1424 -1.9014
  186MOL0     H25081   7.162   3.467   2.672 -1.3602 -0.4313  0.2193
  186MOL0     H25082   6.975   3.411   2.783 -1.8491 -2.4903 -1.6882
  186MOL0     H25083   7.026   3.278   2.685 -3.4706  1.1304 -0.5222
  186MOL0     H25084   7.072   3.271   2.982  4.1191  0.9784 -2.1389
  186MOL0     H25085   7.075   3.142   2.866  0.4776  0.2229 -0.5264
  186MOL0     H25086   6.868   3.141   2.983 -0.2983  3.8053  3.0065
  186MOL0     H25087   6.821   3.307   2.932 -0.1561  0.1609 -1.2473
  186MOL0     H25088   6.848   3.061   2.766  1.0975  0.0577  0.4621
  186MOL0     H25089   6.813   3.221   2.693 -2.5512 -1.2361 -1.6134
  186MOL0     H25090   6.617   3.060   2.718 -0.0896  0.3636  0.4472
  186MOL0     H25091   6.591   3.208   2.803 -4.1350 -2.4951 -0.9467
  186MOL0     H25092   7.586   3.357   2.550 -0.9367  0.6712  0.9992
  186MOL0     H25093   7.756   3.484   2.410  0.9381  1.3735 -1.0283
  186MOL0     H25094   7.900   3.888   2.281  0.4394 -1.8063  1.4012
  186MOL0     H25095   8.033   4.046   2.145  0.1485  0.8109 -0.0446
  186MOL0     H25096  10.173   4.177   1.914  1.7757 -1.9048 -1.0192
  186MOL0     H25097  10.419   4.216   1.866  0.5470 -0.1076 -2.7472
  186MOL0     H25098  10.769   4.503   1.742  0.6592  0.1343  0.9493
  186MOL0     H25099  11.006   4.482   1.685  0.7123 -0.0083 -1.8233
  186MOL0     H25100  11.153   4.615   1.503  1.4457  1.4354 -1.4665
  186MOL0     H25101  11.223   4.466   1.588 -1.4730 -2.1117 -1.2357
  186MOL0     H25102  11.304   4.558   1.313 -1.4817  2.1175  0.7687
  186MOL0     H25103  11.353   4.414   1.405 -1.8050 -0.3943  1.6268
  186MOL0     H25104  11.517   4.573   1.410 -1.7385 -2.0335 -1.3715
  186MOL0     H25105  11.464   4.521   1.568  3.7258 -1.2812 -1.5090
  186MOL0     H25106  11.330   4.733   1.594 -0.7956 -2.5509  0.3684
  186MOL0     H25107  11.376   4.783   1.438 -1.2808  2.4925  2.1714
  186MOL0     H25108  11.741   4.884   1.621 -0.5426  0.1844 -0.1718
  186MOL0     H25109  10.908   4.319   1.293 -0.3854 -1.5125  0.7351
  186MOL0     H25110  10.673   4.304   1.361 -0.2020  2.1430  0.6014
  187MOL0     O25111   3.279   3.102  10.024 -0.4813 -0.5723 -0.7829
  187MOL0     C25112   3.273   3.227  10.004 -0.3285  0.6236 -0.3671
  187MOL0     O25113   3.162   3.298   9.990  0.1026 -0.5256 -0.1638
  187MOL0     C25114   3.041   3.240  10.010  0.7503  0.2626  0.7756
  187MOL0     C25115   2.960   3.296  10.102  0.1485  0.2718 -0.2160
  187MOL0     C25116   2.826   3.241  10.119  0.3852  0.3033  0.8590
  187MOL0     C25117   2.782   3.137  10.034  0.0396 -1.3189  0.4188
  187MOL0     O25118   2.660   3.071  10.057 -0.4564  0.2990 -0.2320
  187MOL0     C25119   2.560   3.144  10.126 -0.0216  0.3539 -0.5939
  187MOL0     C25120   2.435   3.061  10.134 -0.3678 -0.0840 -0.3210
  187MOL0     C25121   2.357   3.089  10.256 -0.4299 -1.0242 -0.6356
  187MOL0     C25122   2.206   3.041  10.244 -0.5036 -0.0402 -0.5349
  187MOL0     C25123   2.126   3.054  10.374 -0.6992 -0.0179 -0.5642
  187MOL0     C25124   2.094   3.199  10.399 -0.0258 -0.8915 -0.4040
  187MOL0     C25125   2.004   3.210  10.520 -0.1984 -0.6316 -0.3570
  187MOL0     C25126   1.947   3.353  10.523 -0.2611 -0.6380  0.4752
  187MOL0     N25127   1.851   3.365  10.623  0.4136  0.2152  0.3473
  187MOL0     C25128   1.857   3.428  10.743  1.0021  0.6041 -0.4606
  187MOL0     C25129   1.732   3.404  10.798 -0.0803  0.6424 -1.0777
  187MOL0     C25130   1.694   3.461  10.929  0.3983 -0.6045 -0.0137
  187MOL0     C25131   1.563   3.420  10.993 -0.7880  0.6500 -0.0976
  187MOL0     C25132   1.539   3.491  11.128  0.3366  0.8077  0.7553
  187MOL0     C25133   1.391   3.466  11.181 -0.4859  1.2043  0.6232
  187MOL0     O25134   1.355   3.320  11.188 -0.4661  0.2423 -0.0704
  187MOL0     C25135   1.241   3.284  11.249  0.6042  0.3808 -0.0752
  187MOL0     C25136   1.220   3.147  11.269 -0.3168 -0.6153 -0.6247
  187MOL0     C25137   1.114   3.091  11.345 -0.3033  1.0798  0.0031
  187MOL0     C25138   1.102   2.941  11.364 -0.2177 -0.4083 -0.2025
  187MOL0     C25139   1.027   3.190  11.401 -0.5361 -0.1358 -0.1501
  187MOL0     C25140   0.902   3.152  11.474  0.7182  0.1630  0.4826
  187MOL0     O25141   0.799   3.226  11.436  0.2408 -0.0744  0.3384
  187MOL0     C25142   0.681   3.220  11.501 -0.4413 -0.2932 -0.5295
  187MOL0     C25143   0.620   3.096  11.519 -0.7781 -1.0529 -0.6050
  187MOL0     C25144   0.493   3.079  11.570 -0.2812  0.2342  0.3267
  187MOL0     C25145   0.415   3.189  11.625  0.0474 -0.3494 -0.2036
  187MOL0     O25146   0.292   3.173  11.686  0.3341  0.0057  0.3463
  187MOL0     C25147   0.199   3.079  11.623 -0.2962 -0.2156  0.1675
  187MOL0     C25148   0.059   3.090  11.682 -0.4464  0.4265  0.4247
  187MOL0     C25149  -0.036   3.189  11.602  0.3797 -0.4869  0.3044
  187MOL0     C25150  -0.177   3.137  11.592  0.0408  0.4135 -0.8335
  187MOL0     C25151  -0.271   3.220  11.508 -0.6666 -0.0062 -0.7612
  187MOL0     C25152  -0.397   3.143  11.478  1.2865  0.0165  0.1469
  187MOL0     C25153  -0.495   3.233  11.386 -0.3935  0.1709  0.0166
  187MOL0     C25154  -0.445   3.224  11.240 -0.3627  0.6937  0.9983
  187MOL0    Cl25155  -0.429   3.058  11.180 -0.3308  0.8955 -0.1211
  187MOL0     C25156   0.478   3.315  11.609 -0.5033  0.7747  0.5970
  187MOL0     C25157   0.609   3.330  11.545  0.3235 -1.2413 -0.0232
  187MOL0     O25158   0.902   3.056  11.552 -0.7188 -0.2680  0.6739
  187MOL0     C25159   1.040   3.330  11.376 -0.3752  0.3035  0.4532
  187MOL0     C25160   1.144   3.372  11.297 -0.9083 -0.4418  0.3185
  187MOL0     N25161   1.652   3.342  10.708  1.0005  0.2235  0.1860
  187MOL0     N25162   1.725   3.300  10.617 -0.1776 -0.4901  0.8836
  187MOL0     C25163   2.873   3.082   9.945 -0.0034 -0.3360  0.4304
  187MOL0     C25164   3.001   3.138   9.924  0.0056  0.9296  0.4059
  187MOL0     C25165   3.401   3.299   9.975 -0.7820 -0.9838  0.5740
  187MOL0     C25166   3.527   3.231   9.972 -0.2341 -0.6181 -0.8782
  187MOL0     C25167   3.650   3.298   9.970  0.2509  0.5067  0.4806
  187MOL0     C25168   3.649   3.438   9.957 -0.3566 -0.1356  1.1138
  187MOL0     O25169   3.761   3.520   9.946  0.5656 -0.1051 -0.0245
  187MOL0     C25170   3.876   3.477   9.861  0.0211  0.7697 -0.7630
  187MOL0     C25171   3.842   3.465   9.713 -1.0759 -0.4086  0.0542
  187MOL0     C25172   3.967   3.496   9.625  0.2024 -0.3601  0.1530
  187MOL0     C25173   3.946   3.491   9.477  0.0089  0.3805  0.3890
  187MOL0     C25174   3.846   3.571   9.425 -0.5227  0.5980  0.2116
  187MOL0     C25175   3.749   3.629   9.371 -0.3221  0.0754 -0.9519
  187MOL0     C25176   3.529   3.508   9.948  0.1748 -0.5283  0.6517
  187MOL0     C25177   3.400   3.439   9.954 -0.2965  0.0774  0.5125
  187MOL0     H25178   2.991   3.387  10.154 -1.9032  1.6578 -1.2745
  187MOL0     H25179   2.773   3.284  10.203  2.4307 -1.0520  2.9934
  187MOL0     H25180   2.594   3.161  10.229 -1.6870 -0.7419  0.1682
  187MOL0     H25181   2.544   3.239  10.074  2.2042  1.7156  1.0158
  187MOL0     H25182   2.377   3.070  10.041  0.1760  2.8004 -0.4733
  187MOL0     H25183   2.465   2.956  10.144  0.9745  0.4925  2.5187
  187MOL0     H25184   2.406   3.043  10.342 -0.1257 -3.1524 -1.8872
  187MOL0     H25185   2.355   3.197  10.273 -0.0874 -0.7687 -2.0968
  187MOL0     H25186   2.156   3.094  10.162 -0.2492  0.4286 -0.3908
  187MOL0     H25187   2.215   2.937  10.211  0.2759 -0.0193 -0.4196
  187MOL0     H25188   2.037   2.992  10.360  1.2409 -4.2380  3.3953
  187MOL0     H25189   2.182   3.020  10.461  1.9911  0.5630 -1.9794
  187MOL0     H25190   2.188   3.253  10.414 -0.7318  0.3254 -0.1930
  187MOL0     H25191   2.050   3.243  10.308 -0.7931 -0.2216  0.2734
  187MOL0     H25192   1.922   3.138  10.515 -2.2345  1.0427  3.9133
  187MOL0     H25193   2.046   3.204  10.620 -3.2746 -0.5618  1.0544
  187MOL0     H25194   1.903   3.373  10.425 -0.5401  1.1755  0.9319
  187MOL0     H25195   2.025   3.427  10.545  1.6613 -1.3397 -3.1418
  187MOL0     H25196   1.941   3.481  10.787  2.3775 -2.1526  0.4690
  187MOL0     H25197   1.779   3.451  10.998 -0.5596 -2.0584  1.0051
  187MOL0     H25198   1.678   3.568  10.912 -1.7074 -0.9424 -0.4187
  187MOL0     H25199   1.564   3.311  11.002 -1.8223  0.5075 -1.4967
  187MOL0     H25200   1.478   3.437  10.927 -2.9303 -1.7285  1.8340
  187MOL0     H25201   1.559   3.598  11.117 -0.9808  0.9007 -1.2175
  187MOL0     H25202   1.607   3.441  11.198 -1.4217 -0.9512  1.3031
  187MOL0     H25203   1.323   3.511  11.108 -0.8801  0.4193  0.4982
  187MOL0     H25204   1.367   3.513  11.277 -2.4155 -0.1247  0.8413
  187MOL0     H25205   1.293   3.082  11.222 -0.4510 -0.9442 -0.3857
  187MOL0     H25206   1.120   2.925  11.471 -1.4455 -1.1832 -0.0923
  187MOL0     H25207   1.001   2.912  11.335  0.6594 -1.6780 -2.2292
  187MOL0     H25208   1.183   2.895  11.307 -2.1538 -3.9693 -0.3633
  187MOL0     H25209   0.668   3.006  11.482 -0.6869 -2.0401  1.7090
  187MOL0     H25210   0.449   2.980  11.567 -1.6764  0.8373 -2.1827
  187MOL0     H25211   0.211   3.101  11.516 -0.1066  1.1188  0.4427
  187MOL0     H25212   0.243   2.980  11.640 -3.0761 -1.6226 -0.1973
  187MOL0     H25213   0.022   2.987  11.676  2.5920 -0.7111 -1.3130
  187MOL0     H25214   0.072   3.123  11.785  0.3681  1.6333 -0.0473
  187MOL0     H25215   0.002   3.203  11.500  2.9111  1.0647  1.3664
  187MOL0     H25216  -0.035   3.285  11.653  0.3809  0.2138 -0.9720
  187MOL0     H25217  -0.187   3.033  11.559 -1.1264  0.6936 -1.4297
  187MOL0     H25218  -0.226   3.139  11.689 -0.1118  0.2725 -0.9063
  187MOL0     H25219  -0.221   3.233  11.411  3.3017 -1.9330  0.8146
  187MOL0     H25220  -0.287   3.319  11.550  1.4866  0.2822 -0.5520
  187MOL0     H25221  -0.379   3.038  11.454  0.3500 -1.2633  4.3699
  187MOL0     H25222  -0.439   3.141  11.578  0.4647 -1.2352 -0.2079
  187MOL0     H25223  -0.486   3.336  11.421 -2.6270 -0.5930  3.2789
  187MOL0     H25224  -0.599   3.199  11.387  0.1627 -1.6044  0.2865
  187MOL0     H25225  -0.360   3.292  11.231 -0.0863  0.2512  0.1767
  187MOL0     H25226  -0.526   3.271  11.183 -0.6654 -0.3364  0.5632
  187MOL0     H25227   0.429   3.404  11.648 -2.9744 -0.4071  0.4140
  187MOL0     H25228   0.638   3.433  11.525 -1.1765 -1.0527 -1.4656
  187MOL0     H25229   0.965   3.399  11.412 -0.8704  1.9160 -3.1843
  187MOL0     H25230   1.139   3.478  11.273 -0.7603 -0.5898 -0.3808
  187MOL0     H25231   2.860   2.994   9.882  2.8352  0.6214 -1.6965
  187MOL0     H25232   3.061   3.098   9.843 -1.2311  1.3887 -0.7933
  187MOL0     H25233   3.533   3.123   9.980  1.4504 -0.3864  1.9770
  187MOL0     H25234   3.745   3.245   9.978 -0.7237 -1.4964 -0.4365
  187MOL0     H25235   3.957   3.551   9.868  0.6855 -0.0406  0.6149
  187MOL0     H25236   3.917   3.382   9.898  1.0180  1.9284  1.2948
  187MOL0     H25237   3.769   3.542   9.685 -1.9054 -1.5105 -0.9268
  187MOL0     H25238   3.791   3.371   9.689  0.2030 -0.4058 -3.1219
  187MOL0     H25239   4.044   3.421   9.642  2.3609  1.6070 -0.4741
  187MOL0     H25240   4.013   3.590   9.653  1.8924 -1.4352  1.1324
  187MOL0     H25241   3.930   3.389   9.442  0.3814  0.0348  1.2124
  187MOL0     H25242   4.042   3.533   9.444 -0.5022  1.7135  0.5388
  187MOL0     H25243   3.663   3.675   9.325  0.1775  2.0672  0.0416
  187MOL0     H25244   3.539   3.613   9.921 -0.8185 -0.5829  0.0014
  187MOL0     H25245   3.304   3.488   9.952 -0.4416 -0.2035  0.6072
  188MOL0     O25246   9.358   8.759   3.302  0.1407  0.3689 -0.0860
  188MOL0     C25247   9.465   8.711   3.338  0.2804 -0.2077 -0.3293
  188MOL0     O25248   9.480   8.585   3.396 -0.2033  0.1566  0.6402
  188MOL0     C25249   9.368   8.513   3.431 -0.2069 -0.0716 -0.2392
  188MOL0     C25250   9.326   8.520   3.563 -0.4482 -0.3457 -0.3884
  188MOL0     C25251   9.203   8.459   3.598 -0.4071  0.9634  0.5718
  188MOL0     C25252   9.121   8.382   3.499  0.3112  0.2104 -0.2000
  188MOL0     O25253   9.004   8.313   3.536 -0.8020 -0.0334  0.1804
  188MOL0     C25254   8.914   8.383   3.629  0.1053  0.0370  0.4305
  188MOL0     C25255   8.783   8.286   3.652 -0.3569  0.5324 -0.5500
  188MOL0     C25256   8.817   8.149   3.719 -0.0852 -0.4090  0.0558
  188MOL0     C25257   8.696   8.104   3.803 -0.4565 -0.6012  0.8744
  188MOL0     C25258   8.721   7.963   3.858 -0.6632  0.0649  0.0008
  188MOL0     C25259   8.588   7.933   3.927  0.1089 -0.0796  0.0823
  188MOL0     C25260   8.597   7.791   3.977 -0.4850 -0.2770 -0.2238
  188MOL0     C25261   8.578   7.687   3.865 -0.2713 -0.3155 -0.5158
  188MOL0     N25262   8.631   7.555   3.925 -0.8858 -0.1415 -0.6721
  188MOL0     C25263   8.761   7.523   3.926  0.4139  0.2837 -0.8534
  188MOL0     C25264   8.771   7.405   4.001  0.4302  0.3337  0.0115
  188MOL0     C25265   8.884   7.329   4.048  0.3059 -0.3598  0.1828
  188MOL0     C25266   9.017   7.413   4.082 -0.9430  0.5600  0.2604
  188MOL0     C25267   9.102   7.433   3.957 -0.6788  0.9903  0.0403
  188MOL0     C25268   9.252   7.447   4.000 -0.2821 -0.1434  0.7527
  188MOL0     O25269   9.321   7.536   3.903  0.9916  0.2618 -0.0117
  188MOL0     C25270   9.448   7.580   3.921  0.1872 -0.7639  0.6947
  188MOL0     C25271   9.503   7.680   3.831  0.7214 -0.6261  1.1134
  188MOL0     C25272   9.639   7.724   3.842 -0.3664 -1.2356  0.6058
  188MOL0     C25273   9.688   7.831   3.741 -0.9936  0.1188  0.3493
  188MOL0     C25274   9.721   7.677   3.953  0.4538  0.0540 -0.3137
  188MOL0     C25275   9.855   7.732   3.997  0.2753 -1.0587 -0.2310
  188MOL0     O25276   9.919   7.673   4.099  0.7714  0.7540  0.0114
  188MOL0     C25277  10.042   7.720   4.138 -0.2681 -0.0676 -0.4888
  188MOL0     C25278  10.046   7.843   4.202 -0.6101 -0.5382 -0.4503
  188MOL0     C25279  10.167   7.908   4.220 -0.4779  0.9300  0.4202
  188MOL0     C25280  10.286   7.852   4.173 -0.2024 -0.1724 -0.3838
  188MOL0     O25281  10.408   7.916   4.185 -0.3100  0.4718 -0.2507
  188MOL0     C25282  10.511   7.838   4.259  0.1757 -0.3933 -0.6167
  188MOL0     C25283  10.618   7.933   4.314  0.7269 -0.8705  0.3279
  188MOL0     C25284  10.732   7.855   4.388 -0.8946  0.4710 -0.1275
  188MOL0     C25285  10.768   7.709   4.344  0.7672 -0.1682  0.6506
  188MOL0     C25286  10.889   7.670   4.429 -0.2367 -1.0803  0.0174
  188MOL0     C25287  10.912   7.521   4.408 -0.9956  0.9239 -0.0053
  188MOL0     C25288  11.018   7.475   4.503 -0.7940 -0.2606  0.3363
  188MOL0     C25289  11.020   7.318   4.482  0.0738 -0.7678 -0.6411
  188MOL0    Cl25290  10.872   7.246   4.558 -0.3112  0.4288  0.5276
  188MOL0     C25291  10.281   7.726   4.117 -0.0761 -0.0058 -0.6222
  188MOL0     C25292  10.163   7.663   4.094  0.4411  1.0718  0.6184
  188MOL0     O25293   9.898   7.833   3.938  0.1923  0.3074  0.1291
  188MOL0     C25294   9.667   7.577   4.039 -0.7058 -0.1024  0.0486
  188MOL0     C25295   9.531   7.534   4.024 -0.3606  0.2872  0.7177
  188MOL0     N25296   8.637   7.359   4.028 -1.0499  1.0384 -0.1921
  188MOL0     N25297   8.562   7.457   3.992 -0.4876 -0.1192 -0.2242
  188MOL0     C25298   9.180   8.374   3.370  0.1887 -0.2597  0.0591
  188MOL0     C25299   9.303   8.430   3.333 -0.1566  0.8134  0.6459
  188MOL0     C25300   9.600   8.780   3.322 -0.7266 -0.8245  0.2676
  188MOL0     C25301   9.621   8.913   3.338  0.1885 -0.3396  1.0025
  188MOL0     C25302   9.745   8.971   3.317  0.1981 -0.1191 -0.3508
  188MOL0     C25303   9.861   8.889   3.282  1.4037 -0.7621 -0.0564
  188MOL0     O25304   9.976   8.961   3.268  0.0919  0.4943 -0.8074
  188MOL0     C25305  10.069   8.893   3.185  0.6991  0.4102  0.2853
  188MOL0     C25306  10.181   8.986   3.154  0.2124  0.6397  0.4434
  188MOL0     C25307  10.262   9.014   3.283  1.0099 -0.1363 -0.1051
  188MOL0     C25308  10.373   9.100   3.254  0.1223 -0.0665  1.1480
  188MOL0     C25309  10.341   9.241   3.259  0.4075  0.0285  0.6684
  188MOL0     C25310  10.292   9.355   3.250 -0.1533  1.1602 -1.2553
  188MOL0     C25311   9.833   8.756   3.245 -0.3743 -0.3452  0.3642
  188MOL0     C25312   9.705   8.698   3.263  0.4122 -1.0189  0.4509
  188MOL0     H25313   9.384   8.574   3.637  0.2752 -1.0106 -0.4600
  188MOL0     H25314   9.164   8.476   3.697 -2.4552  0.9463 -0.1779
  188MOL0     H25315   8.954   8.418   3.724  0.9198  0.9468 -0.2250
  188MOL0     H25316   8.877   8.476   3.585 -1.7854 -0.8028  0.1339
  188MOL0     H25317   8.706   8.333   3.714 -2.1063 -1.1597 -1.3355
  188MOL0     H25318   8.728   8.271   3.559  1.0511  1.3634 -1.5514
  188MOL0     H25319   8.844   8.068   3.651  1.4074  0.7940 -0.8484
  188MOL0     H25320   8.908   8.156   3.780  0.3818 -1.6150 -0.4787
  188MOL0     H25321   8.677   8.173   3.887 -0.9935  2.2674 -1.4358
  188MOL0     H25322   8.609   8.103   3.737 -0.5013  1.4478  0.8305
  188MOL0     H25323   8.751   7.890   3.783  2.3790  0.7165  0.4601
  188MOL0     H25324   8.798   7.958   3.934  0.7174  0.2275 -1.3447
  188MOL0     H25325   8.565   7.995   4.014  1.6996 -2.2733  2.2194
  188MOL0     H25326   8.501   7.950   3.863 -0.9150 -0.9858  1.1900
  188MOL0     H25327   8.686   7.764   4.034 -1.2474 -0.4185  0.9166
  188MOL0     H25328   8.521   7.770   4.052  1.2812 -1.3119  1.3438
  188MOL0     H25329   8.638   7.709   3.776  0.2391 -0.4456 -0.2123
  188MOL0     H25330   8.473   7.680   3.836 -0.7368 -0.7295  1.1307
  188MOL0     H25331   8.839   7.590   3.893 -0.2860  0.9539 -1.1766
  188MOL0     H25332   8.852   7.271   4.135 -3.5830  0.9389 -0.1816
  188MOL0     H25333   8.909   7.264   3.964  0.2407 -0.4112  0.2039
  188MOL0     H25334   9.078   7.351   4.147  1.3696  1.6940 -0.7080
  188MOL0     H25335   8.993   7.502   4.141  0.4784  0.0896  1.5976
  188MOL0     H25336   9.071   7.523   3.903  1.2001  0.0631 -2.8479
  188MOL0     H25337   9.095   7.356   3.879  1.7991  0.4622  0.2662
  188MOL0     H25338   9.306   7.352   4.008 -0.7133 -0.4013  0.6243
  188MOL0     H25339   9.260   7.503   4.093 -0.0837  0.5554  0.3261
  188MOL0     H25340   9.437   7.730   3.760  0.7559  1.3720  2.4152
  188MOL0     H25341   9.768   7.784   3.683 -1.5402 -3.8099  2.4424
  188MOL0     H25342   9.613   7.858   3.667 -0.2448 -1.2620 -0.9847
  188MOL0     H25343   9.729   7.916   3.796  1.4937 -0.0466 -1.0544
  188MOL0     H25344   9.955   7.886   4.242 -0.0228 -0.0056  0.3546
  188MOL0     H25345  10.176   8.005   4.267  1.2278  0.8098  0.4183
  188MOL0     H25346  10.475   7.766   4.333  3.5285 -0.7877  0.8239
  188MOL0     H25347  10.556   7.787   4.174  1.2765 -2.3711  1.0676
  188MOL0     H25348  10.672   7.997   4.244 -0.4863 -0.7762 -0.5413
  188MOL0     H25349  10.567   7.993   4.390  1.8306  1.2785 -0.5472
  188MOL0     H25350  10.694   7.856   4.491 -0.9632 -0.1117 -0.1441
  188MOL0     H25351  10.823   7.917   4.382 -1.6281  1.5136 -0.8719
  188MOL0     H25352  10.689   7.636   4.363  0.3816 -0.1588 -0.7868
  188MOL0     H25353  10.786   7.708   4.236  0.9494 -0.9005  0.6806
  188MOL0     H25354  10.860   7.686   4.534 -1.2731  0.1008 -0.4167
  188MOL0     H25355  10.974   7.730   4.398  0.1822 -0.9035  1.4182
  188MOL0     H25356  10.816   7.476   4.433 -1.4172  1.2212 -1.0606
  188MOL0     H25357  10.939   7.499   4.304 -1.1921 -0.3838  0.2017
  188MOL0     H25358  10.994   7.503   4.606 -0.0964  1.4947  0.0625
  188MOL0     H25359  11.112   7.529   4.488  1.5483 -4.4383 -1.9970
  188MOL0     H25360  11.107   7.276   4.534  1.1444  2.5967  0.5727
  188MOL0     H25361  11.033   7.287   4.378  0.5782 -1.9282 -0.2531
  188MOL0     H25362  10.378   7.684   4.093  0.5550  0.9141  0.2392
  188MOL0     H25363  10.161   7.573   4.034 -2.5365  1.5545 -0.1776
  188MOL0     H25364   9.716   7.534   4.126 -0.6074 -0.7604 -0.3261
  188MOL0     H25365   9.510   7.454   4.094  2.8767 -2.4110 -1.0765
  188MOL0     H25366   9.124   8.307   3.307 -1.7725  1.1535  0.1804
  188MOL0     H25367   9.350   8.406   3.238 -1.1284  1.2479  0.0388
  188MOL0     H25368   9.540   8.974   3.377  0.8170  0.9091  0.4249
  188MOL0     H25369   9.748   9.076   3.346  0.5754 -0.2312  0.0246
  188MOL0     H25370  10.102   8.808   3.246 -0.3575 -2.7700 -3.1999
  188MOL0     H25371  10.024   8.848   3.097  0.9907 -2.1693  1.3640
  188MOL0     H25372  10.136   9.078   3.118  0.5904  0.1291 -1.4398
  188MOL0     H25373  10.240   8.957   3.066 -0.3455  1.1340 -0.0980
  188MOL0     H25374  10.298   8.916   3.314 -1.1997 -2.4967 -4.1615
  188MOL0     H25375  10.198   9.061   3.359  0.0419  0.8018 -1.4391
  188MOL0     H25376  10.425   9.075   3.161 -1.5661  1.7209 -0.3632
  188MOL0     H25377  10.439   9.091   3.341 -0.3195  0.0750  1.5012
  188MOL0     H25378  10.254   9.454   3.267  1.7199  1.3672  2.7030
  188MOL0     H25379   9.904   8.687   3.201 -0.2826  0.5241 -0.8975
  188MOL0     H25380   9.683   8.596   3.232 -0.0810  0.0451 -3.2143
  189MOL0     O25381   3.305   1.540   0.113 -0.4757 -0.9274  0.0178
  189MOL0     C25382   3.402   1.542   0.034  0.3951 -0.1219  0.4914
  189MOL0     O25383   3.402   1.596  -0.091 -0.6902  0.2725 -0.2761
  189MOL0     C25384   3.287   1.623  -0.161  0.0888 -0.3345 -0.3512
  189MOL0     C25385   3.303   1.670  -0.297 -0.3454 -0.3082  0.4581
  189MOL0     C25386   3.193   1.689  -0.388 -0.0852 -0.1508  0.4206
  189MOL0     C25387   3.062   1.680  -0.344 -0.4868 -0.0970 -0.9614
  189MOL0     O25388   2.966   1.696  -0.438 -0.5714  0.3328  0.4207
  189MOL0     C25389   2.832   1.725  -0.389 -0.6851 -0.1904 -0.7366
  189MOL0     C25390   2.741   1.747  -0.506  0.2531  0.2206  0.0116
  189MOL0     C25391   2.595   1.757  -0.448 -0.0796 -0.7744  0.1548
  189MOL0     C25392   2.497   1.832  -0.530 -0.3277  0.2465  0.8979
  189MOL0     C25393   2.355   1.824  -0.485  0.1817 -0.0444  0.4466
  189MOL0     C25394   2.280   1.683  -0.488  0.6463  0.6084  0.0203
  189MOL0     C25395   2.128   1.681  -0.473  0.2645  0.5085 -0.3155
  189MOL0     C25396   2.056   1.551  -0.520 -0.4809 -0.2590  0.4505
  189MOL0     N25397   1.917   1.547  -0.462 -0.6347  0.0837  0.1768
  189MOL0     C25398   1.838   1.658  -0.451  0.6753 -0.5743 -1.4524
  189MOL0     C25399   1.727   1.618  -0.383 -0.4834 -0.7377 -0.2124
  189MOL0     C25400   1.611   1.699  -0.329 -0.2031 -0.3500 -0.2304
  189MOL0     C25401   1.535   1.774  -0.442 -0.0259 -1.0368  0.0039
  189MOL0     C25402   1.510   1.683  -0.550  0.0275 -0.5529 -0.4005
  189MOL0     C25403   1.392   1.736  -0.641  0.2843 -0.1391  0.1396
  189MOL0     O25404   1.262   1.719  -0.572  0.4955  0.2537 -0.0124
  189MOL0     C25405   1.157   1.717  -0.660  0.1914 -0.2747 -0.2705
  189MOL0     C25406   1.162   1.791  -0.779  0.1096  1.1085 -0.2482
  189MOL0     C25407   1.048   1.816  -0.847 -0.3702 -0.1642  0.2308
  189MOL0     C25408   1.072   1.903  -0.963 -0.1344 -0.1526 -0.6150
  189MOL0     C25409   0.917   1.775  -0.803 -0.9598  0.3376 -0.0504
  189MOL0     C25410   0.787   1.798  -0.874 -0.4904 -0.3970 -0.8729
  189MOL0     O25411   0.674   1.746  -0.820  0.0248 -0.7305  0.0519
  189MOL0     C25412   0.553   1.767  -0.889  0.6018 -0.5935  0.5986
  189MOL0     C25413   0.460   1.861  -0.846  0.6838 -0.4826  0.0420
  189MOL0     C25414   0.350   1.880  -0.930  1.5803  0.0757  0.2612
  189MOL0     C25415   0.333   1.820  -1.055 -0.0158 -0.4216  0.7994
  189MOL0     O25416   0.236   1.862  -1.145 -0.7067 -0.7864  0.2156
  189MOL0     C25417   0.121   1.927  -1.090  0.3698  0.0834  0.9481
  189MOL0     C25418   0.022   1.952  -1.204  0.5024 -0.3766  0.2531
  189MOL0     C25419  -0.070   1.828  -1.231 -0.6865 -0.1654  0.4029
  189MOL0     C25420  -0.191   1.834  -1.140  0.6764  0.5636 -0.4214
  189MOL0     C25421  -0.300   1.722  -1.157 -0.3477 -0.9084  0.1318
  189MOL0     C25422  -0.249   1.578  -1.167  0.8914 -0.3170  0.0541
  189MOL0     C25423  -0.178   1.538  -1.037  0.1160  1.0045  0.3891
  189MOL0     C25424  -0.186   1.379  -1.017 -0.2552 -0.8095 -0.5536
  189MOL0    Cl25425  -0.076   1.326  -0.889 -0.2965  0.0573 -0.0001
  189MOL0     C25426   0.422   1.720  -1.094 -0.5581 -0.7755  0.3124
  189MOL0     C25427   0.535   1.700  -1.014  0.5755 -0.2818  0.0136
  189MOL0     O25428   0.796   1.865  -0.979  0.0526  0.2337 -0.3419
  189MOL0     C25429   0.921   1.688  -0.685  0.6628 -1.1240  0.5576
  189MOL0     C25430   1.038   1.664  -0.616 -0.5670 -0.5362 -0.4788
  189MOL0     N25431   1.752   1.487  -0.352  0.1268  0.2737 -0.1452
  189MOL0     N25432   1.866   1.447  -0.393 -0.4009  0.2829  0.3093
  189MOL0     C25433   3.041   1.638  -0.218 -0.4707  0.4204 -0.3301
  189MOL0     C25434   3.154   1.615  -0.135  0.3089  0.3804 -0.6041
  189MOL0     C25435   3.539   1.508   0.086 -0.3028 -0.4597 -0.6827
  189MOL0     C25436   3.654   1.535   0.020 -0.4692 -1.0344 -0.1737
  189MOL0     C25437   3.780   1.493   0.057  0.6457 -0.2986 -0.3967
  189MOL0     C25438   3.794   1.423   0.176  0.3969 -0.4939 -0.2280
  189MOL0     O25439   3.904   1.361   0.202 -0.3168 -0.2074  0.7375
  189MOL0     C25440   3.907   1.238   0.284  0.2089 -0.6044  0.6086
  189MOL0     C25441   4.040   1.180   0.278 -0.2886 -0.0034  0.4438
  189MOL0     C25442   4.153   1.275   0.319 -0.5356  0.5134  0.2697
  189MOL0     C25443   4.289   1.203   0.289  0.0304  0.1899  0.2173
  189MOL0     C25444   4.395   1.306   0.285  0.5128 -0.0639 -0.4304
  189MOL0     C25445   4.474   1.397   0.263  0.1064 -0.0393 -0.2420
  189MOL0     C25446   3.680   1.395   0.247  0.7246  0.0402  0.1100
  189MOL0     C25447   3.553   1.434   0.205  0.0338  0.5654  0.3347
  189MOL0     H25448   3.402   1.667  -0.342 -1.8320 -1.2052 -3.1198
  189MOL0     H25449   3.205   1.712  -0.494 -0.2882  0.7679  0.5888
  189MOL0     H25450   2.795   1.633  -0.343 -0.6120  0.4974  0.7637
  189MOL0     H25451   2.829   1.813  -0.323 -0.6018  1.1052 -2.4077
  189MOL0     H25452   2.768   1.837  -0.562 -1.5467 -0.3755 -1.9491
  189MOL0     H25453   2.771   1.665  -0.572  2.2245  2.2439 -1.7841
  189MOL0     H25454   2.556   1.659  -0.418 -0.1014 -0.3326  1.6876
  189MOL0     H25455   2.605   1.811  -0.353  2.8634  1.0586 -1.0671
  189MOL0     H25456   2.530   1.937  -0.525  0.9325 -0.1106  0.6125
  189MOL0     H25457   2.505   1.792  -0.632 -0.1517 -1.1427  1.4323
  189MOL0     H25458   2.352   1.873  -0.387  4.4221  1.0570  0.2385
  189MOL0     H25459   2.303   1.880  -0.564  0.8193  0.0634  0.0980
  189MOL0     H25460   2.296   1.640  -0.588 -1.4952 -0.2826  0.0157
  189MOL0     H25461   2.333   1.620  -0.417 -0.5825 -1.0955 -0.5060
  189MOL0     H25462   2.097   1.689  -0.368  3.1754  1.1680  0.5745
  189MOL0     H25463   2.084   1.761  -0.532 -1.7992 -0.4601 -0.1893
  189MOL0     H25464   2.113   1.466  -0.483 -2.1837 -0.4395  2.8881
  189MOL0     H25465   2.056   1.545  -0.630 -0.5977  3.3104  0.1416
  189MOL0     H25466   1.861   1.756  -0.494 -1.1965 -1.6811 -5.4775
  189MOL0     H25467   1.545   1.639  -0.266 -0.3761  2.1704  2.1869
  189MOL0     H25468   1.644   1.779  -0.262 -2.6983  0.6973 -0.1682
  189MOL0     H25469   1.596   1.858  -0.474  1.1987 -2.4018 -1.4232
  189MOL0     H25470   1.446   1.818  -0.397  0.6967 -0.4480  0.9035
  189MOL0     H25471   1.476   1.594  -0.496 -2.4306 -0.4227 -1.6105
  189MOL0     H25472   1.598   1.661  -0.612 -0.5373  0.2443 -1.5312
  189MOL0     H25473   1.395   1.667  -0.726 -1.2026 -2.1620  1.6427
  189MOL0     H25474   1.411   1.842  -0.661 -1.6455  0.8725  3.0916
  189MOL0     H25475   1.260   1.819  -0.817  0.2881  0.6788 -0.1193
  189MOL0     H25476   1.044   1.839  -1.047  1.2578  0.3586 -1.5069
  189MOL0     H25477   1.016   1.997  -0.966  1.9877  1.5267  3.5955
  189MOL0     H25478   1.177   1.920  -0.987 -0.2092  1.4298  0.0533
  189MOL0     H25479   0.468   1.930  -0.763 -1.2411 -2.9475  2.4732
  189MOL0     H25480   0.276   1.954  -0.901 -0.4348 -1.3425 -0.9869
  189MOL0     H25481   0.071   1.873  -1.009 -3.5379  0.5772 -0.8837
  189MOL0     H25482   0.142   2.022  -1.041  1.9500  1.0945 -1.4927
  189MOL0     H25483  -0.046   2.035  -1.184 -1.0434 -2.1504  2.8738
  189MOL0     H25484   0.083   1.973  -1.292  1.9334  0.0538  1.2968
  189MOL0     H25485  -0.010   1.738  -1.217  0.1680  0.2863 -0.2646
  189MOL0     H25486  -0.104   1.833  -1.335  0.6006  1.5067  0.0142
  189MOL0     H25487  -0.152   1.834  -1.038  2.6306 -0.7113 -1.1228
  189MOL0     H25488  -0.236   1.934  -1.149 -0.4900  0.6921  4.1456
  189MOL0     H25489  -0.361   1.746  -1.244  1.0402 -2.5622 -1.3883
  189MOL0     H25490  -0.359   1.723  -1.065  0.0460 -0.4665  0.3843
  189MOL0     H25491  -0.333   1.512  -1.185  0.8918  0.1715 -1.9389
  189MOL0     H25492  -0.169   1.565  -1.241  0.5302 -1.4199 -0.1474
  189MOL0     H25493  -0.213   1.587  -0.946  0.8221  0.3552  1.0297
  189MOL0     H25494  -0.074   1.570  -1.046  0.6925 -0.5755  1.1264
  189MOL0     H25495  -0.161   1.327  -1.110  1.8812 -1.0084  0.0693
  189MOL0     H25496  -0.285   1.348  -0.982  1.1828  0.2309  5.7182
  189MOL0     H25497   0.406   1.663  -1.185 -1.3238 -0.3152  0.1486
  189MOL0     H25498   0.611   1.633  -1.052 -0.1963 -0.8652 -0.5525
  189MOL0     H25499   0.826   1.647  -0.653  0.0595  0.9523  1.6219
  189MOL0     H25500   1.024   1.614  -0.521 -0.9532  1.0086  0.3037
  189MOL0     H25501   2.943   1.617  -0.178  0.2398 -0.5035  1.0208
  189MOL0     H25502   3.118   1.586  -0.036  2.2596 -3.3181 -0.7908
  189MOL0     H25503   3.646   1.603  -0.065 -0.5325  1.2479  1.5392
  189MOL0     H25504   3.862   1.505  -0.013 -0.3910  0.9164 -1.4287
  189MOL0     H25505   3.874   1.259   0.387  0.1693 -1.7718  0.8449
  189MOL0     H25506   3.844   1.160   0.242  0.1905  1.0920 -2.8641
  189MOL0     H25507   4.050   1.160   0.171  0.5483 -2.5410  0.9366
  189MOL0     H25508   4.045   1.083   0.329  0.3074 -0.7212 -0.9032
  189MOL0     H25509   4.155   1.295   0.426  2.7921 -2.8943  1.0613
  189MOL0     H25510   4.152   1.365   0.257  0.8807 -0.4730 -1.2686
  189MOL0     H25511   4.281   1.146   0.196  2.4528  1.0806 -0.6136
  189MOL0     H25512   4.300   1.137   0.376 -0.6089  1.4794  1.3097
  189MOL0     H25513   4.552   1.470   0.248 -0.9565  1.0785 -0.4801
  189MOL0     H25514   3.686   1.321   0.326 -0.1461 -2.8561 -2.3187
  189MOL0     H25515   3.472   1.396   0.267  1.8780  0.4084  2.8212
  190MOL0     O25516   7.891   2.301   6.354 -0.6703 -0.5837 -0.0846
  190MOL0     C25517   7.998   2.256   6.310  0.2543 -0.4829  0.9020
  190MOL0     O25518   8.020   2.127   6.270  0.8582 -0.4222 -0.3512
  190MOL0     C25519   7.922   2.036   6.308  0.5269 -0.5949  0.0575
  190MOL0     C25520   7.806   2.019   6.232 -0.3143  0.4358  0.3194
  190MOL0     C25521   7.707   1.922   6.289  0.7510  0.0844  0.7797
  190MOL0     C25522   7.716   1.861   6.420 -0.5401 -0.2530 -0.8807
  190MOL0     O25523   7.628   1.773   6.482  0.4149  0.5675 -0.5214
  190MOL0     C25524   7.525   1.712   6.404  0.4714 -0.4336  0.6413
  190MOL0     C25525   7.443   1.610   6.487  0.9631  0.7914 -0.2460
  190MOL0     C25526   7.339   1.527   6.405 -0.4702  0.2785 -0.3799
  190MOL0     C25527   7.398   1.405   6.330 -0.5837 -0.4150  0.6432
  190MOL0     C25528   7.287   1.342   6.242 -0.2294 -0.1202  0.0704
  190MOL0     C25529   7.320   1.205   6.196 -0.3924 -0.5189 -0.4465
  190MOL0     C25530   7.220   1.147   6.103  0.2955  0.4471  0.1518
  190MOL0     C25531   7.268   1.021   6.051 -0.1315 -0.2283 -0.3378
  190MOL0     N25532   7.167   0.960   5.967 -0.2113  0.2929  0.6998
  190MOL0     C25533   7.045   0.922   6.008 -0.8513  0.0793  0.5838
  190MOL0     C25534   6.962   0.906   5.897 -0.8125  0.1227  0.2327
  190MOL0     C25535   6.818   0.872   5.900  1.3221 -0.4183  0.5751
  190MOL0     C25536   6.792   0.783   5.773  0.5385 -0.2168 -0.2778
  190MOL0     C25537   6.776   0.854   5.634 -0.9125 -0.1968  0.8028
  190MOL0     C25538   6.668   0.964   5.637  0.1740 -0.5181  0.4163
  190MOL0     O25539   6.535   0.903   5.663 -0.1885  0.7051  0.0109
  190MOL0     C25540   6.423   0.947   5.597  0.5095  0.8812  0.0354
  190MOL0     C25541   6.316   0.857   5.593 -0.2281 -0.0131 -0.1728
  190MOL0     C25542   6.195   0.888   5.535 -0.0060 -0.2006  0.2051
  190MOL0     C25543   6.095   0.774   5.528 -0.6278  1.0368  0.6100
  190MOL0     C25544   6.176   1.018   5.488  1.0890 -0.1148  0.3001
  190MOL0     C25545   6.032   1.062   5.450 -0.2083 -0.2022  0.4737
  190MOL0     O25546   5.930   0.978   5.442  0.0845 -0.6551  0.5612
  190MOL0     C25547   5.807   1.025   5.472 -0.0087 -0.0349  0.2346
  190MOL0     C25548   5.698   0.965   5.400  0.2821  0.0744  0.6243
  190MOL0     C25549   5.569   1.036   5.408 -0.2271  0.2976  0.3285
  190MOL0     C25550   5.548   1.134   5.502  0.3739 -0.1623  0.5379
  190MOL0     O25551   5.425   1.193   5.500 -0.0435  0.6149 -0.2692
  190MOL0     C25552   5.380   1.262   5.611  0.9609  0.1405  0.3977
  190MOL0     C25553   5.233   1.304   5.583 -0.3709  1.3346  0.2092
  190MOL0     C25554   5.146   1.182   5.555  0.1677  0.3727 -0.4082
  190MOL0     C25555   4.999   1.231   5.538  0.3090  0.1849  0.0963
  190MOL0     C25556   4.904   1.120   5.504  0.5365  0.6064 -0.4247
  190MOL0     C25557   4.762   1.169   5.514 -0.2485  0.1062  0.9818
  190MOL0     C25558   4.664   1.052   5.476 -0.8521  0.5852  0.3093
  190MOL0     C25559   4.522   1.117   5.476  0.0822 -0.2532  0.3799
  190MOL0    Cl25560   4.509   1.245   5.356 -0.1562 -0.4032 -0.0435
  190MOL0     C25561   5.652   1.180   5.575  0.1803 -0.1758 -0.3948
  190MOL0     C25562   5.778   1.132   5.563 -0.6709  0.9721 -0.2315
  190MOL0     O25563   6.031   1.185   5.443 -0.3185  0.1225 -0.1956
  190MOL0     C25564   6.281   1.114   5.490 -0.1165 -0.3070 -1.3358
  190MOL0     C25565   6.405   1.078   5.541 -0.2679 -0.8328  0.4618
  190MOL0     N25566   7.040   0.937   5.785  0.4750  0.2129 -0.5789
  190MOL0     N25567   7.162   0.968   5.834  0.2695 -0.1339  0.5708
  190MOL0     C25568   7.838   1.894   6.486 -0.3314 -0.8513 -0.2367
  190MOL0     C25569   7.939   1.969   6.424  0.6705 -0.1187  0.0356
  190MOL0     C25570   8.100   2.352   6.267 -0.4548 -0.2207  0.2045
  190MOL0     C25571   8.198   2.311   6.172  0.6120 -0.2328  0.6791
  190MOL0     C25572   8.296   2.394   6.118  0.7196  0.5483  0.1349
  190MOL0     C25573   8.300   2.528   6.157 -0.3211 -0.4107  0.7388
  190MOL0     O25574   8.404   2.601   6.097  0.0197  0.3424 -0.0334
  190MOL0     C25575   8.451   2.727   6.140  0.1799  0.3159 -0.0979
  190MOL0     C25576   8.580   2.765   6.073 -0.2031 -0.6096  1.1903
  190MOL0     C25577   8.697   2.659   6.078 -0.6655 -0.1249  0.0481
  190MOL0     C25578   8.835   2.729   6.042  0.2630 -0.2543 -0.3394
  190MOL0     C25579   8.874   2.828   6.146 -0.7871 -0.2259 -0.8047
  190MOL0     C25580   8.909   2.912   6.220  0.2425  0.5117 -0.0080
  190MOL0     C25581   8.204   2.576   6.251 -0.2561 -0.2952  0.1872
  190MOL0     C25582   8.119   2.481   6.318  0.0135 -0.3660  0.1852
  190MOL0     H25583   7.796   2.070   6.137  4.0675 -1.3486 -1.3775
  190MOL0     H25584   7.627   1.897   6.220  0.2895 -0.6580  1.5639
  190MOL0     H25585   7.456   1.785   6.362 -0.0898 -1.6184 -0.5549
  190MOL0     H25586   7.568   1.648   6.327  0.9321 -1.2892  1.5799
  190MOL0     H25587   7.502   1.541   6.546 -0.1123  0.3584  0.3571
  190MOL0     H25588   7.387   1.672   6.558 -3.0514 -1.2371 -1.3188
  190MOL0     H25589   7.258   1.495   6.471 -0.5052  0.7706 -0.1778
  190MOL0     H25590   7.291   1.590   6.330 -2.1055  0.2864  0.6444
  190MOL0     H25591   7.474   1.438   6.258 -1.4941 -2.5055 -1.4054
  190MOL0     H25592   7.449   1.333   6.393  1.7228 -0.9312 -1.6507
  190MOL0     H25593   7.203   1.323   6.309  0.2266 -0.1603  0.6355
  190MOL0     H25594   7.244   1.414   6.171  1.2673  0.4353 -0.3082
  190MOL0     H25595   7.417   1.210   6.145  0.7687 -0.7803  1.6117
  190MOL0     H25596   7.337   1.148   6.288 -0.0091  0.2445 -0.0312
  190MOL0     H25597   7.129   1.125   6.159 -0.5831 -0.0743 -1.4374
  190MOL0     H25598   7.193   1.212   6.019 -0.0936  0.2922  0.1552
  190MOL0     H25599   7.285   0.954   6.135  0.5648 -1.7362 -1.6139
  190MOL0     H25600   7.363   1.037   5.998  0.0129  0.7214  0.1748
  190MOL0     H25601   7.014   0.914   6.111 -1.0842  1.0644  0.5964
  190MOL0     H25602   6.799   0.804   5.983  2.0419 -2.2686 -0.6944
  190MOL0     H25603   6.758   0.963   5.897  1.5963 -0.1416  2.2997
  190MOL0     H25604   6.700   0.725   5.789  0.2380  0.6017  1.1161
  190MOL0     H25605   6.874   0.711   5.767 -1.1771 -2.6909  2.6390
  190MOL0     H25606   6.737   0.779   5.564 -0.9345 -0.6943  1.3318
  190MOL0     H25607   6.868   0.897   5.594 -0.7286 -0.9664  0.3635
  190MOL0     H25608   6.666   1.007   5.537 -0.5784 -2.8280 -0.6460
  190MOL0     H25609   6.688   1.045   5.708  0.4407 -0.5453  0.3709
  190MOL0     H25610   6.332   0.752   5.616 -0.2768 -0.2089 -0.9962
  190MOL0     H25611   6.129   0.680   5.572  1.4907  2.2117  1.6688
  190MOL0     H25612   6.011   0.804   5.591 -0.8902  1.5364  0.0356
  190MOL0     H25613   6.044   0.762   5.432  3.1734  0.1340 -1.5245
  190MOL0     H25614   5.714   0.891   5.324  0.7064  1.0857 -0.2976
  190MOL0     H25615   5.490   1.017   5.336  2.6799 -2.5682 -2.4426
  190MOL0     H25616   5.371   1.200   5.700  2.4138  2.2818  2.1484
  190MOL0     H25617   5.435   1.357   5.614 -0.0336  0.7771 -0.6809
  190MOL0     H25618   5.204   1.354   5.676  0.3220 -1.5077  2.0966
  190MOL0     H25619   5.233   1.372   5.498 -2.9168  0.7966 -0.3133
  190MOL0     H25620   5.148   1.113   5.640 -1.3672  0.0895 -0.5661
  190MOL0     H25621   5.185   1.122   5.472 -1.1624 -3.0099  1.1906
  190MOL0     H25622   4.968   1.298   5.618  0.2913  0.4575 -0.1385
  190MOL0     H25623   5.000   1.304   5.457  2.2930  0.5387  0.3882
  190MOL0     H25624   4.913   1.040   5.578 -0.0470 -0.2604 -1.2574
  190MOL0     H25625   4.927   1.073   5.408 -2.0361 -2.1048  0.1132
  190MOL0     H25626   4.737   1.205   5.615  2.9903  2.0037  1.2209
  190MOL0     H25627   4.746   1.259   5.455 -1.0792  0.8227  2.2489
  190MOL0     H25628   4.664   0.975   5.553  0.5628  0.1112 -0.1354
  190MOL0     H25629   4.689   1.011   5.377  1.8572  0.8468  0.8247
  190MOL0     H25630   4.500   1.160   5.574  2.6139  0.1147  0.8622
  190MOL0     H25631   4.453   1.035   5.451  0.0483 -1.3753  3.6258
  190MOL0     H25632   5.636   1.269   5.635  0.7455 -0.9676  0.9693
  190MOL0     H25633   5.858   1.180   5.618 -2.2893  1.3256  1.9432
  190MOL0     H25634   6.270   1.215   5.452  1.2053  0.6332  0.6126
  190MOL0     H25635   6.487   1.149   5.555 -0.2678  0.3217 -3.9112
  190MOL0     H25636   7.829   1.868   6.591 -2.7402  2.0691  0.4341
  190MOL0     H25637   8.022   1.998   6.488 -0.2147  0.4417  0.9495
  190MOL0     H25638   8.190   2.209   6.135  0.6594 -0.5480  1.5126
  190MOL0     H25639   8.376   2.354   6.057  1.2266  0.5960  0.7562
  190MOL0     H25640   8.376   2.789   6.091 -0.1498 -1.1884 -1.6141
  190MOL0     H25641   8.437   2.741   6.248 -3.9384 -0.2323 -0.3704
  190MOL0     H25642   8.618   2.859   6.114  0.9985  0.7767 -2.6916
  190MOL0     H25643   8.560   2.779   5.967  2.4669 -2.7080  0.3104
  190MOL0     H25644   8.681   2.578   6.006  3.0647 -0.6871 -0.3080
  190MOL0     H25645   8.693   2.612   6.176 -1.7784 -1.0502 -0.4168
  190MOL0     H25646   8.821   2.781   5.947 -3.4777  2.6487  1.5047
  190MOL0     H25647   8.909   2.650   6.033 -1.4953 -1.8410 -1.6911
  190MOL0     H25648   8.941   2.985   6.291 -0.0058 -1.6293  2.4298
  190MOL0     H25649   8.202   2.681   6.279 -0.3652 -0.4666  0.8346
  190MOL0     H25650   8.048   2.528   6.385 -2.6829  2.9334 -4.4615
  191MOL0     O25651  10.455   8.107   8.578  0.1457 -0.3188  0.1737
  191MOL0     C25652  10.445   8.149   8.691  0.4562 -0.4438 -0.2297
  191MOL0     O25653  10.327   8.180   8.750 -0.7164  0.3860  0.4171
  191MOL0     C25654  10.212   8.145   8.684 -0.0859  0.5199 -1.0832
  191MOL0     C25655  10.123   8.252   8.681 -0.5251 -0.4299  0.1085
  191MOL0     C25656   9.997   8.241   8.614 -0.3690 -0.4494 -0.7699
  191MOL0     C25657   9.962   8.116   8.559 -0.8820  0.4244  0.1345
  191MOL0     O25658   9.837   8.103   8.507 -0.2199  0.0792  0.0009
  191MOL0     C25659   9.802   7.994   8.423 -0.0569 -0.3337  0.2230
  191MOL0     C25660   9.685   8.030   8.329  0.4877 -0.8578 -0.5817
  191MOL0     C25661   9.655   7.908   8.241  0.1718 -0.3789 -0.2261
  191MOL0     C25662   9.553   7.937   8.129 -0.3320 -0.1816  0.3059
  191MOL0     C25663   9.492   7.802   8.080 -0.2511 -0.5002  0.0194
  191MOL0     C25664   9.405   7.821   7.955 -0.4326  0.0198  0.2673
  191MOL0     C25665   9.347   7.684   7.906 -0.0322  0.9368  0.1449
  191MOL0     C25666   9.247   7.630   8.006 -0.2779 -0.1611  0.7158
  191MOL0     N25667   9.126   7.719   8.018  0.4158 -0.0253 -0.0204
  191MOL0     C25668   9.038   7.733   7.915 -0.0234  0.5359 -1.0689
  191MOL0     C25669   8.942   7.811   7.972  0.7487  0.4034  0.4260
  191MOL0     C25670   8.828   7.856   7.893 -0.5937  0.2894  0.7006
  191MOL0     C25671   8.714   7.764   7.869 -0.3065  0.1554  0.7630
  191MOL0     C25672   8.639   7.723   7.991 -0.4474 -0.0181 -0.0131
  191MOL0     C25673   8.499   7.660   7.946 -0.7456  0.0230 -0.0158
  191MOL0     O25674   8.512   7.541   7.862 -0.1798 -0.3425 -0.4946
  191MOL0     C25675   8.398   7.497   7.794 -0.6960 -0.0421 -0.4548
  191MOL0     C25676   8.420   7.412   7.684  0.0611  0.2601  0.0013
  191MOL0     C25677   8.314   7.366   7.606 -0.5235 -0.7294 -0.0492
  191MOL0     C25678   8.356   7.300   7.479  0.7682 -0.0801  0.9745
  191MOL0     C25679   8.186   7.398   7.648 -0.2552  0.9418  0.6967
  191MOL0     C25680   8.068   7.347   7.571  0.4416 -0.1928 -0.1718
  191MOL0     O25681   7.948   7.421   7.575 -0.6545 -0.2240 -0.0855
  191MOL0     C25682   7.840   7.398   7.494  0.5668  0.2191  0.3280
  191MOL0     C25683   7.841   7.360   7.364  0.0804  0.6248 -0.0307
  191MOL0     C25684   7.717   7.331   7.302 -0.3704 -0.1523  0.1632
  191MOL0     C25685   7.590   7.356   7.369  0.4878 -0.0780  0.6212
  191MOL0     O25686   7.477   7.329   7.305  0.2331  0.0568 -0.0702
  191MOL0     C25687   7.355   7.399   7.327  0.9761 -0.4942  0.5103
  191MOL0     C25688   7.263   7.371   7.209 -0.2504  0.4785 -0.1060
  191MOL0     C25689   7.110   7.397   7.242 -0.3829  0.5406  0.2399
  191MOL0     C25690   7.087   7.544   7.289  0.2256  0.5550  0.7044
  191MOL0     C25691   6.955   7.560   7.372 -0.1358  0.7936  0.2783
  191MOL0     C25692   6.839   7.529   7.284  1.2302  0.0910  0.4952
  191MOL0     C25693   6.711   7.556   7.364 -0.7130  0.5531  0.7863
  191MOL0     C25694   6.574   7.503   7.304 -0.4775 -0.2940 -0.0112
  191MOL0    Cl25695   6.437   7.551   7.397 -0.4631 -0.1145 -0.0886
  191MOL0     C25696   7.595   7.414   7.497 -0.4203  0.7547  0.7315
  191MOL0     C25697   7.716   7.426   7.558 -0.3999 -0.2657 -1.3495
  191MOL0     O25698   8.074   7.239   7.516  0.0208  1.1545  0.3308
  191MOL0     C25699   8.166   7.477   7.755  0.3371 -1.1001  0.1767
  191MOL0     C25700   8.268   7.538   7.824  0.1435 -0.3665 -0.1572
  191MOL0     N25701   8.985   7.858   8.099  0.8201 -0.2435 -0.0832
  191MOL0     N25702   9.091   7.793   8.130  0.2890 -0.0120 -0.1424
  191MOL0     C25703  10.049   8.004   8.573 -0.0166  0.0587 -0.3171
  191MOL0     C25704  10.175   8.020   8.619 -0.6188 -0.9835 -0.2736
  191MOL0     C25705  10.574   8.183   8.761  0.8691  0.0611 -0.1500
  191MOL0     C25706  10.587   8.297   8.838  0.1806  0.4777 -0.6846
  191MOL0     C25707  10.701   8.322   8.909 -0.3203 -0.2646 -0.3655
  191MOL0     C25708  10.800   8.225   8.913 -0.1687  0.5289 -0.6386
  191MOL0     O25709  10.915   8.265   8.980 -0.5079 -0.6612  0.6928
  191MOL0     C25710  11.012   8.167   9.016 -0.1298  0.7392  0.2852
  191MOL0     C25711  11.143   8.247   9.065  0.3134  0.3451  0.5942
  191MOL0     C25712  11.252   8.180   9.139 -0.6228  1.1568 -0.5261
  191MOL0     C25713  11.391   8.212   9.091  0.2483 -0.1686 -0.3826
  191MOL0     C25714  11.484   8.157   9.187 -0.1785 -0.0187  0.1138
  191MOL0     C25715  11.575   8.114   9.255 -0.0549 -0.1469 -0.6742
  191MOL0     C25716  10.788   8.109   8.829 -0.8619 -0.7824  0.7903
  191MOL0     C25717  10.674   8.083   8.756 -0.2228 -0.2326 -0.4600
  191MOL0     H25718  10.136   8.356   8.707  0.0010 -0.7798  1.2750
  191MOL0     H25719   9.929   8.323   8.598 -0.1153 -0.2853 -1.0334
  191MOL0     H25720   9.891   7.973   8.363 -0.2214 -0.5485  0.0547
  191MOL0     H25721   9.773   7.908   8.485 -1.5487  1.6053  2.3595
  191MOL0     H25722   9.594   8.055   8.383  0.8812  1.5937 -0.9526
  191MOL0     H25723   9.705   8.122   8.274 -0.1993 -0.8338 -0.7984
  191MOL0     H25724   9.743   7.870   8.189 -0.6171 -0.5467 -1.4954
  191MOL0     H25725   9.621   7.845   8.324 -1.6031  1.1706  0.2912
  191MOL0     H25726   9.472   7.997   8.170 -0.8066  0.6771 -1.7983
  191MOL0     H25727   9.593   7.997   8.047  1.9338  0.3389  1.6922
  191MOL0     H25728   9.565   7.720   8.075  0.3926  0.1245 -2.0515
  191MOL0     H25729   9.428   7.769   8.162 -1.7362 -0.8748 -1.2336
  191MOL0     H25730   9.325   7.895   7.970 -2.2109 -1.3809 -1.6905
  191MOL0     H25731   9.474   7.871   7.886 -2.7147  2.9885 -0.0842
  191MOL0     H25732   9.310   7.683   7.803 -2.9997 -0.7173  1.0775
  191MOL0     H25733   9.432   7.617   7.916  1.3910  2.7066  0.3259
  191MOL0     H25734   9.294   7.627   8.105  3.2924 -0.2712 -0.8339
  191MOL0     H25735   9.221   7.528   7.974  0.4508  0.1211 -0.8229
  191MOL0     H25736   9.057   7.691   7.816 -0.5320  0.5279 -1.1665
  191MOL0     H25737   8.777   7.940   7.941 -0.4317  0.5958  0.3393
  191MOL0     H25738   8.868   7.897   7.800 -2.7277  1.2870  0.1509
  191MOL0     H25739   8.758   7.678   7.816  1.1610 -0.3224  2.6307
  191MOL0     H25740   8.640   7.818   7.810 -1.0515  0.2883  1.7943
  191MOL0     H25741   8.621   7.807   8.059 -2.1859 -1.8202  1.9006
  191MOL0     H25742   8.694   7.650   8.050 -2.0362 -3.5690 -2.5363
  191MOL0     H25743   8.436   7.735   7.897  1.2069  0.9075 -1.2470
  191MOL0     H25744   8.442   7.619   8.031 -1.1771 -4.1671 -2.0422
  191MOL0     H25745   8.525   7.393   7.664  0.3996 -0.0080  1.8709
  191MOL0     H25746   8.355   7.191   7.489  0.4468 -0.6364 -3.4386
  191MOL0     H25747   8.289   7.319   7.395  0.2743 -6.1509 -0.4720
  191MOL0     H25748   8.455   7.333   7.447  0.4461  1.0740  1.1298
  191MOL0     H25749   7.929   7.354   7.302  0.1151  0.2188  0.0532
  191MOL0     H25750   7.714   7.287   7.203 -0.0007 -0.1180  0.1349
  191MOL0     H25751   7.309   7.364   7.420  0.2996 -2.1286 -0.3945
  191MOL0     H25752   7.377   7.506   7.333 -2.1538  0.1942  1.4773
  191MOL0     H25753   7.291   7.440   7.129  0.5416  2.5207  1.8630
  191MOL0     H25754   7.280   7.270   7.169  1.8528 -0.3667  2.5978
  191MOL0     H25755   7.060   7.331   7.314  1.1703 -0.7991  0.1396
  191MOL0     H25756   7.053   7.376   7.151  0.8874  1.4317 -0.7778
  191MOL0     H25757   7.165   7.572   7.361  2.2727  0.4033 -1.3411
  191MOL0     H25758   7.099   7.604   7.199  1.7799 -1.3830 -0.4688
  191MOL0     H25759   6.948   7.657   7.422 -2.3902  0.0289  1.5962
  191MOL0     H25760   6.958   7.489   7.455 -1.1036 -1.6436 -1.6371
  191MOL0     H25761   6.839   7.595   7.197  1.0237  0.1290  0.5225
  191MOL0     H25762   6.838   7.425   7.251  1.1030  0.0863  0.5143
  191MOL0     H25763   6.709   7.665   7.368  1.5716  0.6960 -0.6380
  191MOL0     H25764   6.727   7.509   7.462  0.3936 -2.0417 -0.5467
  191MOL0     H25765   6.584   7.394   7.302 -1.4844 -0.3808 -1.0211
  191MOL0     H25766   6.577   7.525   7.197 -1.9793  1.4630  0.2664
  191MOL0     H25767   7.506   7.436   7.556  0.2756  1.9115  1.3860
  191MOL0     H25768   7.717   7.476   7.654 -4.7194 -1.6162 -0.4308
  191MOL0     H25769   8.063   7.504   7.781  0.1623  0.5437 -1.9635
  191MOL0     H25770   8.239   7.601   7.907 -0.2157 -1.9890  0.9963
  191MOL0     H25771  10.026   7.907   8.530 -1.7827  0.5574 -0.5773
  191MOL0     H25772  10.247   7.939   8.616 -0.8992 -1.1909 -1.8350
  191MOL0     H25773  10.513   8.377   8.835  1.5497  1.7609 -2.3831
  191MOL0     H25774  10.718   8.414   8.964 -1.1761  0.4219 -1.2196
  191MOL0     H25775  10.975   8.104   9.097 -2.6328 -1.8139 -2.6214
  191MOL0     H25776  11.043   8.103   8.934 -0.9236 -0.8341  1.1743
  191MOL0     H25777  11.114   8.336   9.123  1.4376 -1.6140  4.4885
  191MOL0     H25778  11.179   8.292   8.972  0.1309 -0.1034  0.3012
  191MOL0     H25779  11.223   8.075   9.154 -1.4701  1.2870 -1.1488
  191MOL0     H25780  11.253   8.213   9.243  4.2566 -3.0341  1.1758
  191MOL0     H25781  11.402   8.320   9.073  0.3651  0.0905  1.1407
  191MOL0     H25782  11.404   8.168   8.992 -0.6766 -1.6622  0.1354
  191MOL0     H25783  11.644   8.070   9.323 -0.2553  0.7089  0.1015
  191MOL0     H25784  10.874   8.046   8.809 -0.2571  0.7928 -1.9941
  191MOL0     H25785  10.667   7.981   8.721 -2.0774 -0.8002  1.3500
  192MOL0     O25786   4.875   2.292   4.479 -0.1620 -0.6663 -0.0872
  192MOL0     C25787   4.948   2.330   4.386 -0.1523  0.5842 -0.4670
  192MOL0     O25788   4.898   2.375   4.262  0.7728 -0.7329  0.2660
  192MOL0     C25789   4.764   2.354   4.239  0.2853 -0.0658  0.1960
  192MOL0     C25790   4.679   2.459   4.235  0.0532 -0.5306 -0.0364
  192MOL0     C25791   4.543   2.441   4.219  0.2134  0.3005 -0.0324
  192MOL0     C25792   4.498   2.308   4.186  0.2214 -0.1131 -0.6598
  192MOL0     O25793   4.363   2.278   4.171 -0.0564 -0.4924 -0.7858
  192MOL0     C25794   4.279   2.374   4.112  0.8953  0.0736  0.4160
  192MOL0     C25795   4.138   2.313   4.104  0.8434 -0.6197 -0.2158
  192MOL0     C25796   4.026   2.417   4.090 -0.3202  0.1696  0.1598
  192MOL0     C25797   3.913   2.348   4.014 -0.4415 -0.4111  0.6878
  192MOL0     C25798   3.777   2.407   4.030  0.0412 -0.0207  1.1127
  192MOL0     C25799   3.759   2.550   3.966  0.7763 -0.3789 -0.6136
  192MOL0     C25800   3.613   2.595   3.960 -0.5006 -0.7750  0.1571
  192MOL0     C25801   3.552   2.617   4.098  0.3437 -0.1749 -0.1274
  192MOL0     N25802   3.425   2.682   4.104  0.1259  1.1556  0.0139
  192MOL0     C25803   3.297   2.626   4.102 -0.1870 -0.4765  0.2195
  192MOL0     C25804   3.219   2.734   4.133 -0.2627 -0.1173  0.2204
  192MOL0     C25805   3.073   2.723   4.152  0.0480  0.8868 -0.4458
  192MOL0     C25806   3.030   2.611   4.247 -0.1318  0.1555  0.5510
  192MOL0     C25807   2.913   2.650   4.344  0.1930 -0.0280 -0.1325
  192MOL0     C25808   2.777   2.686   4.279  0.3759  0.7786 -0.6677
  192MOL0     O25809   2.713   2.565   4.223  0.7167  0.0622 -1.0330
  192MOL0     C25810   2.596   2.572   4.165  0.9072 -0.5303  1.1085
  192MOL0     C25811   2.517   2.453   4.157  0.3573 -0.3327 -0.2395
  192MOL0     C25812   2.381   2.450   4.123 -0.0645 -0.1743 -0.4203
  192MOL0     C25813   2.303   2.320   4.132 -0.4216 -0.0690  0.0255
  192MOL0     C25814   2.317   2.574   4.085 -0.0917 -0.6149  0.5291
  192MOL0     C25815   2.175   2.594   4.055  0.5828 -1.1490 -0.5260
  192MOL0     O25816   2.121   2.723   4.084  0.2784  0.1286 -0.2600
  192MOL0     C25817   1.989   2.748   4.069  0.1468 -0.3175  0.1359
  192MOL0     C25818   1.946   2.881   4.054  0.6014 -0.3110 -0.1922
  192MOL0     C25819   1.810   2.920   4.053 -0.7986  0.1961  0.1493
  192MOL0     C25820   1.710   2.828   4.074 -0.3284  0.4559 -0.5212
  192MOL0     O25821   1.578   2.871   4.094  0.2942  0.1354  0.3415
  192MOL0     C25822   1.468   2.782   4.080 -0.8148 -0.2423  0.2056
  192MOL0     C25823   1.349   2.874   4.108  0.2581  0.2622  0.0298
  192MOL0     C25824   1.212   2.814   4.059 -0.4618  0.7328  1.3220
  192MOL0     C25825   1.191   2.814   3.907  0.1432  0.1071 -0.4529
  192MOL0     C25826   1.217   2.948   3.829  0.3654  0.6915 -0.6736
  192MOL0     C25827   1.193   2.939   3.676  0.1226 -0.0288  0.1197
  192MOL0     C25828   1.053   2.909   3.633 -0.3008 -0.0060 -0.0329
  192MOL0     C25829   1.025   2.898   3.477  0.3781  0.3299  0.7566
  192MOL0    Cl25830   1.111   3.037   3.396 -0.4514 -0.1563  0.3422
  192MOL0     C25831   1.749   2.698   4.091 -0.8290  0.3078  0.5276
  192MOL0     C25832   1.882   2.654   4.092 -0.1513  0.1225  0.0547
  192MOL0     O25833   2.112   2.511   3.987  0.3389 -0.0075 -0.0667
  192MOL0     C25834   2.395   2.692   4.073 -0.3357  0.3332 -0.4006
  192MOL0     C25835   2.533   2.685   4.121  0.1379 -0.5006  1.0255
  192MOL0     N25836   3.297   2.851   4.142  0.6234 -0.2830  0.1322
  192MOL0     N25837   3.419   2.816   4.125 -0.5156  0.4328 -0.4191
  192MOL0     C25838   4.587   2.204   4.173  0.7571 -0.4376  0.0591
  192MOL0     C25839   4.723   2.224   4.207  0.5526  0.2907  0.2072
  192MOL0     C25840   5.100   2.345   4.406  0.3303 -0.2434 -0.0905
  192MOL0     C25841   5.191   2.380   4.298  0.0411  1.0552 -0.5040
  192MOL0     C25842   5.331   2.389   4.310  0.2112 -0.0455 -0.0891
  192MOL0     C25843   5.387   2.371   4.433 -1.2000 -0.1902  0.8702
  192MOL0     O25844   5.525   2.362   4.473 -0.2881 -0.3764 -0.7544
  192MOL0     C25845   5.619   2.373   4.367 -0.2843 -0.1382 -0.8255
  192MOL0     C25846   5.629   2.528   4.344  0.3587  0.7444 -0.7732
  192MOL0     C25847   5.704   2.568   4.221 -0.4660 -0.0330  0.5132
  192MOL0     C25848   5.822   2.491   4.166 -0.3235  0.1094 -0.8284
  192MOL0     C25849   5.931   2.480   4.266  0.3235 -0.7674  0.9446
  192MOL0     C25850   6.012   2.474   4.355 -0.3031 -0.2223 -0.2444
  192MOL0     C25851   5.302   2.344   4.542 -0.8083  0.9275  0.8254
  192MOL0     C25852   5.160   2.325   4.524 -0.2273  0.1763  0.1833
  192MOL0     H25853   4.709   2.561   4.258 -2.1647  0.5634 -1.6057
  192MOL0     H25854   4.480   2.529   4.232 -3.2057 -2.2631  2.2987
  192MOL0     H25855   4.267   2.468   4.167 -1.5584  0.1358 -0.1180
  192MOL0     H25856   4.326   2.398   4.017 -0.7222  1.0408 -0.1746
  192MOL0     H25857   4.143   2.236   4.026  2.5059 -2.2786  1.4112
  192MOL0     H25858   4.127   2.256   4.196 -0.7993 -0.6011 -0.3840
  192MOL0     H25859   4.002   2.441   4.194  1.2911 -3.1025  1.4345
  192MOL0     H25860   4.072   2.503   4.040  1.8793 -2.0777 -1.9692
  192MOL0     H25861   3.941   2.329   3.911 -3.0451  1.2721 -0.4338
  192MOL0     H25862   3.908   2.251   4.064  0.7399 -0.3377  0.9823
  192MOL0     H25863   3.709   2.340   3.977 -0.1763  3.5400 -3.8652
  192MOL0     H25864   3.755   2.411   4.137  0.2484 -0.3519  1.1674
  192MOL0     H25865   3.828   2.625   4.006  2.4401 -1.3168 -1.6265
  192MOL0     H25866   3.789   2.530   3.863  2.8832 -0.3612 -0.0357
  192MOL0     H25867   3.603   2.690   3.906 -0.5478 -0.4600  0.7137
  192MOL0     H25868   3.545   2.530   3.904 -1.6065  1.0453 -0.7248
  192MOL0     H25869   3.636   2.672   4.143  1.2106 -2.5281  1.3510
  192MOL0     H25870   3.543   2.514   4.136  0.6119 -0.3806 -0.6070
  192MOL0     H25871   3.266   2.522   4.091  3.2759 -1.6348  0.2640
  192MOL0     H25872   3.027   2.816   4.187 -0.1502 -0.0769  2.0569
  192MOL0     H25873   3.027   2.703   4.055  1.5912 -2.1804 -0.6776
  192MOL0     H25874   3.113   2.580   4.311  1.5260  3.4903  0.2186
  192MOL0     H25875   3.003   2.526   4.183 -1.8600  0.6214  0.6216
  192MOL0     H25876   2.942   2.740   4.398  2.2797  0.4857 -1.9485
  192MOL0     H25877   2.890   2.575   4.420 -2.6681 -1.4703 -2.2461
  192MOL0     H25878   2.786   2.756   4.196 -0.6893 -0.2408 -1.6762
  192MOL0     H25879   2.725   2.726   4.366  0.5176  0.9305 -0.6525
  192MOL0     H25880   2.549   2.354   4.186 -2.0375 -0.7516  1.2004
  192MOL0     H25881   2.242   2.311   4.042 -0.1753 -1.0191 -0.0574
  192MOL0     H25882   2.376   2.238   4.132 -0.1827  0.0809 -2.3730
  192MOL0     H25883   2.233   2.312   4.215 -0.7145 -1.1824 -0.3122
  192MOL0     H25884   2.028   2.952   4.050 -1.0211  1.6367 -2.5360
  192MOL0     H25885   1.774   3.021   4.037 -0.0262  0.2510 -1.5499
  192MOL0     H25886   1.447   2.749   3.978  0.2755 -0.5471  0.0638
  192MOL0     H25887   1.467   2.697   4.149 -0.4220 -0.1192  0.3686
  192MOL0     H25888   1.344   2.893   4.215 -0.3743  0.3060 -0.0056
  192MOL0     H25889   1.358   2.969   4.055  0.8556 -0.3141 -0.9331
  192MOL0     H25890   1.123   2.861   4.101 -2.6608 -1.9196  0.0099
  192MOL0     H25891   1.206   2.708   4.087  1.1831  0.3192  0.2881
  192MOL0     H25892   1.259   2.738   3.867  2.3504 -0.3050  3.5478
  192MOL0     H25893   1.091   2.774   3.888 -0.6328  2.6620 -2.2456
  192MOL0     H25894   1.317   2.989   3.848  0.2342  0.3714  0.7763
  192MOL0     H25895   1.141   3.016   3.868 -1.8766 -0.7716 -2.2732
  192MOL0     H25896   1.221   3.038   3.637 -2.0329  0.6578  0.1903
  192MOL0     H25897   1.260   2.866   3.628  3.7573  1.0889  2.9656
  192MOL0     H25898   1.002   2.992   3.683 -0.1043 -0.7939  1.5718
  192MOL0     H25899   1.005   2.822   3.680  1.5275 -0.8687  0.3051
  192MOL0     H25900   0.918   2.891   3.456  1.0236 -0.8499 -2.7564
  192MOL0     H25901   1.052   2.801   3.436 -3.1695 -0.8112  0.7981
  192MOL0     H25902   1.675   2.623   4.119  1.4338 -1.7256  1.3871
  192MOL0     H25903   1.899   2.549   4.114  2.2818 -0.1365 -2.5223
  192MOL0     H25904   2.358   2.790   4.044  0.0584  0.6463  0.1420
  192MOL0     H25905   2.587   2.778   4.128 -2.5060  1.2837 -0.4142
  192MOL0     H25906   4.572   2.103   4.136  2.7781 -0.7591 -0.0024
  192MOL0     H25907   4.788   2.137   4.206 -1.2902 -1.1260  0.4412
  192MOL0     H25908   5.140   2.396   4.203 -4.6237  0.6197  1.6268
  192MOL0     H25909   5.396   2.392   4.223  1.5786  2.1270  0.9492
  192MOL0     H25910   5.714   2.329   4.397 -1.1041 -0.5780  1.3517
  192MOL0     H25911   5.588   2.325   4.274  1.1556 -1.2415 -0.7664
  192MOL0     H25912   5.682   2.568   4.431 -0.9392 -4.1268  2.7109
  192MOL0     H25913   5.528   2.569   4.335  0.2011  0.1355 -1.9759
  192MOL0     H25914   5.741   2.669   4.239  0.7335 -0.6520  1.6031
  192MOL0     H25915   5.625   2.569   4.144 -0.1726  1.3010  0.2117
  192MOL0     H25916   5.854   2.546   4.077  0.9026  1.6481  0.5220
  192MOL0     H25917   5.799   2.389   4.132 -0.0742 -0.2253  0.0021
  192MOL0     H25918   6.075   2.477   4.442 -2.3078  1.1486  1.2800
  192MOL0     H25919   5.343   2.332   4.642  0.5022  3.0722  0.6144
  192MOL0     H25920   5.102   2.287   4.608  0.1441  0.4915  0.5889
  193MOL0     O25921   7.421   4.158   4.723  0.4390  0.2129 -0.3431
  193MOL0     C25922   7.425   4.035   4.716 -0.9215 -0.8817 -0.5157
  193MOL0     O25923   7.366   3.953   4.806  0.2874 -0.1461  0.4772
  193MOL0     C25924   7.274   4.001   4.893  0.1518 -0.1476 -0.1858
  193MOL0     C25925   7.182   4.106   4.864  0.1216 -0.2659  0.5307
  193MOL0     C25926   7.088   4.128   4.964 -1.0182  0.8125 -0.4843
  193MOL0     C25927   7.082   4.050   5.082 -0.7854 -0.1049 -0.5348
  193MOL0     O25928   6.989   4.076   5.180 -0.7237 -0.4882  0.2880
  193MOL0     C25929   6.851   4.069   5.142 -0.6208  0.5021 -0.1429
  193MOL0     C25930   6.776   4.042   5.270 -0.8265  0.2015 -0.0047
  193MOL0     C25931   6.625   4.037   5.225 -0.9851 -0.8032  0.2930
  193MOL0     C25932   6.530   3.996   5.337 -0.6489 -0.2150 -0.0692
  193MOL0     C25933   6.387   3.974   5.284 -0.8579  0.3726  0.2212
  193MOL0     C25934   6.292   3.957   5.403  0.4502 -0.9763  0.0610
  193MOL0     C25935   6.320   3.828   5.487 -0.3166 -0.7290 -0.0243
  193MOL0     C25936   6.201   3.804   5.589  0.5630 -0.0175 -0.2420
  193MOL0     N25937   6.231   3.688   5.675 -0.2089 -0.4428 -0.3637
  193MOL0     C25938   6.254   3.570   5.618  0.1609  0.5841 -1.0224
  193MOL0     C25939   6.278   3.493   5.721 -0.0480 -0.9413 -0.1929
  193MOL0     C25940   6.272   3.347   5.715 -0.4368  0.5257 -1.1079
  193MOL0     C25941   6.133   3.295   5.766  0.0563 -0.2884  0.2096
  193MOL0     C25942   6.120   3.145   5.718  0.0088 -0.5850  0.5963
  193MOL0     C25943   5.971   3.096   5.725  1.1955 -0.7439 -0.1055
  193MOL0     O25944   5.920   3.119   5.854  0.1764  0.3921 -0.5612
  193MOL0     C25945   5.785   3.105   5.872 -0.2003 -0.3017 -0.3277
  193MOL0     C25946   5.740   3.155   5.994  0.0609  0.4680  0.8049
  193MOL0     C25947   5.603   3.148   6.028 -0.3064  0.3249 -0.1916
  193MOL0     C25948   5.564   3.196   6.167  0.0925 -0.1829  0.4172
  193MOL0     C25949   5.517   3.077   5.940  0.2232  0.5724 -0.2359
  193MOL0     C25950   5.363   3.079   5.970  0.6038  1.0507 -0.3491
  193MOL0     O25951   5.291   2.982   5.905 -0.4816  0.1554 -0.1556
  193MOL0     C25952   5.162   3.003   5.885  0.1350  0.9089  0.2117
  193MOL0     C25953   5.120   3.101   5.792  0.1470 -0.2277 -0.5786
  193MOL0     C25954   4.987   3.128   5.761 -0.0566  0.0849  0.9726
  193MOL0     C25955   4.890   3.068   5.838 -0.2372  0.3610 -0.1845
  193MOL0     O25956   4.753   3.090   5.829 -0.1832 -0.0947  0.8321
  193MOL0     C25957   4.697   3.198   5.747 -0.6378 -0.5755  0.1149
  193MOL0     C25958   4.551   3.162   5.700 -0.1643 -0.4767  0.5029
  193MOL0     C25959   4.492   3.268   5.610 -0.8376  0.7010 -0.4786
  193MOL0     C25960   4.347   3.228   5.576  0.2528 -0.8147 -0.4862
  193MOL0     C25961   4.264   3.358   5.531 -0.1727  0.1977 -0.3974
  193MOL0     C25962   4.147   3.332   5.439 -0.0662  0.2982  0.1486
  193MOL0     C25963   4.008   3.294   5.494 -0.2175  0.3138  0.8587
  193MOL0     C25964   4.002   3.146   5.552 -0.7376 -0.4657  0.0092
  193MOL0    Cl25965   3.972   3.023   5.433 -0.1098 -0.7897 -0.3703
  193MOL0     C25966   4.929   2.964   5.929  0.3886 -0.1016  0.4514
  193MOL0     C25967   5.062   2.926   5.949 -0.2957  0.1967 -0.3839
  193MOL0     O25968   5.315   3.155   6.044 -0.4232  0.2788 -0.7153
  193MOL0     C25969   5.564   3.016   5.816  1.2007 -0.1350 -0.5353
  193MOL0     C25970   5.703   3.027   5.789  0.6487  0.0266 -0.1407
  193MOL0     N25971   6.266   3.559   5.843 -0.0397  0.5838  0.1389
  193MOL0     N25972   6.245   3.680   5.811  1.8242  0.0982  0.1906
  193MOL0     C25973   7.177   3.957   5.111  0.1643 -0.7545 -0.2315
  193MOL0     C25974   7.269   3.937   5.015  0.0404 -0.2176  0.7296
  193MOL0     C25975   7.518   3.971   4.615  0.1616  0.4696 -0.3248
  193MOL0     C25976   7.562   4.045   4.507 -0.2375 -0.8438 -0.2111
  193MOL0     C25977   7.642   3.989   4.407  0.2269  0.7375 -0.5912
  193MOL0     C25978   7.674   3.850   4.416 -0.2670 -0.0052 -0.1176
  193MOL0     O25979   7.744   3.804   4.309  0.0035  0.2985 -0.0136
  193MOL0     C25980   7.784   3.669   4.284 -0.1772  0.4787  0.3973
  193MOL0     C25981   7.897   3.624   4.381 -0.5402  1.0121 -0.6234
  193MOL0     C25982   8.011   3.722   4.373  0.2055  0.3320 -0.8050
  193MOL0     C25983   8.139   3.675   4.441 -1.3920  0.4354 -0.8050
  193MOL0     C25984   8.221   3.782   4.486 -1.1287  0.3847 -0.1581
  193MOL0     C25985   8.301   3.866   4.520  0.8312 -0.1862  0.5277
  193MOL0     C25986   7.622   3.775   4.519  0.0075 -0.4839 -0.5323
  193MOL0     C25987   7.547   3.834   4.621 -0.1155 -0.4381  0.3640
  193MOL0     H25988   7.186   4.158   4.769 -1.0569 -0.2448  0.4779
  193MOL0     H25989   7.006   4.199   4.964 -2.1070 -0.4065 -0.2563
  193MOL0     H25990   6.824   4.166   5.101  2.0432  1.1142 -0.6157
  193MOL0     H25991   6.832   3.982   5.077 -0.1741  0.3676 -0.0953
  193MOL0     H25992   6.818   3.952   5.315  0.4935  1.0075  0.4296
  193MOL0     H25993   6.794   4.128   5.335 -1.1722  0.6547 -0.4943
  193MOL0     H25994   6.608   4.139   5.189  2.5758  0.0233  0.6362
  193MOL0     H25995   6.618   3.981   5.132 -2.2304 -0.4615  0.1556
  193MOL0     H25996   6.576   3.903   5.370 -1.7643 -1.1282 -1.0242
  193MOL0     H25997   6.535   4.070   5.418 -1.7198  0.0565 -0.2247
  193MOL0     H25998   6.359   4.061   5.223 -1.1676 -0.1602 -0.4159
  193MOL0     H25999   6.387   3.882   5.225 -0.5718  1.3885 -1.4557
  193MOL0     H26000   6.308   4.044   5.467  2.1563  0.2103 -1.8548
  193MOL0     H26001   6.187   3.952   5.371 -0.2394 -0.8495  2.1274
  193MOL0     H26002   6.335   3.736   5.430  2.2286 -1.1227  1.1475
  193MOL0     H26003   6.410   3.826   5.549 -1.9163 -3.6881  2.4924
  193MOL0     H26004   6.106   3.777   5.542  0.2348  0.4787  0.1353
  193MOL0     H26005   6.188   3.892   5.652 -1.0133 -1.4052  1.4601
  193MOL0     H26006   6.247   3.542   5.514 -0.5632 -3.9363  0.0362
  193MOL0     H26007   6.305   3.312   5.616  0.6781  0.1509 -0.6143
  193MOL0     H26008   6.339   3.296   5.785 -0.4285  0.1880 -1.3582
  193MOL0     H26009   6.051   3.350   5.720  0.0275 -0.9304 -0.5241
  193MOL0     H26010   6.130   3.296   5.876  0.1173  0.4882  0.2125
  193MOL0     H26011   6.174   3.084   5.791  0.0345  0.4465  1.4455
  193MOL0     H26012   6.146   3.136   5.612 -0.8737 -1.4140  0.4283
  193MOL0     H26013   5.958   2.989   5.706  3.0562 -0.6946 -2.0349
  193MOL0     H26014   5.914   3.159   5.655 -0.3813  0.3565  2.0606
  193MOL0     H26015   5.805   3.207   6.064 -0.3663 -0.2585  1.7688
  193MOL0     H26016   5.648   3.211   6.236  1.3642 -1.8856 -0.6889
  193MOL0     H26017   5.505   3.288   6.153 -0.1435 -0.4009 -0.0263
  193MOL0     H26018   5.495   3.129   6.219 -0.5169  0.5574  0.5845
  193MOL0     H26019   5.197   3.157   5.739 -0.5768  0.2550 -1.1314
  193MOL0     H26020   4.981   3.198   5.678  0.6857  1.6125  2.1432
  193MOL0     H26021   4.688   3.283   5.816  1.0604  0.4480 -0.8536
  193MOL0     H26022   4.764   3.229   5.666 -1.6235 -0.9595 -0.8783
  193MOL0     H26023   4.553   3.060   5.660  0.7450 -0.7747  1.2622
  193MOL0     H26024   4.485   3.154   5.786  1.5088 -0.6691  1.8261
  193MOL0     H26025   4.552   3.272   5.519 -1.9124 -0.0615 -1.2546
  193MOL0     H26026   4.496   3.367   5.656  2.1039  0.2284  0.4712
  193MOL0     H26027   4.356   3.154   5.497 -0.8547 -1.6506  0.1485
  193MOL0     H26028   4.308   3.179   5.665  1.5605 -1.4011 -0.2018
  193MOL0     H26029   4.329   3.437   5.491 -0.5465  2.0804  2.3780
  193MOL0     H26030   4.228   3.416   5.617 -0.3555  1.8237 -1.5216
  193MOL0     H26031   4.132   3.431   5.394 -0.4821  0.3347  0.3643
  193MOL0     H26032   4.178   3.261   5.362  1.0768  1.2521 -0.2894
  193MOL0     H26033   3.933   3.286   5.414  0.1000  0.7716  0.5094
  193MOL0     H26034   3.966   3.363   5.567 -0.1498  0.1699  1.0337
  193MOL0     H26035   3.930   3.139   5.634  0.3628  0.5228  1.0981
  193MOL0     H26036   4.100   3.119   5.592  0.8660  1.9285 -1.9800
  193MOL0     H26037   4.854   2.911   5.986 -0.2408 -0.7840 -0.9578
  193MOL0     H26038   5.094   2.852   6.022  2.4448 -0.1056 -1.7297
  193MOL0     H26039   5.489   2.961   5.759 -2.4994  2.5149  1.3427
  193MOL0     H26040   5.750   2.988   5.699  3.7904  0.8203  1.0356
  193MOL0     H26041   7.171   3.902   5.205 -0.6369  0.1409  0.2587
  193MOL0     H26042   7.344   3.858   5.024 -2.5556 -3.0602 -0.5922
  193MOL0     H26043   7.546   4.152   4.507  0.4187 -0.7336  0.5018
  193MOL0     H26044   7.693   4.043   4.328  0.1411 -0.3874 -1.4455
  193MOL0     H26045   7.704   3.598   4.311  0.2819 -0.4511 -0.6121
  193MOL0     H26046   7.802   3.642   4.179  0.2767 -3.1041  1.2633
  193MOL0     H26047   7.925   3.524   4.349 -3.0530  0.4089 -1.1366
  193MOL0     H26048   7.868   3.618   4.486 -0.7639  4.0557 -0.4162
  193MOL0     H26049   7.975   3.814   4.420 -2.7933  0.6928 -3.4643
  193MOL0     H26050   8.036   3.743   4.269 -0.2556 -1.5470 -1.3386
  193MOL0     H26051   8.204   3.617   4.374 -0.4285 -0.1237  0.5725
  193MOL0     H26052   8.108   3.629   4.535  1.6682  1.9638  1.1211
  193MOL0     H26053   8.378   3.924   4.566  3.9311 -4.2134  1.0355
  193MOL0     H26054   7.662   3.674   4.523  0.8749 -0.3055 -2.8861
  193MOL0     H26055   7.493   3.771   4.692  1.2202 -0.6378  1.2291
  194MOL0     O26056   6.644   3.720   1.896 -0.2642 -0.4289  0.3543
  194MOL0     C26057   6.692   3.730   2.005  1.1445  0.3075  0.2678
  194MOL0     O26058   6.627   3.678   2.125 -0.1180 -0.9271  0.0486
  194MOL0     C26059   6.540   3.577   2.118  0.2560 -0.0125 -0.6857
  194MOL0     C26060   6.443   3.568   2.210 -0.0956 -0.9088 -0.1264
  194MOL0     C26061   6.341   3.473   2.204  0.0097  0.2257 -0.9262
  194MOL0     C26062   6.348   3.375   2.108  0.3654 -0.3470  0.2423
  194MOL0     O26063   6.249   3.281   2.103  0.0197 -0.8732 -0.0277
  194MOL0     C26064   6.119   3.335   2.048 -0.2677  0.2130  0.0793
  194MOL0     C26065   6.030   3.213   2.013  0.2865  0.6519  0.1666
  194MOL0     C26066   5.890   3.277   1.971 -0.0419 -0.1785  0.6996
  194MOL0     C26067   5.795   3.169   1.908 -0.2671 -0.6840  0.2450
  194MOL0     C26068   5.684   3.234   1.825 -0.3862  0.4319 -0.1384
  194MOL0     C26069   5.607   3.337   1.905 -0.3311  0.7703  0.5678
  194MOL0     C26070   5.480   3.382   1.828 -0.7741  0.6384  0.4446
  194MOL0     C26071   5.410   3.500   1.888  0.2530 -0.5223  0.1535
  194MOL0     N26072   5.277   3.520   1.819  0.2145  0.5244  0.0980
  194MOL0     C26073   5.249   3.523   1.686  0.3685  0.8120  0.3839
  194MOL0     C26074   5.118   3.527   1.686 -0.2363  0.1900  0.5283
  194MOL0     C26075   5.044   3.534   1.554  0.0143 -0.0246  0.6669
  194MOL0     C26076   4.895   3.551   1.578  0.1292  0.8506  0.4381
  194MOL0     C26077   4.818   3.528   1.451  0.1186  0.1612 -0.5273
  194MOL0     C26078   4.668   3.575   1.478  0.2362 -0.1618  0.5783
  194MOL0     O26079   4.580   3.519   1.377  0.1703  0.0873 -0.1114
  194MOL0     C26080   4.460   3.584   1.358 -0.0358  0.4251  0.0507
  194MOL0     C26081   4.395   3.560   1.243  0.5516 -0.7959 -0.9227
  194MOL0     C26082   4.268   3.619   1.228 -1.1378 -0.8104  0.1136
  194MOL0     C26083   4.206   3.579   1.100  0.5336  0.2841 -0.5285
  194MOL0     C26084   4.211   3.710   1.320  0.1854 -0.5992 -0.7772
  194MOL0     C26085   4.093   3.797   1.301  0.4160 -0.7598 -0.1625
  194MOL0     O26086   4.033   3.857   1.409  0.0742 -0.2223 -0.1210
  194MOL0     C26087   3.909   3.917   1.387 -0.0728  0.6227  0.4623
  194MOL0     C26088   3.890   4.054   1.397  0.6013  0.2422  0.0992
  194MOL0     C26089   3.763   4.106   1.381  0.8603 -1.0226 -0.1290
  194MOL0     C26090   3.653   4.031   1.356  0.3131  0.2015 -0.0314
  194MOL0     O26091   3.528   4.084   1.325 -0.1406 -0.3282 -0.3066
  194MOL0     C26092   3.524   4.211   1.259  0.4763 -0.0656 -0.2005
  194MOL0     C26093   3.376   4.251   1.220 -0.5184  0.5465  0.1230
  194MOL0     C26094   3.368   4.392   1.163 -0.0238  0.1406 -0.2875
  194MOL0     C26095   3.275   4.394   1.044 -0.2127  0.0340 -0.0046
  194MOL0     C26096   3.251   4.533   0.985  0.3252  0.1837 -0.2595
  194MOL0     C26097   3.165   4.517   0.857 -1.1246  0.2976 -0.2830
  194MOL0     C26098   3.089   4.649   0.827 -0.5935  0.3439  0.6318
  194MOL0     C26099   3.001   4.635   0.697 -0.2259  0.8466 -0.7501
  194MOL0    Cl26100   2.878   4.523   0.738 -0.8413 -0.3116  0.2118
  194MOL0     C26101   3.671   3.888   1.345  0.2030 -0.4001 -0.2227
  194MOL0     C26102   3.796   3.836   1.353  0.3130  0.3591 -0.3360
  194MOL0     O26103   4.059   3.821   1.184 -0.5587 -0.1258 -0.0342
  194MOL0     C26104   4.289   3.738   1.434  0.1789 -1.1325 -0.3987
  194MOL0     C26105   4.411   3.676   1.450  0.7054  0.3338 -0.5738
  194MOL0     N26106   5.064   3.506   1.811  0.1149 -0.2510 -0.0855
  194MOL0     N26107   5.163   3.511   1.895 -0.3629 -0.2387 -0.8158
  194MOL0     C26108   6.450   3.377   2.016  0.2157  0.0053 -0.1839
  194MOL0     C26109   6.542   3.475   2.021 -0.4035  0.1026 -0.1351
  194MOL0     C26110   6.800   3.826   2.023 -0.4290 -0.1799  1.3230
  194MOL0     C26111   6.853   3.901   1.916  0.6462  0.9474  0.3023
  194MOL0     C26112   6.955   3.993   1.934  0.3342  0.0127 -0.4068
  194MOL0     C26113   7.001   4.010   2.060 -0.5248 -0.1387  0.2931
  194MOL0     O26114   7.117   4.088   2.085  0.9411  0.5391 -0.4433
  194MOL0     C26115   7.148   4.188   1.995  0.6844 -0.0265  0.5884
  194MOL0     C26116   7.271   4.268   2.062  0.5889  0.3582  0.1645
  194MOL0     C26117   7.319   4.374   1.960 -0.6547 -0.2584 -0.2161
  194MOL0     C26118   7.461   4.431   1.994  0.7505  0.1885 -0.6148
  194MOL0     C26119   7.496   4.537   1.904  0.4365  0.2978 -0.6764
  194MOL0     C26120   7.511   4.616   1.819 -0.1477  0.1275  0.3824
  194MOL0     C26121   6.962   3.933   2.165 -0.0142  0.5776 -0.0927
  194MOL0     C26122   6.860   3.844   2.155  0.1356 -0.2682  0.1785
  194MOL0     H26123   6.432   3.625   2.302  1.9200 -0.2257 -0.2715
  194MOL0     H26124   6.264   3.469   2.280  0.9076 -1.3639 -0.0291
  194MOL0     H26125   6.069   3.403   2.116 -0.2643  3.1155 -2.5945
  194MOL0     H26126   6.134   3.392   1.955  0.2706 -2.0797 -1.3286
  194MOL0     H26127   6.069   3.159   1.926 -2.1305  0.1032 -0.6502
  194MOL0     H26128   6.016   3.141   2.095 -1.9502 -2.3001 -2.5727
  194MOL0     H26129   5.840   3.328   2.054  3.0412  1.2145  1.8286
  194MOL0     H26130   5.909   3.350   1.892  1.4782 -0.7504  0.5171
  194MOL0     H26131   5.840   3.105   1.832 -1.4240 -0.9609 -0.2218
  194MOL0     H26132   5.748   3.103   1.982 -3.3321 -1.0800 -1.9013
  194MOL0     H26133   5.717   3.281   1.732 -2.3646 -1.3217 -1.8550
  194MOL0     H26134   5.610   3.158   1.794  0.6918 -0.6182 -0.2112
  194MOL0     H26135   5.586   3.301   2.006  0.2219  0.8750  0.7230
  194MOL0     H26136   5.676   3.422   1.906  2.6916 -1.4398  3.2347
  194MOL0     H26137   5.507   3.398   1.723  0.7113  0.6110  0.8055
  194MOL0     H26138   5.404   3.303   1.825 -0.8929  0.7557  0.3446
  194MOL0     H26139   5.469   3.591   1.872 -0.2152 -0.1828  0.3233
  194MOL0     H26140   5.408   3.491   1.997  0.7975 -1.1881  0.1149
  194MOL0     H26141   5.312   3.537   1.599 -0.8354 -0.2893 -0.7074
  194MOL0     H26142   5.076   3.617   1.491  1.1563 -1.8725 -1.3160
  194MOL0     H26143   5.068   3.444   1.496 -1.1873 -0.6696  1.1300
  194MOL0     H26144   4.883   3.651   1.621  1.2982  1.1960  0.0090
  194MOL0     H26145   4.855   3.485   1.655  1.0831  0.7630  0.8821
  194MOL0     H26146   4.825   3.423   1.418  0.7539 -0.3673  1.1912
  194MOL0     H26147   4.859   3.593   1.374  1.1671 -0.6200 -0.6426
  194MOL0     H26148   4.665   3.684   1.486  3.0348  0.0536 -0.0162
  194MOL0     H26149   4.646   3.536   1.578  0.1891 -1.4526  0.0943
  194MOL0     H26150   4.437   3.496   1.166  1.6219 -0.6977 -0.4440
  194MOL0     H26151   4.229   3.475   1.075 -3.2484 -0.0170 -3.7789
  194MOL0     H26152   4.098   3.591   1.090  0.7364  3.1703 -0.1787
  194MOL0     H26153   4.259   3.620   1.013  2.4068 -3.0320 -1.1310
  194MOL0     H26154   3.974   4.122   1.403  1.0980  0.0229 -2.6723
  194MOL0     H26155   3.756   4.213   1.396  3.2073 -0.7011 -0.8762
  194MOL0     H26156   3.577   4.287   1.317  1.5849  0.0027 -1.2569
  194MOL0     H26157   3.575   4.205   1.162  0.1120 -1.1538 -0.3306
  194MOL0     H26158   3.337   4.172   1.155  3.8959  1.4750 -4.1604
  194MOL0     H26159   3.310   4.246   1.307 -1.0846 -1.5934 -0.3802
  194MOL0     H26160   3.463   4.432   1.127  0.6479 -2.1404 -1.2443
  194MOL0     H26161   3.329   4.457   1.242 -1.6748  0.7639 -1.5701
  194MOL0     H26162   3.318   4.335   0.963  0.2657  0.3939 -0.0160
  194MOL0     H26163   3.182   4.353   1.084  0.7866 -0.6465  1.7517
  194MOL0     H26164   3.345   4.579   0.953  0.0834 -1.4888 -3.8248
  194MOL0     H26165   3.201   4.601   1.054 -0.2196  0.6856 -1.1355
  194MOL0     H26166   3.238   4.507   0.775  0.5602 -2.2503  1.3931
  194MOL0     H26167   3.104   4.426   0.856 -1.8599  0.6447 -4.1990
  194MOL0     H26168   3.160   4.732   0.814 -3.0138  2.5132  0.6069
  194MOL0     H26169   3.032   4.692   0.910  0.7821 -0.0470  1.8400
  194MOL0     H26170   3.053   4.608   0.605  1.2323 -1.4183  0.6630
  194MOL0     H26171   2.962   4.734   0.670 -0.0958  1.4876  1.2265
  194MOL0     H26172   3.583   3.834   1.312 -1.4482  1.6307  0.6439
  194MOL0     H26173   3.804   3.728   1.345 -2.7384  0.1726 -3.4005
  194MOL0     H26174   4.261   3.810   1.510 -0.5082 -2.2777  0.4446
  194MOL0     H26175   4.453   3.688   1.549 -1.4500  0.4686  0.3747
  194MOL0     H26176   6.461   3.301   1.939 -0.1621  0.9102 -1.1532
  194MOL0     H26177   6.620   3.470   1.946 -1.3267 -1.5005 -1.0510
  194MOL0     H26178   6.825   3.874   1.815  1.0824  0.0511  0.4146
  194MOL0     H26179   6.997   4.033   1.843 -0.7605  1.0726 -0.4684
  194MOL0     H26180   7.187   4.139   1.906 -3.6189  0.8109 -2.0686
  194MOL0     H26181   7.072   4.263   1.969 -0.0663 -0.8394  0.3968
  194MOL0     H26182   7.341   4.191   2.094 -1.0105 -0.6508  1.4307
  194MOL0     H26183   7.228   4.320   2.148 -0.7193  0.9145 -0.7674
  194MOL0     H26184   7.248   4.457   1.951 -0.1067  0.3805  1.1083
  194MOL0     H26185   7.334   4.336   1.858  4.1505  4.1314 -1.4997
  194MOL0     H26186   7.529   4.345   1.990  1.7156  0.9472 -0.9186
  194MOL0     H26187   7.457   4.464   2.098 -1.2427  0.0177 -0.5966
  194MOL0     H26188   7.532   4.680   1.736 -3.2368  0.8753  0.0329
  194MOL0     H26189   7.025   3.936   2.254 -0.6515 -0.0840  0.4010
  194MOL0     H26190   6.825   3.779   2.235  0.2656 -0.3446  0.1742
  195MOL0     O26191   9.590   1.397   3.972 -0.1320  1.4380 -0.2284
  195MOL0     C26192   9.518   1.299   3.943  0.4073 -1.0941  0.3603
  195MOL0     O26193   9.530   1.225   3.834  0.0283  0.3928 -0.0907
  195MOL0     C26194   9.658   1.221   3.780 -0.4487  0.5295 -0.0092
  195MOL0     C26195   9.781   1.204   3.852  0.8762  0.3938 -1.1694
  195MOL0     C26196   9.901   1.197   3.785 -0.8369  0.4420  0.6718
  195MOL0     C26197   9.905   1.205   3.646 -0.1110 -0.5063  0.6186
  195MOL0     O26198  10.026   1.191   3.608 -0.1981 -0.5380  0.1344
  195MOL0     C26199  10.051   1.214   3.466 -0.0297  0.2729  0.5269
  195MOL0     C26200  10.201   1.194   3.434 -0.0087 -0.5058 -1.3490
  195MOL0     C26201  10.311   1.281   3.502  0.5243  0.0892 -0.0319
  195MOL0     C26202  10.289   1.432   3.473 -0.1903  0.0695  0.3793
  195MOL0     C26203  10.307   1.460   3.333 -0.0686 -0.4381  0.4438
  195MOL0     C26204  10.349   1.611   3.304  0.7421  0.2533  0.6970
  195MOL0     C26205  10.235   1.703   3.347 -0.3525  0.1507 -0.4956
  195MOL0     C26206  10.235   1.843   3.296  0.9643  0.5523  0.0250
  195MOL0     N26207  10.121   1.909   3.369 -0.0512 -0.2981  0.5968
  195MOL0     C26208  10.139   1.987   3.488  0.1055  0.0529  0.4631
  195MOL0     C26209  10.016   1.997   3.550  0.3135 -0.0800  0.0690
  195MOL0     C26210   9.977   2.055   3.688 -0.1494  0.4528 -0.0241
  195MOL0     C26211   9.833   2.078   3.723 -0.7664 -0.2101 -0.5154
  195MOL0     C26212   9.783   2.202   3.645  0.4591  0.3394 -0.3690
  195MOL0     C26213   9.642   2.239   3.692 -0.7925  0.6036 -0.7549
  195MOL0     O26214   9.554   2.146   3.641 -0.2971 -0.4683  0.3291
  195MOL0     C26215   9.422   2.161   3.673  0.8682  0.5855  0.2174
  195MOL0     C26216   9.326   2.066   3.627 -0.1735  0.4917 -0.0326
  195MOL0     C26217   9.197   2.069   3.674  0.4246 -0.3090 -0.0644
  195MOL0     C26218   9.116   1.947   3.639 -0.4176  0.1495  0.5202
  195MOL0     C26219   9.147   2.181   3.746  0.5051 -0.7077 -0.0391
  195MOL0     C26220   9.010   2.198   3.790 -0.0616 -0.3544  0.1780
  195MOL0     O26221   8.917   2.127   3.728  1.1525  0.0931  0.9508
  195MOL0     C26222   8.788   2.165   3.752  0.1386 -0.7468 -0.2777
  195MOL0     C26223   8.740   2.134   3.885  0.2684 -0.8179  0.1738
  195MOL0     C26224   8.607   2.160   3.911 -0.6507 -0.2774  0.0551
  195MOL0     C26225   8.505   2.206   3.823 -0.9631 -0.5009  0.4587
  195MOL0     O26226   8.373   2.231   3.859 -0.5006 -0.4622  0.6886
  195MOL0     C26227   8.335   2.194   3.990 -0.0524  0.1935 -0.9161
  195MOL0     C26228   8.349   2.304   4.095 -0.6392  0.3798  0.5954
  195MOL0     C26229   8.274   2.433   4.061 -0.2699  0.5964 -0.1814
  195MOL0     C26230   8.131   2.412   4.116  0.0910 -0.2492 -0.2785
  195MOL0     C26231   8.018   2.515   4.094  0.4720 -0.0912 -0.2909
  195MOL0     C26232   7.880   2.465   4.135  0.0574  0.5303 -0.3836
  195MOL0     C26233   7.772   2.448   4.022 -0.6593  0.1499 -0.5352
  195MOL0     C26234   7.662   2.368   4.078  0.2056  0.7981  0.2172
  195MOL0    Cl26235   7.536   2.463   4.172  0.3663  0.0946  0.0802
  195MOL0     C26236   8.555   2.233   3.694  0.0280  0.0158 -0.0797
  195MOL0     C26237   8.696   2.213   3.653 -0.5840 -0.5777 -0.3986
  195MOL0     O26238   8.992   2.266   3.892  0.0823  0.4781 -0.2022
  195MOL0     C26239   9.243   2.287   3.766 -0.2371 -0.3846  0.8093
  195MOL0     C26240   9.373   2.276   3.728  1.0611 -0.9364 -0.8504
  195MOL0     N26241   9.926   1.936   3.465 -0.8695 -0.4176  0.2011
  195MOL0     N26242   9.983   1.885   3.364  0.1905  0.1493 -0.6434
  195MOL0     C26243   9.788   1.222   3.573  0.7945 -0.2005 -0.7314
  195MOL0     C26244   9.662   1.217   3.641  0.6896  0.2912 -0.2996
  195MOL0     C26245   9.401   1.277   4.031  0.0524  0.7993  0.3069
  195MOL0     C26246   9.301   1.181   3.987  0.0621 -0.0563 -0.2772
  195MOL0     C26247   9.192   1.150   4.068  0.5909 -0.5146 -0.1850
  195MOL0     C26248   9.183   1.213   4.194 -0.6168  0.3369  0.0479
  195MOL0     O26249   9.076   1.201   4.280 -0.0645  0.3829  0.0730
  195MOL0     C26250   8.959   1.123   4.237 -0.0877  0.3769  0.0179
  195MOL0     C26251   8.981   0.982   4.299  0.5119  0.4405  0.3723
  195MOL0     C26252   8.862   0.879   4.279  1.1698 -0.8716 -0.6326
  195MOL0     C26253   8.736   0.931   4.347  0.7488  0.0166  0.6941
  195MOL0     C26254   8.650   0.825   4.399  0.9858 -0.1458  0.2424
  195MOL0     C26255   8.571   0.743   4.453 -0.8324 -0.1594  0.0785
  195MOL0     C26256   9.273   1.304   4.243  0.3348 -0.8040 -0.1676
  195MOL0     C26257   9.388   1.337   4.162  0.0797 -0.8153 -1.0672
  195MOL0     H26258   9.768   1.201   3.960  1.7017 -0.5833 -1.0778
  195MOL0     H26259   9.995   1.194   3.839 -1.4743 -0.1077  1.7972
  195MOL0     H26260   9.991   1.141   3.410 -3.5859  1.4458  2.5160
  195MOL0     H26261  10.023   1.312   3.426  1.6558  0.4950 -0.1961
  195MOL0     H26262  10.216   1.088   3.456 -2.7079 -1.1803 -2.3096
  195MOL0     H26263  10.213   1.212   3.327  0.8951 -0.3233 -1.2201
  195MOL0     H26264  10.325   1.261   3.608 -1.8142  2.1749  0.7809
  195MOL0     H26265  10.404   1.254   3.452 -0.9599 -1.2680 -2.2947
  195MOL0     H26266  10.190   1.466   3.505 -1.5794  1.0245 -4.2003
  195MOL0     H26267  10.371   1.485   3.524 -0.6991  1.2251  0.0388
  195MOL0     H26268  10.384   1.391   3.296  3.2155  3.2927 -0.2525
  195MOL0     H26269  10.210   1.435   3.290  1.1886 -0.6285 -2.5667
  195MOL0     H26270  10.441   1.626   3.362  2.3011 -1.0445 -1.2929
  195MOL0     H26271  10.366   1.614   3.196 -1.1021  0.2579  0.3766
  195MOL0     H26272  10.141   1.653   3.322 -1.2338  1.2497  0.5037
  195MOL0     H26273  10.238   1.718   3.455 -0.6780  0.6558 -0.5583
  195MOL0     H26274  10.224   1.851   3.188 -0.1552  2.5556  0.2149
  195MOL0     H26275  10.329   1.894   3.319  0.4866  1.2933  0.3803
  195MOL0     H26276  10.238   2.003   3.530  2.2889 -1.8577 -3.3479
  195MOL0     H26277  10.010   1.978   3.759 -1.8184 -1.2467 -0.9981
  195MOL0     H26278  10.040   2.144   3.696  3.0031 -1.6453  0.4703
  195MOL0     H26279   9.822   2.077   3.832  2.5970  1.6876 -0.0295
  195MOL0     H26280   9.780   1.991   3.682 -1.6938  0.1233 -0.0456
  195MOL0     H26281   9.792   2.189   3.537  3.3068 -0.3699 -0.1434
  195MOL0     H26282   9.843   2.288   3.678  0.5491  0.0203  0.3086
  195MOL0     H26283   9.619   2.340   3.656  1.2353  1.3990  0.0282
  195MOL0     H26284   9.649   2.246   3.801 -0.0308 -2.7495 -0.4757
  195MOL0     H26285   9.376   1.984   3.577  0.0531  0.6450 -0.0595
  195MOL0     H26286   9.181   1.860   3.636  0.0773  0.5066  0.6787
  195MOL0     H26287   9.040   1.930   3.715 -0.2809 -1.1898  0.3751
  195MOL0     H26288   9.065   1.962   3.543 -4.2200 -1.2498  2.1317
  195MOL0     H26289   8.805   2.106   3.967  1.5259  0.9419 -0.1575
  195MOL0     H26290   8.576   2.123   4.009  0.4074  1.7516  1.2366
  195MOL0     H26291   8.228   2.176   3.972 -0.4699  0.7804  0.7740
  195MOL0     H26292   8.383   2.104   4.027  0.2412  1.3072  1.6504
  195MOL0     H26293   8.316   2.271   4.193 -0.2850  0.4707  0.7462
  195MOL0     H26294   8.456   2.330   4.094 -0.5244 -0.0530 -0.5349
  195MOL0     H26295   8.281   2.458   3.955  2.3132  1.7476  0.1900
  195MOL0     H26296   8.318   2.518   4.113  1.2832  0.0512 -0.5299
  195MOL0     H26297   8.094   2.322   4.066 -1.1456  0.8610 -1.4309
  195MOL0     H26298   8.153   2.400   4.223  0.3378  1.6244 -0.0861
  195MOL0     H26299   8.017   2.528   3.986 -2.1857 -1.0716 -0.4362
  195MOL0     H26300   8.035   2.612   4.142 -0.8966  1.0583 -2.0088
  195MOL0     H26301   7.886   2.373   4.194  0.2785  0.2942 -0.7669
  195MOL0     H26302   7.847   2.536   4.211  0.4463  0.4097 -0.0966
  195MOL0     H26303   7.824   2.391   3.944  0.5597  0.6623 -0.1291
  195MOL0     H26304   7.740   2.545   3.982 -0.2756  0.7956  0.6832
  195MOL0     H26305   7.699   2.273   4.117 -0.0736 -0.8063 -3.1361
  195MOL0     H26306   7.607   2.348   3.986  1.4098  2.4763 -0.9277
  195MOL0     H26307   8.478   2.259   3.623  2.0753 -0.0222 -2.4574
  195MOL0     H26308   8.727   2.249   3.555 -0.8061 -2.6980 -1.2943
  195MOL0     H26309   9.199   2.378   3.805 -0.7422  0.5050 -1.6314
  195MOL0     H26310   9.426   2.369   3.749 -0.8008 -0.2211  1.0558
  195MOL0     H26311   9.785   1.242   3.466  2.1457  0.6293 -0.6291
  195MOL0     H26312   9.569   1.227   3.586  1.2493  2.4986 -0.9261
  195MOL0     H26313   9.293   1.135   3.889 -1.2742 -1.2642  0.3611
  195MOL0     H26314   9.140   1.055   4.055  0.1403 -0.2166 -0.5662
  195MOL0     H26315   8.862   1.153   4.279  0.2933 -0.5001  1.5839
  195MOL0     H26316   8.951   1.129   4.128  1.9129  0.7662 -0.1462
  195MOL0     H26317   8.996   0.990   4.406  2.6774 -0.7619  0.1992
  195MOL0     H26318   9.067   0.942   4.245 -0.3849 -1.1594  0.0466
  195MOL0     H26319   8.893   0.782   4.321  1.4636 -1.4605 -2.1550
  195MOL0     H26320   8.836   0.873   4.173  2.2196  0.9065 -1.0388
  195MOL0     H26321   8.691   0.997   4.273  1.4444 -0.0033  0.2372
  195MOL0     H26322   8.753   0.992   4.437 -1.5670 -0.7573  1.7212
  195MOL0     H26323   8.502   0.680   4.506  1.4995 -1.0838  2.2492
  195MOL0     H26324   9.281   1.334   4.348  0.4798 -0.6279 -0.2270
  195MOL0     H26325   9.468   1.404   4.193 -1.7027  0.8807  0.2106
  196MOL0     O26326   3.836   0.031   2.748 -1.0887  0.2346  0.0837
  196MOL0     C26327   3.903   0.009   2.851 -0.4337  0.5584 -0.2667
  196MOL0     O26328   3.874   0.052   2.976 -1.0376  0.4496 -0.3689
  196MOL0     C26329   3.762   0.127   3.006 -1.0460  0.4270  0.2333
  196MOL0     C26330   3.634   0.084   2.967 -0.4467 -0.2254 -0.4855
  196MOL0     C26331   3.523   0.175   2.977 -0.4388  0.1868  0.1204
  196MOL0     C26332   3.539   0.303   3.036 -0.2677 -0.0008  0.3806
  196MOL0     O26333   3.442   0.399   3.053 -0.6965  1.1899  0.2238
  196MOL0     C26334   3.353   0.416   2.941  0.1535  0.5018 -0.0991
  196MOL0     C26335   3.266   0.540   2.929 -0.7263 -0.2646  0.0542
  196MOL0     C26336   3.153   0.510   2.833 -0.2528  0.5813  0.2674
  196MOL0     C26337   3.064   0.632   2.811 -0.3260 -0.1563  1.0089
  196MOL0     C26338   2.927   0.600   2.749 -0.5047 -0.3115 -0.3001
  196MOL0     C26339   2.812   0.574   2.842  0.3488 -0.2219  0.0198
  196MOL0     C26340   2.695   0.510   2.774  0.2003 -0.2520  1.0281
  196MOL0     C26341   2.633   0.598   2.668 -0.3360  0.4838  0.5497
  196MOL0     N26342   2.543   0.525   2.579  0.0900  0.0029  0.9012
  196MOL0     C26343   2.409   0.490   2.620 -0.5125 -0.4148 -0.1642
  196MOL0     C26344   2.357   0.451   2.498 -0.5777  0.2377 -0.0824
  196MOL0     C26345   2.233   0.367   2.474 -0.8889 -0.2180  0.2065
  196MOL0     C26346   2.254   0.217   2.495  0.6646 -0.0265  0.8975
  196MOL0     C26347   2.264   0.165   2.645  0.1044 -0.0664 -0.1796
  196MOL0     C26348   2.123   0.117   2.698  1.2492 -1.4861 -1.1132
  196MOL0     O26349   2.037   0.231   2.743 -0.0305 -0.8472 -0.0824
  196MOL0     C26350   1.906   0.209   2.749 -0.2198 -0.3184  0.6704
  196MOL0     C26351   1.839   0.093   2.727  0.0195  0.4510  0.5020
  196MOL0     C26352   1.697   0.077   2.724  0.2048 -0.9374  0.5587
  196MOL0     C26353   1.642  -0.064   2.690 -0.3565  0.3462 -0.4070
  196MOL0     C26354   1.620   0.196   2.743 -0.5574 -0.4200  0.6749
  196MOL0     C26355   1.474   0.206   2.724 -0.3720  0.6464 -0.0422
  196MOL0     O26356   1.414   0.159   2.615  0.7717 -0.3129  0.0717
  196MOL0     C26357   1.276   0.173   2.596 -0.1740 -0.1840  0.3334
  196MOL0     C26358   1.213   0.065   2.532  0.4168 -0.2430 -0.5910
  196MOL0     C26359   1.079   0.073   2.500  0.7879 -0.3287  0.0547
  196MOL0     C26360   1.002   0.185   2.541  0.2955  0.1838  0.3142
  196MOL0     O26361   0.875   0.208   2.507  0.2774 -0.1985 -0.2159
  196MOL0     C26362   0.786   0.104   2.541 -0.1152 -0.1239 -0.3024
  196MOL0     C26363   0.659   0.150   2.469 -0.4063  0.3078  0.0030
  196MOL0     C26364   0.566   0.239   2.552  0.7402  0.3391  0.0753
  196MOL0     C26365   0.632   0.371   2.603 -0.3376 -0.2859 -0.3352
  196MOL0     C26366   0.670   0.466   2.487 -0.7723 -0.3353  0.3035
  196MOL0     C26367   0.743   0.596   2.536  0.1554  0.4692 -0.0255
  196MOL0     C26368   0.684   0.668   2.661  0.5700  0.5189  0.3252
  196MOL0     C26369   0.761   0.793   2.688  0.5802  0.7176  0.1638
  196MOL0    Cl26370   0.910   0.757   2.784 -0.2431  0.0548  0.3202
  196MOL0     C26371   1.063   0.294   2.605 -0.0915 -0.5822  0.4642
  196MOL0     C26372   1.199   0.286   2.636  0.2124 -0.2385  0.1378
  196MOL0     O26373   1.428   0.272   2.819  0.7259  0.0255 -0.6534
  196MOL0     C26374   1.689   0.316   2.755  0.5236 -0.8513  0.1956
  196MOL0     C26375   1.829   0.326   2.762  0.3228  0.0376 -0.5960
  196MOL0     N26376   2.456   0.461   2.393 -0.0074  0.5263 -0.3613
  196MOL0     N26377   2.555   0.524   2.438 -0.0227  0.8303 -0.3321
  196MOL0     C26378   3.662   0.332   3.085  0.1423 -0.0324 -0.2396
  196MOL0     C26379   3.775   0.259   3.056  0.2298 -0.1895 -0.1599
  196MOL0     C26380   4.033  -0.062   2.839  0.4176 -0.8278 -0.1150
  196MOL0     C26381   4.126  -0.070   2.944  0.6042 -0.5125  0.1300
  196MOL0     C26382   4.249  -0.135   2.930  0.0840  0.5107  0.1924
  196MOL0     C26383   4.283  -0.190   2.803 -0.2621  0.5473 -0.5149
  196MOL0     O26384   4.403  -0.251   2.788 -1.3922 -0.3594  0.7260
  196MOL0     C26385   4.469  -0.274   2.664 -0.4193 -0.7052 -0.3354
  196MOL0     C26386   4.619  -0.289   2.687  0.4446 -0.3243 -0.1955
  196MOL0     C26387   4.699  -0.155   2.716  1.3695 -0.8703  0.3968
  196MOL0     C26388   4.833  -0.166   2.787 -0.4678  0.1108 -0.2686
  196MOL0     C26389   4.915  -0.272   2.730 -0.2391  0.1265  0.6967
  196MOL0     C26390   4.972  -0.373   2.683  0.3112 -0.7461  0.7871
  196MOL0     C26391   4.186  -0.186   2.700  0.0452 -0.6103 -0.4438
  196MOL0     C26392   4.058  -0.130   2.721  0.2671 -0.0507 -0.2762
  196MOL0     H26393   3.616  -0.014   2.925  0.2165 -1.2359  1.4531
  196MOL0     H26394   3.426   0.155   2.933 -1.5593  1.3395  1.9438
  196MOL0     H26395   3.401   0.389   2.847 -1.2159 -2.3102 -0.0740
  196MOL0     H26396   3.289   0.330   2.959  0.2616  0.2084 -1.0468
  196MOL0     H26397   3.233   0.559   3.031  0.6118 -0.0112  0.4537
  196MOL0     H26398   3.320   0.626   2.888  0.6363 -0.6647  0.9682
  196MOL0     H26399   3.198   0.471   2.741  0.8737 -1.1012  1.4644
  196MOL0     H26400   3.090   0.433   2.879 -0.6637 -1.3084 -3.1301
  196MOL0     H26401   3.051   0.681   2.907  0.2831 -0.4776  1.2606
  196MOL0     H26402   3.126   0.692   2.743  0.6723 -1.3999  0.7853
  196MOL0     H26403   2.904   0.683   2.681  0.8507 -0.1183 -0.5543
  196MOL0     H26404   2.938   0.502   2.700  0.3357 -0.9430  1.0906
  196MOL0     H26405   2.845   0.534   2.938 -0.6059  0.7264  0.7671
  196MOL0     H26406   2.788   0.676   2.873  0.2456 -0.6559  1.4242
  196MOL0     H26407   2.730   0.420   2.723  0.2657  0.0063  0.6128
  196MOL0     H26408   2.619   0.492   2.851  0.9224  0.0026  1.8039
  196MOL0     H26409   2.711   0.647   2.610  0.4792 -0.4068  0.8771
  196MOL0     H26410   2.578   0.677   2.721  0.4005  0.9036  0.6932
  196MOL0     H26411   2.372   0.492   2.722 -2.5025 -1.3336 -0.8173
  196MOL0     H26412   2.148   0.396   2.536 -1.3907  1.7283 -1.2977
  196MOL0     H26413   2.201   0.382   2.370 -1.2716 -1.5036  0.1152
  196MOL0     H26414   2.350   0.179   2.458  0.0463 -1.9492  1.1881
  196MOL0     H26415   2.177   0.158   2.446 -3.4759  3.2945  2.7828
  196MOL0     H26416   2.295   0.252   2.705  2.3426  0.0060 -1.3497
  196MOL0     H26417   2.335   0.082   2.649  1.0293  0.7496  0.9942
  196MOL0     H26418   2.125   0.051   2.785 -1.3662  1.3488  1.3510
  196MOL0     H26419   2.077   0.067   2.612 -1.0359 -5.5233  2.0843
  196MOL0     H26420   1.902   0.006   2.714 -1.1732 -0.2844 -0.5446
  196MOL0     H26421   1.584  -0.096   2.777 -0.5636 -1.2385 -1.0955
  196MOL0     H26422   1.578  -0.052   2.602 -1.2628  1.1757  0.3335
  196MOL0     H26423   1.713  -0.143   2.664 -2.3680 -0.6582 -3.3982
  196MOL0     H26424   1.267  -0.027   2.509 -0.5304 -1.3794  1.4921
  196MOL0     H26425   1.038  -0.005   2.436 -0.1933 -0.0432  0.3136
  196MOL0     H26426   0.816   0.004   2.507 -1.0956  0.2965 -2.6133
  196MOL0     H26427   0.759   0.103   2.646 -5.2583 -0.6095 -1.3990
  196MOL0     H26428   0.673   0.194   2.370 -1.1337 -2.8570 -1.6365
  196MOL0     H26429   0.593   0.063   2.464 -1.6031  0.8237  3.6039
  196MOL0     H26430   0.543   0.182   2.642 -0.8724 -0.4254 -0.7848
  196MOL0     H26431   0.475   0.264   2.496 -0.1228 -0.3700  1.1270
  196MOL0     H26432   0.554   0.416   2.665 -0.2818  0.1939 -0.6017
  196MOL0     H26433   0.710   0.341   2.674 -1.6359 -1.9636  0.4455
  196MOL0     H26434   0.583   0.483   2.422 -1.4583 -0.8344  1.0731
  196MOL0     H26435   0.733   0.410   2.418 -2.5717 -0.1287 -1.6318
  196MOL0     H26436   0.850   0.578   2.547  0.1617  0.5505  0.0480
  196MOL0     H26437   0.738   0.667   2.453 -2.2915 -0.3586 -0.6686
  196MOL0     H26438   0.681   0.598   2.745  4.3319 -0.1663  0.0695
  196MOL0     H26439   0.582   0.703   2.643  1.2449  1.3321 -2.3567
  196MOL0     H26440   0.702   0.866   2.745  0.9471  0.2016  1.2305
  196MOL0     H26441   0.786   0.854   2.601 -0.9597 -1.0885 -1.6338
  196MOL0     H26442   1.009   0.387   2.622  2.5597  0.6743  2.8268
  196MOL0     H26443   1.254   0.368   2.681 -0.1396 -0.8301  1.6915
  196MOL0     H26444   1.631   0.407   2.765 -0.9522 -1.8983  1.8799
  196MOL0     H26445   1.879   0.422   2.770 -1.3949  1.1074 -1.9294
  196MOL0     H26446   3.676   0.424   3.141  0.7114  0.4197 -1.1005
  196MOL0     H26447   3.864   0.307   3.094  0.7229 -0.9959 -0.2823
  196MOL0     H26448   4.112  -0.012   3.034 -2.1601 -0.3072 -0.3434
  196MOL0     H26449   4.309  -0.152   3.018 -0.8134 -2.5275  0.3440
  196MOL0     H26450   4.444  -0.374   2.626 -0.8726 -0.1205 -1.6174
  196MOL0     H26451   4.452  -0.202   2.583 -1.7065 -1.2097 -0.5371
  196MOL0     H26452   4.665  -0.323   2.593 -1.7544 -2.1022 -0.6965
  196MOL0     H26453   4.626  -0.362   2.768  0.9806  2.1357  2.1050
  196MOL0     H26454   4.642  -0.085   2.777 -0.7837 -2.5791  0.4449
  196MOL0     H26455   4.728  -0.109   2.621  2.2424 -1.4625  0.3653
  196MOL0     H26456   4.819  -0.178   2.895  0.9987 -0.4447 -0.1147
  196MOL0     H26457   4.887  -0.075   2.760 -1.5188  1.4976  2.0101
  196MOL0     H26458   5.021  -0.455   2.635  0.2899  1.1584 -2.7614
  196MOL0     H26459   4.205  -0.225   2.600 -0.5837  1.7189 -1.5609
  196MOL0     H26460   3.994  -0.126   2.633  2.4310  0.4147 -1.9112
  197MOL0     O26461  10.887   2.635   6.050  0.2062 -0.7269  0.0352
  197MOL0     C26462  10.936   2.745   6.034 -0.4362  0.7592 -1.0206
  197MOL0     O26463  10.867   2.862   5.997  0.7424  0.2813  0.1208
  197MOL0     C26464  10.730   2.857   5.986 -0.0126 -0.5771  0.2364
  197MOL0     C26465  10.643   2.892   6.092 -0.2855  0.6505  0.3867
  197MOL0     C26466  10.510   2.868   6.079  0.3386  0.5847  1.2892
  197MOL0     C26467  10.456   2.816   5.961  0.7967  0.1356  0.4617
  197MOL0     O26468  10.322   2.800   5.944  0.7968 -0.0459 -1.0356
  197MOL0     C26469  10.240   2.766   6.058  0.6351  0.8491 -0.0144
  197MOL0     C26470  10.119   2.689   6.006 -0.0733  0.2144  0.4858
  197MOL0     C26471  10.030   2.663   6.124  0.4262  0.4135  0.2717
  197MOL0     C26472   9.945   2.538   6.091  0.7524 -0.3515  0.4103
  197MOL0     C26473   9.863   2.484   6.208 -0.8270  0.2409  0.0776
  197MOL0     C26474   9.752   2.591   6.243  0.0277  0.2865 -0.5197
  197MOL0     C26475   9.659   2.527   6.355  0.0363  0.9774  1.2610
  197MOL0     C26476   9.568   2.631   6.402  0.2541 -1.0030 -1.0627
  197MOL0     N26477   9.457   2.648   6.317  0.3098 -0.0050 -0.3600
  197MOL0     C26478   9.437   2.758   6.231  0.5487  0.0538 -0.5771
  197MOL0     C26479   9.317   2.737   6.176  0.4815 -0.6866  0.2560
  197MOL0     C26480   9.252   2.826   6.078  0.0156 -0.3061  0.5313
  197MOL0     C26481   9.337   2.898   5.976 -0.6993 -0.9477 -0.6248
  197MOL0     C26482   9.423   2.796   5.878 -0.3972 -0.3106 -0.2932
  197MOL0     C26483   9.435   2.851   5.737  0.1700 -0.6346  0.4723
  197MOL0     O26484   9.315   2.856   5.659  0.1874 -0.2935  0.2410
  197MOL0     C26485   9.236   2.741   5.669 -0.4168 -0.0394 -0.2235
  197MOL0     C26486   9.267   2.633   5.594 -0.1889  0.8657 -0.0536
  197MOL0     C26487   9.189   2.519   5.588 -1.2315  0.3553  0.0542
  197MOL0     C26488   9.252   2.408   5.498 -0.3186 -0.7494 -0.2464
  197MOL0     C26489   9.070   2.507   5.661  0.1488  0.0620 -0.6398
  197MOL0     C26490   8.977   2.385   5.663 -0.0331 -0.3756  0.8717
  197MOL0     O26491   8.864   2.396   5.743 -0.4578  0.2975 -0.1067
  197MOL0     C26492   8.788   2.282   5.760 -0.0046  0.4630  0.2722
  197MOL0     C26493   8.650   2.296   5.752  0.4291 -0.1073 -0.0298
  197MOL0     C26494   8.568   2.185   5.771  0.1682  0.1633 -0.7255
  197MOL0     C26495   8.618   2.062   5.820 -0.6376 -0.5659 -0.4479
  197MOL0     O26496   8.537   1.956   5.848 -0.0355  0.1722 -0.0842
  197MOL0     C26497   8.424   1.985   5.934 -0.6511  0.3558 -0.0746
  197MOL0     C26498   8.352   1.856   5.956 -0.3160 -0.3105  1.1711
  197MOL0     C26499   8.327   1.774   5.815  0.9396  0.0726  0.7848
  197MOL0     C26500   8.435   1.668   5.792 -0.0996 -0.5023  0.2825
  197MOL0     C26501   8.398   1.578   5.672  0.2608 -0.2515  0.0964
  197MOL0     C26502   8.493   1.464   5.676  0.3508  0.8395  0.3765
  197MOL0     C26503   8.468   1.356   5.558  0.9003 -0.5572 -0.1821
  197MOL0     C26504   8.357   1.252   5.591  0.0566 -1.2740  0.4398
  197MOL0    Cl26505   8.236   1.314   5.708 -0.3598  0.5504  0.2503
  197MOL0     C26506   8.759   2.051   5.828 -0.2434 -0.3235  0.3935
  197MOL0     C26507   8.843   2.157   5.800  0.3735 -0.1240  0.7012
  197MOL0     O26508   8.995   2.302   5.581 -0.1389  0.9747  0.6398
  197MOL0     C26509   9.031   2.631   5.725 -0.3803  0.9164  0.1911
  197MOL0     C26510   9.107   2.747   5.725 -0.0741 -0.9910  0.1844
  197MOL0     N26511   9.254   2.634   6.243 -0.2310 -1.0414  0.4492
  197MOL0     N26512   9.344   2.571   6.313 -0.6008  0.3659  0.4476
  197MOL0     C26513  10.540   2.801   5.851  0.0042  0.7068 -0.4786
  197MOL0     C26514  10.682   2.805   5.863 -0.1172 -0.2241  0.1399
  197MOL0     C26515  11.085   2.744   6.049  0.4881 -0.5603  0.2061
  197MOL0     C26516  11.158   2.626   6.026  1.0309  0.5112 -0.4136
  197MOL0     C26517  11.296   2.623   6.043  0.2189 -0.2819 -0.1206
  197MOL0     C26518  11.365   2.747   6.062 -0.8166 -0.0727 -0.1607
  197MOL0     O26519  11.502   2.759   6.084 -0.4417 -0.3238  0.9797
  197MOL0     C26520  11.575   2.632   6.059 -0.0459 -0.5411  0.9478
  197MOL0     C26521  11.727   2.647   6.085  0.1487 -0.2182  0.7721
  197MOL0     C26522  11.810   2.528   6.053 -0.2000  0.6178  0.6454
  197MOL0     C26523  11.954   2.568   6.035  0.5338 -0.1003 -0.2311
  197MOL0     C26524  12.026   2.648   6.143 -0.8174 -0.0653  0.1954
  197MOL0     C26525  12.092   2.720   6.209 -0.1581 -0.8699  0.0061
  197MOL0     C26526  11.290   2.858   6.085 -1.2026 -1.0664 -0.2340
  197MOL0     C26527  11.150   2.862   6.074 -0.1829 -1.2725  0.6848
  197MOL0     H26528  10.693   2.937   6.177 -0.2040  0.0217  0.6781
  197MOL0     H26529  10.445   2.894   6.162 -3.2855 -0.2164 -1.0792
  197MOL0     H26530  10.286   2.707   6.138  0.0331 -0.1247 -0.3639
  197MOL0     H26531  10.204   2.855   6.111  0.3661 -0.1651  1.5790
  197MOL0     H26532  10.058   2.745   5.935 -0.6104 -0.3436  0.5075
  197MOL0     H26533  10.154   2.595   5.964  1.9433  1.0221  0.2239
  197MOL0     H26534  10.096   2.641   6.209 -0.0178 -0.2220  0.4625
  197MOL0     H26535   9.966   2.744   6.159 -1.3392  0.1066 -2.0552
  197MOL0     H26536   9.874   2.573   6.015  0.9330  1.5615  1.0825
  197MOL0     H26537  10.020   2.467   6.054 -0.0919 -0.7905 -0.5194
  197MOL0     H26538   9.822   2.384   6.192  0.8036 -0.4015 -0.3871
  197MOL0     H26539   9.928   2.480   6.296 -0.0831 -1.6061 -0.5032
  197MOL0     H26540   9.805   2.669   6.299  0.6190  0.1294 -0.8528
  197MOL0     H26541   9.697   2.625   6.155  0.9589 -1.0895 -1.6518
  197MOL0     H26542   9.595   2.443   6.328 -1.9981  2.9634 -0.6320
  197MOL0     H26543   9.721   2.495   6.439 -0.7832  1.1581  1.9597
  197MOL0     H26544   9.620   2.727   6.414  0.4711 -1.2314 -0.0581
  197MOL0     H26545   9.531   2.602   6.501 -3.1623  1.4224 -1.4411
  197MOL0     H26546   9.509   2.836   6.210  0.8821 -0.2383 -0.5387
  197MOL0     H26547   9.166   2.779   6.028  0.5029 -1.6957  0.9306
  197MOL0     H26548   9.215   2.901   6.148  0.0162 -0.2540  0.4753
  197MOL0     H26549   9.403   2.970   6.027 -2.3441 -1.0583  1.8619
  197MOL0     H26550   9.264   2.951   5.915 -1.1778 -3.1473 -2.0648
  197MOL0     H26551   9.372   2.700   5.890 -0.5442  0.0499  3.0176
  197MOL0     H26552   9.522   2.781   5.923 -0.8049  0.1018  0.7809
  197MOL0     H26553   9.505   2.791   5.679  1.8657  0.4375  1.3331
  197MOL0     H26554   9.486   2.948   5.736  1.0140 -1.0785 -0.5600
  197MOL0     H26555   9.365   2.625   5.547 -0.1278 -0.7282  0.2875
  197MOL0     H26556   9.249   2.315   5.557  0.0292 -3.7769 -4.5704
  197MOL0     H26557   9.199   2.376   5.408  3.6187 -4.2582 -1.6298
  197MOL0     H26558   9.359   2.418   5.477 -0.5908 -1.2925 -2.0119
  197MOL0     H26559   8.610   2.393   5.723  1.0763 -0.0900 -0.9191
  197MOL0     H26560   8.460   2.178   5.757  0.3085 -1.4420 -1.2323
  197MOL0     H26561   8.470   2.020   6.027  0.9661 -1.1701 -0.2685
  197MOL0     H26562   8.351   2.055   5.891 -2.0790 -2.1720 -2.0593
  197MOL0     H26563   8.405   1.786   6.021 -0.9783 -2.5554 -0.6123
  197MOL0     H26564   8.251   1.887   5.982 -0.5912 -0.1538 -0.0449
  197MOL0     H26565   8.319   1.829   5.721  1.4603  1.2377  1.3978
  197MOL0     H26566   8.226   1.734   5.827  0.2461  1.4502 -0.1898
  197MOL0     H26567   8.537   1.707   5.783 -0.3472 -0.0787 -0.8011
  197MOL0     H26568   8.435   1.599   5.878 -0.3584  0.6452  1.2291
  197MOL0     H26569   8.410   1.629   5.576 -3.0106  0.0944 -0.2125
  197MOL0     H26570   8.292   1.553   5.669  0.7928 -2.5956 -1.3499
  197MOL0     H26571   8.590   1.505   5.647  0.2015  1.1385  0.2915
  197MOL0     H26572   8.513   1.415   5.771  1.0763  0.7526  0.1889
  197MOL0     H26573   8.556   1.293   5.543  1.1704 -0.0965 -0.5921
  197MOL0     H26574   8.441   1.413   5.468 -0.4868  0.0736  0.6127
  197MOL0     H26575   8.404   1.161   5.629  2.9735  0.2333  0.7364
  197MOL0     H26576   8.301   1.236   5.498 -0.8898  0.9775  0.5569
  197MOL0     H26577   8.798   1.953   5.853 -1.2285 -0.5821  0.9453
  197MOL0     H26578   8.951   2.143   5.811  0.2772  0.5061  3.1165
  197MOL0     H26579   8.938   2.626   5.781  0.0228 -0.3775  0.7762
  197MOL0     H26580   9.068   2.822   5.792  1.2085  1.4712 -1.6462
  197MOL0     H26581  10.516   2.743   5.763 -0.1165 -0.0475  0.0386
  197MOL0     H26582  10.758   2.777   5.790  0.5700  0.2924  0.6451
  197MOL0     H26583  11.111   2.528   6.016 -2.1053  1.8570  0.0582
  197MOL0     H26584  11.345   2.526   6.035  0.9028  0.1696 -1.7273
  197MOL0     H26585  11.549   2.547   6.122  1.6072 -1.6874  0.1662
  197MOL0     H26586  11.550   2.604   5.956  0.6352  2.5723 -0.1591
  197MOL0     H26587  11.736   2.656   6.194  3.2854  2.2268  0.4433
  197MOL0     H26588  11.764   2.740   6.043  0.2469 -1.2534 -1.5929
  197MOL0     H26589  11.786   2.490   5.953  5.7529  0.4306 -1.0954
  197MOL0     H26590  11.819   2.445   6.123  0.0773  0.7895  0.8133
  197MOL0     H26591  11.952   2.620   5.940 -5.1119  0.6506 -0.0439
  197MOL0     H26592  12.013   2.475   6.028 -1.1185 -1.4217  2.0539
  197MOL0     H26593  12.142   2.790   6.272  0.3813 -0.6997 -0.6120
  197MOL0     H26594  11.341   2.945   6.126 -2.4430 -0.9245  1.1418
  197MOL0     H26595  11.098   2.956   6.063  1.3290 -0.4391  0.2831
  198MOL0     O26596   2.639   0.682   3.895 -0.4959 -0.0754 -0.1317
  198MOL0     C26597   2.534   0.675   3.819 -0.1639  1.7032 -0.1251
  198MOL0     O26598   2.403   0.687   3.856 -0.3381 -0.5730  0.0655
  198MOL0     C26599   2.348   0.683   3.983  0.9144  0.1341  0.5207
  198MOL0     C26600   2.417   0.673   4.108  0.1527  0.3641  0.4715
  198MOL0     C26601   2.341   0.669   4.230 -0.1820 -0.8620 -0.2929
  198MOL0     C26602   2.202   0.681   4.229  0.4505  0.9492 -0.2675
  198MOL0     O26603   2.144   0.662   4.350 -0.3280  0.0297  0.8879
  198MOL0     C26604   2.001   0.666   4.353  0.7842  0.0336 -0.4302
  198MOL0     C26605   1.961   0.652   4.502  0.0473 -0.1489 -0.8128
  198MOL0     C26606   1.810   0.630   4.510 -0.3086  0.8582  0.6572
  198MOL0     C26607   1.772   0.612   4.656 -0.2894 -1.3092  0.4100
  198MOL0     C26608   1.633   0.554   4.671 -0.7734 -0.2099  0.2775
  198MOL0     C26609   1.520   0.642   4.613 -0.0441 -0.0237  0.2276
  198MOL0     C26610   1.387   0.598   4.673  0.0453 -0.0295  0.3106
  198MOL0     C26611   1.335   0.469   4.623 -0.2255  1.1224 -0.4300
  198MOL0     N26612   1.306   0.458   4.470  0.8284 -0.2599 -1.1306
  198MOL0     C26613   1.197   0.517   4.413  0.9761 -0.3823  0.6174
  198MOL0     C26614   1.209   0.487   4.283  0.0760 -0.7700  0.2140
  198MOL0     C26615   1.116   0.525   4.167  0.0539 -0.1313 -0.1741
  198MOL0     C26616   1.053   0.395   4.105  0.7301 -0.0497  0.6734
  198MOL0     C26617   0.988   0.426   3.959  0.3024 -0.3770 -0.4156
  198MOL0     C26618   0.876   0.530   3.971 -0.3656 -0.6254 -0.4583
  198MOL0     O26619   0.771   0.458   4.042  0.0089  0.3544  0.3246
  198MOL0     C26620   0.646   0.512   4.060 -0.0851 -0.3332  0.1550
  198MOL0     C26621   0.539   0.427   4.072 -0.1514 -0.1795 -0.3524
  198MOL0     C26622   0.406   0.472   4.097  0.7555 -0.4800 -0.8664
  198MOL0     C26623   0.296   0.363   4.103  0.2118  0.0921 -0.6975
  198MOL0     C26624   0.379   0.607   4.111 -0.2903 -0.3023 -0.2253
  198MOL0     C26625   0.243   0.663   4.149 -0.6972 -0.2746  0.0766
  198MOL0     O26626   0.160   0.581   4.216  0.7322 -0.2335 -0.7629
  198MOL0     C26627   0.026   0.613   4.251 -0.2527  0.2596  0.8207
  198MOL0     C26628  -0.015   0.564   4.376  0.4685  0.8732  0.6439
  198MOL0     C26629  -0.148   0.600   4.422 -0.0379 -0.2714 -0.1873
  198MOL0     C26630  -0.234   0.684   4.346  0.3549 -0.6045 -0.2934
  198MOL0     O26631  -0.360   0.727   4.371  0.1764  0.0522 -0.0702
  198MOL0     C26632  -0.379   0.742   4.508 -0.7645  0.2541 -0.8162
  198MOL0     C26633  -0.489   0.837   4.547 -0.4340 -0.5361  0.4911
  198MOL0     C26634  -0.629   0.783   4.502 -0.7475 -0.3238  0.0388
  198MOL0     C26635  -0.747   0.873   4.541 -0.2151  0.1899 -0.2249
  198MOL0     C26636  -0.876   0.798   4.532 -0.1286  0.8240  0.4124
  198MOL0     C26637  -1.007   0.879   4.575 -0.2125 -0.7022  0.0819
  198MOL0     C26638  -1.125   0.779   4.575  0.5494 -0.1503  0.5983
  198MOL0     C26639  -1.254   0.851   4.619 -0.2799 -0.4338  0.8654
  198MOL0    Cl26640  -1.236   0.947   4.776 -0.2426  0.0836  0.0472
  198MOL0     C26641  -0.189   0.727   4.220 -0.0188 -0.0513 -0.2760
  198MOL0     C26642  -0.064   0.687   4.173 -0.7926  0.7103  0.4917
  198MOL0     O26643   0.216   0.781   4.117 -0.6753 -0.1152 -1.1419
  198MOL0     C26644   0.503   0.697   4.104  0.8264  0.3027 -0.7302
  198MOL0     C26645   0.632   0.650   4.079  0.3137  0.6604 -0.0719
  198MOL0     N26646   1.321   0.413   4.263  0.5833  0.3677  0.1360
  198MOL0     N26647   1.376   0.395   4.378 -0.5403  0.3371 -0.5593
  198MOL0     C26648   2.140   0.693   4.109 -0.0554  0.0507 -0.3555
  198MOL0     C26649   2.214   0.695   3.989 -0.7474  0.1214 -0.4679
  198MOL0     C26650   2.553   0.625   3.688 -0.2663  0.6186  1.2267
  198MOL0     C26651   2.451   0.630   3.592  0.2320  0.8624 -0.6813
  198MOL0     C26652   2.461   0.575   3.465  0.9759  0.6288 -0.0116
  198MOL0     C26653   2.579   0.510   3.429 -0.0376 -0.8174 -0.5191
  198MOL0     O26654   2.576   0.464   3.303 -0.6039  0.6348  0.5048
  198MOL0     C26655   2.683   0.364   3.260  0.3711 -1.0999  0.3080
  198MOL0     C26656   2.643   0.278   3.141  0.5944  0.4468  0.1047
  198MOL0     C26657   2.529   0.178   3.174 -0.3621 -0.4657 -0.2897
  198MOL0     C26658   2.433   0.172   3.051  0.8756 -1.0282 -0.6268
  198MOL0     C26659   2.330   0.285   3.050 -0.4794 -0.0582 -0.6349
  198MOL0     C26660   2.252   0.377   3.046 -0.8786 -0.6421 -0.0780
  198MOL0     C26661   2.688   0.509   3.520  0.2532 -0.7431 -0.2925
  198MOL0     C26662   2.674   0.566   3.644 -1.0713 -0.3548 -0.2154
  198MOL0     H26663   2.525   0.679   4.118  0.1499  1.1656  0.1066
  198MOL0     H26664   2.388   0.674   4.328 -1.1090  1.7633  0.0933
  198MOL0     H26665   1.945   0.749   4.309 -3.7910 -2.6163 -0.2087
  198MOL0     H26666   1.977   0.575   4.297 -2.9193  1.7261 -1.9018
  198MOL0     H26667   1.997   0.558   4.546 -2.6399 -0.1548  1.6369
  198MOL0     H26668   1.989   0.739   4.563  1.8446 -1.2258 -0.0248
  198MOL0     H26669   1.753   0.713   4.468  1.1487  1.7751  0.3923
  198MOL0     H26670   1.790   0.532   4.466  0.0305  1.7555 -1.6256
  198MOL0     H26671   1.842   0.541   4.701  1.9305 -0.9260 -2.1584
  198MOL0     H26672   1.779   0.713   4.697  1.1021 -0.4470 -1.7488
  198MOL0     H26673   1.637   0.455   4.625  0.2394  0.2978 -0.7987
  198MOL0     H26674   1.611   0.540   4.777 -0.0120 -0.8903  0.3520
  198MOL0     H26675   1.530   0.746   4.644  2.9446 -0.2646  0.3068
  198MOL0     H26676   1.520   0.640   4.504 -0.8628  0.2530  0.2092
  198MOL0     H26677   1.386   0.597   4.782  2.8739 -1.3708  0.3967
  198MOL0     H26678   1.318   0.677   4.639 -0.2492  0.3242  1.6887
  198MOL0     H26679   1.242   0.446   4.675 -0.7898  0.3307 -1.7439
  198MOL0     H26680   1.411   0.397   4.656 -0.2304  1.1075 -0.4511
  198MOL0     H26681   1.120   0.576   4.460  2.2139  1.4001  0.5004
  198MOL0     H26682   1.034   0.587   4.205  0.0205  1.3292 -2.4691
  198MOL0     H26683   1.178   0.575   4.093 -0.5221 -0.0286 -0.5987
  198MOL0     H26684   0.974   0.350   4.167 -0.4810 -1.4661 -1.7476
  198MOL0     H26685   1.136   0.324   4.110 -1.8261 -3.3105  0.4018
  198MOL0     H26686   0.953   0.338   3.904  2.4848 -0.3540 -1.9809
  198MOL0     H26687   1.064   0.459   3.887  0.4444 -4.6983 -2.5818
  198MOL0     H26688   0.849   0.572   3.874  0.2016  0.7644 -0.0293
  198MOL0     H26689   0.900   0.615   4.035  1.5971 -0.6560 -1.1089
  198MOL0     H26690   0.556   0.320   4.065 -0.9385 -0.5360  2.0772
  198MOL0     H26691   0.243   0.366   4.199  0.1114 -2.7675 -0.5857
  198MOL0     H26692   0.220   0.384   4.028 -1.3348 -1.1372  0.4533
  198MOL0     H26693   0.334   0.261   4.096 -3.5127 -1.6393  1.4799
  198MOL0     H26694   0.034   0.497   4.446 -2.5313  0.1780  2.2621
  198MOL0     H26695  -0.185   0.564   4.517  0.1855 -0.5592 -0.2082
  198MOL0     H26696  -0.400   0.649   4.562  1.2874  0.8753  1.2251
  198MOL0     H26697  -0.281   0.772   4.548 -0.1081  0.4599 -2.4936
  198MOL0     H26698  -0.498   0.856   4.654 -1.4624 -0.6541  0.4334
  198MOL0     H26699  -0.480   0.929   4.487  1.7661 -1.0953 -0.1382
  198MOL0     H26700  -0.644   0.685   4.547  0.6349 -1.9561 -2.7683
  198MOL0     H26701  -0.622   0.780   4.393 -0.6978 -0.4018  0.0437
  198MOL0     H26702  -0.729   0.916   4.640  0.1568  0.2319 -0.3071
  198MOL0     H26703  -0.752   0.952   4.466  1.0296  1.9602  1.4355
  198MOL0     H26704  -0.878   0.717   4.606 -0.8925 -1.1895 -1.6541
  198MOL0     H26705  -0.883   0.750   4.433 -0.1587  1.2792  0.1904
  198MOL0     H26706  -0.982   0.935   4.665  2.5343  1.2384 -1.7043
  198MOL0     H26707  -1.035   0.952   4.498 -0.0498 -0.8316 -0.1010
  198MOL0     H26708  -1.093   0.695   4.637  2.2062 -0.0716 -0.0932
  198MOL0     H26709  -1.156   0.742   4.476 -0.6723 -2.5588  1.8030
  198MOL0     H26710  -1.331   0.774   4.615  0.4831 -1.1844  0.1312
  198MOL0     H26711  -1.275   0.919   4.536  0.3601  0.0991  1.1276
  198MOL0     H26712  -0.246   0.799   4.164  2.4433  0.8234 -1.8116
  198MOL0     H26713  -0.045   0.732   4.076 -2.1845 -2.5764 -1.4892
  198MOL0     H26714   0.490   0.802   4.128  1.4990  0.8684 -2.6861
  198MOL0     H26715   0.722   0.710   4.072  1.7377 -1.3241  0.5119
  198MOL0     H26716   2.034   0.699   4.089  0.2793  0.9012 -2.0977
  198MOL0     H26717   2.160   0.707   3.895  0.5116 -4.1443 -1.9882
  198MOL0     H26718   2.356   0.674   3.619 -0.5567 -0.9560 -0.2948
  198MOL0     H26719   2.379   0.585   3.395 -1.3389 -0.5168  2.3654
  198MOL0     H26720   2.762   0.431   3.225 -0.1826 -0.3333  0.4811
  198MOL0     H26721   2.714   0.293   3.337 -0.3087  0.1370  1.8001
  198MOL0     H26722   2.728   0.220   3.104 -0.9340 -3.1189  1.7483
  198MOL0     H26723   2.618   0.337   3.053  0.3501  1.1980  0.6626
  198MOL0     H26724   2.471   0.211   3.261  1.6754  1.4949  0.4275
  198MOL0     H26725   2.575   0.081   3.193 -1.7184 -0.8804  1.1679
  198MOL0     H26726   2.386   0.073   3.056  0.2066 -0.6601  1.2411
  198MOL0     H26727   2.488   0.182   2.957 -0.7120  2.2778 -1.3459
  198MOL0     H26728   2.185   0.460   3.043 -0.6957 -0.4713 -3.6908
  198MOL0     H26729   2.786   0.482   3.483  0.5880  1.7916 -1.4587
  198MOL0     H26730   2.757   0.559   3.713 -1.1761  0.0033 -0.0496
  199MOL0     O26731   7.759   8.985   6.021  0.1087  0.2209  0.4589
  199MOL0     C26732   7.803   9.101   6.041 -0.0364  0.6384  0.5101
  199MOL0     O26733   7.754   9.184   6.136 -0.4609  0.2277 -0.6806
  199MOL0     C26734   7.642   9.150   6.207 -0.0191  0.3630  0.5339
  199MOL0     C26735   7.605   9.021   6.257 -0.8403 -0.7974  0.5086
  199MOL0     C26736   7.487   9.001   6.334  0.3295 -0.1121 -0.0527
  199MOL0     C26737   7.403   9.115   6.342 -0.1056  0.6629 -0.4989
  199MOL0     O26738   7.289   9.096   6.426  0.4787 -0.4592  0.0152
  199MOL0     C26739   7.179   9.201   6.432 -0.4739 -0.6341 -0.6135
  199MOL0     C26740   7.069   9.142   6.529  0.4845  0.2802 -0.2568
  199MOL0     C26741   6.962   9.253   6.552  0.0997  0.6040 -0.2760
  199MOL0     C26742   6.837   9.193   6.629  0.1342  0.1144 -0.1063
  199MOL0     C26743   6.728   9.296   6.657  0.3302  0.6633 -0.4853
  199MOL0     C26744   6.651   9.358   6.534  0.0950  0.4479 -0.3872
  199MOL0     C26745   6.508   9.381   6.573  0.4414  0.2336  0.2204
  199MOL0     C26746   6.442   9.443   6.449 -0.0426  0.5252  0.9138
  199MOL0     N26747   6.300   9.430   6.461  0.0508  0.2296 -0.5115
  199MOL0     C26748   6.230   9.457   6.576  0.0209  0.4056  0.1347
  199MOL0     C26749   6.104   9.420   6.553  0.5824 -0.1502  1.0347
  199MOL0     C26750   5.986   9.421   6.634  0.1248 -0.5640 -0.9171
  199MOL0     C26751   5.976   9.548   6.713 -0.0205  0.3531  0.3729
  199MOL0     C26752   5.844   9.586   6.780 -0.0181 -0.6683 -0.4202
  199MOL0     C26753   5.802   9.485   6.881  0.1801 -0.0092  0.0893
  199MOL0     O26754   5.692   9.545   6.944  0.4435  0.3319  0.1236
  199MOL0     C26755   5.628   9.472   7.047  0.3275 -0.7134  0.6257
  199MOL0     C26756   5.676   9.348   7.085  0.9951 -0.2538 -0.2174
  199MOL0     C26757   5.605   9.264   7.176 -0.3573 -0.1891 -0.2306
  199MOL0     C26758   5.675   9.128   7.209  0.2910  0.2555 -0.4340
  199MOL0     C26759   5.471   9.302   7.209  0.2657  0.5850 -1.3930
  199MOL0     C26760   5.377   9.207   7.288  0.4586  0.7450  0.0044
  199MOL0     O26761   5.249   9.204   7.244 -0.1551 -0.1456  0.1353
  199MOL0     C26762   5.155   9.213   7.345  0.1649  0.6475  0.5752
  199MOL0     C26763   5.170   9.277   7.477  0.4535  0.4945  0.6193
  199MOL0     C26764   5.057   9.283   7.563  0.4187  0.6249 -0.4638
  199MOL0     C26765   4.930   9.247   7.523  0.0541 -0.1913  0.0181
  199MOL0     O26766   4.836   9.268   7.620 -0.5110 -0.5046  0.2186
  199MOL0     C26767   4.699   9.221   7.611  0.0721 -0.1067  0.3580
  199MOL0     C26768   4.612   9.317   7.533  0.8426  0.2516  0.1067
  199MOL0     C26769   4.463   9.308   7.564 -0.2691 -0.4616  0.1429
  199MOL0     C26770   4.384   9.406   7.481 -0.6856  0.3311  1.1020
  199MOL0     C26771   4.231   9.396   7.502  0.0529  0.7373 -0.0808
  199MOL0     C26772   4.189   9.469   7.632  0.7841  0.1328 -1.1776
  199MOL0     C26773   4.035   9.459   7.656 -0.3306 -0.4270  0.7367
  199MOL0     C26774   4.002   9.514   7.790  0.8857 -0.0272 -0.1504
  199MOL0    Cl26775   4.016   9.689   7.796  0.0086  0.5262  0.5030
  199MOL0     C26776   4.907   9.192   7.396 -0.3804  0.0547 -0.2866
  199MOL0     C26777   5.019   9.174   7.315  0.5231  0.3286 -0.6330
  199MOL0     O26778   5.425   9.132   7.378  0.1180 -0.1434 -0.4124
  199MOL0     C26779   5.419   9.422   7.165  0.5362 -0.6098 -0.0267
  199MOL0     C26780   5.501   9.512   7.092 -0.6350 -0.2396 -0.8847
  199MOL0     N26781   6.107   9.345   6.433  0.3699 -0.1033  0.9332
  199MOL0     N26782   6.221   9.365   6.375 -0.7551  0.7254 -0.2879
  199MOL0     C26783   7.429   9.237   6.284 -0.2083 -0.4328 -0.1380
  199MOL0     C26784   7.547   9.254   6.216  0.2055  0.6106  0.0897
  199MOL0     C26785   7.926   9.151   5.962  0.2511  0.0791 -0.0086
  199MOL0     C26786   7.969   9.084   5.844 -0.2089 -0.1219 -0.2986
  199MOL0     C26787   8.067   9.122   5.758  0.4462 -1.2782 -0.4079
  199MOL0     C26788   8.113   9.257   5.778 -0.0884  1.0752 -0.1572
  199MOL0     O26789   8.196   9.329   5.697 -0.0895  0.4165  0.8603
  199MOL0     C26790   8.231   9.268   5.565 -0.5993  0.1475  0.5982
  199MOL0     C26791   8.369   9.184   5.576  0.2311  1.0319  0.7447
  199MOL0     C26792   8.487   9.268   5.624 -0.6843  0.3444 -0.1009
  199MOL0     C26793   8.621   9.246   5.559 -0.6937  0.3790  0.4492
  199MOL0     C26794   8.684   9.115   5.592  0.3827  0.4264 -0.4036
  199MOL0     C26795   8.752   9.019   5.617  0.4331  0.1019  0.5346
  199MOL0     C26796   8.069   9.323   5.895  0.5411  0.8339 -0.4050
  199MOL0     C26797   7.977   9.275   5.986  0.3390 -0.0896  0.5265
  199MOL0     H26798   7.664   8.931   6.248  1.4403  0.8326 -3.0939
  199MOL0     H26799   7.470   8.906   6.382 -1.1497 -1.7714 -3.5744
  199MOL0     H26800   7.219   9.293   6.476 -5.3005  3.5361 -3.7379
  199MOL0     H26801   7.128   9.237   6.342 -2.4843  0.4969  0.8809
  199MOL0     H26802   7.024   9.057   6.478 -2.8424  1.3989  0.5968
  199MOL0     H26803   7.130   9.118   6.616  1.1558  2.2119 -0.1369
  199MOL0     H26804   6.999   9.333   6.618  1.6706 -0.3897  0.1004
  199MOL0     H26805   6.935   9.288   6.451 -1.1749  0.0734 -0.1419
  199MOL0     H26806   6.794   9.107   6.576  0.2708  0.2775 -0.4860
  199MOL0     H26807   6.882   9.157   6.722 -0.7711  1.0032  0.7011
  199MOL0     H26808   6.661   9.242   6.725  2.0081  0.4487  1.0807
  199MOL0     H26809   6.775   9.380   6.708  1.0018 -0.8332  1.5192
  199MOL0     H26810   6.703   9.447   6.498 -1.4603  2.2372  1.4747
  199MOL0     H26811   6.647   9.274   6.465 -1.8774 -0.7770  1.0918
  199MOL0     H26812   6.455   9.288   6.597 -0.8587  0.9740  0.3287
  199MOL0     H26813   6.492   9.451   6.655  0.1217 -0.8029  1.0637
  199MOL0     H26814   6.474   9.391   6.359  1.5066  2.3305  0.3513
  199MOL0     H26815   6.483   9.543   6.433  1.4846 -0.3572 -1.0196
  199MOL0     H26816   6.269   9.490   6.672  1.2531  2.8184 -1.1193
  199MOL0     H26817   5.897   9.422   6.570  0.4340  3.5221 -1.5082
  199MOL0     H26818   5.973   9.330   6.694 -2.4964 -0.3353 -0.9936
  199MOL0     H26819   6.003   9.634   6.651  0.9941  1.6884  2.5339
  199MOL0     H26820   6.048   9.551   6.795 -1.5178  0.7100  1.7304
  199MOL0     H26821   5.766   9.596   6.705 -1.6409 -2.6018  0.9048
  199MOL0     H26822   5.868   9.686   6.818  0.3335 -2.0194  3.4304
  199MOL0     H26823   5.885   9.479   6.953  1.6601  0.7054 -1.4900
  199MOL0     H26824   5.770   9.387   6.844 -2.5915  0.0819  1.9352
  199MOL0     H26825   5.771   9.308   7.050  0.4132 -0.6002 -1.4243
  199MOL0     H26826   5.606   9.051   7.174  1.4741  0.1690 -2.7998
  199MOL0     H26827   5.769   9.109   7.156  0.4519 -0.5715  0.1404
  199MOL0     H26828   5.690   9.099   7.313 -0.2513  0.7078 -0.2235
  199MOL0     H26829   5.259   9.312   7.529 -1.5663  0.1033  4.7734
  199MOL0     H26830   5.066   9.314   7.666 -2.7839  0.4056 -0.0307
  199MOL0     H26831   4.695   9.119   7.572 -1.1303 -0.2015  0.7087
  199MOL0     H26832   4.666   9.228   7.715 -3.9267  0.6510 -0.7978
  199MOL0     H26833   4.641   9.418   7.566 -1.6789  1.5443 -1.3185
  199MOL0     H26834   4.634   9.299   7.427  0.2766  0.9752 -0.1473
  199MOL0     H26835   4.440   9.348   7.663 -3.0343  0.8117 -0.9216
  199MOL0     H26836   4.429   9.205   7.548 -2.6072  0.3289 -0.3518
  199MOL0     H26837   4.408   9.513   7.487  0.4828  0.3400 -2.1167
  199MOL0     H26838   4.402   9.376   7.378  0.5987  1.6847  0.8961
  199MOL0     H26839   4.198   9.292   7.504  1.1579  0.3340 -1.5807
  199MOL0     H26840   4.177   9.444   7.420  0.3310  2.7316  0.8395
  199MOL0     H26841   4.248   9.434   7.717 -0.7285  0.0677 -0.1071
  199MOL0     H26842   4.220   9.574   7.625  0.3187  0.2046 -2.5140
  199MOL0     H26843   3.995   9.357   7.648 -0.2836 -0.3640 -0.5526
  199MOL0     H26844   3.993   9.519   7.575  1.8114 -1.0265 -0.8932
  199MOL0     H26845   4.052   9.467   7.875  1.3979 -0.0406 -0.4520
  199MOL0     H26846   3.898   9.487   7.812  0.9486 -0.6542 -0.5929
  199MOL0     H26847   4.811   9.153   7.362 -0.2401 -0.2840 -0.3049
  199MOL0     H26848   5.014   9.137   7.213  0.0301  0.3655 -0.6241
  199MOL0     H26849   5.317   9.442   7.195 -0.2709 -4.6436  0.3879
  199MOL0     H26850   5.471   9.609   7.053 -0.3892  0.0668 -0.3208
  199MOL0     H26851   7.364   9.324   6.294  0.8593  0.1106  3.9400
  199MOL0     H26852   7.568   9.350   6.169  2.1864  0.1433 -0.0594
  199MOL0     H26853   7.927   8.985   5.827  0.6540 -0.5865  0.2226
  199MOL0     H26854   8.092   9.051   5.680 -1.1349 -2.8164  0.4077
  199MOL0     H26855   8.148   9.210   5.522  0.5497 -1.7260  0.8038
  199MOL0     H26856   8.270   9.345   5.499  1.3792 -0.9569  0.3863
  199MOL0     H26857   8.393   9.149   5.475 -1.1905  1.4177  0.2441
  199MOL0     H26858   8.350   9.095   5.635  1.2670  0.5780  0.4196
  199MOL0     H26859   8.491   9.253   5.733 -1.4674 -0.9220 -0.2299
  199MOL0     H26860   8.470   9.374   5.602 -0.9637  0.4398  0.5360
  199MOL0     H26861   8.685   9.324   5.600  0.9484  0.0728 -1.3593
  199MOL0     H26862   8.621   9.263   5.451  2.9935  0.0021  0.2546
  199MOL0     H26863   8.810   8.929   5.613 -3.3462 -2.5935  1.5603
  199MOL0     H26864   8.099   9.426   5.907  0.2943  0.6734  2.3357
  199MOL0     H26865   7.928   9.343   6.054 -2.3737 -1.2060 -0.1655
  200MOL0     O26866   6.297   9.847   4.994 -0.8367 -0.2208 -0.0771
  200MOL0     C26867   6.235   9.747   4.957  0.0332  1.0415 -0.5865
  200MOL0     O26868   6.097   9.740   4.919 -0.4933 -0.7094 -0.5964
  200MOL0     C26869   6.014   9.846   4.954 -0.1923  0.2994 -0.4817
  200MOL0     C26870   6.010   9.971   4.882 -0.9577  0.1448  0.2540
  200MOL0     C26871   5.924  10.071   4.930 -0.0159  0.6180 -0.2290
  200MOL0     C26872   5.824  10.051   5.024  0.9906  0.5450  0.2956
  200MOL0     O26873   5.734  10.157   5.042 -0.2043 -0.5871 -0.1078
  200MOL0     C26874   5.606  10.115   5.104  0.4707  0.7028 -0.1169
  200MOL0     C26875   5.500  10.227   5.111 -0.1989  0.3131 -0.1216
  200MOL0     C26876   5.381  10.177   5.188 -0.5108 -0.2738  0.5741
  200MOL0     C26877   5.266  10.279   5.186 -0.1326 -0.0882  0.0064
  200MOL0     C26878   5.153  10.239   5.270 -0.1335  0.9599  0.4324
  200MOL0     C26879   5.036  10.336   5.261  0.4394  0.6736  0.8373
  200MOL0     C26880   4.971  10.336   5.120 -0.0071  0.2583 -0.0837
  200MOL0     C26881   4.837  10.407   5.121  0.1311 -0.4340 -0.3622
  200MOL0     N26882   4.787  10.427   4.981 -0.6225 -0.7787  0.5649
  200MOL0     C26883   4.823  10.543   4.909  0.8227  0.5488 -0.0678
  200MOL0     C26884   4.780  10.512   4.785  0.2622 -0.2588  0.1683
  200MOL0     C26885   4.795  10.593   4.658 -0.3636  0.3181  0.1347
  200MOL0     C26886   4.854  10.505   4.547 -0.3823  0.1607  0.0707
  200MOL0     C26887   4.997  10.464   4.583 -1.0026 -0.3603  0.6477
  200MOL0     C26888   5.060  10.385   4.471 -0.0260 -0.5650 -0.0169
  200MOL0     O26889   5.107  10.456   4.356  0.9116 -0.1715  0.6510
  200MOL0     C26890   5.236  10.487   4.353 -0.3692  0.1376  0.9092
  200MOL0     C26891   5.271  10.560   4.244 -0.0749  0.5707  0.7179
  200MOL0     C26892   5.404  10.605   4.230  1.0268  0.9005 -0.1571
  200MOL0     C26893   5.432  10.683   4.112 -0.2984  0.4750 -0.0079
  200MOL0     C26894   5.504  10.573   4.329 -0.1145  0.3730  0.2983
  200MOL0     C26895   5.649  10.618   4.327 -0.2530 -0.1056 -0.0722
  200MOL0     O26896   5.725  10.586   4.444  0.5061  0.3537 -0.5324
  200MOL0     C26897   5.862  10.565   4.445 -0.5856  0.5158  0.0361
  200MOL0     C26898   5.965  10.608   4.353  0.1506 -1.0735  0.0764
  200MOL0     C26899   6.095  10.574   4.384  0.2150 -0.0951 -0.3975
  200MOL0     C26900   6.128  10.488   4.490  0.0462 -0.1753 -0.0421
  200MOL0     O26901   6.258  10.448   4.507  0.1765  0.5535  0.1549
  200MOL0     C26902   6.293  10.379   4.625  0.2777 -0.3361  0.2942
  200MOL0     C26903   6.445  10.355   4.638  0.6639  0.2665 -0.7263
  200MOL0     C26904   6.489  10.285   4.764  0.1960  0.0995 -0.0720
  200MOL0     C26905   6.396  10.169   4.806 -0.5230  0.1711 -0.0269
  200MOL0     C26906   6.401  10.045   4.710  0.0163  0.9196 -0.4568
  200MOL0     C26907   6.541   9.987   4.684 -0.3755  0.1787 -0.2020
  200MOL0     C26908   6.614   9.960   4.812 -0.2550  0.0878 -0.3856
  200MOL0     C26909   6.739   9.876   4.791  1.2526 -0.1776 -0.1185
  200MOL0    Cl26910   6.694   9.705   4.752  0.1747  0.0362 -0.4891
  200MOL0     C26911   6.023  10.427   4.564  0.5842  0.3554  0.8815
  200MOL0     C26912   5.891  10.471   4.546 -0.4613 -0.1923 -0.8484
  200MOL0     O26913   5.702  10.661   4.230  0.4790 -0.6773  0.4084
  200MOL0     C26914   5.464  10.495   4.433  1.0173 -0.1061 -0.0636
  200MOL0     C26915   5.332  10.454   4.449  0.1741  0.1426  0.5664
  200MOL0     N26916   4.711  10.392   4.780 -0.3092 -0.1663 -0.4439
  200MOL0     N26917   4.722  10.340   4.894  0.5775  0.6362 -0.3585
  200MOL0     C26918   5.825   9.929   5.087 -0.3772 -0.1270 -0.4111
  200MOL0     C26919   5.916   9.830   5.052 -0.0560  0.0378 -0.8928
  200MOL0     C26920   6.307   9.614   4.945 -0.1468  0.4634  0.2729
  200MOL0     C26921   6.448   9.612   4.953  0.6465 -0.1047 -0.6264
  200MOL0     C26922   6.516   9.490   4.943  0.1808 -0.4437  0.1691
  200MOL0     C26923   6.448   9.370   4.922 -0.2535 -0.0355 -0.3708
  200MOL0     O26924   6.526   9.258   4.898  0.3338 -0.6599 -0.6392
  200MOL0     C26925   6.475   9.129   4.881 -0.3074 -0.2332 -0.3736
  200MOL0     C26926   6.452   9.112   4.730  0.0017  0.0148  0.3173
  200MOL0     C26927   6.324   9.034   4.709  0.1201  0.3709 -0.6821
  200MOL0     C26928   6.308   9.021   4.556 -0.1532 -0.5251 -0.9791
  200MOL0     C26929   6.382   8.905   4.508 -0.2599  1.0143  0.1897
  200MOL0     C26930   6.425   8.796   4.467 -0.1299 -0.8261  1.1036
  200MOL0     C26931   6.308   9.367   4.950  0.4076  0.9514  0.3771
  200MOL0     C26932   6.241   9.493   4.944  0.4966 -0.2143 -0.2782
  200MOL0     H26933   6.082  10.004   4.808 -1.3864 -3.0926 -1.7829
  200MOL0     H26934   5.923  10.168   4.880  3.6995 -0.7638 -3.4798
  200MOL0     H26935   5.557  10.030   5.056 -0.9375  0.0439  2.2984
  200MOL0     H26936   5.625  10.079   5.205  1.7176  0.0343 -0.5752
  200MOL0     H26937   5.542  10.315   5.161 -2.8499  0.9727  1.1364
  200MOL0     H26938   5.468  10.257   5.010  0.0596  3.3708  0.6079
  200MOL0     H26939   5.352  10.075   5.158 -0.0567 -0.0371 -0.7204
  200MOL0     H26940   5.431  10.179   5.286  1.5104  1.3995 -0.4215
  200MOL0     H26941   5.293  10.381   5.214  0.6124 -0.3596  0.2852
  200MOL0     H26942   5.224  10.285   5.084 -0.0064  0.9343  0.0024
  200MOL0     H26943   5.130  10.135   5.244  2.5990  0.6389 -1.0580
  200MOL0     H26944   5.176  10.240   5.377 -0.6684 -2.8855  0.7017
  200MOL0     H26945   4.959  10.307   5.333 -1.6373  0.9332 -1.1630
  200MOL0     H26946   5.059  10.441   5.282 -1.6124  1.4603 -0.5313
  200MOL0     H26947   5.037  10.381   5.046  0.4953 -1.0751 -0.4790
  200MOL0     H26948   4.961  10.230   5.094  1.6944 -0.1245  0.7052
  200MOL0     H26949   4.848  10.504   5.172 -2.4686 -0.1528 -0.1862
  200MOL0     H26950   4.770  10.347   5.184  0.6347  2.5200  3.3928
  200MOL0     H26951   4.891  10.622   4.941  0.3473  1.2027 -0.6487
  200MOL0     H26952   4.698  10.631   4.624 -0.4241  0.0765  0.0321
  200MOL0     H26953   4.858  10.680   4.675  1.7592 -0.3424 -3.2662
  200MOL0     H26954   4.862  10.565   4.456  0.6889  2.5322  1.6243
  200MOL0     H26955   4.797  10.413   4.534  0.8257 -0.4330 -1.4086
  200MOL0     H26956   5.007  10.413   4.679  0.2002 -0.6257  0.3949
  200MOL0     H26957   5.052  10.559   4.586 -1.7009  0.0561  0.6688
  200MOL0     H26958   4.991  10.311   4.430 -1.8324 -0.6458  2.8625
  200MOL0     H26959   5.131  10.323   4.528 -1.9569 -0.8086  2.3207
  200MOL0     H26960   5.198  10.582   4.167 -0.3786  1.0437  1.1387
  200MOL0     H26961   5.436  10.790   4.135  2.0412  0.4252  0.0709
  200MOL0     H26962   5.521  10.646   4.061 -1.6600  0.6321 -2.6641
  200MOL0     H26963   5.359  10.665   4.033 -1.6651  3.0046  0.5833
  200MOL0     H26964   5.939  10.669   4.267  2.4005  2.3613  1.6105
  200MOL0     H26965   6.168  10.614   4.314 -1.2348  2.3807 -0.6028
  200MOL0     H26966   6.264  10.444   4.708 -0.6559 -2.1684  1.4713
  200MOL0     H26967   6.249  10.278   4.632  0.3966 -0.3556  0.8329
  200MOL0     H26968   6.482  10.300   4.551  1.0461 -0.3723 -0.1760
  200MOL0     H26969   6.502  10.448   4.631 -0.7800  1.1173 -1.4835
  200MOL0     H26970   6.487  10.355   4.848 -0.1793  0.7537 -0.6145
  200MOL0     H26971   6.588  10.244   4.744  0.0601 -1.1192  1.5335
  200MOL0     H26972   6.433  10.144   4.906 -2.0218 -2.1171  0.0342
  200MOL0     H26973   6.295  10.211   4.813 -0.2692  0.7940 -0.0487
  200MOL0     H26974   6.361  10.082   4.614 -0.4444  1.3830 -0.0944
  200MOL0     H26975   6.337   9.967   4.751 -0.8618  2.4134  1.1201
  200MOL0     H26976   6.529   9.895   4.627 -0.8687 -0.4246  0.8299
  200MOL0     H26977   6.594  10.059   4.622 -1.0833 -0.4522 -1.5782
  200MOL0     H26978   6.541   9.909   4.875  3.0989 -2.0654  2.0714
  200MOL0     H26979   6.643  10.045   4.875  0.9937 -1.5558  1.3479
  200MOL0     H26980   6.795   9.871   4.885  1.2341  0.1224 -0.0901
  200MOL0     H26981   6.815   9.910   4.719  2.1083  0.1219  0.8873
  200MOL0     H26982   6.048  10.347   4.632  0.0518 -0.1505  0.4887
  200MOL0     H26983   5.810  10.430   4.605 -0.2230 -1.3157 -1.2799
  200MOL0     H26984   5.538  10.462   4.506  0.9350  1.2566  0.6784
  200MOL0     H26985   5.306  10.408   4.544 -2.5738 -0.0099 -0.1725
  200MOL0     H26986   5.755   9.917   5.169 -0.0051 -1.7794 -0.2868
  200MOL0     H26987   5.912   9.733   5.099 -0.2959  1.1961  1.6313
  200MOL0     H26988   6.507   9.700   4.976 -0.9080  0.8640 -0.1965
  200MOL0     H26989   6.624   9.492   4.937  0.1476 -0.1016 -0.3761
  200MOL0     H26990   6.548   9.056   4.918  0.4979  0.7640  0.0459
  200MOL0     H26991   6.389   9.108   4.946  0.2781 -0.7837  0.2429
  200MOL0     H26992   6.542   9.082   4.676 -1.1445  0.5291 -2.0014
  200MOL0     H26993   6.434   9.210   4.685  2.0617  0.3176  0.0403
  200MOL0     H26994   6.238   9.091   4.746 -0.3142  0.4208 -1.7323
  200MOL0     H26995   6.328   8.935   4.756  2.7079  0.2927 -0.9503
  200MOL0     H26996   6.326   9.116   4.506 -1.2453  0.2818  0.0769
  200MOL0     H26997   6.200   9.015   4.539 -0.4642 -1.5477  0.9695
  200MOL0     H26998   6.473   8.711   4.423  0.7177  1.0673 -1.9306
  200MOL0     H26999   6.251   9.276   4.936 -2.8678  2.5834  1.9570
  200MOL0     H27000   6.133   9.487   4.942  0.5360 -3.3168  1.3476
  201MOL0     O27001   0.638   2.919  10.469 -0.4552 -0.1897 -0.1842
  201MOL0     C27002   0.729   2.886  10.541  0.4220 -0.8512 -0.5064
  201MOL0     O27003   0.713   2.788  10.646 -1.1915  0.0969 -0.2003
  201MOL0     C27004   0.596   2.718  10.637  0.8371 -1.2673 -0.0758
  201MOL0     C27005   0.489   2.724  10.729  0.3500  0.4990  0.5779
  201MOL0     C27006   0.367   2.653  10.704  0.1506 -0.0299 -0.2965
  201MOL0     C27007   0.360   2.560  10.590  0.0262  0.0842 -0.2662
  201MOL0     O27008   0.253   2.479  10.557  0.0694  0.0391  0.2201
  201MOL0     C27009   0.128   2.493  10.632 -0.4450  0.0101 -0.4737
  201MOL0     C27010   0.116   2.404  10.760  0.0194  0.5557  0.5896
  201MOL0     C27011   0.105   2.256  10.707  0.5990  0.7744 -0.1342
  201MOL0     C27012   0.091   2.160  10.823 -0.5555  0.2176 -0.6062
  201MOL0     C27013   0.062   2.017  10.782 -0.3542 -0.1699 -0.3519
  201MOL0     C27014   0.027   1.921  10.892 -0.3313  0.4983 -0.0180
  201MOL0     C27015   0.005   1.784  10.834  0.3390 -0.3567 -0.1583
  201MOL0     C27016  -0.041   1.673  10.926  0.2079 -0.2373 -0.7909
  201MOL0     N27017  -0.183   1.691  10.975  0.2774  0.0251 -0.1706
  201MOL0     C27018  -0.301   1.693  10.890 -0.2051 -0.5522 -0.3037
  201MOL0     C27019  -0.404   1.675  10.973  0.1501 -0.5519  0.0934
  201MOL0     C27020  -0.552   1.659  10.954  0.1275 -0.3647 -0.2194
  201MOL0     C27021  -0.586   1.566  10.832  0.2105  0.6001 -0.0295
  201MOL0     C27022  -0.512   1.426  10.827  0.6645 -0.8009 -0.3529
  201MOL0     C27023  -0.531   1.364  10.687  0.1658 -0.0700 -0.5439
  201MOL0     O27024  -0.676   1.343  10.665 -0.4741  0.0652 -0.0357
  201MOL0     C27025  -0.753   1.261  10.748 -0.2581 -0.0566  0.1371
  201MOL0     C27026  -0.699   1.164  10.839  0.2069 -0.8752  0.0267
  201MOL0     C27027  -0.788   1.100  10.931  0.3928  0.0557  0.6152
  201MOL0     C27028  -0.731   0.994  11.026  0.4967 -0.4340 -0.4775
  201MOL0     C27029  -0.934   1.125  10.921  0.1810 -0.3696 -0.0770
  201MOL0     C27030  -1.035   1.078  11.020 -0.1989  0.2001  1.0114
  201MOL0     O27031  -1.155   1.039  10.963  0.4162 -0.2618 -0.6857
  201MOL0     C27032  -1.252   0.971  11.024 -0.2075  0.3911  0.3906
  201MOL0     C27033  -1.382   1.024  11.020 -0.4294 -0.0785 -0.2210
  201MOL0     C27034  -1.485   0.964  11.090  0.0389  0.2398  0.4023
  201MOL0     C27035  -1.463   0.869  11.181  0.4470  0.6652  0.1526
  201MOL0     O27036  -1.568   0.835  11.266  1.0493 -0.1284  0.5653
  201MOL0     C27037  -1.619   0.708  11.220 -0.6265  0.5716 -0.8527
  201MOL0     C27038  -1.743   0.684  11.293  0.9710  0.2747 -0.2784
  201MOL0     C27039  -1.856   0.795  11.263 -0.4258 -0.2030  0.7847
  201MOL0     C27040  -1.989   0.769  11.339 -0.0878  1.3678  0.4571
  201MOL0     C27041  -2.082   0.888  11.324 -0.1585  0.4649  0.0663
  201MOL0     C27042  -2.219   0.858  11.373  0.5782  0.5671 -0.7286
  201MOL0     C27043  -2.326   0.970  11.381  0.5632 -0.3959  1.0264
  201MOL0     C27044  -2.269   1.082  11.462  0.8818 -0.6490  0.4372
  201MOL0    Cl27045  -2.398   1.198  11.498  0.2708  0.1373 -0.1539
  201MOL0     C27046  -1.333   0.814  11.182 -0.3789  1.2964  0.2393
  201MOL0     C27047  -1.223   0.857  11.098  0.2143 -0.2055 -0.1611
  201MOL0     O27048  -1.009   1.069  11.139  1.3712 -0.3665 -0.3773
  201MOL0     C27049  -0.976   1.207  10.814 -0.3968  1.2091  0.1656
  201MOL0     C27050  -0.895   1.276  10.736  0.2390 -0.2846  0.5346
  201MOL0     N27051  -0.355   1.667  11.104  0.7103  0.5743 -0.5582
  201MOL0     N27052  -0.226   1.671  11.102 -0.2101  0.1554  1.1145
  201MOL0     C27053   0.462   2.563  10.493  0.0974 -0.3922  0.4520
  201MOL0     C27054   0.574   2.642  10.524  0.5002 -0.7298 -0.1439
  201MOL0     C27055   0.865   2.947  10.526 -0.0644  0.1444  0.6135
  201MOL0     C27056   0.888   3.050  10.434 -1.0481  0.5815 -0.7348
  201MOL0     C27057   1.006   3.111  10.430 -0.5184  0.7539 -0.8165
  201MOL0     C27058   1.119   3.070  10.511 -0.0254 -0.3754 -0.4619
  201MOL0     O27059   1.244   3.136  10.506  0.2662 -0.4125 -0.2189
  201MOL0     C27060   1.341   3.125  10.619  0.9150  0.0114  0.2417
  201MOL0     C27061   1.326   3.240  10.711  0.2105  0.7244 -0.3324
  201MOL0     C27062   1.192   3.231  10.790  0.3313  0.0874 -1.6016
  201MOL0     C27063   1.177   3.360  10.868  0.3770  0.6116 -0.7511
  201MOL0     C27064   1.056   3.344  10.952 -0.6048 -0.1603  0.2914
  201MOL0     C27065   0.972   3.322  11.031  0.1700  0.3639  0.1148
  201MOL0     C27066   1.091   2.959  10.595 -0.8085  0.2702 -0.0094
  201MOL0     C27067   0.973   2.892  10.605  0.1171 -0.0697  0.5916
  201MOL0     H27068   0.494   2.808  10.796 -0.9254 -0.3592  1.8079
  201MOL0     H27069   0.287   2.680  10.773  1.1202 -0.0565  0.8685
  201MOL0     H27070   0.106   2.597  10.659 -0.8124 -0.6046  1.7916
  201MOL0     H27071   0.047   2.468  10.561 -2.2988  1.8148  0.8796
  201MOL0     H27072   0.208   2.419  10.818  2.7560 -0.8437 -2.9901
  201MOL0     H27073   0.025   2.428  10.815  0.5442  0.8170  1.3534
  201MOL0     H27074   0.010   2.244  10.654 -0.3350  1.3223  1.3508
  201MOL0     H27075   0.192   2.213  10.658 -0.8896 -1.7539 -0.7474
  201MOL0     H27076   0.182   2.160  10.884  0.9157 -6.8148 -1.8998
  201MOL0     H27077   0.009   2.200  10.883 -1.1448 -0.3895 -0.9900
  201MOL0     H27078  -0.007   2.010  10.698  1.0821 -2.8368 -1.4236
  201MOL0     H27079   0.141   1.967  10.727  0.4533  2.5641 -1.8509
  201MOL0     H27080   0.113   1.924  10.959  0.2710  1.0499 -0.8028
  201MOL0     H27081  -0.046   1.961  10.964 -2.7725 -0.0976 -2.0135
  201MOL0     H27082  -0.054   1.781  10.742 -3.1232  3.0443  1.6771
  201MOL0     H27083   0.105   1.756  10.799  1.4038  2.5366  0.3423
  201MOL0     H27084   0.025   1.656  11.012  2.3312  2.7749 -1.6527
  201MOL0     H27085  -0.039   1.585  10.861  1.2928 -0.8359  0.0302
  201MOL0     H27086  -0.307   1.721  10.786  1.7963 -1.6435 -0.7581
  201MOL0     H27087  -0.604   1.629  11.045 -3.2099  4.3219 -0.2536
  201MOL0     H27088  -0.592   1.758  10.930 -0.6439 -0.8385 -0.9319
  201MOL0     H27089  -0.555   1.627  10.747 -3.1103  4.2069  1.0441
  201MOL0     H27090  -0.693   1.565  10.815  0.1344  1.2343  0.3632
  201MOL0     H27091  -0.549   1.370  10.913 -3.2876  1.3632 -0.4360
  201MOL0     H27092  -0.404   1.441  10.839  0.3862  1.3751 -0.0879
  201MOL0     H27093  -0.473   1.272  10.680  1.7372  0.9196 -1.2711
  201MOL0     H27094  -0.487   1.421  10.605 -1.8619 -0.2188 -1.8106
  201MOL0     H27095  -0.592   1.149  10.837  0.3159 -0.0124 -1.0739
  201MOL0     H27096  -0.745   1.038  11.125 -0.7954  1.0249 -1.2745
  201MOL0     H27097  -0.789   0.901  11.020 -1.2414  0.2593  3.0310
  201MOL0     H27098  -0.624   0.973  11.020  1.0112  2.3222 -3.0248
  201MOL0     H27099  -1.402   1.109  10.956 -2.2550  0.7070  1.3127
  201MOL0     H27100  -1.585   1.000  11.066  0.2849  2.1622  1.9964
  201MOL0     H27101  -1.652   0.701  11.116 -0.2726 -0.9174 -0.8837
  201MOL0     H27102  -1.545   0.629  11.229 -0.4306  0.5197 -2.5800
  201MOL0     H27103  -1.780   0.583  11.270  0.7165  0.7915 -2.2892
  201MOL0     H27104  -1.724   0.685  11.401  0.0465  1.1603 -0.1111
  201MOL0     H27105  -1.868   0.791  11.155 -1.3990 -3.4303  0.9214
  201MOL0     H27106  -1.810   0.886  11.303 -0.9220 -0.4714  2.0028
  201MOL0     H27107  -2.041   0.683  11.295  0.6257  2.0337 -1.8052
  201MOL0     H27108  -1.964   0.749  11.444 -2.0179 -1.6094  0.4749
  201MOL0     H27109  -2.099   0.925  11.223 -1.4335 -0.2112  0.0083
  201MOL0     H27110  -2.038   0.972  11.379  2.3040  0.3507 -1.6216
  201MOL0     H27111  -2.263   0.770  11.326  1.4923 -0.4831  0.2970
  201MOL0     H27112  -2.199   0.818  11.473  2.7706  0.3978 -1.1780
  201MOL0     H27113  -2.419   0.935  11.427  0.0637  2.0039  2.0152
  201MOL0     H27114  -2.345   0.997  11.277  0.9154  1.2112  1.3355
  201MOL0     H27115  -2.191   1.136  11.407  1.7698 -0.6718  1.6484
  201MOL0     H27116  -2.221   1.038  11.550 -0.5154 -3.8256 -0.2321
  201MOL0     H27117  -1.329   0.739  11.261 -0.6187  3.0700  2.0096
  201MOL0     H27118  -1.120   0.826  11.113  0.7820  1.4093 -0.5716
  201MOL0     H27119  -1.082   1.232  10.807 -0.7636 -0.2345  0.2149
  201MOL0     H27120  -0.937   1.348  10.667  0.7162  0.6546  1.2097
  201MOL0     H27121   0.460   2.492  10.411 -0.8356 -3.1508  2.6828
  201MOL0     H27122   0.647   2.640  10.443  0.6874 -1.2704  0.0378
  201MOL0     H27123   0.816   3.085  10.360 -2.3782 -0.5747 -0.0398
  201MOL0     H27124   1.006   3.196  10.363 -0.0151  1.4113 -0.0108
  201MOL0     H27125   1.338   3.032  10.676 -0.9165 -0.1576 -0.0693
  201MOL0     H27126   1.442   3.136  10.578  0.9058  1.2298  0.5148
  201MOL0     H27127   1.330   3.323  10.640 -2.3652  1.7375  0.5951
  201MOL0     H27128   1.410   3.238  10.780 -0.6176 -0.5978  0.6789
  201MOL0     H27129   1.195   3.146  10.858  1.0623  0.7774 -0.7423
  201MOL0     H27130   1.104   3.229  10.726 -1.9124  0.1714  1.2969
  201MOL0     H27131   1.184   3.450  10.806 -0.9271  1.0153 -0.3739
  201MOL0     H27132   1.260   3.375  10.938 -1.5467 -0.2690  1.8735
  201MOL0     H27133   0.887   3.296  11.091 -1.3575  1.0750 -1.6361
  201MOL0     H27134   1.171   2.900  10.640 -3.3014 -3.9836 -0.5493
  201MOL0     H27135   0.963   2.805  10.669  2.7476  0.0210  1.2404
  202MOL0     O27136  10.722   0.060   4.386  0.2893 -0.3880 -0.1800
  202MOL0     C27137  10.797   0.157   4.407  0.5956  0.3041  0.6265
  202MOL0     O27138  10.769   0.263   4.488  0.0418 -0.6742  0.1027
  202MOL0     C27139  10.640   0.282   4.534 -0.4415 -0.0512  0.5868
  202MOL0     C27140  10.552   0.359   4.466  0.4708  0.3964 -0.7014
  202MOL0     C27141  10.421   0.390   4.504 -0.0178  0.7245  0.1433
  202MOL0     C27142  10.379   0.334   4.627 -0.0893 -0.4816  0.8174
  202MOL0     O27143  10.253   0.377   4.666  0.2339  0.1109  0.3071
  202MOL0     C27144  10.237   0.377   4.812 -0.3934 -0.8391  0.4241
  202MOL0     C27145  10.108   0.440   4.848  0.6337  0.4068  0.0237
  202MOL0     C27146   9.987   0.374   4.782  0.2031  0.5899 -0.5944
  202MOL0     C27147   9.847   0.451   4.800 -0.1849 -1.0383  0.1212
  202MOL0     C27148   9.723   0.362   4.827  0.1019  0.0043 -0.1435
  202MOL0     C27149   9.688   0.261   4.709 -0.4420 -1.0453 -0.2414
  202MOL0     C27150   9.615   0.330   4.587  0.1481  0.5875 -0.6097
  202MOL0     C27151   9.575   0.227   4.489 -0.0288  0.5272  0.8158
  202MOL0     N27152   9.688   0.145   4.438 -0.0953  0.0307 -0.8379
  202MOL0     C27153   9.826   0.170   4.439 -0.2577  0.2089  0.2144
  202MOL0     C27154   9.884   0.044   4.410  0.2566 -0.6297 -0.7273
  202MOL0     C27155  10.027  -0.013   4.415 -0.3558 -0.2399 -0.4250
  202MOL0     C27156  10.101   0.010   4.550  0.1506  0.0315  0.5005
  202MOL0     C27157  10.246  -0.041   4.560 -0.3514 -0.1653  0.3689
  202MOL0     C27158  10.330  -0.019   4.437 -0.1468 -0.0239  0.2685
  202MOL0     O27159  10.311  -0.131   4.337 -0.4976  0.2773  0.2726
  202MOL0     C27160  10.415  -0.163   4.254 -0.0653  0.9213 -0.6562
  202MOL0     C27161  10.439  -0.302   4.267  0.0760  0.2140  0.2828
  202MOL0     C27162  10.555  -0.362   4.199 -0.7855 -0.1663 -0.5405
  202MOL0     C27163  10.592  -0.511   4.224  0.7172 -0.4067  0.2040
  202MOL0     C27164  10.635  -0.276   4.116 -0.1044 -0.4047  0.5025
  202MOL0     C27165  10.751  -0.321   4.038 -0.1621  0.9717  0.0200
  202MOL0     O27166  10.861  -0.239   4.038  0.0922 -0.0288 -0.6485
  202MOL0     C27167  10.978  -0.295   3.991 -0.2137 -0.5870 -0.2967
  202MOL0     C27168  11.044  -0.399   4.078  0.3236 -0.0005  0.5548
  202MOL0     C27169  11.158  -0.462   4.019  0.5447 -0.7166 -0.8921
  202MOL0     C27170  11.221  -0.407   3.909  0.4180 -1.5090 -0.6683
  202MOL0     O27171  11.340  -0.446   3.846  0.3103 -1.2669 -0.1774
  202MOL0     C27172  11.430  -0.527   3.929  0.3926  0.3195  0.4371
  202MOL0     C27173  11.568  -0.558   3.868  0.5809  0.6434 -0.0564
  202MOL0     C27174  11.563  -0.674   3.768  0.6021  0.0743  0.6032
  202MOL0     C27175  11.566  -0.816   3.838 -0.0954 -1.1233  0.1917
  202MOL0     C27176  11.554  -0.935   3.741  0.8869 -0.7400 -0.3909
  202MOL0     C27177  11.668  -0.948   3.642 -0.2153 -0.2892  0.5118
  202MOL0     C27178  11.811  -0.971   3.705  0.3220 -0.4702  0.3311
  202MOL0     C27179  11.898  -1.053   3.604  0.2966 -0.4663  0.6312
  202MOL0    Cl27180  11.914  -0.959   3.437  0.2734 -0.1760  0.0619
  202MOL0     C27181  11.161  -0.290   3.854 -0.3333  0.0491 -0.9970
  202MOL0     C27182  11.038  -0.238   3.881  0.3021 -0.9538 -0.5227
  202MOL0     O27183  10.741  -0.432   3.979  0.2597  0.7527  0.3192
  202MOL0     C27184  10.608  -0.134   4.110  0.2256 -0.6949 -0.0374
  202MOL0     C27185  10.499  -0.082   4.186  0.1565  0.2843  0.3304
  202MOL0     N27186   9.779  -0.041   4.391 -0.4808 -0.2963  0.5879
  202MOL0     N27187   9.670   0.020   4.404 -0.0297 -0.1021  0.0394
  202MOL0     C27188  10.466   0.246   4.700 -0.4516 -0.1707  0.8079
  202MOL0     C27189  10.595   0.224   4.650 -0.1686  0.8425 -0.3575
  202MOL0     C27190  10.935   0.142   4.351 -0.6288 -0.4833 -0.1414
  202MOL0     C27191  11.023   0.250   4.368 -0.2773 -0.7616  0.9078
  202MOL0     C27192  11.157   0.237   4.325 -0.1009 -0.1646 -0.3473
  202MOL0     C27193  11.205   0.119   4.256  0.9098 -0.0709 -0.0729
  202MOL0     O27194  11.321   0.133   4.187 -0.1824  0.4597  0.3002
  202MOL0     C27195  11.380   0.016   4.127  0.7832 -0.0193  0.5096
  202MOL0     C27196  11.374   0.031   3.979  0.1479 -0.2809  0.0879
  202MOL0     C27197  11.481  -0.073   3.946  0.5322 -0.0948  1.1156
  202MOL0     C27198  11.485  -0.067   3.788 -0.6991  0.6815 -0.5804
  202MOL0     C27199  11.546   0.061   3.753 -0.6613  1.0412 -0.0559
  202MOL0     C27200  11.599   0.167   3.730 -0.4112  0.8704  0.3581
  202MOL0     C27201  11.106   0.014   4.232  0.9628  0.1967 -0.0323
  202MOL0     C27202  10.978   0.030   4.283  0.8739  0.4502 -1.2809
  202MOL0     H27203  10.609   0.395   4.381  1.1570 -2.1658 -1.4035
  202MOL0     H27204  10.361   0.458   4.445  2.2625  0.0590 -3.2029
  202MOL0     H27205  10.244   0.274   4.847 -2.0694 -0.8167  0.9024
  202MOL0     H27206  10.307   0.443   4.864 -1.7694  2.1041 -1.1984
  202MOL0     H27207  10.103   0.439   4.957  3.2186  1.4039  0.2061
  202MOL0     H27208  10.114   0.544   4.815 -0.0573  0.1090 -1.0962
  202MOL0     H27209  10.012   0.372   4.676  3.3043  0.2638  0.0442
  202MOL0     H27210   9.979   0.271   4.818  0.4358  0.1396 -1.7843
  202MOL0     H27211   9.846   0.523   4.883 -1.1945  1.0254 -1.5882
  202MOL0     H27212   9.832   0.508   4.708 -0.6226 -0.9612  0.2379
  202MOL0     H27213   9.740   0.306   4.919  1.5530  0.9576  0.1948
  202MOL0     H27214   9.639   0.427   4.854  0.2171  0.9051 -1.8134
  202MOL0     H27215   9.785   0.216   4.687  0.4063  1.2273 -1.4463
  202MOL0     H27216   9.634   0.176   4.752 -1.0150 -0.9052 -0.6736
  202MOL0     H27217   9.522   0.377   4.620  1.0300  0.6000  2.1664
  202MOL0     H27218   9.685   0.405   4.548  4.5562 -1.2702  2.8312
  202MOL0     H27219   9.522   0.269   4.404  1.5622 -1.8725 -1.5125
  202MOL0     H27220   9.507   0.161   4.543 -1.0666  0.3562 -0.6533
  202MOL0     H27221   9.875   0.266   4.456  1.1067 -0.1464 -1.4922
  202MOL0     H27222  10.031  -0.119   4.390  1.4674 -0.3965  0.3667
  202MOL0     H27223  10.067   0.041   4.328 -1.7039  0.5367 -0.5980
  202MOL0     H27224  10.045  -0.026   4.637 -1.5253  0.8031 -0.2129
  202MOL0     H27225  10.108   0.119   4.558  1.2240  0.1982 -1.9529
  202MOL0     H27226  10.250  -0.148   4.584 -1.2945  0.2454  2.5494
  202MOL0     H27227  10.293   0.009   4.645 -1.7273 -0.3592  1.2752
  202MOL0     H27228  10.435   0.001   4.459 -0.1717  0.0720  0.3030
  202MOL0     H27229  10.294   0.072   4.387  1.1152  0.1589 -0.3537
  202MOL0     H27230  10.380  -0.371   4.326 -0.8868 -0.1892 -1.1050
  202MOL0     H27231  10.678  -0.512   4.291 -1.0674 -2.3102  2.6693
  202MOL0     H27232  10.501  -0.563   4.257  0.6347 -0.7629 -0.5585
  202MOL0     H27233  10.612  -0.552   4.125 -3.7278  2.3146 -2.1916
  202MOL0     H27234  10.988  -0.435   4.164 -1.8981  0.3706 -0.6532
  202MOL0     H27235  11.201  -0.540   4.081 -1.0266  0.2054  1.5293
  202MOL0     H27236  11.428  -0.481   4.028 -0.4817 -1.0363  1.0766
  202MOL0     H27237  11.386  -0.626   3.940  5.1264 -2.5398 -2.8496
  202MOL0     H27238  11.577  -0.463   3.814  0.5700  0.2255 -0.8165
  202MOL0     H27239  11.644  -0.567   3.945  1.7336  0.3820 -1.1892
  202MOL0     H27240  11.653  -0.653   3.710 -0.7005 -0.9650 -1.9514
  202MOL0     H27241  11.472  -0.662   3.708  1.5514 -0.4846 -1.0037
  202MOL0     H27242  11.657  -0.821   3.899  2.7808  6.7306 -2.2197
  202MOL0     H27243  11.476  -0.812   3.900 -1.2385  1.8184 -1.4269
  202MOL0     H27244  11.458  -0.935   3.689 -0.2598 -0.0626  1.6301
  202MOL0     H27245  11.558  -1.028   3.798 -1.4211  0.4043  1.8142
  202MOL0     H27246  11.638  -1.026   3.571 -3.2616  0.4998  0.7914
  202MOL0     H27247  11.673  -0.851   3.591  0.4379 -0.8133 -0.4663
  202MOL0     H27248  11.797  -1.022   3.801 -3.4316  3.0155  1.9343
  202MOL0     H27249  11.863  -0.881   3.738 -1.5615 -0.5673  4.1820
  202MOL0     H27250  11.850  -1.151   3.594 -0.5111 -0.2795  2.3039
  202MOL0     H27251  12.003  -1.061   3.634  1.2874  0.4030 -2.2575
  202MOL0     H27252  11.223  -0.238   3.782  0.6569  0.2060 -0.0566
  202MOL0     H27253  10.998  -0.153   3.826  0.2436  0.2855  1.3374
  202MOL0     H27254  10.665  -0.068   4.046  0.0865 -1.4926 -1.0056
  202MOL0     H27255  10.487   0.026   4.188  2.9978  0.6979 -0.3848
  202MOL0     H27256  10.438   0.199   4.794 -1.2291  0.4423  0.8976
  202MOL0     H27257  10.662   0.161   4.708 -1.2591 -0.7068 -0.6855
  202MOL0     H27258  10.996   0.346   4.411  1.3789  1.4254 -2.4514
  202MOL0     H27259  11.226   0.318   4.344  2.2183 -2.2284  0.6080
  202MOL0     H27260  11.482   0.016   4.165  0.5623 -0.9859  1.1460
  202MOL0     H27261  11.332  -0.077   4.159 -1.4803  1.0238  0.3477
  202MOL0     H27262  11.400   0.133   3.951 -4.1883  0.8229 -0.6399
  202MOL0     H27263  11.274   0.011   3.938 -0.5868 -2.0290  2.4748
  202MOL0     H27264  11.457  -0.172   3.987  0.5121 -0.1153  1.0555
  202MOL0     H27265  11.580  -0.046   3.984 -0.8707  4.2842  2.2281
  202MOL0     H27266  11.385  -0.070   3.742 -2.2690  2.6124  2.3806
  202MOL0     H27267  11.551  -0.148   3.756  0.2697  1.5520 -0.8396
  202MOL0     H27268  11.628   0.269   3.719 -2.2404  1.1854 -3.1343
  202MOL0     H27269  11.123  -0.077   4.176  2.9587 -1.6832  3.2552
  202MOL0     H27270  10.898  -0.043   4.276 -1.4049  2.7618 -0.6267
  203MOL0     O27271   2.279  10.794  10.127  1.2778  0.7209  0.1368
  203MOL0     C27272   2.280  10.911  10.148  1.3025 -0.4644 -0.2230
  203MOL0     O27273   2.171  10.992  10.153 -0.1492 -0.3395  0.5651
  203MOL0     C27274   2.043  10.944  10.128  0.7565  0.6027  1.0219
  203MOL0     C27275   1.945  11.047  10.143 -0.9488  0.4794  0.2835
  203MOL0     C27276   1.814  11.016  10.126  0.1404 -1.2680 -0.1539
  203MOL0     C27277   1.775  10.888  10.093  0.0332  0.4901  0.6614
  203MOL0     O27278   1.643  10.862  10.051 -0.2812 -0.5818  0.0919
  203MOL0     C27279   1.550  10.843  10.162 -0.4701 -0.2787 -0.2338
  203MOL0     C27280   1.409  10.859  10.108  0.6954  0.3791  0.1014
  203MOL0     C27281   1.363  11.005  10.123  0.5583  0.5337 -0.6841
  203MOL0     C27282   1.220  11.018  10.061  0.4341 -0.3633  0.3692
  203MOL0     C27283   1.156  11.142  10.113 -0.6693 -0.0314 -0.2891
  203MOL0     C27284   1.043  11.197  10.015 -0.2801  0.1046 -0.5254
  203MOL0     C27285   0.917  11.106  10.015  0.4621  0.0427  0.2921
  203MOL0     C27286   0.829  11.143   9.898 -0.2723  0.4512 -0.6150
  203MOL0     N27287   0.715  11.055   9.868  0.0368 -0.3627  0.4823
  203MOL0     C27288   0.601  11.045   9.933  0.6197 -0.5167 -0.0631
  203MOL0     C27289   0.515  10.990   9.845  0.4008 -0.7526  0.5958
  203MOL0     C27290   0.380  10.934   9.875  0.5099 -0.0678 -0.8509
  203MOL0     C27291   0.272  11.006   9.789 -0.0939  1.1193 -0.2974
  203MOL0     C27292   0.139  10.925   9.792 -0.3269  0.7354  0.1847
  203MOL0     C27293   0.025  10.997   9.708 -0.5381  0.6684 -0.0951
  203MOL0     O27294  -0.096  10.930   9.716 -0.7893  0.4667 -0.2619
  203MOL0     C27295  -0.204  10.982   9.643  0.2100 -0.4139  0.0570
  203MOL0     C27296  -0.193  11.105   9.574 -0.4693  0.1775 -0.5853
  203MOL0     C27297  -0.304  11.169   9.518  0.7195  0.3395  0.2818
  203MOL0     C27298  -0.270  11.294   9.429 -0.3426  0.7536 -0.0858
  203MOL0     C27299  -0.438  11.118   9.540 -0.2785  0.4669  0.3886
  203MOL0     C27300  -0.565  11.170   9.483  0.5334 -0.4549 -0.4896
  203MOL0     O27301  -0.663  11.081   9.451 -0.7583  0.3033 -0.4780
  203MOL0     C27302  -0.792  11.119   9.415 -0.7508 -0.1700 -0.2242
  203MOL0     C27303  -0.855  11.039   9.327 -0.6455 -0.3624  0.2871
  203MOL0     C27304  -0.988  11.064   9.287  0.1416  0.7589  0.4763
  203MOL0     C27305  -1.052  11.176   9.334  0.4101  0.2886 -0.0144
  203MOL0     O27306  -1.189  11.179   9.310  0.5473 -0.0750  0.0050
  203MOL0     C27307  -1.273  11.268   9.393  0.1079 -0.4504  0.5322
  203MOL0     C27308  -1.418  11.237   9.356 -0.8375 -0.6452 -0.9492
  203MOL0     C27309  -1.506  11.280   9.474  0.4810  0.1397 -0.1331
  203MOL0     C27310  -1.653  11.300   9.417  0.3044  0.5600 -0.1522
  203MOL0     C27311  -1.761  11.279   9.525 -0.0145 -0.3172 -0.4747
  203MOL0     C27312  -1.727  11.364   9.658 -0.1393 -0.1930 -0.3602
  203MOL0     C27313  -1.849  11.368   9.750  0.3912 -0.2920  0.8057
  203MOL0     C27314  -1.836  11.405   9.888 -0.6775  0.7042 -0.6107
  203MOL0    Cl27315  -1.986  11.389   9.983  0.1255 -0.5685  0.2111
  203MOL0     C27316  -0.984  11.265   9.421 -0.1634 -0.1173 -0.1323
  203MOL0     C27317  -0.856  11.232   9.471 -0.8658  1.3358 -0.1590
  203MOL0     O27318  -0.558  11.288   9.460  0.0583 -0.6716  0.2415
  203MOL0     C27319  -0.446  10.996   9.607  0.1424  0.5091  0.2109
  203MOL0     C27320  -0.333  10.929   9.651  0.2321  1.0809  0.3433
  203MOL0     N27321   0.579  10.971   9.719 -0.5440  0.0810  0.3394
  203MOL0     N27322   0.702  11.010   9.736 -0.4504 -0.4664 -0.8150
  203MOL0     C27323   1.868  10.789  10.058 -0.1206  0.3679  0.4566
  203MOL0     C27324   2.003  10.816  10.080  1.5024 -0.3460  0.3628
  203MOL0     C27325   2.408  10.979  10.169  0.1206  1.5905 -0.1721
  203MOL0     C27326   2.415  11.118  10.190  0.4594  0.2528  1.1013
  203MOL0     C27327   2.532  11.179  10.219  0.0375 -0.1197 -0.1619
  203MOL0     C27328   2.649  11.109  10.208 -0.1743  0.8128 -0.4020
  203MOL0     O27329   2.767  11.182  10.212 -0.1017 -0.4318 -0.0381
  203MOL0     C27330   2.812  11.236  10.087  0.8309 -0.1191  0.2181
  203MOL0     C27331   2.969  11.232  10.080 -0.1024  0.0465  0.0613
  203MOL0     C27332   3.040  11.362  10.120  0.0859 -0.1986 -0.1007
  203MOL0     C27333   3.189  11.352  10.134  0.2024 -0.0195  1.4454
  203MOL0     C27334   3.232  11.307   9.995 -0.2143  0.0627 -0.2982
  203MOL0     C27335   3.285  11.285   9.891  0.4046 -0.4131  0.1266
  203MOL0     C27336   2.654  10.973  10.184 -0.2971  0.5691  0.6284
  203MOL0     C27337   2.531  10.904  10.161  0.2173 -1.1726  0.4775
  203MOL0     H27338   1.977  11.143  10.181 -1.3756  1.5191 -1.8153
  203MOL0     H27339   1.728  11.075  10.155  2.0845  0.4045  2.6514
  203MOL0     H27340   1.550  10.742  10.204 -0.3986 -0.0191  0.3959
  203MOL0     H27341   1.580  10.917  10.237 -2.2896  1.4770 -1.1632
  203MOL0     H27342   1.412  10.848   9.999  2.0643 -2.7312  0.3317
  203MOL0     H27343   1.337  10.791  10.155 -0.2129  2.1384  1.3489
  203MOL0     H27344   1.356  11.022  10.231 -2.0043 -0.5094 -0.6124
  203MOL0     H27345   1.433  11.073  10.074 -0.2237  1.6711 -0.2667
  203MOL0     H27346   1.233  11.020   9.952 -0.3223  0.5934  0.2927
  203MOL0     H27347   1.160  10.931  10.088 -0.3418 -0.5771 -1.8561
  203MOL0     H27348   1.111  11.116  10.209 -1.7149 -3.2556 -1.5281
  203MOL0     H27349   1.223  11.224  10.139 -1.3901 -0.6061  4.0637
  203MOL0     H27350   1.009  11.297  10.043  0.2761 -0.4126  2.2576
  203MOL0     H27351   1.081  11.216   9.914  0.8761  1.9138  0.2122
  203MOL0     H27352   0.933  10.998  10.007 -0.7009 -0.3332  2.1393
  203MOL0     H27353   0.859  11.123  10.107 -0.5834 -2.2820  0.1407
  203MOL0     H27354   0.886  11.141   9.804  1.3874 -2.6623  0.3139
  203MOL0     H27355   0.802  11.248   9.912 -0.3569  0.4744 -0.9400
  203MOL0     H27356   0.569  11.079  10.031 -4.4238  0.0485 -1.6179
  203MOL0     H27357   0.391  10.827   9.858 -1.4932 -1.0401  2.8516
  203MOL0     H27358   0.348  10.946   9.979 -1.8947  0.0376 -1.5447
  203MOL0     H27359   0.312  11.000   9.687  0.9600  0.8481  0.1170
  203MOL0     H27360   0.266  11.113   9.812  2.2852  1.7518 -2.2012
  203MOL0     H27361   0.107  10.925   9.896 -1.8071  2.5625 -0.2161
  203MOL0     H27362   0.162  10.825   9.753 -2.5898  0.7199 -1.3407
  203MOL0     H27363   0.062  11.009   9.606  1.2693 -2.9270 -0.0227
  203MOL0     H27364   0.011  11.088   9.768 -0.3793  0.2075  0.6576
  203MOL0     H27365  -0.096  11.148   9.552  0.7571 -1.6243  1.0101
  203MOL0     H27366  -0.177  11.268   9.377 -1.1808 -1.6379 -0.5366
  203MOL0     H27367  -0.346  11.311   9.352  1.2980  3.1580 -1.2808
  203MOL0     H27368  -0.261  11.380   9.495  2.8324  1.1962 -0.9217
  203MOL0     H27369  -0.798  10.953   9.294  1.7004  1.1400  0.1283
  203MOL0     H27370  -1.052  11.002   9.224 -2.5310  0.3502  3.3663
  203MOL0     H27371  -1.257  11.242   9.498 -3.2211  1.5078  1.6593
  203MOL0     H27372  -1.247  11.374   9.387  0.8937 -0.4980  2.4499
  203MOL0     H27373  -1.434  11.293   9.263  4.0049  0.0729 -1.5977
  203MOL0     H27374  -1.424  11.130   9.334  1.3233 -0.9676 -0.1751
  203MOL0     H27375  -1.475  11.379   9.509 -1.5529  0.8579 -0.2127
  203MOL0     H27376  -1.517  11.212   9.558  3.2757 -0.0105  0.1952
  203MOL0     H27377  -1.666  11.396   9.368 -1.9883 -0.7328 -2.3145
  203MOL0     H27378  -1.679  11.223   9.343  0.3219  1.8378 -1.5247
  203MOL0     H27379  -1.776  11.174   9.553  0.8954 -0.5249 -0.7642
  203MOL0     H27380  -1.849  11.323   9.478  1.5630  1.5142 -1.8603
  203MOL0     H27381  -1.650  11.307   9.711  1.2666  1.2668 -0.7684
  203MOL0     H27382  -1.684  11.461   9.635  1.3375 -0.9854 -1.1173
  203MOL0     H27383  -1.910  11.277   9.750  0.0788 -0.0963  1.8895
  203MOL0     H27384  -1.914  11.433   9.691 -0.7026 -1.1816  0.9895
  203MOL0     H27385  -1.790  11.504   9.894 -0.5862  0.8020 -2.2798
  203MOL0     H27386  -1.766  11.331   9.929 -0.8437  0.2181 -1.1905
  203MOL0     H27387  -1.047  11.348   9.451 -3.7438 -1.4691 -3.1507
  203MOL0     H27388  -0.809  11.290   9.550  0.9590 -0.2421  0.0007
  203MOL0     H27389  -0.541  10.945   9.624  0.7424 -1.0941 -0.9416
  203MOL0     H27390  -0.339  10.839   9.712 -1.3138 -0.7381 -2.2790
  203MOL0     H27391   1.833  10.691  10.029 -2.1760  1.2971 -0.3536
  203MOL0     H27392   2.070  10.733  10.061  1.4802 -0.8281  2.2080
  203MOL0     H27393   2.318  11.167  10.198  0.3337  0.1692  0.2009
  203MOL0     H27394   2.522  11.287  10.227 -2.8819 -0.0660 -2.7490
  203MOL0     H27395   2.768  11.184  10.002  0.3650  0.9732 -0.2122
  203MOL0     H27396   2.776  11.339  10.088  0.4313 -0.2077  2.7503
  203MOL0     H27397   2.996  11.213   9.975 -0.1781  0.8745 -0.1166
  203MOL0     H27398   3.003  11.148  10.141  1.0184  0.8173  0.5356
  203MOL0     H27399   2.999  11.404  10.212 -2.0778  0.6175 -1.3681
  203MOL0     H27400   3.024  11.442  10.047 -0.1952  1.2452  1.4887
  203MOL0     H27401   3.212  11.278  10.211  0.8031  1.0091  2.2839
  203MOL0     H27402   3.223  11.453  10.160 -2.3270  1.7180 -1.3489
  203MOL0     H27403   3.345  11.278   9.802  1.5239 -2.3703  0.9641
  203MOL0     H27404   2.739  10.906  10.185 -0.5804  0.2020  0.3563
  203MOL0     H27405   2.530  10.799  10.135  0.2888 -0.8430 -0.9509
  204MOL0     O27406  10.306   7.441  10.887 -0.4134 -0.0459 -0.0978
  204MOL0     C27407  10.381   7.501  10.812  0.5522  0.5063 -0.0094
  204MOL0     O27408  10.344   7.584  10.712  0.1082  0.6282 -0.4325
  204MOL0     C27409  10.207   7.594  10.696 -0.2357 -0.6529  0.1818
  204MOL0     C27410  10.163   7.722  10.707 -0.3457  0.2415 -0.1497
  204MOL0     C27411  10.024   7.741  10.703  0.3164  0.8265 -0.6963
  204MOL0     C27412   9.938   7.639  10.670 -0.2374 -0.3297  0.6099
  204MOL0     O27413   9.804   7.678  10.661 -0.6344  0.3519  0.4161
  204MOL0     C27414   9.698   7.576  10.681  0.6505 -0.1643  0.1592
  204MOL0     C27415   9.703   7.511  10.815  0.4964  0.1325  0.5786
  204MOL0     C27416   9.633   7.379  10.813  0.6389 -0.4883  0.1572
  204MOL0     C27417   9.592   7.352  10.957  0.4809  0.4883  0.0439
  204MOL0     C27418   9.532   7.213  10.975  0.4199 -0.2506 -0.4449
  204MOL0     C27419   9.378   7.196  10.964 -0.5367 -0.0600 -0.0319
  204MOL0     C27420   9.329   7.216  10.814  0.1283  0.3741  0.7232
  204MOL0     C27421   9.192   7.134  10.800 -0.0247  1.0129  0.3578
  204MOL0     N27422   9.082   7.196  10.862  0.7143 -0.6632  0.3897
  204MOL0     C27423   8.989   7.143  10.947  0.3444 -0.6232 -0.4835
  204MOL0     C27424   8.909   7.243  10.987  0.7317 -0.3592  0.5063
  204MOL0     C27425   8.789   7.239  11.074 -0.1067 -0.9991 -0.3052
  204MOL0     C27426   8.655   7.270  11.014  0.9038 -0.5364  0.5102
  204MOL0     C27427   8.543   7.322  11.112  0.0978 -0.2908 -1.3384
  204MOL0     C27428   8.415   7.336  11.043  0.6381 -0.2640  0.0157
  204MOL0     O27429   8.326   7.384  11.142  0.1911 -0.2607  0.2895
  204MOL0     C27430   8.203   7.430  11.100 -0.9998  0.2890 -0.9090
  204MOL0     C27431   8.156   7.444  10.974  0.2235 -0.6470  0.6787
  204MOL0     C27432   8.028   7.512  10.958 -1.0344 -0.1182  0.7772
  204MOL0     C27433   7.992   7.566  10.818 -0.1325 -0.0274 -0.5124
  204MOL0     C27434   7.942   7.522  11.073 -1.0228 -0.3523 -0.6151
  204MOL0     C27435   7.803   7.575  11.061 -1.2851 -0.6182  0.2503
  204MOL0     O27436   7.769   7.658  10.955  1.4343 -0.1397  0.4184
  204MOL0     C27437   7.631   7.686  10.933 -0.6004  1.1552 -0.2262
  204MOL0     C27438   7.536   7.722  11.038  0.6184 -0.1513  0.0716
  204MOL0     C27439   7.409   7.741  11.010  0.6216  0.0873 -0.3299
  204MOL0     C27440   7.371   7.729  10.876  0.4896  0.2972 -0.2058
  204MOL0     O27441   7.243   7.760  10.837 -0.1109  0.6957 -0.1165
  204MOL0     C27442   7.142   7.745  10.937  0.8628 -0.1666  0.1855
  204MOL0     C27443   7.012   7.725  10.855  0.8251 -0.5377  0.2213
  204MOL0     C27444   6.878   7.793  10.911  0.1526  1.2524  0.1613
  204MOL0     C27445   6.789   7.692  10.982 -0.0213 -0.6674  0.2986
  204MOL0     C27446   6.740   7.741  11.118  1.1891 -0.2076 -0.0295
  204MOL0     C27447   6.633   7.643  11.169  0.3130 -0.0158  0.6202
  204MOL0     C27448   6.565   7.681  11.302  0.1250 -0.9635  0.3324
  204MOL0     C27449   6.441   7.594  11.325 -0.4050 -0.2559  0.1629
  204MOL0    Cl27450   6.492   7.434  11.383  0.0574 -0.2475  0.4591
  204MOL0     C27451   7.457   7.693  10.778  0.5502  0.1549 -0.7311
  204MOL0     C27452   7.591   7.660  10.806 -0.0075 -0.4641  0.1324
  204MOL0     O27453   7.742   7.565  11.160  0.4724 -0.7873 -0.3081
  204MOL0     C27454   7.989   7.487  11.200  0.1809  0.2173 -0.1620
  204MOL0     C27455   8.120   7.446  11.210 -0.5034 -0.1670 -0.6860
  204MOL0     N27456   8.946   7.348  10.909  0.3870  0.0256  0.2703
  204MOL0     N27457   9.034   7.318  10.825 -0.4675 -0.0365 -0.4338
  204MOL0     C27458   9.993   7.511  10.655 -0.4344 -0.1363 -0.0064
  204MOL0     C27459  10.128   7.486  10.669 -0.1053 -0.3480  0.4307
  204MOL0     C27460  10.521   7.486  10.833 -0.1687  0.2528 -0.5152
  204MOL0     C27461  10.611   7.555  10.744 -0.3319 -0.4407  0.1954
  204MOL0     C27462  10.749   7.545  10.756  0.3603 -0.5854  0.2808
  204MOL0     C27463  10.805   7.464  10.857  0.3307  0.2069  0.3376
  204MOL0     O27464  10.939   7.434  10.841 -0.3728 -0.4359 -0.1153
  204MOL0     C27465  11.006   7.355  10.939  0.3037 -0.2000  0.0338
  204MOL0     C27466  11.067   7.439  11.044 -0.0369  0.7318  1.0390
  204MOL0     C27467  11.162   7.553  10.977  0.1339  0.1292 -0.6098
  204MOL0     C27468  11.233   7.632  11.093  0.6528 -0.1512 -0.0193
  204MOL0     C27469  11.126   7.706  11.169  0.9173 -0.7735  0.3944
  204MOL0     C27470  11.035   7.768  11.222 -0.0144  0.2742  0.2121
  204MOL0     C27471  10.718   7.393  10.946 -0.4155 -0.1046 -0.6387
  204MOL0     C27472  10.585   7.416  10.940  0.8975  0.8503  0.3481
  204MOL0     H27473  10.231   7.804  10.730 -0.8247  0.8011 -0.7075
  204MOL0     H27474   9.987   7.843  10.701 -1.9523  0.1550  1.5480
  204MOL0     H27475   9.605   7.634  10.683 -0.0771 -1.3340  1.0675
  204MOL0     H27476   9.692   7.498  10.604 -1.9255  0.4700 -0.3911
  204MOL0     H27477   9.809   7.490  10.834  1.2369 -0.7028 -3.4756
  204MOL0     H27478   9.666   7.578  10.893  4.1300  3.7522 -0.4590
  204MOL0     H27479   9.538   7.393  10.761  0.9413  4.0519  0.3722
  204MOL0     H27480   9.701   7.305  10.771  3.2582  2.2227 -0.7795
  204MOL0     H27481   9.685   7.342  11.014  1.7939 -0.4036 -2.1233
  204MOL0     H27482   9.532   7.433  11.000  3.4548  1.8807  1.8761
  204MOL0     H27483   9.579   7.154  10.896 -0.1558 -0.0062 -0.9818
  204MOL0     H27484   9.566   7.174  11.071 -0.1431  0.9030  0.2471
  204MOL0     H27485   9.364   7.096  11.005  2.7094 -1.7395 -2.5701
  204MOL0     H27486   9.325   7.267  11.029 -2.1106 -1.6303  0.4772
  204MOL0     H27487   9.322   7.319  10.777  0.4539 -0.9837 -3.7306
  204MOL0     H27488   9.400   7.167  10.747  0.3146  2.8014 -1.0020
  204MOL0     H27489   9.195   7.029  10.832  0.2697  0.8867 -0.0626
  204MOL0     H27490   9.150   7.130  10.699  0.3722  3.4942  0.0499
  204MOL0     H27491   8.973   7.040  10.980 -0.9839  0.2220  1.7514
  204MOL0     H27492   8.772   7.138  11.113 -3.4976 -1.1572 -1.9205
  204MOL0     H27493   8.813   7.307  11.157 -0.6159 -1.2009  0.0085
  204MOL0     H27494   8.610   7.180  10.972  2.8830 -0.3926 -2.2111
  204MOL0     H27495   8.663   7.329  10.923 -3.2860 -0.1410  0.2133
  204MOL0     H27496   8.567   7.410  11.173  0.3216 -1.8361  0.8991
  204MOL0     H27497   8.537   7.245  11.189  0.5059  2.7314  1.9942
  204MOL0     H27498   8.388   7.238  11.004 -1.4467  0.5065 -0.6144
  204MOL0     H27499   8.428   7.408  10.962  0.7519 -0.5959 -0.2588
  204MOL0     H27500   8.226   7.432  10.892  0.1372  0.6630  0.3917
  204MOL0     H27501   7.983   7.675  10.822 -1.7552 -0.1367 -0.6125
  204MOL0     H27502   8.052   7.539  10.731  0.0164  0.4468 -0.5582
  204MOL0     H27503   7.900   7.512  10.792  0.3317 -0.9367 -0.2995
  204MOL0     H27504   7.573   7.751  11.136  0.2071 -3.1812  1.2226
  204MOL0     H27505   7.340   7.764  11.091  0.9899  2.4044 -0.5934
  204MOL0     H27506   7.163   7.659  11.000 -2.0549 -0.7950  0.4763
  204MOL0     H27507   7.127   7.832  11.001 -2.4421  1.3383 -2.2834
  204MOL0     H27508   7.024   7.768  10.755 -2.7044  1.6549  0.5513
  204MOL0     H27509   6.989   7.622  10.825 -0.3952 -0.4463  0.7938
  204MOL0     H27510   6.827   7.827  10.820 -0.4140 -3.2962 -1.4471
  204MOL0     H27511   6.902   7.878  10.976  0.6747 -0.9239  2.9700
  204MOL0     H27512   6.700   7.680  10.920  0.2998  4.6074 -1.6491
  204MOL0     H27513   6.842   7.599  11.006  0.5454 -0.9704 -1.9559
  204MOL0     H27514   6.698   7.841  11.106  0.4913 -0.6166 -1.1372
  204MOL0     H27515   6.816   7.753  11.196  0.9226  2.9776 -0.1613
  204MOL0     H27516   6.553   7.634  11.094 -0.8272  1.0055  1.6478
  204MOL0     H27517   6.679   7.544  11.175  0.0077 -0.1410  0.9341
  204MOL0     H27518   6.523   7.782  11.299 -0.7839 -1.3108  1.0191
  204MOL0     H27519   6.629   7.680  11.390 -0.4046  0.2872  0.7632
  204MOL0     H27520   6.374   7.593  11.238 -0.3895 -0.0555  0.1482
  204MOL0     H27521   6.381   7.640  11.404 -2.3689  0.0312 -1.3846
  204MOL0     H27522   7.426   7.680  10.675  2.8754  1.4327 -1.6648
  204MOL0     H27523   7.644   7.631  10.716  0.7773  1.5952 -0.1053
  204MOL0     H27524   7.934   7.511  11.291  0.2442  1.7543 -0.5021
  204MOL0     H27525   8.174   7.434  11.303 -2.9937  0.4820  0.9558
  204MOL0     H27526   9.938   7.423  10.625 -3.3644  1.9952 -1.4695
  204MOL0     H27527  10.150   7.381  10.652 -3.2133 -1.0618  0.2258
  204MOL0     H27528  10.582   7.610  10.655  0.9988  1.3620  0.8298
  204MOL0     H27529  10.816   7.602  10.693  0.7210 -0.7868  0.4722
  204MOL0     H27530  10.945   7.280  10.990  0.2369  0.8966  1.6343
  204MOL0     H27531  11.090   7.308  10.886 -0.6946 -0.2273 -1.5807
  204MOL0     H27532  11.137   7.382  11.107  2.9077  2.4955 -0.4159
  204MOL0     H27533  10.991   7.478  11.113 -0.5623 -0.3966  1.1198
  204MOL0     H27534  11.099   7.620  10.918 -2.2362 -0.6427  0.9038
  204MOL0     H27535  11.229   7.499  10.909 -1.8783 -0.2354 -2.4042
  204MOL0     H27536  11.296   7.711  11.052  1.3736  0.0157  1.3434
  204MOL0     H27537  11.293   7.570  11.161 -3.6789 -1.3438  3.1416
  204MOL0     H27538  10.955   7.820  11.271  0.4538  0.1773  1.0855
  204MOL0     H27539  10.754   7.330  11.027  0.4994 -0.3577 -1.2312
  204MOL0     H27540  10.507   7.362  10.993  0.4375 -2.2806 -3.0788
  205MOL0     O27541   4.401   9.450   1.926 -0.3401  0.5376 -0.9945
  205MOL0     C27542   4.335   9.438   2.030 -0.0550  0.8135 -0.7515
  205MOL0     O27543   4.379   9.379   2.147 -0.0561  0.2943 -0.7069
  205MOL0     C27544   4.518   9.377   2.175  0.3546  0.8585 -0.0958
  205MOL0     C27545   4.554   9.300   2.282  0.4889  0.3163  0.6805
  205MOL0     C27546   4.688   9.298   2.332 -0.1786  0.2793  0.7109
  205MOL0     C27547   4.786   9.372   2.263  1.0797  0.2804 -0.1525
  205MOL0     O27548   4.906   9.380   2.303 -0.5843 -0.5719  0.4809
  205MOL0     C27549   5.013   9.344   2.214 -0.0955 -0.0576 -0.6082
  205MOL0     C27550   5.143   9.424   2.219  1.1005 -0.5448 -0.1871
  205MOL0     C27551   5.234   9.377   2.337 -0.1155 -0.4637 -1.1786
  205MOL0     C27552   5.339   9.485   2.356  0.6790 -0.2081  0.7162
  205MOL0     C27553   5.410   9.458   2.492  0.9876  0.2184 -0.2587
  205MOL0     C27554   5.542   9.532   2.519  1.5137 -0.2140 -0.6649
  205MOL0     C27555   5.580   9.538   2.663 -0.7308 -0.2526  0.6753
  205MOL0     C27556   5.534   9.661   2.741  0.0466  0.2886  0.7038
  205MOL0     N27557   5.389   9.673   2.772 -0.4669 -0.1916 -0.7858
  205MOL0     C27558   5.332   9.624   2.887 -0.1328  0.9040 -0.3376
  205MOL0     C27559   5.205   9.662   2.873  0.7721 -0.2513  1.3523
  205MOL0     C27560   5.105   9.633   2.978  0.2896 -1.5467 -0.6459
  205MOL0     C27561   5.087   9.744   3.088 -0.3835  0.1922  0.3437
  205MOL0     C27562   4.953   9.757   3.144  0.0107 -0.3274  0.2855
  205MOL0     C27563   4.889   9.645   3.212  0.0055  0.0606 -1.3538
  205MOL0     O27564   4.773   9.676   3.282  0.9360  0.3653  0.4096
  205MOL0     C27565   4.649   9.679   3.218 -0.5241 -0.3312 -0.3388
  205MOL0     C27566   4.543   9.682   3.310  0.0316 -0.1063  0.3436
  205MOL0     C27567   4.410   9.672   3.269 -0.4453  0.9613 -0.6502
  205MOL0     C27568   4.310   9.689   3.379  0.1406 -0.5894 -0.4722
  205MOL0     C27569   4.383   9.667   3.129  0.5007  0.7256  0.6375
  205MOL0     C27570   4.240   9.636   3.074  0.3482 -0.1438 -0.3091
  205MOL0     O27571   4.163   9.559   3.153  0.0824 -0.0600 -0.1223
  205MOL0     C27572   4.047   9.517   3.096 -1.3630  0.9901  0.2706
  205MOL0     C27573   3.955   9.599   3.036  0.6216 -0.0648 -0.5799
  205MOL0     C27574   3.835   9.550   2.995  0.2670  0.0076  0.2886
  205MOL0     C27575   3.808   9.414   2.986  0.4468 -0.0910 -1.1934
  205MOL0     O27576   3.692   9.377   2.941  0.2453 -0.3569 -0.6359
  205MOL0     C27577   3.607   9.280   3.017  0.0450 -0.6866  0.3624
  205MOL0     C27578   3.462   9.305   2.994  0.0069  1.0835 -0.7705
  205MOL0     C27579   3.415   9.442   3.046 -0.0424 -0.5132  0.0634
  205MOL0     C27580   3.272   9.473   3.013  0.4871 -0.2337 -0.5965
  205MOL0     C27581   3.212   9.595   3.088  0.6399 -0.3867  0.2725
  205MOL0     C27582   3.061   9.610   3.054 -0.9412  0.3560  0.0952
  205MOL0     C27583   2.993   9.691   3.175  0.0329  0.8459  0.5943
  205MOL0     C27584   2.850   9.730   3.141  0.0890  0.4624  0.1834
  205MOL0    Cl27585   2.835   9.808   2.981  0.2144 -0.7066  0.2821
  205MOL0     C27586   3.905   9.332   3.037  0.1901  0.3731 -0.3058
  205MOL0     C27587   4.035   9.372   3.088 -0.6801  0.1416  0.3592
  205MOL0     O27588   4.218   9.683   2.957 -0.4950 -0.4221 -0.1507
  205MOL0     C27589   4.493   9.663   3.038  1.0535  0.3897 -0.1899
  205MOL0     C27590   4.623   9.680   3.082 -0.0514 -0.2439  0.2252
  205MOL0     N27591   5.193   9.725   2.748 -0.7964  0.6011 -0.5567
  205MOL0     N27592   5.308   9.741   2.689 -0.2973 -0.1189 -0.4042
  205MOL0     C27593   4.747   9.452   2.153  1.0363 -0.3186 -0.3429
  205MOL0     C27594   4.614   9.459   2.112 -1.3420  1.0690 -0.0361
  205MOL0     C27595   4.195   9.473   2.042  1.0693  0.1816 -0.5389
  205MOL0     C27596   4.129   9.507   1.926 -0.3807  0.2757  0.2754
  205MOL0     C27597   3.993   9.527   1.934 -0.6953 -0.1238 -0.1954
  205MOL0     C27598   3.924   9.539   2.053  0.2480 -0.0550 -0.4527
  205MOL0     O27599   3.794   9.545   2.034  0.3841  0.1433  0.2335
  205MOL0     C27600   3.700   9.569   2.141  0.1467 -0.6306  0.7149
  205MOL0     C27601   3.690   9.714   2.177 -0.2204 -0.2887 -0.0162
  205MOL0     C27602   3.636   9.812   2.076 -0.2720  0.2794 -0.3363
  205MOL0     C27603   3.639   9.963   2.123  0.2271  1.0756  0.0659
  205MOL0     C27604   3.550   9.974   2.241 -0.6732 -0.2875 -0.5429
  205MOL0     C27605   3.481   9.986   2.339 -0.1197  0.2427  0.0447
  205MOL0     C27606   3.992   9.510   2.176  0.4179 -0.0626 -0.1607
  205MOL0     C27607   4.126   9.479   2.161 -0.3120  0.4655  0.8314
  205MOL0     H27608   4.479   9.242   2.335  0.7422  0.7599  1.5321
  205MOL0     H27609   4.725   9.247   2.421 -0.0571 -0.7326  0.0928
  205MOL0     H27610   5.036   9.240   2.241  0.4702 -0.2631 -1.8161
  205MOL0     H27611   4.975   9.343   2.111  0.3061 -0.1420 -0.7569
  205MOL0     H27612   5.194   9.422   2.122  0.1816  5.3398 -1.1794
  205MOL0     H27613   5.107   9.527   2.231 -2.0590 -1.5146 -0.5468
  205MOL0     H27614   5.174   9.370   2.429  4.3821  1.6537  2.3212
  205MOL0     H27615   5.283   9.284   2.308 -2.9168 -1.2274 -4.0309
  205MOL0     H27616   5.408   9.487   2.271  0.7392 -2.3455  0.6818
  205MOL0     H27617   5.288   9.582   2.359 -1.6531 -1.3230  0.0440
  205MOL0     H27618   5.340   9.482   2.572  2.6296  0.3309  1.1901
  205MOL0     H27619   5.437   9.354   2.512 -0.1717  0.1384  0.9818
  205MOL0     H27620   5.635   9.506   2.469  2.4357 -0.7739  1.2218
  205MOL0     H27621   5.524   9.633   2.481 -2.0703 -1.3078 -2.3149
  205MOL0     H27622   5.548   9.452   2.722  1.4041 -0.9218  0.9519
  205MOL0     H27623   5.689   9.539   2.670 -0.6912  0.7446  0.1747
  205MOL0     H27624   5.559   9.747   2.680  1.8688 -0.0633  0.9011
  205MOL0     H27625   5.584   9.672   2.838 -3.7131  1.2678  2.7625
  205MOL0     H27626   5.373   9.561   2.966 -2.8152 -2.8860 -1.6449
  205MOL0     H27627   5.014   9.622   2.920  1.5130  0.2583 -3.0486
  205MOL0     H27628   5.129   9.534   3.019  1.7231 -1.1050 -0.3428
  205MOL0     H27629   5.118   9.841   3.049 -1.3721  0.3488 -0.0901
  205MOL0     H27630   5.155   9.725   3.172  1.9591  1.0810 -1.2480
  205MOL0     H27631   4.891   9.786   3.059  2.4829 -0.1326 -1.5832
  205MOL0     H27632   4.962   9.844   3.210  1.9927 -0.3033  0.0572
  205MOL0     H27633   4.971   9.614   3.277  2.1456 -0.6969 -4.1819
  205MOL0     H27634   4.868   9.576   3.130 -1.4192  0.7280 -1.5777
  205MOL0     H27635   4.572   9.703   3.413  1.2792  2.0636 -0.3837
  205MOL0     H27636   4.269   9.591   3.404 -2.5648  0.8745  1.4597
  205MOL0     H27637   4.369   9.726   3.464  4.0074 -0.0503 -3.1513
  205MOL0     H27638   4.241   9.769   3.348  0.1510  0.2066  1.4084
  205MOL0     H27639   3.964   9.706   3.052 -2.1625 -0.3050  5.8273
  205MOL0     H27640   3.755   9.613   2.957 -0.4161 -0.2628  1.2330
  205MOL0     H27641   3.637   9.180   2.985  1.2915 -0.4863  0.8341
  205MOL0     H27642   3.619   9.273   3.126 -1.9931 -1.9140  0.5520
  205MOL0     H27643   3.454   9.304   2.885  0.5605  4.4241 -0.9528
  205MOL0     H27644   3.404   9.219   3.027  0.4166  0.4521 -1.6685
  205MOL0     H27645   3.474   9.523   3.002 -2.5836  2.6320  1.9638
  205MOL0     H27646   3.428   9.448   3.154 -1.7868 -1.1838  0.3494
  205MOL0     H27647   3.268   9.505   2.909 -3.2375  1.2706 -0.1298
  205MOL0     H27648   3.203   9.390   3.032  1.5517 -1.3798 -1.5438
  205MOL0     H27649   3.260   9.693   3.084 -0.4138  0.1094 -1.6389
  205MOL0     H27650   3.209   9.574   3.196 -5.7104  1.0650  0.7813
  205MOL0     H27651   3.054   9.669   2.962 -1.5712 -0.4498 -0.3833
  205MOL0     H27652   3.013   9.512   3.045  1.7708 -0.8866 -2.5804
  205MOL0     H27653   3.045   9.786   3.184 -0.4913  1.1960  0.0285
  205MOL0     H27654   3.004   9.638   3.270  3.0264  1.4375  0.6685
  205MOL0     H27655   2.815   9.800   3.218  0.7738  1.3442 -0.2901
  205MOL0     H27656   2.797   9.635   3.147  0.7596  0.1542  1.7676
  205MOL0     H27657   3.889   9.224   3.038  0.1067  0.3805  1.0036
  205MOL0     H27658   4.106   9.299   3.126  0.0555  1.6202  1.9827
  205MOL0     H27659   4.467   9.647   2.934 -0.2510 -2.1840  0.4494
  205MOL0     H27660   4.708   9.687   3.015  0.1437  1.1685  0.5915
  205MOL0     H27661   4.821   9.510   2.098 -1.3170 -0.4136 -3.8911
  205MOL0     H27662   4.583   9.518   2.026 -0.7003 -1.4322 -2.1051
  205MOL0     H27663   4.183   9.527   1.834  0.0644  1.1794  0.7109
  205MOL0     H27664   3.935   9.536   1.843 -0.7831  0.5259 -0.0789
  205MOL0     H27665   3.604   9.528   2.107  0.5527 -0.9134 -0.1375
  205MOL0     H27666   3.733   9.513   2.229  1.7765 -2.3647 -0.9021
  205MOL0     H27667   3.791   9.745   2.207  0.2035 -1.8851  0.2730
  205MOL0     H27668   3.629   9.715   2.268  0.1941  0.8950  0.2671
  205MOL0     H27669   3.535   9.780   2.051  0.0723 -1.3525  0.2317
  205MOL0     H27670   3.690   9.797   1.982 -0.0307  0.0945 -0.1703
  205MOL0     H27671   3.617  10.027   2.037  1.4927 -0.7872 -1.7551
  205MOL0     H27672   3.742   9.984   2.152  1.8144 -1.9167 -2.7437
  205MOL0     H27673   3.435  10.010   2.433  0.5449 -0.2487  0.5060
  205MOL0     H27674   3.941   9.505   2.272  0.4417  0.1183 -0.1380
  205MOL0     H27675   4.188   9.463   2.249 -0.3090 -1.5761  0.4850
  206MOL0     O27676   0.938   5.854   3.989 -0.5130  0.3848 -0.6861
  206MOL0     C27677   0.986   5.969   3.995 -0.3379 -0.0390 -0.4333
  206MOL0     O27678   0.916   6.084   4.032  0.1240  0.2400  0.1274
  206MOL0     C27679   0.784   6.070   4.039 -0.3529 -0.6244  0.0927
  206MOL0     C27680   0.726   6.138   4.151 -1.2242 -0.4067  0.2234
  206MOL0     C27681   0.589   6.136   4.163 -0.1600  1.0089  0.0262
  206MOL0     C27682   0.505   6.075   4.069 -1.0434 -0.1902  0.1478
  206MOL0     O27683   0.373   6.077   4.093  0.3473  0.0127  0.2536
  206MOL0     C27684   0.286   6.136   3.995  0.8535  0.7810 -0.1027
  206MOL0     C27685   0.151   6.116   4.061  0.7799  0.2147  0.4395
  206MOL0     C27686   0.106   6.226   4.160  0.2446 -0.0950  0.1016
  206MOL0     C27687  -0.034   6.264   4.131 -0.0700 -1.3136 -1.4570
  206MOL0     C27688  -0.078   6.373   4.233  0.6853 -0.7602  0.1628
  206MOL0     C27689  -0.211   6.447   4.205  0.9668  0.1315  0.5627
  206MOL0     C27690  -0.332   6.358   4.233 -0.2112  0.2395 -0.7586
  206MOL0     C27691  -0.387   6.378   4.379 -0.4567  0.9003 -0.4795
  206MOL0     N27692  -0.445   6.251   4.441 -0.0643 -1.3055 -0.6303
  206MOL0     C27693  -0.555   6.179   4.399  0.6598  0.7714 -1.1668
  206MOL0     C27694  -0.572   6.085   4.499  0.2125  0.7503  0.6508
  206MOL0     C27695  -0.664   5.966   4.502 -0.4372  0.7444 -0.2650
  206MOL0     C27696  -0.600   5.837   4.468  0.3411 -1.5161 -1.4949
  206MOL0     C27697  -0.689   5.718   4.441 -0.1536 -0.2648 -0.2271
  206MOL0     C27698  -0.758   5.669   4.568  0.5187  0.2799  0.5095
  206MOL0     O27699  -0.828   5.544   4.550  0.3478  0.1202  0.5137
  206MOL0     C27700  -0.958   5.523   4.593  0.2983  0.7607  0.5047
  206MOL0     C27701  -1.055   5.621   4.556  0.3521  0.5999 -0.3557
  206MOL0     C27702  -1.188   5.607   4.601  0.2510 -0.1138  0.3035
  206MOL0     C27703  -1.286   5.708   4.546  0.0159 -0.9386 -0.5544
  206MOL0     C27704  -1.218   5.495   4.685  0.3458 -0.3110 -0.4587
  206MOL0     C27705  -1.355   5.491   4.737  0.3398  0.3983  0.9554
  206MOL0     O27706  -1.395   5.367   4.758 -0.9544 -0.8950  0.8322
  206MOL0     C27707  -1.527   5.339   4.775 -0.0932  0.5547  0.6935
  206MOL0     C27708  -1.575   5.249   4.875 -0.2391 -0.0009 -0.0855
  206MOL0     C27709  -1.706   5.219   4.890  0.2409  1.0602 -0.2286
  206MOL0     C27710  -1.804   5.277   4.808 -0.6197 -0.5961 -0.6264
  206MOL0     O27711  -1.943   5.268   4.800 -0.3952  0.5676  0.0624
  206MOL0     C27712  -1.984   5.173   4.895 -0.2201 -0.1589 -0.5487
  206MOL0     C27713  -2.137   5.170   4.915 -0.2699  0.2463 -0.0678
  206MOL0     C27714  -2.171   5.087   5.044 -0.0053  0.8571  0.0857
  206MOL0     C27715  -2.323   5.071   5.054  0.1147  0.3228 -1.2130
  206MOL0     C27716  -2.370   4.993   5.187 -0.3446 -0.6284  0.6186
  206MOL0     C27717  -2.520   4.995   5.185  0.2740  0.7708 -0.5539
  206MOL0     C27718  -2.560   4.881   5.292 -0.2537  0.7629 -0.0665
  206MOL0     C27719  -2.494   4.896   5.428 -0.2836 -0.3025  0.8791
  206MOL0    Cl27720  -2.537   4.769   5.541 -0.1303  0.2324 -0.1299
  206MOL0     C27721  -1.761   5.371   4.716  0.2525  0.1765  0.2800
  206MOL0     C27722  -1.631   5.396   4.700 -0.1979 -0.0391 -0.3982
  206MOL0     O27723  -1.413   5.591   4.768  0.9178 -0.2905  0.0914
  206MOL0     C27724  -1.120   5.396   4.717  0.0378 -0.9393 -0.1316
  206MOL0     C27725  -0.991   5.412   4.663 -0.5263 -0.3335  0.3523
  206MOL0     N27726  -0.456   6.086   4.576 -0.3064 -0.8702 -0.7122
  206MOL0     N27727  -0.393   6.200   4.557  0.2028  0.1081  1.0379
  206MOL0     C27728   0.561   6.023   3.951  0.4909 -0.7569  0.2549
  206MOL0     C27729   0.697   6.021   3.937 -1.1410 -0.2073  0.2274
  206MOL0     C27730   1.130   5.984   3.977 -0.6284  0.2924 -0.4329
  206MOL0     C27731   1.193   6.103   3.954 -0.4654 -0.2638  0.1416
  206MOL0     C27732   1.329   6.111   3.950 -0.4128  0.5611  0.3507
  206MOL0     C27733   1.413   5.999   3.971  0.1405 -0.0348 -0.1348
  206MOL0     O27734   1.548   5.999   3.959  0.3662  0.8650  0.1889
  206MOL0     C27735   1.628   6.110   3.912 -0.3936 -0.0253 -0.6520
  206MOL0     C27736   1.764   6.048   3.885 -0.4506  0.2472  0.4311
  206MOL0     C27737   1.860   6.148   3.823  0.1600  0.1079  0.5640
  206MOL0     C27738   1.990   6.083   3.793 -0.2809  0.6218  0.0399
  206MOL0     C27739   2.052   6.064   3.921  0.0992 -0.6102 -0.9209
  206MOL0     C27740   2.123   6.064   4.019 -0.1051 -0.6193 -0.3062
  206MOL0     C27741   1.348   5.876   3.990 -0.8918 -0.6788  0.7712
  206MOL0     C27742   1.214   5.872   4.003 -0.2590 -0.0736  0.3494
  206MOL0     H27743   0.790   6.185   4.225 -1.7369  1.4870 -0.4786
  206MOL0     H27744   0.542   6.186   4.247  1.2283  0.8707  0.9065
  206MOL0     H27745   0.296   6.242   3.968 -2.2870  1.5816  1.3886
  206MOL0     H27746   0.280   6.072   3.907 -0.4508 -1.2832  1.4171
  206MOL0     H27747   0.084   6.100   3.976 -0.5400 -1.5265  1.7392
  206MOL0     H27748   0.140   6.017   4.105  0.3556  0.9710  2.0950
  206MOL0     H27749   0.125   6.188   4.261  1.6843  1.2350  0.3576
  206MOL0     H27750   0.168   6.315   4.149  1.5201 -1.0264 -0.4815
  206MOL0     H27751  -0.051   6.315   4.036 -1.1012 -0.9327 -1.0806
  206MOL0     H27752  -0.105   6.182   4.146 -0.6873 -0.5012  0.4414
  206MOL0     H27753  -0.083   6.321   4.329  0.7545  0.6543  0.9561
  206MOL0     H27754   0.004   6.445   4.246  0.5585 -0.8344  1.5549
  206MOL0     H27755  -0.225   6.540   4.261 -1.9122  0.7647 -1.0207
  206MOL0     H27756  -0.209   6.481   4.100  1.3987  0.2981  0.6195
  206MOL0     H27757  -0.415   6.372   4.164 -0.1968 -1.7003 -1.2199
  206MOL0     H27758  -0.307   6.254   4.210  1.3705  0.4046  0.0415
  206MOL0     H27759  -0.452   6.465   4.376 -1.4554  0.1779 -0.2787
  206MOL0     H27760  -0.301   6.408   4.440 -1.8709  2.0556  1.0238
  206MOL0     H27761  -0.628   6.207   4.323  1.7958  2.8556 -1.5500
  206MOL0     H27762  -0.716   5.960   4.598 -0.7701 -1.0750 -0.5313
  206MOL0     H27763  -0.740   5.988   4.427 -1.7900 -0.9171  0.5412
  206MOL0     H27764  -0.534   5.803   4.549  0.8420  0.7622 -0.8854
  206MOL0     H27765  -0.552   5.856   4.371  1.4051 -0.6523 -0.8252
  206MOL0     H27766  -0.631   5.637   4.395 -1.6179 -1.6850  0.3221
  206MOL0     H27767  -0.759   5.742   4.361  1.1316 -0.3406 -1.4206
  206MOL0     H27768  -0.820   5.750   4.608  0.3669 -0.4219  1.7763
  206MOL0     H27769  -0.683   5.653   4.646  0.5812 -2.4141 -0.0258
  206MOL0     H27770  -1.025   5.697   4.484 -3.1937 -0.4496 -3.2756
  206MOL0     H27771  -1.309   5.790   4.615  0.5343 -1.0108 -0.2917
  206MOL0     H27772  -1.250   5.765   4.460 -0.2252  0.9970  0.5650
  206MOL0     H27773  -1.383   5.668   4.516 -1.3781 -0.0320  2.3112
  206MOL0     H27774  -1.502   5.203   4.941  1.1628  1.2135 -0.7056
  206MOL0     H27775  -1.736   5.149   4.967  1.4084 -1.2951 -1.7811
  206MOL0     H27776  -1.952   5.073   4.866  0.8241  0.7486 -2.7887
  206MOL0     H27777  -1.954   5.198   4.998  0.0147 -1.5211 -0.2696
  206MOL0     H27778  -2.160   5.276   4.931  0.7099  0.7043 -1.4534
  206MOL0     H27779  -2.180   5.139   4.819  0.4117  0.7744 -0.5626
  206MOL0     H27780  -2.131   5.129   5.137  0.7168 -0.8876  0.6005
  206MOL0     H27781  -2.130   4.986   5.037 -0.8806  0.4168  0.9335
  206MOL0     H27782  -2.352   5.177   5.057 -2.4649 -0.3544  0.9764
  206MOL0     H27783  -2.360   5.027   4.961  0.5632 -0.5920 -0.9643
  206MOL0     H27784  -2.329   5.050   5.271 -0.7518 -0.3963  0.6626
  206MOL0     H27785  -2.336   4.890   5.188  1.5478 -0.0408  0.6666
  206MOL0     H27786  -2.548   5.092   5.228 -0.7272 -0.7375  2.5519
  206MOL0     H27787  -2.557   4.980   5.084  0.1373 -1.5089 -0.2124
  206MOL0     H27788  -2.533   4.782   5.254 -0.3562  0.1471  1.3953
  206MOL0     H27789  -2.669   4.887   5.301 -0.3931 -1.5607  0.4544
  206MOL0     H27790  -2.529   4.986   5.479 -1.1136 -0.9397  1.4633
  206MOL0     H27791  -2.386   4.907   5.413 -0.5337 -1.1354 -2.3714
  206MOL0     H27792  -1.832   5.401   4.640  0.4488 -2.6767 -1.1691
  206MOL0     H27793  -1.606   5.461   4.617 -0.4891  0.0141 -0.4445
  206MOL0     H27794  -1.138   5.307   4.776  2.4087  0.0399  2.2856
  206MOL0     H27795  -0.907   5.350   4.694  1.1923  1.0624 -1.3137
  206MOL0     H27796   0.502   5.980   3.871  2.4515 -2.3806 -0.4036
  206MOL0     H27797   0.747   5.981   3.849 -1.4300  2.3402 -1.1820
  206MOL0     H27798   1.142   6.199   3.949 -0.3962 -0.2918 -1.4863
  206MOL0     H27799   1.379   6.206   3.933 -1.1492  0.7830 -0.7024
  206MOL0     H27800   1.580   6.150   3.822 -4.3342 -1.2654  0.6964
  206MOL0     H27801   1.624   6.189   3.987 -0.9712 -0.9863  0.3561
  206MOL0     H27802   1.760   5.967   3.812  1.0247 -0.8073  1.4435
  206MOL0     H27803   1.809   6.014   3.979  0.6884  3.5820  1.2579
  206MOL0     H27804   1.877   6.237   3.883  1.6890  0.9284 -0.9829
  206MOL0     H27805   1.826   6.179   3.723  0.4009  1.2040  0.8078
  206MOL0     H27806   2.047   6.148   3.725 -0.6847 -1.1204 -2.0836
  206MOL0     H27807   1.978   5.985   3.748 -2.4352 -0.0392  1.8735
  206MOL0     H27808   2.177   6.052   4.110  2.6184 -1.0717 -1.8743
  206MOL0     H27809   1.397   5.779   3.980 -1.1177 -1.3744  4.7892
  206MOL0     H27810   1.169   5.774   4.017  1.8293 -0.9310  1.5892
  207MOL0     O27811   5.499   9.035  10.105  1.2873  0.2404  0.1149
  207MOL0     C27812   5.561   8.932  10.128  0.0560  0.5281 -0.1811
  207MOL0     O27813   5.509   8.807  10.102  0.6139  0.2154  0.1134
  207MOL0     C27814   5.409   8.812  10.003 -0.1061  1.0467 -0.4106
  207MOL0     C27815   5.290   8.751  10.048 -0.2954 -0.2976  0.2712
  207MOL0     C27816   5.198   8.717   9.948 -0.0123  0.2948 -0.2229
  207MOL0     C27817   5.220   8.734   9.812 -0.8049  0.0684 -0.4109
  207MOL0     O27818   5.137   8.690   9.712  0.4869  1.0333 -0.0926
  207MOL0     C27819   5.129   8.755   9.585 -0.1598  0.2876 -0.8410
  207MOL0     C27820   5.000   8.708   9.521 -0.1937 -0.4039  0.1883
  207MOL0     C27821   4.981   8.785   9.384 -0.0166 -0.3239 -0.4295
  207MOL0     C27822   4.836   8.768   9.328 -0.2613 -0.2145  0.5186
  207MOL0     C27823   4.807   8.822   9.188 -0.8481 -0.3512 -1.4422
  207MOL0     C27824   4.656   8.815   9.161  0.2945  0.0426 -0.2244
  207MOL0     C27825   4.631   8.826   9.012 -0.8144  0.1955 -0.4072
  207MOL0     C27826   4.484   8.801   8.964 -0.2894  0.1234 -0.7089
  207MOL0     N27827   4.382   8.883   9.032 -0.1208  0.7963  0.6118
  207MOL0     C27828   4.334   8.847   9.158 -0.0468  0.1708 -0.1948
  207MOL0     C27829   4.266   8.958   9.203  0.0889 -0.6880 -1.1594
  207MOL0     C27830   4.201   8.953   9.339  0.2288 -0.2094  0.3418
  207MOL0     C27831   4.294   8.996   9.457  0.2169  0.2531  0.7343
  207MOL0     C27832   4.274   8.921   9.588  0.6698  0.7416  0.1547
  207MOL0     C27833   4.138   8.941   9.657 -0.1798 -0.1454  0.2252
  207MOL0     O27834   4.109   8.843   9.760 -1.1135 -0.3834  0.2250
  207MOL0     C27835   4.162   8.868   9.886 -0.3617  0.7920  0.4314
  207MOL0     C27836   4.123   8.774   9.986 -0.0700  0.6593  0.6135
  207MOL0     C27837   4.170   8.796  10.119 -0.3443  0.2298  0.1755
  207MOL0     C27838   4.121   8.700  10.222  0.1378 -0.0060  1.0248
  207MOL0     C27839   4.254   8.904  10.154 -0.4922 -0.7801 -0.6014
  207MOL0     C27840   4.323   8.919  10.292  0.0188  0.2593  0.0467
  207MOL0     O27841   4.361   9.045  10.321  0.0869 -0.0324  0.0019
  207MOL0     C27842   4.415   9.072  10.439  0.2978 -0.2786  0.1361
  207MOL0     C27843   4.323   9.082  10.547 -0.2381 -0.2813 -0.5504
  207MOL0     C27844   4.366   9.097  10.679 -0.4097 -0.2435  0.0717
  207MOL0     C27845   4.505   9.113  10.712  0.2839  0.4344  0.7924
  207MOL0     O27846   4.532   9.115  10.847  0.7604 -0.4158  0.3779
  207MOL0     C27847   4.663   9.152  10.869 -0.2589  0.0557  0.0984
  207MOL0     C27848   4.675   9.226  11.004 -0.6756 -0.4131  0.4039
  207MOL0     C27849   4.627   9.152  11.129 -0.1840 -0.0612  1.1500
  207MOL0     C27850   4.550   9.243  11.227  0.2224  0.2444  0.6142
  207MOL0     C27851   4.422   9.299  11.158  0.4179  0.6489  0.0494
  207MOL0     C27852   4.300   9.264  11.242 -0.5766 -0.4635 -0.7532
  207MOL0     C27853   4.280   9.363  11.365  0.2301  0.3440  0.6834
  207MOL0     C27854   4.176   9.318  11.457  1.5066  1.1652 -0.5425
  207MOL0    Cl27855   4.044   9.443  11.452 -0.2533  0.6967 -0.0264
  207MOL0     C27856   4.602   9.101  10.599  0.5309 -0.2002 -0.1335
  207MOL0     C27857   4.555   9.083  10.468 -0.0500  0.3374  0.1057
  207MOL0     O27858   4.355   8.823  10.354 -0.3844 -0.7417 -0.2546
  207MOL0     C27859   4.289   9.001  10.062 -0.8382  0.2968  0.5339
  207MOL0     C27860   4.238   8.986   9.928  0.8826 -0.5864 -0.2930
  207MOL0     N27861   4.286   9.059   9.109  0.4405 -0.5771 -0.1664
  207MOL0     N27862   4.350   9.011   8.999 -0.1696 -0.8979 -0.2699
  207MOL0     C27863   5.347   8.794   9.773  0.5604  0.2106  0.2036
  207MOL0     C27864   5.434   8.839   9.862 -0.6137  0.1538  0.3406
  207MOL0     C27865   5.692   8.934  10.202 -0.1399 -0.3597 -0.9135
  207MOL0     C27866   5.766   9.049  10.232  0.6209 -0.2579 -0.8349
  207MOL0     C27867   5.877   9.043  10.309 -0.7706 -0.2437  0.2694
  207MOL0     C27868   5.924   8.936  10.370  1.2301 -0.1433 -0.8346
  207MOL0     O27869   6.040   8.953  10.438  0.5143 -0.5666  0.0613
  207MOL0     C27870   6.108   8.832  10.483  0.5654 -0.7629 -1.0760
  207MOL0     C27871   6.223   8.853  10.572  0.1698  0.3503 -0.6927
  207MOL0     C27872   6.326   8.939  10.510 -0.0248 -0.0376  0.8729
  207MOL0     C27873   6.444   8.950  10.606 -0.5009  0.0795 -1.0899
  207MOL0     C27874   6.564   9.021  10.565  0.5664  0.3410 -0.2459
  207MOL0     C27875   6.659   9.079  10.514  0.8721  0.4377 -0.6008
  207MOL0     C27876   5.851   8.816  10.351  0.3830 -1.6839 -0.0521
  207MOL0     C27877   5.744   8.817  10.260  0.2946  0.4878 -0.0917
  207MOL0     H27878   5.266   8.740  10.154  1.1962 -0.9803  0.5628
  207MOL0     H27879   5.098   8.685   9.977 -1.0352 -0.8285 -4.4400
  207MOL0     H27880   5.119   8.861   9.609 -1.0640 -0.4153  2.5159
  207MOL0     H27881   5.211   8.749   9.514 -1.3946  1.8170 -2.4800
  207MOL0     H27882   5.015   8.603   9.496 -0.2634 -0.8453  1.8472
  207MOL0     H27883   4.913   8.724   9.587 -0.7184  2.9881 -1.0921
  207MOL0     H27884   5.009   8.890   9.399  3.8920 -1.4430  1.3233
  207MOL0     H27885   5.058   8.751   9.314  1.8941  2.8032 -0.0733
  207MOL0     H27886   4.811   8.662   9.324  4.1801 -1.4111 -0.5731
  207MOL0     H27887   4.771   8.816   9.402  0.0611  2.3684 -0.7595
  207MOL0     H27888   4.830   8.929   9.186  2.5557 -0.8181  1.6374
  207MOL0     H27889   4.882   8.782   9.119 -0.1345 -0.8191 -0.4363
  207MOL0     H27890   4.611   8.723   9.199  1.6827 -1.0066 -1.0259
  207MOL0     H27891   4.604   8.904   9.197 -0.1512 -1.1320  2.2675
  207MOL0     H27892   4.659   8.926   8.981 -0.3750 -0.2648 -1.5593
  207MOL0     H27893   4.702   8.761   8.960 -1.3104 -1.4727  0.9100
  207MOL0     H27894   4.457   8.698   8.988 -0.5243 -0.0789 -1.7852
  207MOL0     H27895   4.476   8.818   8.856  0.0156 -1.7051 -1.0660
  207MOL0     H27896   4.343   8.747   9.198 -1.3990  0.8708  2.0925
  207MOL0     H27897   4.118   9.024   9.343 -0.8488 -1.4125  0.0480
  207MOL0     H27898   4.158   8.852   9.347 -2.8519  0.9189 -0.3393
  207MOL0     H27899   4.289   9.100   9.488 -0.1099 -0.2775  2.5988
  207MOL0     H27900   4.393   8.981   9.414  0.7951  0.1100  2.0747
  207MOL0     H27901   4.353   8.966   9.649  1.4338  1.7202 -1.4584
  207MOL0     H27902   4.308   8.817   9.582 -0.3331  0.3708  0.7601
  207MOL0     H27903   4.063   8.929   9.578 -0.8752 -1.2855  1.0416
  207MOL0     H27904   4.131   9.044   9.693  2.2112 -0.4741  1.9329
  207MOL0     H27905   4.070   8.680   9.975 -1.0191  1.3000 -0.5446
  207MOL0     H27906   4.195   8.623  10.245  3.6392  2.6876 -0.3014
  207MOL0     H27907   4.092   8.751  10.314 -2.5604 -0.5660  0.5742
  207MOL0     H27908   4.028   8.653  10.188  0.2561  0.3282  0.2055
  207MOL0     H27909   4.219   9.072  10.517 -0.5663 -1.2478  0.7908
  207MOL0     H27910   4.304   9.084  10.767 -0.4887  2.7569  0.5818
  207MOL0     H27911   4.716   9.057  10.881  3.4850  1.7548 -1.1971
  207MOL0     H27912   4.719   9.213  10.797 -0.8652 -0.3581 -0.7251
  207MOL0     H27913   4.782   9.241  11.017 -0.4264 -1.3378 -0.4365
  207MOL0     H27914   4.629   9.325  10.995  3.1944  1.7910  2.2558
  207MOL0     H27915   4.715   9.102  11.172  0.8827 -0.2576 -1.1089
  207MOL0     H27916   4.562   9.071  11.093  1.4953  0.1826 -2.9141
  207MOL0     H27917   4.523   9.198  11.323 -0.1145  1.3417  1.0536
  207MOL0     H27918   4.615   9.330  11.242  1.3539  0.2099 -3.1737
  207MOL0     H27919   4.409   9.254  11.060  3.3062 -1.2734  0.4061
  207MOL0     H27920   4.429   9.408  11.153 -0.3798  0.7194  0.3084
  207MOL0     H27921   4.211   9.281  11.180 -0.0697  1.8554 -0.9624
  207MOL0     H27922   4.296   9.160  11.274 -0.6494 -0.7010 -1.5102
  207MOL0     H27923   4.266   9.466  11.332 -2.0690 -1.5006 -5.4093
  207MOL0     H27924   4.367   9.361  11.431  2.2407 -3.6056 -1.7168
  207MOL0     H27925   4.221   9.301  11.555  1.7062  2.1959 -0.4490
  207MOL0     H27926   4.133   9.218  11.443  1.3168  0.6287  2.8770
  207MOL0     H27927   4.708   9.104  10.619 -0.0154  1.0017  3.1589
  207MOL0     H27928   4.622   9.058  10.387  0.7398 -2.4048  1.4846
  207MOL0     H27929   4.350   9.087  10.086 -0.7477  0.0668  1.1267
  207MOL0     H27930   4.275   9.053   9.851 -0.4981  0.9931  0.3685
  207MOL0     H27931   5.354   8.808   9.665  2.6105 -1.7159  0.0084
  207MOL0     H27932   5.533   8.881   9.846  0.5113 -2.7845 -1.0292
  207MOL0     H27933   5.742   9.146  10.191 -2.3755 -0.4649  0.1883
  207MOL0     H27934   5.931   9.135  10.329  2.0524 -0.9046 -3.2304
  207MOL0     H27935   6.040   8.782  10.551 -1.9206  3.2927 -0.2444
  207MOL0     H27936   6.144   8.771  10.400  0.8918  0.9755 -2.2732
  207MOL0     H27937   6.262   8.754  10.599 -1.5470  0.3623  2.3507
  207MOL0     H27938   6.193   8.903  10.665 -1.1826 -1.5221 -0.0479
  207MOL0     H27939   6.291   9.038  10.481  2.2452  0.3697 -0.7776
  207MOL0     H27940   6.361   8.900  10.414  0.7138  1.3559  0.5592
  207MOL0     H27941   6.472   8.845  10.621  1.6484  0.1519 -3.7678
  207MOL0     H27942   6.402   8.989  10.699 -2.3594 -3.0998 -0.4594
  207MOL0     H27943   6.738   9.130  10.461  1.6764 -0.6936 -0.5396
  207MOL0     H27944   5.866   8.724  10.407 -1.6523 -1.0223  1.7042
  207MOL0     H27945   5.703   8.718  10.246  1.2330 -0.1536  1.4491
  208MOL0     O27946   2.556   6.451   5.232  0.0999  0.4375 -0.8184
  208MOL0     C27947   2.625   6.520   5.313 -0.9136  0.6361  0.5744
  208MOL0     O27948   2.572   6.588   5.420 -0.4011  0.3359  0.2303
  208MOL0     C27949   2.441   6.600   5.449 -0.4953  0.9885  0.5855
  208MOL0     C27950   2.350   6.656   5.361  0.0631 -0.5254 -0.6888
  208MOL0     C27951   2.222   6.679   5.396  0.3133  0.2062 -0.1476
  208MOL0     C27952   2.170   6.633   5.523 -0.1182 -0.7281  0.1751
  208MOL0     O27953   2.033   6.636   5.542  0.1849 -0.0017  0.0748
  208MOL0     C27954   1.963   6.593   5.663 -0.5513  0.0311  0.6618
  208MOL0     C27955   1.868   6.714   5.679  0.6800 -0.6617 -0.3735
  208MOL0     C27956   1.738   6.689   5.753 -0.3146 -0.5344 -0.4760
  208MOL0     C27957   1.757   6.685   5.901 -0.5005  0.1661 -0.9286
  208MOL0     C27958   1.625   6.667   5.985 -0.2761  0.4631 -0.1278
  208MOL0     C27959   1.509   6.571   5.938  0.3502  0.5339  0.8271
  208MOL0     C27960   1.400   6.560   6.051  0.0004  0.4392  0.4000
  208MOL0     C27961   1.286   6.468   6.007  0.1418 -0.4260 -0.7344
  208MOL0     N27962   1.147   6.505   6.039  0.7602 -0.4027  0.6529
  208MOL0     C27963   1.077   6.612   5.985  0.0422  0.3478 -0.1600
  208MOL0     C27964   0.951   6.594   6.033 -0.5124 -0.4548 -0.4342
  208MOL0     C27965   0.831   6.675   5.985 -0.5109 -0.6507 -0.0113
  208MOL0     C27966   0.715   6.682   6.088 -0.3505  1.1547  0.6378
  208MOL0     C27967   0.594   6.585   6.074  1.1592  0.8075 -0.4795
  208MOL0     C27968   0.493   6.628   5.966  0.6752  0.5501 -0.1802
  208MOL0     O27969   0.381   6.532   5.973 -0.2684 -0.2554  0.2156
  208MOL0     C27970   0.267   6.543   5.899  0.1761 -0.7183  0.1005
  208MOL0     C27971   0.168   6.449   5.920 -0.0636  0.0833 -0.4084
  208MOL0     C27972   0.050   6.437   5.842  0.6976 -1.1649  0.4184
  208MOL0     C27973  -0.054   6.338   5.888 -0.4712  0.9817 -0.0579
  208MOL0     C27974   0.025   6.542   5.755  0.5006 -0.0300 -0.0894
  208MOL0     C27975  -0.106   6.568   5.684  0.2944 -0.7375  1.1267
  208MOL0     O27976  -0.229   6.500   5.710  0.1645  0.2709 -0.0988
  208MOL0     C27977  -0.347   6.518   5.642  0.0881  0.0896  1.0012
  208MOL0     C27978  -0.454   6.453   5.702  0.0506  0.0279  0.5452
  208MOL0     C27979  -0.575   6.462   5.634 -0.2771  0.3286 -0.6115
  208MOL0     C27980  -0.595   6.533   5.514 -0.6449 -0.5572  0.3231
  208MOL0     O27981  -0.723   6.550   5.470  0.6681  0.8710 -0.0013
  208MOL0     C27982  -0.744   6.583   5.333 -0.0567 -0.5842 -0.4753
  208MOL0     C27983  -0.888   6.531   5.307 -0.9823 -0.6528  0.4660
  208MOL0     C27984  -0.891   6.500   5.159 -0.4732  0.0947  0.2499
  208MOL0     C27985  -1.036   6.496   5.106 -0.2299 -0.2598 -0.5447
  208MOL0     C27986  -1.109   6.361   5.135 -0.4258 -0.1117  0.2573
  208MOL0     C27987  -1.252   6.365   5.094  0.7044 -0.3050 -0.4054
  208MOL0     C27988  -1.335   6.281   5.194  0.3988 -0.3583  0.5730
  208MOL0     C27989  -1.434   6.195   5.113  0.6153  0.0364  0.1678
  208MOL0    Cl27990  -1.546   6.113   5.226  0.1372  0.2102 -0.0807
  208MOL0     C27991  -0.483   6.589   5.445  0.0624 -1.2785  0.5957
  208MOL0     C27992  -0.362   6.579   5.514  0.3320 -0.4459  0.0211
  208MOL0     O27993  -0.094   6.663   5.601 -0.5463 -0.0428  0.4809
  208MOL0     C27994   0.118   6.641   5.740 -0.6023  0.1815 -0.6623
  208MOL0     C27995   0.240   6.643   5.805 -0.6337 -1.1611  0.0126
  208MOL0     N27996   0.942   6.473   6.111  0.0638  0.3453  1.3014
  208MOL0     N27997   1.061   6.435   6.126 -0.1819 -0.9030  0.4710
  208MOL0     C27998   2.257   6.570   5.606 -0.2130  0.1610  0.6885
  208MOL0     C27999   2.385   6.542   5.564 -0.0230 -0.3963 -0.8111
  208MOL0     C28000   2.768   6.520   5.300 -0.4850  0.0328  0.5135
  208MOL0     C28001   2.835   6.442   5.217  0.2803 -0.1296  0.1239
  208MOL0     C28002   2.977   6.434   5.215  1.7039 -0.5721  0.0783
  208MOL0     C28003   3.050   6.515   5.305  0.1752  0.8050  1.3014
  208MOL0     O28004   3.182   6.509   5.299  0.0423 -0.4822  0.9507
  208MOL0     C28005   3.238   6.391   5.346  0.1226 -0.3412  0.7142
  208MOL0     C28006   3.384   6.404   5.332 -0.2055 -0.6344  0.4610
  208MOL0     C28007   3.440   6.407   5.183 -0.4980 -0.2813  0.1658
  208MOL0     C28008   3.595   6.443   5.177  0.5009  0.2544 -0.2052
  208MOL0     C28009   3.674   6.333   5.225 -0.6304 -0.4945 -0.2723
  208MOL0     C28010   3.713   6.231   5.281  0.2476  0.3954  0.4761
  208MOL0     C28011   2.988   6.598   5.389 -0.2240  0.0704 -0.2868
  208MOL0     C28012   2.843   6.599   5.386 -0.5337 -0.0120 -0.5908
  208MOL0     H28013   2.374   6.715   5.273 -2.0671  1.9300  0.2611
  208MOL0     H28014   2.150   6.730   5.332 -1.3691  0.4595  1.8274
  208MOL0     H28015   1.896   6.510   5.641 -1.8160  1.3057 -0.5599
  208MOL0     H28016   2.026   6.581   5.751  2.5725  1.5225 -1.1612
  208MOL0     H28017   1.916   6.798   5.729  0.5042 -0.5237 -0.4349
  208MOL0     H28018   1.843   6.757   5.581 -1.4605  1.3910  0.9644
  208MOL0     H28019   1.660   6.763   5.731 -0.5908 -0.6497  0.0930
  208MOL0     H28020   1.697   6.591   5.727 -2.3726 -0.7194  2.8640
  208MOL0     H28021   1.811   6.595   5.929 -2.3189 -0.3225  1.3630
  208MOL0     H28022   1.808   6.772   5.944 -0.7278 -0.9302  1.7486
  208MOL0     H28023   1.650   6.636   6.087  0.2418  0.1260 -0.3557
  208MOL0     H28024   1.577   6.765   5.993  0.3027  0.8163 -0.9402
  208MOL0     H28025   1.475   6.604   5.840 -0.5851 -0.3903  0.8225
  208MOL0     H28026   1.558   6.476   5.917  1.2151  1.3396 -0.9993
  208MOL0     H28027   1.454   6.527   6.140  2.1827  2.0750 -0.2275
  208MOL0     H28028   1.373   6.664   6.071 -2.7466  0.0079 -0.5124
  208MOL0     H28029   1.303   6.371   6.055  1.1529 -0.7495 -1.6824
  208MOL0     H28030   1.282   6.453   5.899  0.2742 -1.0855 -0.6494
  208MOL0     H28031   1.114   6.687   5.916  0.9188 -1.6418 -1.9797
  208MOL0     H28032   0.850   6.782   5.976 -1.7068  0.1812  4.4995
  208MOL0     H28033   0.798   6.638   5.888 -1.4642 -0.9109  0.3988
  208MOL0     H28034   0.677   6.784   6.084  0.1985  1.3401  0.1056
  208MOL0     H28035   0.754   6.661   6.188  2.9371 -0.4824 -0.8398
  208MOL0     H28036   0.534   6.581   6.165  1.8484 -2.0751 -0.0596
  208MOL0     H28037   0.619   6.481   6.048  0.1447 -0.2443  2.3946
  208MOL0     H28038   0.533   6.643   5.865 -0.7129  3.7274 -0.4034
  208MOL0     H28039   0.449   6.728   5.982 -0.2005  0.2201 -0.4332
  208MOL0     H28040   0.189   6.375   5.997  0.9584 -0.3324 -1.0744
  208MOL0     H28041  -0.035   6.286   5.983 -0.8121 -0.2929 -0.6689
  208MOL0     H28042  -0.153   6.380   5.904 -0.5696  1.0401 -0.7813
  208MOL0     H28043  -0.073   6.273   5.803 -2.9817  0.6274  0.7049
  208MOL0     H28044  -0.439   6.405   5.798  0.1554  0.8708  0.9671
  208MOL0     H28045  -0.662   6.410   5.673 -1.6181  1.2942 -2.2065
  208MOL0     H28046  -0.741   6.692   5.330  0.2320 -0.4835  1.6800
  208MOL0     H28047  -0.681   6.530   5.261  0.6977 -0.9770  0.4455
  208MOL0     H28048  -0.913   6.442   5.366  1.2833 -2.4970 -1.1363
  208MOL0     H28049  -0.956   6.614   5.330 -0.7426 -0.5148  0.6784
  208MOL0     H28050  -0.835   6.406   5.148  0.7610  0.9302 -1.1109
  208MOL0     H28051  -0.837   6.575   5.100  1.2194 -0.9462  0.4000
  208MOL0     H28052  -1.087   6.581   5.152 -0.8757 -2.3851  3.0476
  208MOL0     H28053  -1.038   6.502   4.997  1.0882 -3.1432 -0.8141
  208MOL0     H28054  -1.088   6.343   5.241 -0.0005 -2.7340 -0.1943
  208MOL0     H28055  -1.050   6.287   5.079  0.3389  0.6861 -0.0112
  208MOL0     H28056  -1.291   6.465   5.071  0.9745 -0.1335 -0.1100
  208MOL0     H28057  -1.268   6.307   5.002 -2.7148  0.9135 -0.7378
  208MOL0     H28058  -1.389   6.342   5.267  1.6479  0.5873  0.7377
  208MOL0     H28059  -1.279   6.216   5.262 -2.6398 -2.2366  1.4943
  208MOL0     H28060  -1.368   6.127   5.059  1.1871  0.2489  0.5808
  208MOL0     H28061  -1.490   6.255   5.042  0.0816  1.6907  1.8964
  208MOL0     H28062  -0.490   6.639   5.349  0.8073  1.6950  1.9922
  208MOL0     H28063  -0.276   6.601   5.452 -1.3203 -0.0977 -2.2904
  208MOL0     H28064   0.092   6.736   5.694 -2.1385  0.9911  1.6811
  208MOL0     H28065   0.299   6.726   5.767 -1.1036 -0.4914  0.7080
  208MOL0     H28066   2.225   6.519   5.696  1.7819 -2.3557  0.0928
  208MOL0     H28067   2.451   6.489   5.632  1.8521  2.1099 -0.5457
  208MOL0     H28068   2.787   6.386   5.137  0.8438  0.3505 -0.5603
  208MOL0     H28069   3.024   6.367   5.144 -0.3745  0.6416 -2.6406
  208MOL0     H28070   3.198   6.385   5.447 -3.0825  0.7588 -0.3315
  208MOL0     H28071   3.208   6.303   5.288  0.0631 -0.5486  1.0618
  208MOL0     H28072   3.435   6.316   5.373  2.0215 -1.1746 -3.0576
  208MOL0     H28073   3.418   6.496   5.380  1.2585  0.2052 -1.9801
  208MOL0     H28074   3.381   6.482   5.130  0.6664  1.1773  0.8503
  208MOL0     H28075   3.426   6.306   5.145  2.2672 -1.0965  1.1155
  208MOL0     H28076   3.625   6.530   5.235  1.8882  0.7503 -1.5816
  208MOL0     H28077   3.628   6.476   5.077  1.2241  1.2733  0.3539
  208MOL0     H28078   3.742   6.148   5.342  1.5392  0.7672  0.3928
  208MOL0     H28079   3.049   6.653   5.460  1.7812 -0.6448 -1.3706
  208MOL0     H28080   2.794   6.671   5.451  4.0567  2.1642  0.8368
  209MOL0     O28081   3.119   4.031   7.744 -0.6406  0.0927  0.1455
  209MOL0     C28082   3.155   3.977   7.642  0.7408 -0.0951  0.5937
  209MOL0     O28083   3.066   3.954   7.534 -0.2544 -0.3512  0.2826
  209MOL0     C28084   2.933   3.980   7.540  0.1570  0.4270  0.0837
  209MOL0     C28085   2.864   4.047   7.438  0.3852 -0.6162  0.7614
  209MOL0     C28086   2.723   4.079   7.447  0.0030 -0.5068 -0.2304
  209MOL0     C28087   2.660   4.029   7.562 -0.0963  0.4197  0.0040
  209MOL0     O28088   2.523   4.038   7.588 -0.6186 -0.2879  0.3470
  209MOL0     C28089   2.422   4.086   7.495 -0.7125 -0.6473 -0.9088
  209MOL0     C28090   2.290   4.029   7.539  0.1662 -0.1194  0.7686
  209MOL0     C28091   2.218   4.119   7.639  0.4775  0.7638  0.6319
  209MOL0     C28092   2.073   4.061   7.655  0.3409 -0.2355 -0.1562
  209MOL0     C28093   1.983   4.126   7.769 -0.2519 -0.8676  0.0999
  209MOL0     C28094   1.843   4.069   7.777 -0.5729 -0.3384  0.3221
  209MOL0     C28095   1.788   4.089   7.917  0.0112  0.1848  0.6616
  209MOL0     C28096   1.841   4.006   8.036  0.2039 -0.9305  0.3382
  209MOL0     N28097   1.835   3.854   8.031 -1.1142 -0.7073  0.3089
  209MOL0     C28098   1.734   3.775   7.997 -0.6609 -0.0185  0.3812
  209MOL0     C28099   1.792   3.653   7.997 -0.1171  0.4472  0.1071
  209MOL0     C28100   1.713   3.521   7.985 -0.6531 -0.2634  0.3451
  209MOL0     C28101   1.798   3.400   8.034  0.4771 -0.0979  0.7865
  209MOL0     C28102   1.718   3.267   8.049 -0.2023 -0.9426 -0.7057
  209MOL0     C28103   1.797   3.145   8.107 -0.3756 -0.1542  0.1146
  209MOL0     O28104   1.918   3.145   8.028  0.3284  0.2273 -0.2733
  209MOL0     C28105   2.040   3.098   8.072  0.3171  0.8580  0.2586
  209MOL0     C28106   2.057   3.058   8.207 -0.2221 -0.5634  0.0583
  209MOL0     C28107   2.175   2.997   8.244 -0.1239  0.0630  0.5047
  209MOL0     C28108   2.184   2.958   8.396 -0.9724  0.4924 -0.2640
  209MOL0     C28109   2.286   2.985   8.156 -0.8909  0.4252 -0.0662
  209MOL0     C28110   2.417   2.921   8.184 -0.4341  0.0195 -0.4323
  209MOL0     O28111   2.498   2.894   8.075 -0.0314  0.6136  0.2076
  209MOL0     C28112   2.613   2.829   8.105  0.1912 -1.5661 -0.6839
  209MOL0     C28113   2.736   2.895   8.148 -0.0554 -0.2026 -0.1723
  209MOL0     C28114   2.848   2.822   8.191 -0.2919 -0.7627 -0.2447
  209MOL0     C28115   2.858   2.683   8.181  0.5045 -0.3369 -0.2870
  209MOL0     O28116   2.973   2.617   8.223  0.5300  0.1701 -0.0159
  209MOL0     C28117   3.002   2.486   8.161  0.1601  0.5451 -0.0681
  209MOL0     C28118   3.143   2.438   8.188 -0.3855  0.6350  0.1419
  209MOL0     C28119   3.247   2.519   8.114  1.0912  0.3014  0.0369
  209MOL0     C28120   3.383   2.501   8.179  0.4693  0.6951 -0.1570
  209MOL0     C28121   3.494   2.556   8.084  1.3827  0.5651  0.2865
  209MOL0     C28122   3.462   2.705   8.077  0.1857 -0.0467  0.7313
  209MOL0     C28123   3.572   2.795   8.016  0.1833 -0.1507  0.3918
  209MOL0     C28124   3.688   2.825   8.110  0.0298 -0.3873  0.1289
  209MOL0    Cl28125   3.636   2.958   8.225  0.0094 -0.0501  0.0242
  209MOL0     C28126   2.734   2.621   8.143 -0.0137 -0.9003  0.1543
  209MOL0     C28127   2.621   2.691   8.102 -0.1633 -0.5033 -1.2335
  209MOL0     O28128   2.445   2.905   8.297 -0.2751  0.4779 -0.5829
  209MOL0     C28129   2.275   3.043   8.030  0.5508  0.7221  0.6984
  209MOL0     C28130   2.150   3.097   7.986 -0.5156 -1.2200 -0.0243
  209MOL0     N28131   1.922   3.667   8.031  0.0002 -0.2604  0.0674
  209MOL0     N28132   1.948   3.781   8.059  0.0042 -0.1498  0.4915
  209MOL0     C28133   2.728   3.960   7.663 -0.4626  0.3383  0.8666
  209MOL0     C28134   2.861   3.928   7.654 -0.2963  0.1656  0.0272
  209MOL0     C28135   3.294   3.931   7.633 -0.6847 -0.0844 -0.0961
  209MOL0     C28136   3.348   3.844   7.534  0.1683  0.1138 -0.0863
  209MOL0     C28137   3.464   3.775   7.549  0.0669 -1.0149  0.4188
  209MOL0     C28138   3.541   3.801   7.663  0.3437 -0.2354 -0.4638
  209MOL0     O28139   3.664   3.746   7.686  0.0908 -0.0528  1.0055
  209MOL0     C28140   3.732   3.660   7.593  0.5796  0.9969  0.9465
  209MOL0     C28141   3.807   3.553   7.675  0.4092 -0.8831 -0.5598
  209MOL0     C28142   3.929   3.620   7.744  0.5434  1.2335  0.5781
  209MOL0     C28143   4.042   3.645   7.659  0.9993 -0.0198 -0.1737
  209MOL0     C28144   4.145   3.718   7.731 -0.8641  0.7693  0.8461
  209MOL0     C28145   4.242   3.768   7.792  0.2654  0.3586  0.7277
  209MOL0     C28146   3.498   3.897   7.754  0.5926 -0.1570  0.5836
  209MOL0     C28147   3.376   3.965   7.738 -0.1073  0.2163  0.3871
  209MOL0     H28148   2.913   4.067   7.343  1.1048  0.7733  1.3927
  209MOL0     H28149   2.670   4.126   7.365 -0.1735  0.7154  0.5604
  209MOL0     H28150   2.411   4.195   7.485  0.7901 -0.4692 -0.9150
  209MOL0     H28151   2.452   4.057   7.393  2.1108 -1.7755  0.1362
  209MOL0     H28152   2.233   4.024   7.446  2.5451  0.4573 -0.7972
  209MOL0     H28153   2.294   3.927   7.579 -0.8948 -0.0727  1.0173
  209MOL0     H28154   2.271   4.091   7.730  0.8479 -3.4062 -0.6765
  209MOL0     H28155   2.210   4.224   7.609  1.7966  0.8292  0.4261
  209MOL0     H28156   2.006   4.065   7.568  0.2849  0.9460 -0.0668
  209MOL0     H28157   2.088   3.957   7.686 -0.4066 -1.0353 -2.2346
  209MOL0     H28158   2.034   4.111   7.864  2.1562  1.6448 -0.6993
  209MOL0     H28159   1.981   4.235   7.760  1.6732 -0.5046  2.8478
  209MOL0     H28160   1.783   4.112   7.696  0.0298 -0.4293 -0.1800
  209MOL0     H28161   1.842   3.960   7.766  0.1329 -0.3766  0.5630
  209MOL0     H28162   1.804   4.193   7.947 -0.4008  0.5882 -0.4703
  209MOL0     H28163   1.682   4.064   7.905  0.2684 -0.3915 -0.5353
  209MOL0     H28164   1.774   4.049   8.110 -1.7045  0.5420 -2.0999
  209MOL0     H28165   1.944   4.040   8.052  0.4073 -1.6974  0.7048
  209MOL0     H28166   1.631   3.798   7.970  0.0907  3.8848  0.2210
  209MOL0     H28167   1.628   3.528   8.053 -0.2976  1.6478  0.6415
  209MOL0     H28168   1.673   3.503   7.884 -0.6156 -1.8870  0.5869
  209MOL0     H28169   1.854   3.419   8.126  2.7401 -0.1019 -0.5175
  209MOL0     H28170   1.870   3.376   7.955 -0.7210 -0.0143 -0.3833
  209MOL0     H28171   1.668   3.241   7.955  0.6427 -1.7573 -0.9415
  209MOL0     H28172   1.629   3.290   8.108 -0.9422 -1.7025 -1.5077
  209MOL0     H28173   1.745   3.049   8.094  1.6581 -1.1068 -1.7028
  209MOL0     H28174   1.821   3.187   8.205  2.1391  2.2196 -1.3604
  209MOL0     H28175   1.977   3.059   8.280 -3.1025  0.0489 -2.8798
  209MOL0     H28176   2.089   2.939   8.445 -0.6414 -0.8378 -0.1028
  209MOL0     H28177   2.241   2.866   8.414  1.5189  2.2456  1.6393
  209MOL0     H28178   2.235   3.036   8.455 -0.9071  0.1169  0.1862
  209MOL0     H28179   2.743   3.003   8.147 -0.1201 -0.2012 -0.5695
  209MOL0     H28180   2.932   2.880   8.228 -1.7689  1.8160 -0.6496
  209MOL0     H28181   2.940   2.413   8.214  1.0074 -0.6783 -0.7248
  209MOL0     H28182   2.978   2.469   8.056  0.7004 -1.3369  0.0850
  209MOL0     H28183   3.164   2.449   8.295  2.4585 -1.8465 -0.0149
  209MOL0     H28184   3.159   2.334   8.160  3.3970  1.1973 -0.4475
  209MOL0     H28185   3.228   2.627   8.119 -1.0065  0.2358 -3.4468
  209MOL0     H28186   3.235   2.496   8.007  4.7853  1.7860 -0.8578
  209MOL0     H28187   3.389   2.550   8.277 -1.5226 -0.2670  0.5161
  209MOL0     H28188   3.409   2.395   8.183  1.2596  0.7946 -1.9637
  209MOL0     H28189   3.491   2.505   7.987  0.4925 -1.4761  1.3044
  209MOL0     H28190   3.595   2.528   8.115  0.2458 -2.6644  1.5995
  209MOL0     H28191   3.374   2.716   8.013 -0.2744 -1.2760  1.1207
  209MOL0     H28192   3.440   2.747   8.176 -0.6551  1.4660 -0.0744
  209MOL0     H28193   3.522   2.890   7.994  0.6649  0.3790  1.4836
  209MOL0     H28194   3.605   2.741   7.927  1.2791  0.6592  0.2801
  209MOL0     H28195   3.784   2.850   8.064 -0.2766 -1.5410 -1.2165
  209MOL0     H28196   3.714   2.740   8.174 -1.7941 -0.2893  1.0512
  209MOL0     H28197   2.736   2.515   8.119  3.9651 -1.1775  0.9437
  209MOL0     H28198   2.538   2.638   8.057  0.5525 -2.0197 -0.8402
  209MOL0     H28199   2.354   3.043   7.955  2.2801  0.3969  2.4374
  209MOL0     H28200   2.147   3.141   7.887  1.8310  1.9395  1.1432
  209MOL0     H28201   2.681   3.924   7.754 -0.7269  0.9130  0.9596
  209MOL0     H28202   2.908   3.881   7.739 -1.9652  1.4180  1.7157
  209MOL0     H28203   3.287   3.822   7.447 -0.0788  0.3306  0.0303
  209MOL0     H28204   3.505   3.713   7.470 -1.2136 -1.2826 -0.0602
  209MOL0     H28205   3.660   3.603   7.533  0.1856  2.0169  0.4292
  209MOL0     H28206   3.794   3.714   7.521 -0.8127 -1.2395 -2.1557
  209MOL0     H28207   3.835   3.478   7.600  0.1691 -0.3659 -1.1773
  209MOL0     H28208   3.743   3.504   7.749 -1.2035 -0.0607 -1.3529
  209MOL0     H28209   3.954   3.542   7.817 -1.0313 -0.5532 -0.7010
  209MOL0     H28210   3.900   3.710   7.799 -1.5513 -0.0727  1.7116
  209MOL0     H28211   4.006   3.702   7.572 -1.4816 -1.5471 -0.2077
  209MOL0     H28212   4.078   3.550   7.619  0.6480 -2.0916  3.9994
  209MOL0     H28213   4.341   3.797   7.821  2.2633 -0.9411 -3.8424
  209MOL0     H28214   3.563   3.911   7.840 -0.9082 -1.5315  2.0133
  209MOL0     H28215   3.348   4.033   7.817  0.4474  0.8348  0.0689
  210MOL0     O28216  10.279   9.783   3.065 -0.1713 -1.0002 -0.1121
  210MOL0     C28217  10.290   9.853   3.164 -0.0064 -0.9399  0.1798
  210MOL0     O28218  10.181   9.912   3.228  0.4951 -0.4988 -0.0987
  210MOL0     C28219  10.059   9.900   3.172 -0.0740 -0.4541  0.7385
  210MOL0     C28220  10.022   9.909   3.040  0.0787 -0.3470  0.2284
  210MOL0     C28221   9.889   9.908   3.000 -0.2958 -0.2482  0.6615
  210MOL0     C28222   9.786   9.896   3.097  0.6038  0.1120 -0.3081
  210MOL0     O28223   9.651   9.881   3.071  0.0317 -0.6894  0.1213
  210MOL0     C28224   9.600   9.859   2.938 -0.2385 -0.4870 -0.1681
  210MOL0     C28225   9.611   9.716   2.891  0.0806  0.3179 -0.1337
  210MOL0     C28226   9.469   9.648   2.880  1.2387  0.4028  1.3389
  210MOL0     C28227   9.447   9.581   2.741  0.2496  0.0431  0.1096
  210MOL0     C28228   9.303   9.529   2.724 -0.9017  0.2683 -0.0165
  210MOL0     C28229   9.298   9.386   2.776 -0.2056 -0.7527 -0.7569
  210MOL0     C28230   9.157   9.325   2.771 -0.9701  0.8760 -0.1075
  210MOL0     C28231   9.112   9.287   2.627  0.1133  1.0336  0.0277
  210MOL0     N28232   8.966   9.244   2.629 -0.0191 -0.0135  0.4892
  210MOL0     C28233   8.887   9.293   2.532  0.0677 -0.7876 -0.8668
  210MOL0     C28234   8.760   9.296   2.586 -0.6734  0.2296  0.5506
  210MOL0     C28235   8.642   9.341   2.509 -0.1843 -0.7808 -0.1565
  210MOL0     C28236   8.514   9.338   2.592 -0.1628  0.0833 -0.6945
  210MOL0     C28237   8.436   9.218   2.557  0.4201 -0.5010  0.0910
  210MOL0     C28238   8.306   9.197   2.632 -0.9132  0.3212  0.5599
  210MOL0     O28239   8.230   9.317   2.652  0.1879 -0.1786  0.2190
  210MOL0     C28240   8.113   9.323   2.580 -0.1618  0.2054  0.0362
  210MOL0     C28241   8.104   9.298   2.438  0.0745  0.8956  0.0821
  210MOL0     C28242   7.985   9.310   2.363  0.2525  0.2004 -0.2586
  210MOL0     C28243   7.986   9.286   2.207 -0.3917 -0.9296 -0.4940
  210MOL0     C28244   7.869   9.348   2.435  0.5205 -0.1203  0.0927
  210MOL0     C28245   7.738   9.377   2.377  0.1516 -0.1938 -0.5127
  210MOL0     O28246   7.637   9.385   2.466 -0.3327 -0.6632 -0.1602
  210MOL0     C28247   7.516   9.426   2.416 -0.4074 -0.7573 -0.6327
  210MOL0     C28248   7.414   9.341   2.369 -0.5541  0.1276  0.0106
  210MOL0     C28249   7.293   9.398   2.312 -0.0206  0.1405  0.5822
  210MOL0     C28250   7.282   9.543   2.309  0.7596  0.6060 -0.1523
  210MOL0     O28251   7.163   9.589   2.257 -1.4340 -0.2140 -0.6144
  210MOL0     C28252   7.125   9.719   2.299 -0.0164  0.1197 -0.2705
  210MOL0     C28253   6.978   9.725   2.268 -0.7110  0.6302 -0.6491
  210MOL0     C28254   6.928   9.860   2.243  0.8126 -0.1992 -0.8181
  210MOL0     C28255   6.773   9.861   2.251 -0.3808  0.7580 -0.3355
  210MOL0     C28256   6.728  10.003   2.275  0.7662 -0.2038 -0.4802
  210MOL0     C28257   6.578  10.000   2.297 -0.5577 -0.2855  0.1710
  210MOL0     C28258   6.504  10.110   2.210  0.5240 -0.0342  0.9304
  210MOL0     C28259   6.355  10.088   2.197  0.2460  0.2973  0.5593
  210MOL0    Cl28260   6.276  10.053   2.353 -0.2977 -0.3850 -0.0348
  210MOL0     C28261   7.384   9.626   2.354  0.3485  0.1125 -0.0704
  210MOL0     C28262   7.494   9.564   2.413 -0.1009  0.2918  0.3515
  210MOL0     O28263   7.729   9.403   2.256  0.3184  1.3927  0.1235
  210MOL0     C28264   7.880   9.359   2.572 -0.3888 -0.7673 -0.3111
  210MOL0     C28265   7.998   9.353   2.642  0.0420 -0.2392  0.2274
  210MOL0     N28266   8.763   9.210   2.691 -0.1135  0.4287  0.2188
  210MOL0     N28267   8.888   9.177   2.718  0.1710  0.2176  0.5776
  210MOL0     C28268   9.828   9.872   3.226  0.5990 -0.4043  0.1058
  210MOL0     C28269   9.960   9.876   3.266  0.0824 -0.8259  0.3049
  210MOL0     C28270  10.422   9.887   3.217  0.5832 -0.5082 -0.0111
  210MOL0     C28271  10.443   9.925   3.360 -0.4820 -0.2607 -0.4834
  210MOL0     C28272  10.573   9.947   3.399  0.8123  0.0590 -0.8867
  210MOL0     C28273  10.688   9.931   3.323  0.7060  0.3358  0.2314
  210MOL0     O28274  10.811   9.967   3.385 -0.2424  0.1708  0.6253
  210MOL0     C28275  10.927   9.985   3.299 -1.2348  0.7228  0.3797
  210MOL0     C28276  11.052  10.035   3.371  0.2416 -0.1355 -0.1131
  210MOL0     C28277  11.123   9.934   3.455 -0.0979 -0.0133 -0.7212
  210MOL0     C28278  11.210   9.850   3.367  0.1615 -0.1022 -0.2249
  210MOL0     C28279  11.280   9.747   3.453  0.1986 -0.6656  0.2370
  210MOL0     C28280  11.350   9.676   3.517 -0.2209  0.3101 -0.0047
  210MOL0     C28281  10.664   9.888   3.191 -0.9332  0.7256 -0.1441
  210MOL0     C28282  10.540   9.869   3.142  0.4415 -0.0573  0.2582
  210MOL0     H28283  10.093   9.926   2.960  0.7925  1.1052  1.1154
  210MOL0     H28284   9.876   9.896   2.893  1.8622 -0.2484  0.3597
  210MOL0     H28285   9.499   9.894   2.960 -0.1484 -1.6004  2.3319
  210MOL0     H28286   9.655   9.918   2.863 -3.8624  2.1093 -1.0370
  210MOL0     H28287   9.656   9.709   2.792 -2.2789  1.5685 -1.3664
  210MOL0     H28288   9.680   9.655   2.950  4.9876  3.9921 -1.3580
  210MOL0     H28289   9.448   9.585   2.967 -2.3923  0.0556  0.3869
  210MOL0     H28290   9.383   9.715   2.896 -1.5085 -2.4333 -0.3709
  210MOL0     H28291   9.475   9.644   2.656 -1.3469 -1.8308 -1.9265
  210MOL0     H28292   9.514   9.495   2.737 -0.7159 -0.7206  0.1943
  210MOL0     H28293   9.236   9.585   2.789 -1.1821  0.6163 -0.5968
  210MOL0     H28294   9.272   9.549   2.621 -1.0066  2.5946  0.4220
  210MOL0     H28295   9.365   9.325   2.714  1.0756 -0.6880  0.5022
  210MOL0     H28296   9.321   9.394   2.883 -2.1895  0.2976 -0.3578
  210MOL0     H28297   9.166   9.236   2.834 -0.5290  1.3532  0.5143
  210MOL0     H28298   9.081   9.390   2.816 -0.9447  0.2362  0.8966
  210MOL0     H28299   9.164   9.195   2.599 -0.2901 -0.1555  2.8042
  210MOL0     H28300   9.138   9.369   2.560 -0.6800  0.8588 -0.5120
  210MOL0     H28301   8.919   9.340   2.440  2.7483  0.9545  0.8237
  210MOL0     H28302   8.662   9.445   2.483 -3.2299  0.3786  1.5936
  210MOL0     H28303   8.627   9.275   2.423  0.1860  0.3880 -1.1358
  210MOL0     H28304   8.457   9.427   2.566 -1.4517 -0.3727  0.4991
  210MOL0     H28305   8.530   9.347   2.700 -1.0583  0.3199 -0.5784
  210MOL0     H28306   8.501   9.130   2.561 -0.8606 -1.5484 -1.3001
  210MOL0     H28307   8.416   9.228   2.450  0.6147 -0.2347  0.0796
  210MOL0     H28308   8.337   9.155   2.728  1.4721 -0.7823 -0.5832
  210MOL0     H28309   8.258   9.113   2.580  2.2002 -1.8604  0.8845
  210MOL0     H28310   8.197   9.271   2.388 -0.5471  0.3187 -0.7937
  210MOL0     H28311   7.979   9.374   2.142 -0.1357 -0.7431 -0.2715
  210MOL0     H28312   8.074   9.226   2.182  0.2730 -0.3463  0.3949
  210MOL0     H28313   7.898   9.222   2.197 -2.0170  0.8021  1.7786
  210MOL0     H28314   7.411   9.232   2.368 -1.0790  0.0877 -2.4908
  210MOL0     H28315   7.215   9.327   2.285  1.6609 -0.7155 -2.4888
  210MOL0     H28316   7.146   9.752   2.401 -1.0344 -1.2388  0.4094
  210MOL0     H28317   7.178   9.781   2.226 -0.2305  0.1801 -0.3775
  210MOL0     H28318   6.965   9.655   2.186 -1.3812  0.0749 -0.0751
  210MOL0     H28319   6.935   9.681   2.358  1.9381  0.1962  0.5085
  210MOL0     H28320   6.942   9.895   2.140  1.3903  1.0288 -0.3367
  210MOL0     H28321   6.970   9.929   2.316 -1.2833 -0.2139  0.4929
  210MOL0     H28322   6.722   9.809   2.170 -0.1853 -0.6398  0.4092
  210MOL0     H28323   6.756   9.811   2.347 -1.8484 -1.0504 -1.4880
  210MOL0     H28324   6.752  10.060   2.184  4.1260  1.2519  1.1538
  210MOL0     H28325   6.770  10.058   2.359 -2.2953  0.9494  0.4282
  210MOL0     H28326   6.532   9.902   2.280  0.6545 -0.6378 -1.3276
  210MOL0     H28327   6.565  10.031   2.401 -3.5814  0.0183 -0.1987
  210MOL0     H28328   6.539  10.110   2.106  1.4690  4.2407  1.0895
  210MOL0     H28329   6.522  10.209   2.252 -0.0890  0.7415 -0.5386
  210MOL0     H28330   6.340   9.998   2.136 -2.4874  0.0205  1.5058
  210MOL0     H28331   6.308  10.178   2.156 -1.1458  0.7900  3.0269
  210MOL0     H28332   7.389   9.733   2.336 -2.2400  0.1889 -0.8096
  210MOL0     H28333   7.567   9.631   2.457 -0.5588 -0.7885  2.9468
  210MOL0     H28334   7.787   9.382   2.624 -1.6852  0.4852 -3.0081
  210MOL0     H28335   8.001   9.374   2.748 -1.7269  1.2205  0.0395
  210MOL0     H28336   9.746   9.865   3.297  0.9564  3.6954  1.1739
  210MOL0     H28337   9.977   9.876   3.373 -0.8899  2.3942  0.5803
  210MOL0     H28338  10.365   9.939   3.435  0.8513  0.8814  0.7445
  210MOL0     H28339  10.595   9.974   3.502 -0.2122 -0.2571 -0.5749
  210MOL0     H28340  10.961   9.900   3.239  0.3743  0.4436  1.6170
  210MOL0     H28341  10.899  10.051   3.216 -0.5145  0.8867  0.2637
  210MOL0     H28342  11.022  10.120   3.432 -0.1302  1.3816 -2.2944
  210MOL0     H28343  11.124  10.076   3.299  1.1356 -2.9365 -0.9182
  210MOL0     H28344  11.047   9.870   3.503  0.9714  0.8692  2.3747
  210MOL0     H28345  11.183   9.968   3.540  1.9153 -0.7990 -1.7634
  210MOL0     H28346  11.293   9.909   3.328  1.7394 -2.3628 -0.5033
  210MOL0     H28347  11.153   9.798   3.290 -1.0579  0.5755  0.1938
  210MOL0     H28348  11.391   9.612   3.593 -2.7250 -1.8621 -0.3530
  210MOL0     H28349  10.744   9.867   3.120 -0.1950  1.0630  0.5720
  210MOL0     H28350  10.525   9.851   3.036 -2.1687 -1.9404  0.8248
  211MOL0     O28351   3.225   9.377   0.194 -0.3726  0.1096 -0.0707
  211MOL0     C28352   3.345   9.390   0.201 -0.0460  0.0054  0.0473
  211MOL0     O28353   3.421   9.329   0.293 -0.4430 -0.1123 -0.4314
  211MOL0     C28354   3.364   9.244   0.389 -0.0136  0.1088 -0.3454
  211MOL0     C28355   3.414   9.111   0.399  0.3185  0.8034  0.1084
  211MOL0     C28356   3.379   9.022   0.494 -0.8374 -0.3114 -0.3902
  211MOL0     C28357   3.287   9.070   0.592  0.4174  0.4371  1.2997
  211MOL0     O28358   3.252   8.973   0.687 -0.0019  0.3411  0.0676
  211MOL0     C28359   3.132   8.998   0.761 -0.3435  0.2162 -0.0208
  211MOL0     C28360   3.092   8.852   0.817 -0.9946  1.0305  0.1782
  211MOL0     C28361   2.974   8.857   0.916 -0.1005 -0.1640 -0.3779
  211MOL0     C28362   2.896   8.724   0.940 -1.3022  0.3152  1.4342
  211MOL0     C28363   2.769   8.740   1.013  0.2438  0.0014 -0.7379
  211MOL0     C28364   2.789   8.775   1.161 -0.7356 -0.0668  0.3635
  211MOL0     C28365   2.659   8.774   1.231  0.0502  0.0571 -0.3373
  211MOL0     C28366   2.668   8.821   1.376 -0.3440  0.5296 -0.7295
  211MOL0     N28367   2.533   8.840   1.437  0.1229 -0.0792 -0.3483
  211MOL0     C28368   2.470   8.965   1.445 -1.2622  0.5363 -0.0250
  211MOL0     C28369   2.361   8.945   1.519  0.2607  0.5306 -0.5838
  211MOL0     C28370   2.248   9.047   1.566 -0.0660 -1.1697  0.3688
  211MOL0     C28371   2.096   8.995   1.551 -0.2460  0.1879  1.2243
  211MOL0     C28372   2.000   9.073   1.636  0.1048 -0.9002  0.3277
  211MOL0     C28373   1.865   9.020   1.625 -0.1149 -0.5042  0.1691
  211MOL0     O28374   1.778   9.095   1.703  0.5074 -0.1665  0.1095
  211MOL0     C28375   1.647   9.091   1.674  0.0759 -1.2358  0.3728
  211MOL0     C28376   1.578   9.019   1.575  0.0673 -0.0986 -0.3621
  211MOL0     C28377   1.440   9.043   1.545 -0.0348  0.1723 -0.6192
  211MOL0     C28378   1.398   8.958   1.431 -0.6825  0.0380 -0.4709
  211MOL0     C28379   1.359   9.118   1.640 -0.2597  0.6780 -0.7460
  211MOL0     C28380   1.213   9.085   1.658 -0.4215 -0.4162  0.3166
  211MOL0     O28381   1.145   9.141   1.754 -0.2219  0.0657  0.2071
  211MOL0     C28382   1.014   9.118   1.778 -0.0512 -0.4784  0.3132
  211MOL0     C28383   0.921   9.207   1.719 -0.7969  0.7895  0.0811
  211MOL0     C28384   0.783   9.198   1.753 -0.9227  0.2941  0.6503
  211MOL0     C28385   0.743   9.105   1.847 -0.1969 -0.7411  0.2912
  211MOL0     O28386   0.617   9.107   1.896  0.0586  0.3183 -0.0917
  211MOL0     C28387   0.537   8.990   1.873  0.1483  0.6870  0.4674
  211MOL0     C28388   0.385   9.023   1.865 -0.1961 -0.9270 -0.1200
  211MOL0     C28389   0.326   9.060   2.001  0.2717 -0.1755 -0.4312
  211MOL0     C28390   0.183   9.124   1.992 -1.0634  0.2862 -0.6108
  211MOL0     C28391   0.126   9.154   2.128  0.2368 -0.0380  0.1681
  211MOL0     C28392  -0.016   9.202   2.117  0.0325  1.0073 -0.0976
  211MOL0     C28393  -0.040   9.321   2.032  0.0261  0.5345  0.8597
  211MOL0     C28394  -0.179   9.363   2.009  0.0310 -0.9283 -0.1781
  211MOL0    Cl28395  -0.287   9.241   1.961  0.3204  0.1621 -0.1717
  211MOL0     C28396   0.829   9.005   1.895 -0.3198  0.7043  0.2403
  211MOL0     C28397   0.967   9.022   1.870 -0.0779  0.4916  0.7377
  211MOL0     O28398   1.158   9.016   1.571 -0.0958  0.3422 -0.2703
  211MOL0     C28399   1.432   9.204   1.727  0.4109 -0.2948  0.6435
  211MOL0     C28400   1.572   9.203   1.737  0.0104  0.7975 -0.0528
  211MOL0     N28401   2.361   8.816   1.565  0.7328  0.0023 -0.8578
  211MOL0     N28402   2.467   8.755   1.519  0.2543 -0.1565 -0.2991
  211MOL0     C28403   3.232   9.196   0.580 -0.3041 -0.5657  0.4947
  211MOL0     C28404   3.266   9.284   0.480  0.2472  0.8846 -0.1730
  211MOL0     C28405   3.420   9.455   0.096 -0.0599 -0.0291  0.6770
  211MOL0     C28406   3.554   9.484   0.112  0.1122  0.1072 -0.5456
  211MOL0     C28407   3.629   9.566   0.027  0.0835  0.2554  0.5393
  211MOL0     C28408   3.572   9.609  -0.091  0.7235 -0.5143 -0.1868
  211MOL0     O28409   3.659   9.667  -0.183  0.3323 -0.0367 -0.2044
  211MOL0     C28410   3.601   9.721  -0.303 -0.0501  0.5709  0.5940
  211MOL0     C28411   3.709   9.780  -0.391 -0.8718  1.0307 -0.4890
  211MOL0     C28412   3.643   9.854  -0.516 -0.0678 -0.0271 -0.2202
  211MOL0     C28413   3.758   9.922  -0.593  0.3677  0.2062 -0.6862
  211MOL0     C28414   3.696   9.962  -0.721  0.0829  0.4803  0.0217
  211MOL0     C28415   3.650   9.995  -0.827 -0.2856  0.2307 -0.4849
  211MOL0     C28416   3.435   9.585  -0.110  0.4334  0.0586  0.9408
  211MOL0     C28417   3.363   9.510  -0.016  0.1841 -0.0735 -0.0631
  211MOL0     H28418   3.496   9.080   0.335  0.1121 -1.8823  1.0394
  211MOL0     H28419   3.424   8.925   0.510 -1.1801 -0.4826 -0.4424
  211MOL0     H28420   3.138   9.074   0.839  1.0756  0.9087 -0.7514
  211MOL0     H28421   3.054   9.029   0.691 -1.1863  0.0576  0.8328
  211MOL0     H28422   3.069   8.775   0.743 -3.0017  2.0065 -0.2891
  211MOL0     H28423   3.171   8.809   0.879  0.2802 -1.9967 -3.2351
  211MOL0     H28424   2.998   8.896   1.015 -3.2494 -0.1670  0.4716
  211MOL0     H28425   2.906   8.929   0.870  1.6935  2.4896  0.8120
  211MOL0     H28426   2.871   8.684   0.841 -1.8724 -0.8710  2.0315
  211MOL0     H28427   2.963   8.646   0.979  1.7214  0.2207 -3.1610
  211MOL0     H28428   2.703   8.820   0.976  0.9306  0.8997 -0.0762
  211MOL0     H28429   2.734   8.637   1.011 -0.9222  0.3621 -0.1503
  211MOL0     H28430   2.850   8.695   1.205 -1.4757 -3.2414 -3.6818
  211MOL0     H28431   2.848   8.867   1.165  0.3829 -0.8040  1.6141
  211MOL0     H28432   2.591   8.849   1.190 -2.7604 -2.2323 -0.2298
  211MOL0     H28433   2.612   8.675   1.222  2.5447 -1.0280 -4.1283
  211MOL0     H28434   2.720   8.917   1.387 -1.4276  0.8514  2.9310
  211MOL0     H28435   2.728   8.750   1.434 -2.3309  0.2150  1.0329
  211MOL0     H28436   2.508   9.057   1.401 -0.8840 -0.1224 -1.0966
  211MOL0     H28437   2.257   9.055   1.675  1.2030 -1.9769  0.3506
  211MOL0     H28438   2.279   9.137   1.513  2.3329 -2.8737 -1.3439
  211MOL0     H28439   2.100   8.889   1.579  2.0608 -0.0267  0.3447
  211MOL0     H28440   2.068   8.990   1.445  4.0056 -3.4169 -0.0892
  211MOL0     H28441   2.002   9.180   1.615  0.9428 -1.0054 -0.1979
  211MOL0     H28442   2.033   9.061   1.740  0.2392 -0.1579  0.3771
  211MOL0     H28443   1.872   8.921   1.671 -0.8512 -1.4422 -1.6681
  211MOL0     H28444   1.838   9.012   1.520 -1.3962 -0.6143  0.4896
  211MOL0     H28445   1.637   8.952   1.513  1.9819  1.3902 -0.2454
  211MOL0     H28446   1.475   8.960   1.354 -2.2181 -0.9473 -2.1212
  211MOL0     H28447   1.388   8.855   1.464 -0.5552  0.6122  1.4776
  211MOL0     H28448   1.302   8.991   1.389 -0.8623 -0.2854 -0.3185
  211MOL0     H28449   0.965   9.286   1.658  0.2429  1.7805  2.0151
  211MOL0     H28450   0.712   9.276   1.726 -2.0466 -1.0115 -0.2903
  211MOL0     H28451   0.566   8.942   1.780 -0.1793  0.5839  0.4169
  211MOL0     H28452   0.560   8.923   1.956  0.0413  0.7303  0.5332
  211MOL0     H28453   0.365   9.099   1.788 -0.7763 -2.3888 -1.4603
  211MOL0     H28454   0.331   8.935   1.828 -2.5208 -0.7756  2.6298
  211MOL0     H28455   0.395   9.125   2.055  1.3828 -0.5126 -1.4081
  211MOL0     H28456   0.309   8.973   2.065 -1.9828  0.4340 -0.1188
  211MOL0     H28457   0.188   9.222   1.945 -1.6978  1.9865  2.5566
  211MOL0     H28458   0.123   9.056   1.930 -1.3619 -0.1899  0.1715
  211MOL0     H28459   0.195   9.224   2.177  0.9125  0.5015 -1.4643
  211MOL0     H28460   0.118   9.055   2.173 -1.9477 -0.4613 -1.0258
  211MOL0     H28461  -0.077   9.123   2.073  0.1144  0.6520  0.4259
  211MOL0     H28462  -0.057   9.212   2.218  2.0074  0.0765  0.8389
  211MOL0     H28463   0.008   9.313   1.934  0.3131  1.5133  0.9126
  211MOL0     H28464   0.007   9.408   2.078 -0.1328 -0.4527  3.0091
  211MOL0     H28465  -0.171   9.450   1.942  0.3439 -0.1920  0.7889
  211MOL0     H28466  -0.219   9.409   2.100 -1.3786 -0.5344 -0.9582
  211MOL0     H28467   0.798   8.923   1.959 -3.2689  0.2200 -1.6417
  211MOL0     H28468   1.039   8.951   1.913  1.0017  1.0715 -0.0632
  211MOL0     H28469   1.384   9.267   1.801 -1.7332 -2.8343  1.6071
  211MOL0     H28470   1.621   9.270   1.807  0.7675  0.0990  0.0940
  211MOL0     H28471   3.169   9.236   0.659 -0.9871 -0.8694  0.1157
  211MOL0     H28472   3.230   9.385   0.495 -0.9289  0.7267 -1.7381
  211MOL0     H28473   3.604   9.466   0.207  1.7020 -1.0114 -1.5357
  211MOL0     H28474   3.737   9.582   0.033  0.0813  1.3594 -1.4439
  211MOL0     H28475   3.540   9.644  -0.351  0.5350 -1.2856  2.6389
  211MOL0     H28476   3.528   9.798  -0.276 -2.9406 -0.9214 -2.3426
  211MOL0     H28477   3.773   9.697  -0.422 -2.8735  0.1825 -2.6787
  211MOL0     H28478   3.758   9.859  -0.334 -3.9911  2.3483  0.6234
  211MOL0     H28479   3.562   9.923  -0.491  0.0754  0.8276 -1.9961
  211MOL0     H28480   3.587   9.781  -0.575 -1.8441 -0.1475  1.4919
  211MOL0     H28481   3.837   9.851  -0.617  1.2122  1.8322 -3.0593
  211MOL0     H28482   3.802  10.006  -0.539 -3.1708  1.3564  0.7469
  211MOL0     H28483   3.614  10.022  -0.924  0.6265 -0.4471 -1.0212
  211MOL0     H28484   3.388   9.617  -0.203  2.0527 -2.3259 -0.8194
  211MOL0     H28485   3.257   9.502  -0.040  0.1230 -0.9074  0.4304
  212MOL0     O28486   0.309   8.114   3.954  0.3296  0.0246 -0.0327
  212MOL0     C28487   0.330   8.002   4.007 -0.0105  0.7879  1.0558
  212MOL0     O28488   0.225   7.916   4.027 -0.6784  0.1134  0.3240
  212MOL0     C28489   0.094   7.968   4.035 -0.1801  0.0818 -1.0460
  212MOL0     C28490  -0.009   7.880   3.983  0.2088 -0.8122 -0.8358
  212MOL0     C28491  -0.145   7.918   3.976 -0.4016 -0.9539 -0.1265
  212MOL0     C28492  -0.171   8.054   4.012  0.3180 -0.4158 -0.4801
  212MOL0     O28493  -0.292   8.114   4.008  0.7858 -0.2188 -0.4495
  212MOL0     C28494  -0.394   8.061   3.919  0.4821 -0.7015  0.5142
  212MOL0     C28495  -0.510   7.975   3.976 -0.4068  0.5726  0.8373
  212MOL0     C28496  -0.598   7.910   3.879  0.9585 -0.3585  0.0103
  212MOL0     C28497  -0.672   8.000   3.783  0.1680 -1.3551 -0.1096
  212MOL0     C28498  -0.768   8.106   3.838 -0.4117  0.6011  0.2710
  212MOL0     C28499  -0.818   8.200   3.731  0.4830 -0.2352  0.1820
  212MOL0     C28500  -0.842   8.347   3.770 -0.5553 -0.8437 -0.9211
  212MOL0     C28501  -0.713   8.429   3.796  0.0200  0.4653 -0.5236
  212MOL0     N28502  -0.736   8.549   3.882  0.5756  0.1729  0.2554
  212MOL0     C28503  -0.829   8.555   3.983 -0.3170  0.7120 -0.6342
  212MOL0     C28504  -0.834   8.687   4.004  0.8552 -0.1251  0.0775
  212MOL0     C28505  -0.919   8.744   4.116  0.1133 -0.2905  0.0672
  212MOL0     C28506  -1.051   8.791   4.064 -0.4820 -0.0549 -0.4481
  212MOL0     C28507  -1.144   8.691   4.010 -0.6192 -0.8798  0.3243
  212MOL0     C28508  -1.272   8.759   3.966  0.1083  0.5781 -0.2869
  212MOL0     O28509  -1.380   8.741   4.062 -0.1639 -0.1806  0.5650
  212MOL0     C28510  -1.508   8.747   4.014 -0.6411 -0.5486  0.7893
  212MOL0     C28511  -1.593   8.683   4.095  0.3279  0.8475 -0.1335
  212MOL0     C28512  -1.736   8.684   4.065  0.3508 -0.6184 -0.7002
  212MOL0     C28513  -1.828   8.626   4.166 -0.0981  0.3484 -0.5414
  212MOL0     C28514  -1.784   8.745   3.949  0.3724 -0.2124  0.2286
  212MOL0     C28515  -1.925   8.731   3.902 -0.5328 -0.5434 -0.5018
  212MOL0     O28516  -1.983   8.844   3.854  0.6900 -0.0332 -0.2736
  212MOL0     C28517  -2.104   8.815   3.785 -0.4703 -0.3345 -0.3010
  212MOL0     C28518  -2.226   8.788   3.853 -0.5354  0.5801  0.6647
  212MOL0     C28519  -2.348   8.768   3.782 -0.5949  0.2842  0.1294
  212MOL0     C28520  -2.355   8.785   3.647  0.4107 -0.0757  0.2799
  212MOL0     O28521  -2.482   8.786   3.589  0.0843 -0.1673  0.2102
  212MOL0     C28522  -2.501   8.838   3.458  0.1147  0.4994 -0.4157
  212MOL0     C28523  -2.492   8.732   3.349  0.0401 -0.5344 -0.4306
  212MOL0     C28524  -2.603   8.626   3.373  0.0246  0.2206  0.1897
  212MOL0     C28525  -2.744   8.697   3.368 -0.8504  0.0972 -0.3193
  212MOL0     C28526  -2.841   8.597   3.328 -0.1382 -0.1750 -0.3306
  212MOL0     C28527  -2.980   8.658   3.325 -0.2508  0.9831  0.1222
  212MOL0     C28528  -3.098   8.566   3.287 -1.0624  0.0533  0.9270
  212MOL0     C28529  -3.157   8.493   3.416 -0.4378 -0.3906  0.2936
  212MOL0    Cl28530  -3.310   8.405   3.352  0.1085 -0.0449 -0.2535
  212MOL0     C28531  -2.239   8.831   3.583 -0.7280  0.3962  0.6970
  212MOL0     C28532  -2.111   8.842   3.647 -0.2313  0.2225  0.1780
  212MOL0     O28533  -1.973   8.619   3.905 -0.2175  0.4709 -0.3592
  212MOL0     C28534  -1.694   8.819   3.877 -0.0461 -0.6654  0.5168
  212MOL0     C28535  -1.558   8.823   3.910 -0.4373  0.2467 -0.7046
  212MOL0     N28536  -0.741   8.754   3.925 -0.2743  0.0351 -0.0650
  212MOL0     N28537  -0.699   8.667   3.840 -0.2874 -0.4458 -0.4303
  212MOL0     C28538  -0.077   8.138   4.058 -0.3305 -0.1440 -0.4629
  212MOL0     C28539   0.053   8.094   4.077  0.0369  0.0664 -0.1062
  212MOL0     C28540   0.464   7.947   4.010 -0.6444  0.0475 -0.2455
  212MOL0     C28541   0.497   7.826   4.089  0.0323 -0.1856  0.7792
  212MOL0     C28542   0.626   7.771   4.072  0.3196  0.0734 -0.0221
  212MOL0     C28543   0.729   7.842   4.001 -0.3096  0.4897 -0.0310
  212MOL0     O28544   0.849   7.770   3.995 -0.1956 -0.5227 -0.8961
  212MOL0     C28545   0.934   7.786   3.879 -0.7733 -0.2751  0.4992
  212MOL0     C28546   1.007   7.657   3.856 -0.5906 -0.5752 -0.0464
  212MOL0     C28547   1.096   7.623   3.980 -0.3464 -0.2747  0.1942
  212MOL0     C28548   1.219   7.715   4.008 -0.3831 -0.2377  0.2802
  212MOL0     C28549   1.331   7.686   3.903 -0.1680 -0.0998 -0.1846
  212MOL0     C28550   1.413   7.650   3.818  0.0807  0.5355 -1.3827
  212MOL0     C28551   0.698   7.962   3.935 -0.0196  0.6441 -0.0362
  212MOL0     C28552   0.567   8.021   3.950 -0.7344  0.1918  0.4278
  212MOL0     H28553   0.029   7.788   3.938 -1.3608 -2.3091  0.7487
  212MOL0     H28554  -0.228   7.856   3.944 -0.8842  1.0045 -3.0271
  212MOL0     H28555  -0.449   8.143   3.872 -1.7774 -3.2652 -1.6494
  212MOL0     H28556  -0.353   8.017   3.827 -2.8738 -0.3157 -1.3350
  212MOL0     H28557  -0.473   7.888   4.031 -1.7927 -0.1689  0.6426
  212MOL0     H28558  -0.571   8.038   4.041 -1.0307  0.2112  0.6094
  212MOL0     H28559  -0.548   7.840   3.811 -2.1770 -0.7998 -2.0742
  212MOL0     H28560  -0.669   7.851   3.938  0.4244  1.6214  1.4476
  212MOL0     H28561  -0.597   8.037   3.712  1.2370 -0.7329  1.3042
  212MOL0     H28562  -0.737   7.946   3.714  1.0851 -3.3085  0.4860
  212MOL0     H28563  -0.857   8.060   3.881 -1.0948 -0.0466 -1.7503
  212MOL0     H28564  -0.713   8.155   3.919 -0.9114 -0.8060  1.5068
  212MOL0     H28565  -0.743   8.203   3.651 -0.0079 -0.2882 -0.2890
  212MOL0     H28566  -0.904   8.146   3.691  0.2550 -1.2260  1.9044
  212MOL0     H28567  -0.911   8.406   3.708  0.0252  1.0044  0.1153
  212MOL0     H28568  -0.886   8.332   3.868  2.9900 -1.5265  0.7085
  212MOL0     H28569  -0.665   8.474   3.709  1.5356 -0.6612 -0.3178
  212MOL0     H28570  -0.639   8.363   3.842 -1.0056 -0.3210  0.0658
  212MOL0     H28571  -0.904   8.481   4.011  0.9183 -0.3444 -0.0376
  212MOL0     H28572  -0.935   8.670   4.195  0.2329 -0.2551  0.1251
  212MOL0     H28573  -0.879   8.830   4.170  0.0956 -0.8142  0.9406
  212MOL0     H28574  -1.024   8.863   3.986  2.6927  1.0602  1.5160
  212MOL0     H28575  -1.100   8.854   4.139  2.1541 -1.0366  2.2400
  212MOL0     H28576  -1.168   8.610   4.081 -1.1778  0.7046  2.0131
  212MOL0     H28577  -1.103   8.649   3.918 -0.6358  0.0202 -0.0990
  212MOL0     H28578  -1.295   8.715   3.868  2.7954 -1.0417 -0.2854
  212MOL0     H28579  -1.262   8.865   3.942 -3.1471  0.6971 -1.7129
  212MOL0     H28580  -1.559   8.636   4.187 -0.6074  0.8415  0.2236
  212MOL0     H28581  -1.792   8.650   4.267  1.7915 -4.3701  0.1634
  212MOL0     H28582  -1.934   8.653   4.154 -1.4506 -3.2433  1.7725
  212MOL0     H28583  -1.818   8.518   4.159  0.1083  0.2939  0.4789
  212MOL0     H28584  -2.234   8.787   3.962 -2.3550 -2.3633  0.5998
  212MOL0     H28585  -2.429   8.734   3.846  0.5031 -1.1198  0.8391
  212MOL0     H28586  -2.603   8.878   3.456 -0.2295 -0.3887 -3.0444
  212MOL0     H28587  -2.440   8.928   3.444 -2.0819  2.4470  1.5973
  212MOL0     H28588  -2.504   8.785   3.254  1.8414  1.5837  0.4401
  212MOL0     H28589  -2.391   8.689   3.344  0.3325  0.1954 -1.0142
  212MOL0     H28590  -2.597   8.578   3.471 -1.8165  1.4955  0.9865
  212MOL0     H28591  -2.587   8.551   3.294  0.0855 -1.1557  1.4672
  212MOL0     H28592  -2.767   8.737   3.467  2.5131  2.6226 -0.3884
  212MOL0     H28593  -2.739   8.784   3.301 -1.3181  0.5798  0.2535
  212MOL0     H28594  -2.843   8.510   3.394  3.0074  0.6344  1.0291
  212MOL0     H28595  -2.812   8.558   3.230  1.0573 -2.1365  0.7327
  212MOL0     H28596  -3.000   8.705   3.422 -0.7115 -1.3987  1.2344
  212MOL0     H28597  -2.971   8.745   3.259  2.4988 -0.6794 -1.9228
  212MOL0     H28598  -3.066   8.490   3.215  1.6333 -0.4940  2.5573
  212MOL0     H28599  -3.182   8.623   3.247 -0.5760  0.9294  1.1193
  212MOL0     H28600  -3.181   8.553   3.503  2.9760  0.0811  1.0449
  212MOL0     H28601  -3.077   8.423   3.445  1.6182  1.4985 -0.5225
  212MOL0     H28602  -2.232   8.851   3.476 -2.8886 -0.0937  0.4140
  212MOL0     H28603  -2.024   8.878   3.593  0.6952 -1.6192  0.3721
  212MOL0     H28604  -1.733   8.880   3.796 -0.2449  0.8303  1.6998
  212MOL0     H28605  -1.489   8.874   3.844 -0.7206 -1.1340 -2.1245
  212MOL0     H28606  -0.108   8.235   4.095  2.5685  0.3074  0.9951
  212MOL0     H28607   0.117   8.168   4.125 -1.8287  0.8585  1.2660
  212MOL0     H28608   0.420   7.768   4.139 -2.5315  1.4570 -0.9880
  212MOL0     H28609   0.634   7.678   4.127 -1.6144 -0.2954 -0.2891
  212MOL0     H28610   0.875   7.806   3.789  1.4312 -1.2151 -1.2446
  212MOL0     H28611   1.004   7.869   3.889  0.3963 -1.1945  0.0406
  212MOL0     H28612   1.067   7.645   3.765  2.1069 -2.6859  1.8161
  212MOL0     H28613   0.924   7.586   3.851  0.5373 -2.0189  0.8539
  212MOL0     H28614   1.137   7.523   3.962 -3.1320 -1.5648  0.4745
  212MOL0     H28615   1.034   7.626   4.069 -0.7544  2.3813 -0.1099
  212MOL0     H28616   1.262   7.678   4.102  1.0780  3.4082  1.2106
  212MOL0     H28617   1.203   7.821   4.028  0.9859  0.1426 -0.5134
  212MOL0     H28618   1.488   7.627   3.745 -0.0280  0.0448 -1.3455
  212MOL0     H28619   0.764   8.009   3.863  0.7091 -2.0761 -1.2535
  212MOL0     H28620   0.546   8.115   3.898 -0.3102 -0.4629 -0.9914
  213MOL0     O28621   7.125   5.517   9.815 -0.4298  0.2731  1.0020
  213MOL0     C28622   7.179   5.611   9.875 -0.8072  0.6420  0.1239
  213MOL0     O28623   7.121   5.729   9.892 -0.4722 -0.6386  0.2116
  213MOL0     C28624   7.007   5.759   9.821  0.6620  0.3480 -0.3644
  213MOL0     C28625   6.892   5.749   9.895  0.5876 -0.2117  0.0161
  213MOL0     C28626   6.772   5.793   9.834 -0.2064  0.1372  0.5046
  213MOL0     C28627   6.779   5.852   9.710  0.4469  0.5103  0.8049
  213MOL0     O28628   6.655   5.879   9.653 -0.1624 -0.0077  0.0263
  213MOL0     C28629   6.648   5.976   9.546 -0.4228 -0.0158 -0.2714
  213MOL0     C28630   6.503   5.998   9.501 -0.2028 -0.0351 -0.2030
  213MOL0     C28631   6.402   6.013   9.619 -0.5552 -0.2614  0.0774
  213MOL0     C28632   6.265   6.053   9.573 -0.2171 -0.3722  0.0432
  213MOL0     C28633   6.153   6.032   9.677  0.5456 -0.0364 -0.1126
  213MOL0     C28634   6.020   5.973   9.619 -0.1300 -0.5221  0.0394
  213MOL0     C28635   5.916   5.979   9.732  0.2828 -0.1350  1.3650
  213MOL0     C28636   5.800   5.884   9.723  0.0708  0.2139 -0.2046
  213MOL0     N28637   5.689   5.948   9.664 -0.1618  0.0361  0.2619
  213MOL0     C28638   5.681   6.010   9.543 -0.5095 -0.4010 -0.2025
  213MOL0     C28639   5.566   6.079   9.544 -0.2925  0.4795 -0.1163
  213MOL0     C28640   5.492   6.156   9.438 -0.2967 -0.9269 -0.0033
  213MOL0     C28641   5.561   6.295   9.408  0.5195  0.6431 -0.3128
  213MOL0     C28642   5.456   6.386   9.333  0.5906  0.3359  1.5413
  213MOL0     C28643   5.356   6.465   9.412  0.6880 -0.3640  0.3009
  213MOL0     O28644   5.241   6.492   9.323  0.4263  0.3182 -0.1106
  213MOL0     C28645   5.130   6.558   9.366  0.5730 -0.5047  0.2000
  213MOL0     C28646   5.118   6.608   9.494 -0.1429  0.6539 -0.5613
  213MOL0     C28647   5.008   6.689   9.534 -0.9066 -1.0213 -1.4135
  213MOL0     C28648   5.005   6.731   9.680  0.4197 -0.4907  1.0413
  213MOL0     C28649   4.919   6.734   9.436  0.2415 -0.0917  0.7633
  213MOL0     C28650   4.811   6.845   9.446 -0.3851  0.3310  0.1816
  213MOL0     O28651   4.739   6.868   9.333  0.3947 -0.0283 -0.0859
  213MOL0     C28652   4.648   6.969   9.321  0.2599  0.3703  0.0436
  213MOL0     C28653   4.557   6.994   9.426 -0.3643 -0.3434 -0.7524
  213MOL0     C28654   4.453   7.092   9.404  0.2142 -0.2534 -0.2144
  213MOL0     C28655   4.450   7.181   9.291 -0.6760  0.0219  0.2813
  213MOL0     O28656   4.339   7.261   9.275 -0.2405  0.3754  0.7084
  213MOL0     C28657   4.372   7.400   9.234  0.2810  0.6531  0.4183
  213MOL0     C28658   4.256   7.497   9.248  0.2072 -0.0992  0.3192
  213MOL0     C28659   4.180   7.501   9.370  0.9044  0.3060  0.2026
  213MOL0     C28660   4.068   7.607   9.363 -0.0937 -0.0145 -0.5127
  213MOL0     C28661   3.993   7.604   9.493  0.0240 -0.0655 -0.1319
  213MOL0     C28662   3.852   7.684   9.480 -0.3720 -0.5626 -0.1100
  213MOL0     C28663   3.736   7.607   9.413  0.1671  0.2438  0.0387
  213MOL0     C28664   3.611   7.659   9.488  1.4182  0.7063 -0.0719
  213MOL0    Cl28665   3.463   7.573   9.452  0.2485  0.0110 -0.0701
  213MOL0     C28666   4.536   7.148   9.189  0.0291  0.1840 -0.8441
  213MOL0     C28667   4.631   7.038   9.198 -0.1760 -0.2760  0.3254
  213MOL0     O28668   4.808   6.905   9.550  0.2583  0.2678  0.4180
  213MOL0     C28669   4.934   6.683   9.308 -0.5076  0.3824 -0.0260
  213MOL0     C28670   5.032   6.589   9.274 -0.5721 -0.4952 -0.4232
  213MOL0     N28671   5.497   6.046   9.660 -1.1142  0.3845  0.2483
  213MOL0     N28672   5.571   5.962   9.728  0.4323  0.1148  1.0460
  213MOL0     C28673   6.895   5.854   9.634 -0.0097 -0.5147 -0.6151
  213MOL0     C28674   7.014   5.799   9.688  0.4695 -0.2003 -0.1672
  213MOL0     C28675   7.303   5.584   9.954  0.0437  0.6080  0.5916
  213MOL0     C28676   7.368   5.461   9.938  0.2624 -0.4065  0.4755
  213MOL0     C28677   7.484   5.433  10.019 -0.0310  0.2300 -0.0511
  213MOL0     C28678   7.538   5.529  10.106 -0.3262  0.2736  0.2647
  213MOL0     O28679   7.657   5.493  10.169 -0.3150 -0.0395 -0.7768
  213MOL0     C28680   7.709   5.569  10.288  0.3403 -0.4812  0.6800
  213MOL0     C28681   7.855   5.602  10.269  0.1542 -0.2110  0.4654
  213MOL0     C28682   7.929   5.675  10.382 -0.5482 -0.1333  0.0047
  213MOL0     C28683   8.069   5.734  10.339  0.2874  1.2902  0.8332
  213MOL0     C28684   8.141   5.777  10.459  0.0980  0.0205 -0.4976
  213MOL0     C28685   8.188   5.804  10.568 -0.7423  1.0190  0.0988
  213MOL0     C28686   7.487   5.656  10.102 -0.1630 -0.0203 -0.5387
  213MOL0     C28687   7.365   5.684  10.036 -0.2981  0.0747 -0.1542
  213MOL0     H28688   6.894   5.718   9.999 -0.8821  1.2133  0.4935
  213MOL0     H28689   6.682   5.772   9.891 -0.7887 -1.2819 -0.8567
  213MOL0     H28690   6.684   6.074   9.579 -0.3293 -0.2045  0.1939
  213MOL0     H28691   6.713   5.952   9.461  2.6034  1.7235  1.3974
  213MOL0     H28692   6.508   6.091   9.443  1.0773 -0.4961 -0.8772
  213MOL0     H28693   6.462   5.921   9.435 -1.6846 -0.3448  1.0225
  213MOL0     H28694   6.391   5.913   9.662 -3.7323 -0.6502 -1.2981
  213MOL0     H28695   6.436   6.092   9.686 -0.7265 -0.1175 -0.0036
  213MOL0     H28696   6.271   6.160   9.549 -0.6057  0.0930  1.8391
  213MOL0     H28697   6.247   5.996   9.482  3.3687 -0.2624 -0.8779
  213MOL0     H28698   6.189   5.964   9.754  1.7120 -0.2846 -0.8502
  213MOL0     H28699   6.140   6.129   9.725  0.7581  0.4192 -0.9694
  213MOL0     H28700   5.981   6.026   9.532 -1.0113 -0.5478  0.4056
  213MOL0     H28701   6.031   5.872   9.578  0.1342  0.1013 -1.4734
  213MOL0     H28702   5.954   5.954   9.831 -0.5845 -3.0360  1.0571
  213MOL0     H28703   5.872   6.079   9.743 -1.3046 -0.1432 -2.9239
  213MOL0     H28704   5.766   5.847   9.820  0.0461  2.4842  0.7068
  213MOL0     H28705   5.821   5.796   9.662 -1.6168  0.3047 -0.9577
  213MOL0     H28706   5.758   6.008   9.466  0.8746 -0.7039  1.1482
  213MOL0     H28707   5.462   6.108   9.345 -1.7648 -1.7576  0.8476
  213MOL0     H28708   5.399   6.186   9.487 -1.3695  0.4958 -2.6958
  213MOL0     H28709   5.647   6.281   9.342 -0.8042 -0.3590 -1.9154
  213MOL0     H28710   5.587   6.347   9.500  3.5196 -1.7693  0.3656
  213MOL0     H28711   5.396   6.321   9.269  2.4254  0.8382 -0.8508
  213MOL0     H28712   5.511   6.456   9.270 -1.7278 -0.2401 -1.3574
  213MOL0     H28713   5.407   6.557   9.439  1.4965 -0.9353  0.7583
  213MOL0     H28714   5.323   6.410   9.500 -1.7140  2.3252  1.2414
  213MOL0     H28715   5.200   6.592   9.562  0.0542 -1.1749 -1.1662
  213MOL0     H28716   4.904   6.710   9.716  0.0992 -1.1545 -0.1777
  213MOL0     H28717   5.077   6.673   9.738  2.0278 -0.6698 -1.0007
  213MOL0     H28718   5.032   6.837   9.687  0.5376 -0.3900 -0.5059
  213MOL0     H28719   4.550   6.938   9.518  0.7203 -0.1531 -0.5412
  213MOL0     H28720   4.374   7.100   9.478  1.1679 -2.1652  1.1016
  213MOL0     H28721   4.459   7.440   9.287  0.1672  0.8669  0.4466
  213MOL0     H28722   4.408   7.400   9.131 -0.0837 -0.1541  0.2858
  213MOL0     H28723   4.289   7.600   9.232  1.5320 -0.4846  0.4676
  213MOL0     H28724   4.192   7.479   9.161  2.4983 -1.1753 -1.2222
  213MOL0     H28725   4.250   7.524   9.451  1.7441  0.9152 -0.6823
  213MOL0     H28726   4.134   7.406   9.399 -1.0628  0.6040 -1.7043
  213MOL0     H28727   4.117   7.704   9.355 -0.5293  0.3231  0.6968
  213MOL0     H28728   3.998   7.586   9.282  1.3143  2.6042 -2.5693
  213MOL0     H28729   4.057   7.644   9.572 -0.2804  3.4353 -1.4490
  213MOL0     H28730   3.974   7.501   9.525 -0.6385 -0.2576 -1.0977
  213MOL0     H28731   3.818   7.710   9.581  1.0834 -1.2900  0.6050
  213MOL0     H28732   3.881   7.775   9.426 -1.5008 -0.9311 -1.3696
  213MOL0     H28733   3.749   7.503   9.445 -1.5735  0.5425  1.9642
  213MOL0     H28734   3.731   7.628   9.306  0.4214  1.6261  0.2822
  213MOL0     H28735   3.597   7.763   9.456  1.0399  0.4916 -0.6383
  213MOL0     H28736   3.627   7.659   9.596  0.7794  0.6248  0.0261
  213MOL0     H28737   4.529   7.210   9.099 -1.2476  1.6382  0.2043
  213MOL0     H28738   4.707   7.007   9.127  0.3608 -0.8129  1.1192
  213MOL0     H28739   4.887   6.713   9.215  2.3020  2.5551 -0.8832
  213MOL0     H28740   5.057   6.550   9.176  3.0982 -3.2272  1.3877
  213MOL0     H28741   6.901   5.881   9.530 -3.0630 -1.1622 -1.0509
  213MOL0     H28742   7.105   5.788   9.630 -0.1229 -0.0747 -1.1418
  213MOL0     H28743   7.343   5.381   9.869  0.7425 -1.9350  2.0062
  213MOL0     H28744   7.533   5.336  10.026 -0.5615 -0.1624 -1.4568
  213MOL0     H28745   7.652   5.658  10.316  0.2207  0.3330 -1.8720
  213MOL0     H28746   7.705   5.506  10.377 -1.3192  1.7109  2.2768
  213MOL0     H28747   7.853   5.659  10.176  0.3879 -0.6130  0.2106
  213MOL0     H28748   7.909   5.509  10.251  0.9428  0.3046  0.1112
  213MOL0     H28749   7.947   5.607  10.466 -0.9699  0.0541  0.2489
  213MOL0     H28750   7.869   5.761  10.411  0.4908  0.7447 -0.3911
  213MOL0     H28751   8.069   5.814  10.264  3.9111  1.6586  1.0598
  213MOL0     H28752   8.121   5.644  10.305  0.2034 -0.2530  4.3516
  213MOL0     H28753   8.227   5.847  10.658 -0.4799  1.1226 -0.0636
  213MOL0     H28754   7.535   5.733  10.161 -0.6211 -1.2750  1.5807
  213MOL0     H28755   7.329   5.786  10.051  0.7975  0.7960 -2.0352
  214MOL0     O28756   9.154   4.057   6.956 -0.1609 -0.0996  0.3042
  214MOL0     C28757   9.191   3.950   7.005  0.2029  0.1418 -0.2908
  214MOL0     O28758   9.109   3.873   7.078 -0.4394  0.3221 -0.6183
  214MOL0     C28759   8.978   3.898   7.098  0.7423 -0.3846 -0.0698
  214MOL0     C28760   8.883   3.804   7.058  0.5788  0.1769  0.6083
  214MOL0     C28761   8.746   3.817   7.084  0.9629 -0.4126 -1.0357
  214MOL0     C28762   8.696   3.941   7.133  0.4193 -0.2513  0.7285
  214MOL0     O28763   8.565   3.969   7.148 -0.1666  0.4590 -0.2468
  214MOL0     C28764   8.495   3.907   7.257  1.1043  0.2874 -0.8615
  214MOL0     C28765   8.422   3.773   7.224  0.7974 -0.2165  1.0192
  214MOL0     C28766   8.301   3.819   7.138 -0.2407 -0.2900  0.0754
  214MOL0     C28767   8.217   3.703   7.091 -0.1950 -0.3759  0.4266
  214MOL0     C28768   8.101   3.746   6.997  0.0453  0.0470  0.1531
  214MOL0     C28769   8.023   3.633   6.925  0.4190  0.5718 -0.5617
  214MOL0     C28770   7.917   3.689   6.830 -0.1948  0.4122 -0.0521
  214MOL0     C28771   7.781   3.721   6.892 -0.1955 -0.0852 -0.9421
  214MOL0     N28772   7.665   3.656   6.829  0.6129  0.4541  0.1252
  214MOL0     C28773   7.550   3.722   6.793 -0.2392 -0.2072  0.0427
  214MOL0     C28774   7.463   3.631   6.750 -0.5099 -0.7382  0.3382
  214MOL0     C28775   7.330   3.660   6.680 -1.2044 -0.4203 -0.4620
  214MOL0     C28776   7.237   3.561   6.745  0.9069  0.0172  0.4607
  214MOL0     C28777   7.093   3.596   6.708 -0.1043 -1.0432 -0.4151
  214MOL0     C28778   6.997   3.500   6.779 -0.1952  0.0068  0.0873
  214MOL0     O28779   6.864   3.531   6.734 -0.1119 -0.2376 -0.7166
  214MOL0     C28780   6.761   3.469   6.811  0.3620  0.5880 -0.7921
  214MOL0     C28781   6.764   3.415   6.941 -0.2333 -0.2600  0.6369
  214MOL0     C28782   6.649   3.368   7.003  0.1518 -0.1507 -0.0069
  214MOL0     C28783   6.661   3.306   7.146  0.8267 -0.2337  0.6959
  214MOL0     C28784   6.520   3.384   6.943 -0.1355 -0.7320  0.3633
  214MOL0     C28785   6.392   3.335   6.999 -0.4654  0.3251 -0.7173
  214MOL0     O28786   6.277   3.383   6.941  0.1283 -0.4829  0.5870
  214MOL0     C28787   6.164   3.317   6.940  0.4197 -0.6538 -0.0421
  214MOL0     C28788   6.144   3.185   6.939  0.3523  0.1466  1.4143
  214MOL0     C28789   6.015   3.124   6.940  0.8999 -0.8436  0.1554
  214MOL0     C28790   5.901   3.209   6.949 -0.0236  0.2832 -0.1795
  214MOL0     O28791   5.765   3.163   6.970 -0.5395 -0.3942 -0.0933
  214MOL0     C28792   5.722   3.023   6.957 -0.1596 -0.5161  0.2154
  214MOL0     C28793   5.707   2.951   7.092 -0.3933  0.0667 -0.1479
  214MOL0     C28794   5.617   3.023   7.192  0.0998  0.5906 -0.0337
  214MOL0     C28795   5.631   2.984   7.336 -0.0770  0.9958 -0.2688
  214MOL0     C28796   5.575   3.088   7.432  0.1128  0.1865  0.9111
  214MOL0     C28797   5.421   3.100   7.419  0.0598 -0.2369 -0.2452
  214MOL0     C28798   5.367   3.202   7.529 -0.2069 -0.5440  0.5470
  214MOL0     C28799   5.233   3.255   7.512 -0.4048  0.0330  0.1636
  214MOL0    Cl28800   5.107   3.138   7.550 -0.0338  0.2372  0.1788
  214MOL0     C28801   5.920   3.349   6.942  0.5060  0.6966  0.1389
  214MOL0     C28802   6.047   3.402   6.935 -0.1289 -0.4607  0.0442
  214MOL0     O28803   6.399   3.251   7.090 -0.5137 -0.1756  0.4233
  214MOL0     C28804   6.519   3.451   6.820 -0.5189  0.3187 -0.5989
  214MOL0     C28805   6.629   3.493   6.752 -0.5678  0.2355 -0.7182
  214MOL0     N28806   7.516   3.507   6.772 -0.2985 -0.1841 -0.1241
  214MOL0     N28807   7.643   3.522   6.817 -1.1008 -0.0192  0.8115
  214MOL0     C28808   8.795   4.040   7.158 -0.0580 -0.0142  0.4370
  214MOL0     C28809   8.924   4.013   7.155 -1.0321 -0.0398 -0.8103
  214MOL0     C28810   9.323   3.910   6.981  0.2346  0.8598 -0.4976
  214MOL0     C28811   9.363   3.779   6.979 -0.2550  1.0251  0.3887
  214MOL0     C28812   9.495   3.735   6.937 -0.4773 -0.4991 -0.4907
  214MOL0     C28813   9.583   3.842   6.906 -1.2312  0.6067 -0.1967
  214MOL0     O28814   9.712   3.826   6.867 -0.0924  0.2500  0.1603
  214MOL0     C28815   9.770   3.696   6.864  0.1985  0.5258  0.1945
  214MOL0     C28816   9.914   3.715   6.826 -0.2369  0.3255  0.4819
  214MOL0     C28817   9.977   3.578   6.855  0.0178 -1.0762 -0.6667
  214MOL0     C28818  10.123   3.574   6.810 -0.5364 -0.0424  1.6168
  214MOL0     C28819  10.210   3.650   6.901  0.2489  0.5268 -0.1411
  214MOL0     C28820  10.275   3.712   6.973 -0.6638 -0.5396 -0.2805
  214MOL0     C28821   9.543   3.975   6.908 -0.3052  0.5803 -0.2724
  214MOL0     C28822   9.415   4.006   6.948 -0.0320 -0.4470 -0.2544
  214MOL0     H28823   8.915   3.705   7.026  1.4697 -0.1776  2.4769
  214MOL0     H28824   8.685   3.733   7.055  1.4556 -0.2501 -2.6289
  214MOL0     H28825   8.561   3.887   7.342  0.7003  1.3163 -0.2862
  214MOL0     H28826   8.420   3.975   7.298  1.2314  1.4591 -2.4780
  214MOL0     H28827   8.493   3.707   7.174 -0.4129 -1.4871  0.9164
  214MOL0     H28828   8.391   3.725   7.317 -0.0827 -0.0135  0.8440
  214MOL0     H28829   8.238   3.878   7.204  0.1726 -0.9549  1.1003
  214MOL0     H28830   8.341   3.885   7.060  3.6268 -1.3522  0.9261
  214MOL0     H28831   8.277   3.627   7.038  0.4619 -0.3030  1.0605
  214MOL0     H28832   8.177   3.663   7.184  1.1714 -0.1376  1.1411
  214MOL0     H28833   8.026   3.798   7.057 -0.4011  0.1334 -0.4693
  214MOL0     H28834   8.143   3.819   6.927  0.3872  2.2164  2.4560
  214MOL0     H28835   8.093   3.575   6.864 -0.0253 -2.7834  1.8561
  214MOL0     H28836   7.966   3.558   6.980  0.6784 -0.3305 -1.5085
  214MOL0     H28837   7.962   3.774   6.778 -0.8270 -0.3715 -1.9762
  214MOL0     H28838   7.892   3.611   6.756 -1.1093 -0.6773  1.3569
  214MOL0     H28839   7.775   3.830   6.886  3.7423  0.3112  0.0484
  214MOL0     H28840   7.785   3.707   7.001  1.8265  3.5691 -0.3830
  214MOL0     H28841   7.531   3.829   6.789 -1.5216 -0.4166  0.1436
  214MOL0     H28842   7.305   3.763   6.710  1.7087 -0.1541  1.4519
  214MOL0     H28843   7.342   3.642   6.573 -0.7985 -0.0034 -0.4918
  214MOL0     H28844   7.247   3.574   6.853  0.9395  2.6209  0.2079
  214MOL0     H28845   7.260   3.459   6.714 -0.6885 -0.6870  1.4591
  214MOL0     H28846   7.079   3.607   6.600 -0.5248 -0.9334 -0.3509
  214MOL0     H28847   7.065   3.692   6.752  1.6336 -0.1564 -1.1637
  214MOL0     H28848   7.017   3.502   6.886  1.8112  2.5115 -0.2457
  214MOL0     H28849   7.040   3.407   6.741  2.5055  1.3543 -0.4425
  214MOL0     H28850   6.865   3.397   6.976  0.3468  0.1235 -0.8033
  214MOL0     H28851   6.768   3.297   7.167  1.7654  0.6979 -2.9366
  214MOL0     H28852   6.599   3.359   7.218 -1.9259 -0.5086 -1.3172
  214MOL0     H28853   6.621   3.204   7.146 -1.4851  0.5764  2.8423
  214MOL0     H28854   6.225   3.115   6.958 -1.0987 -2.3615 -0.8545
  214MOL0     H28855   5.992   3.018   6.945 -3.4026 -0.1024  0.6745
  214MOL0     H28856   5.628   3.034   6.902  0.2030  1.4804 -0.0729
  214MOL0     H28857   5.793   2.968   6.895 -0.3174  2.2777 -2.7358
  214MOL0     H28858   5.665   2.858   7.052  0.9173  0.3279 -2.2777
  214MOL0     H28859   5.800   2.920   7.141 -2.5727 -2.2203  2.9623
  214MOL0     H28860   5.514   2.999   7.166  0.0453  0.2406  0.4901
  214MOL0     H28861   5.635   3.131   7.187  0.1527  0.8239  2.9626
  214MOL0     H28862   5.579   2.892   7.364 -0.3909  0.9867 -0.8518
  214MOL0     H28863   5.736   2.969   7.360 -0.5210 -3.7132 -0.3613
  214MOL0     H28864   5.617   3.188   7.420 -2.9316  1.8123  2.4972
  214MOL0     H28865   5.605   3.039   7.525  0.7419 -1.9345 -0.3406
  214MOL0     H28866   5.401   3.142   7.320  1.6543 -2.6976 -1.7213
  214MOL0     H28867   5.379   3.000   7.424  0.2987 -0.5169 -2.8382
  214MOL0     H28868   5.434   3.288   7.527 -2.5500  1.3962  1.0099
  214MOL0     H28869   5.365   3.168   7.633  3.2747 -1.5151  0.4375
  214MOL0     H28870   5.228   3.288   7.407  6.4344  0.7995 -0.3660
  214MOL0     H28871   5.228   3.339   7.582  2.4659  0.1625  0.3272
  214MOL0     H28872   5.829   3.408   6.937 -1.2111 -1.8674 -0.5801
  214MOL0     H28873   6.051   3.510   6.922 -0.5308 -0.5614 -1.0237
  214MOL0     H28874   6.421   3.457   6.774 -2.3852 -0.2214  2.9393
  214MOL0     H28875   6.628   3.544   6.656 -1.9517 -2.0531 -2.0124
  214MOL0     H28876   8.772   4.141   7.193 -1.4033 -0.5767  1.2627
  214MOL0     H28877   8.996   4.091   7.177  0.4971 -2.0793  2.0796
  214MOL0     H28878   9.295   3.697   6.998  1.3363 -0.5179 -0.3119
  214MOL0     H28879   9.519   3.630   6.927 -2.1824 -1.0313  0.6880
  214MOL0     H28880   9.763   3.656   6.966 -1.9450  0.9000  0.2517
  214MOL0     H28881   9.719   3.638   6.787  0.5770  0.5134 -0.0485
  214MOL0     H28882   9.973   3.792   6.878 -1.0895  0.7969  0.7585
  214MOL0     H28883   9.922   3.713   6.717  0.6624 -1.6913  0.5311
  214MOL0     H28884   9.920   3.500   6.804 -0.5338 -2.1187  1.4386
  214MOL0     H28885   9.972   3.565   6.963 -3.9707 -0.4330 -0.6391
  214MOL0     H28886  10.125   3.621   6.711  0.1349 -0.9203  1.2021
  214MOL0     H28887  10.164   3.473   6.806  1.0379  0.4653  3.4481
  214MOL0     H28888  10.332   3.770   7.043 -0.6880 -0.4361 -0.3456
  214MOL0     H28889   9.605   4.063   6.894  0.8578 -0.1350  0.2843
  214MOL0     H28890   9.389   4.111   6.956 -1.9617 -0.6805 -2.2636
  215MOL0     O28891   8.999  10.463   8.073 -0.1902 -0.0384  0.1684
  215MOL0     C28892   8.965  10.348   8.061 -0.2426 -0.1746  0.4133
  215MOL0     O28893   8.865  10.289   8.131  0.4850 -0.3098  0.0929
  215MOL0     C28894   8.806  10.362   8.233  0.1864 -0.2129  0.5080
  215MOL0     C28895   8.875  10.420   8.337  0.7265 -0.1568 -0.0499
  215MOL0     C28896   8.812  10.486   8.437  0.2247  0.7404  1.1039
  215MOL0     C28897   8.673  10.517   8.426  0.5251 -0.6430  0.7743
  215MOL0     O28898   8.609  10.612   8.509  0.1143 -0.3448  0.3198
  215MOL0     C28899   8.688  10.705   8.584 -0.3538 -0.1744  0.2166
  215MOL0     C28900   8.601  10.824   8.621 -0.3274  0.4741 -0.2979
  215MOL0     C28901   8.672  10.933   8.702 -0.6061 -0.2140 -0.7218
  215MOL0     C28902   8.570  11.040   8.752 -0.0648  0.6452 -0.4464
  215MOL0     C28903   8.537  11.139   8.642  0.5650 -0.2606 -0.0783
  215MOL0     C28904   8.421  11.229   8.699  0.0401 -0.5238  0.2136
  215MOL0     C28905   8.351  11.300   8.587 -0.4549  0.2323 -0.3893
  215MOL0     C28906   8.222  11.367   8.627 -0.1973  0.2506 -0.5449
  215MOL0     N28907   8.123  11.277   8.697 -0.4175  0.4016 -0.1528
  215MOL0     C28908   8.055  11.177   8.632 -0.4038 -0.2759  0.1327
  215MOL0     C28909   7.973  11.119   8.718 -0.2973 -0.4478  0.1924
  215MOL0     C28910   7.896  10.996   8.704 -0.4429 -0.2686 -0.7960
  215MOL0     C28911   7.806  10.985   8.584 -0.2674 -0.6137  0.6258
  215MOL0     C28912   7.703  11.103   8.573  0.1433  0.2150  0.2261
  215MOL0     C28913   7.572  11.084   8.657 -0.6954 -0.8797  1.0584
  215MOL0     O28914   7.487  11.199   8.633  0.4668 -0.7388  0.0436
  215MOL0     C28915   7.367  11.183   8.698  0.2674 -0.3956  1.0317
  215MOL0     C28916   7.257  11.156   8.617 -0.5550 -0.1316 -0.1948
  215MOL0     C28917   7.129  11.116   8.674 -0.2597 -0.0400  0.5121
  215MOL0     C28918   7.028  11.062   8.582 -0.0986  0.2087  0.4347
  215MOL0     C28919   7.113  11.143   8.813 -0.5178  0.5262  0.3624
  215MOL0     C28920   6.995  11.095   8.890  0.3506  0.3496  0.1093
  215MOL0     O28921   6.979  11.145   9.010 -0.1680  0.0947 -0.0978
  215MOL0     C28922   6.858  11.119   9.070  0.7134 -0.2391 -0.5071
  215MOL0     C28923   6.863  11.047   9.190  0.1867 -0.0646 -0.9055
  215MOL0     C28924   6.750  11.032   9.272 -0.6689 -0.6286 -0.7300
  215MOL0     C28925   6.619  11.067   9.223 -1.0569  0.8378  0.4933
  215MOL0     O28926   6.504  11.046   9.294  0.2776 -0.8289 -0.5125
  215MOL0     C28927   6.374  11.055   9.236 -0.4639  0.0483 -0.5928
  215MOL0     C28928   6.279  10.970   9.317 -0.6584  0.4241  0.1261
  215MOL0     C28929   6.136  11.025   9.295  0.1716  0.1367 -1.1128
  215MOL0     C28930   6.031  10.953   9.382 -0.6057  0.7083 -0.6684
  215MOL0     C28931   5.890  10.996   9.345  0.0740  0.1060 -0.0761
  215MOL0     C28932   5.785  10.928   9.430  0.2507 -0.1850  0.5298
  215MOL0     C28933   5.772  10.976   9.583 -0.6710  1.0534  0.3056
  215MOL0     C28934   5.671  10.896   9.663  0.2759  0.3415 -0.4969
  215MOL0    Cl28935   5.505  10.904   9.601  0.1510 -0.1727  0.2117
  215MOL0     C28936   6.611  11.138   9.100 -0.2967 -0.9107  0.3425
  215MOL0     C28937   6.727  11.173   9.028  0.0369 -0.5464 -0.9835
  215MOL0     O28938   6.925  11.002   8.843  0.6006 -0.3500 -0.0069
  215MOL0     C28939   7.219  11.195   8.886 -0.6753  0.0751  0.3156
  215MOL0     C28940   7.341  11.211   8.828 -0.1244 -0.1470 -0.0699
  215MOL0     N28941   7.994  11.188   8.834  0.4337 -0.6539  0.4850
  215MOL0     N28942   8.083  11.280   8.824  0.8774 -0.6030 -0.1298
  215MOL0     C28943   8.595  10.452   8.334  0.5588  0.3796  0.1876
  215MOL0     C28944   8.661  10.372   8.233 -0.3182 -0.1051 -1.2300
  215MOL0     C28945   9.029  10.275   7.949 -0.3190 -0.2268 -0.0390
  215MOL0     C28946   9.156  10.294   7.915 -0.0853 -0.4684 -0.5531
  215MOL0     C28947   9.220  10.224   7.820 -0.3355 -0.2022 -0.6421
  215MOL0     C28948   9.154  10.119   7.750  0.3117 -0.2547  0.0666
  215MOL0     O28949   9.213  10.037   7.663 -0.0307 -0.1237 -0.0657
  215MOL0     C28950   9.330  10.092   7.597 -1.2629  0.0971  0.2328
  215MOL0     C28951   9.392  10.008   7.487  1.1658  0.1390 -0.9664
  215MOL0     C28952   9.461   9.880   7.545  0.5700  0.7060 -0.1745
  215MOL0     C28953   9.475   9.775   7.440  0.1343 -0.8931  0.1849
  215MOL0     C28954   9.562   9.818   7.334  0.4771 -1.3489 -0.6158
  215MOL0     C28955   9.638   9.883   7.256 -0.6118  0.5005 -0.2348
  215MOL0     C28956   9.017  10.100   7.778  0.5682 -0.2573  0.4697
  215MOL0     C28957   8.956  10.172   7.880 -0.0544 -0.6855 -0.9520
  215MOL0     H28958   8.979  10.392   8.339  0.5899 -0.6985 -0.3551
  215MOL0     H28959   8.863  10.515   8.528 -0.0093  0.1600  1.4240
  215MOL0     H28960   8.718  10.652   8.675 -1.5736 -1.8717 -0.3011
  215MOL0     H28961   8.777  10.738   8.529 -0.1794  1.7160  1.5439
  215MOL0     H28962   8.563  10.872   8.530 -1.7097 -0.8371 -0.4391
  215MOL0     H28963   8.518  10.789   8.682  0.5296 -1.0530  0.0330
  215MOL0     H28964   8.715  10.882   8.789 -1.5951  1.0735  0.5912
  215MOL0     H28965   8.745  10.981   8.636  0.9004  1.6196  2.0676
  215MOL0     H28966   8.483  10.994   8.799  0.9499 -0.4436  0.4378
  215MOL0     H28967   8.617  11.102   8.830  1.4908  0.0724 -0.8881
  215MOL0     H28968   8.625  11.197   8.614  0.8343  0.9652  2.9836
  215MOL0     H28969   8.499  11.092   8.550 -1.6508  2.4909 -0.6756
  215MOL0     H28970   8.347  11.163   8.745 -1.2079  1.1963  0.7695
  215MOL0     H28971   8.458  11.294   8.778  1.6554  0.4166 -1.2445
  215MOL0     H28972   8.401  11.387   8.544  2.0778 -0.3543  1.1264
  215MOL0     H28973   8.329  11.222   8.514  0.1760 -3.0064  2.5952
  215MOL0     H28974   8.177  11.399   8.533  0.3031  2.4844 -0.0962
  215MOL0     H28975   8.245  11.456   8.686 -0.2463  0.0198 -0.1730
  215MOL0     H28976   8.064  11.133   8.533  0.7256  0.4447 -0.1014
  215MOL0     H28977   7.965  10.911   8.705  0.6390  0.5764 -1.7960
  215MOL0     H28978   7.834  10.990   8.795  1.2809 -1.7007  0.3618
  215MOL0     H28979   7.762  10.886   8.599 -0.2705 -0.4943  1.4140
  215MOL0     H28980   7.860  10.992   8.488  1.5031 -0.4666  1.5839
  215MOL0     H28981   7.666  11.097   8.470 -1.4342 -0.8436  0.8058
  215MOL0     H28982   7.746  11.201   8.595 -1.0198  0.4297  1.6897
  215MOL0     H28983   7.596  11.084   8.764 -0.6413 -0.5994  1.0450
  215MOL0     H28984   7.525  10.988   8.632  1.1390 -1.2230 -1.3116
  215MOL0     H28985   7.282  11.155   8.511  0.9814 -0.7174  0.1414
  215MOL0     H28986   7.026  10.954   8.597 -0.8833  0.4752  2.6635
  215MOL0     H28987   6.929  11.088   8.620 -0.0558  0.3788  0.4342
  215MOL0     H28988   7.042  11.099   8.480  1.3277  0.9637  0.8675
  215MOL0     H28989   6.951  10.999   9.230 -0.7406  1.4461  3.4824
  215MOL0     H28990   6.758  10.986   9.370  0.3647  1.5684  0.2763
  215MOL0     H28991   6.347  11.161   9.239  0.3120  0.3085 -1.9639
  215MOL0     H28992   6.370  11.029   9.130  0.1673  0.1795 -0.6520
  215MOL0     H28993   6.273  10.863   9.294 -1.9387  0.5904 -0.4098
  215MOL0     H28994   6.316  10.978   9.419  0.9618  1.8626 -0.5205
  215MOL0     H28995   6.119  11.027   9.187  1.3832  0.1740 -1.3195
  215MOL0     H28996   6.133  11.130   9.323  2.3470  0.0713 -0.4041
  215MOL0     H28997   6.047  10.847   9.362  0.5980  0.9765 -1.2508
  215MOL0     H28998   6.050  10.978   9.487 -1.2822  0.7058 -0.5395
  215MOL0     H28999   5.878  10.966   9.241  0.9280  1.1030 -0.4756
  215MOL0     H29000   5.882  11.105   9.352 -0.6158  0.0811 -0.4296
  215MOL0     H29001   5.684  10.954   9.395  0.1047  0.1327  1.1667
  215MOL0     H29002   5.798  10.820   9.418 -0.7768 -0.4255  1.3870
  215MOL0     H29003   5.755  11.084   9.582 -1.2552  1.0074 -2.5294
  215MOL0     H29004   5.867  10.956   9.635 -1.7221 -2.0118  1.2922
  215MOL0     H29005   5.665  10.936   9.765 -1.8316  1.5588 -1.0542
  215MOL0     H29006   5.706  10.792   9.663  0.3513  0.3688 -0.9927
  215MOL0     H29007   6.526  11.177   9.045  1.1172 -1.5824 -2.5650
  215MOL0     H29008   6.717  11.241   8.944 -4.3407 -1.0371 -1.1025
  215MOL0     H29009   7.199  11.216   8.990 -4.4829 -1.2711  0.0260
  215MOL0     H29010   7.428  11.223   8.891  1.8737 -0.9942 -2.5188
  215MOL0     H29011   8.487  10.452   8.342  0.6563  0.5913  1.7871
  215MOL0     H29012   8.602  10.308   8.167 -1.8152  1.5960 -1.6369
  215MOL0     H29013   9.218  10.372   7.959  1.8734 -1.3549 -1.6132
  215MOL0     H29014   9.329  10.233   7.817 -0.0966 -2.2181  0.2000
  215MOL0     H29015   9.311  10.183   7.539  3.3546  0.5571 -0.9674
  215MOL0     H29016   9.415  10.117   7.661 -0.7377 -0.6554 -0.1505
  215MOL0     H29017   9.464  10.062   7.425  2.2387  0.0185  0.1428
  215MOL0     H29018   9.307   9.989   7.420 -2.2228  3.2334  2.0323
  215MOL0     H29019   9.406   9.844   7.632  0.9832 -2.0450 -0.9372
  215MOL0     H29020   9.561   9.902   7.583  0.2890  1.3329  0.2128
  215MOL0     H29021   9.371   9.763   7.407 -0.2459 -0.8608  1.3243
  215MOL0     H29022   9.500   9.678   7.485 -0.0659 -0.4290  1.3298
  215MOL0     H29023   9.709   9.927   7.189 -0.2857  0.2862 -0.0329
  215MOL0     H29024   8.965  10.032   7.712  0.3522 -1.3809  1.7552
  215MOL0     H29025   8.855  10.160   7.918  0.9667  0.3647  2.4160
  216MOL0     O29026   0.361   5.176   4.728  0.3290 -0.7989 -0.5922
  216MOL0     C29027   0.405   5.126   4.833  0.6483 -0.1788  0.4009
  216MOL0     O29028   0.335   5.120   4.953 -0.8188 -0.5576  0.7182
  216MOL0     C29029   0.229   5.211   4.971  0.2040  0.0064  0.1210
  216MOL0     C29030   0.107   5.190   4.900  0.6831  0.2227  1.1008
  216MOL0     C29031  -0.003   5.271   4.934 -0.3182 -0.3627  0.2708
  216MOL0     C29032   0.013   5.391   5.015 -0.6834 -0.4613 -0.2926
  216MOL0     O29033  -0.094   5.475   5.021  0.1297 -0.6708 -0.2569
  216MOL0     C29034  -0.093   5.587   5.120 -0.2552  0.0251  0.9928
  216MOL0     C29035  -0.029   5.705   5.052 -0.5687 -0.0352  0.2830
  216MOL0     C29036  -0.050   5.829   5.136 -0.2022  0.6632  0.0870
  216MOL0     C29037   0.007   5.949   5.061 -0.0487 -0.1735  0.1801
  216MOL0     C29038  -0.000   6.085   5.128 -1.2188  0.1598  0.4627
  216MOL0     C29039   0.080   6.182   5.032  0.6448 -0.7658 -0.5305
  216MOL0     C29040   0.056   6.334   5.063 -0.1389 -0.6458 -0.3337
  216MOL0     C29041  -0.090   6.379   5.049  0.0570  0.9337 -0.7495
  216MOL0     N29042  -0.098   6.523   5.078 -0.4122  0.0388 -0.0467
  216MOL0     C29043  -0.067   6.620   4.984 -1.0306 -0.2423 -0.3221
  216MOL0     C29044  -0.095   6.736   5.042 -0.4573  0.6133 -0.7413
  216MOL0     C29045  -0.091   6.870   4.983  0.6820  0.6881 -0.6457
  216MOL0     C29046  -0.222   6.942   4.990 -0.0306  0.7473  0.5937
  216MOL0     C29047  -0.219   7.092   4.974 -0.9803  0.0315  0.0197
  216MOL0     C29048  -0.210   7.135   4.827 -0.3137 -0.2935  0.1567
  216MOL0     O29049  -0.076   7.152   4.766  0.9550  0.2408 -0.6029
  216MOL0     C29050   0.008   7.256   4.800  0.2580 -0.2458  0.0396
  216MOL0     C29051  -0.015   7.359   4.888  0.6462 -0.0333 -0.0133
  216MOL0     C29052   0.085   7.445   4.928  1.0796 -0.0602 -0.0722
  216MOL0     C29053   0.052   7.540   5.036 -0.5282  0.9482 -0.3013
  216MOL0     C29054   0.219   7.434   4.871 -0.3784  0.5047  0.4037
  216MOL0     C29055   0.326   7.531   4.878 -0.3069 -0.1484  0.6773
  216MOL0     O29056   0.455   7.483   4.882 -0.0088  0.2505  0.2673
  216MOL0     C29057   0.569   7.555   4.903  0.0990 -0.2955 -0.2911
  216MOL0     C29058   0.576   7.693   4.877  0.0252  0.7457  0.3456
  216MOL0     C29059   0.701   7.756   4.884  0.7884  0.5846  0.8068
  216MOL0     C29060   0.814   7.687   4.925 -0.2341 -0.6335  0.3300
  216MOL0     O29061   0.934   7.760   4.906  0.1464 -0.5765  0.5275
  216MOL0     C29062   1.052   7.693   4.943  0.1605  1.1116 -0.8306
  216MOL0     C29063   1.167   7.783   4.950 -1.3066  0.3111 -0.8902
  216MOL0     C29064   1.302   7.720   4.925 -0.0871  0.6145 -0.2410
  216MOL0     C29065   1.406   7.839   4.911  0.2969 -0.0243 -0.1226
  216MOL0     C29066   1.539   7.773   4.909 -0.0393  0.4603  0.5835
  216MOL0     C29067   1.652   7.881   4.925 -0.4426  0.0854  1.1080
  216MOL0     C29068   1.789   7.810   4.944 -0.1655 -0.0919 -0.8024
  216MOL0     C29069   1.867   7.790   4.814  0.4768 -0.3907 -0.1519
  216MOL0    Cl29070   2.012   7.694   4.831  0.5460 -0.5837  0.3259
  216MOL0     C29071   0.808   7.546   4.948  0.6274  0.1222  0.4433
  216MOL0     C29072   0.687   7.481   4.948 -0.3988 -0.1398  0.8444
  216MOL0     O29073   0.292   7.648   4.893 -0.3053  0.4597 -0.8601
  216MOL0     C29074   0.241   7.333   4.773 -0.6547 -0.2442  0.4281
  216MOL0     C29075   0.137   7.249   4.747  0.6812  0.0823  0.0750
  216MOL0     N29076  -0.127   6.715   5.175 -0.2918 -0.1194  0.2247
  216MOL0     N29077  -0.127   6.583   5.198 -0.2612 -0.3306 -0.5059
  216MOL0     C29078   0.141   5.412   5.064 -0.1677  0.4282 -0.2933
  216MOL0     C29079   0.245   5.326   5.049 -0.7935  0.6736 -0.1983
  216MOL0     C29080   0.525   5.039   4.809 -1.2010 -0.5691  0.9610
  216MOL0     C29081   0.574   5.017   4.676 -0.2063  0.2915 -0.6467
  216MOL0     C29082   0.700   4.938   4.676  0.4857 -0.0356 -0.1340
  216MOL0     C29083   0.766   4.898   4.783  0.2953 -0.1234  0.7907
  216MOL0     O29084   0.889   4.839   4.782 -1.2567 -0.2129 -0.0352
  216MOL0     C29085   0.950   4.795   4.659 -0.6420 -0.7039  0.5457
  216MOL0     C29086   1.103   4.770   4.679  0.2831  0.0612 -0.2448
  216MOL0     C29087   1.188   4.883   4.735  0.2353 -0.3462  0.5478
  216MOL0     C29088   1.192   5.012   4.646  1.2342  1.3852 -0.4664
  216MOL0     C29089   1.294   5.116   4.672 -0.2846  0.0012 -0.6376
  216MOL0     C29090   1.366   5.206   4.702 -0.0577  0.0209 -0.1021
  216MOL0     C29091   0.715   4.931   4.906 -0.1458  0.3378 -0.1128
  216MOL0     C29092   0.599   5.003   4.924 -1.5366 -0.1202  0.2263
  216MOL0     H29093   0.097   5.112   4.825  1.8870  0.4358  0.7010
  216MOL0     H29094  -0.101   5.252   4.892  0.2482 -0.7013 -0.9305
  216MOL0     H29095  -0.196   5.620   5.134 -0.2917 -0.4834  1.9857
  216MOL0     H29096  -0.036   5.573   5.212 -0.3686  3.0888  1.6132
  216MOL0     H29097   0.077   5.688   5.030 -0.0832  2.1209  0.6954
  216MOL0     H29098  -0.079   5.722   4.956  0.2987 -2.5177 -0.6801
  216MOL0     H29099  -0.157   5.839   5.152 -0.4113  0.1012 -0.8869
  216MOL0     H29100  -0.001   5.821   5.234  0.4936  0.0474 -0.3064
  216MOL0     H29101   0.113   5.934   5.042  0.0669  1.1354 -0.3089
  216MOL0     H29102  -0.039   5.956   4.962  1.3732 -0.7368 -0.5440
  216MOL0     H29103  -0.106   6.110   5.127 -1.3773 -0.5032 -0.3301
  216MOL0     H29104   0.042   6.078   5.228  1.9041  0.5044 -0.7176
  216MOL0     H29105   0.189   6.172   5.035  1.0247  2.3735 -0.4208
  216MOL0     H29106   0.057   6.160   4.927 -0.5513 -1.7745 -0.0871
  216MOL0     H29107   0.087   6.356   5.166 -2.0084 -0.4938  0.2186
  216MOL0     H29108   0.129   6.392   5.004  1.5273 -1.2776  1.0097
  216MOL0     H29109  -0.158   6.336   5.123  0.3817  1.5005 -0.1148
  216MOL0     H29110  -0.132   6.372   4.948  1.7123 -0.3308 -1.3967
  216MOL0     H29111  -0.018   6.602   4.889 -0.5478  0.6292 -0.2566
  216MOL0     H29112  -0.018   6.933   5.036 -1.1467  2.3824 -0.0149
  216MOL0     H29113  -0.058   6.855   4.880 -0.7201 -4.1440 -0.6164
  216MOL0     H29114  -0.245   6.936   5.097 -0.3530 -0.7236  0.4751
  216MOL0     H29115  -0.299   6.887   4.936 -0.0778  1.6499 -0.2809
  216MOL0     H29116  -0.130   7.129   5.026  1.8973 -2.3778 -2.7989
  216MOL0     H29117  -0.316   7.130   5.007 -0.7686 -0.6572  1.5496
  216MOL0     H29118  -0.260   7.232   4.816 -0.0321  0.0213  1.4090
  216MOL0     H29119  -0.276   7.068   4.772 -2.0711  1.6677 -0.2657
  216MOL0     H29120  -0.113   7.364   4.934  1.2259  1.1055  1.1731
  216MOL0     H29121   0.130   7.533   5.112 -0.1246  3.1570 -0.4524
  216MOL0     H29122   0.037   7.644   5.006  1.8684  1.2797 -0.4768
  216MOL0     H29123  -0.040   7.511   5.088 -1.4802 -0.9415 -2.8182
  216MOL0     H29124   0.488   7.749   4.846 -0.5324  0.1140  0.7655
  216MOL0     H29125   0.717   7.863   4.872  0.1336  0.7331  1.1931
  216MOL0     H29126   1.032   7.662   5.046  1.1179 -1.0696 -1.2271
  216MOL0     H29127   1.077   7.613   4.872  1.3046  1.4761 -0.8579
  216MOL0     H29128   1.143   7.860   4.877  1.0007 -0.3492 -2.4589
  216MOL0     H29129   1.172   7.833   5.048  1.2302  0.9195 -1.2593
  216MOL0     H29130   1.303   7.665   4.831 -0.4281 -0.2760  0.2715
  216MOL0     H29131   1.322   7.652   5.008  1.9869  0.9445 -0.4008
  216MOL0     H29132   1.389   7.903   4.824 -0.1958  2.3272  1.5929
  216MOL0     H29133   1.400   7.914   4.991  1.0353  0.4179 -0.4707
  216MOL0     H29134   1.540   7.728   4.810 -2.0667  1.2069  0.1759
  216MOL0     H29135   1.551   7.694   4.985 -0.9640 -1.1090 -0.8392
  216MOL0     H29136   1.657   7.949   4.840 -1.4533  1.3047  1.9908
  216MOL0     H29137   1.642   7.943   5.014 -2.6910 -2.3479  2.7088
  216MOL0     H29138   1.777   7.711   4.990  2.3264  1.0331  2.7220
  216MOL0     H29139   1.849   7.866   5.017  0.1051 -1.7267  0.2689
  216MOL0     H29140   1.871   7.886   4.761 -0.3477 -2.3746 -4.1814
  216MOL0     H29141   1.801   7.732   4.748  1.0189 -1.6995  0.4385
  216MOL0     H29142   0.898   7.486   4.948  0.4148 -0.3130 -1.8891
  216MOL0     H29143   0.665   7.376   4.963 -0.8995 -0.5756 -2.1752
  216MOL0     H29144   0.337   7.306   4.731 -0.8801  0.3131 -0.4601
  216MOL0     H29145   0.158   7.158   4.690  2.3309  0.0697  0.6795
  216MOL0     H29146   0.164   5.503   5.119 -2.4328  0.6363  0.4093
  216MOL0     H29147   0.328   5.355   5.112 -0.3891 -1.6712  0.4785
  216MOL0     H29148   0.515   5.038   4.587  0.4006 -0.6974 -1.2989
  216MOL0     H29149   0.736   4.933   4.573 -2.7868  1.4382 -1.5116
  216MOL0     H29150   0.904   4.707   4.615  0.2583 -0.0002 -2.0270
  216MOL0     H29151   0.942   4.876   4.585 -2.1572 -0.4178  0.9987
  216MOL0     H29152   1.144   4.734   4.584 -3.0062 -2.3173 -0.9797
  216MOL0     H29153   1.125   4.686   4.746  1.1418  2.0161  2.0513
  216MOL0     H29154   1.295   4.860   4.738  0.0618 -1.1406  0.9208
  216MOL0     H29155   1.164   4.908   4.839 -0.2312  0.2045  0.3096
  216MOL0     H29156   1.093   5.057   4.649  1.7039  2.4409 -0.4247
  216MOL0     H29157   1.219   4.989   4.542 -0.7497  2.9148 -1.3937
  216MOL0     H29158   1.432   5.289   4.719 -0.4820  0.7330 -1.7172
  216MOL0     H29159   0.764   4.899   4.998  1.6473 -1.9890 -1.7520
  216MOL0     H29160   0.560   5.027   5.023  0.7054  0.3281  1.0650
  217MOL0     O29161   1.765   2.229   6.629  0.2292  0.1181  0.5407
  217MOL0     C29162   1.822   2.163   6.716  0.0932 -0.2945 -0.5325
  217MOL0     O29163   1.776   2.132   6.837  0.7361  0.5795 -0.4855
  217MOL0     C29164   1.640   2.176   6.868 -0.0676  0.8880 -0.3217
  217MOL0     C29165   1.526   2.147   6.786  0.0085 -0.8138 -0.0673
  217MOL0     C29166   1.400   2.191   6.815 -0.1233  0.4109 -0.2167
  217MOL0     C29167   1.373   2.264   6.927  0.2670 -0.0374  0.2027
  217MOL0     O29168   1.245   2.323   6.941  0.0196 -0.3743 -0.1003
  217MOL0     C29169   1.246   2.468   6.931 -0.2630 -0.4320  0.0463
  217MOL0     C29170   1.214   2.495   6.787 -0.1574 -0.5348  0.0070
  217MOL0     C29171   1.080   2.431   6.741 -0.8857  0.0476 -0.2025
  217MOL0     C29172   1.017   2.469   6.606 -0.3674 -0.1877 -0.3343
  217MOL0     C29173   0.869   2.442   6.610  0.8507  0.2019 -0.9406
  217MOL0     C29174   0.807   2.478   6.481  0.1797  0.7337  0.5570
  217MOL0     C29175   0.663   2.425   6.453 -0.2421  0.4328 -0.1427
  217MOL0     C29176   0.550   2.507   6.525 -0.1208  0.0174  0.2987
  217MOL0     N29177   0.412   2.479   6.473  0.0271 -0.9013 -0.3949
  217MOL0     C29178   0.311   2.573   6.470 -0.0461 -0.3440 -0.3858
  217MOL0     C29179   0.199   2.514   6.422  0.2982 -0.0713 -0.3660
  217MOL0     C29180   0.058   2.567   6.381  0.2929  0.0845  0.4636
  217MOL0     C29181  -0.042   2.546   6.485  0.6612  0.1039  0.3652
  217MOL0     C29182  -0.179   2.592   6.440  0.4403 -0.4817  0.0805
  217MOL0     C29183  -0.301   2.546   6.528  0.3819 -0.1443 -0.0230
  217MOL0     O29184  -0.413   2.610   6.459 -0.1829  0.5910  0.0122
  217MOL0     C29185  -0.543   2.570   6.489 -0.3459  0.4408 -0.2673
  217MOL0     C29186  -0.631   2.588   6.385  0.3923 -0.9208 -0.2206
  217MOL0     C29187  -0.776   2.576   6.400  0.0110 -0.3799 -0.0458
  217MOL0     C29188  -0.858   2.615   6.278 -0.2534  0.0197 -0.4812
  217MOL0     C29189  -0.827   2.533   6.521  0.3021  0.5328  0.1183
  217MOL0     C29190  -0.969   2.486   6.548  0.5133  0.9500  0.7060
  217MOL0     O29191  -1.073   2.524   6.465  0.0158 -0.2912 -0.2597
  217MOL0     C29192  -1.198   2.483   6.497 -0.1870  0.4424  0.4824
  217MOL0     C29193  -1.286   2.574   6.572 -0.0235 -0.2900 -0.1328
  217MOL0     C29194  -1.413   2.531   6.618  0.3652  0.3812 -0.1447
  217MOL0     C29195  -1.454   2.399   6.604 -0.1653  0.1091 -0.7238
  217MOL0     O29196  -1.578   2.344   6.649  0.1337 -0.4691  0.4272
  217MOL0     C29197  -1.609   2.368   6.791  0.7869 -0.0030 -0.2032
  217MOL0     C29198  -1.730   2.298   6.840  0.1118  0.1876  0.1779
  217MOL0     C29199  -1.717   2.151   6.873  0.9715  0.0607 -0.5891
  217MOL0     C29200  -1.856   2.080   6.901 -0.2490  0.6780  0.0470
  217MOL0     C29201  -1.854   1.981   7.018 -0.0947  0.4744  0.2081
  217MOL0     C29202  -1.754   1.867   6.981  0.9446 -0.0252  0.2067
  217MOL0     C29203  -1.735   1.771   7.100  0.0291  0.0469  0.0168
  217MOL0     C29204  -1.653   1.652   7.059 -0.4667  0.1066  0.1713
  217MOL0    Cl29205  -1.622   1.558   7.209  0.1545  0.2905 -0.1255
  217MOL0     C29206  -1.372   2.314   6.532  0.5899 -0.4036  0.2791
  217MOL0     C29207  -1.252   2.351   6.471  0.6294  0.0596 -0.4204
  217MOL0     O29208  -0.979   2.414   6.643 -0.4460  0.6816  0.8379
  217MOL0     C29209  -0.734   2.513   6.627 -0.6658 -0.5637 -0.1816
  217MOL0     C29210  -0.596   2.530   6.616 -1.0976  0.4546  0.4388
  217MOL0     N29211   0.232   2.381   6.406 -0.4621 -0.5555  0.2865
  217MOL0     N29212   0.354   2.359   6.432 -0.9350 -0.6728  0.3055
  217MOL0     C29213   1.476   2.285   7.023  0.6015 -0.1414  1.1081
  217MOL0     C29214   1.605   2.236   6.987  0.1359  0.3156  0.7806
  217MOL0     C29215   1.957   2.108   6.684  1.2361 -0.4607 -0.8778
  217MOL0     C29216   2.004   1.978   6.720 -0.6893 -0.5423 -0.1134
  217MOL0     C29217   2.123   1.923   6.668  0.5266 -0.4696  0.4302
  217MOL0     C29218   2.196   1.993   6.573 -1.1678  0.4944 -0.0302
  217MOL0     O29219   2.311   1.941   6.515 -0.4106 -0.5967 -0.6536
  217MOL0     C29220   2.361   2.011   6.401 -1.3733  0.3449 -1.0188
  217MOL0     C29221   2.482   1.939   6.343  0.3958  0.2869 -0.2313
  217MOL0     C29222   2.602   1.934   6.436  0.0631  0.1200  0.3957
  217MOL0     C29223   2.707   1.845   6.371 -1.2058 -0.1824  0.0921
  217MOL0     C29224   2.821   1.830   6.459 -0.4652  0.5744 -0.1326
  217MOL0     C29225   2.917   1.817   6.534  0.2194  0.3029 -0.1099
  217MOL0     C29226   2.154   2.119   6.538  0.2950 -0.0848 -0.4908
  217MOL0     C29227   2.034   2.179   6.590  0.4220 -0.5555  0.5570
  217MOL0     H29228   1.550   2.100   6.691  0.5034  1.1551 -0.9642
  217MOL0     H29229   1.330   2.164   6.736  0.9862 -4.3801  0.1235
  217MOL0     H29230   1.173   2.510   7.000  0.1057 -1.2250  0.9530
  217MOL0     H29231   1.345   2.507   6.958 -0.4056  0.9019 -1.2754
  217MOL0     H29232   1.218   2.604   6.776 -0.8545 -0.4791  0.2306
  217MOL0     H29233   1.278   2.444   6.714  0.2365  0.7146 -0.5529
  217MOL0     H29234   1.097   2.323   6.736  1.4205  0.2456  1.6626
  217MOL0     H29235   0.999   2.451   6.813 -0.9830 -1.5074  0.1532
  217MOL0     H29236   1.038   2.575   6.594  0.1652 -0.3527 -0.8842
  217MOL0     H29237   1.066   2.423   6.520 -0.5056  0.1031 -0.5673
  217MOL0     H29238   0.859   2.338   6.644 -0.0132  1.1081  1.8891
  217MOL0     H29239   0.823   2.506   6.686 -0.7642 -2.1067  0.1734
  217MOL0     H29240   0.809   2.584   6.455 -0.9215  0.4379 -0.8519
  217MOL0     H29241   0.873   2.431   6.407 -0.7628  0.1455  0.0769
  217MOL0     H29242   0.637   2.445   6.349 -1.0197  1.4228  0.2301
  217MOL0     H29243   0.656   2.319   6.481 -1.8862  1.1518  2.5318
  217MOL0     H29244   0.571   2.614   6.522  2.4328 -0.4334 -0.1062
  217MOL0     H29245   0.544   2.477   6.630  2.2634  1.2255  0.8593
  217MOL0     H29246   0.319   2.681   6.483  0.0488 -0.2683 -1.0200
  217MOL0     H29247   0.069   2.673   6.358  0.2560  0.1842  0.8943
  217MOL0     H29248   0.018   2.522   6.290 -0.8440  1.1975  0.3842
  217MOL0     H29249  -0.009   2.606   6.570  0.1620  2.3510 -0.9627
  217MOL0     H29250  -0.050   2.440   6.514 -2.1623  0.7832  2.6242
  217MOL0     H29251  -0.196   2.556   6.338 -1.0019 -1.0257  0.4834
  217MOL0     H29252  -0.182   2.700   6.427 -1.7397 -0.8035 -3.7376
  217MOL0     H29253  -0.281   2.570   6.633  0.1523 -2.7972  0.6832
  217MOL0     H29254  -0.321   2.439   6.524  0.1378 -0.0765 -4.1102
  217MOL0     H29255  -0.583   2.639   6.302  0.1966 -0.8363 -0.2828
  217MOL0     H29256  -0.926   2.695   6.307 -1.1258 -0.9480  0.2189
  217MOL0     H29257  -0.793   2.648   6.196 -0.2420  0.4376 -0.3062
  217MOL0     H29258  -0.922   2.539   6.232  1.3100 -1.0256 -1.0194
  217MOL0     H29259  -1.261   2.675   6.603  0.1041 -0.2714 -0.2921
  217MOL0     H29260  -1.470   2.594   6.686  1.9900 -0.1646  1.8359
  217MOL0     H29261  -1.528   2.336   6.856  0.3364  0.5098  0.6359
  217MOL0     H29262  -1.622   2.477   6.795 -0.3465 -0.1403  0.2349
  217MOL0     H29263  -1.777   2.356   6.920  1.3291  1.8370 -0.2415
  217MOL0     H29264  -1.800   2.296   6.757 -1.8574  1.9807  1.6749
  217MOL0     H29265  -1.641   2.137   6.951  0.4620 -0.1338 -0.1245
  217MOL0     H29266  -1.677   2.096   6.787  2.0283 -1.9603  1.1016
  217MOL0     H29267  -1.939   2.152   6.904 -0.6535  0.2194  0.1330
  217MOL0     H29268  -1.882   2.011   6.820  2.2414 -1.8307  1.1922
  217MOL0     H29269  -1.959   1.953   7.034  0.4102 -0.4624  2.2473
  217MOL0     H29270  -1.824   2.026   7.113 -2.3579 -0.4539  1.4426
  217MOL0     H29271  -1.799   1.802   6.905 -3.2534  0.0011  2.3982
  217MOL0     H29272  -1.656   1.908   6.955 -0.1345  3.5399  1.2448
  217MOL0     H29273  -1.829   1.731   7.139 -1.8884  2.0588 -2.2223
  217MOL0     H29274  -1.675   1.820   7.177  2.9693 -2.2679 -0.5905
  217MOL0     H29275  -1.554   1.678   7.022 -0.4506  2.1858  1.5671
  217MOL0     H29276  -1.699   1.592   6.979  0.7209  0.0535 -0.4897
  217MOL0     H29277  -1.412   2.214   6.536  0.7788 -0.4367  3.1853
  217MOL0     H29278  -1.186   2.275   6.429  0.9758 -0.3433  0.8075
  217MOL0     H29279  -0.755   2.484   6.729 -2.1050  1.4203  0.1407
  217MOL0     H29280  -0.528   2.526   6.700  0.5467  0.4191 -0.8618
  217MOL0     H29281   1.445   2.343   7.109  1.7469  1.5810  0.4271
  217MOL0     H29282   1.680   2.258   7.062 -1.6684  3.4499  1.8619
  217MOL0     H29283   1.956   1.916   6.795  1.7999 -1.6049  0.6832
  217MOL0     H29284   2.144   1.821   6.695 -3.0339 -2.6702 -3.7474
  217MOL0     H29285   2.278   2.031   6.332 -2.8503 -1.1694  0.2289
  217MOL0     H29286   2.395   2.108   6.440 -3.2098  1.1109 -1.1945
  217MOL0     H29287   2.517   1.999   6.258  1.4029  1.7017  1.1199
  217MOL0     H29288   2.456   1.843   6.297 -0.4201  2.2779 -4.3461
  217MOL0     H29289   2.571   1.889   6.531  0.3772  0.5155  0.6883
  217MOL0     H29290   2.643   2.031   6.465 -1.7828  1.7323 -1.9599
  217MOL0     H29291   2.745   1.883   6.276 -0.1923 -2.2333 -0.3697
  217MOL0     H29292   2.677   1.740   6.361  1.4961 -1.2274  1.8888
  217MOL0     H29293   3.007   1.815   6.593  1.0846 -4.6183 -1.1648
  217MOL0     H29294   2.203   2.184   6.467  2.5537 -1.2573 -0.1022
  217MOL0     H29295   2.012   2.276   6.546 -2.3086  0.3869  3.6101
  218MOL0     O29296   5.045   5.114  10.262 -0.1914  0.1090  0.1090
  218MOL0     C29297   5.093   5.124  10.148 -0.1488 -0.1448  0.1635
  218MOL0     O29298   5.019   5.122  10.031 -0.2262 -0.2162 -0.2844
  218MOL0     C29299   4.881   5.112  10.050  0.7659 -0.0167  0.9173
  218MOL0     C29300   4.801   5.232  10.045 -1.1548 -0.6506  0.0524
  218MOL0     C29301   4.666   5.228  10.066 -0.9076  0.0339  0.0552
  218MOL0     C29302   4.600   5.106  10.077 -0.3118  0.6611 -0.3268
  218MOL0     O29303   4.475   5.086  10.101  0.3983 -0.1897  0.0357
  218MOL0     C29304   4.368   5.178  10.053 -0.4756 -0.1611 -0.0351
  218MOL0     C29305   4.237   5.104  10.040 -0.6369  0.0176 -0.3688
  218MOL0     C29306   4.128   5.200  10.004 -0.2005 -0.1074 -0.2793
  218MOL0     C29307   4.007   5.138   9.948  0.2848 -0.8019  0.3052
  218MOL0     C29308   3.882   5.214   9.985  0.0303  0.0530  0.1725
  218MOL0     C29309   3.882   5.357   9.912 -0.6635 -0.3591  0.2604
  218MOL0     C29310   3.757   5.434   9.924 -0.0012  0.1100  0.4937
  218MOL0     C29311   3.771   5.566   9.849  0.7690  0.0591  0.4526
  218MOL0     N29312   3.636   5.629   9.834  0.0151  0.1142  1.0336
  218MOL0     C29313   3.560   5.683   9.936 -0.0172 -0.3569  0.6055
  218MOL0     C29314   3.438   5.715   9.875  0.5518  0.8667 -0.9325
  218MOL0     C29315   3.319   5.772   9.961 -0.5711  0.4288 -0.1713
  218MOL0     C29316   3.290   5.709  10.099 -0.0577  0.7979  0.0375
  218MOL0     C29317   3.234   5.565  10.091  0.1331  0.1852  0.3344
  218MOL0     C29318   3.084   5.566  10.056  0.2853  0.1056  0.0814
  218MOL0     O29319   3.006   5.525  10.168  0.2981 -0.3590 -0.1287
  218MOL0     C29320   2.873   5.497  10.140 -0.5282 -0.4202 -0.1353
  218MOL0     C29321   2.802   5.401  10.213  0.1624  0.4227 -0.2756
  218MOL0     C29322   2.665   5.377  10.212  0.5079 -0.6460  0.1760
  218MOL0     C29323   2.602   5.264  10.291  0.6180  0.1074 -0.2881
  218MOL0     C29324   2.586   5.445  10.112 -0.4825 -0.5462 -0.1058
  218MOL0     C29325   2.443   5.430  10.091 -0.1448 -0.0903 -0.1613
  218MOL0     O29326   2.393   5.451   9.971  0.6854  0.2696 -0.0151
  218MOL0     C29327   2.256   5.441   9.959  0.1302 -0.4768 -0.4325
  218MOL0     C29328   2.212   5.325   9.900 -0.1777 -0.8724 -0.8996
  218MOL0     C29329   2.080   5.305   9.857  0.4775 -0.7421  0.4978
  218MOL0     C29330   1.986   5.409   9.873  0.9098  0.0442 -1.2366
  218MOL0     O29331   1.847   5.403   9.844 -0.0616  0.0729  0.1705
  218MOL0     C29332   1.801   5.277   9.801 -0.1850 -0.7449 -0.2294
  218MOL0     C29333   1.653   5.283   9.755  0.9876 -0.3630  0.1450
  218MOL0     C29334   1.560   5.248   9.860 -0.4441 -0.2300 -0.7209
  218MOL0     C29335   1.411   5.262   9.833  0.6587  1.3278  0.5113
  218MOL0     C29336   1.322   5.270   9.959  0.6324  0.5134  1.3861
  218MOL0     C29337   1.177   5.322   9.928  0.1159 -0.0893 -0.8119
  218MOL0     C29338   1.094   5.328  10.062  0.0748 -0.2273  0.0745
  218MOL0     C29339   0.950   5.346  10.036  0.1199 -0.0762  0.1898
  218MOL0    Cl29340   0.879   5.191   9.978  0.5649 -0.5825  0.0997
  218MOL0     C29341   2.032   5.524   9.935  0.2508 -0.3343 -0.8150
  218MOL0     C29342   2.162   5.547   9.988 -0.0998 -0.4723  0.4959
  218MOL0     O29343   2.380   5.415  10.197  0.1523  0.2009  0.7220
  218MOL0     C29344   2.660   5.537  10.034 -0.2260  0.5810 -0.5374
  218MOL0     C29345   2.799   5.564  10.047 -0.4698  0.0327  0.8903
  218MOL0     N29346   3.447   5.679   9.747 -0.0465 -0.4392  0.2695
  218MOL0     N29347   3.561   5.626   9.715  0.8425  0.1341  0.4248
  218MOL0     C29348   4.672   4.986  10.086  0.5697  0.7254 -0.2558
  218MOL0     C29349   4.810   4.993  10.079 -1.0022  0.8952 -0.7689
  218MOL0     C29350   5.234   5.121  10.125 -0.8802 -0.1187 -0.6336
  218MOL0     C29351   5.290   5.041  10.027 -0.7490 -0.6639 -0.0434
  218MOL0     C29352   5.434   5.029  10.013  0.5687  0.3948 -0.6775
  218MOL0     C29353   5.516   5.091  10.105  0.4386  0.3160 -0.4309
  218MOL0     O29354   5.651   5.091  10.091  0.3966  0.1977 -0.0864
  218MOL0     C29355   5.693   5.185   9.992  0.8918 -0.3699  0.7928
  218MOL0     C29356   5.837   5.171   9.946  0.3059  0.0318  0.2394
  218MOL0     C29357   5.946   5.171  10.060 -0.2855 -0.0958 -0.8431
  218MOL0     C29358   5.966   5.028  10.101 -0.3222  0.1169  0.1384
  218MOL0     C29359   6.052   5.020  10.217 -0.0258  0.3175 -0.2136
  218MOL0     C29360   6.132   5.025  10.304 -0.4313  0.4624 -0.2394
  218MOL0     C29361   5.449   5.166  10.212  0.7970 -0.2605  0.7038
  218MOL0     C29362   5.316   5.183  10.221  0.3331 -0.7514 -0.9252
  218MOL0     H29363   4.838   5.333  10.032 -1.8566 -0.3174  0.5594
  218MOL0     H29364   4.615   5.323  10.077  1.0412  1.1428 -0.1249
  218MOL0     H29365   4.353   5.259  10.125  1.8252  0.4042 -0.0856
  218MOL0     H29366   4.401   5.217   9.956  1.2558 -0.2292  0.4958
  218MOL0     H29367   4.234   5.016   9.975 -1.7526 -1.5920  1.7135
  218MOL0     H29368   4.215   5.049  10.132 -2.4329 -0.3503 -0.9824
  218MOL0     H29369   4.097   5.255  10.093 -0.9736  0.9549 -1.1876
  218MOL0     H29370   4.178   5.272   9.938  2.4661  0.1727  1.8891
  218MOL0     H29371   4.023   5.155   9.841  0.6248 -0.8965  0.3380
  218MOL0     H29372   4.004   5.030   9.966  1.8172 -1.0729 -0.8045
  218MOL0     H29373   3.798   5.159   9.943 -1.0147  0.9414  1.0584
  218MOL0     H29374   3.875   5.233  10.092  0.4778  1.8816 -0.0875
  218MOL0     H29375   3.965   5.412   9.957  0.7718  0.6991 -3.2771
  218MOL0     H29376   3.912   5.362   9.807  0.3547  1.8221  0.6035
  218MOL0     H29377   3.669   5.378   9.891 -0.8245  0.3701  2.1395
  218MOL0     H29378   3.745   5.453  10.031 -0.0420  1.6256  0.2372
  218MOL0     H29379   3.802   5.550   9.745  0.1854  0.5909  0.1901
  218MOL0     H29380   3.849   5.619   9.905  2.0731  0.0036 -1.2269
  218MOL0     H29381   3.574   5.701  10.042  1.5567  0.2144  0.3338
  218MOL0     H29382   3.349   5.877   9.971  2.6215 -0.4616  0.7393
  218MOL0     H29383   3.231   5.773   9.896  0.3882  1.3496 -1.5284
  218MOL0     H29384   3.214   5.773  10.143 -1.6585 -0.6517 -0.4882
  218MOL0     H29385   3.376   5.703  10.166 -0.1396  0.5221  0.1183
  218MOL0     H29386   3.236   5.514  10.187  1.3396 -0.0113  0.2197
  218MOL0     H29387   3.302   5.506  10.028  0.8634 -0.1584  1.4105
  218MOL0     H29388   3.058   5.515   9.963  0.0436  2.4526 -1.2074
  218MOL0     H29389   3.058   5.668  10.026  2.1423  0.6838  0.2932
  218MOL0     H29390   2.863   5.344  10.282 -0.1706  1.1670  0.6727
  218MOL0     H29391   2.533   5.206  10.229 -0.0258 -0.5463  1.0065
  218MOL0     H29392   2.666   5.187  10.336 -0.8821  0.3890  2.5502
  218MOL0     H29393   2.550   5.304  10.378 -1.5107  0.1312 -1.5153
  218MOL0     H29394   2.285   5.246   9.888  0.2133 -0.1170 -4.9026
  218MOL0     H29395   2.059   5.211   9.807  1.4268 -0.2561 -0.8730
  218MOL0     H29396   1.857   5.247   9.712  1.2051  1.1179 -0.0397
  218MOL0     H29397   1.823   5.203   9.878 -1.5677 -1.3424 -0.3876
  218MOL0     H29398   1.631   5.386   9.725  1.4259 -0.3785 -0.2347
  218MOL0     H29399   1.635   5.204   9.681 -2.3087 -1.2141  1.6481
  218MOL0     H29400   1.582   5.313   9.946  0.8888 -0.8002 -0.5928
  218MOL0     H29401   1.593   5.151   9.898 -0.2224  0.1956  0.2232
  218MOL0     H29402   1.407   5.361   9.786 -0.5309  1.5527  1.0497
  218MOL0     H29403   1.385   5.190   9.754 -1.0657  2.0726  0.3585
  218MOL0     H29404   1.369   5.340  10.029  0.4670  2.1174 -0.0545
  218MOL0     H29405   1.323   5.164   9.984  1.4428 -1.4657 -5.2432
  218MOL0     H29406   1.163   5.422   9.885 -0.0469 -0.3864 -1.4611
  218MOL0     H29407   1.132   5.258   9.852  0.7467 -3.2348  1.2958
  218MOL0     H29408   1.119   5.419  10.118  1.1695 -0.9128  0.7337
  218MOL0     H29409   1.109   5.247  10.135 -0.4629  1.2182  1.8791
  218MOL0     H29410   0.944   5.419   9.955 -0.8098 -1.9178 -1.5031
  218MOL0     H29411   0.899   5.385  10.124 -1.3272 -2.8433  0.7063
  218MOL0     H29412   1.965   5.609   9.948  3.1757  1.7368  2.1067
  218MOL0     H29413   2.197   5.637  10.038 -1.6348 -1.2538  3.1305
  218MOL0     H29414   2.611   5.592   9.954 -3.3781 -0.6200  0.4112
  218MOL0     H29415   2.848   5.642   9.989 -1.0203 -1.2885 -1.4694
  218MOL0     H29416   4.623   4.890  10.097 -0.6584  1.0395 -2.3719
  218MOL0     H29417   4.871   4.906  10.104 -3.4553 -0.5585  0.5211
  218MOL0     H29418   5.240   4.981   9.952  0.6197 -0.5528 -1.0734
  218MOL0     H29419   5.479   4.964   9.938 -0.7755  0.7882 -1.8699
  218MOL0     H29420   5.629   5.167   9.906  0.7927  0.0721  0.7701
  218MOL0     H29421   5.679   5.290  10.021  1.1274 -0.6334  1.8944
  218MOL0     H29422   5.844   5.263   9.887 -2.0340  1.3534  1.8355
  218MOL0     H29423   5.847   5.080   9.887 -2.3950 -0.0629 -0.2006
  218MOL0     H29424   5.914   5.232  10.145 -0.3237 -0.4784 -0.5802
  218MOL0     H29425   6.034   5.211  10.009  1.1367 -1.9526  0.0375
  218MOL0     H29426   6.025   4.981  10.022  0.0204 -0.9453  1.0127
  218MOL0     H29427   5.867   4.985  10.119  0.0856 -1.0276 -0.2947
  218MOL0     H29428   6.201   5.032  10.386 -1.3399 -0.1815  0.5956
  218MOL0     H29429   5.515   5.221  10.279  0.4822  0.4640  0.4235
  218MOL0     H29430   5.285   5.238  10.309  1.2540  1.7979 -2.1119
  219MOL0     O29431   2.166   8.128  11.126 -0.1027 -0.9041 -0.4513
  219MOL0     C29432   2.193   8.033  11.050 -0.1941  0.5141 -0.7495
  219MOL0     O29433   2.108   7.936  11.010  0.4314 -0.0915  1.0280
  219MOL0     C29434   1.979   7.949  11.050  0.3558 -0.9514 -0.2087
  219MOL0     C29435   1.883   7.993  10.955 -0.5789  0.3696  0.9200
  219MOL0     C29436   1.754   8.015  10.989 -0.2942  0.3521 -0.1545
  219MOL0     C29437   1.710   7.981  11.123  0.4186 -0.3883 -0.4816
  219MOL0     O29438   1.581   7.992  11.169 -0.1037  0.4646 -0.1161
  219MOL0     C29439   1.474   8.035  11.082  0.2870 -0.1059  0.1946
  219MOL0     C29440   1.356   7.954  11.134  0.6794 -0.6390 -1.1155
  219MOL0     C29441   1.306   7.995  11.270  0.2885  0.4503  0.0513
  219MOL0     C29442   1.216   8.115  11.266 -0.2398  0.3059 -0.2761
  219MOL0     C29443   1.151   8.149  11.398  0.8184 -0.2985 -0.6226
  219MOL0     C29444   1.090   8.289  11.392 -0.1312 -0.6049  0.1441
  219MOL0     C29445   0.983   8.318  11.492 -0.1919 -0.9845 -0.2755
  219MOL0     C29446   1.019   8.333  11.635  0.3837  0.9184 -0.0962
  219MOL0     N29447   1.110   8.445  11.655  0.3824  0.0591  0.7178
  219MOL0     C29448   1.252   8.447  11.638 -1.1100  0.9230  0.3131
  219MOL0     C29449   1.298   8.573  11.657  0.1082  0.2600 -0.1099
  219MOL0     C29450   1.441   8.614  11.663  0.2887  0.4853  0.2928
  219MOL0     C29451   1.495   8.664  11.531  0.7357  0.6775  0.4113
  219MOL0     C29452   1.451   8.810  11.503 -0.0861 -0.0544 -0.1700
  219MOL0     C29453   1.567   8.885  11.423 -0.6422  0.5901 -0.5331
  219MOL0     O29454   1.601   8.809  11.307  0.0003 -0.0652 -0.6303
  219MOL0     C29455   1.722   8.849  11.255  0.0782  0.3326 -0.0456
  219MOL0     C29456   1.780   8.970  11.267  0.2518 -0.3787 -0.2570
  219MOL0     C29457   1.905   9.004  11.202  0.0830  0.3914 -0.2686
  219MOL0     C29458   1.946   9.149  11.230  0.5205 -0.7678 -0.1877
  219MOL0     C29459   1.980   8.897  11.149  0.0826 -0.4552  0.7565
  219MOL0     C29460   2.115   8.907  11.085 -0.4169 -0.1974  0.6476
  219MOL0     O29461   2.178   8.804  11.036 -0.4877  0.4811  0.2881
  219MOL0     C29462   2.295   8.819  10.959  0.2500  0.8571  0.6501
  219MOL0     C29463   2.277   8.819  10.818 -0.0919  0.5457 -0.4585
  219MOL0     C29464   2.390   8.829  10.738  0.0594 -0.0724 -0.2150
  219MOL0     C29465   2.522   8.858  10.783 -0.3209 -0.0013 -0.0025
  219MOL0     O29466   2.622   8.875  10.693 -0.0021  0.0659 -0.1200
  219MOL0     C29467   2.756   8.891  10.732  0.1646 -0.2271 -0.3957
  219MOL0     C29468   2.851   8.898  10.614 -1.0220  0.4477  1.0050
  219MOL0     C29469   2.996   8.943  10.668  0.4151 -0.1388  0.1986
  219MOL0     C29470   3.107   8.908  10.566 -0.4576 -0.6302  0.4801
  219MOL0     C29471   3.235   8.980  10.621 -0.9305 -0.7139  0.3528
  219MOL0     C29472   3.372   8.927  10.595 -0.5019 -0.5590  0.2088
  219MOL0     C29473   3.389   8.886  10.455  0.2697 -0.0986 -0.1833
  219MOL0     C29474   3.376   9.002  10.356 -0.2988 -0.5653  0.3018
  219MOL0    Cl29475   3.418   8.958  10.187  0.0889 -0.0701 -0.0389
  219MOL0     C29476   2.534   8.859  10.923 -0.7493  0.3311  0.1914
  219MOL0     C29477   2.428   8.831  11.009 -0.9287  0.5989  0.4767
  219MOL0     O29478   2.171   9.016  11.089  0.1764  0.4438 -0.7771
  219MOL0     C29479   1.924   8.768  11.138 -0.0141 -0.4979 -0.3834
  219MOL0     C29480   1.798   8.750  11.192  0.5523 -0.0041 -0.7290
  219MOL0     N29481   1.186   8.649  11.681  0.5966 -0.2568 -0.6182
  219MOL0     N29482   1.079   8.576  11.675  0.1484  0.6953 -0.0120
  219MOL0     C29483   1.811   7.952  11.222 -0.2946 -0.8248  0.4674
  219MOL0     C29484   1.945   7.933  11.190  0.3341  0.9699  0.1656
  219MOL0     C29485   2.331   8.021  11.007  0.1047  0.2305  0.1623
  219MOL0     C29486   2.440   8.073  11.078 -0.1531  0.0453  0.4621
  219MOL0     C29487   2.571   8.059  11.024  0.5936  0.0102  0.2878
  219MOL0     C29488   2.594   7.986  10.911 -0.4943  1.0901 -0.9015
  219MOL0     O29489   2.723   7.961  10.889 -0.0285 -0.6321 -0.0246
  219MOL0     C29490   2.762   7.959  10.754 -1.1145  0.2022  0.0047
  219MOL0     C29491   2.922   7.948  10.748  0.5412  0.6257 -0.0672
  219MOL0     C29492   2.996   8.072  10.800 -0.2518 -0.1190 -0.5122
  219MOL0     C29493   3.148   8.043  10.801  0.9067  0.2823  1.1963
  219MOL0     C29494   3.232   8.150  10.854 -0.9871 -0.1671  0.2349
  219MOL0     C29495   3.320   8.224  10.893  1.4357 -0.2979 -0.4884
  219MOL0     C29496   2.486   7.932  10.840 -1.0947  0.0538 -0.0931
  219MOL0     C29497   2.353   7.960  10.883  0.0716 -0.1478  0.2820
  219MOL0     H29498   1.908   8.017  10.852 -1.0326 -2.4630  0.0689
  219MOL0     H29499   1.701   8.057  10.904  0.4634 -2.1372 -1.9891
  219MOL0     H29500   1.463   8.144  11.076 -2.4788 -0.3188  0.3291
  219MOL0     H29501   1.491   7.999  10.980  0.8336  0.5104  0.0598
  219MOL0     H29502   1.270   7.975  11.068  0.9760  1.0428 -1.0163
  219MOL0     H29503   1.381   7.850  11.153  1.9981 -0.1666 -0.1335
  219MOL0     H29504   1.254   7.910  11.315 -0.6600 -0.1178 -1.9917
  219MOL0     H29505   1.390   8.034  11.328  2.3751 -0.2612 -2.3384
  219MOL0     H29506   1.277   8.195  11.224 -1.6684 -0.0851 -3.3760
  219MOL0     H29507   1.134   8.106  11.194 -2.0505  0.0765  1.7257
  219MOL0     H29508   1.073   8.078  11.426  1.9448 -1.6433 -0.7845
  219MOL0     H29509   1.224   8.133  11.478 -0.5785 -4.7181  0.0162
  219MOL0     H29510   1.168   8.361  11.417 -0.0516 -0.5292 -0.3212
  219MOL0     H29511   1.056   8.315  11.292 -0.7864 -0.8247  0.3005
  219MOL0     H29512   0.917   8.401  11.465 -1.8657 -2.8123 -2.2576
  219MOL0     H29513   0.909   8.239  11.471 -2.7228  0.5409  2.1184
  219MOL0     H29514   1.073   8.246  11.674 -1.6296 -0.2259  0.2741
  219MOL0     H29515   0.918   8.342  11.678 -0.4554 -1.1018 -1.4661
  219MOL0     H29516   1.318   8.365  11.612 -0.3680  1.3512  0.8177
  219MOL0     H29517   1.457   8.683  11.747 -0.2110 -0.0564  0.8409
  219MOL0     H29518   1.496   8.523  11.689 -2.5876 -1.0528  1.4348
  219MOL0     H29519   1.476   8.603  11.442 -0.4474 -0.8817  1.6677
  219MOL0     H29520   1.604   8.654  11.538  0.8647  0.7741 -1.1974
  219MOL0     H29521   1.418   8.867  11.590  0.5473 -1.5450  1.1021
  219MOL0     H29522   1.355   8.805  11.452 -0.7842  1.7119  0.9026
  219MOL0     H29523   1.654   8.897  11.488  1.2817  1.1322 -3.0223
  219MOL0     H29524   1.537   8.988  11.404  1.5319  0.9168 -2.7835
  219MOL0     H29525   1.737   9.048  11.328  1.5381  0.2162 -0.0689
  219MOL0     H29526   1.968   9.164  11.336 -0.8533 -3.3467  0.5457
  219MOL0     H29527   2.033   9.186  11.176 -1.7533 -1.2228 -4.6762
  219MOL0     H29528   1.864   9.218  11.206 -1.6480 -3.5769 -1.4891
  219MOL0     H29529   2.183   8.791  10.772 -2.4004 -0.1149  4.1457
  219MOL0     H29530   2.371   8.818  10.632  0.8108 -1.9012 -0.1984
  219MOL0     H29531   2.771   8.969  10.807 -1.7195 -1.7876  1.7522
  219MOL0     H29532   2.781   8.794  10.776  0.3132 -0.0219 -0.0253
  219MOL0     H29533   2.850   8.813  10.544 -0.0712  0.7695  0.5915
  219MOL0     H29534   2.822   8.986  10.556  1.3216  0.7959  0.2474
  219MOL0     H29535   3.010   8.896  10.766 -0.8997  0.2715  0.6104
  219MOL0     H29536   3.001   9.052  10.682 -1.4564 -0.0788  0.7002
  219MOL0     H29537   3.112   8.801  10.542 -0.9611 -0.7494  0.8809
  219MOL0     H29538   3.074   8.966  10.480 -0.8983 -0.9530  0.4241
  219MOL0     H29539   3.234   8.973  10.730  0.6316  1.6259  0.5697
  219MOL0     H29540   3.238   9.083  10.586  0.4785 -0.3441  1.4782
  219MOL0     H29541   3.454   8.994  10.625 -0.2640 -0.6115 -0.3254
  219MOL0     H29542   3.395   8.843  10.661  1.3471 -1.4687 -1.4769
  219MOL0     H29543   3.309   8.816  10.430 -1.4471  2.3453 -2.0204
  219MOL0     H29544   3.488   8.839  10.449  0.7765  0.5113  2.2646
  219MOL0     H29545   3.448   9.078  10.386 -2.2844  0.8570  1.7252
  219MOL0     H29546   3.274   9.042  10.352 -1.1848 -2.5135  1.8215
  219MOL0     H29547   2.627   8.876  10.977 -0.6833 -2.9101  1.3424
  219MOL0     H29548   2.438   8.830  11.117 -0.1671 -3.3973  0.5189
  219MOL0     H29549   1.975   8.688  11.086  0.8731  0.6477 -1.3413
  219MOL0     H29550   1.757   8.649  11.187 -0.7801  0.5266 -1.1003
  219MOL0     H29551   1.781   7.941  11.326 -0.7869 -0.4287  0.3673
  219MOL0     H29552   2.029   7.912  11.256  1.9837  0.3040 -2.0139
  219MOL0     H29553   2.435   8.125  11.173  4.7290  0.2865  0.8476
  219MOL0     H29554   2.657   8.098  11.077 -0.6299 -1.3161  3.5776
  219MOL0     H29555   2.711   7.881  10.698 -0.4543  0.2906 -0.7321
  219MOL0     H29556   2.729   8.053  10.709 -0.9711 -0.1522 -0.8431
  219MOL0     H29557   2.942   7.935  10.642  0.6694 -0.0115  0.0325
  219MOL0     H29558   2.955   7.863  10.809  1.5161  1.1100  0.0885
  219MOL0     H29559   2.970   8.098  10.903  2.9678  6.1755 -0.8142
  219MOL0     H29560   2.974   8.163  10.744 -2.2952 -1.3474 -1.8147
  219MOL0     H29561   3.184   8.033  10.698  0.0214  3.4909  0.4752
  219MOL0     H29562   3.170   7.959  10.868  3.4637  0.3782  0.5752
  219MOL0     H29563   3.386   8.303  10.922  0.5262  0.7481 -1.1752
  219MOL0     H29564   2.497   7.859  10.760  1.7709 -0.5953  0.7621
  219MOL0     H29565   2.273   7.931  10.815  1.6904  0.3560 -1.9384
  220MOL0     O29566   6.669   3.091   9.115 -0.3123 -0.1125  0.4081
  220MOL0     C29567   6.755   3.069   9.026  0.7502  0.3283 -0.1962
  220MOL0     O29568   6.719   3.034   8.898  0.0463 -0.1637 -0.4706
  220MOL0     C29569   6.591   3.035   8.851 -0.4371 -0.3519 -0.3333
  220MOL0     C29570   6.532   3.164   8.827 -0.4720  0.2442 -0.2398
  220MOL0     C29571   6.402   3.177   8.768 -0.2369  1.3053  0.2457
  220MOL0     C29572   6.317   3.061   8.766 -0.4935 -0.0059 -0.7027
  220MOL0     O29573   6.193   3.087   8.716 -0.5033  0.1854  0.0896
  220MOL0     C29574   6.098   2.976   8.716 -0.0602  0.0050 -0.3660
  220MOL0     C29575   5.960   3.052   8.690 -0.5180  0.2280  0.2398
  220MOL0     C29576   5.857   2.935   8.679  1.3268 -0.0678 -0.1768
  220MOL0     C29577   5.815   2.892   8.815 -0.5052 -0.3720  0.6533
  220MOL0     C29578   5.701   2.792   8.801 -0.1548 -0.1026  0.2068
  220MOL0     C29579   5.609   2.770   8.916 -0.1413  0.2558 -0.7144
  220MOL0     C29580   5.473   2.711   8.877 -0.3156  1.1315  0.2448
  220MOL0     C29581   5.409   2.675   9.008 -0.1669 -0.0413 -0.1634
  220MOL0     N29582   5.270   2.654   8.992 -0.3383  0.7470 -0.4962
  220MOL0     C29583   5.181   2.754   8.996 -0.3099 -0.2296 -0.3354
  220MOL0     C29584   5.066   2.678   8.976  0.2719 -0.1068 -0.2062
  220MOL0     C29585   4.928   2.747   8.985  0.1585 -1.1246  0.0704
  220MOL0     C29586   4.877   2.745   9.131  0.9199  0.2688 -0.4355
  220MOL0     C29587   4.784   2.621   9.145 -0.1240  0.3233  0.0046
  220MOL0     C29588   4.700   2.612   9.270 -0.8473 -0.1774 -0.7380
  220MOL0     O29589   4.590   2.698   9.253 -0.3506 -0.2488 -0.2315
  220MOL0     C29590   4.488   2.691   9.347  0.4346 -0.9046 -0.6543
  220MOL0     C29591   4.479   2.614   9.470  0.5736  0.1307  0.9420
  220MOL0     C29592   4.368   2.622   9.555 -0.0968  0.0781  0.3649
  220MOL0     C29593   4.361   2.532   9.677  0.4144 -0.3850 -0.2760
  220MOL0     C29594   4.264   2.705   9.514  0.6687 -0.3635  0.2780
  220MOL0     C29595   4.144   2.729   9.596  0.1167  1.7719  0.8847
  220MOL0     O29596   4.025   2.696   9.538  0.6347  0.0988 -0.4865
  220MOL0     C29597   3.901   2.678   9.607  0.7036 -0.4436  0.3320
  220MOL0     C29598   3.791   2.641   9.522  0.9718 -0.0952  0.0192
  220MOL0     C29599   3.665   2.615   9.580  0.7200 -0.3870 -0.2470
  220MOL0     C29600   3.650   2.623   9.720 -0.4237 -0.2011 -0.0994
  220MOL0     O29601   3.532   2.580   9.771 -0.1016  0.0308  0.3095
  220MOL0     C29602   3.543   2.446   9.826  0.8016  0.5731 -0.1330
  220MOL0     C29603   3.472   2.339   9.738  0.0602 -0.2606  0.5740
  220MOL0     C29604   3.359   2.402   9.662  0.6344  0.2067  0.0912
  220MOL0     C29605   3.275   2.312   9.562  0.4194  0.2440 -0.6085
  220MOL0     C29606   3.202   2.204   9.640  1.0823  0.5398  0.4119
  220MOL0     C29607   3.109   2.121   9.551  0.3091  0.1811 -0.3777
  220MOL0     C29608   3.005   2.195   9.487  0.3215 -0.5178 -0.1850
  220MOL0     C29609   2.897   2.100   9.442 -0.0943 -0.5496 -0.3812
  220MOL0    Cl29610   2.759   2.216   9.385  0.1686 -0.2934 -0.2944
  220MOL0     C29611   3.753   2.663   9.805  0.4422 -0.0149 -0.6959
  220MOL0     C29612   3.877   2.685   9.745 -0.1492  0.1726  0.2954
  220MOL0     O29613   4.160   2.765   9.708  0.6392 -0.3142 -0.4949
  220MOL0     C29614   4.272   2.783   9.391  0.3967 -0.7680 -1.0644
  220MOL0     C29615   4.386   2.774   9.314  0.5302  0.5625  0.0859
  220MOL0     N29616   5.091   2.541   8.950 -0.4077  0.8417  0.8962
  220MOL0     N29617   5.222   2.524   8.965 -0.3503 -0.0650  0.5855
  220MOL0     C29618   6.377   2.934   8.804  0.7388 -0.6910 -0.1737
  220MOL0     C29619   6.516   2.926   8.843  0.1429 -0.1158 -0.3447
  220MOL0     C29620   6.895   3.080   9.056  0.1111  0.4426  0.7577
  220MOL0     C29621   6.939   3.100   9.189  0.2150 -0.0167  0.0557
  220MOL0     C29622   7.074   3.123   9.223 -0.0043  0.3216 -0.2061
  220MOL0     C29623   7.172   3.131   9.119 -0.4183  0.4076 -0.2920
  220MOL0     O29624   7.302   3.155   9.171  0.5308 -0.5612  0.1415
  220MOL0     C29625   7.409   3.182   9.078  0.0273 -0.5759 -0.1858
  220MOL0     C29626   7.543   3.204   9.152  0.4084  0.2560 -0.0607
  220MOL0     C29627   7.618   3.075   9.171 -0.4304  0.2305 -1.1059
  220MOL0     C29628   7.707   3.021   9.050 -0.0225 -0.0617  0.1287
  220MOL0     C29629   7.818   3.122   9.016  1.1814 -0.4260 -1.1088
  220MOL0     C29630   7.912   3.202   8.999  0.0371  0.4669  0.1977
  220MOL0     C29631   7.134   3.117   8.988 -0.0619 -0.0722  0.1452
  220MOL0     C29632   6.993   3.093   8.957  0.0766 -0.2628  0.3242
  220MOL0     H29633   6.592   3.254   8.833 -0.2801  0.1014 -0.0324
  220MOL0     H29634   6.361   3.274   8.740  0.4346  1.2316 -1.0546
  220MOL0     H29635   6.118   2.903   8.637 -2.9863  1.9422 -3.1378
  220MOL0     H29636   6.089   2.936   8.818  2.3157  1.9471  0.7294
  220MOL0     H29637   5.934   3.132   8.759 -2.3990  1.4526 -1.7642
  220MOL0     H29638   5.963   3.106   8.595 -2.5182  0.9285  0.5242
  220MOL0     H29639   5.772   2.976   8.625  3.1453  0.0729 -3.1569
  220MOL0     H29640   5.886   2.853   8.613  2.4174 -0.8968  1.2577
  220MOL0     H29641   5.898   2.846   8.870  0.2563  0.5222  0.2877
  220MOL0     H29642   5.793   2.985   8.867  2.0474  1.2316 -0.9208
  220MOL0     H29643   5.640   2.818   8.714 -1.1905  0.2543  1.0249
  220MOL0     H29644   5.754   2.700   8.774  0.3773 -0.1368  1.2873
  220MOL0     H29645   5.657   2.715   8.998  1.5276  2.2930 -0.2341
  220MOL0     H29646   5.592   2.868   8.962 -0.4028 -0.0607 -0.1182
  220MOL0     H29647   5.419   2.786   8.818  0.8033  0.8245 -1.2056
  220MOL0     H29648   5.499   2.624   8.816 -2.3283  0.1609  0.6934
  220MOL0     H29649   5.423   2.764   9.070 -0.6124  0.6701 -1.0551
  220MOL0     H29650   5.453   2.584   9.050 -3.2004 -1.2125  0.7500
  220MOL0     H29651   5.184   2.861   9.015  0.1699 -0.3200  0.1177
  220MOL0     H29652   4.934   2.851   8.950  0.3081 -0.9040  0.7260
  220MOL0     H29653   4.866   2.693   8.913  0.1047 -2.8698  1.3890
  220MOL0     H29654   4.811   2.830   9.149 -1.5303 -1.4483 -0.8556
  220MOL0     H29655   4.953   2.747   9.210  2.3674 -1.1715 -1.7305
  220MOL0     H29656   4.831   2.522   9.138 -3.0808 -1.1103 -1.3896
  220MOL0     H29657   4.715   2.619   9.060 -0.6226  0.4382  0.4014
  220MOL0     H29658   4.763   2.636   9.357  0.3932 -1.4131 -1.2671
  220MOL0     H29659   4.663   2.510   9.283  4.3461 -2.5138 -2.0473
  220MOL0     H29660   4.556   2.545   9.502 -0.4607 -1.4072  0.2610
  220MOL0     H29661   4.264   2.482   9.691  2.2841 -4.7269 -1.1506
  220MOL0     H29662   4.436   2.452   9.676  4.0439  2.7388  0.8359
  220MOL0     H29663   4.391   2.583   9.769 -1.1887  1.0215 -0.4891
  220MOL0     H29664   3.806   2.621   9.417  0.0805 -1.3316  0.1084
  220MOL0     H29665   3.580   2.577   9.524 -0.7693 -1.0472  2.3253
  220MOL0     H29666   3.643   2.420   9.862 -1.7143 -2.0695  6.4188
  220MOL0     H29667   3.483   2.454   9.917 -0.2896  4.9661 -0.9926
  220MOL0     H29668   3.548   2.305   9.667 -1.1629 -0.1093 -0.8373
  220MOL0     H29669   3.437   2.264   9.809 -2.8479  0.5948  0.1853
  220MOL0     H29670   3.404   2.477   9.597  0.0576  0.5188  0.0459
  220MOL0     H29671   3.298   2.457   9.733 -3.7522 -1.8557 -1.7232
  220MOL0     H29672   3.204   2.381   9.515 -2.2739 -0.5911  1.8651
  220MOL0     H29673   3.340   2.267   9.487  0.0022 -3.3149  0.9821
  220MOL0     H29674   3.146   2.247   9.723  2.4676  0.6081  1.3246
  220MOL0     H29675   3.281   2.140   9.680  1.2459 -0.6337 -1.6210
  220MOL0     H29676   3.164   2.073   9.469 -2.1366 -1.2569 -1.2820
  220MOL0     H29677   3.065   2.050   9.623  0.8943  1.3654  1.2039
  220MOL0     H29678   3.056   2.238   9.400 -1.6402 -0.2963 -1.2673
  220MOL0     H29679   2.965   2.279   9.544  4.4470 -0.3474  2.9276
  220MOL0     H29680   2.854   2.033   9.517 -3.3413 -0.9071 -2.3716
  220MOL0     H29681   2.937   2.043   9.357  2.7176  1.1973 -0.3718
  220MOL0     H29682   3.749   2.679   9.912  0.9784  1.0035 -0.8223
  220MOL0     H29683   3.960   2.713   9.809 -0.6701  2.7521 -0.0231
  220MOL0     H29684   4.187   2.848   9.375 -2.4632 -4.2639 -1.4392
  220MOL0     H29685   4.394   2.821   9.216 -1.9667 -1.0412 -1.0144
  220MOL0     H29686   6.309   2.851   8.823 -2.9801  2.4132  1.4711
  220MOL0     H29687   6.546   2.827   8.877 -1.2668 -1.2891 -2.2846
  220MOL0     H29688   6.865   3.096   9.268  0.8491  0.1973  0.6648
  220MOL0     H29689   7.116   3.129   9.323  0.9903  0.5408 -0.6249
  220MOL0     H29690   7.418   3.100   9.006 -1.4399 -0.2786 -0.7563
  220MOL0     H29691   7.397   3.275   9.021 -2.3832  0.1599  1.3497
  220MOL0     H29692   7.531   3.253   9.249  0.9276 -1.8563  1.1330
  220MOL0     H29693   7.595   3.281   9.094  0.0134 -0.4379 -1.3915
  220MOL0     H29694   7.555   2.995   9.212 -0.3177  0.3875 -0.6199
  220MOL0     H29695   7.693   3.100   9.247 -1.3403 -3.6480  1.3248
  220MOL0     H29696   7.641   2.991   8.969 -1.0779 -1.5005  1.4661
  220MOL0     H29697   7.762   2.932   9.082 -0.1267 -0.6084 -1.1646
  220MOL0     H29698   7.988   3.277   8.990  0.6735 -0.0608  0.9881
  220MOL0     H29699   7.204   3.131   8.906  0.4664 -1.1609  0.3872
  220MOL0     H29700   6.966   3.079   8.852 -0.4478  1.1127  0.2582
  221MOL0     O29701   9.262   3.151  10.897  0.1216  0.0896  0.0560
  221MOL0     C29702   9.346   3.163  10.805  0.2731 -0.1912 -0.3800
  221MOL0     O29703   9.322   3.131  10.674  0.1234  0.9391 -0.6653
  221MOL0     C29704   9.201   3.119  10.624  1.4770  0.4502  0.1652
  221MOL0     C29705   9.174   3.038  10.515 -0.9439 -0.4056 -0.4791
  221MOL0     C29706   9.050   3.012  10.455  0.6528  0.3244 -0.8368
  221MOL0     C29707   8.936   3.073  10.507 -0.3129  0.3663  0.1598
  221MOL0     O29708   8.821   3.054  10.441 -0.7840 -1.0261 -0.1333
  221MOL0     C29709   8.723   3.004  10.535 -0.0563 -0.1725  0.2975
  221MOL0     C29710   8.598   2.974  10.457 -0.3396 -0.0244 -0.1761
  221MOL0     C29711   8.624   2.859  10.359 -0.7013 -0.5230  0.2808
  221MOL0     C29712   8.505   2.767  10.344 -0.1408 -0.0456 -0.2394
  221MOL0     C29713   8.541   2.652  10.249  0.1145  0.3608  0.4087
  221MOL0     C29714   8.438   2.542  10.251 -0.3795 -0.9594  1.4072
  221MOL0     C29715   8.481   2.439  10.144  0.8980  0.2808 -0.5848
  221MOL0     C29716   8.364   2.431  10.050  0.2762  0.1460  0.2725
  221MOL0     N29717   8.409   2.366   9.931  0.6078 -0.0197  0.9141
  221MOL0     C29718   8.452   2.240   9.912 -0.0401  0.3805  0.6628
  221MOL0     C29719   8.512   2.238   9.794 -0.2782 -0.0374 -0.2170
  221MOL0     C29720   8.575   2.107   9.741  0.3944 -0.2897 -0.7718
  221MOL0     C29721   8.457   1.998   9.736  0.1146 -0.2002  0.5670
  221MOL0     C29722   8.331   2.033   9.663  0.5411 -0.0986 -0.0389
  221MOL0     C29723   8.246   1.908   9.629  0.6796 -0.0717 -0.5045
  221MOL0     O29724   8.225   1.826   9.741  0.1211  0.2441  0.5582
  221MOL0     C29725   8.103   1.825   9.805 -0.8876  0.5390  0.0637
  221MOL0     C29726   8.018   1.719   9.783  0.2212 -0.2991 -0.1371
  221MOL0     C29727   7.884   1.728   9.831 -0.0301  0.5351 -0.1346
  221MOL0     C29728   7.799   1.614   9.807 -0.5927  0.5871  0.2728
  221MOL0     C29729   7.833   1.842   9.898 -0.1561  0.0612  0.0501
  221MOL0     C29730   7.686   1.876   9.936 -0.2888 -0.1099  0.5915
  221MOL0     O29731   7.664   1.967  10.036  0.9602 -0.4513  0.2952
  221MOL0     C29732   7.543   1.999  10.062  0.4966 -0.5224 -0.1385
  221MOL0     C29733   7.455   2.062   9.965 -1.0485  0.4625  0.3981
  221MOL0     C29734   7.320   2.090  10.006  0.0843 -0.2376 -0.2938
  221MOL0     C29735   7.288   2.091  10.144  0.5041  0.0838  0.4078
  221MOL0     O29736   7.161   2.119  10.191 -0.2345  0.2099 -0.0176
  221MOL0     C29737   7.059   2.161  10.094  0.0961 -0.0136  0.1156
  221MOL0     C29738   6.923   2.156  10.167 -0.7336 -0.2915 -0.2269
  221MOL0     C29739   6.790   2.181  10.092  0.0175  0.3036  0.0429
  221MOL0     C29740   6.672   2.178  10.193  0.0434  0.0380  0.1265
  221MOL0     C29741   6.532   2.157  10.129  0.8825  0.6045 -0.1133
  221MOL0     C29742   6.500   2.227   9.999 -0.0374  0.0953  0.4708
  221MOL0     C29743   6.354   2.219   9.960  1.1757 -0.6577 -0.8166
  221MOL0     C29744   6.267   2.327  10.037  0.0802 -0.4031  0.1883
  221MOL0    Cl29745   6.100   2.293  10.031  0.1912 -0.0957 -0.2081
  221MOL0     C29746   7.379   2.045  10.240 -0.4240  0.3094  0.3858
  221MOL0     C29747   7.511   1.996  10.199 -0.5395  0.4153  0.6450
  221MOL0     O29748   7.598   1.822   9.864 -0.1282  0.5323  0.2404
  221MOL0     C29749   7.928   1.939   9.924  0.1943  0.7004 -0.4992
  221MOL0     C29750   8.063   1.943   9.882  0.4923  0.5394  0.6287
  221MOL0     N29751   8.498   2.356   9.736  1.1305 -0.3387  0.6237
  221MOL0     N29752   8.436   2.437   9.814  0.4038 -0.3112 -0.4662
  221MOL0     C29753   8.960   3.161  10.621 -0.0033  0.9241  0.2835
  221MOL0     C29754   9.087   3.183  10.673 -0.6102 -0.6820 -0.1654
  221MOL0     C29755   9.476   3.223  10.836 -0.3522  0.4368  1.1083
  221MOL0     C29756   9.553   3.203  10.947 -0.9664 -0.4861  0.1035
  221MOL0     C29757   9.671   3.277  10.971  0.2009  0.1121  0.1585
  221MOL0     C29758   9.712   3.378  10.886  0.5575  0.0368  0.5330
  221MOL0     O29759   9.827   3.449  10.924  0.3388 -0.2944  0.5477
  221MOL0     C29760   9.879   3.552  10.841  0.2032  0.3951  0.1331
  221MOL0     C29761  10.000   3.624  10.901  0.8561 -0.0133  1.1466
  221MOL0     C29762   9.958   3.682  11.040  0.0925 -0.4198  0.6445
  221MOL0     C29763   9.862   3.804  11.030 -0.2355 -0.7591 -0.1293
  221MOL0     C29764   9.730   3.744  11.046  0.3345 -0.4613  0.3734
  221MOL0     C29765   9.622   3.696  11.038  0.2268  0.1628  0.2209
  221MOL0     C29766   9.633   3.401  10.769 -0.3761 -0.6607 -0.3077
  221MOL0     C29767   9.524   3.318  10.737  0.3229  0.1261 -0.0424
  221MOL0     H29768   9.259   2.985  10.473 -1.7094 -2.7033  0.7216
  221MOL0     H29769   9.036   2.943  10.372  0.8355 -1.9130  0.8849
  221MOL0     H29770   8.777   2.922  10.582  3.6986  1.7996 -0.1448
  221MOL0     H29771   8.691   3.087  10.599 -2.5769 -0.4765 -0.4809
  221MOL0     H29772   8.516   2.950  10.524  0.1437  1.7721  1.1378
  221MOL0     H29773   8.572   3.067  10.405  2.5011  1.4680  0.8145
  221MOL0     H29774   8.661   2.903  10.266  0.2678 -0.7302  0.5624
  221MOL0     H29775   8.713   2.797  10.373 -0.0527  0.0784 -0.9961
  221MOL0     H29776   8.476   2.734  10.444  2.0248  0.8566  0.7384
  221MOL0     H29777   8.414   2.817  10.307  0.2908  1.0146  0.0893
  221MOL0     H29778   8.556   2.688  10.147  0.2712 -2.7071 -0.7562
  221MOL0     H29779   8.636   2.602  10.269 -1.6065 -2.2970  2.6728
  221MOL0     H29780   8.424   2.500  10.351  3.1775 -3.9557  0.8643
  221MOL0     H29781   8.336   2.580  10.237  0.2995  1.1487  1.9433
  221MOL0     H29782   8.578   2.453  10.096  1.0337 -1.0467 -0.7545
  221MOL0     H29783   8.485   2.345  10.200 -1.9927  0.3903 -0.0374
  221MOL0     H29784   8.332   2.533  10.031  1.3664  0.1820 -1.6997
  221MOL0     H29785   8.282   2.372  10.093  1.4155 -2.1792 -0.5221
  221MOL0     H29786   8.443   2.160   9.985 -0.7220  0.0276  0.2024
  221MOL0     H29787   8.623   2.122   9.644  3.0685 -1.6778  0.2385
  221MOL0     H29788   8.650   2.066   9.809  5.1035  0.4957 -4.9228
  221MOL0     H29789   8.437   1.968   9.840  0.6287  0.4635  0.8691
  221MOL0     H29790   8.498   1.903   9.700 -1.3885 -2.3018  3.8510
  221MOL0     H29791   8.351   2.072   9.564  4.4179 -3.8191 -1.0120
  221MOL0     H29792   8.273   2.095   9.732  0.0190  1.1066 -1.5092
  221MOL0     H29793   8.289   1.841   9.554 -0.3495  0.1744 -1.3476
  221MOL0     H29794   8.151   1.939   9.584  2.0687  2.6195 -1.8561
  221MOL0     H29795   8.057   1.631   9.733  1.6650 -0.0978  0.5748
  221MOL0     H29796   7.739   1.648   9.721  1.5114 -1.9915 -2.4073
  221MOL0     H29797   7.857   1.527   9.776 -1.4300  1.4049 -4.4000
  221MOL0     H29798   7.744   1.588   9.898  1.4553 -1.1833  1.0662
  221MOL0     H29799   7.480   2.062   9.860 -2.6023  0.0209 -0.0080
  221MOL0     H29800   7.242   2.111   9.934  1.2059 -1.8793 -2.0807
  221MOL0     H29801   7.077   2.258  10.047 -1.9944  0.7561  0.8206
  221MOL0     H29802   7.062   2.081  10.020  1.4512 -0.5175  0.6736
  221MOL0     H29803   6.913   2.058  10.216 -0.1306  0.7618  2.1456
  221MOL0     H29804   6.949   2.228  10.245 -1.2853  0.5531 -0.8190
  221MOL0     H29805   6.763   2.119  10.006  1.4670  0.1648 -0.3395
  221MOL0     H29806   6.797   2.286  10.060  3.0374  0.0364 -0.5235
  221MOL0     H29807   6.679   2.096  10.265 -2.3728  1.1417  1.7285
  221MOL0     H29808   6.674   2.277  10.239  1.0393  0.8119 -1.4596
  221MOL0     H29809   6.454   2.196  10.196 -0.2427 -0.1468 -0.9378
  221MOL0     H29810   6.510   2.050  10.119  0.1187  0.8680 -1.6498
  221MOL0     H29811   6.542   2.328   9.998  0.4243 -0.0613  1.9184
  221MOL0     H29812   6.563   2.171   9.928  0.7262  0.1356  1.1051
  221MOL0     H29813   6.322   2.117   9.983  0.5628 -0.8106 -2.2508
  221MOL0     H29814   6.339   2.224   9.852 -1.8845 -0.5199 -0.4867
  221MOL0     H29815   6.275   2.425   9.988  0.5364 -0.8521 -0.6549
  221MOL0     H29816   6.290   2.338  10.143 -0.1080  0.6646  0.1381
  221MOL0     H29817   7.351   2.055  10.345  0.3924 -1.7672  0.8465
  221MOL0     H29818   7.584   1.951  10.266  2.0427  2.8002 -0.3753
  221MOL0     H29819   7.894   2.026   9.979 -0.4537 -0.5578  1.2162
  221MOL0     H29820   8.134   2.026   9.892  1.3501 -0.2027  0.8449
  221MOL0     H29821   8.876   3.221  10.653  1.7380  1.8014  3.6800
  221MOL0     H29822   9.090   3.252  10.758 -1.2914 -2.3676  1.2967
  221MOL0     H29823   9.536   3.127  11.022 -1.8540 -0.3208  0.0859
  221MOL0     H29824   9.727   3.260  11.063 -0.8115 -0.0275  0.7622
  221MOL0     H29825   9.903   3.509  10.743  1.0892 -1.7843  1.2348
  221MOL0     H29826   9.791   3.611  10.813  0.3275  0.2813 -0.5052
  221MOL0     H29827  10.037   3.696  10.827  2.1765 -1.6241  0.1696
  221MOL0     H29828  10.078   3.549  10.920  0.4588 -0.5212  0.7923
  221MOL0     H29829  10.050   3.692  11.098  0.0291 -0.1088  0.6963
  221MOL0     H29830   9.919   3.608  11.111  1.1281 -0.0316  1.6449
  221MOL0     H29831   9.870   3.855  10.934 -2.2187 -1.6057 -0.8070
  221MOL0     H29832   9.878   3.875  11.111 -0.1280 -1.2178  0.2595
  221MOL0     H29833   9.519   3.668  11.047  0.3838 -0.4157  0.2450
  221MOL0     H29834   9.666   3.477  10.699 -2.9912  2.3583  1.4175
  221MOL0     H29835   9.486   3.330  10.636  1.3584 -2.3038 -0.7929
  222MOL0     O29836  10.962   6.096   9.611  0.2987  0.0080  0.1914
  222MOL0     C29837  11.043   6.183   9.644 -0.1126  0.0120 -0.0280
  222MOL0     O29838  11.010   6.303   9.690 -0.2353  0.4417 -0.0021
  222MOL0     C29839  10.883   6.312   9.737 -0.3938  0.0273  0.2460
  222MOL0     C29840  10.843   6.317   9.871  0.1747 -0.7906  0.9273
  222MOL0     C29841  10.709   6.334   9.902 -0.3310  0.0688 -0.1712
  222MOL0     C29842  10.614   6.342   9.803  0.0540 -0.2166  0.1704
  222MOL0     O29843  10.476   6.346   9.825 -0.0956 -0.5590  0.2800
  222MOL0     C29844  10.425   6.318   9.960  0.0937  0.6686 -0.0158
  222MOL0     C29845  10.273   6.318   9.963 -0.2307  0.6596  0.0278
  222MOL0     C29846  10.210   6.277  10.100  0.2420 -0.6221 -0.2347
  222MOL0     C29847  10.069   6.222  10.095  0.5156  0.1772 -0.0817
  222MOL0     C29848  10.025   6.192  10.240 -0.5592  0.4491  0.1893
  222MOL0     C29849   9.888   6.125  10.241 -0.1070 -0.1175 -0.0917
  222MOL0     C29850   9.767   6.202  10.181 -0.3482  0.1284  0.3075
  222MOL0     C29851   9.643   6.115  10.171  0.0715  0.1987  0.3956
  222MOL0     N29852   9.615   6.028  10.287  0.1541  0.0925  0.3594
  222MOL0     C29853   9.531   6.048  10.389  0.2380  0.4158 -0.2321
  222MOL0     C29854   9.516   5.934  10.463  0.0064 -0.0437 -0.1382
  222MOL0     C29855   9.447   5.917  10.594  0.1373  0.1346  0.2592
  222MOL0     C29856   9.291   5.921  10.584 -0.0248 -0.0665 -0.1867
  222MOL0     C29857   9.213   5.930  10.721 -0.1712 -0.1756  0.0751
  222MOL0     C29858   9.233   5.807  10.806  0.0653  0.0254 -0.0522
  222MOL0     O29859   9.202   5.685  10.727  0.3062  0.1903  0.0817
  222MOL0     C29860   9.070   5.639  10.719  0.3544 -0.7120 -0.2450
  222MOL0     C29861   8.985   5.697  10.634  0.6201  0.8480 -0.0189
  222MOL0     C29862   8.850   5.651  10.614  0.3547 -0.3030  0.0567
  222MOL0     C29863   8.774   5.714  10.495 -0.2514 -0.3260 -0.4652
  222MOL0     C29864   8.812   5.532  10.678  0.7156  0.4957  0.8316
  222MOL0     C29865   8.684   5.452  10.646  0.2073  0.1259 -0.3003
  222MOL0     O29866   8.648   5.355  10.734  0.1943 -0.7339 -0.3633
  222MOL0     C29867   8.561   5.260  10.686  1.0835  0.3018 -1.6397
  222MOL0     C29868   8.424   5.262  10.722 -0.2162 -0.3400  0.3842
  222MOL0     C29869   8.348   5.150  10.705  0.1848 -0.0045  0.9800
  222MOL0     C29870   8.400   5.039  10.644  0.2775  0.5747  0.4312
  222MOL0     O29871   8.317   4.934  10.609 -0.2865  0.4840  0.0197
  222MOL0     C29872   8.239   4.946  10.488  0.2600  0.4198 -0.0904
  222MOL0     C29873   8.106   4.860  10.499  0.3111  0.4139 -0.1454
  222MOL0     C29874   8.006   4.918  10.598  0.8313  0.2976 -0.1293
  222MOL0     C29875   7.889   4.826  10.622  0.5386 -0.3500  0.5345
  222MOL0     C29876   7.780   4.906  10.691  0.6681  0.0485 -0.3142
  222MOL0     C29877   7.643   4.848  10.653 -0.0212 -0.6484 -0.2457
  222MOL0     C29878   7.524   4.940  10.692 -0.7925  0.7819 -0.3556
  222MOL0     C29879   7.397   4.858  10.690 -0.1933 -0.5954 -0.0248
  222MOL0    Cl29880   7.401   4.748  10.825  0.0239 -0.0649 -0.3537
  222MOL0     C29881   8.539   5.034  10.616  0.6139  0.6948 -0.3823
  222MOL0     C29882   8.621   5.141  10.638 -0.0666 -0.6476 -0.8862
  222MOL0     O29883   8.632   5.472  10.534  0.2007  1.0299  0.6206
  222MOL0     C29884   8.901   5.478  10.770  0.5227  0.4059 -0.5265
  222MOL0     C29885   9.023   5.536  10.797  0.1157  0.4957 -1.1303
  222MOL0     N29886   9.591   5.838  10.396  0.3022  0.9038 -0.2839
  222MOL0     N29887   9.647   5.897  10.294 -0.0784  0.2067 -0.1130
  222MOL0     C29888  10.650   6.333   9.671 -0.0869  0.1440 -0.3705
  222MOL0     C29889  10.781   6.324   9.635  0.0726  0.1941 -0.1103
  222MOL0     C29890  11.188   6.146   9.623  0.1038 -0.5426  0.9788
  222MOL0     C29891  11.239   6.015   9.585 -0.6624 -0.1791 -0.5969
  222MOL0     C29892  11.381   5.991   9.569  0.3330  0.0390 -1.1386
  222MOL0     C29893  11.471   6.092   9.593  0.8591  0.2318  0.4943
  222MOL0     O29894  11.601   6.063   9.562 -0.4694 -0.4884  0.5627
  222MOL0     C29895  11.703   6.134   9.639 -0.6903 -0.0648 -0.4044
  222MOL0     C29896  11.843   6.056   9.646  0.2861 -0.0161  0.3718
  222MOL0     C29897  11.936   6.095   9.543  0.4111  0.7414  0.0811
  222MOL0     C29898  11.887   6.051   9.401 -0.1864  0.1637 -0.2599
  222MOL0     C29899  11.886   5.908   9.374 -0.0982  0.5451  0.4976
  222MOL0     C29900  11.899   5.793   9.362 -0.1363 -0.0440  0.8497
  222MOL0     C29901  11.418   6.216   9.626 -0.8844 -0.3234  0.1307
  222MOL0     C29902  11.282   6.238   9.642 -0.0467  0.5070 -0.5830
  222MOL0     H29903  10.912   6.302   9.953  0.3037 -2.1439  0.5944
  222MOL0     H29904  10.689   6.349  10.008 -0.6019  2.3892 -0.5023
  222MOL0     H29905  10.472   6.229  10.004  0.2355  0.8748  0.2592
  222MOL0     H29906  10.449   6.406  10.021  0.2262  0.9663 -0.4944
  222MOL0     H29907  10.227   6.408   9.921 -2.7446  0.4068  1.9830
  222MOL0     H29908  10.243   6.237   9.896 -0.7189  1.8583 -1.2628
  222MOL0     H29909  10.267   6.193  10.140 -1.6457 -2.2085 -0.7420
  222MOL0     H29910  10.215   6.361  10.170  1.2324 -0.9301  0.0767
  222MOL0     H29911  10.005   6.301  10.054 -1.3365 -1.1931  0.0578
  222MOL0     H29912  10.059   6.136  10.028  1.1384  0.2094 -0.2188
  222MOL0     H29913  10.095   6.129  10.296  0.2560  0.6837 -0.5352
  222MOL0     H29914  10.026   6.285  10.298  0.8406  0.2063  0.6029
  222MOL0     H29915   9.899   6.022  10.208  0.5315 -1.4551  3.7400
  222MOL0     H29916   9.869   6.113  10.348  1.2683  4.8192  0.9728
  222MOL0     H29917   9.743   6.287  10.245  0.9875 -0.4261  1.6005
  222MOL0     H29918   9.797   6.238  10.081  1.2341 -2.1990 -0.1477
  222MOL0     H29919   9.647   6.048  10.084 -2.7802 -0.7996  0.9483
  222MOL0     H29920   9.554   6.176  10.155  0.2394  0.4611  0.4549
  222MOL0     H29921   9.478   6.139  10.415 -0.0362  1.1909 -3.1792
  222MOL0     H29922   9.483   5.824  10.640  2.2690 -0.9466 -3.2139
  222MOL0     H29923   9.483   6.004  10.650 -2.3039  0.7182  1.0420
  222MOL0     H29924   9.257   5.831  10.532 -1.6959  0.9790 -0.9881
  222MOL0     H29925   9.247   6.004  10.528 -2.6938 -1.3163 -0.1163
  222MOL0     H29926   9.107   5.944  10.698 -0.1506 -0.6331 -0.3149
  222MOL0     H29927   9.244   6.017  10.780 -0.8520 -0.0626  0.2817
  222MOL0     H29928   9.171   5.814  10.896 -0.6502 -1.5745 -0.3907
  222MOL0     H29929   9.338   5.787  10.828  0.5692 -3.3771 -4.3546
  222MOL0     H29930   9.025   5.772  10.567  2.0613  0.7069  0.6438
  222MOL0     H29931   8.761   5.636  10.419 -0.2654 -0.1341 -0.6592
  222MOL0     H29932   8.680   5.744  10.543  0.4365  0.4477  0.4499
  222MOL0     H29933   8.828   5.801  10.457  0.2852 -0.4584 -0.0242
  222MOL0     H29934   8.363   5.337  10.770 -0.6964 -0.1480 -0.5056
  222MOL0     H29935   8.240   5.149  10.719 -0.4572 -2.4159 -2.6079
  222MOL0     H29936   8.216   5.052  10.469 -0.5993  0.3379  0.4403
  222MOL0     H29937   8.298   4.909  10.404 -2.9937 -2.1564 -1.4751
  222MOL0     H29938   8.060   4.862  10.400  1.2773  1.2519 -0.5884
  222MOL0     H29939   8.139   4.759  10.527 -1.9530 -0.6540 -1.0783
  222MOL0     H29940   7.968   5.015  10.564  0.1982  0.2218  0.3418
  222MOL0     H29941   8.052   4.931  10.696  4.4152 -0.2611 -1.5862
  222MOL0     H29942   7.855   4.778  10.530  1.7396  0.4020 -0.3269
  222MOL0     H29943   7.909   4.741  10.688 -0.3528 -2.7083 -2.0490
  222MOL0     H29944   7.780   5.012  10.665 -0.1211  0.5148  1.4168
  222MOL0     H29945   7.777   4.886  10.799  0.4248  1.9222  0.0507
  222MOL0     H29946   7.634   4.826  10.546 -1.5658 -2.8100  0.2645
  222MOL0     H29947   7.629   4.749  10.697 -3.3983 -1.2047 -2.2017
  222MOL0     H29948   7.512   5.021  10.620 -1.2329 -0.0184 -1.2008
  222MOL0     H29949   7.541   4.980  10.792 -0.8145  0.9225 -0.4089
  222MOL0     H29950   7.410   4.793  10.603  2.3029  0.3170 -0.4127
  222MOL0     H29951   7.303   4.913  10.686 -0.0187 -0.3447 -0.9430
  222MOL0     H29952   8.584   4.942  10.579  0.0252 -0.0824  0.7893
  222MOL0     H29953   8.729   5.137  10.635 -0.0363 -1.1348  0.2336
  222MOL0     H29954   8.874   5.393  10.832  2.1985 -1.3996 -2.1402
  222MOL0     H29955   9.089   5.496  10.874 -1.3462  1.5846  0.7627
  222MOL0     H29956  10.580   6.326   9.588  0.9488 -1.3301 -1.1711
  222MOL0     H29957  10.803   6.322   9.529  0.0636  0.4535 -0.1197
  222MOL0     H29958  11.175   5.928   9.584  1.5041 -1.8642 -0.5535
  222MOL0     H29959  11.404   5.891   9.534 -0.5520  0.0061 -1.6633
  222MOL0     H29960  11.719   6.237   9.607 -0.8578 -0.4026 -1.6363
  222MOL0     H29961  11.669   6.141   9.743  1.7890 -0.0200  0.4804
  222MOL0     H29962  11.818   5.950   9.636 -1.3291  0.5613 -2.9308
  222MOL0     H29963  11.900   6.073   9.738 -0.3874 -0.2348  0.8386
  222MOL0     H29964  12.022   6.029   9.561  0.0975  0.1815 -0.4581
  222MOL0     H29965  11.966   6.200   9.540  0.4988  0.6966 -1.8746
  222MOL0     H29966  11.967   6.089   9.337 -1.4215 -0.7779 -2.4931
  222MOL0     H29967  11.789   6.098   9.387 -0.7222 -0.8398  0.0477
  222MOL0     H29968  11.927   5.691   9.342  0.0935 -0.2321  2.0219
  222MOL0     H29969  11.491   6.295   9.644 -0.1025 -0.9885 -0.0771
  222MOL0     H29970  11.249   6.335   9.678  1.4820  1.0131 -0.4604
  223MOL0     O29971   8.573   8.411   7.555 -0.0754  0.5205  0.3938
  223MOL0     C29972   8.548   8.532   7.549  0.1408 -0.0075  0.2613
  223MOL0     O29973   8.420   8.581   7.542 -0.0723  0.7415  0.0012
  223MOL0     C29974   8.316   8.497   7.522  0.8885  0.2333  0.7831
  223MOL0     C29975   8.295   8.461   7.391 -0.5814  1.5469 -0.1449
  223MOL0     C29976   8.174   8.387   7.373  0.4330  0.2640 -0.3807
  223MOL0     C29977   8.087   8.348   7.473 -0.5883 -0.0937 -0.2104
  223MOL0     O29978   7.976   8.265   7.463 -0.2770 -0.2269  0.3251
  223MOL0     C29979   7.907   8.283   7.344 -1.0454 -0.9585 -0.3901
  223MOL0     C29980   7.772   8.223   7.360  1.1856  0.1099  0.8962
  223MOL0     C29981   7.670   8.318   7.423  0.3022  0.0150  0.3302
  223MOL0     C29982   7.548   8.243   7.476 -0.1811  0.0909  0.4230
  223MOL0     C29983   7.440   8.334   7.502  0.1904 -0.5357  0.3334
  223MOL0     C29984   7.313   8.268   7.550  0.4025 -0.5641  0.9457
  223MOL0     C29985   7.226   8.205   7.445 -0.6079 -0.7376  0.1076
  223MOL0     C29986   7.083   8.173   7.479  0.2881 -0.7012 -0.2512
  223MOL0     N29987   7.041   8.094   7.357  0.7775  0.2798  0.3782
  223MOL0     C29988   6.951   8.127   7.253 -0.3485 -0.8114 -0.4502
  223MOL0     C29989   6.937   8.021   7.176 -0.8218 -0.1473  0.1585
  223MOL0     C29990   6.865   8.011   7.046  0.6562 -0.1085  0.5473
  223MOL0     C29991   6.722   7.955   7.062  0.6394  0.7410 -0.7143
  223MOL0     C29992   6.651   7.932   6.933  0.6129 -0.3498 -0.4344
  223MOL0     C29993   6.520   7.857   6.934  0.2680  0.2175 -0.5235
  223MOL0     O29994   6.419   7.923   7.010  0.0581 -0.5172  0.5633
  223MOL0     C29995   6.309   7.981   6.940 -0.0145 -0.7329 -0.0377
  223MOL0     C29996   6.257   8.089   7.006  0.6617 -1.0373 -0.8485
  223MOL0     C29997   6.154   8.169   6.951  0.3490 -0.0509  0.1197
  223MOL0     C29998   6.100   8.286   7.030  0.2992  0.8437 -0.6510
  223MOL0     C29999   6.087   8.128   6.829 -0.9992  0.2649  0.0224
  223MOL0     C30000   5.966   8.191   6.773 -0.3398 -0.0526  0.2019
  223MOL0     O30001   5.895   8.120   6.676 -0.4050 -0.2405 -0.9801
  223MOL0     C30002   5.800   8.176   6.603  0.9296  0.3390 -0.3266
  223MOL0     C30003   5.682   8.205   6.663 -1.0894  0.4938 -0.3110
  223MOL0     C30004   5.570   8.247   6.587  0.6846 -0.6347  0.5103
  223MOL0     C30005   5.585   8.276   6.455  0.1180 -0.1011  0.2483
  223MOL0     O30006   5.481   8.338   6.395 -0.3191 -0.3217  0.1515
  223MOL0     C30007   5.476   8.349   6.249 -1.4750 -0.3371 -0.3354
  223MOL0     C30008   5.357   8.437   6.205  0.0374  0.4431  0.4879
  223MOL0     C30009   5.222   8.369   6.248  0.5875  0.7377 -0.3516
  223MOL0     C30010   5.109   8.462   6.210  0.0165 -0.6540  0.0425
  223MOL0     C30011   4.974   8.400   6.251 -0.3846  0.1379  0.2149
  223MOL0     C30012   4.866   8.450   6.160  0.1906 -0.3720  0.8786
  223MOL0     C30013   4.732   8.400   6.202  1.0561  0.0632  0.0835
  223MOL0     C30014   4.611   8.461   6.122  0.0507  0.0548  0.9573
  223MOL0    Cl30015   4.476   8.380   6.190  0.3219 -0.3394 -0.4284
  223MOL0     C30016   5.705   8.240   6.384  0.1850 -1.0997  0.0598
  223MOL0     C30017   5.810   8.197   6.463 -0.3893 -0.5435 -0.2024
  223MOL0     O30018   5.923   8.300   6.810 -0.3183 -0.5050 -0.4297
  223MOL0     C30019   6.141   8.016   6.764  0.4407 -0.6401 -0.0249
  223MOL0     C30020   6.244   7.937   6.821 -0.8942  0.3633  0.3190
  223MOL0     N30021   7.014   7.920   7.233 -0.3056 -0.4496  0.2308
  223MOL0     N30022   7.078   7.964   7.340  0.7759 -0.6511  0.0791
  223MOL0     C30023   8.112   8.390   7.609 -1.0212 -0.2870 -0.6475
  223MOL0     C30024   8.217   8.480   7.634 -0.3042  0.3599  0.7657
  223MOL0     C30025   8.665   8.629   7.541  0.0247  0.3280 -0.0217
  223MOL0     C30026   8.800   8.584   7.551  0.3037 -0.3483  1.0044
  223MOL0     C30027   8.901   8.683   7.554 -0.3201 -0.4922 -0.8167
  223MOL0     C30028   8.880   8.827   7.554 -0.0258  0.2581  1.2662
  223MOL0     O30029   8.986   8.920   7.558  0.2332 -0.6077  0.3567
  223MOL0     C30030   9.054   8.919   7.690  0.0463 -0.6906 -0.2013
  223MOL0     C30031   9.185   8.988   7.670 -0.3841 -0.1395  0.1469
  223MOL0     C30032   9.167   9.132   7.672  0.8675 -1.2025 -0.2078
  223MOL0     C30033   9.300   9.210   7.661 -0.8716 -0.2531 -0.1918
  223MOL0     C30034   9.379   9.177   7.780  0.2937  0.1442 -0.4569
  223MOL0     C30035   9.435   9.158   7.894 -1.0314 -0.0460  0.2742
  223MOL0     C30036   8.745   8.866   7.537 -0.1686  0.1129 -1.0421
  223MOL0     C30037   8.643   8.774   7.533 -0.5411  0.1114 -0.1392
  223MOL0     H30038   8.364   8.491   7.313  4.4774  0.5405  3.4579
  223MOL0     H30039   8.141   8.366   7.272  0.0035  0.5721 -0.3095
  223MOL0     H30040   7.907   8.390   7.319 -1.0038 -1.1181 -1.1214
  223MOL0     H30041   7.960   8.221   7.271 -1.5353 -1.6208 -0.1934
  223MOL0     H30042   7.735   8.186   7.264  0.5192 -0.7477  1.4653
  223MOL0     H30043   7.779   8.138   7.428 -2.5236  0.1048  1.4778
  223MOL0     H30044   7.718   8.381   7.499  2.1424  0.2513 -0.9677
  223MOL0     H30045   7.638   8.388   7.345 -0.2982 -0.7248 -0.1024
  223MOL0     H30046   7.518   8.168   7.402 -1.0860  0.0351  0.8381
  223MOL0     H30047   7.583   8.190   7.565 -1.1370  3.0934  2.7751
  223MOL0     H30048   7.468   8.406   7.579  0.1576 -0.1356 -0.0274
  223MOL0     H30049   7.412   8.383   7.408 -0.9434 -3.3820 -0.9280
  223MOL0     H30050   7.340   8.201   7.632  2.9448 -0.3294  0.3920
  223MOL0     H30051   7.251   8.349   7.589 -0.3138 -0.1952 -0.8408
  223MOL0     H30052   7.222   8.270   7.357 -2.0328 -1.1085 -0.1214
  223MOL0     H30053   7.278   8.111   7.422  1.2684  0.3385 -0.3235
  223MOL0     H30054   7.014   8.256   7.498 -0.6189 -0.8726 -2.4817
  223MOL0     H30055   7.079   8.105   7.564  1.1920 -1.5367 -0.8664
  223MOL0     H30056   6.918   8.225   7.219  0.4519 -0.7679 -1.1372
  223MOL0     H30057   6.864   8.107   6.993  1.1273 -1.2169 -1.5620
  223MOL0     H30058   6.915   7.938   6.982 -2.2982  1.1228 -3.5949
  223MOL0     H30059   6.667   8.014   7.137 -0.6276  1.2329 -1.9825
  223MOL0     H30060   6.744   7.856   7.103 -0.1172  1.1669  0.7826
  223MOL0     H30061   6.720   7.889   6.859  0.0883  0.1968 -1.2521
  223MOL0     H30062   6.632   8.037   6.907  0.1173 -0.0115  1.2383
  223MOL0     H30063   6.534   7.757   6.977  1.9611  0.6880  0.0973
  223MOL0     H30064   6.499   7.853   6.827  1.9421 -1.4151 -0.8469
  223MOL0     H30065   6.305   8.119   7.098  1.4052 -1.9510 -0.9164
  223MOL0     H30066   6.003   8.262   7.075 -0.2120 -2.3114 -3.0616
  223MOL0     H30067   6.167   8.304   7.114  1.4838 -2.6309 -0.6935
  223MOL0     H30068   6.082   8.378   6.974 -0.4648  0.9452 -0.2510
  223MOL0     H30069   5.677   8.188   6.770  1.5836 -1.7107 -0.4275
  223MOL0     H30070   5.474   8.250   6.636  0.0329 -1.2795 -0.6738
  223MOL0     H30071   5.569   8.390   6.207 -0.2635 -0.2891  2.1759
  223MOL0     H30072   5.476   8.250   6.204 -0.2167  0.0297 -1.2071
  223MOL0     H30073   5.368   8.536   6.251  0.7053 -0.2882  1.9547
  223MOL0     H30074   5.367   8.447   6.097  1.6246  2.6278  0.7649
  223MOL0     H30075   5.220   8.352   6.356  1.6550 -1.3504 -0.6135
  223MOL0     H30076   5.210   8.268   6.208 -0.6534  1.2975 -1.4615
  223MOL0     H30077   5.122   8.560   6.258 -2.0122 -0.0430 -0.5149
  223MOL0     H30078   5.125   8.487   6.105  1.5943  1.8802  0.8000
  223MOL0     H30079   4.965   8.412   6.359  0.1151  1.5912  0.1218
  223MOL0     H30080   4.971   8.292   6.233  1.7024  0.3307 -1.9607
  223MOL0     H30081   4.847   8.558   6.157 -2.9130 -0.8557 -0.3865
  223MOL0     H30082   4.881   8.414   6.058 -3.8981  1.1091 -0.4317
  223MOL0     H30083   4.718   8.420   6.309  0.2945  2.6282 -0.4222
  223MOL0     H30084   4.743   8.292   6.190 -0.0742 -0.2104  1.2100
  223MOL0     H30085   4.618   8.441   6.015  0.6022  0.8780  0.8274
  223MOL0     H30086   4.605   8.569   6.136 -0.5288  0.3549 -1.2215
  223MOL0     H30087   5.721   8.255   6.278 -0.1699  2.4026  0.3861
  223MOL0     H30088   5.900   8.157   6.419  0.4781 -0.5767  1.5230
  223MOL0     H30089   6.094   7.981   6.672  0.4588 -2.8126  0.7436
  223MOL0     H30090   6.276   7.847   6.769  1.9830  1.1954  0.4760
  223MOL0     H30091   8.043   8.354   7.685 -0.1392 -2.6488 -0.8773
  223MOL0     H30092   8.234   8.525   7.731  0.0616  1.9484  0.0036
  223MOL0     H30093   8.839   8.483   7.544  1.8735  0.2376  0.8911
  223MOL0     H30094   9.005   8.655   7.565 -0.0911  0.3704 -0.6534
  223MOL0     H30095   8.995   8.960   7.773  2.0095 -1.9160  1.9140
  223MOL0     H30096   9.064   8.814   7.718 -1.8231 -1.2022 -1.2520
  223MOL0     H30097   9.232   8.951   7.579  0.6582 -1.3216  1.1161
  223MOL0     H30098   9.248   8.951   7.752  0.8429  0.3997 -0.5349
  223MOL0     H30099   9.123   9.159   7.768  0.5150 -0.2680 -0.6152
  223MOL0     H30100   9.096   9.164   7.595  1.6341  1.4621  0.0766
  223MOL0     H30101   9.285   9.318   7.653 -0.1542  0.0199  1.6784
  223MOL0     H30102   9.351   9.184   7.568  1.7147  0.8818  0.8105
  223MOL0     H30103   9.474   9.153   7.994 -0.5808 -0.6914  0.0720
  223MOL0     H30104   8.721   8.971   7.522  0.4025  0.0234 -2.7510
  223MOL0     H30105   8.544   8.817   7.523  0.6090  3.5742  1.6392
  224MOL0     O30106   5.871   4.555   7.341  0.3169 -0.3156  0.2348
  224MOL0     C30107   5.916   4.444   7.325  0.2207 -0.1228 -0.3175
  224MOL0     O30108   5.862   4.328   7.367 -0.4914  0.3382 -0.4266
  224MOL0     C30109   5.733   4.310   7.417  0.0640 -1.0257  0.4493
  224MOL0     C30110   5.627   4.334   7.325  0.1582  0.5140 -1.1331
  224MOL0     C30111   5.493   4.301   7.368 -0.7961  0.3564  0.8017
  224MOL0     C30112   5.469   4.228   7.485 -0.5045  0.2732  0.2690
  224MOL0     O30113   5.346   4.175   7.526  0.8144  0.4160  0.2495
  224MOL0     C30114   5.232   4.251   7.473  0.3560  0.7468 -0.1247
  224MOL0     C30115   5.105   4.222   7.543 -0.7083  0.2519  0.1189
  224MOL0     C30116   5.093   4.245   7.691 -0.9352  1.0626 -0.3020
  224MOL0     C30117   5.171   4.365   7.757 -0.8388  0.0222 -0.1578
  224MOL0     C30118   5.145   4.382   7.906 -0.4864 -0.5793  0.4253
  224MOL0     C30119   5.238   4.474   7.991 -1.0319 -0.2410  0.8666
  224MOL0     C30120   5.209   4.622   7.941  0.3781 -0.2331 -1.2687
  224MOL0     C30121   5.314   4.715   8.003 -0.0677  0.0428  0.2646
  224MOL0     N30122   5.454   4.704   7.960  0.0712 -0.0399  0.2864
  224MOL0     C30123   5.499   4.636   7.854  0.2572 -0.1092  1.1587
  224MOL0     C30124   5.632   4.595   7.883  0.4699  0.0530 -0.8830
  224MOL0     C30125   5.716   4.518   7.795  0.2600  0.1679  0.3044
  224MOL0     C30126   5.820   4.603   7.704 -0.0080  0.2521  0.2240
  224MOL0     C30127   5.856   4.747   7.755 -0.5970  0.4047  0.4095
  224MOL0     C30128   5.939   4.825   7.657 -0.0901 -0.6136  0.8011
  224MOL0     O30129   6.057   4.751   7.621 -0.6296 -0.1199 -0.1319
  224MOL0     C30130   6.141   4.801   7.523  0.4253  0.7551  0.3751
  224MOL0     C30131   6.144   4.930   7.470  0.5147 -0.4625 -0.2405
  224MOL0     C30132   6.248   4.972   7.388 -0.3659  0.1828 -0.7748
  224MOL0     C30133   6.241   5.115   7.340 -0.5075  0.3933 -0.4099
  224MOL0     C30134   6.354   4.877   7.348 -0.1047  0.6726  0.8530
  224MOL0     C30135   6.460   4.911   7.248  0.2065 -0.6483 -0.1384
  224MOL0     O30136   6.567   4.820   7.235 -0.4327  0.4174 -0.2770
  224MOL0     C30137   6.655   4.832   7.129  1.1261 -0.3540 -0.4529
  224MOL0     C30138   6.601   4.843   7.001  0.2207  1.1756  1.0199
  224MOL0     C30139   6.687   4.874   6.894  0.2279  0.4045 -0.2165
  224MOL0     C30140   6.827   4.888   6.915  0.1045  0.5384  0.1283
  224MOL0     O30141   6.911   4.916   6.817  0.4677 -0.6871  0.0616
  224MOL0     C30142   6.872   4.999   6.699 -1.0001  0.3190 -0.2590
  224MOL0     C30143   6.989   5.102   6.685 -0.5375  0.5468  0.5944
  224MOL0     C30144   6.954   5.199   6.569 -0.2502 -0.1471  1.1478
  224MOL0     C30145   7.082   5.281   6.519 -0.1602 -0.0860  0.3093
  224MOL0     C30146   7.134   5.370   6.637  0.6416  0.3097  0.2393
  224MOL0     C30147   7.258   5.466   6.597  0.1217 -0.0139 -0.0365
  224MOL0     C30148   7.300   5.533   6.727  0.1113 -0.0036  1.0688
  224MOL0     C30149   7.416   5.624   6.699 -0.6560 -0.0240  0.7290
  224MOL0    Cl30150   7.553   5.532   6.616 -0.2866 -0.4402 -0.7704
  224MOL0     C30151   6.876   4.887   7.047 -0.1054 -0.6564 -0.1942
  224MOL0     C30152   6.796   4.852   7.155 -0.2731 -0.3191  0.0245
  224MOL0     O30153   6.459   5.022   7.184  0.2688  0.4123  0.3390
  224MOL0     C30154   6.341   4.748   7.392  1.0354  0.3390 -0.1366
  224MOL0     C30155   6.231   4.708   7.478  0.1041 -0.1378 -0.2538
  224MOL0     N30156   5.665   4.650   8.006  0.2441  0.1426 -0.3767
  224MOL0     N30157   5.560   4.715   8.046 -0.3036  0.5353 -0.2783
  224MOL0     C30158   5.581   4.215   7.575 -0.1678 -0.3679 -0.3523
  224MOL0     C30159   5.710   4.257   7.548 -0.0432 -0.6412  0.1404
  224MOL0     C30160   6.052   4.440   7.262  0.4798  0.5911 -0.5046
  224MOL0     C30161   6.118   4.316   7.270  0.4182  0.6506 -0.0982
  224MOL0     C30162   6.248   4.303   7.210  0.0982 -0.0899  0.1658
  224MOL0     C30163   6.298   4.409   7.139 -0.1260  0.1569 -0.9331
  224MOL0     O30164   6.396   4.378   7.056  0.0329  0.2164 -0.0788
  224MOL0     C30165   6.521   4.333   7.109 -0.1336  0.3637 -0.6245
  224MOL0     C30166   6.625   4.437   7.074 -0.1962 -0.2063 -0.3073
  224MOL0     C30167   6.638   4.474   6.924  0.1883 -0.2171 -0.1167
  224MOL0     C30168   6.782   4.500   6.883  0.4749 -0.1483 -0.5781
  224MOL0     C30169   6.858   4.383   6.859 -0.4933  0.3701 -0.5057
  224MOL0     C30170   6.925   4.282   6.840 -0.5711 -0.2442  0.4192
  224MOL0     C30171   6.239   4.539   7.138  0.0663  0.8103 -0.2825
  224MOL0     C30172   6.107   4.549   7.201  0.2692 -0.1221  0.3649
  224MOL0     H30173   5.629   4.371   7.223 -4.3428  1.7447 -0.9714
  224MOL0     H30174   5.410   4.321   7.301 -1.4722 -1.3498  1.0677
  224MOL0     H30175   5.247   4.359   7.484 -0.9543  0.9047  0.2906
  224MOL0     H30176   5.217   4.226   7.367 -1.4065  0.6475  0.1165
  224MOL0     H30177   5.026   4.274   7.489 -3.4073 -1.1538  2.4504
  224MOL0     H30178   5.077   4.119   7.519 -1.7214  0.7186 -0.7884
  224MOL0     H30179   4.985   4.254   7.705 -1.1592 -0.5183 -0.7639
  224MOL0     H30180   5.121   4.151   7.740 -0.1940  0.8399 -1.1189
  224MOL0     H30181   5.277   4.348   7.733 -0.6620  2.2222 -1.1723
  224MOL0     H30182   5.137   4.456   7.708 -0.3614  0.1964 -0.1746
  224MOL0     H30183   5.039   4.411   7.904 -0.4596 -0.5026  0.1286
  224MOL0     H30184   5.162   4.283   7.947  1.3042  0.6196  2.8307
  224MOL0     H30185   5.218   4.460   8.097  0.6364 -2.7863  0.9449
  224MOL0     H30186   5.342   4.443   7.974 -1.7209 -2.6677  0.7681
  224MOL0     H30187   5.202   4.624   7.832  1.8427 -0.2428 -1.3770
  224MOL0     H30188   5.110   4.655   7.974  0.8678  1.5245 -1.4521
  224MOL0     H30189   5.316   4.688   8.109  2.7702  1.4318  0.6326
  224MOL0     H30190   5.287   4.820   7.988  0.1434  0.2541  1.3269
  224MOL0     H30191   5.434   4.590   7.780 -0.9599 -1.2008  2.8470
  224MOL0     H30192   5.769   4.438   7.847 -2.4301 -1.1553  1.2080
  224MOL0     H30193   5.644   4.468   7.729  0.1006  1.6165 -0.6602
  224MOL0     H30194   5.779   4.608   7.603  2.6676 -1.0336 -1.0068
  224MOL0     H30195   5.908   4.541   7.689 -1.4388 -2.2884  1.5382
  224MOL0     H30196   5.909   4.741   7.850  1.4187 -0.4998 -0.6943
  224MOL0     H30197   5.768   4.809   7.774 -1.1997 -0.8761  2.0224
  224MOL0     H30198   5.967   4.918   7.708  0.3638 -0.1247 -0.2991
  224MOL0     H30199   5.883   4.840   7.565  1.2541  1.7510  0.2861
  224MOL0     H30200   6.074   5.008   7.499 -0.5048 -0.4759 -2.4875
  224MOL0     H30201   6.217   5.134   7.235  1.6515 -0.0924 -1.0316
  224MOL0     H30202   6.167   5.171   7.398 -1.6833 -0.0413 -1.4530
  224MOL0     H30203   6.340   5.154   7.363  0.4947 -2.4956  0.5250
  224MOL0     H30204   6.496   4.828   6.979  1.1128 -0.3065 -2.8303
  224MOL0     H30205   6.642   4.876   6.796  1.4979  2.0385 -0.8018
  224MOL0     H30206   6.877   4.926   6.617 -3.2623  3.1344 -3.1357
  224MOL0     H30207   6.767   5.030   6.700 -1.1320 -0.1036 -0.5551
  224MOL0     H30208   7.001   5.155   6.779  0.5609  1.5984 -0.1127
  224MOL0     H30209   7.073   5.043   6.648 -0.7866  1.3342 -1.3578
  224MOL0     H30210   6.886   5.278   6.603 -1.5588 -0.8214  0.1265
  224MOL0     H30211   6.913   5.141   6.487  1.4387  0.7761 -0.4217
  224MOL0     H30212   7.158   5.206   6.493 -1.9704 -1.1404 -2.3186
  224MOL0     H30213   7.058   5.336   6.427  2.0619  0.4009 -0.0389
  224MOL0     H30214   7.176   5.296   6.707  0.2847 -1.3798 -1.2473
  224MOL0     H30215   7.060   5.436   6.683  2.5355  2.9200 -0.2301
  224MOL0     H30216   7.341   5.403   6.563 -0.8072 -0.7313 -1.0357
  224MOL0     H30217   7.226   5.541   6.524 -4.9572 -3.0333 -1.4248
  224MOL0     H30218   7.314   5.458   6.806 -0.3796 -0.0463  1.1148
  224MOL0     H30219   7.222   5.602   6.761  1.6968  2.8214 -0.5928
  224MOL0     H30220   7.461   5.670   6.788 -0.7496 -1.3177  1.4742
  224MOL0     H30221   7.382   5.707   6.637 -2.7796  0.3201  2.2305
  224MOL0     H30222   6.980   4.916   7.058 -0.6544  0.3263  4.4557
  224MOL0     H30223   6.834   4.849   7.256  0.9588 -0.8537 -0.4363
  224MOL0     H30224   6.410   4.675   7.349  0.5250  0.4346 -1.1511
  224MOL0     H30225   6.234   4.609   7.523  0.6441 -0.6738 -1.4266
  224MOL0     H30226   5.544   4.162   7.662 -3.0308  0.0979 -1.1990
  224MOL0     H30227   5.801   4.247   7.606 -1.3336  1.4413  2.7646
  224MOL0     H30228   6.070   4.232   7.320  0.9051  0.3049 -0.1959
  224MOL0     H30229   6.305   4.212   7.221  0.7477  0.1971 -0.7603
  224MOL0     H30230   6.524   4.322   7.218 -3.4826 -0.2616 -0.4982
  224MOL0     H30231   6.561   4.240   7.068  1.5071  0.7177  0.0723
  224MOL0     H30232   6.721   4.397   7.110 -1.4168 -1.2978  1.9323
  224MOL0     H30233   6.602   4.532   7.124  2.3243  0.5640 -0.4525
  224MOL0     H30234   6.577   4.562   6.898 -0.2268 -0.8828 -1.4757
  224MOL0     H30235   6.599   4.387   6.871 -2.6564  2.6121 -3.2134
  224MOL0     H30236   6.840   4.562   6.951  2.1100 -1.0880 -1.0637
  224MOL0     H30237   6.772   4.563   6.794 -2.7507  1.4300  0.7111
  224MOL0     H30238   6.985   4.196   6.818  0.2707  0.9640 -2.4852
  224MOL0     H30239   6.277   4.627   7.087  3.0864 -1.5118 -2.4517
  224MOL0     H30240   6.059   4.645   7.214  2.3903  0.8223  1.8078
  225MOL0     O30241   5.757   6.632  11.297  0.2005  0.2288  0.1361
  225MOL0     C30242   5.873   6.593  11.278  0.3948 -1.0945 -0.1309
  225MOL0     O30243   5.983   6.677  11.249 -0.7141 -0.1231  0.0448
  225MOL0     C30244   5.968   6.810  11.226 -0.8788 -0.1394  0.1671
  225MOL0     C30245   6.031   6.860  11.108  0.9888  0.9335 -0.7208
  225MOL0     C30246   6.011   6.995  11.066  0.4554  0.2339 -0.3667
  225MOL0     C30247   5.927   7.079  11.140 -0.7482  0.4304 -0.9059
  225MOL0     O30248   5.918   7.203  11.085 -0.7199 -0.2606 -0.6554
  225MOL0     C30249   5.829   7.304  11.125  0.0656 -0.0489 -1.1389
  225MOL0     C30250   5.708   7.277  11.044 -0.2256  0.4194  0.2573
  225MOL0     C30251   5.744   7.273  10.894 -0.1624  0.5033  0.0975
  225MOL0     C30252   5.622   7.269  10.806 -0.0488 -0.2260  0.0145
  225MOL0     C30253   5.647   7.240  10.654 -0.3445 -0.6828  0.1938
  225MOL0     C30254   5.568   7.308  10.542 -0.3784  0.2350 -0.0645
  225MOL0     C30255   5.419   7.258  10.542 -0.3632  0.1495  0.3337
  225MOL0     C30256   5.401   7.112  10.507  1.1049 -0.6526  1.2168
  225MOL0     N30257   5.271   7.063  10.474 -0.2221  0.0665  0.4546
  225MOL0     C30258   5.189   7.048  10.359 -0.3362 -0.4908 -0.5700
  225MOL0     C30259   5.061   7.021  10.410  1.0329 -0.6891 -0.0234
  225MOL0     C30260   4.953   6.978  10.314 -0.6227  0.7840 -0.3826
  225MOL0     C30261   4.816   6.978  10.386 -0.4601 -0.8061 -0.0069
  225MOL0     C30262   4.703   6.949  10.293 -0.3451  0.0522 -0.6481
  225MOL0     C30263   4.568   6.956  10.353 -0.6067  0.2928  0.2166
  225MOL0     O30264   4.550   6.847  10.440 -0.8238  0.1022  0.6412
  225MOL0     C30265   4.421   6.822  10.485  0.1980 -0.7888  0.3112
  225MOL0     C30266   4.397   6.730  10.581  0.8209  0.3787 -0.1215
  225MOL0     C30267   4.271   6.693  10.629  0.1517 -0.1304 -0.3167
  225MOL0     C30268   4.257   6.567  10.715 -0.5298 -0.7777 -0.4291
  225MOL0     C30269   4.159   6.771  10.588 -0.0555  0.5044  0.1108
  225MOL0     C30270   4.018   6.739  10.633 -0.3127  0.3197  0.6159
  225MOL0     O30271   3.917   6.795  10.561 -0.4122  0.6760  0.3643
  225MOL0     C30272   3.785   6.757  10.571  0.0443  0.1037  0.2363
  225MOL0     C30273   3.709   6.792  10.456 -0.9154 -0.9247 -0.5324
  225MOL0     C30274   3.584   6.749  10.447  0.1484 -0.8669 -0.3394
  225MOL0     C30275   3.521   6.672  10.551  0.1752  0.3155 -0.0674
  225MOL0     O30276   3.393   6.626  10.550  0.3303  0.2367  0.7336
  225MOL0     C30277   3.319   6.617  10.429 -0.0213 -0.2647  0.1686
  225MOL0     C30278   3.180   6.553  10.451  0.0577 -0.1593  0.4597
  225MOL0     C30279   3.110   6.515  10.315 -0.7468 -0.3688  0.1299
  225MOL0     C30280   2.990   6.427  10.348  0.0280  0.2262  0.1679
  225MOL0     C30281   2.899   6.389  10.234 -0.4377 -0.4625 -0.1981
  225MOL0     C30282   2.828   6.254  10.239 -0.1507 -0.2522 -0.9815
  225MOL0     C30283   2.721   6.228  10.348 -0.4081 -0.2703  0.5102
  225MOL0     C30284   2.583   6.293  10.331  0.5609 -0.1752  0.2134
  225MOL0    Cl30285   2.508   6.232  10.490  0.3397 -0.4613  0.2345
  225MOL0     C30286   3.592   6.643  10.667 -0.3938 -0.3620 -0.0026
  225MOL0     C30287   3.730   6.681  10.671  0.7070 -0.1486  0.2240
  225MOL0     O30288   4.004   6.682  10.735 -0.0655 -0.5979 -0.2953
  225MOL0     C30289   4.179   6.868  10.491  0.8136 -0.1553  0.0932
  225MOL0     C30290   4.307   6.892  10.440  0.7075 -0.2708 -0.4801
  225MOL0     N30291   5.074   7.030  10.548 -0.0474  0.2815  0.0002
  225MOL0     N30292   5.198   7.046  10.583  0.4672 -0.5043 -0.2246
  225MOL0     C30293   5.856   7.032  11.249  0.1760 -0.0851  0.2097
  225MOL0     C30294   5.887   6.904  11.294 -0.4825  0.2889 -0.9510
  225MOL0     C30295   5.906   6.463  11.323  0.4406  0.2188 -0.1908
  225MOL0     C30296   6.036   6.409  11.311 -0.2015 -0.4606 -0.3001
  225MOL0     C30297   6.073   6.285  11.366  0.0632 -0.2852  0.6725
  225MOL0     C30298   5.987   6.202  11.420 -0.3001 -0.3021 -0.0659
  225MOL0     O30299   6.043   6.077  11.444  0.3786 -0.4049 -0.5474
  225MOL0     C30300   5.949   5.981  11.496 -0.3520  0.4978 -0.6979
  225MOL0     C30301   6.031   5.849  11.526 -0.0294 -1.7282  0.3165
  225MOL0     C30302   6.123   5.869  11.642  0.0471  0.0035 -1.7417
  225MOL0     C30303   6.206   5.737  11.675  0.2446 -0.2569 -0.6704
  225MOL0     C30304   6.132   5.613  11.660 -0.3171 -0.7459 -0.3510
  225MOL0     C30305   6.060   5.518  11.647 -0.3367 -0.4856  0.2622
  225MOL0     C30306   5.851   6.247  11.433  0.1317  0.4612 -0.1400
  225MOL0     C30307   5.810   6.375  11.385 -1.7824  0.0486  0.2985
  225MOL0     H30308   6.084   6.805  11.031 -0.4013  0.7599 -1.5976
  225MOL0     H30309   6.053   7.027  10.971 -0.1687 -1.9683 -1.4397
  225MOL0     H30310   5.797   7.307  11.229  0.2264 -0.0974 -1.0873
  225MOL0     H30311   5.861   7.402  11.090 -0.9901  0.5231 -0.5347
  225MOL0     H30312   5.649   7.189  11.073  0.0392 -0.1372 -0.8498
  225MOL0     H30313   5.643   7.365  11.055  0.7272  1.6266 -2.7395
  225MOL0     H30314   5.801   7.361  10.862 -1.1950  0.8533 -0.8620
  225MOL0     H30315   5.802   7.180  10.885 -0.7822  0.0774  0.4048
  225MOL0     H30316   5.546   7.201  10.845 -0.5689 -0.7372 -1.7920
  225MOL0     H30317   5.569   7.364  10.821 -4.4035 -2.6861  2.0731
  225MOL0     H30318   5.753   7.254  10.628  0.0451 -0.2813  1.8306
  225MOL0     H30319   5.629   7.132  10.662 -0.0142 -0.7252  0.4016
  225MOL0     H30320   5.563   7.416  10.558  1.9964  0.4068 -0.2197
  225MOL0     H30321   5.607   7.300  10.440 -0.9083 -0.5987 -0.2122
  225MOL0     H30322   5.369   7.279  10.637  1.1982 -2.4789  1.8590
  225MOL0     H30323   5.364   7.326  10.475  1.4471  2.4353  1.0123
  225MOL0     H30324   5.439   7.041  10.582  0.5484 -2.1756  0.1030
  225MOL0     H30325   5.466   7.095  10.420  0.3558  0.7904  0.3438
  225MOL0     H30326   5.225   7.028  10.259  2.4946  0.2822  0.1941
  225MOL0     H30327   4.941   7.044  10.228 -3.0937 -1.0048 -1.5605
  225MOL0     H30328   4.981   6.879  10.278 -1.4452  0.9177 -1.4596
  225MOL0     H30329   4.803   7.080  10.422  0.0438  0.1329 -2.3116
  225MOL0     H30330   4.824   6.909  10.470  0.6149  0.0522  0.6130
  225MOL0     H30331   4.730   6.850  10.256  0.7589  0.1840 -0.2485
  225MOL0     H30332   4.717   7.009  10.202  0.2979 -0.3768 -0.8381
  225MOL0     H30333   4.501   6.944  10.268 -0.4037 -0.2449  0.1314
  225MOL0     H30334   4.561   7.051  10.408 -0.5783 -1.0656  2.7444
  225MOL0     H30335   4.487   6.675  10.605  0.8654  0.8311  0.7505
  225MOL0     H30336   4.346   6.506  10.694  1.0179  0.7749  1.2667
  225MOL0     H30337   4.258   6.587  10.823 -0.1433 -0.3929 -0.4985
  225MOL0     H30338   4.170   6.510  10.680 -0.7385  0.8481 -2.7677
  225MOL0     H30339   3.776   6.841  10.386  0.2186  0.3047  1.3195
  225MOL0     H30340   3.534   6.772  10.354  0.0125 -0.9470 -0.2857
  225MOL0     H30341   3.298   6.714  10.383 -1.8816 -0.2483  0.9702
  225MOL0     H30342   3.369   6.552  10.357  0.1644  3.0781 -3.0597
  225MOL0     H30343   3.190   6.461  10.510  2.6576  1.4231  2.7919
  225MOL0     H30344   3.116   6.621  10.509  1.6989  0.4793  1.6075
  225MOL0     H30345   3.186   6.463  10.256 -1.2728 -2.8648  1.5318
  225MOL0     H30346   3.084   6.608  10.263 -0.3029  0.2215  0.9472
  225MOL0     H30347   3.023   6.340  10.406 -1.3247  1.0415  2.2670
  225MOL0     H30348   2.924   6.483  10.414 -0.8906  1.1082 -1.4470
  225MOL0     H30349   2.956   6.379  10.140 -0.6238  0.7678 -0.4553
  225MOL0     H30350   2.821   6.464  10.222 -1.5681 -1.4483  0.8688
  225MOL0     H30351   2.788   6.236  10.139  0.2743 -1.2976 -0.9820
  225MOL0     H30352   2.905   6.176  10.244 -1.2487 -1.2907  0.6649
  225MOL0     H30353   2.769   6.280  10.432 -0.6354 -1.0614  1.1457
  225MOL0     H30354   2.703   6.120  10.356 -3.5996  0.2269  1.5781
  225MOL0     H30355   2.528   6.253  10.245 -0.5088  0.2013  0.7089
  225MOL0     H30356   2.587   6.402  10.326 -0.4536 -0.1907 -1.6910
  225MOL0     H30357   3.549   6.576  10.741 -3.0345  1.1136 -0.0702
  225MOL0     H30358   3.777   6.647  10.762 -0.8702 -1.8655  0.4586
  225MOL0     H30359   4.095   6.924  10.450  1.7875  0.3519 -1.2860
  225MOL0     H30360   4.311   6.969  10.363  1.9829  2.3247  1.9946
  225MOL0     H30361   5.786   7.094  11.305 -0.7368 -0.8787 -0.0169
  225MOL0     H30362   5.842   6.865  11.384  0.9815 -1.1409 -0.7888
  225MOL0     H30363   6.107   6.482  11.276 -0.2042  0.8022  2.1260
  225MOL0     H30364   6.172   6.244  11.348  0.3972  0.9395 -0.4474
  225MOL0     H30365   5.902   6.025  11.585 -0.0561  0.8325 -0.7081
  225MOL0     H30366   5.877   5.952  11.419 -0.3228 -1.7694  0.0445
  225MOL0     H30367   6.088   5.822  11.437  0.4770 -0.9112  0.3769
  225MOL0     H30368   5.958   5.772  11.553 -1.6166 -1.5623 -3.0001
  225MOL0     H30369   6.077   5.905  11.735  1.2999  2.0922 -1.8665
  225MOL0     H30370   6.190   5.953  11.622 -2.3427  2.1024 -1.5146
  225MOL0     H30371   6.243   5.756  11.776  0.8036  1.8626 -1.2181
  225MOL0     H30372   6.298   5.720  11.619 -1.6494 -1.7235 -3.5822
  225MOL0     H30373   5.999   5.429  11.640  0.3477 -1.1370  2.1230
  225MOL0     H30374   5.787   6.165  11.463  0.8924 -0.6894 -1.5295
  225MOL0     H30375   5.705   6.400  11.382 -2.1433 -1.3216  1.1227
  226MOL0     O30376   6.245  11.271   5.550 -0.0104 -0.0733 -0.5489
  226MOL0     C30377   6.194  11.234   5.661  0.0704  0.3781  0.3925
  226MOL0     O30378   6.058  11.236   5.693  0.5921  0.0062 -0.5463
  226MOL0     C30379   5.961  11.272   5.607 -0.9930  0.1108 -0.6476
  226MOL0     C30380   5.836  11.306   5.666  0.7734  0.7138 -0.1734
  226MOL0     C30381   5.718  11.342   5.591 -0.1122 -0.1634  0.4792
  226MOL0     C30382   5.732  11.351   5.446  0.0344 -0.1363 -0.4243
  226MOL0     O30383   5.642  11.402   5.356 -0.2174 -0.1155  0.0649
  226MOL0     C30384   5.519  11.449   5.409 -0.0626 -0.1238  0.4151
  226MOL0     C30385   5.430  11.507   5.301 -0.7737 -0.0516 -0.0513
  226MOL0     C30386   5.320  11.592   5.350  0.6540 -0.1986 -0.2751
  226MOL0     C30387   5.217  11.587   5.237 -0.4645  0.0182 -0.6152
  226MOL0     C30388   5.118  11.709   5.255 -0.2269 -0.0907 -0.7356
  226MOL0     C30389   5.014  11.672   5.354  0.1077  0.0271  0.1489
  226MOL0     C30390   4.914  11.786   5.365  0.1361  0.4302 -0.7255
  226MOL0     C30391   4.819  11.768   5.486  0.3340  0.0922 -0.5108
  226MOL0     N30392   4.710  11.864   5.506 -0.6425  0.3541 -0.7096
  226MOL0     C30393   4.586  11.843   5.562 -0.2158  0.1009  0.7558
  226MOL0     C30394   4.542  11.964   5.581  0.1612 -0.4995 -0.2669
  226MOL0     C30395   4.406  12.005   5.642  0.5183 -0.3216  0.1722
  226MOL0     C30396   4.288  11.938   5.569 -0.0101 -0.3260 -0.2970
  226MOL0     C30397   4.273  11.991   5.437 -0.1517 -0.9768  0.4685
  226MOL0     C30398   4.132  11.993   5.390  0.7203 -0.6343 -0.1035
  226MOL0     O30399   4.055  12.083   5.469  0.0591 -0.1800 -0.2177
  226MOL0     C30400   3.956  12.149   5.404 -0.3792 -0.2518 -0.4173
  226MOL0     C30401   3.914  12.272   5.459 -0.3303  0.3232 -0.5300
  226MOL0     C30402   3.822  12.348   5.387  0.1686 -0.6286 -0.3753
  226MOL0     C30403   3.766  12.465   5.467 -0.4504 -0.6438  0.3462
  226MOL0     C30404   3.748  12.294   5.285  0.3174  0.5936  0.1387
  226MOL0     C30405   3.634  12.359   5.222  0.1941  1.0342  0.4255
  226MOL0     O30406   3.522  12.280   5.185  0.1471 -0.0250  0.1607
  226MOL0     C30407   3.391  12.330   5.181 -0.2368  0.6726 -0.2496
  226MOL0     C30408   3.349  12.422   5.278 -0.5346  0.2262  0.6740
  226MOL0     C30409   3.217  12.464   5.295  0.6359  0.9472  0.3877
  226MOL0     C30410   3.119  12.398   5.217  0.5207  0.2379  0.0238
  226MOL0     O30411   2.991  12.443   5.233  0.1189  0.7269 -0.0868
  226MOL0     C30412   2.883  12.366   5.181  0.3535 -0.4956  0.5897
  226MOL0     C30413   2.747  12.425   5.229 -0.9474 -0.0689  0.5128
  226MOL0     C30414   2.626  12.346   5.186  0.6822 -0.0380 -0.0688
  226MOL0     C30415   2.511  12.355   5.287 -0.3796 -0.2665 -0.8296
  226MOL0     C30416   2.386  12.291   5.236  0.0457 -0.4410 -0.8556
  226MOL0     C30417   2.272  12.332   5.334  0.7082  1.0580  0.1057
  226MOL0     C30418   2.143  12.262   5.283  0.6019  1.3172 -0.1418
  226MOL0     C30419   2.028  12.276   5.383 -0.0636 -0.1379  0.0707
  226MOL0    Cl30420   2.070  12.192   5.525 -0.3824 -0.1367  0.3196
  226MOL0     C30421   3.159  12.299   5.128 -0.5537  0.2114  0.0734
  226MOL0     C30422   3.290  12.268   5.112  0.1938 -0.5647 -0.6561
  226MOL0     O30423   3.648  12.478   5.200  1.3042 -0.6032 -0.3431
  226MOL0     C30424   3.781  12.174   5.234 -0.1679 -0.6176  0.2197
  226MOL0     C30425   3.893  12.107   5.285  0.2055  1.2854 -0.5277
  226MOL0     N30426   4.637  12.053   5.542  0.0803 -0.2860 -0.7161
  226MOL0     N30427   4.738  11.996   5.484  0.3289  0.4489 -0.2153
  226MOL0     C30428   5.852  11.305   5.391  0.2141 -0.0035  0.6577
  226MOL0     C30429   5.962  11.269   5.472  0.2362  0.1725 -0.3568
  226MOL0     C30430   6.280  11.179   5.759  0.4946  0.1806 -0.0681
  226MOL0     C30431   6.236  11.149   5.887  0.4864  0.1338 -0.4466
  226MOL0     C30432   6.315  11.086   5.980 -0.8323 -0.0842  0.4989
  226MOL0     C30433   6.447  11.058   5.950 -0.4555 -0.5112 -0.2825
  226MOL0     O30434   6.544  11.002   6.036 -0.3242 -0.1545  0.1757
  226MOL0     C30435   6.509  10.935   6.166 -0.0721 -0.1333  0.3256
  226MOL0     C30436   6.489  11.044   6.274 -0.8316 -0.0978  0.1966
  226MOL0     C30437   6.626  11.095   6.327  0.5207  0.2035  1.1821
  226MOL0     C30438   6.595  11.185   6.436 -0.0791 -0.4054 -0.1267
  226MOL0     C30439   6.712  11.194   6.531 -0.2543 -0.5252 -0.2393
  226MOL0     C30440   6.806  11.185   6.606  0.2553  0.4304  0.1786
  226MOL0     C30441   6.504  11.105   5.831  0.2841  0.4590 -0.2161
  226MOL0     C30442   6.420  11.160   5.732 -0.2616 -0.6645  0.3901
  226MOL0     H30443   5.840  11.297   5.774 -0.2671  0.2460 -0.1632
  226MOL0     H30444   5.626  11.356   5.646 -0.3229  0.9119 -0.1214
  226MOL0     H30445   5.460  11.372   5.459 -0.8902 -0.3762 -0.8947
  226MOL0     H30446   5.546  11.528   5.480  2.3593  0.2021 -0.7478
  226MOL0     H30447   5.479  11.567   5.224  1.1841 -0.9112  0.4719
  226MOL0     H30448   5.394  11.416   5.251 -1.0554 -1.0546  1.8895
  226MOL0     H30449   5.286  11.536   5.438 -0.4370 -0.0922 -0.6186
  226MOL0     H30450   5.355  11.689   5.387  0.8600 -0.3399 -0.0966
  226MOL0     H30451   5.270  11.595   5.141  0.4490 -2.4906 -0.3851
  226MOL0     H30452   5.162  11.493   5.230  0.1194 -0.3865  0.1015
  226MOL0     H30453   5.167  11.804   5.280  1.2038 -1.1199  0.5558
  226MOL0     H30454   5.071  11.724   5.158  1.3137  1.1535 -1.3317
  226MOL0     H30455   4.949  11.591   5.322  0.0561  0.7457 -1.6526
  226MOL0     H30456   5.057  11.634   5.448 -1.7934  1.3006  1.6089
  226MOL0     H30457   4.974  11.876   5.378  0.8954  0.1128 -1.8611
  226MOL0     H30458   4.850  11.796   5.276  1.3216  2.2800 -1.4297
  226MOL0     H30459   4.878  11.755   5.578  2.0707 -1.7058 -1.8068
  226MOL0     H30460   4.772  11.672   5.463  0.8211 -0.0887 -0.7676
  226MOL0     H30461   4.534  11.752   5.590 -1.2939 -0.0348 -1.4924
  226MOL0     H30462   4.418  11.987   5.749  1.3113  1.2092  0.3711
  226MOL0     H30463   4.397  12.112   5.623 -2.9118 -0.9186 -2.5288
  226MOL0     H30464   4.193  11.949   5.623 -1.3079 -3.4714 -1.7133
  226MOL0     H30465   4.307  11.831   5.576 -0.5853 -0.3526  1.5696
  226MOL0     H30466   4.344  11.933   5.377  1.3840  0.8917  0.3862
  226MOL0     H30467   4.310  12.094   5.441 -0.1121 -1.0384  2.0467
  226MOL0     H30468   4.078  11.898   5.386  1.0526 -1.0899  3.4343
  226MOL0     H30469   4.132  12.027   5.286 -2.1119  1.0310  0.3185
  226MOL0     H30470   3.957  12.305   5.553 -0.2293 -0.6743 -0.2156
  226MOL0     H30471   3.818  12.469   5.564  0.4550 -1.6747 -0.0801
  226MOL0     H30472   3.772  12.560   5.413 -1.8284  0.1475  1.5052
  226MOL0     H30473   3.661  12.451   5.491 -0.4419 -2.3001 -0.4722
  226MOL0     H30474   3.425  12.469   5.339  0.3287  1.4038 -1.2113
  226MOL0     H30475   3.191  12.537   5.371  1.0328 -2.0571  3.6515
  226MOL0     H30476   2.888  12.376   5.072  1.5472  0.3407  0.6920
  226MOL0     H30477   2.880  12.262   5.214 -1.0892 -0.8147 -0.4219
  226MOL0     H30478   2.753  12.431   5.338 -0.8920  0.9221  0.4648
  226MOL0     H30479   2.734  12.526   5.189  0.0546  0.4543  1.4546
  226MOL0     H30480   2.649  12.240   5.199 -0.3620 -0.1019  1.5208
  226MOL0     H30481   2.596  12.372   5.084 -0.3102  2.5962  0.8125
  226MOL0     H30482   2.541  12.312   5.383  1.2057  2.6774  0.1074
  226MOL0     H30483   2.486  12.460   5.303 -1.7409 -0.8805  1.6343
  226MOL0     H30484   2.387  12.182   5.237  1.1504 -0.4334 -0.4473
  226MOL0     H30485   2.363  12.335   5.139 -0.5859  2.0788  0.3423
  226MOL0     H30486   2.298  12.299   5.435  1.3183  0.1727 -0.3321
  226MOL0     H30487   2.251  12.439   5.345 -0.0615  1.0259 -0.9128
  226MOL0     H30488   2.164  12.155   5.287 -1.0065  0.9288  5.1729
  226MOL0     H30489   2.115  12.295   5.182 -0.1354 -0.9896 -0.7562
  226MOL0     H30490   1.946  12.220   5.337  1.1257 -0.7797 -1.3824
  226MOL0     H30491   1.999  12.380   5.397  0.2930  0.4751 -2.9980
  226MOL0     H30492   3.088  12.235   5.076 -0.6793 -1.4785  2.2061
  226MOL0     H30493   3.316  12.182   5.053  0.2111 -0.7397 -0.3959
  226MOL0     H30494   3.719  12.122   5.161 -1.6600  0.5850  0.5861
  226MOL0     H30495   3.925  12.019   5.231 -1.4123  1.0172 -1.0900
  226MOL0     H30496   5.856  11.315   5.283  3.3940 -0.2222  0.6654
  226MOL0     H30497   6.041  11.229   5.410 -0.0025 -0.7093 -0.0987
  226MOL0     H30498   6.132  11.160   5.915  0.4297  2.9781 -1.4884
  226MOL0     H30499   6.285  11.068   6.082 -0.7388  3.2238  1.2243
  226MOL0     H30500   6.414  10.887   6.144 -0.2122  1.2255 -2.3509
  226MOL0     H30501   6.570  10.856   6.211  0.2561  1.0772  2.1493
  226MOL0     H30502   6.432  11.001   6.356  0.8024 -2.1926  0.3028
  226MOL0     H30503   6.423  11.123   6.235 -1.0265  0.9626  2.5240
  226MOL0     H30504   6.681  11.150   6.249  2.6550  0.3576  2.7015
  226MOL0     H30505   6.686  11.013   6.367  0.8900  0.0495  0.3549
  226MOL0     H30506   6.504  11.151   6.487 -2.0636 -1.1608 -3.7891
  226MOL0     H30507   6.562  11.285   6.406  1.8062  0.3630  0.2312
  226MOL0     H30508   6.887  11.177   6.675  1.3238 -1.1238 -1.1611
  226MOL0     H30509   6.611  11.100   5.818  0.4399 -0.1113  1.1052
  226MOL0     H30510   6.456  11.196   5.636 -1.3620 -2.5390 -0.7916
  227MOL0     O30511   6.200   0.724   7.021  0.0712  0.0073 -0.5811
  227MOL0     C30512   6.239   0.614   7.060 -0.1513  0.6007  0.4719
  227MOL0     O30513   6.151   0.502   7.071  0.0177 -0.1167 -0.2786
  227MOL0     C30514   6.019   0.534   7.089  0.5246  0.6518  0.0155
  227MOL0     C30515   5.966   0.587   7.208 -1.1140  0.2399  0.2211
  227MOL0     C30516   5.835   0.625   7.224  1.1327  0.1578  0.2033
  227MOL0     C30517   5.745   0.585   7.127 -0.3179  0.0467 -0.5180
  227MOL0     O30518   5.606   0.615   7.134 -0.0539  0.3214  0.3017
  227MOL0     C30519   5.560   0.719   7.224  0.7670  0.3319  0.0463
  227MOL0     C30520   5.412   0.738   7.207  0.5464 -0.0349  0.6128
  227MOL0     C30521   5.327   0.609   7.225 -0.8511 -0.2063  0.1395
  227MOL0     C30522   5.174   0.630   7.212  0.1202  0.2210  0.4506
  227MOL0     C30523   5.118   0.698   7.336  0.4486  0.1360 -0.5211
  227MOL0     C30524   4.971   0.716   7.330  0.8759 -0.1624  0.0049
  227MOL0     C30525   4.924   0.827   7.233  0.5067 -0.3340 -0.6487
  227MOL0     C30526   4.770   0.842   7.250 -0.2295 -0.5314 -0.2443
  227MOL0     N30527   4.701   0.764   7.151  0.8222  0.2393 -0.5102
  227MOL0     C30528   4.728   0.652   7.082  0.1229 -0.6641 -0.0470
  227MOL0     C30529   4.619   0.613   7.020 -0.0489  0.6057  0.1590
  227MOL0     C30530   4.606   0.485   6.937  0.2021 -0.6229  0.8822
  227MOL0     C30531   4.462   0.460   6.892  0.4210 -0.0827 -0.0884
  227MOL0     C30532   4.432   0.316   6.848  0.1795  0.2580  1.0448
  227MOL0     C30533   4.291   0.318   6.782 -0.4327 -0.0797  0.1806
  227MOL0     O30534   4.194   0.397   6.842  0.0095 -0.1931  0.4356
  227MOL0     C30535   4.090   0.443   6.772 -0.2652 -0.6640 -0.2128
  227MOL0     C30536   4.072   0.437   6.636 -0.1369  0.0387  0.2976
  227MOL0     C30537   3.978   0.509   6.561 -0.8840 -0.5698  0.0711
  227MOL0     C30538   3.971   0.497   6.414 -0.0622  0.1704  0.1034
  227MOL0     C30539   3.889   0.585   6.636 -0.7063 -0.4138  1.0557
  227MOL0     C30540   3.786   0.666   6.567  0.1017  0.3599  0.1564
  227MOL0     O30541   3.684   0.702   6.656 -0.2874  0.1236  0.4744
  227MOL0     C30542   3.573   0.759   6.600  0.0230 -0.0128 -0.4188
  227MOL0     C30543   3.481   0.679   6.530 -0.1877 -0.5416 -0.0151
  227MOL0     C30544   3.364   0.735   6.492 -0.5359  1.1086  0.2520
  227MOL0     C30545   3.332   0.869   6.503 -0.0466 -0.2314 -1.0546
  227MOL0     O30546   3.216   0.916   6.442  0.0715 -0.1888 -0.3851
  227MOL0     C30547   3.170   1.053   6.472 -0.0608  0.8795  0.5114
  227MOL0     C30548   3.096   1.071   6.604 -0.1186  0.3719  0.4834
  227MOL0     C30549   2.991   0.958   6.618 -0.5302  0.4840 -0.3406
  227MOL0     C30550   3.004   0.908   6.759 -0.1017 -0.1043 -0.2632
  227MOL0     C30551   2.886   0.806   6.776 -0.5877 -0.0199  0.4775
  227MOL0     C30552   2.901   0.734   6.913  0.6306  0.2086 -0.0594
  227MOL0     C30553   2.774   0.651   6.936 -0.8436  0.7769  0.0124
  227MOL0     C30554   2.659   0.732   6.993  0.2611 -0.2280 -0.3994
  227MOL0    Cl30555   2.549   0.806   6.872 -0.5188  0.0494 -0.1860
  227MOL0     C30556   3.437   0.950   6.561 -0.2613 -0.5137 -0.3636
  227MOL0     C30557   3.559   0.903   6.606 -0.0794  0.2400 -0.4610
  227MOL0     O30558   3.804   0.712   6.459  0.0176  0.2691 -0.1121
  227MOL0     C30559   3.909   0.606   6.772  0.1666  0.6957  0.2950
  227MOL0     C30560   3.999   0.518   6.836  0.2333  0.3643 -0.3162
  227MOL0     N30561   4.521   0.710   7.041  0.5722  1.1631  0.6148
  227MOL0     N30562   4.572   0.802   7.117  0.1962  0.5142  0.1075
  227MOL0     C30563   5.789   0.507   7.017  0.3792 -0.5432  0.1775
  227MOL0     C30564   5.926   0.491   6.988  0.8223  0.0862 -0.0036
  227MOL0     C30565   6.376   0.616   7.114 -0.2193 -0.4920 -0.4826
  227MOL0     C30566   6.469   0.721   7.102  0.8523 -1.0826  0.5457
  227MOL0     C30567   6.599   0.719   7.139 -0.1728 -0.0470  0.1615
  227MOL0     C30568   6.649   0.602   7.203  0.4344  0.0605  0.2953
  227MOL0     O30569   6.774   0.593   7.263 -0.1465  0.4244 -0.5372
  227MOL0     C30570   6.826   0.461   7.285 -1.1305 -0.2149 -0.1962
  227MOL0     C30571   6.984   0.467   7.312  0.2715 -0.6484  0.2272
  227MOL0     C30572   7.049   0.366   7.407  1.1749 -0.7655  0.1444
  227MOL0     C30573   7.188   0.404   7.456  0.2005  0.7170  0.7331
  227MOL0     C30574   7.274   0.473   7.352  0.1539 -0.1204 -1.2752
  227MOL0     C30575   7.312   0.552   7.273  0.2442 -0.1443  0.1947
  227MOL0     C30576   6.559   0.499   7.224  0.5269  0.4470  0.3739
  227MOL0     C30577   6.427   0.506   7.183  0.1266  1.2224  0.2244
  227MOL0     H30578   6.028   0.594   7.297 -0.5811 -4.5391  0.5012
  227MOL0     H30579   5.803   0.658   7.323 -2.4552 -1.3161 -0.2898
  227MOL0     H30580   5.567   0.672   7.323  1.2158  1.1985  0.4382
  227MOL0     H30581   5.625   0.807   7.217  1.1444 -0.0311 -1.2258
  227MOL0     H30582   5.378   0.817   7.275  1.0408  0.5036  0.2516
  227MOL0     H30583   5.402   0.769   7.103  1.0678 -1.8578 -0.0057
  227MOL0     H30584   5.372   0.541   7.152  1.9444  0.3393  1.2137
  227MOL0     H30585   5.342   0.560   7.322  2.4945  0.2647 -0.0079
  227MOL0     H30586   5.149   0.676   7.116 -1.7841 -1.2832  0.1579
  227MOL0     H30587   5.138   0.527   7.205 -2.3273  0.9330  1.5100
  227MOL0     H30588   5.147   0.658   7.434  0.1339  3.4919  1.0920
  227MOL0     H30589   5.159   0.800   7.337 -0.3950  0.4856  0.0004
  227MOL0     H30590   4.929   0.619   7.303  5.0585 -1.9348 -0.8303
  227MOL0     H30591   4.925   0.731   7.428 -2.3449 -1.9541 -1.0842
  227MOL0     H30592   4.973   0.921   7.259  1.7694 -1.6689  2.1909
  227MOL0     H30593   4.939   0.808   7.126 -3.0976  2.5629 -1.8790
  227MOL0     H30594   4.748   0.949   7.248  1.8871 -0.0286  0.6362
  227MOL0     H30595   4.734   0.818   7.351 -0.4751  0.3049 -0.1310
  227MOL0     H30596   4.821   0.596   7.092 -0.1466 -1.1992 -0.4978
  227MOL0     H30597   4.665   0.499   6.847 -0.1127  2.9189  1.0773
  227MOL0     H30598   4.634   0.396   6.994 -0.4647 -1.2539  0.2461
  227MOL0     H30599   4.436   0.531   6.813 -0.8840 -0.5615 -0.1151
  227MOL0     H30600   4.390   0.485   6.971  0.9043  1.0684  0.0093
  227MOL0     H30601   4.426   0.251   6.936  1.2660 -2.9426 -1.0761
  227MOL0     H30602   4.504   0.283   6.773  0.0585  0.0038  1.0416
  227MOL0     H30603   4.249   0.217   6.787  1.1510 -0.6971  1.9935
  227MOL0     H30604   4.306   0.340   6.676 -0.0061 -3.8211 -0.6848
  227MOL0     H30605   4.139   0.383   6.569 -1.2834  2.1773 -2.7979
  227MOL0     H30606   3.867   0.466   6.400 -1.3720  3.9308  0.3573
  227MOL0     H30607   3.998   0.587   6.357  1.3527 -0.6029 -0.5101
  227MOL0     H30608   4.041   0.419   6.383 -1.5306 -1.0806 -0.1419
  227MOL0     H30609   3.502   0.573   6.517  1.3902 -0.3359  0.5782
  227MOL0     H30610   3.298   0.668   6.438  0.1672  0.9360 -0.4077
  227MOL0     H30611   3.252   1.126   6.460  0.6183 -0.0908 -1.0721
  227MOL0     H30612   3.103   1.080   6.390  0.2404  1.3749  0.4184
  227MOL0     H30613   3.182   1.056   6.671 -0.2997  0.4271  0.7271
  227MOL0     H30614   3.061   1.175   6.604  0.5452  0.8395 -4.1190
  227MOL0     H30615   3.014   0.872   6.555 -1.1239 -0.6888  0.9794
  227MOL0     H30616   2.888   0.995   6.611 -1.9499 -1.9011  4.1221
  227MOL0     H30617   3.098   0.856   6.775 -0.1751  0.4312  2.2538
  227MOL0     H30618   3.005   0.990   6.831 -0.6096  1.5577 -2.0646
  227MOL0     H30619   2.882   0.740   6.689  0.0276  1.8461 -1.0536
  227MOL0     H30620   2.796   0.867   6.786 -0.2567  0.4145  0.8614
  227MOL0     H30621   2.991   0.674   6.905  1.5318  1.6613 -1.7047
  227MOL0     H30622   2.917   0.801   6.997  2.1038 -0.6628  0.3732
  227MOL0     H30623   2.789   0.567   7.005  1.6423  0.1934 -1.1260
  227MOL0     H30624   2.749   0.602   6.842 -2.0270 -0.6847  1.0436
  227MOL0     H30625   2.699   0.817   7.049 -1.5941  0.0813  0.5094
  227MOL0     H30626   2.602   0.666   7.058  3.0606 -1.0272  1.4592
  227MOL0     H30627   3.419   1.055   6.580 -2.6909 -1.1050  1.0669
  227MOL0     H30628   3.628   0.965   6.662 -0.7447 -0.3523  1.0765
  227MOL0     H30629   3.840   0.669   6.828 -0.3939 -0.2855  0.7206
  227MOL0     H30630   4.000   0.541   6.942  1.0541  1.5398 -0.5581
  227MOL0     H30631   5.711   0.471   6.950  0.5627  0.2701 -0.4938
  227MOL0     H30632   5.974   0.458   6.896 -0.3449 -0.8155 -0.3039
  227MOL0     H30633   6.430   0.811   7.054  0.3716 -0.6590  1.6979
  227MOL0     H30634   6.656   0.810   7.122  0.0194 -0.6095 -2.6808
  227MOL0     H30635   6.789   0.408   7.374  0.1272  0.3685  0.7001
  227MOL0     H30636   6.811   0.404   7.192  0.4270 -2.2411  0.7120
  227MOL0     H30637   7.011   0.570   7.337 -0.0809 -0.4749 -0.0994
  227MOL0     H30638   7.032   0.455   7.214 -2.2050  0.8342 -1.2622
  227MOL0     H30639   7.066   0.275   7.349  0.1898 -0.8826  0.0112
  227MOL0     H30640   6.987   0.328   7.488  0.5332  0.1050  0.0869
  227MOL0     H30641   7.238   0.315   7.494  0.9109  0.0211 -1.6637
  227MOL0     H30642   7.169   0.457   7.550 -2.9690 -0.7048  0.9955
  227MOL0     H30643   7.333   0.626   7.199 -0.4410 -0.7871 -0.6719
  227MOL0     H30644   6.588   0.405   7.270 -2.4436 -0.2011  1.1332
  227MOL0     H30645   6.360   0.424   7.202 -0.1799  1.9243  2.5566
  228MOL0     O30646   0.932   3.846   4.248 -0.9468 -0.4272 -0.3767
  228MOL0     C30647   0.995   3.943   4.290 -0.0255  0.8669  0.5839
  228MOL0     O30648   0.947   4.052   4.344  0.3868 -0.2113 -0.1704
  228MOL0     C30649   0.812   4.049   4.387  0.0792 -0.1670  0.4820
  228MOL0     C30650   0.747   3.946   4.445 -0.1058  0.3831 -1.3901
  228MOL0     C30651   0.614   3.954   4.489  0.9385 -0.2249 -0.2065
  228MOL0     C30652   0.548   4.079   4.471  0.1348  0.2329  0.1363
  228MOL0     O30653   0.413   4.103   4.514  0.3080  0.1595  0.0792
  228MOL0     C30654   0.366   4.028   4.632  0.0360 -0.0127 -0.0641
  228MOL0     C30655   0.223   4.075   4.677  0.5696  0.3976  0.5682
  228MOL0     C30656   0.206   4.225   4.716  0.5222  0.3825  0.1291
  228MOL0     C30657   0.075   4.243   4.782 -0.1103  0.0342 -0.6815
  228MOL0     C30658   0.039   4.391   4.823 -0.8415  0.4635 -0.5808
  228MOL0     C30659   0.025   4.484   4.697 -1.3530  0.6704 -0.0614
  228MOL0     C30660  -0.128   4.500   4.664 -0.6598  0.5403 -0.5471
  228MOL0     C30661  -0.153   4.608   4.562  0.6524 -0.2479  0.5235
  228MOL0     N30662  -0.295   4.635   4.540 -0.6425 -0.2952  0.5804
  228MOL0     C30663  -0.352   4.744   4.602  0.9155 -0.1719  0.1913
  228MOL0     C30664  -0.475   4.746   4.548  1.3585 -0.1421  0.3023
  228MOL0     C30665  -0.583   4.849   4.591 -0.1528  0.0873  0.2933
  228MOL0     C30666  -0.725   4.819   4.562 -0.4471 -0.1299  0.0046
  228MOL0     C30667  -0.824   4.924   4.618 -0.1706  0.3289  0.1911
  228MOL0     C30668  -0.967   4.893   4.575 -0.3502 -0.4714 -0.3636
  228MOL0     O30669  -1.064   4.977   4.644  0.7284 -0.0021  0.4757
  228MOL0     C30670  -1.196   4.919   4.645 -0.4062 -0.7517 -0.0213
  228MOL0     C30671  -1.242   4.814   4.569 -0.7646  0.4124 -0.2461
  228MOL0     C30672  -1.366   4.765   4.576  0.2459  0.7100  1.0582
  228MOL0     C30673  -1.396   4.641   4.501 -0.3837 -0.0793 -0.3340
  228MOL0     C30674  -1.457   4.818   4.671  1.1675 -0.2565 -0.1488
  228MOL0     C30675  -1.594   4.771   4.703  0.9467 -0.1756 -0.1326
  228MOL0     O30676  -1.673   4.852   4.778  0.1798  0.5080  0.4060
  228MOL0     C30677  -1.798   4.805   4.814  0.1526 -0.7040 -0.0970
  228MOL0     C30678  -1.801   4.706   4.910 -0.4755  0.0701  0.1738
  228MOL0     C30679  -1.926   4.654   4.955  0.3568  0.2895 -0.4721
  228MOL0     C30680  -2.050   4.683   4.895 -0.5363  0.5295  0.2806
  228MOL0     O30681  -2.148   4.620   4.958 -0.1426  0.2748  0.5842
  228MOL0     C30682  -2.284   4.654   4.938  0.1071 -0.0521 -0.2010
  228MOL0     C30683  -2.366   4.551   5.008 -0.1375  1.3948 -0.5148
  228MOL0     C30684  -2.510   4.590   4.995 -0.0530  0.4344 -0.3156
  228MOL0     C30685  -2.592   4.488   5.083 -0.0917 -1.0971 -0.7230
  228MOL0     C30686  -2.737   4.498   5.062 -0.4330  0.9863 -0.3642
  228MOL0     C30687  -2.799   4.607   5.149  0.8141 -0.7764 -0.0809
  228MOL0     C30688  -2.950   4.616   5.138  0.0622  0.4042  0.0607
  228MOL0     C30689  -3.014   4.739   5.193  0.6060 -1.2305 -0.3305
  228MOL0    Cl30690  -2.953   4.909   5.130 -0.3828  0.4387  0.4903
  228MOL0     C30691  -2.042   4.767   4.782 -0.2321 -1.2316 -0.0131
  228MOL0     C30692  -1.917   4.835   4.742 -0.0838 -0.6663 -0.2022
  228MOL0     O30693  -1.634   4.669   4.656 -0.4412  0.5350 -0.2065
  228MOL0     C30694  -1.413   4.939   4.739 -0.5258 -0.9535 -0.2565
  228MOL0     C30695  -1.283   4.996   4.718 -0.2542 -0.1418 -0.2498
  228MOL0     N30696  -0.489   4.646   4.451 -0.0273 -0.1621 -0.0112
  228MOL0     N30697  -0.372   4.579   4.445 -0.0798  0.5418 -1.2481
  228MOL0     C30698   0.622   4.184   4.411  0.9058  0.6738 -0.0143
  228MOL0     C30699   0.751   4.172   4.363 -0.3147  0.2245  0.4707
  228MOL0     C30700   1.143   3.961   4.252  0.7103  0.2858  0.4736
  228MOL0     C30701   1.187   3.879   4.140  0.1397 -0.3349 -0.3446
  228MOL0     C30702   1.326   3.894   4.088  0.4192  0.5238  0.2198
  228MOL0     C30703   1.409   3.986   4.141 -0.3837 -0.9974 -0.5902
  228MOL0     O30704   1.526   3.996   4.075 -0.4006  0.2790 -0.4640
  228MOL0     C30705   1.536   4.074   3.951  0.5830 -0.6056 -0.2023
  228MOL0     C30706   1.595   3.996   3.826 -0.3268 -0.0440  0.6582
  228MOL0     C30707   1.736   3.940   3.861 -0.2237 -0.4349 -0.8247
  228MOL0     C30708   1.788   3.841   3.761 -0.4101  0.5122  1.1036
  228MOL0     C30709   1.894   3.754   3.815 -0.1491  0.3806 -0.0734
  228MOL0     C30710   1.962   3.675   3.878  0.2588 -0.2442 -0.2630
  228MOL0     C30711   1.362   4.063   4.251 -0.7005 -0.1465  0.4565
  228MOL0     C30712   1.234   4.043   4.309 -0.2092  0.4622 -0.5487
  228MOL0     H30713   0.804   3.857   4.471 -1.6804 -1.0418 -2.6692
  228MOL0     H30714   0.569   3.873   4.546 -0.1422 -0.6454 -1.6005
  228MOL0     H30715   0.345   3.924   4.605  1.7068 -0.5981  0.7613
  228MOL0     H30716   0.441   4.032   4.711 -0.7392  0.2730  0.6685
  228MOL0     H30717   0.150   4.048   4.600 -0.8534  2.0230  1.2615
  228MOL0     H30718   0.199   4.022   4.770  3.1766  1.9748  2.2638
  228MOL0     H30719   0.288   4.252   4.783  0.7623  0.7653 -0.3097
  228MOL0     H30720   0.220   4.281   4.623  0.9874  0.2188  0.0960
  228MOL0     H30721  -0.004   4.205   4.717 -4.7330  0.1016  4.1529
  228MOL0     H30722   0.073   4.179   4.871 -0.9516  0.2649 -0.5268
  228MOL0     H30723  -0.045   4.384   4.893 -0.0001 -1.1247  0.3599
  228MOL0     H30724   0.130   4.422   4.874 -0.7304 -0.6324 -0.0704
  228MOL0     H30725   0.064   4.584   4.720  1.3267 -1.0682  4.1988
  228MOL0     H30726   0.072   4.443   4.607 -2.5532 -0.7210 -0.0933
  228MOL0     H30727  -0.169   4.400   4.646  0.1992  0.2305 -0.8175
  228MOL0     H30728  -0.176   4.542   4.752  0.4920  3.7679 -1.3032
  228MOL0     H30729  -0.108   4.595   4.463 -0.5516  1.7443 -0.3575
  228MOL0     H30730  -0.115   4.697   4.613  0.9634  0.1405 -0.3546
  228MOL0     H30731  -0.315   4.805   4.684 -0.4811 -0.0229  0.7400
  228MOL0     H30732  -0.574   4.872   4.697 -0.0654  1.0824  0.0831
  228MOL0     H30733  -0.566   4.943   4.537  1.9120  0.1334  0.9491
  228MOL0     H30734  -0.750   4.717   4.592 -2.5753  0.0153 -1.0999
  228MOL0     H30735  -0.723   4.819   4.453  1.8969 -0.5877 -0.0076
  228MOL0     H30736  -0.803   5.024   4.578 -0.9948  0.8053  0.9412
  228MOL0     H30737  -0.816   4.923   4.727 -0.1430  3.0012  0.2615
  228MOL0     H30738  -0.984   4.790   4.608  1.1821 -0.4191  0.6980
  228MOL0     H30739  -0.977   4.892   4.466 -3.0110  1.5875 -0.2609
  228MOL0     H30740  -1.174   4.761   4.503 -0.4751  1.9105 -1.1901
  228MOL0     H30741  -1.427   4.565   4.573 -1.0202  3.1901  3.1393
  228MOL0     H30742  -1.473   4.668   4.428 -1.1133  1.3239  0.9025
  228MOL0     H30743  -1.308   4.597   4.451 -0.4680 -1.9808  1.0836
  228MOL0     H30744  -1.718   4.688   4.978  0.1508 -0.0310 -0.6043
  228MOL0     H30745  -1.924   4.600   5.048  1.7665  2.8852  1.1414
  228MOL0     H30746  -2.290   4.752   4.987  2.2043  1.0316 -1.9378
  228MOL0     H30747  -2.319   4.659   4.835 -1.2074  0.3508  0.2440
  228MOL0     H30748  -2.349   4.448   4.976 -0.8897  1.8834 -2.6279
  228MOL0     H30749  -2.337   4.563   5.113 -1.0754  1.0948 -0.2090
  228MOL0     H30750  -2.545   4.595   4.892 -1.0160  2.7635  0.0577
  228MOL0     H30751  -2.520   4.690   5.038  0.5580  1.1785 -1.8404
  228MOL0     H30752  -2.573   4.384   5.053 -1.8639 -1.2976 -1.2639
  228MOL0     H30753  -2.568   4.506   5.188  3.3771 -1.0845 -1.3930
  228MOL0     H30754  -2.773   4.396   5.078  1.3701  0.5386  1.1527
  228MOL0     H30755  -2.761   4.511   4.956 -3.8269 -0.3746  0.1272
  228MOL0     H30756  -2.773   4.580   5.252 -1.3697 -1.2483  0.4007
  228MOL0     H30757  -2.758   4.705   5.125  0.1497  0.6664  3.8048
  228MOL0     H30758  -3.010   4.535   5.181 -0.7322  0.3101 -1.1509
  228MOL0     H30759  -2.984   4.615   5.034 -0.4307  1.2746  0.2086
  228MOL0     H30760  -3.002   4.738   5.302  0.1600  0.4493 -0.2447
  228MOL0     H30761  -3.120   4.719   5.178  0.5673 -1.7946  0.6012
  228MOL0     H30762  -2.129   4.791   4.723 -0.0851 -1.7081 -0.4292
  228MOL0     H30763  -1.908   4.901   4.656  1.5423 -1.8483 -0.9964
  228MOL0     H30764  -1.485   4.986   4.805  1.3742  1.1461  0.4513
  228MOL0     H30765  -1.258   5.090   4.766  0.5392  1.1143 -2.9579
  228MOL0     H30766   0.579   4.284   4.405  3.0068  1.5330 -2.0594
  228MOL0     H30767   0.793   4.256   4.309 -5.1435  1.3609 -2.0940
  228MOL0     H30768   1.116   3.804   4.105  0.5326 -0.5081 -0.7849
  228MOL0     H30769   1.354   3.836   4.001 -3.9938  0.8980 -1.7036
  228MOL0     H30770   1.434   4.109   3.933  0.2289  2.0513  4.9529
  228MOL0     H30771   1.594   4.167   3.964  0.0621 -0.2377 -0.4666
  228MOL0     H30772   1.599   4.053   3.733 -3.8166 -2.8038 -1.4261
  228MOL0     H30773   1.517   3.920   3.818 -0.4005  0.0510  0.4903
  228MOL0     H30774   1.740   3.893   3.960  0.6970 -1.0666 -1.1484
  228MOL0     H30775   1.803   4.026   3.876 -1.8320  1.0114 -1.5901
  228MOL0     H30776   1.818   3.894   3.671  5.0479 -1.8096  1.2054
  228MOL0     H30777   1.699   3.779   3.744 -1.2391  2.1178 -0.8958
  228MOL0     H30778   2.015   3.591   3.919 -1.8830 -2.1584 -1.2177
  228MOL0     H30779   1.428   4.141   4.289  0.4218 -0.9028  0.1140
  228MOL0     H30780   1.191   4.109   4.384  1.0776  0.3736  0.3018
  229MOL0     O30781   2.652   0.641   1.530 -0.1613  0.6155  0.3599
  229MOL0     C30782   2.729   0.716   1.586 -0.8506  0.1083  0.6301
  229MOL0     O30783   2.710   0.851   1.597  0.0200  0.5830 -0.0094
  229MOL0     C30784   2.605   0.906   1.529  0.3941  0.0489  0.7468
  229MOL0     C30785   2.601   0.909   1.382 -1.2292 -0.9351 -0.2624
  229MOL0     C30786   2.481   0.939   1.317 -0.2395 -0.8984 -0.2256
  229MOL0     C30787   2.370   0.984   1.384  0.4374 -0.8838  0.2119
  229MOL0     O30788   2.271   1.027   1.296 -0.0715 -0.2086  0.8039
  229MOL0     C30789   2.143   1.019   1.359 -0.1418 -0.2714  0.2725
  229MOL0     C30790   2.042   1.071   1.256  0.1021  0.0762 -0.4424
  229MOL0     C30791   1.907   1.102   1.327  0.1041  0.1717  0.1085
  229MOL0     C30792   1.795   1.167   1.245  0.7436  0.8930  0.2462
  229MOL0     C30793   1.691   1.235   1.338  0.9272 -0.3548  0.0418
  229MOL0     C30794   1.568   1.144   1.361 -0.2482 -0.1161 -0.2546
  229MOL0     C30795   1.472   1.141   1.243  0.6748  0.6755 -0.6978
  229MOL0     C30796   1.360   1.038   1.258  0.5434  0.5497 -0.1746
  229MOL0     N30797   1.413   0.907   1.212  0.0681 -0.2546 -0.1237
  229MOL0     C30798   1.486   0.903   1.091  0.4437 -0.2317  0.5241
  229MOL0     C30799   1.577   0.801   1.105 -0.9337 -0.6586 -0.4872
  229MOL0     C30800   1.693   0.755   1.028  0.3125  0.0369  0.0065
  229MOL0     C30801   1.825   0.751   1.113  0.0308  0.2029  0.1727
  229MOL0     C30802   1.942   0.725   1.011 -0.1873  0.0062 -0.2941
  229MOL0     C30803   2.078   0.718   1.076 -1.4431  0.5115  0.1056
  229MOL0     O30804   2.166   0.654   0.974  0.6184 -0.4614  0.0619
  229MOL0     C30805   2.299   0.651   0.988 -0.2257  0.0011 -0.0692
  229MOL0     C30806   2.383   0.633   0.882  0.3880 -0.1441  0.1169
  229MOL0     C30807   2.526   0.640   0.882 -0.3717  0.4852 -0.0672
  229MOL0     C30808   2.607   0.619   0.747  0.5000 -0.3834 -0.6343
  229MOL0     C30809   2.592   0.666   1.004 -0.3738 -0.3725  0.9437
  229MOL0     C30810   2.742   0.670   1.014  0.3943 -0.1207 -0.5944
  229MOL0     O30811   2.788   0.627   1.139 -0.3492  0.2506 -0.3746
  229MOL0     C30812   2.921   0.598   1.172 -0.4165  0.4101 -0.1956
  229MOL0     C30813   3.029   0.586   1.090 -0.6438 -0.2062  0.1726
  229MOL0     C30814   3.148   0.533   1.131  0.0690  0.8134 -0.0045
  229MOL0     C30815   3.172   0.506   1.264 -0.4966  0.6230 -0.3627
  229MOL0     O30816   3.295   0.461   1.308  0.3037  0.4635 -0.3589
  229MOL0     C30817   3.351   0.528   1.420  0.2778 -0.6118 -0.5032
  229MOL0     C30818   3.374   0.679   1.378  0.3405  0.1023 -0.1826
  229MOL0     C30819   3.468   0.692   1.258  0.4604 -0.0471  0.6784
  229MOL0     C30820   3.506   0.839   1.231 -0.9639  0.3200  0.0981
  229MOL0     C30821   3.591   0.858   1.106  0.0746  0.3297  0.0260
  229MOL0     C30822   3.737   0.802   1.140  0.1846 -0.6882 -0.2655
  229MOL0     C30823   3.817   0.786   1.010 -0.5374 -0.5427  0.6005
  229MOL0     C30824   3.794   0.896   0.908  0.0170 -0.1631  0.1967
  229MOL0    Cl30825   3.809   1.068   0.974 -0.0412  0.0964  0.0535
  229MOL0     C30826   3.066   0.510   1.352 -0.4570  0.2057  0.4579
  229MOL0     C30827   2.942   0.552   1.307  0.3293 -0.4346 -0.5028
  229MOL0     O30828   2.809   0.731   0.933  0.1849  0.7373  0.5944
  229MOL0     C30829   2.515   0.668   1.116 -0.1845  0.6964  0.4807
  229MOL0     C30830   2.371   0.669   1.111 -0.6049 -0.9714 -0.4797
  229MOL0     N30831   1.540   0.740   1.222  0.0068  0.3506 -0.4090
  229MOL0     N30832   1.444   0.802   1.289 -0.1707  0.0495 -0.3672
  229MOL0     C30833   2.371   0.989   1.527 -0.5586  0.0328 -0.8932
  229MOL0     C30834   2.486   0.951   1.601 -0.4236 -0.2527  1.0059
  229MOL0     C30835   2.849   0.659   1.655 -0.2262 -0.4503 -0.7620
  229MOL0     C30836   2.854   0.521   1.684 -0.1325  0.3674  0.5785
  229MOL0     C30837   2.962   0.452   1.743  1.1369 -1.0953 -0.5148
  229MOL0     C30838   3.071   0.526   1.786  0.1711 -0.0959  1.2317
  229MOL0     O30839   3.178   0.448   1.841 -0.3256  0.5420  0.1187
  229MOL0     C30840   3.285   0.527   1.894  0.2732  0.9027 -0.2035
  229MOL0     C30841   3.394   0.554   1.793  0.2351  0.0762  0.2290
  229MOL0     C30842   3.465   0.426   1.765 -0.4498  0.3744 -0.7581
  229MOL0     C30843   3.559   0.378   1.873 -0.0630  0.4735 -0.1978
  229MOL0     C30844   3.640   0.261   1.829  1.0182 -0.1975  0.3493
  229MOL0     C30845   3.730   0.182   1.822  0.4644 -0.1060 -0.0416
  229MOL0     C30846   3.070   0.672   1.769  0.0586 -0.5620  0.1588
  229MOL0     C30847   2.957   0.729   1.706  0.4236 -0.5333 -0.5646
  229MOL0     H30848   2.679   0.855   1.329 -1.5680  0.3422 -2.1078
  229MOL0     H30849   2.482   0.936   1.209  1.8984 -1.4900 -0.2443
  229MOL0     H30850   2.114   0.918   1.391  0.5566 -1.4897 -2.5774
  229MOL0     H30851   2.141   1.085   1.446  0.3823 -0.5822  0.5300
  229MOL0     H30852   2.080   1.154   1.195 -0.7698  1.5069  0.8911
  229MOL0     H30853   2.019   0.983   1.196 -2.3712 -0.4787  1.1475
  229MOL0     H30854   1.868   1.011   1.374 -2.6999  1.2837  0.1566
  229MOL0     H30855   1.930   1.170   1.410 -1.0230  2.8853 -1.6522
  229MOL0     H30856   1.850   1.240   1.184  0.5581 -0.2140 -1.3049
  229MOL0     H30857   1.749   1.098   1.173 -0.2440  0.9396  0.8144
  229MOL0     H30858   1.738   1.258   1.434 -0.4742 -0.0300  0.6741
  229MOL0     H30859   1.660   1.328   1.290  1.7989 -0.9141 -1.7146
  229MOL0     H30860   1.603   1.043   1.384 -1.1012 -0.8819 -2.1566
  229MOL0     H30861   1.506   1.186   1.442  0.3696  0.2530  0.0334
  229MOL0     H30862   1.423   1.238   1.229 -0.0966  0.1779 -1.5316
  229MOL0     H30863   1.528   1.116   1.152 -2.1422 -3.6678 -1.5412
  229MOL0     H30864   1.280   1.070   1.191  0.8538 -1.6318 -1.6739
  229MOL0     H30865   1.328   1.032   1.363  2.5693 -1.9969  0.4171
  229MOL0     H30866   1.490   0.966   1.003 -0.5759 -0.2846  0.4237
  229MOL0     H30867   1.672   0.654   0.992  0.2695 -1.2719  3.3474
  229MOL0     H30868   1.704   0.828   0.947  0.1283  0.6470  0.5239
  229MOL0     H30869   1.818   0.668   1.184  0.1438  1.1828  1.3737
  229MOL0     H30870   1.845   0.846   1.164  1.0597  0.1186 -0.0445
  229MOL0     H30871   1.954   0.817   0.953 -0.1084 -0.0010 -0.2875
  229MOL0     H30872   1.931   0.629   0.959  2.0809 -0.4636  0.0026
  229MOL0     H30873   2.083   0.649   1.161 -1.5667  1.0947  0.5961
  229MOL0     H30874   2.108   0.819   1.106 -1.8592  0.2546  1.4473
  229MOL0     H30875   2.323   0.603   0.796  2.9262 -0.7564 -1.5438
  229MOL0     H30876   2.703   0.570   0.768  0.3894 -0.9427 -1.4125
  229MOL0     H30877   2.546   0.557   0.681  0.7830 -1.2856 -0.0739
  229MOL0     H30878   2.623   0.720   0.708 -0.1806 -0.6303 -1.5790
  229MOL0     H30879   3.014   0.613   0.985  1.8510  1.4524  0.1514
  229MOL0     H30880   3.231   0.511   1.065 -0.1620 -1.2012  0.3001
  229MOL0     H30881   3.283   0.535   1.505  2.8074  2.2090  1.4750
  229MOL0     H30882   3.446   0.489   1.457  0.0877 -1.4010 -0.8169
  229MOL0     H30883   3.278   0.726   1.357  1.6131  2.9006 -0.2485
  229MOL0     H30884   3.418   0.729   1.465  2.1958 -0.0347 -0.9982
  229MOL0     H30885   3.409   0.653   1.174  0.1762  1.1372  0.3042
  229MOL0     H30886   3.551   0.628   1.287  1.2399  1.9064  3.0681
  229MOL0     H30887   3.416   0.901   1.217 -1.5331 -0.2899  0.9371
  229MOL0     H30888   3.552   0.876   1.323 -0.6527 -1.8618  0.8612
  229MOL0     H30889   3.594   0.963   1.077 -1.4571  0.4477  0.1923
  229MOL0     H30890   3.560   0.805   1.016  0.9525  2.5108 -1.6521
  229MOL0     H30891   3.786   0.876   1.203  0.7841 -0.9573 -0.4115
  229MOL0     H30892   3.733   0.715   1.206 -2.4319 -0.3474  0.1162
  229MOL0     H30893   3.811   0.691   0.956 -0.1060  0.2642 -0.9269
  229MOL0     H30894   3.924   0.799   1.027 -0.9702  2.3913  1.7117
  229MOL0     H30895   3.699   0.884   0.855  0.3254 -1.1490 -0.1531
  229MOL0     H30896   3.867   0.880   0.829 -0.2975 -1.4635  0.1547
  229MOL0     H30897   3.088   0.497   1.458  1.7363  2.6973  0.4293
  229MOL0     H30898   2.859   0.556   1.377 -0.8067 -0.4921 -1.8202
  229MOL0     H30899   2.564   0.666   1.213 -0.7487  0.5524  0.7656
  229MOL0     H30900   2.316   0.655   1.203 -0.9552 -1.3791 -0.7490
  229MOL0     H30901   2.281   1.022   1.577  0.3275 -0.4807  1.1329
  229MOL0     H30902   2.512   0.968   1.705 -1.2291  2.4910  0.8610
  229MOL0     H30903   2.767   0.460   1.658 -2.9041  3.5778  1.5976
  229MOL0     H30904   2.947   0.353   1.784 -0.1811 -0.0398  1.7644
  229MOL0     H30905   3.247   0.618   1.942 -1.6244 -0.2812  0.6559
  229MOL0     H30906   3.325   0.480   1.984 -2.8731  0.5403  1.1296
  229MOL0     H30907   3.472   0.618   1.836 -0.6274  0.9243  0.5632
  229MOL0     H30908   3.361   0.583   1.693  0.2664 -1.0824 -0.1413
  229MOL0     H30909   3.533   0.442   1.682  0.5491 -0.6102 -0.1687
  229MOL0     H30910   3.387   0.350   1.747 -1.5115  0.9769  1.0101
  229MOL0     H30911   3.498   0.346   1.957 -1.7133 -0.6529 -1.7710
  229MOL0     H30912   3.627   0.460   1.901 -0.0176  0.7637 -1.1426
  229MOL0     H30913   3.805   0.107   1.809  0.1862 -0.0852 -2.1565
  229MOL0     H30914   3.158   0.730   1.795  0.0521  0.6360 -2.2606
  229MOL0     H30915   2.955   0.837   1.702  1.1886 -0.5394 -1.6245
  230MOL0     O30916   0.253   0.751   2.828  0.1825 -0.1899  0.3532
  230MOL0     C30917   0.236   0.685   2.728 -0.5100 -0.0101  0.0317
  230MOL0     O30918   0.195   0.746   2.606  0.2689 -0.4175  0.5436
  230MOL0     C30919   0.219   0.878   2.601 -0.7430  0.1105 -0.2381
  230MOL0     C30920   0.111   0.956   2.638  0.0622  0.4152 -0.2025
  230MOL0     C30921   0.118   1.096   2.627 -0.7645 -0.1731  1.1102
  230MOL0     C30922   0.240   1.155   2.580  0.7426 -0.5491  0.3431
  230MOL0     O30923   0.229   1.289   2.561  0.2369 -0.4509  1.3430
  230MOL0     C30924   0.294   1.361   2.456 -0.0657  0.2124  0.5015
  230MOL0     C30925   0.276   1.507   2.472  0.4489 -0.1217 -1.1890
  230MOL0     C30926   0.158   1.575   2.406  0.3158 -0.0925 -0.7430
  230MOL0     C30927   0.098   1.700   2.468 -0.3689 -0.2976 -0.1797
  230MOL0     C30928  -0.011   1.754   2.383 -0.8599 -0.3001 -0.6819
  230MOL0     C30929  -0.157   1.704   2.410  0.2472 -0.0385  0.2565
  230MOL0     C30930  -0.251   1.808   2.348 -0.4576  0.1595 -0.1810
  230MOL0     C30931  -0.257   1.805   2.193  0.1846  0.4000 -0.0663
  230MOL0     N30932  -0.372   1.877   2.151  0.1143  0.5832 -0.0241
  230MOL0     C30933  -0.401   2.015   2.155 -0.4918  0.0027 -0.1041
  230MOL0     C30934  -0.519   2.023   2.084 -0.5196  0.0705 -0.5582
  230MOL0     C30935  -0.602   2.145   2.057  0.2763 -0.6690  0.5283
  230MOL0     C30936  -0.697   2.180   2.175 -0.0963 -0.2971 -1.0033
  230MOL0     C30937  -0.773   2.299   2.138 -0.7556  0.1938  0.3574
  230MOL0     C30938  -0.909   2.258   2.072  0.0144  0.2898 -0.0667
  230MOL0     O30939  -1.000   2.367   2.064 -0.3129 -0.2311  0.0376
  230MOL0     C30940  -1.092   2.391   2.165  0.6704 -0.7259 -0.1247
  230MOL0     C30941  -1.174   2.512   2.141  1.3173 -0.2394  0.2833
  230MOL0     C30942  -1.289   2.554   2.223  0.5166  0.1894  0.0369
  230MOL0     C30943  -1.354   2.680   2.191 -0.7101  0.2871  0.8214
  230MOL0     C30944  -1.327   2.474   2.328  0.4466  0.3168  0.7133
  230MOL0     C30945  -1.446   2.503   2.417 -0.5073  0.5408  0.5582
  230MOL0     O30946  -1.548   2.588   2.380 -0.0982 -0.8175  0.0735
  230MOL0     C30947  -1.670   2.575   2.435 -0.4028 -0.4319 -0.1401
  230MOL0     C30948  -1.739   2.691   2.440  0.0573 -0.5840  1.2432
  230MOL0     C30949  -1.871   2.706   2.492 -0.2264 -0.6330  0.0548
  230MOL0     C30950  -1.936   2.592   2.541  0.2210  0.0590 -0.0914
  230MOL0     O30951  -2.066   2.589   2.588  0.3064  0.2755 -0.5355
  230MOL0     C30952  -2.151   2.696   2.554 -0.3598 -0.2528  0.8629
  230MOL0     C30953  -2.285   2.683   2.635  0.7847 -0.3275  0.5169
  230MOL0     C30954  -2.385   2.789   2.577  0.2165  0.4550  0.4803
  230MOL0     C30955  -2.528   2.774   2.632 -1.1324  0.1340  0.6612
  230MOL0     C30956  -2.618   2.893   2.589  0.2965 -0.8833 -0.1906
  230MOL0     C30957  -2.749   2.901   2.675  0.6349  0.8652  0.3751
  230MOL0     C30958  -2.850   2.794   2.639  0.5254  0.4022 -0.5532
  230MOL0     C30959  -2.972   2.795   2.743 -0.4715  0.1389 -0.6892
  230MOL0    Cl30960  -3.067   2.635   2.711 -0.3738  0.0097  0.1373
  230MOL0     C30961  -1.869   2.478   2.519  0.0404  0.5643  0.4618
  230MOL0     C30962  -1.736   2.466   2.477  0.4931 -0.4615  0.3420
  230MOL0     O30963  -1.432   2.444   2.526  0.3037  0.2841 -0.5199
  230MOL0     C30964  -1.244   2.364   2.352  0.5649 -0.1901  0.0264
  230MOL0     C30965  -1.138   2.322   2.274  0.8011  0.8607  0.4711
  230MOL0     N30966  -0.557   1.892   2.058  0.7145 -0.8077  0.0811
  230MOL0     N30967  -0.479   1.809   2.097  0.2875 -0.0116 -0.7416
  230MOL0     C30968   0.341   1.080   2.528  0.5939  0.0456  1.0117
  230MOL0     C30969   0.333   0.935   2.539  0.5811  0.2628 -1.1540
  230MOL0     C30970   0.240   0.542   2.735  0.2471 -0.1115  0.7662
  230MOL0     C30971   0.312   0.464   2.826 -0.5012  0.5357  0.7025
  230MOL0     C30972   0.325   0.329   2.820  1.2664  0.2922  0.0768
  230MOL0     C30973   0.240   0.258   2.736 -0.3721  1.1905  0.2616
  230MOL0     O30974   0.222   0.116   2.755 -0.3393  0.2879 -0.6828
  230MOL0     C30975   0.178   0.031   2.643 -0.5873  0.1344  0.2322
  230MOL0     C30976   0.181  -0.123   2.688 -0.4989 -0.7386 -0.9323
  230MOL0     C30977   0.060  -0.152   2.778 -0.0512 -0.2476 -0.2927
  230MOL0     C30978   0.061  -0.298   2.843 -0.8693  0.5124 -0.6162
  230MOL0     C30979   0.182  -0.329   2.933 -0.0890 -0.0648  0.0354
  230MOL0     C30980   0.285  -0.359   2.996  0.1924 -0.0807 -0.2300
  230MOL0     C30981   0.164   0.325   2.637 -0.0935 -0.5603 -0.1822
  230MOL0     C30982   0.167   0.466   2.638  0.1202  0.0594  0.1864
  230MOL0     H30983   0.025   0.904   2.680 -1.5999  3.4793  0.4870
  230MOL0     H30984   0.036   1.159   2.661 -0.7748 -0.9595  2.6555
  230MOL0     H30985   0.399   1.336   2.470 -0.4576 -1.5449  0.5662
  230MOL0     H30986   0.250   1.321   2.364 -1.1267 -1.1115  1.5403
  230MOL0     H30987   0.261   1.525   2.579 -0.8166 -0.1017 -1.3566
  230MOL0     H30988   0.375   1.549   2.449  0.8863 -1.1178 -1.1965
  230MOL0     H30989   0.199   1.611   2.311  0.2621  0.5970 -0.5158
  230MOL0     H30990   0.074   1.511   2.379  0.4464 -0.9538  0.7889
  230MOL0     H30991   0.079   1.693   2.575  0.3097  0.3852 -0.0089
  230MOL0     H30992   0.179   1.773   2.459 -0.8339  0.0792 -1.6572
  230MOL0     H30993  -0.005   1.860   2.408  1.7466 -0.0678 -2.0280
  230MOL0     H30994   0.005   1.744   2.275 -2.7684 -0.1638 -1.0205
  230MOL0     H30995  -0.170   1.599   2.383  1.4159 -0.0485 -0.3632
  230MOL0     H30996  -0.179   1.693   2.516 -2.8952 -1.6959 -0.4320
  230MOL0     H30997  -0.353   1.782   2.378 -0.5151  0.3702 -0.1953
  230MOL0     H30998  -0.225   1.909   2.380 -0.7539  0.1866 -0.0281
  230MOL0     H30999  -0.253   1.702   2.157  0.3753  0.3597  0.0669
  230MOL0     H31000  -0.168   1.862   2.164 -2.2412  4.8875  0.2861
  230MOL0     H31001  -0.347   2.096   2.204 -0.5556  1.2885 -2.0361
  230MOL0     H31002  -0.540   2.233   2.038 -2.2122  1.3061  1.1737
  230MOL0     H31003  -0.664   2.132   1.968  0.5893 -0.8815  0.3386
  230MOL0     H31004  -0.642   2.214   2.263 -0.3785  0.2548 -1.0296
  230MOL0     H31005  -0.754   2.097   2.215 -0.8950  1.0424  0.7644
  230MOL0     H31006  -0.712   2.357   2.067 -2.0463  3.1159  1.4868
  230MOL0     H31007  -0.789   2.363   2.225  0.0532 -1.2955  1.6402
  230MOL0     H31008  -0.956   2.172   2.121  4.3071 -2.5071 -0.3611
  230MOL0     H31009  -0.892   2.221   1.970  0.5911 -0.6844  0.3733
  230MOL0     H31010  -1.158   2.581   2.058 -3.6563  0.8586 -0.0977
  230MOL0     H31011  -1.310   2.725   2.100 -2.1857 -1.6436 -0.9364
  230MOL0     H31012  -1.460   2.664   2.170 -0.3190  0.7438 -1.9095
  230MOL0     H31013  -1.346   2.751   2.274  1.5463  0.2192  0.7488
  230MOL0     H31014  -1.696   2.783   2.402 -2.4125 -0.5940 -2.0046
  230MOL0     H31015  -1.935   2.792   2.479 -3.2160 -2.7510 -0.1973
  230MOL0     H31016  -2.107   2.795   2.571 -3.4263  1.0570  1.8856
  230MOL0     H31017  -2.170   2.686   2.447  1.1615  0.2956  0.5122
  230MOL0     H31018  -2.322   2.580   2.638 -0.8663  0.2377  2.4054
  230MOL0     H31019  -2.269   2.716   2.739  1.7573  1.3984 -0.1385
  230MOL0     H31020  -2.386   2.776   2.468  1.1827  1.7013  0.2975
  230MOL0     H31021  -2.344   2.889   2.593  1.5479  0.0462 -0.1767
  230MOL0     H31022  -2.559   2.671   2.611  0.0169  0.2237 -1.7190
  230MOL0     H31023  -2.512   2.782   2.740  1.5015 -0.0166  0.3506
  230MOL0     H31024  -2.637   2.901   2.481  2.7124  1.0141 -0.5601
  230MOL0     H31025  -2.556   2.980   2.614  1.5414 -1.8612  0.2203
  230MOL0     H31026  -2.719   2.905   2.781 -3.7559 -1.3779  1.9605
  230MOL0     H31027  -2.798   2.999   2.664 -2.0915 -0.4200  0.2778
  230MOL0     H31028  -2.801   2.696   2.640  0.3045  0.1359  3.5243
  230MOL0     H31029  -2.897   2.812   2.542  2.1225  1.9393 -1.0952
  230MOL0     H31030  -3.032   2.885   2.755 -0.6584 -0.3443  3.6134
  230MOL0     H31031  -2.929   2.790   2.844  1.8741  5.4162 -1.0888
  230MOL0     H31032  -1.914   2.380   2.534  0.2527 -0.0382 -2.3771
  230MOL0     H31033  -1.680   2.375   2.459 -1.0380 -1.0241 -1.9754
  230MOL0     H31034  -1.277   2.308   2.439 -1.7198 -0.3790 -0.9158
  230MOL0     H31035  -1.086   2.229   2.297  0.5785  0.4500 -0.6451
  230MOL0     H31036   0.434   1.122   2.491 -1.0339  0.7327 -2.6839
  230MOL0     H31037   0.406   0.875   2.486  1.1628  0.5074 -0.6386
  230MOL0     H31038   0.379   0.511   2.898  0.6486 -3.1381  2.2622
  230MOL0     H31039   0.382   0.267   2.888 -0.5482 -2.7127 -0.9157
  230MOL0     H31040   0.076   0.052   2.609 -1.7472 -0.7341  2.9105
  230MOL0     H31041   0.244   0.045   2.557  0.2790 -0.5163  0.7823
  230MOL0     H31042   0.266  -0.149   2.752 -1.7866 -1.3076  0.6023
  230MOL0     H31043   0.177  -0.181   2.596  0.1187 -1.3246 -0.5940
  230MOL0     H31044  -0.033  -0.144   2.721 -1.3788  2.5860  2.0577
  230MOL0     H31045   0.051  -0.075   2.854  0.4747 -0.9349  0.4928
  230MOL0     H31046   0.045  -0.375   2.767  1.5611 -1.6442  0.8798
  230MOL0     H31047  -0.026  -0.302   2.910 -0.6245 -1.1418 -0.3683
  230MOL0     H31048   0.365  -0.393   3.058 -1.8194 -2.4135  1.2658
  230MOL0     H31049   0.089   0.279   2.574 -1.3775  0.6102  0.4352
  230MOL0     H31050   0.111   0.520   2.562 -1.1138 -2.5106 -0.8882
  231MOL0     O31051   4.481   9.489   3.917 -0.2725  0.0028  0.1295
  231MOL0     C31052   4.532   9.540   4.018  0.9742  0.0416 -0.2115
  231MOL0     O31053   4.463   9.608   4.116 -0.1633 -0.7842  0.4342
  231MOL0     C31054   4.323   9.605   4.118 -0.7471  0.5946  0.2631
  231MOL0     C31055   4.245   9.722   4.140  0.3435  0.2108  0.2019
  231MOL0     C31056   4.104   9.714   4.113 -0.4172 -0.8755  0.7604
  231MOL0     C31057   4.035   9.595   4.083  0.5580  0.1653 -0.3368
  231MOL0     O31058   3.900   9.580   4.061 -0.0703  0.5463  0.4424
  231MOL0     C31059   3.825   9.700   4.062 -0.0442 -0.5868  0.4951
  231MOL0     C31060   3.693   9.673   3.989 -0.1545  0.1252 -0.6649
  231MOL0     C31061   3.594   9.786   3.966  0.6931  0.4425  0.0908
  231MOL0     C31062   3.467   9.734   3.900  0.7038  0.7144  0.5676
  231MOL0     C31063   3.379   9.832   3.825  0.7296 -0.4592 -0.5279
  231MOL0     C31064   3.325   9.947   3.920 -0.9129  0.2673  0.4974
  231MOL0     C31065   3.406  10.079   3.900  0.5546  1.0270 -0.8878
  231MOL0     C31066   3.391  10.156   3.776 -0.3545  0.2557 -0.1186
  231MOL0     N31067   3.443  10.295   3.782 -0.0073 -0.3404 -0.5183
  231MOL0     C31068   3.506  10.359   3.677 -0.2829 -0.6432 -0.3100
  231MOL0     C31069   3.558  10.479   3.731  0.0828  1.2723  0.6375
  231MOL0     C31070   3.630  10.578   3.655 -0.7788 -0.0315 -0.4274
  231MOL0     C31071   3.521  10.663   3.594  0.7526 -0.7297 -0.4902
  231MOL0     C31072   3.480  10.614   3.453 -0.0827 -0.2141 -0.2173
  231MOL0     C31073   3.356  10.673   3.400 -0.2989 -0.2757 -0.9992
  231MOL0     O31074   3.379  10.804   3.357  0.5959  0.1183 -0.2742
  231MOL0     C31075   3.293  10.902   3.394  0.6154  0.2746  0.1960
  231MOL0     C31076   3.242  10.995   3.291 -0.5835  0.0323 -0.3049
  231MOL0     C31077   3.147  11.092   3.321  0.0001 -0.6234  0.2322
  231MOL0     C31078   3.087  11.175   3.204  0.1674 -0.0734 -0.5314
  231MOL0     C31079   3.103  11.101   3.454  0.7343 -0.3340  1.0110
  231MOL0     C31080   3.003  11.205   3.504  0.3503  0.2971  0.1139
  231MOL0     O31081   2.975  11.208   3.639 -0.1790 -0.3471 -0.5133
  231MOL0     C31082   2.900  11.318   3.676 -1.1568 -0.3394  0.7168
  231MOL0     C31083   2.939  11.450   3.654 -0.4203 -0.8510 -0.2622
  231MOL0     C31084   2.869  11.561   3.704  0.0269  0.6093 -0.3766
  231MOL0     C31085   2.770  11.545   3.804 -1.0307  0.0326  0.3081
  231MOL0     O31086   2.718  11.662   3.854  0.0966 -0.6561  0.3372
  231MOL0     C31087   2.650  11.661   3.975  0.3485  0.3555 -0.0207
  231MOL0     C31088   2.497  11.627   3.957  0.2982  0.1591 -1.0280
  231MOL0     C31089   2.444  11.618   4.100 -0.4326 -0.1941 -0.0798
  231MOL0     C31090   2.288  11.597   4.102 -0.1749 -0.7491 -0.4883
  231MOL0     C31091   2.232  11.554   4.234  0.5893  0.0271 -0.1701
  231MOL0     C31092   2.202  11.666   4.339  0.0675  0.0116 -0.3750
  231MOL0     C31093   2.110  11.614   4.456 -0.2090 -0.1640 -0.4311
  231MOL0     C31094   1.965  11.600   4.405  0.1019 -0.5211 -0.2332
  231MOL0    Cl31095   1.864  11.596   4.563 -0.0728  0.1012 -0.2304
  231MOL0     C31096   2.746  11.417   3.843  0.6437  0.1629 -0.1249
  231MOL0     C31097   2.807  11.306   3.778 -0.1256 -0.0354  0.4213
  231MOL0     O31098   2.951  11.286   3.424 -0.1372  0.1904 -0.5289
  231MOL0     C31099   3.151  11.010   3.552 -0.5014 -0.6698 -0.1262
  231MOL0     C31100   3.245  10.916   3.523  0.2945 -0.2441 -0.3568
  231MOL0     N31101   3.509  10.489   3.865 -0.0105 -0.3662  0.3970
  231MOL0     N31102   3.446  10.378   3.892  0.4211 -0.0159 -0.0827
  231MOL0     C31103   4.103   9.480   4.063 -0.1177  0.4768 -0.0773
  231MOL0     C31104   4.249   9.489   4.081  0.4503 -0.7558  0.2778
  231MOL0     C31105   4.681   9.539   4.026  0.3566  0.5419  0.3021
  231MOL0     C31106   4.748   9.576   4.141  0.4894  0.7971 -0.6936
  231MOL0     C31107   4.892   9.568   4.146  0.0642  0.0181 -0.1863
  231MOL0     C31108   4.969   9.506   4.045  1.4506 -0.2951  0.9555
  231MOL0     O31109   5.103   9.506   4.050  0.5680  0.2154  0.7942
  231MOL0     C31110   5.168   9.484   3.927 -0.2234  0.3818  0.2687
  231MOL0     C31111   5.312   9.486   3.962  0.1331 -0.8609 -0.5449
  231MOL0     C31112   5.388   9.487   3.827 -0.6715  0.5937  0.2857
  231MOL0     C31113   5.367   9.352   3.749 -0.5156 -0.4282 -0.1483
  231MOL0     C31114   5.481   9.339   3.653  0.0561 -0.6665  0.5336
  231MOL0     C31115   5.568   9.338   3.565 -0.1300  0.4085  0.9258
  231MOL0     C31116   4.896   9.452   3.934  1.2187  0.1904  0.0513
  231MOL0     C31117   4.756   9.464   3.930  0.6331  0.0265 -0.5050
  231MOL0     H31118   4.291   9.820   4.143 -1.7299  1.6304 -4.7168
  231MOL0     H31119   4.063   9.815   4.123 -1.7268 -1.4309  1.2853
  231MOL0     H31120   3.807   9.739   4.163  2.6349  0.4686  0.6613
  231MOL0     H31121   3.881   9.775   4.005 -2.4718  0.9541  0.0076
  231MOL0     H31122   3.710   9.616   3.898 -0.6581 -0.1217 -0.6078
  231MOL0     H31123   3.645   9.605   4.060  1.1235  0.6212  0.7520
  231MOL0     H31124   3.568   9.827   4.064  0.2113 -0.4879  0.3721
  231MOL0     H31125   3.640   9.857   3.898 -2.8683  2.4731 -0.4557
  231MOL0     H31126   3.489   9.660   3.822 -0.3898 -0.5876  1.4548
  231MOL0     H31127   3.398   9.688   3.971 -1.6570  2.2790 -0.5981
  231MOL0     H31128   3.425   9.881   3.739  0.1201 -0.3845 -0.8158
  231MOL0     H31129   3.292   9.777   3.789 -1.1738  0.3330  2.4467
  231MOL0     H31130   3.221   9.972   3.896 -0.8632  0.3381  0.3503
  231MOL0     H31131   3.329   9.904   4.020  1.6181  0.2777  0.4727
  231MOL0     H31132   3.365  10.142   3.980  0.6620  0.2463 -0.2142
  231MOL0     H31133   3.512  10.066   3.927  0.5870  0.9658 -1.0474
  231MOL0     H31134   3.287  10.150   3.744 -0.1605  0.6020 -0.8245
  231MOL0     H31135   3.445  10.100   3.700  0.5864  1.3394 -0.2694
  231MOL0     H31136   3.526  10.322   3.577 -0.9186 -2.3967  0.1845
  231MOL0     H31137   3.698  10.635   3.720 -1.8928  0.6145  0.2167
  231MOL0     H31138   3.689  10.529   3.577  1.7938 -0.4947  1.6631
  231MOL0     H31139   3.569  10.760   3.589  0.0350 -0.2361  1.4219
  231MOL0     H31140   3.437  10.677   3.662  0.8306 -1.2421 -0.2790
  231MOL0     H31141   3.475  10.506   3.441 -1.2471 -0.1312 -0.5663
  231MOL0     H31142   3.562  10.637   3.384 -0.2866 -0.2399 -0.4685
  231MOL0     H31143   3.282  10.666   3.480 -1.0608  0.9721 -1.5704
  231MOL0     H31144   3.303  10.622   3.318 -2.7458 -0.5861  0.6581
  231MOL0     H31145   3.270  10.982   3.188 -1.7752 -0.6194 -0.5701
  231MOL0     H31146   3.134  11.274   3.198  1.0171 -0.4176  0.2792
  231MOL0     H31147   3.104  11.119   3.111  0.9214  0.1322 -0.5242
  231MOL0     H31148   2.978  11.185   3.210 -0.1387  0.8735 -4.5175
  231MOL0     H31149   3.025  11.465   3.589  0.3396  1.0978  1.0953
  231MOL0     H31150   2.899  11.661   3.672 -0.4770  0.4235 -1.4969
  231MOL0     H31151   2.712  11.601   4.042  2.5187  2.7835  0.3047
  231MOL0     H31152   2.660  11.762   4.015 -0.4099  0.3025  0.3181
  231MOL0     H31153   2.447  11.702   3.894 -3.1185 -1.0819 -0.0189
  231MOL0     H31154   2.475  11.530   3.912  0.1492  0.6647 -2.0704
  231MOL0     H31155   2.463  11.716   4.146  1.5822 -1.2927  1.6217
  231MOL0     H31156   2.491  11.532   4.148  0.1965 -0.0949 -0.5137
  231MOL0     H31157   2.245  11.690   4.063  1.4850 -0.9321 -3.0256
  231MOL0     H31158   2.267  11.523   4.024  1.5026 -2.1679  0.3172
  231MOL0     H31159   2.292  11.484   4.292 -0.2171  1.1841  2.2212
  231MOL0     H31160   2.136  11.503   4.223  0.7255 -0.4755  0.8448
  231MOL0     H31161   2.293  11.709   4.382 -0.8566  1.8713 -0.1755
  231MOL0     H31162   2.149  11.743   4.283  0.3201  0.5542  0.1227
  231MOL0     H31163   2.099  11.675   4.546 -2.6454 -4.0963  2.2353
  231MOL0     H31164   2.153  11.520   4.491 -2.6058 -0.5218  1.9286
  231MOL0     H31165   1.956  11.505   4.351  0.6841  0.0379 -1.3261
  231MOL0     H31166   1.933  11.689   4.350  2.8928  0.7218  0.0186
  231MOL0     H31167   2.672  11.404   3.921 -0.2905 -0.5296 -1.0944
  231MOL0     H31168   2.779  11.204   3.805  1.7322 -0.9002 -0.7014
  231MOL0     H31169   3.138  11.030   3.658  0.3308 -0.5358 -0.0417
  231MOL0     H31170   3.290  10.863   3.606 -1.0710 -0.3147  0.3566
  231MOL0     H31171   4.067   9.389   4.015 -1.1113  0.9503 -0.2446
  231MOL0     H31172   4.311   9.403   4.055  2.7676  1.3078 -1.5200
  231MOL0     H31173   4.693   9.630   4.218 -0.5471 -0.0692 -0.7994
  231MOL0     H31174   4.950   9.612   4.226  1.9990  0.0067 -1.5135
  231MOL0     H31175   5.157   9.383   3.887 -1.9635  0.6934 -0.1006
  231MOL0     H31176   5.132   9.555   3.852 -1.5723 -0.2877  0.2530
  231MOL0     H31177   5.331   9.400   4.026  0.9056  2.0048  3.5453
  231MOL0     H31178   5.335   9.582   4.010  1.6754 -1.0725 -0.8233
  231MOL0     H31179   5.493   9.512   3.845 -0.1056 -0.1547 -1.7307
  231MOL0     H31180   5.351   9.561   3.755  1.8811  1.6634 -0.0444
  231MOL0     H31181   5.274   9.354   3.692 -0.1143  1.6561 -0.7937
  231MOL0     H31182   5.380   9.268   3.818 -2.2991 -0.5889  0.0229
  231MOL0     H31183   5.652   9.336   3.498 -0.3498  2.9533  0.4626
  231MOL0     H31184   4.942   9.393   3.855 -0.1913 -0.4206 -0.3375
  231MOL0     H31185   4.718   9.399   3.852 -0.1000 -1.1888  0.8204
  232MOL0     O31186   0.163   1.776   7.468  0.3259 -0.0651 -0.5710
  232MOL0     C31187   0.219   1.820   7.367 -0.2016  0.0755  0.1497
  232MOL0     O31188   0.159   1.856   7.260 -0.0094  0.4144 -0.2972
  232MOL0     C31189   0.022   1.827   7.224 -0.6477  0.1794 -0.5268
  232MOL0     C31190  -0.086   1.835   7.311 -0.5936  0.2404 -0.2350
  232MOL0     C31191  -0.222   1.826   7.268  0.2769 -0.3003 -0.5107
  232MOL0     C31192  -0.255   1.806   7.132  0.1446 -0.3645 -0.9530
  232MOL0     O31193  -0.379   1.824   7.081 -0.3339  0.2424 -0.2225
  232MOL0     C31194  -0.489   1.861   7.166  0.1928  0.1597 -0.0603
  232MOL0     C31195  -0.609   1.883   7.081  0.3752  0.0864  0.7147
  232MOL0     C31196  -0.739   1.846   7.156 -0.2699 -0.1002  0.2224
  232MOL0     C31197  -0.866   1.872   7.078 -0.5370 -0.5117  0.5166
  232MOL0     C31198  -0.969   1.765   7.097 -0.3711  0.2626  0.4546
  232MOL0     C31199  -1.104   1.809   7.052  1.0931  0.3882 -0.1082
  232MOL0     C31200  -1.197   1.679   7.052  0.5967 -0.2920  0.3065
  232MOL0     C31201  -1.255   1.633   7.185 -0.8061 -0.1743 -0.5398
  232MOL0     N31202  -1.278   1.733   7.290  0.3151 -0.1562  0.6439
  232MOL0     C31203  -1.208   1.737   7.407  0.0910  0.1066 -0.6375
  232MOL0     C31204  -1.277   1.825   7.492  0.1467  1.0773 -0.4029
  232MOL0     C31205  -1.247   1.859   7.638 -1.0031 -0.5589  0.1676
  232MOL0     C31206  -1.310   1.999   7.684  0.1053  0.2527  0.1463
  232MOL0     C31207  -1.283   2.032   7.838 -0.0042  0.6743  0.5247
  232MOL0     C31208  -1.150   2.103   7.864  0.7269  0.0747  0.1242
  232MOL0     O31209  -1.129   2.230   7.803 -0.2259  0.4394 -0.1037
  232MOL0     C31210  -1.016   2.291   7.840  0.3319  0.5291 -0.5461
  232MOL0     C31211  -1.019   2.400   7.922  0.0392 -0.5543  0.2409
  232MOL0     C31212  -0.903   2.484   7.948 -0.4237  0.4201 -0.7632
  232MOL0     C31213  -0.927   2.602   8.032  0.6735 -1.1641 -0.0848
  232MOL0     C31214  -0.774   2.434   7.898  0.2160  0.0007  0.2264
  232MOL0     C31215  -0.650   2.506   7.923 -0.2779 -0.0240 -0.0432
  232MOL0     O31216  -0.547   2.487   7.835 -0.3451  0.3718 -0.4518
  232MOL0     C31217  -0.409   2.506   7.855 -0.5321 -0.2600 -0.1509
  232MOL0     C31218  -0.332   2.454   7.754 -0.3087  0.0002 -1.4808
  232MOL0     C31219  -0.187   2.453   7.751 -0.3951  0.3378  0.4071
  232MOL0     C31220  -0.125   2.524   7.851  0.1019 -0.6249 -0.0700
  232MOL0     O31221   0.008   2.558   7.860  0.5313 -0.4085 -0.0998
  232MOL0     C31222   0.082   2.510   7.750  0.2667 -0.0486  0.1153
  232MOL0     C31223   0.232   2.557   7.780 -0.2131 -0.5568 -0.0570
  232MOL0     C31224   0.292   2.479   7.887 -0.2733  0.4137 -0.6733
  232MOL0     C31225   0.441   2.478   7.871  0.2701 -0.4696  0.4020
  232MOL0     C31226   0.514   2.416   7.992  0.0452  0.1958 -0.5171
  232MOL0     C31227   0.510   2.260   7.993  1.0782 -0.0332 -0.2736
  232MOL0     C31228   0.586   2.200   8.111  0.2951  0.8884  0.9236
  232MOL0     C31229   0.570   2.045   8.108 -1.2897 -0.6437  0.0426
  232MOL0    Cl31230   0.656   1.976   7.956  0.4244  0.1592 -0.2866
  232MOL0     C31231  -0.205   2.569   7.961 -0.8361  0.0779 -0.0067
  232MOL0     C31232  -0.338   2.559   7.969  0.3372  0.0913  0.5226
  232MOL0     O31233  -0.650   2.588   8.015  0.1579 -0.1527 -0.9519
  232MOL0     C31234  -0.774   2.319   7.819  0.4055 -0.6986  0.0444
  232MOL0     C31235  -0.895   2.252   7.784  0.6090 -0.1857  0.2369
  232MOL0     N31236  -1.388   1.866   7.419 -0.6422  0.3759  0.7312
  232MOL0     N31237  -1.395   1.806   7.306  1.2080 -1.3822  0.1191
  232MOL0     C31238  -0.142   1.812   7.044  0.0826 -0.3225 -0.3521
  232MOL0     C31239  -0.013   1.830   7.087  0.1783 -0.0465 -0.7175
  232MOL0     C31240   0.357   1.874   7.378 -0.1266  0.2623  0.0581
  232MOL0     C31241   0.414   1.895   7.508  0.6267  0.1026  1.1621
  232MOL0     C31242   0.547   1.935   7.528  0.3784  1.0720 -0.6724
  232MOL0     C31243   0.633   1.944   7.414 -0.7200 -0.6146 -0.5130
  232MOL0     O31244   0.765   1.992   7.419  0.2722 -0.3013  1.0399
  232MOL0     C31245   0.843   1.982   7.544  0.2683 -0.2657 -1.0888
  232MOL0     C31246   0.886   1.845   7.584 -0.2191  0.5080 -0.1409
  232MOL0     C31247   1.008   1.794   7.501  0.5539  0.2248 -0.4311
  232MOL0     C31248   0.969   1.698   7.401  0.6183  0.1735  0.6462
  232MOL0     C31249   1.067   1.594   7.367 -0.0091  0.5341  0.5035
  232MOL0     C31250   1.150   1.500   7.353  0.3569  0.5889  0.7892
  232MOL0     C31251   0.585   1.912   7.291 -0.0653 -0.3299  0.9137
  232MOL0     C31252   0.452   1.881   7.272 -0.2006 -0.3738 -0.4967
  232MOL0     H31253  -0.066   1.857   7.415 -2.4801  2.4132 -0.2627
  232MOL0     H31254  -0.299   1.823   7.345  0.2172 -0.5002 -0.5789
  232MOL0     H31255  -0.511   1.788   7.244  1.7995 -1.5901 -1.1656
  232MOL0     H31256  -0.459   1.958   7.207  0.7678 -0.2933  0.5998
  232MOL0     H31257  -0.605   1.989   7.055  1.1986  0.0158  0.5246
  232MOL0     H31258  -0.596   1.825   6.990 -1.2999 -0.7278  0.9465
  232MOL0     H31259  -0.725   1.739   7.173 -0.5909 -0.6167 -2.4368
  232MOL0     H31260  -0.742   1.898   7.253 -2.6333 -1.1820  0.7790
  232MOL0     H31261  -0.915   1.968   7.093 -1.3119 -0.6199 -1.1708
  232MOL0     H31262  -0.837   1.868   6.973 -1.1454 -1.1616  0.3671
  232MOL0     H31263  -0.938   1.668   7.058  0.9969  1.0181 -0.4634
  232MOL0     H31264  -0.973   1.750   7.205  1.5433 -1.1755  0.3880
  232MOL0     H31265  -1.146   1.886   7.117  1.3364  0.6638 -0.2752
  232MOL0     H31266  -1.086   1.841   6.949  0.6507 -1.4176 -0.7845
  232MOL0     H31267  -1.287   1.706   6.995  2.9921  4.0748 -1.8594
  232MOL0     H31268  -1.159   1.594   6.994  0.1181 -2.4095  2.8782
  232MOL0     H31269  -1.189   1.560   7.231 -1.3018 -0.4306 -0.2331
  232MOL0     H31270  -1.349   1.581   7.166  0.2305 -1.8451 -1.3412
  232MOL0     H31271  -1.103   1.715   7.427  0.5079  2.4591  0.1237
  232MOL0     H31272  -1.295   1.780   7.696 -1.9541 -1.6589 -2.0135
  232MOL0     H31273  -1.140   1.872   7.656 -1.2493  0.7050  0.8197
  232MOL0     H31274  -1.418   1.989   7.669 -0.0875  2.5592 -0.2611
  232MOL0     H31275  -1.290   2.090   7.627  0.9040  0.0039  0.0087
  232MOL0     H31276  -1.270   1.934   7.884 -0.4857  0.2690 -0.1873
  232MOL0     H31277  -1.366   2.085   7.886 -0.4178  0.1207  0.4347
  232MOL0     H31278  -1.071   2.031   7.840 -0.1931 -0.1636 -2.5103
  232MOL0     H31279  -1.149   2.132   7.969  2.6075 -1.2422  0.5161
  232MOL0     H31280  -1.119   2.439   7.939 -0.7097 -1.8954 -0.8423
  232MOL0     H31281  -1.032   2.626   8.048  0.9180  3.1781 -3.2202
  232MOL0     H31282  -0.893   2.575   8.133 -1.2326 -1.3639  0.5308
  232MOL0     H31283  -0.884   2.691   7.986  1.9000 -2.3778 -1.3817
  232MOL0     H31284  -0.382   2.385   7.687  0.4397  1.0779 -3.2211
  232MOL0     H31285  -0.130   2.400   7.676 -2.0032  1.0805 -1.4346
  232MOL0     H31286   0.076   2.407   7.714 -0.5483  1.0384 -3.2193
  232MOL0     H31287   0.049   2.558   7.658 -1.0165  0.5852  0.8834
  232MOL0     H31288   0.294   2.554   7.690 -1.4168  1.0978 -1.0078
  232MOL0     H31289   0.238   2.665   7.795 -0.0313 -0.3613 -1.3607
  232MOL0     H31290   0.258   2.377   7.864 -0.0003  0.4917 -1.4623
  232MOL0     H31291   0.271   2.525   7.983 -1.5160  5.1709 -2.9535
  232MOL0     H31292   0.458   2.413   7.785 -2.6313  0.0435 -0.6738
  232MOL0     H31293   0.469   2.583   7.856 -4.1906  1.1565  1.8152
  232MOL0     H31294   0.480   2.458   8.087 -0.1810  1.4388 -1.1392
  232MOL0     H31295   0.619   2.442   7.975  0.3355 -1.1690 -1.0034
  232MOL0     H31296   0.404   2.233   7.988  0.1551  3.3651 -2.1189
  232MOL0     H31297   0.555   2.224   7.900 -0.4553  1.1840 -1.5449
  232MOL0     H31298   0.544   2.240   8.204 -3.7956 -0.4955 -0.1413
  232MOL0     H31299   0.692   2.229   8.103  0.6692 -0.7508 -0.6161
  232MOL0     H31300   0.463   2.024   8.117 -1.3582  0.4480  2.3119
  232MOL0     H31301   0.631   2.002   8.187 -1.2220  0.2523  0.4882
  232MOL0     H31302  -0.160   2.623   8.044  2.5712 -0.3184 -1.4335
  232MOL0     H31303  -0.394   2.598   8.053 -2.4058 -1.5538 -0.3876
  232MOL0     H31304  -0.686   2.292   7.762 -1.2349  0.5378 -3.3861
  232MOL0     H31305  -0.908   2.164   7.722  1.2015  1.0090 -1.7093
  232MOL0     H31306  -0.169   1.788   6.942  1.4015 -1.6578 -0.4107
  232MOL0     H31307   0.074   1.843   7.023 -0.5553 -1.2079 -2.0103
  232MOL0     H31308   0.351   1.894   7.596 -0.2401  1.1591  0.5786
  232MOL0     H31309   0.585   1.940   7.629 -0.6395  1.9467 -0.3197
  232MOL0     H31310   0.935   2.040   7.534  1.1700 -1.2250  1.0405
  232MOL0     H31311   0.791   2.023   7.631 -1.0294  1.2947 -2.5320
  232MOL0     H31312   0.796   1.782   7.576  0.8080 -1.7812  3.8171
  232MOL0     H31313   0.914   1.838   7.689 -1.2782  2.0668  0.2849
  232MOL0     H31314   1.078   1.746   7.570  0.2175 -0.6085 -0.6548
  232MOL0     H31315   1.066   1.878   7.462 -1.5167  0.7361 -2.6316
  232MOL0     H31316   0.959   1.760   7.311  1.8369  0.5472  0.7472
  232MOL0     H31317   0.874   1.648   7.419  0.2102  1.2816  1.6706
  232MOL0     H31318   1.226   1.425   7.345 -0.0175  0.3723 -1.3166
  232MOL0     H31319   0.649   1.909   7.204 -1.7607 -1.0867 -0.3621
  232MOL0     H31320   0.417   1.858   7.172 -0.8038 -0.4127 -0.2807
  233MOL0     O31321   5.933   6.230   0.980 -1.1082 -0.0254 -0.1419
  233MOL0     C31322   5.918   6.308   1.071  0.2358 -0.4313 -0.3809
  233MOL0     O31323   5.806   6.383   1.082  0.2534  0.0751  0.1163
  233MOL0     C31324   5.688   6.359   1.020  0.2586 -0.0867  0.9820
  233MOL0     C31325   5.568   6.359   1.087  0.4425  0.9115 -0.0080
  233MOL0     C31326   5.442   6.327   1.027  0.3206 -0.6124  0.7184
  233MOL0     C31327   5.434   6.284   0.888  0.3861  0.0814 -0.1498
  233MOL0     O31328   5.327   6.231   0.822 -0.1264 -0.0579  0.1549
  233MOL0     C31329   5.200   6.229   0.892  0.7259  0.2009  0.1648
  233MOL0     C31330   5.095   6.142   0.820 -0.2142  0.7515  0.9857
  233MOL0     C31331   4.951   6.171   0.866  0.1990  1.1722 -0.8433
  233MOL0     C31332   4.887   6.262   0.760 -0.7103  0.6516  0.1889
  233MOL0     C31333   4.766   6.333   0.822  0.5539  0.4196 -0.0855
  233MOL0     C31334   4.647   6.235   0.799  0.9103 -0.5116 -1.0377
  233MOL0     C31335   4.519   6.300   0.858 -0.1731 -0.3583 -0.8979
  233MOL0     C31336   4.439   6.377   0.743 -0.5247  0.1321  0.4184
  233MOL0     N31337   4.305   6.420   0.789 -0.5924  0.3723 -0.1295
  233MOL0     C31338   4.202   6.333   0.784 -0.5366 -0.7898 -0.0612
  233MOL0     C31339   4.101   6.395   0.844  0.6589  0.8085 -0.2928
  233MOL0     C31340   3.966   6.331   0.873  0.3306  0.0460 -0.6078
  233MOL0     C31341   3.863   6.382   0.773 -0.2154  0.2068  0.4055
  233MOL0     C31342   3.804   6.521   0.797 -0.4174 -1.0696 -0.5473
  233MOL0     C31343   3.675   6.558   0.716 -0.2586  0.8258  0.3694
  233MOL0     O31344   3.656   6.695   0.723  0.1370  0.4858 -0.3443
  233MOL0     C31345   3.525   6.739   0.749  0.4808  1.2854  1.0507
  233MOL0     C31346   3.409   6.681   0.690 -0.0127 -0.4945 -0.6082
  233MOL0     C31347   3.283   6.711   0.740  0.9934 -0.5659 -0.1902
  233MOL0     C31348   3.180   6.640   0.665  0.7164  0.6864 -0.2665
  233MOL0     C31349   3.261   6.800   0.852 -0.9898 -0.4093  1.5226
  233MOL0     C31350   3.126   6.837   0.907  0.4933  0.6296 -0.3359
  233MOL0     O31351   3.026   6.753   0.881  0.1233 -0.1197 -0.0269
  233MOL0     C31352   2.891   6.779   0.914  0.5313 -1.0788 -0.1797
  233MOL0     C31353   2.829   6.883   0.983 -0.5726  0.3388 -0.4731
  233MOL0     C31354   2.691   6.891   0.996  0.9277  0.4185 -0.0035
  233MOL0     C31355   2.606   6.796   0.940  0.3165 -0.0110 -0.3606
  233MOL0     O31356   2.481   6.810   0.973  0.7921  0.1227  0.2035
  233MOL0     C31357   2.371   6.737   0.911 -0.2255 -0.8217 -0.1977
  233MOL0     C31358   2.263   6.726   1.013 -0.8070  0.0221 -0.4865
  233MOL0     C31359   2.152   6.624   0.981  0.4502  0.1349  0.7896
  233MOL0     C31360   2.036   6.651   1.075 -0.4560 -1.0881  0.6461
  233MOL0     C31361   1.918   6.557   1.066  0.7629  0.5818  0.4313
  233MOL0     C31362   1.793   6.603   1.145 -0.3684 -0.5566  0.1756
  233MOL0     C31363   1.678   6.517   1.090  0.3247 -0.3348 -1.4628
  233MOL0     C31364   1.545   6.537   1.168 -0.2165  0.1187  0.4164
  233MOL0    Cl31365   1.501   6.706   1.149  0.3909 -0.0145 -0.0502
  233MOL0     C31366   2.673   6.697   0.865  0.3117  0.1690 -0.2398
  233MOL0     C31367   2.810   6.689   0.858 -0.3703 -0.8245  1.6762
  233MOL0     O31368   3.109   6.945   0.968 -0.1788  1.0865 -0.4381
  233MOL0     C31369   3.377   6.866   0.894  0.0721 -0.0944  0.5431
  233MOL0     C31370   3.510   6.827   0.851 -0.0648 -0.2077 -0.6193
  233MOL0     N31371   4.145   6.514   0.892 -1.0718  0.7220  0.9421
  233MOL0     N31372   4.265   6.531   0.852 -0.2199 -0.2739 -0.1073
  233MOL0     C31373   5.556   6.281   0.824  0.9049 -0.0050  0.4593
  233MOL0     C31374   5.676   6.308   0.884 -0.1888  0.1696 -0.6029
  233MOL0     C31375   6.019   6.327   1.176 -0.9350 -0.1134  0.9717
  233MOL0     C31376   5.994   6.427   1.275 -0.4466 -0.2291 -0.7466
  233MOL0     C31377   6.089   6.455   1.382  0.3622  0.2404 -0.5626
  233MOL0     C31378   6.213   6.394   1.375 -0.4562 -0.7703 -1.0679
  233MOL0     O31379   6.302   6.449   1.464  0.3279  0.3329 -0.9217
  233MOL0     C31380   6.430   6.392   1.480  0.2181 -0.3389 -0.0616
  233MOL0     C31381   6.545   6.492   1.488  0.7177  0.3270 -0.0670
  233MOL0     C31382   6.525   6.587   1.367 -0.9706  0.1244  0.7601
  233MOL0     C31383   6.641   6.690   1.340 -0.3332 -0.2123 -0.3570
  233MOL0     C31384   6.655   6.794   1.438  0.1999  0.9529  0.0254
  233MOL0     C31385   6.653   6.862   1.541  0.1714 -0.7132  0.4533
  233MOL0     C31386   6.232   6.292   1.280 -0.0130  0.4235  0.0628
  233MOL0     C31387   6.136   6.252   1.188 -0.6782 -0.8797  0.1055
  233MOL0     H31388   5.569   6.388   1.191 -0.4145  0.7324  0.0640
  233MOL0     H31389   5.355   6.335   1.091 -0.5903  2.9504 -0.6788
  233MOL0     H31390   5.205   6.179   0.989 -0.4234 -0.2226  0.0221
  233MOL0     H31391   5.162   6.330   0.911 -0.5161  0.4165 -2.8168
  233MOL0     H31392   5.097   6.161   0.712  0.3487  1.0775  1.0524
  233MOL0     H31393   5.115   6.038   0.843 -0.0628 -0.3441 -3.2509
  233MOL0     H31394   4.893   6.078   0.869 -0.2432  1.4162  3.5346
  233MOL0     H31395   4.941   6.218   0.964 -1.7040  2.2872 -1.5128
  233MOL0     H31396   4.955   6.340   0.724 -0.9357 -0.2604 -2.4208
  233MOL0     H31397   4.859   6.202   0.673 -2.1387 -0.7382  1.5419
  233MOL0     H31398   4.785   6.341   0.929  2.1499  2.4138 -0.4639
  233MOL0     H31399   4.753   6.433   0.781 -1.2571  1.0715  1.9039
  233MOL0     H31400   4.626   6.211   0.695 -0.2801  0.6033 -1.0804
  233MOL0     H31401   4.669   6.141   0.851  0.3882  0.3693  0.8829
  233MOL0     H31402   4.444   6.228   0.892 -0.5818 -0.0055 -1.0491
  233MOL0     H31403   4.542   6.364   0.944 -2.2764  1.2423 -1.4516
  233MOL0     H31404   4.421   6.333   0.645 -2.5250  1.9310 -0.0905
  233MOL0     H31405   4.503   6.463   0.721 -0.0164 -0.0199  1.2380
  233MOL0     H31406   4.223   6.231   0.754 -0.4752 -0.7827 -0.0435
  233MOL0     H31407   3.983   6.223   0.872  2.1587  0.1809  2.7117
  233MOL0     H31408   3.941   6.359   0.975 -0.0329  0.3885 -0.7868
  233MOL0     H31409   3.784   6.307   0.781 -0.1115  0.1926  1.5052
  233MOL0     H31410   3.905   6.382   0.673 -0.0542  0.3000  0.4729
  233MOL0     H31411   3.876   6.603   0.784 -2.6613  1.1199 -0.0469
  233MOL0     H31412   3.780   6.537   0.902  0.6617  1.1078 -0.5795
  233MOL0     H31413   3.589   6.507   0.760  2.8643 -1.8020  4.1350
  233MOL0     H31414   3.697   6.538   0.611  2.2765  0.7482  0.8675
  233MOL0     H31415   3.426   6.615   0.606 -0.0001 -0.6093 -0.5160
  233MOL0     H31416   3.119   6.586   0.739  0.7087 -0.7199 -1.2596
  233MOL0     H31417   3.117   6.712   0.612  0.3349 -1.0293 -2.2872
  233MOL0     H31418   3.220   6.570   0.591  1.1442 -0.2961  0.8573
  233MOL0     H31419   2.892   6.954   1.036 -0.0921 -1.3886  1.4157
  233MOL0     H31420   2.648   6.969   1.059  1.9885 -0.0217  1.3065
  233MOL0     H31421   2.336   6.791   0.823  2.9891 -1.3205 -1.9524
  233MOL0     H31422   2.397   6.635   0.884 -0.4677 -0.4983 -1.7083
  233MOL0     H31423   2.307   6.693   1.107  0.2451 -1.5607 -1.4867
  233MOL0     H31424   2.220   6.823   1.040  0.1292  0.9226 -2.0548
  233MOL0     H31425   2.182   6.519   0.976 -3.8836 -1.2926 -3.8049
  233MOL0     H31426   2.116   6.632   0.878 -2.1128  1.5445  1.6897
  233MOL0     H31427   2.069   6.657   1.179  2.8644 -0.8004 -0.2981
  233MOL0     H31428   2.003   6.753   1.051 -0.5506 -1.0600  0.8896
  233MOL0     H31429   1.946   6.455   1.091  2.2224  1.0572  0.7952
  233MOL0     H31430   1.904   6.565   0.958 -0.2169 -1.9074  0.3126
  233MOL0     H31431   1.812   6.593   1.253  0.3798  2.1989  0.3545
  233MOL0     H31432   1.774   6.708   1.122 -0.2286 -0.6934 -0.5854
  233MOL0     H31433   1.701   6.410   1.090 -0.9009 -0.6409 -3.2231
  233MOL0     H31434   1.661   6.524   0.983 -2.5171  0.1419 -1.0419
  233MOL0     H31435   1.575   6.512   1.270  1.5735  0.2018 -0.0518
  233MOL0     H31436   1.469   6.467   1.132 -0.4423  1.6702 -2.4153
  233MOL0     H31437   2.617   6.622   0.810 -2.4620  0.6538  1.7132
  233MOL0     H31438   2.867   6.617   0.799 -0.8396  0.1577 -0.0289
  233MOL0     H31439   3.368   6.928   0.983  0.9740  0.2986  0.3732
  233MOL0     H31440   3.600   6.877   0.887 -0.8780  2.3937 -1.9089
  233MOL0     H31441   5.551   6.258   0.718  2.0002 -3.9100  1.0872
  233MOL0     H31442   5.769   6.299   0.830  0.4879 -0.8168  0.6696
  233MOL0     H31443   5.898   6.478   1.281 -1.2798 -1.8647  0.7776
  233MOL0     H31444   6.063   6.525   1.461 -0.8760 -1.2949  0.4346
  233MOL0     H31445   6.428   6.344   1.578 -2.2443 -1.9522 -0.8282
  233MOL0     H31446   6.456   6.318   1.404  0.6118 -1.3138  0.9855
  233MOL0     H31447   6.645   6.450   1.506  0.7810  0.7003  0.4655
  233MOL0     H31448   6.517   6.547   1.578 -3.0187  0.1692 -0.9773
  233MOL0     H31449   6.434   6.647   1.379  0.3824  1.9852  2.1650
  233MOL0     H31450   6.521   6.525   1.277  1.3506 -1.0531  1.3861
  233MOL0     H31451   6.630   6.743   1.245 -1.4225  2.9629  1.3996
  233MOL0     H31452   6.729   6.625   1.341 -1.0116 -1.1448 -0.5471
  233MOL0     H31453   6.678   6.934   1.616  2.9438  0.9563 -1.8514
  233MOL0     H31454   6.323   6.236   1.265  0.2168  0.2371  1.9490
  233MOL0     H31455   6.148   6.174   1.113 -1.2631 -0.4205 -0.4846
  234MOL0     O31456  11.095   9.250   8.517 -0.7967  1.2584 -0.1468
  234MOL0     C31457  11.090   9.136   8.583  0.3425 -0.3984 -0.3310
  234MOL0     O31458  10.996   9.042   8.579  0.5452  0.1611  0.8671
  234MOL0     C31459  10.871   9.064   8.514 -0.4748 -0.2637  0.4852
  234MOL0     C31460  10.802   8.957   8.466  0.4719  0.7344 -0.0484
  234MOL0     C31461  10.677   8.970   8.414  1.2114  0.6802  0.2136
  234MOL0     C31462  10.623   9.104   8.391  0.1072  0.8411  0.1409
  234MOL0     O31463  10.511   9.138   8.320  0.0296  0.3637  0.0272
  234MOL0     C31464  10.432   9.035   8.264  0.7909  0.6720  0.0615
  234MOL0     C31465  10.296   9.100   8.248  0.0715 -0.9584  0.1323
  234MOL0     C31466  10.192   9.001   8.205 -0.2515  0.4269  0.2188
  234MOL0     C31467  10.218   8.962   8.067 -0.3288  0.1267 -0.8185
  234MOL0     C31468  10.116   8.854   8.022 -0.8102  0.0609 -0.1302
  234MOL0     C31469  10.144   8.716   8.080  0.8756 -0.2309  0.0475
  234MOL0     C31470  10.053   8.602   8.021  0.2354  0.6216 -0.5738
  234MOL0     C31471  10.095   8.580   7.876 -0.3983  0.6778 -0.2966
  234MOL0     N31472  10.020   8.474   7.812 -0.2561 -0.2322  0.3725
  234MOL0     C31473  10.047   8.337   7.819  0.1555 -0.1690  0.4362
  234MOL0     C31474   9.944   8.276   7.758 -0.2169 -0.2193 -0.7441
  234MOL0     C31475   9.919   8.131   7.760 -0.3937 -0.2502  0.0169
  234MOL0     C31476   9.876   8.079   7.894 -1.3078  0.9386 -0.4317
  234MOL0     C31477   9.893   7.925   7.906 -0.9133 -0.2845  0.0225
  234MOL0     C31478   9.788   7.845   7.831 -0.3459 -0.6194 -0.7923
  234MOL0     O31479   9.832   7.824   7.698  0.1158  0.6216 -0.3828
  234MOL0     C31480   9.745   7.758   7.607 -0.9212 -0.9267  1.3536
  234MOL0     C31481   9.803   7.730   7.477  0.1250  0.4807  0.2652
  234MOL0     C31482   9.728   7.665   7.374 -0.5139  0.1569  0.6766
  234MOL0     C31483   9.796   7.634   7.247 -0.3668 -0.3003 -0.3489
  234MOL0     C31484   9.593   7.627   7.400  1.0542  0.4318 -0.6117
  234MOL0     C31485   9.497   7.567   7.302 -0.6019 -0.1188 -1.3852
  234MOL0     O31486   9.389   7.507   7.356 -0.4411  0.0433  0.4434
  234MOL0     C31487   9.283   7.461   7.281 -0.3352  0.5324  0.2867
  234MOL0     C31488   9.232   7.330   7.296  0.0024  0.4478  0.5969
  234MOL0     C31489   9.114   7.283   7.235  0.0480  0.0206 -0.8001
  234MOL0     C31490   9.043   7.365   7.145  0.0217 -0.1116 -0.0843
  234MOL0     O31491   8.932   7.307   7.082  0.3483  0.2099 -0.0373
  234MOL0     C31492   8.820   7.391   7.061  0.0543  0.1025  0.0925
  234MOL0     C31493   8.698   7.312   7.016  0.0514 -0.2571 -0.5028
  234MOL0     C31494   8.665   7.203   7.117 -0.2459 -0.2035 -0.9073
  234MOL0     C31495   8.531   7.140   7.103 -0.5309 -0.0653  1.0369
  234MOL0     C31496   8.480   7.047   7.213 -0.3386  0.4551  0.4176
  234MOL0     C31497   8.349   6.972   7.173 -0.5820  0.1145  0.2484
  234MOL0     C31498   8.241   7.057   7.112  1.5336  0.0098  0.1496
  234MOL0     C31499   8.093   6.997   7.098  0.2066 -0.0761  0.2468
  234MOL0    Cl31500   8.102   6.866   6.977  0.3547 -0.1035 -0.5332
  234MOL0     C31501   9.078   7.499   7.146  0.3261  1.0939  1.0045
  234MOL0     C31502   9.201   7.543   7.202 -0.2424 -0.3552  0.0750
  234MOL0     O31503   9.522   7.583   7.184  0.5165 -0.0854 -1.0193
  234MOL0     C31504   9.543   7.651   7.532 -0.4490 -0.9494  0.5647
  234MOL0     C31505   9.615   7.725   7.626 -0.2726  0.3907  0.5805
  234MOL0     N31506   9.857   8.373   7.714 -0.2344 -0.3737  0.3329
  234MOL0     N31507   9.906   8.485   7.741  0.1673 -0.1052  0.0515
  234MOL0     C31508  10.693   9.207   8.451 -0.4606  0.2031 -0.8884
  234MOL0     C31509  10.815   9.185   8.513  0.1694  1.2949  0.4075
  234MOL0     C31510  11.183   9.100   8.687 -0.2653 -0.3602 -0.5358
  234MOL0     C31511  11.160   9.002   8.793 -0.3634 -0.0675  0.5930
  234MOL0     C31512  11.258   8.984   8.885 -0.3478  0.6201 -0.3658
  234MOL0     C31513  11.373   9.053   8.889 -0.5813 -0.8899 -0.2039
  234MOL0     O31514  11.441   9.049   9.005 -0.0617  0.5804  0.4074
  234MOL0     C31515  11.553   9.127   9.031 -0.5282  0.4113 -0.1250
  234MOL0     C31516  11.681   9.031   9.069 -0.0004 -0.8120  0.2145
  234MOL0     C31517  11.648   8.912   9.166 -1.0630  0.1947  0.3278
  234MOL0     C31518  11.769   8.840   9.220 -0.5029 -0.1676  0.1433
  234MOL0     C31519  11.856   8.783   9.122 -0.3830  0.1233 -0.4188
  234MOL0     C31520  11.929   8.734   9.039 -0.3937  0.2950  0.6851
  234MOL0     C31521  11.397   9.143   8.784  0.0297 -0.0049 -1.1109
  234MOL0     C31522  11.308   9.174   8.686  0.3701  0.4371  0.6967
  234MOL0     H31523  10.838   8.857   8.491 -0.0836  0.5664  0.0958
  234MOL0     H31524  10.617   8.885   8.384 -1.8684  2.7305  0.0965
  234MOL0     H31525  10.471   9.001   8.167  0.7149  0.9852 -0.0778
  234MOL0     H31526  10.414   8.952   8.334 -3.3944  1.4049  0.1472
  234MOL0     H31527  10.270   9.160   8.336  2.1511 -0.5856  0.5495
  234MOL0     H31528  10.308   9.173   8.168  0.7336 -1.0084  0.1855
  234MOL0     H31529  10.203   8.920   8.277 -0.1168 -2.0260 -2.3954
  234MOL0     H31530  10.095   9.051   8.218 -0.2737 -0.2937  3.8918
  234MOL0     H31531  10.201   9.057   8.017 -0.7026  1.5294  1.8035
  234MOL0     H31532  10.320   8.926   8.050 -0.0218  0.2217  0.6896
  234MOL0     H31533  10.012   8.879   8.045 -1.6382  0.0242 -3.4302
  234MOL0     H31534  10.130   8.843   7.914  1.7867 -1.2197  0.2640
  234MOL0     H31535  10.249   8.688   8.091  0.6776 -1.0876 -0.1997
  234MOL0     H31536  10.108   8.729   8.183 -1.1290  2.8606 -0.8836
  234MOL0     H31537  10.083   8.515   8.080 -0.9767 -1.2503 -2.5559
  234MOL0     H31538   9.945   8.612   8.034  0.0965 -0.6436 -0.6641
  234MOL0     H31539  10.198   8.545   7.884 -0.1483  1.3105 -0.7095
  234MOL0     H31540  10.081   8.668   7.812  0.8555  2.9978  2.4090
  234MOL0     H31541  10.129   8.298   7.879 -0.3664 -1.7877  0.1354
  234MOL0     H31542   9.848   8.094   7.685 -0.8586 -1.9470  1.2333
  234MOL0     H31543  10.012   8.080   7.736  0.4187  0.5827  1.2941
  234MOL0     H31544   9.769   8.099   7.906 -1.5752 -0.0091 -1.1238
  234MOL0     H31545   9.931   8.123   7.978  0.2808 -3.2938  1.0358
  234MOL0     H31546   9.881   7.900   8.012 -0.7955  1.4037  0.4637
  234MOL0     H31547   9.996   7.899   7.878 -0.3538  2.1103 -0.3899
  234MOL0     H31548   9.689   7.892   7.832 -0.1580  0.0604  2.8338
  234MOL0     H31549   9.773   7.745   7.873 -2.2997 -0.1630 -0.2747
  234MOL0     H31550   9.909   7.743   7.461  0.5326 -0.7888  1.6762
  234MOL0     H31551   9.754   7.688   7.162 -0.9708  1.1121  0.8014
  234MOL0     H31552   9.904   7.649   7.254 -0.3605 -0.8496  0.9242
  234MOL0     H31553   9.781   7.529   7.221  2.8063 -0.8685 -0.3338
  234MOL0     H31554   9.293   7.261   7.353 -0.4596 -0.2418  0.2810
  234MOL0     H31555   9.076   7.184   7.259  0.1915  0.2001  0.2407
  234MOL0     H31556   8.797   7.444   7.154  1.0966 -0.5891  0.7615
  234MOL0     H31557   8.843   7.469   6.987 -1.2316  1.6787  1.2912
  234MOL0     H31558   8.619   7.387   7.021  1.9845  1.8654  0.0164
  234MOL0     H31559   8.702   7.269   6.915 -0.8961 -2.4449  0.3378
  234MOL0     H31560   8.651   7.251   7.215 -0.1988  1.0294 -1.4913
  234MOL0     H31561   8.747   7.130   7.112  0.7958  0.9950 -1.8684
  234MOL0     H31562   8.459   7.218   7.073  1.1041  0.1629 -2.9073
  234MOL0     H31563   8.533   7.087   7.008 -2.8067  0.9172  0.3675
  234MOL0     H31564   8.470   7.115   7.298  1.1193  0.4638  0.6152
  234MOL0     H31565   8.559   6.980   7.247  0.2629  0.6011 -0.6435
  234MOL0     H31566   8.378   6.899   7.097  1.7833 -0.2658  1.4192
  234MOL0     H31567   8.311   6.908   7.254  1.7161 -2.5001 -0.5862
  234MOL0     H31568   8.269   7.096   7.014  1.6960  2.3834  1.0866
  234MOL0     H31569   8.224   7.141   7.179  3.3026  0.5567 -0.0240
  234MOL0     H31570   8.034   7.080   7.059 -1.4707 -0.2929  2.1601
  234MOL0     H31571   8.060   6.954   7.193  1.3922 -2.7508 -0.4365
  234MOL0     H31572   9.010   7.571   7.101  1.6285  1.8454  0.1782
  234MOL0     H31573   9.234   7.646   7.191 -1.1927 -0.0857 -0.3892
  234MOL0     H31574   9.441   7.627   7.561 -0.9415  0.1145 -0.2365
  234MOL0     H31575   9.571   7.750   7.723  1.3766 -0.4911  1.6008
  234MOL0     H31576  10.662   9.311   8.449  1.2737  0.7385 -1.0051
  234MOL0     H31577  10.858   9.280   8.545 -0.7549  2.2592 -1.0396
  234MOL0     H31578  11.068   8.946   8.801 -0.1501 -0.5187 -0.0557
  234MOL0     H31579  11.240   8.909   8.961  1.2119 -2.0948 -2.4917
  234MOL0     H31580  11.588   9.193   8.951  1.6126  1.0459  1.2261
  234MOL0     H31581  11.529   9.185   9.120  0.3242  2.3288 -1.0934
  234MOL0     H31582  11.758   9.095   9.114 -1.8800  1.6757  0.0905
  234MOL0     H31583  11.708   8.983   8.975  0.0066 -0.8062  0.2136
  234MOL0     H31584  11.585   8.835   9.121  0.0903 -0.0646 -0.9336
  234MOL0     H31585  11.591   8.958   9.247  1.3327  0.3755  1.9846
  234MOL0     H31586  11.729   8.765   9.289  2.3402  0.2130  2.4276
  234MOL0     H31587  11.825   8.906   9.287 -0.6300  0.0587  0.0288
  234MOL0     H31588  11.984   8.674   8.969 -2.1295 -1.8118  1.0266
  234MOL0     H31589  11.495   9.187   8.772  0.1569 -0.5041 -2.0639
  234MOL0     H31590  11.329   9.241   8.603 -1.2685 -0.3628 -0.4329
  235MOL0     O31591   0.136  10.323   5.882 -0.4200  0.0576 -0.1195
  235MOL0     C31592   0.137  10.234   5.966  0.0720 -0.1083 -0.2850
  235MOL0     O31593   0.025  10.184   6.032 -0.1562 -0.3858  0.1166
  235MOL0     C31594  -0.092  10.253   6.030 -0.7060 -0.0181 -0.6172
  235MOL0     C31595  -0.162  10.241   6.155 -0.2746  0.8037  0.1125
  235MOL0     C31596  -0.277  10.310   6.181 -0.0839 -0.1629 -0.2254
  235MOL0     C31597  -0.339  10.373   6.080  0.1917 -0.4715 -0.6107
  235MOL0     O31598  -0.468  10.428   6.110 -0.4206 -0.1875 -0.0761
  235MOL0     C31599  -0.498  10.553   6.046  0.2445 -0.6509 -0.4274
  235MOL0     C31600  -0.591  10.647   6.124 -0.5210  0.3499  1.0829
  235MOL0     C31601  -0.733  10.609   6.107  0.0171  0.5843  0.7026
  235MOL0     C31602  -0.827  10.692   6.201  0.0074 -0.6304 -0.1242
  235MOL0     C31603  -0.960  10.636   6.191  0.2206 -0.7178 -0.4074
  235MOL0     C31604  -1.060  10.728   6.272 -0.8950  0.4840  0.0514
  235MOL0     C31605  -1.201  10.665   6.259 -0.6345 -0.3291  1.5175
  235MOL0     C31606  -1.225  10.552   6.354 -0.6871 -0.2368 -0.4130
  235MOL0     N31607  -1.372  10.554   6.368  0.1389 -0.6687 -0.3640
  235MOL0     C31608  -1.456  10.492   6.288  0.0381  0.5292  0.5015
  235MOL0     C31609  -1.580  10.488   6.346  0.9557  0.0076  0.7155
  235MOL0     C31610  -1.710  10.421   6.296 -0.3514  0.0417  0.1264
  235MOL0     C31611  -1.731  10.269   6.308  0.7073 -0.4525  0.4174
  235MOL0     C31612  -1.854  10.237   6.224  0.4561  0.3068 -0.1187
  235MOL0     C31613  -1.986  10.322   6.252  0.0288  0.9082 -0.1964
  235MOL0     O31614  -2.095  10.231   6.228  0.0305  0.2321 -0.4544
  235MOL0     C31615  -2.218  10.252   6.289  0.0229  0.6604 -0.0075
  235MOL0     C31616  -2.265  10.365   6.345 -0.4499  0.4632 -0.0324
  235MOL0     C31617  -2.386  10.367   6.414  0.5354  0.0080 -0.1279
  235MOL0     C31618  -2.420  10.500   6.481  0.4226  0.8027  0.0235
  235MOL0     C31619  -2.468  10.254   6.426 -0.2489 -0.4308  0.7253
  235MOL0     C31620  -2.602  10.251   6.497  0.5772 -0.7371 -0.6952
  235MOL0     O31621  -2.678  10.158   6.451  0.2044 -0.3897 -0.3935
  235MOL0     C31622  -2.785  10.122   6.527  1.9961 -0.0637  0.7437
  235MOL0     C31623  -2.903  10.204   6.527  0.1158 -0.1820  0.3528
  235MOL0     C31624  -3.007  10.186   6.611  0.2428  0.4020  0.3505
  235MOL0     C31625  -3.000  10.072   6.696 -0.8308  0.0222  0.3441
  235MOL0     O31626  -3.102  10.058   6.790 -0.0997  0.7057  0.0361
  235MOL0     C31627  -3.095  10.151   6.901 -0.1376  0.6232 -0.2114
  235MOL0     C31628  -3.199  10.131   7.007 -0.0707 -0.5864  0.3287
  235MOL0     C31629  -3.344  10.152   6.966  0.2061 -0.4568 -0.0702
  235MOL0     C31630  -3.373  10.280   6.876 -1.1309 -0.4111  1.0005
  235MOL0     C31631  -3.525  10.309   6.841 -0.3848 -0.8666  0.6006
  235MOL0     C31632  -3.551  10.419   6.740 -0.7293 -0.9356  0.5401
  235MOL0     C31633  -3.690  10.438   6.693  0.2391  0.1222  0.1965
  235MOL0     C31634  -3.736  10.343   6.578  0.6161 -0.1754 -0.0897
  235MOL0    Cl31635  -3.878  10.420   6.482  0.3217  0.3278 -0.0090
  235MOL0     C31636  -2.888   9.980   6.678  0.7039  0.2831 -0.2124
  235MOL0     C31637  -2.783  10.013   6.599 -0.3684 -0.2229 -0.3751
  235MOL0     O31638  -2.629  10.332   6.590 -0.1131  0.2028  0.2895
  235MOL0     C31639  -2.424  10.134   6.355  0.2074  1.8186  0.1722
  235MOL0     C31640  -2.295  10.132   6.296 -0.4344 -0.3766 -0.4507
  235MOL0     N31641  -1.563  10.543   6.473 -1.1202 -0.3328 -0.0282
  235MOL0     N31642  -1.436  10.580   6.486  0.7396  0.0815  0.3871
  235MOL0     C31643  -0.284  10.371   5.950 -0.3772 -0.1993  0.1738
  235MOL0     C31644  -0.156  10.318   5.931 -0.1216  0.0684  0.6981
  235MOL0     C31645   0.262  10.154   5.994  0.5533  0.3004  0.7045
  235MOL0     C31646   0.384  10.189   5.941  0.2060 -0.0859  0.3625
  235MOL0     C31647   0.501  10.117   5.971 -1.2027  0.6388 -0.1649
  235MOL0     C31648   0.500  10.002   6.056  0.1866  0.1878  0.7433
  235MOL0     O31649   0.612   9.930   6.062  0.1246  0.8222 -0.4190
  235MOL0     C31650   0.615   9.819   6.157 -0.3880  0.4296 -0.0883
  235MOL0     C31651   0.750   9.752   6.157 -0.2181 -0.2423  0.1257
  235MOL0     C31652   0.768   9.644   6.262  0.5089  0.0470  0.4315
  235MOL0     C31653   0.746   9.503   6.202  0.3416  0.0588  0.2631
  235MOL0     C31654   0.798   9.408   6.299 -0.3863  0.1506 -0.3382
  235MOL0     C31655   0.831   9.336   6.392  0.2073  0.3077  1.2780
  235MOL0     C31656   0.378   9.972   6.108 -0.6465  0.2073 -0.5189
  235MOL0     C31657   0.263  10.041   6.079  0.3768 -0.1854 -0.4274
  235MOL0     H31658  -0.108  10.194   6.236  2.6633  1.0502 -1.5296
  235MOL0     H31659  -0.323  10.311   6.279 -0.7358  1.5549 -0.5047
  235MOL0     H31660  -0.407  10.612   6.039  0.2246 -0.1828  2.2164
  235MOL0     H31661  -0.543  10.533   5.948 -1.5150  0.5703  0.0963
  235MOL0     H31662  -0.565  10.635   6.229 -0.5681 -0.4552  1.0108
  235MOL0     H31663  -0.564  10.749   6.093  0.7618 -0.0989  0.6225
  235MOL0     H31664  -0.754  10.640   6.005  2.9746 -0.0579 -0.1978
  235MOL0     H31665  -0.750  10.501   6.112 -2.4919  0.8462 -0.6094
  235MOL0     H31666  -0.795  10.690   6.306 -2.2840  2.0444  0.7317
  235MOL0     H31667  -0.831  10.797   6.174 -1.0167 -1.0159 -1.5737
  235MOL0     H31668  -1.008  10.621   6.094  2.0201  1.5217 -1.7338
  235MOL0     H31669  -0.954  10.535   6.234 -1.3937 -1.1399 -1.0897
  235MOL0     H31670  -1.032  10.729   6.378 -2.4354 -1.2741  0.5237
  235MOL0     H31671  -1.062  10.829   6.230  0.5427  1.4769  2.1800
  235MOL0     H31672  -1.275  10.744   6.273  0.4905  0.7476  1.5487
  235MOL0     H31673  -1.226  10.633   6.157 -0.8194 -1.2329  1.8389
  235MOL0     H31674  -1.171  10.583   6.444 -0.8535  2.6674 -1.2083
  235MOL0     H31675  -1.189  10.453   6.325  2.5502  0.2149  1.5677
  235MOL0     H31676  -1.421  10.464   6.189  0.9555  0.8057  0.7420
  235MOL0     H31677  -1.781  10.477   6.357  1.6321 -2.3846  5.2840
  235MOL0     H31678  -1.724  10.453   6.192  1.0631  1.8467  0.4353
  235MOL0     H31679  -1.761  10.237   6.408 -0.8411 -0.3914 -0.0068
  235MOL0     H31680  -1.642  10.210   6.282 -1.0334 -3.2002  0.2887
  235MOL0     H31681  -1.873  10.131   6.245 -1.5400  0.2678 -1.7323
  235MOL0     H31682  -1.828  10.250   6.118  4.1099 -2.3760  0.2433
  235MOL0     H31683  -1.992  10.415   6.196  2.9656  1.6941  0.6324
  235MOL0     H31684  -1.990  10.349   6.358  3.0951  0.7815  0.0481
  235MOL0     H31685  -2.205  10.454   6.330  2.0436 -0.8547  1.5052
  235MOL0     H31686  -2.333  10.567   6.490  0.9958 -0.2082  3.2043
  235MOL0     H31687  -2.500  10.550   6.427 -2.8534 -1.2708  2.5793
  235MOL0     H31688  -2.447  10.479   6.585  3.8638 -3.7162  0.3303
  235MOL0     H31689  -2.902  10.294   6.466  1.3096 -1.8313 -2.2574
  235MOL0     H31690  -3.075  10.270   6.600 -1.1166 -0.9075 -1.7999
  235MOL0     H31691  -3.001  10.127   6.953 -0.0141 -0.4481 -0.9041
  235MOL0     H31692  -3.083  10.253   6.865  4.4196 -0.1878 -1.6321
  235MOL0     H31693  -3.202  10.028   7.045 -3.5700 -0.3137  1.1171
  235MOL0     H31694  -3.176  10.200   7.088 -2.1392  0.6618 -0.0817
  235MOL0     H31695  -3.399  10.163   7.060 -0.2037  0.7102 -0.4234
  235MOL0     H31696  -3.385  10.073   6.902  1.4463 -0.5955 -0.7327
  235MOL0     H31697  -3.319  10.365   6.918 -0.5733  0.4963 -1.3812
  235MOL0     H31698  -3.324  10.264   6.780 -3.0537  1.1168 -0.3179
  235MOL0     H31699  -3.578  10.333   6.934 -0.3584 -2.7443  1.1376
  235MOL0     H31700  -3.560  10.212   6.805 -0.0496 -1.4274  1.7377
  235MOL0     H31701  -3.530  10.514   6.790 -2.1344 -3.1291  5.9525
  235MOL0     H31702  -3.479  10.417   6.657  0.9352 -0.9838  1.9277
  235MOL0     H31703  -3.703  10.543   6.665  1.4580  0.4481  0.7944
  235MOL0     H31704  -3.768  10.426   6.768 -1.3523  1.0219 -1.2514
  235MOL0     H31705  -3.761  10.244   6.617 -3.6269  0.7978  0.1983
  235MOL0     H31706  -3.651  10.332   6.510  0.7545  2.6261 -0.4888
  235MOL0     H31707  -2.887   9.890   6.738 -0.1175 -0.9007 -1.8999
  235MOL0     H31708  -2.694   9.952   6.592  1.4181  2.0065  1.3792
  235MOL0     H31709  -2.480  10.041   6.356  3.2908 -0.2531  2.1594
  235MOL0     H31710  -2.250  10.044   6.252  2.2045  1.2323 -1.1641
  235MOL0     H31711  -0.339  10.411   5.866 -0.0733  4.0569  1.7639
  235MOL0     H31712  -0.115  10.324   5.830 -0.5541  4.2743  0.6078
  235MOL0     H31713   0.393  10.278   5.878 -2.0274 -0.9008 -1.2636
  235MOL0     H31714   0.584  10.160   5.916 -0.4413 -1.2256 -0.5473
  235MOL0     H31715   0.604   9.856   6.259  2.2851 -0.7185  0.7260
  235MOL0     H31716   0.530   9.753   6.137 -1.3232  1.5984 -0.0340
  235MOL0     H31717   0.819   9.828   6.194 -0.2306 -1.3664  2.6686
  235MOL0     H31718   0.781   9.730   6.054 -0.3195  1.7602 -0.3669
  235MOL0     H31719   0.701   9.653   6.348  1.0267 -1.3958  1.0223
  235MOL0     H31720   0.865   9.657   6.311  1.0229 -0.9232 -0.2973
  235MOL0     H31721   0.786   9.479   6.103 -2.2093 -0.2651 -0.7665
  235MOL0     H31722   0.641   9.476   6.186 -0.3428  3.1563 -1.3274
  235MOL0     H31723   0.876   9.287   6.476  0.5226 -0.4468  0.6831
  235MOL0     H31724   0.367   9.899   6.189  1.3079  0.4044 -0.0252
  235MOL0     H31725   0.165  10.016   6.118 -0.4001 -0.0165 -2.1578
  236MOL0     O31726   2.691   9.866   7.982  0.0345 -0.3173 -0.0644
  236MOL0     C31727   2.613   9.780   8.020 -0.5874  0.0063 -0.3452
  236MOL0     O31728   2.639   9.682   8.111 -0.6216 -0.6787  0.9317
  236MOL0     C31729   2.758   9.645   8.159 -0.1866 -0.0822 -0.5847
  236MOL0     C31730   2.757   9.514   8.201 -0.7353  0.1333  0.3451
  236MOL0     C31731   2.877   9.451   8.239  1.3961 -1.2352 -0.0185
  236MOL0     C31732   3.002   9.518   8.229 -0.4111  0.4683 -0.0283
  236MOL0     O31733   3.127   9.458   8.255  0.3366  0.5157  0.4261
  236MOL0     C31734   3.143   9.327   8.203 -0.4416  0.4376 -0.4373
  236MOL0     C31735   3.286   9.275   8.242  1.0424 -0.4967 -0.2967
  236MOL0     C31736   3.309   9.124   8.211  0.1656  0.3140  0.3632
  236MOL0     C31737   3.276   9.081   8.063  0.1311 -0.6638  0.7616
  236MOL0     C31738   3.313   8.934   8.042  0.5083  0.0608  0.4399
  236MOL0     C31739   3.258   8.894   7.901 -0.2171 -1.0219 -0.0987
  236MOL0     C31740   3.269   8.740   7.893 -0.9762  0.1474 -0.1802
  236MOL0     C31741   3.398   8.709   7.820  0.4691 -0.3221  0.3189
  236MOL0     N31742   3.400   8.567   7.795 -0.0543 -0.1930  0.6786
  236MOL0     C31743   3.433   8.475   7.889  0.7061 -0.1860 -0.2294
  236MOL0     C31744   3.398   8.353   7.832 -0.2252  1.0207  0.6324
  236MOL0     C31745   3.423   8.218   7.896  0.2170 -0.4338 -0.3740
  236MOL0     C31746   3.405   8.092   7.813 -0.1109  0.3789 -0.6829
  236MOL0     C31747   3.263   8.067   7.779  0.8627  0.6712  0.7858
  236MOL0     C31748   3.241   8.068   7.625 -0.5899 -0.1388 -0.4034
  236MOL0     O31749   3.108   8.023   7.603  0.1584 -0.0291  0.0950
  236MOL0     C31750   3.003   8.115   7.597 -0.3086  0.4969 -0.5346
  236MOL0     C31751   3.017   8.246   7.640 -0.6011  0.5539  0.3676
  236MOL0     C31752   2.911   8.340   7.644  0.6057  0.5910  0.3729
  236MOL0     C31753   2.933   8.472   7.707 -0.1540  0.3602 -0.1540
  236MOL0     C31754   2.783   8.298   7.600 -0.4299 -0.2466 -0.5083
  236MOL0     C31755   2.666   8.380   7.590  0.7218 -0.9485 -0.5097
  236MOL0     O31756   2.645   8.483   7.677 -0.2278 -0.0873  0.0905
  236MOL0     C31757   2.521   8.545   7.665 -0.6151  0.4084  0.3927
  236MOL0     C31758   2.423   8.489   7.743  0.2540  0.1644  0.2481
  236MOL0     C31759   2.293   8.545   7.742 -0.1140  0.2048  1.3604
  236MOL0     C31760   2.262   8.660   7.663 -0.5595  0.1388  0.1049
  236MOL0     O31761   2.135   8.722   7.665  0.3142 -0.0879 -0.3816
  236MOL0     C31762   2.026   8.638   7.629 -0.0131  0.9591  0.3687
  236MOL0     C31763   1.900   8.709   7.682 -0.6713 -0.1014  0.0555
  236MOL0     C31764   1.784   8.611   7.688  0.2666 -0.3985 -0.5195
  236MOL0     C31765   1.663   8.652   7.766 -0.1279  0.4082 -0.7822
  236MOL0     C31766   1.556   8.540   7.765 -0.7538  0.1053  0.3061
  236MOL0     C31767   1.416   8.582   7.802  0.3700 -0.3593  0.4447
  236MOL0     C31768   1.311   8.471   7.782  0.5410  0.3253  0.0585
  236MOL0     C31769   1.173   8.527   7.829 -0.3522  0.3856 -0.1422
  236MOL0    Cl31770   1.065   8.399   7.831 -0.3713  0.3073 -0.3962
  236MOL0     C31771   2.365   8.706   7.580 -0.2682 -0.3537  1.0746
  236MOL0     C31772   2.497   8.651   7.580  0.5039 -0.0026  0.3461
  236MOL0     O31773   2.596   8.360   7.489 -0.7389 -0.1772 -0.1400
  236MOL0     C31774   2.773   8.165   7.546 -0.0816  0.4672 -0.0910
  236MOL0     C31775   2.874   8.067   7.555  0.1777 -0.0512 -0.0803
  236MOL0     N31776   3.339   8.374   7.704 -1.2822  0.3446 -0.1041
  236MOL0     N31777   3.330   8.502   7.693 -0.2411 -0.6319 -0.0708
  236MOL0     C31778   3.002   9.652   8.192 -0.0727  0.0754  0.4684
  236MOL0     C31779   2.881   9.719   8.157 -0.2313  0.2607  0.9565
  236MOL0     C31780   2.474   9.794   7.964  0.5053  0.0726 -0.3101
  236MOL0     C31781   2.382   9.698   8.003  0.5461 -0.0336 -0.7247
  236MOL0     C31782   2.253   9.700   7.949  0.3227  0.1756 -0.2071
  236MOL0     C31783   2.215   9.799   7.866  0.6636 -0.0161 -0.1128
  236MOL0     O31784   2.082   9.805   7.823  0.1972  0.0888  0.2769
  236MOL0     C31785   2.025   9.928   7.806  0.0093 -0.6383  0.3382
  236MOL0     C31786   1.869   9.923   7.813 -0.7447 -0.7030 -0.4895
  236MOL0     C31787   1.805   9.789   7.775  0.1266  0.3902 -1.1296
  236MOL0     C31788   1.786   9.768   7.620  0.5332 -0.2928  0.3455
  236MOL0     C31789   1.705   9.643   7.618 -1.1709 -0.0576 -0.7843
  236MOL0     C31790   1.650   9.532   7.617 -1.5277  0.0847  0.1492
  236MOL0     C31791   2.305   9.897   7.828 -0.1952  0.7102  0.7938
  236MOL0     C31792   2.437   9.898   7.877  1.0187 -0.4657 -0.6514
  236MOL0     H31793   2.658   9.469   8.205 -1.4257  1.1250 -2.9995
  236MOL0     H31794   2.879   9.346   8.268  4.6127 -0.9787  1.1331
  236MOL0     H31795   3.062   9.263   8.238  0.6399 -0.9746 -0.4426
  236MOL0     H31796   3.131   9.331   8.094 -1.7231  0.1907 -0.3205
  236MOL0     H31797   3.361   9.337   8.192  0.8106 -0.8095 -1.0566
  236MOL0     H31798   3.303   9.293   8.348  0.2369  0.7237 -0.3583
  236MOL0     H31799   3.414   9.094   8.212 -0.5609 -2.6665 -0.6689
  236MOL0     H31800   3.256   9.059   8.282  3.3557 -1.2988  1.4883
  236MOL0     H31801   3.168   9.087   8.045  0.2005 -2.8342 -0.7366
  236MOL0     H31802   3.328   9.147   7.992  1.3734  0.7300  2.8438
  236MOL0     H31803   3.421   8.924   8.031  0.0980 -1.6131 -4.1064
  236MOL0     H31804   3.258   8.871   8.111 -1.4077 -0.7794 -1.7088
  236MOL0     H31805   3.156   8.928   7.881  0.4949  0.4185 -1.5269
  236MOL0     H31806   3.300   8.953   7.819 -2.6638  1.1819  0.1362
  236MOL0     H31807   3.276   8.706   7.996 -0.0118 -1.9325 -0.8684
  236MOL0     H31808   3.180   8.688   7.856 -0.5181  1.4185 -3.5076
  236MOL0     H31809   3.482   8.738   7.884 -1.7608  0.6545  2.9561
  236MOL0     H31810   3.391   8.765   7.726  2.7030 -0.5245 -0.0172
  236MOL0     H31811   3.491   8.483   7.980 -0.0028  0.9954  0.1387
  236MOL0     H31812   3.526   8.216   7.932 -1.0932 -2.1535  4.0165
  236MOL0     H31813   3.380   8.208   7.996  0.7894 -3.2269 -0.3216
  236MOL0     H31814   3.459   8.006   7.855 -0.9514 -0.1051 -0.5564
  236MOL0     H31815   3.464   8.114   7.724 -0.5264  1.0840 -0.7875
  236MOL0     H31816   3.198   8.144   7.822  1.1127  0.3185  1.8074
  236MOL0     H31817   3.244   7.965   7.813  0.6542 -0.5477 -2.6256
  236MOL0     H31818   3.313   8.001   7.577  2.5918  1.7989  1.3047
  236MOL0     H31819   3.263   8.172   7.597  2.6113  0.3072  3.0083
  236MOL0     H31820   3.106   8.286   7.689  0.0185 -0.3645  0.0137
  236MOL0     H31821   2.918   8.558   7.640 -0.9077  1.8074  1.7775
  236MOL0     H31822   2.872   8.475   7.797 -0.6057  1.3600 -0.4727
  236MOL0     H31823   3.033   8.476   7.751 -1.1621  0.0136  2.3272
  236MOL0     H31824   2.432   8.403   7.809  1.4524 -0.9578 -1.2786
  236MOL0     H31825   2.215   8.506   7.807 -1.7874  1.7940  0.3774
  236MOL0     H31826   2.012   8.615   7.523 -2.9362 -3.6146  1.4727
  236MOL0     H31827   2.042   8.543   7.683  0.2440  1.2513  0.8147
  236MOL0     H31828   1.925   8.743   7.782  4.1325 -0.1474 -0.8649
  236MOL0     H31829   1.886   8.801   7.624 -1.3081 -0.0843  0.2380
  236MOL0     H31830   1.820   8.518   7.733 -2.2976 -1.0354  0.3857
  236MOL0     H31831   1.769   8.564   7.590  2.1100 -2.3696  0.0555
  236MOL0     H31832   1.693   8.668   7.869  1.0950  1.5757 -1.2948
  236MOL0     H31833   1.608   8.738   7.726 -1.9404 -1.1770 -1.9484
  236MOL0     H31834   1.582   8.458   7.832 -0.1590  0.7580  0.8922
  236MOL0     H31835   1.556   8.495   7.665  3.1039 -0.3125  0.3266
  236MOL0     H31836   1.427   8.624   7.903  1.3065  0.5172 -0.0035
  236MOL0     H31837   1.388   8.668   7.740 -0.2811 -0.7877  0.1344
  236MOL0     H31838   1.353   8.380   7.827  1.1942 -0.6216 -2.2905
  236MOL0     H31839   1.299   8.460   7.674 -0.1935  0.1278  0.1564
  236MOL0     H31840   1.131   8.606   7.765 -3.8405 -1.6780 -0.6741
  236MOL0     H31841   1.183   8.563   7.931  0.3979 -0.9272  0.2681
  236MOL0     H31842   2.349   8.794   7.518  1.3785 -0.5955  0.2609
  236MOL0     H31843   2.572   8.686   7.510 -1.0427  0.0296 -1.3662
  236MOL0     H31844   2.676   8.128   7.512 -0.0828  0.2096  0.1860
  236MOL0     H31845   2.856   7.966   7.522  0.8682  0.4449 -2.0901
  236MOL0     H31846   3.103   9.689   8.186 -0.5328  1.1734 -1.2977
  236MOL0     H31847   2.886   9.820   8.117 -0.6991 -0.2019 -0.2964
  236MOL0     H31848   2.418   9.633   8.083 -0.0603  0.1645 -0.2822
  236MOL0     H31849   2.192   9.622   7.995  2.3641 -2.3224 -1.4476
  236MOL0     H31850   2.057   9.996   7.886  0.7817 -2.9254  2.0715
  236MOL0     H31851   2.037   9.968   7.705  1.0259 -0.5361  0.4852
  236MOL0     H31852   1.835  10.015   7.765 -0.5446 -0.5375 -0.3177
  236MOL0     H31853   1.844   9.926   7.920 -1.2122 -1.1547 -0.5822
  236MOL0     H31854   1.707   9.787   7.824  0.3524 -0.7507 -0.6960
  236MOL0     H31855   1.854   9.702   7.820 -1.4449  0.2971  0.5320
  236MOL0     H31856   1.888   9.760   7.581  0.9274  0.1941  1.2360
  236MOL0     H31857   1.725   9.841   7.567 -1.0072 -1.7249  0.0748
  236MOL0     H31858   1.597   9.439   7.618 -1.9381  0.2741 -1.1606
  236MOL0     H31859   2.278   9.971   7.754 -0.2158  0.8068  0.8956
  236MOL0     H31860   2.511   9.972   7.850 -0.5897  2.8884  3.1227
  237MOL0     O31861   4.762   0.503   7.478 -0.0603 -0.1133 -1.2570
  237MOL0     C31862   4.682   0.499   7.570  0.9686 -0.1230 -1.0719
  237MOL0     O31863   4.702   0.453   7.703 -0.5418 -0.3877  0.4075
  237MOL0     C31864   4.826   0.446   7.758  0.4589 -0.4454 -0.3350
  237MOL0     C31865   4.950   0.438   7.692  1.0100  0.1758 -1.0735
  237MOL0     C31866   5.064   0.438   7.765 -0.1421  0.7311 -0.8909
  237MOL0     C31867   5.064   0.454   7.905  0.2434  0.0680 -0.4060
  237MOL0     O31868   5.169   0.501   7.985 -0.2778 -0.2950  0.0349
  237MOL0     C31869   5.302   0.472   7.944 -0.8497  0.0333  0.3855
  237MOL0     C31870   5.336   0.319   7.968  0.2108  0.3466  0.2643
  237MOL0     C31871   5.477   0.303   7.950  0.1995  0.3698 -0.1819
  237MOL0     C31872   5.509   0.158   7.923 -0.8334 -0.2732  0.1458
  237MOL0     C31873   5.662   0.118   7.943 -0.4712 -0.3805  0.9189
  237MOL0     C31874   5.762   0.185   7.851  0.4454  0.6017  1.0197
  237MOL0     C31875   5.905   0.154   7.880 -0.3459  0.9937  0.5191
  237MOL0     C31876   5.951   0.008   7.820  0.4594 -0.1466 -0.6531
  237MOL0     N31877   6.066  -0.049   7.888 -0.2434  0.4625 -0.5225
  237MOL0     C31878   6.048  -0.125   8.007  0.1336 -0.3047 -0.1060
  237MOL0     C31879   6.163  -0.195   8.012  0.0608 -0.4891 -0.8299
  237MOL0     C31880   6.214  -0.285   8.127  0.2611 -1.0906  0.6146
  237MOL0     C31881   6.115  -0.402   8.158  0.1204  0.2075  0.0785
  237MOL0     C31882   6.170  -0.508   8.242 -0.4049  0.0227  0.3839
  237MOL0     C31883   6.061  -0.612   8.284  0.3953  0.2092 -0.4006
  237MOL0     O31884   5.978  -0.559   8.388  0.2119 -0.4868 -0.4544
  237MOL0     C31885   5.839  -0.565   8.385 -0.2335  0.1495  0.0100
  237MOL0     C31886   5.764  -0.647   8.304  0.8771 -0.0135  0.1100
  237MOL0     C31887   5.627  -0.652   8.320 -0.1062 -0.2193 -0.5474
  237MOL0     C31888   5.554  -0.736   8.217 -1.1168 -0.4823 -0.0679
  237MOL0     C31889   5.554  -0.566   8.415 -0.3792 -0.1377 -0.1206
  237MOL0     C31890   5.405  -0.561   8.444 -0.5930 -0.2433  0.2251
  237MOL0     O31891   5.365  -0.575   8.571  0.1104 -0.2639 -0.2990
  237MOL0     C31892   5.232  -0.562   8.611  0.1074 -0.5472 -0.6057
  237MOL0     C31893   5.192  -0.650   8.704 -0.0110  0.2769  0.4545
  237MOL0     C31894   5.061  -0.642   8.747 -0.3183  0.5276  0.1444
  237MOL0     C31895   4.965  -0.562   8.697 -0.1267 -0.7754  0.5028
  237MOL0     O31896   4.835  -0.550   8.748  0.0744  0.6073 -0.7426
  237MOL0     C31897   4.732  -0.469   8.677 -0.2422 -0.6065 -0.8252
  237MOL0     C31898   4.584  -0.469   8.729 -0.8633 -0.6189 -0.0152
  237MOL0     C31899   4.570  -0.501   8.877  0.1687  0.2878  0.4371
  237MOL0     C31900   4.421  -0.536   8.898 -1.3103  0.3080 -0.8313
  237MOL0     C31901   4.398  -0.594   9.041  0.0285 -0.0933  0.1515
  237MOL0     C31902   4.441  -0.512   9.166  0.4975 -0.9785  0.6794
  237MOL0     C31903   4.456  -0.586   9.301  0.7932 -0.4089  0.2635
  237MOL0     C31904   4.472  -0.476   9.413  0.4786  0.1121  0.7141
  237MOL0    Cl31905   4.630  -0.398   9.386 -0.4561  0.3253 -0.3186
  237MOL0     C31906   5.004  -0.480   8.593 -0.1264 -0.9641  1.0460
  237MOL0     C31907   5.141  -0.479   8.548  1.2283 -0.5721 -0.8871
  237MOL0     O31908   5.338  -0.550   8.341 -0.4829 -0.5354  0.4744
  237MOL0     C31909   5.637  -0.476   8.488  0.0569  0.5517  0.5194
  237MOL0     C31910   5.774  -0.470   8.469 -0.3043 -0.2688  0.1654
  237MOL0     N31911   6.244  -0.171   7.900  0.2165 -0.3767  0.6237
  237MOL0     N31912   6.182  -0.078   7.827 -0.2435 -0.0154 -0.3165
  237MOL0     C31913   4.945   0.452   7.974 -0.0149  0.9363  1.0299
  237MOL0     C31914   4.832   0.435   7.901  0.6529 -0.4793  0.8404
  237MOL0     C31915   4.546   0.536   7.530  0.5474  0.4079  0.8877
  237MOL0     C31916   4.510   0.571   7.395  0.0136  0.7306 -0.1591
  237MOL0     C31917   4.375   0.589   7.358  0.3701  0.1069  0.6426
  237MOL0     C31918   4.268   0.565   7.443  0.5312  0.0015  0.2646
  237MOL0     O31919   4.140   0.554   7.401  0.0687  0.6526 -0.1767
  237MOL0     C31920   4.094   0.635   7.292 -0.3606  0.0572  0.1286
  237MOL0     C31921   3.946   0.611   7.261  0.8122 -0.1172 -0.2297
  237MOL0     C31922   3.920   0.457   7.224  0.1649  0.4511  0.0063
  237MOL0     C31923   3.770   0.424   7.208  0.4526  0.9786  0.3866
  237MOL0     C31924   3.690   0.478   7.092 -0.1361  0.0545  0.7068
  237MOL0     C31925   3.629   0.517   6.995  0.0039  0.6581 -0.1443
  237MOL0     C31926   4.307   0.541   7.576 -0.2237 -0.2646 -0.1915
  237MOL0     C31927   4.440   0.530   7.617  0.7493 -0.0607 -0.4341
  237MOL0     H31928   4.956   0.410   7.588  2.0087 -0.6761 -0.7997
  237MOL0     H31929   5.163   0.436   7.721  0.5973  2.4798  0.5523
  237MOL0     H31930   5.322   0.507   7.843  1.2027 -0.2291  0.6577
  237MOL0     H31931   5.366   0.530   8.012  1.4306  0.1293 -1.7212
  237MOL0     H31932   5.321   0.267   8.063  0.4536  0.0819  0.1573
  237MOL0     H31933   5.276   0.272   7.890 -1.1850  2.2169  0.1253
  237MOL0     H31934   5.511   0.364   7.866  1.8651  1.2759  1.0799
  237MOL0     H31935   5.530   0.333   8.041 -0.1984 -2.1910  0.9880
  237MOL0     H31936   5.447   0.093   7.986 -0.0675 -0.2494  0.9496
  237MOL0     H31937   5.480   0.142   7.819 -1.1852 -1.2287  0.3814
  237MOL0     H31938   5.699   0.142   8.043  2.9137 -0.8034 -0.0745
  237MOL0     H31939   5.657   0.011   7.917  0.9778 -0.5820  1.3703
  237MOL0     H31940   5.738   0.163   7.746  5.0337 -0.6629  0.0103
  237MOL0     H31941   5.762   0.294   7.861  2.5055  1.1218 -2.6150
  237MOL0     H31942   5.969   0.230   7.834  1.8213 -0.4573  0.9613
  237MOL0     H31943   5.923   0.155   7.988  1.7412 -0.4861  0.2432
  237MOL0     H31944   5.964   0.015   7.711  0.0522 -0.3481 -0.7174
  237MOL0     H31945   5.867  -0.059   7.839 -0.8990  1.9149  1.0607
  237MOL0     H31946   5.962  -0.111   8.072 -1.8730  0.7292 -2.7983
  237MOL0     H31947   6.311  -0.319   8.089 -0.2204 -2.8997  0.9131
  237MOL0     H31948   6.241  -0.238   8.222 -2.2441 -0.7995  1.2674
  237MOL0     H31949   6.086  -0.452   8.065 -1.1289  0.8253  0.1118
  237MOL0     H31950   6.029  -0.364   8.215 -1.1285 -0.1195 -1.5080
  237MOL0     H31951   6.204  -0.458   8.333 -1.7556  0.2743  0.7740
  237MOL0     H31952   6.249  -0.561   8.189 -0.5331 -1.7091  1.8194
  237MOL0     H31953   6.111  -0.702   8.321 -3.2432 -0.9397  2.2051
  237MOL0     H31954   6.009  -0.628   8.189  0.4593  3.8584 -1.1942
  237MOL0     H31955   5.817  -0.708   8.232  1.7584 -2.4374  2.6025
  237MOL0     H31956   5.630  -0.775   8.148 -0.3579  0.3497  0.2762
  237MOL0     H31957   5.509  -0.822   8.267 -1.6118  0.1446  0.5666
  237MOL0     H31958   5.489  -0.671   8.157  1.8178  2.2684 -0.5362
  237MOL0     H31959   5.263  -0.711   8.758  1.5481  0.7029 -1.0453
  237MOL0     H31960   5.038  -0.718   8.821  0.8849 -1.1975 -1.1755
  237MOL0     H31961   4.758  -0.363   8.680 -3.8169  0.3845 -0.2709
  237MOL0     H31962   4.720  -0.508   8.575 -2.1441 -2.2143 -0.0455
  237MOL0     H31963   4.529  -0.378   8.700  0.8876  0.7153  0.7019
  237MOL0     H31964   4.539  -0.548   8.668 -0.3207 -1.1363  0.2562
  237MOL0     H31965   4.605  -0.418   8.940  0.2726 -0.5405  1.4964
  237MOL0     H31966   4.631  -0.587   8.906  1.8896  1.4460  0.3909
  237MOL0     H31967   4.371  -0.440   8.886  1.7691  2.0105 -1.0041
  237MOL0     H31968   4.396  -0.592   8.807 -3.2315 -3.2853  1.6286
  237MOL0     H31969   4.456  -0.686   9.033 -0.6418 -0.4075 -1.6753
  237MOL0     H31970   4.295  -0.624   9.063  0.5532 -2.2612 -0.0687
  237MOL0     H31971   4.542  -0.485   9.135  0.0015 -0.1840 -0.3026
  237MOL0     H31972   4.382  -0.423   9.189 -0.4248 -1.1021 -1.0543
  237MOL0     H31973   4.542  -0.652   9.293  0.8618 -0.3143  0.2282
  237MOL0     H31974   4.367  -0.645   9.323  0.4316  0.2192  0.5207
  237MOL0     H31975   4.467  -0.526   9.510 -0.8934 -1.2296 -0.0054
  237MOL0     H31976   4.397  -0.397   9.410  0.3865 -0.0031 -1.4984
  237MOL0     H31977   4.944  -0.403   8.546  0.6099  0.0281  1.7077
  237MOL0     H31978   5.181  -0.393   8.495  4.6376  0.1544  2.3860
  237MOL0     H31979   5.594  -0.409   8.561  0.3264 -0.1160  1.3030
  237MOL0     H31980   5.831  -0.405   8.535  1.1045 -1.8109  0.5225
  237MOL0     H31981   4.944   0.464   8.082 -0.0233  2.1827  0.9081
  237MOL0     H31982   4.735   0.427   7.949  1.7281 -2.4860  2.8825
  237MOL0     H31983   4.593   0.575   7.326  0.7016  1.1419  0.6667
  237MOL0     H31984   4.356   0.598   7.251  0.8763 -0.9084  0.4615
  237MOL0     H31985   4.120   0.740   7.309  3.3391 -0.1905 -2.5963
  237MOL0     H31986   4.157   0.600   7.209  0.5102  2.1084 -0.1445
  237MOL0     H31987   3.915   0.665   7.171  2.7828 -3.0525 -2.8942
  237MOL0     H31988   3.883   0.641   7.345 -3.3772 -0.3774 -2.9712
  237MOL0     H31989   3.960   0.395   7.305  0.5728  2.6601  1.5840
  237MOL0     H31990   3.982   0.432   7.138  0.5695 -2.1586  0.9748
  237MOL0     H31991   3.729   0.466   7.301  1.3426 -0.6138  1.5466
  237MOL0     H31992   3.753   0.316   7.215  0.1229  1.0680  1.0657
  237MOL0     H31993   3.575   0.534   6.903 -1.8089 -0.9411  0.5397
  237MOL0     H31994   4.239   0.509   7.654  0.2078  1.7409  1.0739
  237MOL0     H31995   4.452   0.517   7.724 -1.8862  2.5457  0.3105
  238MOL0     O31996   9.060   7.991   2.867 -0.5605  0.1112 -0.3463
  238MOL0     C31997   9.129   7.936   2.787  0.4809 -0.3424  0.2793
  238MOL0     O31998   9.088   7.877   2.670 -0.2432 -0.5818  0.8741
  238MOL0     C31999   8.954   7.878   2.653  0.4320  0.1422 -0.1186
  238MOL0     C32000   8.891   7.989   2.600 -0.4809  0.5659 -0.4527
  238MOL0     C32001   8.754   7.975   2.583  0.4926  0.4154 -0.2924
  238MOL0     C32002   8.680   7.862   2.606  0.7996  0.6556  0.0667
  238MOL0     O32003   8.552   7.860   2.555  0.2586  0.3081  0.2853
  238MOL0     C32004   8.460   7.796   2.649  0.4222 -0.6194  0.4655
  238MOL0     C32005   8.322   7.780   2.597  0.1621  0.4407  0.5192
  238MOL0     C32006   8.317   7.715   2.465  0.1468 -0.0610 -0.0572
  238MOL0     C32007   8.165   7.666   2.436  0.0830  0.5537  0.3835
  238MOL0     C32008   8.161   7.583   2.302 -0.0450  0.0196 -1.2186
  238MOL0     C32009   8.189   7.680   2.188 -0.2435  0.2602  0.0027
  238MOL0     C32010   8.129   7.648   2.060  0.5942  0.5944  0.1543
  238MOL0     C32011   8.210   7.553   1.980 -1.3658  0.5522  0.4105
  238MOL0     N32012   8.156   7.504   1.848 -0.5751 -0.4334 -0.1223
  238MOL0     C32013   8.125   7.591   1.749 -0.6249  0.7239 -0.3621
  238MOL0     C32014   8.113   7.509   1.638  0.5917 -0.1786 -0.0619
  238MOL0     C32015   8.073   7.564   1.502 -0.2244  0.7323 -0.4346
  238MOL0     C32016   7.929   7.593   1.504 -0.0716 -0.5294 -0.0148
  238MOL0     C32017   7.895   7.717   1.415 -0.3736  0.4797 -0.1577
  238MOL0     C32018   7.748   7.748   1.402 -0.3363 -0.3048  0.0615
  238MOL0     O32019   7.672   7.642   1.327 -0.2040  0.4498 -0.2099
  238MOL0     C32020   7.548   7.669   1.289 -0.5309 -0.1168  1.1142
  238MOL0     C32021   7.468   7.781   1.329  0.4730  0.0956  0.0081
  238MOL0     C32022   7.331   7.786   1.304  0.4856 -0.1559  0.2694
  238MOL0     C32023   7.257   7.893   1.381 -0.5918  0.1931  0.1036
  238MOL0     C32024   7.270   7.684   1.221  0.3902 -0.4931  0.1000
  238MOL0     C32025   7.129   7.684   1.175 -0.5778 -0.6029  0.6027
  238MOL0     O32026   7.108   7.626   1.053  0.4398 -0.3163 -0.5782
  238MOL0     C32027   6.992   7.632   0.977 -0.6893 -0.4566 -0.3263
  238MOL0     C32028   6.884   7.711   0.995 -0.0315 -0.3374  0.3912
  238MOL0     C32029   6.781   7.722   0.906  0.4817 -0.5499  0.4107
  238MOL0     C32030   6.780   7.637   0.799  0.8018  0.7531 -0.1840
  238MOL0     O32031   6.660   7.633   0.731  0.9186 -0.1149 -0.0356
  238MOL0     C32032   6.539   7.615   0.805 -0.6055 -0.1785  0.5220
  238MOL0     C32033   6.435   7.536   0.721 -0.1120 -0.1998  0.3053
  238MOL0     C32034   6.354   7.647   0.639  0.4849 -0.3975  0.6296
  238MOL0     C32035   6.269   7.590   0.527 -0.2207  0.1329  0.1093
  238MOL0     C32036   6.238   7.689   0.415 -0.1348  0.1710 -0.4299
  238MOL0     C32037   6.181   7.635   0.281  0.5462  0.9654 -0.0274
  238MOL0     C32038   6.035   7.588   0.290 -0.6482  0.0835 -1.0601
  238MOL0     C32039   5.973   7.549   0.156  0.0650  0.2338  0.4711
  238MOL0    Cl32040   6.026   7.375   0.121 -0.2751 -0.6026 -0.0734
  238MOL0     C32041   6.889   7.550   0.778  0.2836  0.2031 -0.7509
  238MOL0     C32042   6.992   7.544   0.875 -0.3479  0.5262  0.6742
  238MOL0     O32043   7.042   7.727   1.249 -0.2730 -0.2318  0.1881
  238MOL0     C32044   7.353   7.579   1.168  0.5348  0.9192  0.1136
  238MOL0     C32045   7.484   7.570   1.214  0.4737  0.0963 -0.8739
  238MOL0     N32046   8.152   7.389   1.672  0.1257  0.5482 -0.2470
  238MOL0     N32047   8.175   7.382   1.798 -0.5557  1.2152  0.8225
  238MOL0     C32048   8.750   7.747   2.648  1.1080 -0.5959 -1.0744
  238MOL0     C32049   8.888   7.755   2.676  0.0626 -0.4513 -0.2775
  238MOL0     C32050   9.270   7.956   2.809  0.1206  0.6578  0.2831
  238MOL0     C32051   9.317   8.062   2.899  0.4578  0.7729  0.2675
  238MOL0     C32052   9.448   8.095   2.909 -1.3408  0.6787  0.4407
  238MOL0     C32053   9.545   8.020   2.835 -0.9975 -0.0211 -0.1632
  238MOL0     O32054   9.682   8.043   2.836 -0.4083 -0.1655  0.4624
  238MOL0     C32055   9.721   8.174   2.867  1.0498 -0.4681 -0.3202
  238MOL0     C32056   9.867   8.205   2.838 -0.2143  0.8649  0.2887
  238MOL0     C32057   9.953   8.094   2.898 -0.4187 -0.0799 -0.5099
  238MOL0     C32058  10.105   8.117   2.867  0.2878  0.4556  0.5245
  238MOL0     C32059  10.189   8.010   2.918  0.1870  0.8282 -0.4524
  238MOL0     C32060  10.275   7.927   2.957 -0.3120  0.0179  0.2769
  238MOL0     C32061   9.502   7.928   2.741 -0.3473 -0.2438  0.3666
  238MOL0     C32062   9.373   7.892   2.737 -0.4638  0.8943  1.0967
  238MOL0     H32063   8.942   8.075   2.559 -1.0666  0.3163 -1.7590
  238MOL0     H32064   8.699   8.059   2.542  0.6121  0.3970 -0.4893
  238MOL0     H32065   8.492   7.692   2.660  0.8684 -0.9924 -3.2423
  238MOL0     H32066   8.471   7.859   2.738  4.3573  0.3389 -0.4969
  238MOL0     H32067   8.267   7.713   2.665 -3.7234 -0.4822 -3.1140
  238MOL0     H32068   8.259   7.869   2.590 -3.5445 -1.8289  1.5395
  238MOL0     H32069   8.355   7.771   2.379 -0.2668  0.3944  0.0494
  238MOL0     H32070   8.383   7.629   2.454  0.3320  0.2116 -1.3021
  238MOL0     H32071   8.142   7.593   2.514  1.1475 -2.6303 -2.0465
  238MOL0     H32072   8.089   7.745   2.431 -0.2042  0.2026 -1.1399
  238MOL0     H32073   8.230   7.499   2.318 -0.6383  0.0370  2.1141
  238MOL0     H32074   8.066   7.531   2.288  0.5840 -2.3498  2.0531
  238MOL0     H32075   8.146   7.777   2.215 -0.0478  0.2876  0.2097
  238MOL0     H32076   8.295   7.700   2.171  0.3276  0.1501  3.0232
  238MOL0     H32077   8.034   7.597   2.078 -0.2690  2.2757  0.6002
  238MOL0     H32078   8.102   7.737   2.001 -0.8455 -1.2735 -2.1816
  238MOL0     H32079   8.226   7.466   2.044  4.3053  1.0694  0.1813
  238MOL0     H32080   8.310   7.592   1.956 -0.7807 -0.8795  0.4301
  238MOL0     H32081   8.107   7.698   1.756  1.3456  1.1795 -1.4739
  238MOL0     H32082   8.137   7.649   1.476 -1.1934  1.6870  0.1857
  238MOL0     H32083   8.079   7.485   1.427  0.9093  1.6574 -1.3436
  238MOL0     H32084   7.894   7.615   1.606 -2.4482 -0.3658 -0.8018
  238MOL0     H32085   7.882   7.496   1.482  1.4926 -1.5101  0.7361
  238MOL0     H32086   7.927   7.698   1.312  1.5617  1.2031  0.2681
  238MOL0     H32087   7.948   7.809   1.440 -3.3197  3.5774 -3.8197
  238MOL0     H32088   7.743   7.847   1.355 -0.5814  1.4653  3.4686
  238MOL0     H32089   7.712   7.745   1.506  2.1885 -3.0329  1.0040
  238MOL0     H32090   7.512   7.845   1.405  0.5624  0.3576 -0.2607
  238MOL0     H32091   7.158   7.865   1.417  0.3308  1.8801  4.6163
  238MOL0     H32092   7.315   7.915   1.471 -0.6884 -0.8095  0.4169
  238MOL0     H32093   7.258   7.991   1.332 -2.0821 -0.0266 -0.4188
  238MOL0     H32094   6.869   7.778   1.080  0.0904  0.8041 -0.4723
  238MOL0     H32095   6.703   7.797   0.919 -2.1831 -2.9523 -0.7149
  238MOL0     H32096   6.555   7.554   0.894  3.5768  0.9372  0.7361
  238MOL0     H32097   6.495   7.706   0.846  0.4981  0.6156 -0.0201
  238MOL0     H32098   6.481   7.453   0.667  1.7304  0.3034  1.0166
  238MOL0     H32099   6.361   7.491   0.788 -0.7564  0.5395  0.1084
  238MOL0     H32100   6.421   7.722   0.595 -1.2792  0.7857 -0.1766
  238MOL0     H32101   6.293   7.702   0.711  0.3657  1.5660 -0.8666
  238MOL0     H32102   6.327   7.507   0.484  0.6313  1.0241 -0.4964
  238MOL0     H32103   6.181   7.539   0.567 -3.1543  2.7630 -2.4770
  238MOL0     H32104   6.337   7.725   0.385  1.2038  0.0727  3.3501
  238MOL0     H32105   6.190   7.779   0.454  2.2703  1.0949  0.5617
  238MOL0     H32106   6.182   7.723   0.217  1.2010  1.2749  0.4024
  238MOL0     H32107   6.247   7.552   0.254 -3.0202 -3.5739  3.4466
  238MOL0     H32108   5.978   7.679   0.310  2.4805  2.5270 -2.2674
  238MOL0     H32109   6.014   7.504   0.357 -0.6703  1.2269  0.3959
  238MOL0     H32110   6.015   7.609   0.074  0.3767  1.1738  1.2882
  238MOL0     H32111   5.864   7.560   0.162 -0.2379 -0.9833 -1.6985
  238MOL0     H32112   6.867   7.498   0.686 -2.3546  0.2199 -0.2038
  238MOL0     H32113   7.078   7.480   0.856 -1.4699 -0.7337 -0.3260
  238MOL0     H32114   7.309   7.499   1.109 -0.8494  1.5103  0.2931
  238MOL0     H32115   7.553   7.488   1.196  1.6587  0.4043  1.8000
  238MOL0     H32116   8.713   7.645   2.656 -0.9636  0.1673 -0.3586
  238MOL0     H32117   8.955   7.673   2.698  0.9209  0.3483  0.1875
  238MOL0     H32118   9.252   8.109   2.972  2.7667  1.9905  1.6572
  238MOL0     H32119   9.464   8.169   2.986 -3.1483 -0.1215  1.6540
  238MOL0     H32120   9.664   8.236   2.797  2.1166  0.6924 -0.1878
  238MOL0     H32121   9.708   8.195   2.973 -0.3127  0.2122 -0.6054
  238MOL0     H32122   9.898   8.291   2.899 -1.2315  1.2219  0.3111
  238MOL0     H32123   9.892   8.229   2.735  1.2372 -1.0527  0.1310
  238MOL0     H32124   9.912   8.002   2.855  1.3262 -0.0553 -2.3722
  238MOL0     H32125   9.947   8.087   3.007 -0.2064 -0.9578 -0.5479
  238MOL0     H32126  10.150   8.208   2.906 -0.1514  1.8072 -1.9346
  238MOL0     H32127  10.124   8.113   2.759 -3.6592 -0.2734 -0.3316
  238MOL0     H32128  10.347   7.857   2.996 -2.0661 -1.1762  1.5149
  238MOL0     H32129   9.571   7.879   2.672  1.9816  1.4458  1.3439
  238MOL0     H32130   9.340   7.810   2.673 -1.0352  1.0376  1.1953
  239MOL0     O32131   0.926   4.231   1.390 -0.0767  0.3188 -0.5318
  239MOL0     C32132   1.013   4.152   1.433  0.3234  0.0566 -0.0903
  239MOL0     O32133   0.992   4.070   1.539  0.1702 -0.0116 -0.0961
  239MOL0     C32134   0.869   4.037   1.584 -0.4164 -0.2172  0.6379
  239MOL0     C32135   0.853   4.011   1.726 -0.3959  0.2066  0.7583
  239MOL0     C32136   0.727   3.965   1.771  0.5391  0.0866  0.3352
  239MOL0     C32137   0.628   3.930   1.676 -0.4108 -0.2467  0.3025
  239MOL0     O32138   0.503   3.883   1.725 -0.3582 -0.7879 -0.0738
  239MOL0     C32139   0.460   3.888   1.861 -0.0549 -0.0514  0.8061
  239MOL0     C32140   0.311   3.881   1.858  0.6307 -0.0917 -0.5476
  239MOL0     C32141   0.250   4.021   1.844  0.4259  0.4314 -0.4155
  239MOL0     C32142   0.099   4.006   1.852 -0.3378 -0.0977 -0.2792
  239MOL0     C32143   0.016   4.135   1.860 -0.1562 -0.7326 -0.1383
  239MOL0     C32144  -0.135   4.109   1.867 -0.6442 -0.0114  0.4897
  239MOL0     C32145  -0.220   4.231   1.871 -0.2923  0.5925  0.4099
  239MOL0     C32146  -0.207   4.315   1.997  0.9249 -0.3021  0.4616
  239MOL0     N32147  -0.252   4.451   1.961 -0.8349  0.0358  0.7967
  239MOL0     C32148  -0.382   4.499   1.969  0.1314 -0.2130  0.2744
  239MOL0     C32149  -0.371   4.625   1.906  0.0710 -0.3680  0.3271
  239MOL0     C32150  -0.475   4.719   1.867  0.2230 -0.8936 -0.0360
  239MOL0     C32151  -0.606   4.687   1.937  0.3250 -0.2070 -0.3289
  239MOL0     C32152  -0.730   4.767   1.889  0.0617  0.1582  0.0683
  239MOL0     C32153  -0.747   4.899   1.975 -0.5028  0.2724  0.7431
  239MOL0     O32154  -0.803   4.863   2.101 -0.9730  1.2217 -0.3468
  239MOL0     C32155  -0.936   4.840   2.133 -0.2610 -1.3444 -0.2731
  239MOL0     C32156  -0.966   4.801   2.263  0.2546  0.0558 -0.4781
  239MOL0     C32157  -1.098   4.761   2.293  0.4840 -0.6177  0.2902
  239MOL0     C32158  -1.133   4.713   2.427  0.3520  0.5558 -0.4080
  239MOL0     C32159  -1.208   4.775   2.196  0.1511  0.1299  0.3983
  239MOL0     C32160  -1.345   4.738   2.215  0.2039  0.4979 -0.0633
  239MOL0     O32161  -1.367   4.632   2.292  0.8479  0.1518  0.2122
  239MOL0     C32162  -1.491   4.611   2.338 -0.1262 -0.0284 -0.4265
  239MOL0     C32163  -1.572   4.700   2.410 -1.1043  0.6857  0.1382
  239MOL0     C32164  -1.692   4.665   2.463  1.1215  0.0771  0.2624
  239MOL0     C32165  -1.736   4.532   2.446 -0.3928 -0.4003 -0.3941
  239MOL0     O32166  -1.860   4.510   2.494 -0.9628  0.1134 -0.3773
  239MOL0     C32167  -1.959   4.527   2.395 -0.7509  0.6564 -0.1459
  239MOL0     C32168  -2.095   4.511   2.460  0.2950  0.9564  0.4390
  239MOL0     C32169  -2.211   4.599   2.404  0.3517 -0.5586  0.4132
  239MOL0     C32170  -2.278   4.540   2.285  0.2641 -0.0455 -0.4107
  239MOL0     C32171  -2.425   4.505   2.304 -0.1921  0.0121  0.0849
  239MOL0     C32172  -2.493   4.428   2.189 -0.4003  0.7030  0.3448
  239MOL0     C32173  -2.472   4.475   2.050 -0.3965 -0.1312  0.4420
  239MOL0     C32174  -2.506   4.631   2.028 -0.4952 -0.3272  0.0294
  239MOL0    Cl32175  -2.436   4.683   1.873 -0.0289 -0.5749  0.3582
  239MOL0     C32176  -1.650   4.435   2.386  0.4254 -0.2252 -0.3554
  239MOL0     C32177  -1.531   4.479   2.324  1.1408  0.0185  0.0590
  239MOL0     O32178  -1.436   4.805   2.166  0.3650 -0.6263 -0.2513
  239MOL0     C32179  -1.168   4.833   2.075  0.0306 -0.0283 -0.9616
  239MOL0     C32180  -1.030   4.862   2.045  1.0471 -0.1600 -0.9413
  239MOL0     N32181  -0.237   4.654   1.886  0.5016  0.0472 -0.1298
  239MOL0     N32182  -0.171   4.544   1.903 -0.9900 -0.5376 -0.2751
  239MOL0     C32183   0.646   3.959   1.541 -0.4429 -0.5091  0.3020
  239MOL0     C32184   0.768   4.006   1.496  0.1307  0.4008  0.3261
  239MOL0     C32185   1.148   4.167   1.382  0.3018  0.0417  0.3635
  239MOL0     C32186   1.179   4.200   1.248 -0.2556  0.1611 -0.0038
  239MOL0     C32187   1.306   4.186   1.200  0.3403  0.4069 -0.0846
  239MOL0     C32188   1.413   4.135   1.286 -0.0428  1.1570  0.0539
  239MOL0     O32189   1.545   4.128   1.246  0.1211 -0.0388  0.1139
  239MOL0     C32190   1.615   4.248   1.208 -0.1458 -0.8753 -0.1350
  239MOL0     C32191   1.758   4.225   1.170 -0.3425  0.1216  0.1391
  239MOL0     C32192   1.835   4.353   1.132  0.8174  0.1672  0.2797
  239MOL0     C32193   1.979   4.329   1.093  0.1635  0.0179 -0.1654
  239MOL0     C32194   2.042   4.458   1.078 -0.0500 -0.3459  0.6274
  239MOL0     C32195   2.101   4.565   1.077  0.0794  0.0264  0.6134
  239MOL0     C32196   1.381   4.113   1.416 -0.1686 -0.7524 -0.8829
  239MOL0     C32197   1.249   4.125   1.458  0.1388 -0.4534  0.0713
  239MOL0     H32198   0.940   4.027   1.789  1.8885  3.2070 -2.8027
  239MOL0     H32199   0.734   3.942   1.877  2.8795  0.0728  0.2249
  239MOL0     H32200   0.501   3.796   1.903  4.4445  1.1321 -0.4996
  239MOL0     H32201   0.500   3.972   1.917  2.4184 -1.7120  1.7006
  239MOL0     H32202   0.298   3.819   1.769  3.1978 -0.1465 -0.9612
  239MOL0     H32203   0.275   3.836   1.951  0.0946  1.2382 -0.0854
  239MOL0     H32204   0.271   4.085   1.930 -0.6207  1.3161 -0.7930
  239MOL0     H32205   0.285   4.078   1.757  2.4832  0.9316  0.6825
  239MOL0     H32206   0.063   3.975   1.753 -1.0714  1.7722 -0.6447
  239MOL0     H32207   0.077   3.929   1.926  0.9023 -0.1663  0.0403
  239MOL0     H32208   0.047   4.180   1.955 -1.3181  0.2963 -0.2302
  239MOL0     H32209   0.039   4.211   1.786 -0.2628  1.1367  1.6616
  239MOL0     H32210  -0.158   4.049   1.779  1.5551  0.4508 -0.4640
  239MOL0     H32211  -0.150   4.050   1.958  0.1493  0.3774  0.8833
  239MOL0     H32212  -0.180   4.285   1.785  2.9462 -5.4287 -2.5099
  239MOL0     H32213  -0.325   4.201   1.866  0.2161 -2.1648  2.9409
  239MOL0     H32214  -0.107   4.319   2.041  0.9806 -2.0992  0.5982
  239MOL0     H32215  -0.267   4.273   2.078 -2.6991 -1.1530 -2.3686
  239MOL0     H32216  -0.462   4.446   2.019 -0.3902 -1.3229 -1.6287
  239MOL0     H32217  -0.434   4.817   1.894 -1.2334 -0.8866  2.4771
  239MOL0     H32218  -0.494   4.714   1.760 -0.5639 -1.1290  0.1103
  239MOL0     H32219  -0.592   4.698   2.045  2.1670 -1.6634 -0.3706
  239MOL0     H32220  -0.632   4.581   1.928  0.3047 -0.3149  0.7636
  239MOL0     H32221  -0.819   4.704   1.887 -0.4238  0.8160  0.5284
  239MOL0     H32222  -0.717   4.801   1.786 -0.8682  1.4514  0.3395
  239MOL0     H32223  -0.795   4.982   1.923  1.5596  0.6526 -0.6429
  239MOL0     H32224  -0.650   4.941   2.002 -0.6860  0.7320  0.6992
  239MOL0     H32225  -0.882   4.782   2.329 -0.5176 -1.4566  0.1232
  239MOL0     H32226  -1.225   4.761   2.463 -0.9037 -1.7106 -0.4009
  239MOL0     H32227  -1.157   4.608   2.409  0.8471  0.8505 -3.2787
  239MOL0     H32228  -1.051   4.735   2.495  1.2127  0.2917 -1.3382
  239MOL0     H32229  -1.528   4.798   2.428  0.9103 -0.4933  2.3795
  239MOL0     H32230  -1.761   4.734   2.510 -0.1754  0.3173 -1.8396
  239MOL0     H32231  -1.937   4.623   2.347  0.4042  0.0087 -0.9591
  239MOL0     H32232  -1.946   4.451   2.317  2.4832  1.1922 -0.3064
  239MOL0     H32233  -2.134   4.408   2.456  0.7741  0.7109  1.5715
  239MOL0     H32234  -2.079   4.531   2.566  0.1481 -1.1889  0.9124
  239MOL0     H32235  -2.188   4.703   2.377 -2.8221  0.7402  2.1815
  239MOL0     H32236  -2.287   4.610   2.482 -0.3236  0.0829 -0.3168
  239MOL0     H32237  -2.285   4.612   2.203  1.0902 -1.9995 -2.3096
  239MOL0     H32238  -2.222   4.454   2.246  1.2373 -0.4668  1.7768
  239MOL0     H32239  -2.481   4.596   2.327  2.4491  1.7297  0.1343
  239MOL0     H32240  -2.437   4.433   2.386 -1.8233 -1.7414 -1.5973
  239MOL0     H32241  -2.451   4.327   2.188  2.1843  1.6957  0.4355
  239MOL0     H32242  -2.599   4.416   2.212 -0.0216  2.2591  3.3368
  239MOL0     H32243  -2.547   4.422   1.990 -0.7191 -0.7960  1.4123
  239MOL0     H32244  -2.368   4.458   2.020  0.5435  3.7350  0.9735
  239MOL0     H32245  -2.456   4.685   2.109  0.2939 -2.6924  1.2033
  239MOL0     H32246  -2.610   4.665   2.027  0.4419  3.0217 -2.2050
  239MOL0     H32247  -1.686   4.333   2.380 -1.2795  0.2167  1.4839
  239MOL0     H32248  -1.459   4.411   2.281  0.6526  0.2717 -1.1965
  239MOL0     H32249  -1.236   4.845   1.991  0.0537 -3.8691 -1.6834
  239MOL0     H32250  -1.010   4.907   1.949 -0.6937 -1.3201 -1.9119
  239MOL0     H32251   0.572   3.928   1.468  0.3084 -0.2325 -0.5918
  239MOL0     H32252   0.783   4.014   1.389 -0.4856  1.9340  0.3382
  239MOL0     H32253   1.100   4.227   1.179 -0.8300 -1.1128  0.1299
  239MOL0     H32254   1.328   4.215   1.097 -2.1385  1.9207 -0.2653
  239MOL0     H32255   1.564   4.301   1.126 -0.1886 -2.0970 -0.9261
  239MOL0     H32256   1.604   4.312   1.296  1.6269  1.7363 -1.6561
  239MOL0     H32257   1.751   4.157   1.084 -0.5233  0.2920  0.0192
  239MOL0     H32258   1.810   4.179   1.254 -0.7400  1.1647  0.9699
  239MOL0     H32259   1.823   4.425   1.213 -1.8398 -0.8049  0.8329
  239MOL0     H32260   1.780   4.392   1.047  0.2007  0.3150  0.7449
  239MOL0     H32261   1.984   4.275   0.998 -1.0617 -2.3485  1.0247
  239MOL0     H32262   2.025   4.265   1.169  1.8695 -0.3662 -1.4543
  239MOL0     H32263   2.145   4.662   1.083 -0.0297  0.3399 -2.4006
  239MOL0     H32264   1.458   4.085   1.488 -0.1481  0.4389 -0.4271
  239MOL0     H32265   1.233   4.089   1.559  0.0855 -1.8165 -0.4072
  240MOL0     O32266   6.502   4.914  10.372  0.3598  0.3774 -0.1267
  240MOL0     C32267   6.575   4.849  10.449  0.3347 -0.0120  1.1490
  240MOL0     O32268   6.531   4.760  10.540  0.3285 -0.0211  1.1199
  240MOL0     C32269   6.395   4.748  10.551  0.2955  0.3098  0.2111
  240MOL0     C32270   6.317   4.796  10.657 -0.1028  0.5081  0.6480
  240MOL0     C32271   6.175   4.790  10.647  1.3640  0.2098 -0.2065
  240MOL0     C32272   6.105   4.737  10.537  1.2123 -0.0513  0.5688
  240MOL0     O32273   5.971   4.744  10.524  0.9250  0.6532 -0.2150
  240MOL0     C32274   5.905   4.710  10.402  0.0214  0.1356  0.1335
  240MOL0     C32275   5.756   4.697  10.416 -0.4122 -0.2591 -0.0931
  240MOL0     C32276   5.691   4.833  10.451  0.7863 -0.3762 -0.5778
  240MOL0     C32277   5.562   4.867  10.373 -0.5186 -0.0977 -0.9421
  240MOL0     C32278   5.455   4.772  10.414  0.2687  0.2430 -0.6380
  240MOL0     C32279   5.362   4.773  10.296 -0.0127  0.3600  0.2667
  240MOL0     C32280   5.240   4.685  10.332 -0.6250  0.1992 -0.4364
  240MOL0     C32281   5.138   4.702  10.216 -0.9938  0.5957  0.1903
  240MOL0     N32282   5.182   4.666  10.082 -0.2795 -0.1723  0.4565
  240MOL0     C32283   5.234   4.544  10.043  0.3834  0.7965 -0.7331
  240MOL0     C32284   5.256   4.551   9.908  1.1380 -0.7928 -0.3007
  240MOL0     C32285   5.302   4.437   9.817 -0.0726  0.0796  1.6041
  240MOL0     C32286   5.367   4.491   9.686  1.3725 -0.3765 -0.3627
  240MOL0     C32287   5.456   4.391   9.613  0.4902 -0.6122  0.4559
  240MOL0     C32288   5.384   4.267   9.553  0.3183  1.2487  0.4176
  240MOL0     O32289   5.288   4.316   9.462  0.1030 -0.9999 -0.1126
  240MOL0     C32290   5.204   4.229   9.408 -0.3653 -0.1318  0.4808
  240MOL0     C32291   5.220   4.088   9.412  0.5665 -0.9208  0.4605
  240MOL0     C32292   5.123   3.992   9.362 -0.1284 -0.7300 -0.4956
  240MOL0     C32293   5.162   3.845   9.396 -0.4016  0.8550 -0.0466
  240MOL0     C32294   5.004   4.048   9.305  0.2605 -0.6942  0.4584
  240MOL0     C32295   4.879   3.973   9.274  0.9645 -0.3162 -0.4741
  240MOL0     O32296   4.803   4.022   9.176  0.3210 -0.7060  0.2023
  240MOL0     C32297   4.687   3.970   9.135 -1.1444 -1.0738  0.0969
  240MOL0     C32298   4.587   3.911   9.208  0.2601 -0.4674  1.0723
  240MOL0     C32299   4.460   3.882   9.154  0.0434  0.7289 -0.0971
  240MOL0     C32300   4.431   3.924   9.027 -0.6660 -0.1707  0.7429
  240MOL0     O32301   4.314   3.898   8.958  0.0924 -0.4410  0.1532
  240MOL0     C32302   4.195   3.863   9.038  0.4955  0.3965 -0.5406
  240MOL0     C32303   4.146   3.716   9.013  0.7938  0.1422 -0.2114
  240MOL0     C32304   4.185   3.618   9.127  0.4273  0.7301 -0.7131
  240MOL0     C32305   4.105   3.485   9.110  0.0391 -0.0589 -0.0605
  240MOL0     C32306   4.151   3.398   9.000 -0.5318  0.1981  0.3436
  240MOL0     C32307   4.065   3.274   8.993  0.3202 -0.1163  0.7649
  240MOL0     C32308   4.118   3.176   8.898  0.1832 -0.1831  0.8725
  240MOL0     C32309   4.210   3.071   8.950 -1.0312 -0.1329 -0.0775
  240MOL0    Cl32310   4.144   2.958   9.086 -0.2328  0.4021 -0.1887
  240MOL0     C32311   4.532   3.981   8.952  0.2525  0.0615  0.4909
  240MOL0     C32312   4.657   4.009   9.008 -0.3065  1.1182  0.3876
  240MOL0     O32313   4.863   3.867   9.337 -0.1676  0.5929 -0.5913
  240MOL0     C32314   5.001   4.195   9.275 -0.1305  0.3005 -0.2268
  240MOL0     C32315   5.096   4.281   9.338  0.3541  0.8171  0.7589
  240MOL0     N32316   5.229   4.680   9.874 -0.7562  0.0914  0.6471
  240MOL0     N32317   5.186   4.748   9.972 -0.3198  0.7199 -0.5308
  240MOL0     C32318   6.182   4.694  10.429 -0.5950  0.2464 -0.2527
  240MOL0     C32319   6.321   4.696  10.439 -0.8369 -0.0401 -0.1953
  240MOL0     C32320   6.724   4.852  10.432  0.8895 -0.1753  0.1072
  240MOL0     C32321   6.775   4.944  10.335 -0.2559  0.1977 -0.7147
  240MOL0     C32322   6.914   4.939  10.309  0.1018 -0.2763  0.0570
  240MOL0     C32323   7.004   4.865  10.385  0.2376 -0.6840  0.1036
  240MOL0     O32324   7.138   4.839  10.358  0.5308 -0.4799  0.1479
  240MOL0     C32325   7.209   4.939  10.295 -0.4810 -0.3905  0.2202
  240MOL0     C32326   7.351   4.897  10.302 -0.5442  0.7458 -0.0981
  240MOL0     C32327   7.443   5.004  10.252  0.2693  0.2008  0.1524
  240MOL0     C32328   7.595   4.966  10.262  0.5216  0.0046 -0.0280
  240MOL0     C32329   7.669   5.076  10.188 -0.1368 -0.0013 -0.2792
  240MOL0     C32330   7.724   5.158  10.114  0.1878 -0.4168 -0.4317
  240MOL0     C32331   6.951   4.781  10.478 -1.7382 -0.1709  0.9637
  240MOL0     C32332   6.815   4.779  10.509 -0.1022  0.4245  0.5029
  240MOL0     H32333   6.376   4.836  10.739 -0.3377 -1.2098  1.7089
  240MOL0     H32334   6.114   4.823  10.730 -1.2017 -1.3426 -1.3795
  240MOL0     H32335   5.929   4.784  10.325  0.2318  0.1566  0.2181
  240MOL0     H32336   5.935   4.612  10.364 -1.0584 -0.2932  0.3399
  240MOL0     H32337   5.724   4.674  10.314 -1.3146  0.5532 -0.0099
  240MOL0     H32338   5.724   4.626  10.492  0.2402  2.3538  2.8627
  240MOL0     H32339   5.666   4.840  10.557 -2.9189 -2.5932 -1.1245
  240MOL0     H32340   5.762   4.911  10.423  1.1124 -1.7417 -4.0422
  240MOL0     H32341   5.539   4.973  10.391  0.5505  0.3243 -1.8791
  240MOL0     H32342   5.578   4.865  10.265  1.4939 -2.9717 -0.6988
  240MOL0     H32343   5.489   4.669  10.426 -1.1356 -0.0618  1.1763
  240MOL0     H32344   5.406   4.810  10.504  1.6853  3.1071 -0.9555
  240MOL0     H32345   5.336   4.874  10.264  2.2221  0.5121 -1.2521
  240MOL0     H32346   5.411   4.728  10.209  0.3839 -2.5436  1.8517
  240MOL0     H32347   5.269   4.580  10.334 -1.5155 -0.0676  2.0112
  240MOL0     H32348   5.200   4.720  10.427  1.9448 -0.3291  0.9350
  240MOL0     H32349   5.109   4.807  10.208  3.3186  1.9499  0.0243
  240MOL0     H32350   5.050   4.639  10.233  0.5605 -1.7582  0.0518
  240MOL0     H32351   5.257   4.464  10.111  1.0933  1.2069 -0.4803
  240MOL0     H32352   5.377   4.369   9.856  0.7728  1.0713  1.7387
  240MOL0     H32353   5.214   4.375   9.799 -0.8012  0.8785  2.2979
  240MOL0     H32354   5.428   4.577   9.716 -2.2326  2.1581  0.3873
  240MOL0     H32355   5.289   4.537   9.624  0.9261  2.4216  2.0517
  240MOL0     H32356   5.535   4.357   9.681  2.3439  0.1085 -1.2285
  240MOL0     H32357   5.505   4.437   9.526 -2.1501  1.9941  0.1973
  240MOL0     H32358   5.346   4.199   9.630  0.4418 -1.8388 -2.0194
  240MOL0     H32359   5.454   4.214   9.488  1.3883  1.0743  1.6626
  240MOL0     H32360   5.309   4.044   9.456 -0.4018 -1.0491  2.4394
  240MOL0     H32361   5.254   3.829   9.453 -0.4636  0.5048 -0.0426
  240MOL0     H32362   5.089   3.804   9.467 -0.4603 -0.1968 -0.7049
  240MOL0     H32363   5.159   3.778   9.310 -3.6811 -0.3893  0.8676
  240MOL0     H32364   4.618   3.873   9.305 -0.5827 -0.2604  1.4314
  240MOL0     H32365   4.398   3.811   9.207  0.7554  1.1462  1.3425
  240MOL0     H32366   4.207   3.881   9.145  0.3152 -3.3695  0.2594
  240MOL0     H32367   4.124   3.942   9.012  1.0354  0.5884 -1.4826
  240MOL0     H32368   4.038   3.718   8.998  0.8283 -0.6272 -0.6360
  240MOL0     H32369   4.176   3.678   8.915  1.9132 -0.6328  0.4125
  240MOL0     H32370   4.156   3.673   9.217  0.1304  0.9657 -0.9505
  240MOL0     H32371   4.292   3.597   9.115  0.3107  0.2233 -0.8888
  240MOL0     H32372   4.115   3.433   9.206 -1.0103 -0.0290  0.0729
  240MOL0     H32373   3.997   3.504   9.111  0.3224  2.0452 -1.7006
  240MOL0     H32374   4.253   3.370   9.026  0.3233  1.3086 -1.6136
  240MOL0     H32375   4.155   3.450   8.904  0.0965  0.2731  0.4086
  240MOL0     H32376   4.047   3.217   9.085 -1.0314  1.1268  1.3205
  240MOL0     H32377   3.964   3.296   8.957 -0.2540 -1.6450  1.3605
  240MOL0     H32378   4.155   3.233   8.812 -0.6976 -1.3209 -0.2950
  240MOL0     H32379   4.034   3.123   8.852  0.9049 -0.6624  0.0783
  240MOL0     H32380   4.305   3.120   8.974 -1.2509  1.2141 -1.6874
  240MOL0     H32381   4.239   3.015   8.860  0.1386 -0.2253  0.3390
  240MOL0     H32382   4.501   3.990   8.849 -0.4529 -3.2882  0.3124
  240MOL0     H32383   4.730   4.049   8.938 -0.2250  0.7410  0.2543
  240MOL0     H32384   4.916   4.243   9.228 -0.8941 -0.9634 -0.1628
  240MOL0     H32385   5.095   4.388   9.324  1.6150  0.5459 -2.1631
  240MOL0     H32386   6.142   4.654  10.336 -1.3327  1.0978 -0.3120
  240MOL0     H32387   6.366   4.664  10.345  0.8787  0.6389  0.3618
  240MOL0     H32388   6.704   5.008  10.285 -2.6934  0.3210  2.5547
  240MOL0     H32389   6.954   4.998  10.226  1.9244  1.4344  2.0434
  240MOL0     H32390   7.184   4.949  10.189  1.6798  2.8312 -0.1430
  240MOL0     H32391   7.197   5.033  10.350  0.0675  1.0957 -2.0502
  240MOL0     H32392   7.360   4.805  10.243  0.3826  1.0243 -0.4137
  240MOL0     H32393   7.377   4.867  10.404 -1.8737  4.1780  1.4134
  240MOL0     H32394   7.425   5.088  10.320  2.6696  1.0432 -0.1602
  240MOL0     H32395   7.414   5.031  10.150  4.0566  0.8569 -0.8941
  240MOL0     H32396   7.623   4.872  10.214 -0.2643  0.0637 -0.6214
  240MOL0     H32397   7.624   4.964  10.367 -1.8129 -1.2768  0.6419
  240MOL0     H32398   7.776   5.239  10.068 -0.7446 -0.1857 -1.0898
  240MOL0     H32399   7.022   4.710  10.520 -0.2706  1.8573  2.0899
  240MOL0     H32400   6.777   4.710  10.584 -1.8075  3.3783  2.5344
  241MOL0     O32401   3.663   9.898   5.099 -0.1394 -0.7226  0.4438
  241MOL0     C32402   3.656   9.850   4.987 -0.3901  0.2919  0.2713
  241MOL0     O32403   3.758   9.824   4.904 -0.6478  0.1767  0.5027
  241MOL0     C32404   3.886   9.851   4.942 -0.1499 -0.1362  0.5185
  241MOL0     C32405   3.968   9.945   4.879 -0.4959  0.6073  0.5117
  241MOL0     C32406   4.109   9.945   4.916 -0.8648  0.7639  0.6982
  241MOL0     C32407   4.158   9.861   5.024  0.7977  0.6656 -0.2083
  241MOL0     O32408   4.288   9.859   5.058 -0.0523  0.3480 -0.7898
  241MOL0     C32409   4.391   9.917   4.973 -0.4409 -0.9421 -0.3385
  241MOL0     C32410   4.528   9.890   5.040  0.3937  0.3543  0.1599
  241MOL0     C32411   4.643   9.977   4.986 -0.2057 -0.1103 -0.4561
  241MOL0     C32412   4.674   9.923   4.844 -0.3970 -0.7237 -0.0208
  241MOL0     C32413   4.814   9.968   4.778 -0.6653 -0.5771 -0.8768
  241MOL0     C32414   4.948   9.946   4.861  0.3723 -0.2929 -0.3564
  241MOL0     C32415   5.070  10.008   4.785  0.5128  0.4361  0.6530
  241MOL0     C32416   5.183  10.050   4.868  0.5417 -0.6151 -0.4782
  241MOL0     N32417   5.296  10.118   4.810  0.6112  0.0708  0.0367
  241MOL0     C32418   5.409  10.052   4.779  0.4583 -0.0883  1.1218
  241MOL0     C32419   5.502  10.149   4.736  0.4288  0.0795  1.0055
  241MOL0     C32420   5.643  10.145   4.697  0.0072 -0.4014  0.1839
  241MOL0     C32421   5.661  10.169   4.550 -0.4404 -0.1904 -0.2516
  241MOL0     C32422   5.549  10.104   4.464 -0.8093 -1.0686  0.6843
  241MOL0     C32423   5.593  10.114   4.313 -0.0301 -0.4662  0.2387
  241MOL0     O32424   5.521  10.012   4.239 -0.0653 -0.1553 -0.1430
  241MOL0     C32425   5.393  10.037   4.192  0.1362  0.1417  0.1682
  241MOL0     C32426   5.343   9.927   4.125  0.6822 -0.0551  0.2543
  241MOL0     C32427   5.213   9.942   4.062 -0.5193 -0.4558  0.1813
  241MOL0     C32428   5.173   9.841   3.951 -0.1603 -0.5204  0.3413
  241MOL0     C32429   5.128  10.051   4.096 -0.5246 -0.0350 -0.1551
  241MOL0     C32430   4.989  10.056   4.036 -0.2114  0.6930 -0.1109
  241MOL0     O32431   4.909   9.942   4.058  0.4398  0.2533  0.3657
  241MOL0     C32432   4.783   9.936   4.013  1.0899  0.3748 -0.4542
  241MOL0     C32433   4.687  10.031   4.049  0.1739 -0.9936  0.0484
  241MOL0     C32434   4.554  10.014   4.002  0.5254 -0.2739 -0.3779
  241MOL0     C32435   4.519   9.919   3.916 -0.4637 -0.0238 -0.4121
  241MOL0     O32436   4.382   9.920   3.873  0.0416  0.9906 -0.2717
  241MOL0     C32437   4.335   9.800   3.808 -0.4004  0.0156  0.2171
  241MOL0     C32438   4.195   9.836   3.755  0.1629  0.4326  0.6232
  241MOL0     C32439   4.121   9.716   3.714  0.1133  1.4691  0.2178
  241MOL0     C32440   3.976   9.753   3.678 -0.0510  0.0626  0.2583
  241MOL0     C32441   3.918   9.657   3.570 -0.6756  0.5974 -0.8412
  241MOL0     C32442   3.807   9.721   3.492  1.0629  0.6431 -0.3459
  241MOL0     C32443   3.751   9.628   3.384 -0.3681 -1.0341  0.4146
  241MOL0     C32444   3.622   9.686   3.345  1.1522  0.3264 -0.4045
  241MOL0    Cl32445   3.499   9.691   3.471 -0.0697  0.2567  0.1117
  241MOL0     C32446   4.619   9.826   3.883 -0.4407  0.1556  0.4631
  241MOL0     C32447   4.754   9.837   3.926 -0.0805 -0.6142 -1.2556
  241MOL0     O32448   4.957  10.155   3.973 -0.6420  0.2544  0.3307
  241MOL0     C32449   5.171  10.159   4.170 -0.5597  0.0393 -0.4521
  241MOL0     C32450   5.305  10.148   4.215  0.4213 -0.6076  0.3553
  241MOL0     N32451   5.431  10.271   4.735  0.8936  0.1141 -0.4609
  241MOL0     N32452   5.316  10.253   4.790 -0.5326 -0.4392 -0.2956
  241MOL0     C32453   4.070   9.774   5.090 -0.4119 -0.2500  0.4215
  241MOL0     C32454   3.935   9.767   5.045 -0.4815  0.3342 -0.6128
  241MOL0     C32455   3.523   9.820   4.927 -0.7328 -0.2018 -0.1235
  241MOL0     C32456   3.510   9.782   4.794 -1.1143  0.0057 -0.0585
  241MOL0     C32457   3.380   9.774   4.740  0.9054 -0.4103 -0.1200
  241MOL0     C32458   3.262   9.795   4.818  0.3205  0.5936 -0.7601
  241MOL0     O32459   3.135   9.767   4.763 -0.0629 -0.0769 -0.7533
  241MOL0     C32460   3.121   9.809   4.631 -0.4751 -0.8179  0.7665
  241MOL0     C32461   2.983   9.883   4.615 -0.0390  1.5112  0.4629
  241MOL0     C32462   2.955   9.998   4.716 -0.0316  0.3191 -0.9855
  241MOL0     C32463   3.041  10.116   4.682  0.2181  0.2070  0.9783
  241MOL0     C32464   2.988  10.215   4.590  0.9253 -0.5968  0.0142
  241MOL0     C32465   2.958  10.301   4.507 -0.4675  0.8668  0.4821
  241MOL0     C32466   3.281   9.835   4.948 -0.0515  0.3318 -0.8866
  241MOL0     C32467   3.413   9.853   5.006 -0.1521 -0.1111  0.4927
  241MOL0     H32468   3.924  10.020   4.815 -0.8129 -1.0273 -1.2817
  241MOL0     H32469   4.185   9.999   4.861  2.7419 -4.6352 -0.4671
  241MOL0     H32470   4.385   9.861   4.879 -0.5468  2.1684 -2.3578
  241MOL0     H32471   4.368  10.022   4.953 -0.6470 -0.9937 -0.3817
  241MOL0     H32472   4.517   9.915   5.146 -0.8535  2.2137 -0.3577
  241MOL0     H32473   4.547   9.783   5.029 -1.2923  0.2611 -2.6741
  241MOL0     H32474   4.616  10.083   4.989  2.5517  0.7235 -1.6245
  241MOL0     H32475   4.730   9.971   5.052 -1.1124  2.0452  1.0397
  241MOL0     H32476   4.672   9.814   4.847 -1.4123 -0.8434 -2.5173
  241MOL0     H32477   4.598   9.961   4.775 -2.5293 -0.6095  2.2568
  241MOL0     H32478   4.823   9.913   4.684 -2.5693 -0.7070 -1.0174
  241MOL0     H32479   4.818  10.078   4.774  3.1493 -0.5929 -0.9436
  241MOL0     H32480   4.949   9.992   4.960  2.8998 -0.7193 -0.1018
  241MOL0     H32481   4.963   9.839   4.878 -1.1479 -0.5425 -0.4562
  241MOL0     H32482   5.102   9.936   4.709 -0.6099 -0.4360  0.9770
  241MOL0     H32483   5.048  10.100   4.731 -0.5291 -1.0077 -1.5006
  241MOL0     H32484   5.222   9.959   4.916  2.0768  0.1131 -0.2805
  241MOL0     H32485   5.140  10.118   4.942 -3.3729 -0.7655 -2.3496
  241MOL0     H32486   5.428   9.946   4.795  1.3819 -0.2720 -0.8278
  241MOL0     H32487   5.705  10.217   4.751  0.9952 -0.6550 -0.5916
  241MOL0     H32488   5.673  10.042   4.720 -1.3343 -0.9145 -0.2276
  241MOL0     H32489   5.758  10.130   4.515  0.7651 -0.2432  2.8470
  241MOL0     H32490   5.672  10.277   4.542  0.1523 -0.3093 -1.3392
  241MOL0     H32491   5.455  10.161   4.470 -0.2559 -0.1566  0.9405
  241MOL0     H32492   5.542  10.000   4.494  0.2875 -0.6394  2.5538
  241MOL0     H32493   5.703  10.113   4.312  0.1289  2.5853  2.1629
  241MOL0     H32494   5.573  10.213   4.272 -1.9489  1.2642  4.7114
  241MOL0     H32495   5.403   9.842   4.094 -0.0065 -1.1036  1.6799
  241MOL0     H32496   5.118   9.758   3.997  2.5039 -1.8898  1.2482
  241MOL0     H32497   5.111   9.891   3.876  1.1350  0.9946  0.2255
  241MOL0     H32498   5.258   9.798   3.898 -0.3542 -0.0029 -0.4049
  241MOL0     H32499   4.715  10.120   4.104  2.0743 -1.5459  0.0480
  241MOL0     H32500   4.472  10.082   4.023  0.1905 -0.6030 -0.6063
  241MOL0     H32501   4.401   9.786   3.722  1.8314  0.3411  1.7639
  241MOL0     H32502   4.335   9.720   3.882  0.7878  0.0445  0.2773
  241MOL0     H32503   4.146   9.877   3.843  1.3089 -1.2051  2.0946
  241MOL0     H32504   4.200   9.915   3.680 -1.1196 -0.1511 -0.1047
  241MOL0     H32505   4.117   9.647   3.799  1.3385  0.9859 -0.1078
  241MOL0     H32506   4.173   9.674   3.629  1.0918  1.8280  0.6252
  241MOL0     H32507   3.906   9.759   3.762 -1.0405  0.4399 -0.5657
  241MOL0     H32508   3.978   9.854   3.636  0.7384  0.0756  0.3077
  241MOL0     H32509   3.893   9.557   3.607 -0.9238  0.7625 -0.5663
  241MOL0     H32510   3.998   9.643   3.496  0.7859 -0.1240  0.7773
  241MOL0     H32511   3.726   9.728   3.565  1.9272 -1.4413  0.9216
  241MOL0     H32512   3.822   9.825   3.460 -2.6148  1.2717 -0.4354
  241MOL0     H32513   3.730   9.525   3.415  0.7348 -1.5079 -0.3858
  241MOL0     H32514   3.820   9.625   3.300 -1.0731 -0.5691 -0.1986
  241MOL0     H32515   3.574   9.627   3.266 -2.8734  0.9870  1.3164
  241MOL0     H32516   3.634   9.792   3.321  0.0369  0.3492 -0.9174
  241MOL0     H32517   4.584   9.749   3.816 -0.1129 -0.7618  1.3152
  241MOL0     H32518   4.830   9.772   3.883  1.9687  2.4280 -2.5204
  241MOL0     H32519   5.116  10.249   4.195 -1.0195  0.1209 -1.6610
  241MOL0     H32520   5.333  10.236   4.271  0.5026 -0.1365 -0.4133
  241MOL0     H32521   4.100   9.717   5.178  0.3622  0.6993  0.7884
  241MOL0     H32522   3.870   9.705   5.105  3.0283 -1.0843  2.0628
  241MOL0     H32523   3.598   9.761   4.733 -1.2461 -1.9801  0.3710
  241MOL0     H32524   3.365   9.746   4.636 -0.4361 -0.8099  0.1526
  241MOL0     H32525   3.195   9.883   4.600 -1.6863  0.8890  1.7430
  241MOL0     H32526   3.124   9.724   4.562 -3.6580 -0.1226 -0.3856
  241MOL0     H32527   2.905   9.807   4.626  1.3934 -0.0856 -0.0146
  241MOL0     H32528   2.976   9.918   4.512 -0.0425 -2.1970 -0.9299
  241MOL0     H32529   2.982   9.951   4.811 -1.2462  1.0854 -0.2272
  241MOL0     H32530   2.848  10.019   4.716 -0.3826 -0.3704  3.7994
  241MOL0     H32531   3.137  10.086   4.641 -0.0661  0.2249  0.2960
  241MOL0     H32532   3.061  10.165   4.778 -1.2912  0.4167  1.2187
  241MOL0     H32533   2.938  10.379   4.436 -0.1398  0.6627  0.1652
  241MOL0     H32534   3.196   9.855   5.013 -0.2002 -1.5234 -0.4484
  241MOL0     H32535   3.419   9.880   5.111 -0.4581  2.4759 -0.0782
  242MOL0     O32536   6.868   9.438   0.446 -0.1267  0.1485  0.1825
  242MOL0     C32537   6.920   9.346   0.519  0.2592  0.0267 -0.4936
  242MOL0     O32538   6.861   9.283   0.626  0.0525 -0.4521 -0.5733
  242MOL0     C32539   6.746   9.335   0.681  0.1892  0.7105  0.2548
  242MOL0     C32540   6.630   9.371   0.611  0.3891 -0.4484  0.3847
  242MOL0     C32541   6.517   9.426   0.674 -0.0650 -0.1827  0.5033
  242MOL0     C32542   6.513   9.434   0.809  0.6423 -0.3385  0.6787
  242MOL0     O32543   6.396   9.481   0.857 -0.0913  0.1920  0.5386
  242MOL0     C32544   6.399   9.592   0.953 -0.1345  0.7465 -0.2023
  242MOL0     C32545   6.354   9.706   0.858 -0.3429 -0.0641  0.7384
  242MOL0     C32546   6.368   9.842   0.925 -0.5271  0.4801 -0.3270
  242MOL0     C32547   6.331   9.954   0.825 -0.0273 -0.5856  0.4497
  242MOL0     C32548   6.346  10.103   0.874  0.2725  0.7263 -0.5270
  242MOL0     C32549   6.326  10.210   0.762 -0.1697  0.6996 -1.4652
  242MOL0     C32550   6.193  10.193   0.693 -0.1854  0.2939 -0.2120
  242MOL0     C32551   6.079  10.243   0.782 -0.6723  1.3509 -0.5848
  242MOL0     N32552   5.947  10.206   0.731  0.0285  0.6697 -0.1398
  242MOL0     C32553   5.911  10.085   0.683 -0.0677  0.0028 -0.4826
  242MOL0     C32554   5.774  10.084   0.685 -0.7270 -0.4387  0.2382
  242MOL0     C32555   5.698   9.959   0.680  0.0549  0.1598 -0.0185
  242MOL0     C32556   5.588   9.956   0.784  0.2051  0.3428 -0.0384
  242MOL0     C32557   5.547   9.810   0.819  0.6451 -0.4805 -0.1610
  242MOL0     C32558   5.493   9.744   0.698 -1.6181 -0.6485 -0.1117
  242MOL0     O32559   5.496   9.603   0.720  0.3833 -0.1244 -0.1820
  242MOL0     C32560   5.386   9.538   0.759  0.4911  0.3542  0.6497
  242MOL0     C32561   5.393   9.400   0.736 -0.3671 -0.4797  0.0849
  242MOL0     C32562   5.283   9.316   0.748  0.5880 -0.0865 -0.4725
  242MOL0     C32563   5.307   9.173   0.718  0.6921  0.4795  0.2148
  242MOL0     C32564   5.157   9.377   0.790 -0.6498  0.6830  0.7569
  242MOL0     C32565   5.033   9.300   0.801  0.2568 -0.8356 -0.8872
  242MOL0     O32566   5.025   9.202   0.725  1.1627 -0.2865  0.1946
  242MOL0     C32567   4.913   9.123   0.744  0.5383 -0.5844  1.1904
  242MOL0     C32568   4.798   9.154   0.674  0.3201 -0.6341  1.4186
  242MOL0     C32569   4.693   9.062   0.670  0.1168  1.3011 -0.9035
  242MOL0     C32570   4.704   8.934   0.733 -0.5220 -0.0687 -0.1313
  242MOL0     O32571   4.607   8.841   0.708 -0.1062  0.0392  0.7454
  242MOL0     C32572   4.551   8.775   0.815  0.1437 -0.4321  0.5526
  242MOL0     C32573   4.425   8.845   0.856 -0.1653 -0.2076  0.2646
  242MOL0     C32574   4.379   8.815   0.995  0.3271 -0.0229 -0.1302
  242MOL0     C32575   4.243   8.879   1.018  0.5492 -0.1294 -0.5502
  242MOL0     C32576   4.214   8.887   1.167  0.5778 -1.1177  1.3974
  242MOL0     C32577   4.073   8.931   1.205  0.1039  0.7479  0.1064
  242MOL0     C32578   4.051   8.981   1.346 -1.0199 -0.3768 -0.2094
  242MOL0     C32579   3.896   9.004   1.383  0.0704  0.0801 -0.6350
  242MOL0    Cl32580   3.799   8.852   1.415 -0.0023  0.6263  0.4247
  242MOL0     C32581   4.822   8.904   0.805 -0.0332  0.0161  0.0600
  242MOL0     C32582   4.925   8.999   0.810  0.4187 -0.2759 -0.0520
  242MOL0     O32583   4.947   9.337   0.882  0.0166 -0.3667  0.2755
  242MOL0     C32584   5.154   9.515   0.824 -0.1828 -0.4740  1.0061
  242MOL0     C32585   5.269   9.592   0.810  1.0046 -0.6981 -0.4877
  242MOL0     N32586   5.729  10.207   0.726  0.4361  0.6776  0.5975
  242MOL0     N32587   5.831  10.279   0.749 -0.4233  0.1224  0.1355
  242MOL0     C32588   6.626   9.393   0.881 -0.1603  0.0174  0.2099
  242MOL0     C32589   6.738   9.340   0.818  0.4054 -0.9733  0.7132
  242MOL0     C32590   7.052   9.301   0.487  0.4510  0.6344 -0.0149
  242MOL0     C32591   7.133   9.362   0.389 -0.2821  0.0656 -0.4430
  242MOL0     C32592   7.267   9.319   0.386  0.7898 -0.0177 -0.5100
  242MOL0     C32593   7.320   9.215   0.463 -0.1961  0.8392  0.5913
  242MOL0     O32594   7.440   9.161   0.423 -0.8705  0.0134 -0.0766
  242MOL0     C32595   7.533   9.150   0.530 -1.1656  0.6187  0.9753
  242MOL0     C32596   7.672   9.120   0.479 -0.8156 -0.2139  0.0128
  242MOL0     C32597   7.747   9.237   0.410  0.9010 -0.5311 -0.0125
  242MOL0     C32598   7.667   9.303   0.300  0.4540  0.4010  0.0398
  242MOL0     C32599   7.761   9.364   0.205 -0.8954 -0.4609 -0.2490
  242MOL0     C32600   7.846   9.409   0.127 -0.1559  0.4193 -0.3303
  242MOL0     C32601   7.236   9.148   0.547  0.4317 -0.6918  0.7293
  242MOL0     C32602   7.101   9.183   0.548 -0.1476  0.0599  0.9597
  242MOL0     H32603   6.622   9.374   0.502  0.2728  1.9313  0.3968
  242MOL0     H32604   6.440   9.467   0.609  0.1210 -0.1573  0.2984
  242MOL0     H32605   6.326   9.565   1.030  1.3986  0.5702  1.2638
  242MOL0     H32606   6.495   9.612   1.003  0.5534  0.0310 -1.1878
  242MOL0     H32607   6.413   9.703   0.767 -1.3294 -3.5982  0.0776
  242MOL0     H32608   6.250   9.683   0.832  0.1223 -2.5339  0.8902
  242MOL0     H32609   6.305   9.841   1.014 -3.8803 -0.6980 -2.5106
  242MOL0     H32610   6.474   9.856   0.950 -0.1287  0.3894 -1.8247
  242MOL0     H32611   6.392   9.934   0.736  1.3468 -4.4056  2.0056
  242MOL0     H32612   6.228   9.926   0.804  0.3476 -0.7115 -1.4468
  242MOL0     H32613   6.283  10.117   0.963  0.1094  0.5732 -0.6183
  242MOL0     H32614   6.447  10.124   0.911 -0.0148 -1.0143  1.4535
  242MOL0     H32615   6.335  10.315   0.791 -1.2033  0.2492  0.7128
  242MOL0     H32616   6.407  10.198   0.690  1.4100  3.2441 -0.2584
  242MOL0     H32617   6.191  10.242   0.596 -1.1682 -4.3607 -2.8224
  242MOL0     H32618   6.179  10.086   0.675 -1.8628  0.0232  2.1704
  242MOL0     H32619   6.071  10.352   0.789 -0.4778  1.2780  1.3959
  242MOL0     H32620   6.086  10.206   0.885 -2.4266 -0.0400 -0.9026
  242MOL0     H32621   5.973  10.000   0.656  0.9179  0.6617 -0.3419
  242MOL0     H32622   5.652   9.942   0.582  2.6611  0.4683 -1.3937
  242MOL0     H32623   5.768   9.879   0.704 -0.9667 -0.8171 -0.2354
  242MOL0     H32624   5.505  10.016   0.744 -0.8019  0.2461  1.7893
  242MOL0     H32625   5.621  10.009   0.874 -1.4208 -1.2479  1.5612
  242MOL0     H32626   5.467   9.814   0.894  0.4418  2.7402 -0.4076
  242MOL0     H32627   5.630   9.757   0.866  0.1278 -1.4316 -0.3051
  242MOL0     H32628   5.561   9.767   0.615 -0.2419  2.7479  1.7412
  242MOL0     H32629   5.395   9.789   0.682 -1.7054 -0.1824  1.6285
  242MOL0     H32630   5.487   9.361   0.700 -1.0304  0.4667 -2.9635
  242MOL0     H32631   5.404   9.145   0.676  0.3480 -1.8757  0.8387
  242MOL0     H32632   5.301   9.112   0.809  1.0461 -0.5770 -0.4580
  242MOL0     H32633   5.240   9.133   0.642  0.3622 -2.5101  1.9021
  242MOL0     H32634   4.774   9.252   0.635  2.0591 -0.3649  0.9519
  242MOL0     H32635   4.606   9.090   0.611 -1.5361 -3.7009 -1.2329
  242MOL0     H32636   4.511   8.683   0.772  0.8244 -0.1106 -0.7853
  242MOL0     H32637   4.623   8.776   0.897 -0.6381  0.3226  1.2623
  242MOL0     H32638   4.434   8.953   0.849 -1.9102 -0.0478  0.1301
  242MOL0     H32639   4.348   8.811   0.786 -1.3943 -1.9952  2.3355
  242MOL0     H32640   4.454   8.845   1.068  1.0656  1.1849 -1.3351
  242MOL0     H32641   4.366   8.708   1.013  0.4684  0.1598  1.1299
  242MOL0     H32642   4.236   8.979   0.975 -1.2231 -1.5540 -3.9564
  242MOL0     H32643   4.164   8.827   0.964  1.5805  1.0991 -3.4377
  242MOL0     H32644   4.289   8.959   1.203  0.5009  0.2616 -0.9749
  242MOL0     H32645   4.234   8.790   1.212  2.6787 -0.8392  1.1944
  242MOL0     H32646   4.038   9.010   1.138 -0.0684  0.5990  0.0189
  242MOL0     H32647   3.999   8.850   1.198  0.0518  0.4602  2.9002
  242MOL0     H32648   4.115   9.070   1.354 -0.9235 -0.3414 -1.3006
  242MOL0     H32649   4.092   8.907   1.416 -0.0318  1.3246  1.0951
  242MOL0     H32650   3.853   9.045   1.291 -2.1746 -0.9414 -0.1030
  242MOL0     H32651   3.891   9.081   1.460  0.1919 -1.1423  0.6285
  242MOL0     H32652   4.831   8.822   0.876  1.2411  1.6471  1.9196
  242MOL0     H32653   5.006   8.976   0.878 -0.4455  4.0581  2.8412
  242MOL0     H32654   5.065   9.559   0.867  0.3320 -1.4965  3.2918
  242MOL0     H32655   5.271   9.697   0.838  0.6171 -1.0566  0.9722
  242MOL0     H32656   6.632   9.399   0.989 -0.5784  1.3502  0.1846
  242MOL0     H32657   6.820   9.314   0.885  1.0605  0.8574  0.6890
  242MOL0     H32658   7.105   9.444   0.324  1.6843  2.2799  1.3442
  242MOL0     H32659   7.335   9.355   0.309  0.3962 -1.6278 -1.6465
  242MOL0     H32660   7.542   9.240   0.591 -1.3722  0.3851  1.3534
  242MOL0     H32661   7.500   9.067   0.593 -0.5365  0.1102  0.6417
  242MOL0     H32662   7.669   9.040   0.405 -3.3267  0.1755 -0.3925
  242MOL0     H32663   7.740   9.096   0.562  0.1264  0.5355 -0.5198
  242MOL0     H32664   7.844   9.201   0.375  4.4843  5.0740  2.6441
  242MOL0     H32665   7.766   9.306   0.493 -1.0865 -0.6055  0.5526
  242MOL0     H32666   7.599   9.379   0.339 -1.9924 -1.2399 -0.7439
  242MOL0     H32667   7.601   9.247   0.233  0.8341  1.5541 -1.3591
  242MOL0     H32668   7.939   9.427   0.076 -0.7182  1.7523 -0.9301
  242MOL0     H32669   7.255   9.053   0.596 -1.9830 -2.4660 -1.5355
  242MOL0     H32670   7.035   9.117   0.603  0.8866  0.5317  2.8657
  243MOL0     O32671   6.883   2.026   4.872  0.1576 -0.0641 -0.5630
  243MOL0     C32672   6.931   2.048   4.982  0.9414  0.2057 -0.0568
  243MOL0     O32673   6.882   2.137   5.078 -0.5892 -0.2624  0.6275
  243MOL0     C32674   6.766   2.200   5.043 -0.0927  0.8038 -0.0488
  243MOL0     C32675   6.644   2.128   5.023 -0.2070  0.5733 -0.2975
  243MOL0     C32676   6.527   2.195   4.989 -0.4557  0.3830 -0.8277
  243MOL0     C32677   6.521   2.334   4.990  0.6712 -0.2760 -0.4104
  243MOL0     O32678   6.411   2.413   4.956 -0.0976 -0.4177  0.3344
  243MOL0     C32679   6.288   2.346   4.907  0.1989 -0.0953 -0.0557
  243MOL0     C32680   6.180   2.455   4.886  0.6561  1.1108  0.4135
  243MOL0     C32681   6.046   2.383   4.836  0.2203 -0.7092  0.7372
  243MOL0     C32682   5.923   2.478   4.817 -0.2083  0.3265  0.1944
  243MOL0     C32683   5.802   2.406   4.765  0.8369  0.3743  0.8234
  243MOL0     C32684   5.746   2.279   4.839  1.0456  0.4568 -0.2928
  243MOL0     C32685   5.605   2.244   4.786  0.1204 -1.0657 -0.6234
  243MOL0     C32686   5.541   2.127   4.857  0.5714 -0.0984 -0.1864
  243MOL0     N32687   5.399   2.112   4.808 -0.4349  0.2238 -0.1084
  243MOL0     C32688   5.360   2.011   4.721 -0.2778  0.1103 -0.9348
  243MOL0     C32689   5.229   2.038   4.707  0.5970  0.7331 -1.2506
  243MOL0     C32690   5.130   1.937   4.644 -0.5889  0.8279 -0.7582
  243MOL0     C32691   5.036   2.002   4.536  0.3520 -1.2305 -0.1684
  243MOL0     C32692   4.954   1.882   4.478  0.1103 -0.4542  0.4159
  243MOL0     C32693   5.044   1.794   4.386  0.4335  0.0676 -0.3901
  243MOL0     O32694   5.068   1.863   4.264  0.0099  0.2931  0.8825
  243MOL0     C32695   4.975   1.894   4.170  0.3248  0.0868 -0.1662
  243MOL0     C32696   5.002   2.002   4.092 -0.0130 -0.1748 -0.1553
  243MOL0     C32697   4.918   2.055   3.991 -0.3936 -0.2808  0.0988
  243MOL0     C32698   4.967   2.181   3.920  0.5354  0.0843 -0.5151
  243MOL0     C32699   4.796   1.988   3.966  0.2468 -0.4588 -0.6692
  243MOL0     C32700   4.696   2.028   3.876  0.3283  0.0169 -0.3889
  243MOL0     O32701   4.568   1.992   3.916  0.1011 -0.5903  0.4066
  243MOL0     C32702   4.463   2.066   3.869  0.3774  0.1551 -1.4146
  243MOL0     C32703   4.342   2.008   3.833  0.8572  0.0893  0.3397
  243MOL0     C32704   4.228   2.066   3.774 -0.1250 -0.3528  0.0963
  243MOL0     C32705   4.226   2.207   3.754 -0.3784 -0.0765  0.8329
  243MOL0     O32706   4.104   2.261   3.705  0.1927 -0.4252  0.2526
  243MOL0     C32707   4.123   2.379   3.623 -0.3026  0.1268  0.8288
  243MOL0     C32708   3.980   2.432   3.600  0.3363 -0.4694  0.3812
  243MOL0     C32709   3.899   2.378   3.485  0.1401  0.2970 -0.0847
  243MOL0     C32710   3.758   2.433   3.460 -1.7498  0.0044 -0.7725
  243MOL0     C32711   3.694   2.336   3.352 -0.7715  0.5451 -0.0621
  243MOL0     C32712   3.753   2.346   3.207 -0.7670  0.0825 -0.0977
  243MOL0     C32713   3.676   2.282   3.093 -0.3282  0.3204  0.8512
  243MOL0     C32714   3.735   2.309   2.955 -0.6926  0.9741  0.6246
  243MOL0    Cl32715   3.896   2.380   2.966 -0.3590 -0.1707 -0.1875
  243MOL0     C32716   4.341   2.281   3.796 -0.7241 -0.3382  0.4085
  243MOL0     C32717   4.460   2.212   3.845 -0.5069  0.7474 -0.6074
  243MOL0     O32718   4.723   2.091   3.773  0.3789  0.4881  0.4772
  243MOL0     C32719   4.770   1.866   4.036 -0.1797 -1.2450  1.0324
  243MOL0     C32720   4.859   1.817   4.139  0.0200  0.5209 -0.2050
  243MOL0     N32721   5.193   2.144   4.786 -0.0555  0.0276 -0.1952
  243MOL0     N32722   5.294   2.190   4.848  0.2803 -0.3767  0.4980
  243MOL0     C32723   6.629   2.405   5.029  0.0629  1.5316 -0.9813
  243MOL0     C32724   6.755   2.339   5.056  0.0707  1.0973  0.2573
  243MOL0     C32725   7.060   1.986   5.026 -0.0289 -0.8976 -0.0825
  243MOL0     C32726   7.128   2.030   5.145  0.2321  0.4325  0.0539
  243MOL0     C32727   7.236   1.966   5.198 -0.1780  0.3398 -0.0236
  243MOL0     C32728   7.294   1.863   5.117 -0.1377  1.1809  0.1934
  243MOL0     O32729   7.405   1.786   5.158 -0.0316 -0.5075 -0.5132
  243MOL0     C32730   7.500   1.841   5.255  0.2447 -0.6840  0.5068
  243MOL0     C32731   7.629   1.775   5.251 -0.1148  0.9649  0.1276
  243MOL0     C32732   7.713   1.834   5.367 -1.2097 -0.0513 -0.3241
  243MOL0     C32733   7.860   1.790   5.357  0.3840  0.7375  0.5117
  243MOL0     C32734   7.946   1.824   5.471 -0.2537 -0.2301  0.8715
  243MOL0     C32735   8.019   1.862   5.563  0.1441  0.6648  1.0272
  243MOL0     C32736   7.234   1.810   5.004 -0.4710 -0.6825  1.1015
  243MOL0     C32737   7.113   1.875   4.962  0.2372 -0.3951  0.1017
  243MOL0     H32738   6.656   2.021   5.011 -2.4042  0.0266  1.6121
  243MOL0     H32739   6.434   2.140   4.982  0.8094 -1.7160 -2.5113
  243MOL0     H32740   6.307   2.289   4.816 -3.1538 -3.8882  1.3381
  243MOL0     H32741   6.252   2.274   4.981  1.5180 -2.2974 -1.4368
  243MOL0     H32742   6.161   2.506   4.981 -4.2380  0.2727  0.1058
  243MOL0     H32743   6.200   2.534   4.813 -0.0768  3.3259  2.4870
  243MOL0     H32744   6.066   2.343   4.736  1.6845  2.0890 -0.2131
  243MOL0     H32745   6.018   2.302   4.904 -1.8731 -0.3895  0.3204
  243MOL0     H32746   5.895   2.525   4.912 -0.3129 -1.5766  1.1386
  243MOL0     H32747   5.957   2.554   4.747  0.9589 -1.1246 -0.8785
  243MOL0     H32748   5.714   2.471   4.774  0.5780 -0.0331  1.3234
  243MOL0     H32749   5.823   2.368   4.665  0.2535 -1.1560  1.2536
  243MOL0     H32750   5.815   2.196   4.822  1.8194  1.4769 -2.5249
  243MOL0     H32751   5.735   2.302   4.945 -1.6603  1.9346 -0.7939
  243MOL0     H32752   5.538   2.331   4.784  2.1187  0.5393 -1.2962
  243MOL0     H32753   5.619   2.217   4.681  1.7734  0.8850 -0.9758
  243MOL0     H32754   5.550   2.142   4.965  1.6707 -0.5648 -0.1986
  243MOL0     H32755   5.601   2.038   4.837  0.3222 -0.0208 -1.3328
  243MOL0     H32756   5.425   1.937   4.676  1.9958  1.9986 -0.9434
  243MOL0     H32757   5.193   1.857   4.605 -0.6063 -0.4306  1.5907
  243MOL0     H32758   5.074   1.893   4.727 -3.6728  0.8926 -2.6485
  243MOL0     H32759   5.084   2.053   4.452  1.0183 -4.1479 -1.7017
  243MOL0     H32760   4.977   2.071   4.597 -0.9387 -0.4911 -2.1545
  243MOL0     H32761   4.865   1.915   4.422  0.2969 -2.1628 -0.9887
  243MOL0     H32762   4.924   1.821   4.564  1.7377 -1.4057  0.3264
  243MOL0     H32763   4.998   1.696   4.375 -3.4145  1.2305  2.9720
  243MOL0     H32764   5.147   1.780   4.422  2.0524  0.4434 -4.3338
  243MOL0     H32765   5.099   2.047   4.113 -1.2762  1.5284  2.5320
  243MOL0     H32766   4.894   2.259   3.944  0.0963 -0.3144 -0.5375
  243MOL0     H32767   5.065   2.204   3.963  0.1103 -1.3090  1.3135
  243MOL0     H32768   4.959   2.172   3.812  0.4147 -2.5709 -0.3365
  243MOL0     H32769   4.333   1.900   3.838 -2.8435  0.3032  2.4248
  243MOL0     H32770   4.142   2.002   3.754 -0.6636  0.3064  0.2751
  243MOL0     H32771   4.196   2.453   3.657 -0.3323  0.5596 -0.0269
  243MOL0     H32772   4.161   2.355   3.523 -1.7139  2.8833 -0.4704
  243MOL0     H32773   3.929   2.428   3.697 -0.7853  1.3345 -0.0912
  243MOL0     H32774   3.990   2.539   3.579  2.5474 -1.0455 -1.9689
  243MOL0     H32775   3.905   2.269   3.501 -2.3760  0.0129 -0.7283
  243MOL0     H32776   3.948   2.406   3.391  0.5238  0.3552  0.1325
  243MOL0     H32777   3.705   2.425   3.555 -0.0953 -1.3222  0.0985
  243MOL0     H32778   3.757   2.534   3.418 -2.4802 -1.3162 -4.3331
  243MOL0     H32779   3.586   2.349   3.346 -0.9007  0.3380  1.5223
  243MOL0     H32780   3.715   2.231   3.374  2.4549  1.0434 -0.1343
  243MOL0     H32781   3.758   2.453   3.184  1.7261  0.0283 -0.0460
  243MOL0     H32782   3.849   2.296   3.216 -0.1007  1.2665 -0.4214
  243MOL0     H32783   3.574   2.321   3.082  0.6832  2.7299 -0.8172
  243MOL0     H32784   3.669   2.173   3.103 -2.5366  0.4487  1.3277
  243MOL0     H32785   3.670   2.375   2.897 -0.9039  2.5895  2.5908
  243MOL0     H32786   3.740   2.215   2.900  1.3756  1.6570 -0.4687
  243MOL0     H32787   4.346   2.389   3.781 -0.2824 -0.4766 -0.5011
  243MOL0     H32788   4.543   2.272   3.878 -1.4287  0.4009  2.6647
  243MOL0     H32789   4.673   1.820   4.018  0.0608 -1.4353  0.1627
  243MOL0     H32790   4.838   1.720   4.185  1.5326 -1.0917 -2.6455
  243MOL0     H32791   6.634   2.514   5.029  1.3271  1.4883 -0.2998
  243MOL0     H32792   6.846   2.398   5.067 -0.5290  1.6196  2.9495
  243MOL0     H32793   7.096   2.127   5.181 -0.9929  1.2912 -2.9633
  243MOL0     H32794   7.276   2.013   5.287  3.8423 -3.7014  0.6734
  243MOL0     H32795   7.515   1.949   5.260  0.2787 -0.7340  4.5783
  243MOL0     H32796   7.474   1.827   5.361  1.3590  1.0772  1.0624
  243MOL0     H32797   7.681   1.781   5.155 -0.6418  2.6027 -0.1002
  243MOL0     H32798   7.613   1.670   5.278  2.9293  0.3303 -0.2294
  243MOL0     H32799   7.674   1.801   5.464  1.8454 -0.9603  0.7158
  243MOL0     H32800   7.700   1.942   5.376 -4.8998 -0.2989 -1.3194
  243MOL0     H32801   7.903   1.834   5.266 -1.9915  1.3973 -0.3509
  243MOL0     H32802   7.850   1.683   5.335 -0.0684  0.2191  2.9947
  243MOL0     H32803   8.085   1.906   5.635  3.3044  0.1140 -1.3427
  243MOL0     H32804   7.269   1.718   4.959 -0.5409 -1.0468  1.7736
  243MOL0     H32805   7.063   1.839   4.873 -0.2423 -1.7400  0.8888
  244MOL0     O32806   5.936   7.254   8.930  0.1716  0.3343  0.0327
  244MOL0     C32807   5.928   7.353   8.851  0.3988  0.2719  0.2878
  244MOL0     O32808   6.028   7.437   8.819 -0.3005  0.6709 -0.4671
  244MOL0     C32809   6.143   7.434   8.889 -0.0900  0.7469 -0.0444
  244MOL0     C32810   6.167   7.387   9.025 -0.4660 -1.3872 -0.4971
  244MOL0     C32811   6.297   7.373   9.081  0.4035  0.2268 -0.4112
  244MOL0     C32812   6.411   7.414   9.007  1.3128 -0.4565  0.1289
  244MOL0     O32813   6.532   7.406   9.073 -0.6421 -0.3023  0.0829
  244MOL0     C32814   6.650   7.424   8.996 -0.5602 -0.1765  1.0896
  244MOL0     C32815   6.767   7.361   9.049 -0.6478 -0.5960 -0.3329
  244MOL0     C32816   6.889   7.373   8.950  0.0158  0.0896  0.2702
  244MOL0     C32817   7.023   7.393   9.026 -0.3125 -0.0553 -0.0104
  244MOL0     C32818   7.154   7.390   8.939  0.0150 -0.7250  0.3072
  244MOL0     C32819   7.203   7.259   8.879 -0.2085 -0.1083  1.1527
  244MOL0     C32820   7.196   7.137   8.979 -0.1058  0.0938 -0.5518
  244MOL0     C32821   7.281   7.012   8.947  0.2912 -0.1075  0.4401
  244MOL0     N32822   7.265   6.945   8.815  0.8064  0.1449 -0.5560
  244MOL0     C32823   7.160   6.849   8.787 -0.2071 -0.0291 -0.3260
  244MOL0     C32824   7.176   6.824   8.657  0.1327  0.2184 -0.3758
  244MOL0     C32825   7.092   6.737   8.559 -0.8255  0.4833 -1.2237
  244MOL0     C32826   7.066   6.811   8.442  1.3115 -0.3482  0.7608
  244MOL0     C32827   6.958   6.923   8.457 -0.1184 -0.9418 -0.4238
  244MOL0     C32828   6.826   6.892   8.393 -0.1513  0.1941  0.5210
  244MOL0     O32829   6.752   6.790   8.463  0.5247  0.5815  0.9968
  244MOL0     C32830   6.614   6.777   8.431 -0.5365 -0.7349 -0.6858
  244MOL0     C32831   6.508   6.777   8.520 -0.5170 -0.2278  0.0007
  244MOL0     C32832   6.374   6.770   8.481 -0.0519  0.7504  0.0977
  244MOL0     C32833   6.277   6.812   8.588  0.1458  0.6405  0.3931
  244MOL0     C32834   6.346   6.737   8.349 -0.0888 -0.2297 -0.2197
  244MOL0     C32835   6.208   6.731   8.296 -0.7981  0.8250 -0.3499
  244MOL0     O32836   6.201   6.731   8.162  0.5575 -0.3548 -0.2544
  244MOL0     C32837   6.080   6.693   8.099  0.2158  0.7009 -0.3082
  244MOL0     C32838   5.954   6.747   8.123  0.4027 -0.9102 -0.3028
  244MOL0     C32839   5.835   6.699   8.068  0.0740 -0.6788  0.4951
  244MOL0     C32840   5.839   6.588   7.987 -0.5241  0.1404 -0.2288
  244MOL0     O32841   5.723   6.573   7.925 -0.0570 -0.2325 -0.4277
  244MOL0     C32842   5.725   6.522   7.790 -0.5564 -0.1394 -0.6778
  244MOL0     C32843   5.599   6.581   7.720  0.5321 -0.4283  0.3699
  244MOL0     C32844   5.463   6.534   7.783 -0.2885 -0.6226 -0.0224
  244MOL0     C32845   5.451   6.380   7.779 -0.1180  0.6943  0.5524
  244MOL0     C32846   5.311   6.337   7.836  0.5169  0.4336  0.2099
  244MOL0     C32847   5.311   6.178   7.867 -0.0795 -0.6263  0.7236
  244MOL0     C32848   5.174   6.112   7.883  0.5059  0.9470 -0.7022
  244MOL0     C32849   5.072   6.190   7.966  0.7506 -0.2152 -0.6335
  244MOL0    Cl32850   4.987   6.331   7.866 -0.3172  0.2885 -0.0903
  244MOL0     C32851   5.963   6.533   7.957  0.0011  0.1083  0.0871
  244MOL0     C32852   6.082   6.578   8.016  0.2450 -0.6627  0.5597
  244MOL0     O32853   6.112   6.730   8.375  0.4329 -0.2234  0.7336
  244MOL0     C32854   6.453   6.710   8.260 -0.0900  0.3576  0.4276
  244MOL0     C32855   6.586   6.725   8.310  0.0530 -0.9603  1.3675
  244MOL0     N32856   7.288   6.888   8.607  0.5284  0.3537 -0.3449
  244MOL0     N32857   7.340   6.966   8.702  0.5430  0.5319  0.0198
  244MOL0     C32858   6.383   7.472   8.886 -0.4369  0.4573 -0.0798
  244MOL0     C32859   6.258   7.478   8.828 -1.0776  0.3810 -0.6588
  244MOL0     C32860   5.795   7.405   8.831  0.1643  0.3005  0.2708
  244MOL0     C32861   5.683   7.338   8.880 -0.4422 -0.3940 -0.0458
  244MOL0     C32862   5.551   7.393   8.874 -0.1042 -0.0978 -0.9475
  244MOL0     C32863   5.536   7.516   8.809 -0.5623  0.0782  0.5337
  244MOL0     O32864   5.411   7.561   8.777  0.5076 -0.0170  0.0403
  244MOL0     C32865   5.293   7.496   8.836 -0.4174  0.2420  0.5266
  244MOL0     C32866   5.157   7.557   8.786  0.0325  0.2773  0.6306
  244MOL0     C32867   5.131   7.489   8.644  0.2403  0.5163  0.1133
  244MOL0     C32868   4.981   7.529   8.615  0.1333  0.3508  0.4208
  244MOL0     C32869   4.966   7.543   8.467 -0.1583  0.3075 -0.4482
  244MOL0     C32870   4.969   7.531   8.345 -1.2975 -0.2661 -0.8555
  244MOL0     C32871   5.643   7.580   8.759 -0.1116  0.4267 -0.3775
  244MOL0     C32872   5.772   7.530   8.760  0.0606  0.0374  1.0372
  244MOL0     H32873   6.084   7.366   9.092 -0.3161 -0.6675 -0.0717
  244MOL0     H32874   6.298   7.335   9.182 -1.4808  1.3385  0.0824
  244MOL0     H32875   6.642   7.398   8.890  1.2571  2.4758  0.1968
  244MOL0     H32876   6.674   7.530   8.983 -2.8391 -0.0085 -4.9498
  244MOL0     H32877   6.792   7.428   9.131 -2.4811  1.1453 -1.1127
  244MOL0     H32878   6.753   7.259   9.087 -0.3322 -0.5408 -0.0660
  244MOL0     H32879   6.890   7.279   8.893 -3.6595 -0.0121  0.0848
  244MOL0     H32880   6.861   7.451   8.878  0.9582 -1.3477 -1.7626
  244MOL0     H32881   7.025   7.492   9.072  2.3399  1.2487 -2.6350
  244MOL0     H32882   7.027   7.321   9.108  3.0953 -1.2884 -1.1024
  244MOL0     H32883   7.135   7.464   8.861  1.7808 -1.5852 -0.9915
  244MOL0     H32884   7.235   7.434   8.998  1.8287 -0.3671 -2.2978
  244MOL0     H32885   7.137   7.224   8.799  0.7355 -1.5265  0.9483
  244MOL0     H32886   7.303   7.278   8.839  1.2029 -2.8989  3.0116
  244MOL0     H32887   7.235   7.171   9.075 -2.4560 -2.9572  1.6914
  244MOL0     H32888   7.092   7.112   9.000  0.0727  1.0016  1.7516
  244MOL0     H32889   7.258   6.938   9.024 -0.4117 -0.8557 -0.4644
  244MOL0     H32890   7.386   7.040   8.955  1.1788 -2.0953 -2.5970
  244MOL0     H32891   7.073   6.813   8.841 -1.1174  0.9272 -1.1077
  244MOL0     H32892   7.137   6.641   8.533 -4.0899 -2.0064  1.5047
  244MOL0     H32893   7.002   6.704   8.610  1.6525 -0.8911  2.6646
  244MOL0     H32894   7.018   6.740   8.374  1.2841  0.0062  0.4060
  244MOL0     H32895   7.156   6.847   8.392  1.7978 -0.1164  1.7851
  244MOL0     H32896   7.004   7.006   8.403  2.4375 -1.0319  1.4347
  244MOL0     H32897   6.946   6.957   8.561 -1.6703 -1.6233 -0.3487
  244MOL0     H32898   6.837   6.866   8.287 -1.6974 -1.1271  0.6397
  244MOL0     H32899   6.771   6.986   8.401 -1.7860 -0.8715  2.8862
  244MOL0     H32900   6.542   6.803   8.620 -1.4332  1.7374 -0.1517
  244MOL0     H32901   6.229   6.722   8.627 -0.8404  2.1230  2.8435
  244MOL0     H32902   6.320   6.873   8.668  2.8835  1.7759 -1.7743
  244MOL0     H32903   6.198   6.874   8.544  2.2140  2.9231 -0.2862
  244MOL0     H32904   5.946   6.833   8.188  0.9540  1.2513 -2.9272
  244MOL0     H32905   5.743   6.755   8.083 -0.9817 -1.1352 -3.1943
  244MOL0     H32906   5.815   6.559   7.741 -0.7671  0.4116 -0.6590
  244MOL0     H32907   5.737   6.414   7.777  3.2241  0.4046 -3.4481
  244MOL0     H32908   5.607   6.690   7.709  1.5467 -0.6240 -1.2999
  244MOL0     H32909   5.612   6.538   7.620  0.5210  1.9349 -0.7269
  244MOL0     H32910   5.385   6.584   7.726  0.1877 -2.2645 -2.2503
  244MOL0     H32911   5.462   6.566   7.888 -1.2387  2.4832 -0.8741
  244MOL0     H32912   5.454   6.347   7.675  1.5612 -0.3944  0.9206
  244MOL0     H32913   5.532   6.337   7.837  1.3570  2.5846 -0.0094
  244MOL0     H32914   5.238   6.358   7.758  1.6612 -1.6340 -1.5278
  244MOL0     H32915   5.289   6.400   7.923 -0.2588  1.8946 -0.9941
  244MOL0     H32916   5.361   6.126   7.784 -1.1492  0.2604 -0.5153
  244MOL0     H32917   5.373   6.159   7.955  2.7207 -2.0339 -1.3691
  244MOL0     H32918   5.184   6.021   7.942 -2.2538  1.7142  1.1096
  244MOL0     H32919   5.118   6.100   7.790 -2.3806  2.5296  0.7135
  244MOL0     H32920   5.111   6.248   8.050 -1.2070  1.5859 -0.8977
  244MOL0     H32921   5.001   6.115   8.002  0.5240  0.7834  1.1321
  244MOL0     H32922   5.955   6.447   7.892 -0.0264  0.1771  0.0002
  244MOL0     H32923   6.173   6.526   7.990 -0.5586 -1.4471 -0.8017
  244MOL0     H32924   6.446   6.672   8.159 -1.1802 -1.0482  1.0026
  244MOL0     H32925   6.670   6.731   8.242  0.1468  2.1531  1.6230
  244MOL0     H32926   6.463   7.513   8.825  1.2228 -2.3024  0.0999
  244MOL0     H32927   6.257   7.530   8.733  1.3955  1.0698 -0.3864
  244MOL0     H32928   5.693   7.236   8.915 -2.1461 -0.8342 -0.7727
  244MOL0     H32929   5.474   7.324   8.907  0.5751 -0.9895 -1.1759
  244MOL0     H32930   5.283   7.389   8.820  3.4588 -0.3667  1.2414
  244MOL0     H32931   5.296   7.528   8.941  1.8458  3.1623 -0.2887
  244MOL0     H32932   5.173   7.665   8.787 -4.9972  1.2896  0.2543
  244MOL0     H32933   5.074   7.537   8.855 -0.8307  2.0037  0.1328
  244MOL0     H32934   5.147   7.381   8.652  0.3894  0.5010 -0.3945
  244MOL0     H32935   5.192   7.546   8.573  0.2581 -0.5486 -0.7596
  244MOL0     H32936   4.938   7.607   8.678 -1.5556 -0.7079  0.6317
  244MOL0     H32937   4.920   7.442   8.638  0.9652  0.6746  4.6040
  244MOL0     H32938   4.976   7.541   8.238 -1.7521  0.7246 -0.8099
  244MOL0     H32939   5.621   7.670   8.703  0.1411  1.1925  0.7201
  244MOL0     H32940   5.852   7.585   8.712 -1.0045  1.7405  1.0991
  245MOL0     O32941   3.184   7.517   4.804  0.2832  0.1365 -0.3315
  245MOL0     C32942   3.200   7.506   4.926  0.1697  0.5457  0.3596
  245MOL0     O32943   3.111   7.547   5.023  0.3542  0.0462 -0.1379
  245MOL0     C32944   2.986   7.584   4.971 -0.0675 -0.5162 -0.1701
  245MOL0     C32945   2.974   7.703   4.909  0.5582  0.3460  1.2766
  245MOL0     C32946   2.848   7.743   4.855 -0.0842 -0.5867  1.4095
  245MOL0     C32947   2.738   7.662   4.869 -0.3502 -0.2073 -0.0831
  245MOL0     O32948   2.617   7.717   4.836  0.2786  0.3398 -1.2435
  245MOL0     C32949   2.519   7.627   4.773 -0.7773 -0.5007 -0.6347
  245MOL0     C32950   2.431   7.706   4.680 -0.2353 -0.6414  0.1634
  245MOL0     C32951   2.322   7.620   4.627  0.4718 -0.0949 -0.0592
  245MOL0     C32952   2.217   7.699   4.558 -0.3033 -0.2333  1.1358
  245MOL0     C32953   2.112   7.614   4.483  0.0746  0.3535  1.0329
  245MOL0     C32954   1.989   7.698   4.433  0.5458 -0.1717  0.4864
  245MOL0     C32955   1.863   7.621   4.389 -0.0586  1.4006 -0.0781
  245MOL0     C32956   1.893   7.594   4.237  0.4218  0.1804  0.4378
  245MOL0     N32957   1.866   7.708   4.143 -0.1238  0.3369 -0.3672
  245MOL0     C32958   1.759   7.715   4.058 -0.1171 -0.3465 -0.3100
  245MOL0     C32959   1.758   7.845   4.015  0.1696  0.5291 -0.4409
  245MOL0     C32960   1.646   7.909   3.932  0.4786  0.2613 -0.3436
  245MOL0     C32961   1.545   7.970   4.032 -0.5636  0.8240  0.6825
  245MOL0     C32962   1.598   8.088   4.123  0.3066  0.4642  0.0961
  245MOL0     C32963   1.503   8.105   4.242 -0.2657 -0.6394  0.0487
  245MOL0     O32964   1.372   8.151   4.194 -0.5461  0.1508  0.0470
  245MOL0     C32965   1.308   8.230   4.288  0.3407  0.6635  0.2078
  245MOL0     C32966   1.336   8.369   4.300  0.3494  0.3133 -0.7503
  245MOL0     C32967   1.265   8.453   4.392 -0.4036  0.3299  0.5578
  245MOL0     C32968   1.293   8.597   4.407  0.1472 -0.5927  0.3899
  245MOL0     C32969   1.158   8.387   4.462  0.5630 -0.0274  0.0945
  245MOL0     C32970   1.065   8.453   4.560 -0.1896 -0.5701  0.1027
  245MOL0     O32971   1.002   8.378   4.659 -0.4437 -0.3919 -0.0542
  245MOL0     C32972   0.917   8.454   4.740 -0.0044  0.3081  0.5898
  245MOL0     C32973   0.784   8.465   4.702  0.4640  0.5496 -0.1188
  245MOL0     C32974   0.696   8.544   4.776  0.1088 -0.4408 -0.6891
  245MOL0     C32975   0.733   8.600   4.898 -0.7434 -0.3949 -0.5338
  245MOL0     O32976   0.662   8.685   4.980 -0.3407 -0.0692  0.4369
  245MOL0     C32977   0.557   8.768   4.915 -0.4279  1.0001  0.4043
  245MOL0     C32978   0.512   8.881   5.000 -0.7154  0.6498 -0.1675
  245MOL0     C32979   0.644   8.954   5.055  0.6165  0.9710 -1.5168
  245MOL0     C32980   0.724   9.029   4.950  0.2850 -0.7022  0.6343
  245MOL0     C32981   0.800   9.156   5.009  0.0117  0.8859  0.6727
  245MOL0     C32982   0.887   9.123   5.132 -0.3085  0.5013 -0.0147
  245MOL0     C32983   0.964   9.240   5.176  0.4875  0.0207  0.3700
  245MOL0     C32984   1.046   9.205   5.298 -0.3682 -0.2634  0.0458
  245MOL0    Cl32985   1.202   9.145   5.224  0.0098 -0.7029  0.0534
  245MOL0     C32986   0.870   8.577   4.941  0.5948  0.3956  0.8140
  245MOL0     C32987   0.962   8.511   4.859 -0.3876 -0.1215  0.4616
  245MOL0     O32988   1.036   8.566   4.531  0.2151 -0.3806 -0.0705
  245MOL0     C32989   1.126   8.255   4.444  0.8019 -0.5815  0.4188
  245MOL0     C32990   1.197   8.175   4.353 -0.9656 -0.4032  0.1869
  245MOL0     N32991   1.883   7.898   4.045  0.4796 -0.5411  0.0834
  245MOL0     N32992   1.947   7.813   4.128  1.1108 -0.7132 -0.5253
  245MOL0     C32993   2.755   7.538   4.928  0.4395  0.9983 -0.8084
  245MOL0     C32994   2.877   7.489   4.979  0.1853 -0.1337 -0.0414
  245MOL0     C32995   3.319   7.448   4.991  0.5631  0.6680  0.3777
  245MOL0     C32996   3.433   7.428   4.907  0.5028  0.2465  0.3779
  245MOL0     C32997   3.552   7.375   4.957 -0.4304 -0.4306  0.3793
  245MOL0     C32998   3.555   7.342   5.093  0.1154  0.7498  0.2349
  245MOL0     O32999   3.660   7.277   5.154 -0.0536 -0.1675  0.2438
  245MOL0     C33000   3.783   7.255   5.085  0.2502 -0.4601 -0.6491
  245MOL0     C33001   3.882   7.186   5.185 -0.5631 -0.8566 -0.5102
  245MOL0     C33002   4.027   7.158   5.149 -0.0398  0.2939  0.3231
  245MOL0     C33003   4.107   7.168   5.274  0.4650 -0.1224  0.9055
  245MOL0     C33004   4.250   7.169   5.241 -0.1217  1.0067 -0.0754
  245MOL0     C33005   4.367   7.161   5.210  0.7647  0.0134 -0.2386
  245MOL0     C33006   3.443   7.366   5.171 -0.6188  0.3463 -0.1184
  245MOL0     C33007   3.331   7.417   5.126  0.1429  0.2946  0.7626
  245MOL0     H33008   3.055   7.775   4.902  1.0689 -0.2636  0.7059
  245MOL0     H33009   2.854   7.843   4.814  1.3433 -0.6455  1.4206
  245MOL0     H33010   2.571   7.551   4.715  3.8823  1.8703 -0.0407
  245MOL0     H33011   2.465   7.565   4.845 -1.2927  0.8349  0.1611
  245MOL0     H33012   2.390   7.791   4.735  1.1416 -0.8846  1.6292
  245MOL0     H33013   2.484   7.742   4.591 -0.8857 -1.5438 -0.5999
  245MOL0     H33014   2.369   7.552   4.554  2.3493  1.6360 -0.5530
  245MOL0     H33015   2.284   7.559   4.710  0.2168 -1.6661 -1.2664
  245MOL0     H33016   2.173   7.766   4.632  1.6825  2.1149  0.3549
  245MOL0     H33017   2.256   7.758   4.474  0.7219 -0.1933  1.6171
  245MOL0     H33018   2.164   7.561   4.402  0.4591  1.2457  0.6762
  245MOL0     H33019   2.085   7.542   4.560  2.1726 -1.6631  0.0303
  245MOL0     H33020   1.957   7.758   4.519 -0.0319 -0.2194  0.3086
  245MOL0     H33021   2.030   7.761   4.353 -0.4916 -2.0514 -1.6487
  245MOL0     H33022   1.855   7.535   4.456 -0.2974  1.3813 -0.1333
  245MOL0     H33023   1.772   7.681   4.393 -0.7609  0.3039  1.6550
  245MOL0     H33024   1.829   7.509   4.208  1.3437 -0.9822  1.6519
  245MOL0     H33025   1.995   7.559   4.220  0.0964 -0.3215 -0.6212
  245MOL0     H33026   1.675   7.649   4.042  0.1260 -0.2006 -2.5346
  245MOL0     H33027   1.697   7.981   3.868  1.5117  0.4558  0.6687
  245MOL0     H33028   1.584   7.848   3.866 -1.0028 -0.7164  1.8372
  245MOL0     H33029   1.500   7.888   4.089 -0.0921  0.0900  0.0181
  245MOL0     H33030   1.467   8.021   3.975 -0.9061  0.6729  1.0059
  245MOL0     H33031   1.603   8.179   4.063  2.8355 -0.0573 -0.6195
  245MOL0     H33032   1.697   8.063   4.162  1.1733  1.7737 -1.1909
  245MOL0     H33033   1.541   8.179   4.313 -0.3986 -1.1452  0.6507
  245MOL0     H33034   1.493   8.012   4.298 -0.4161 -0.2042  0.7590
  245MOL0     H33035   1.411   8.409   4.232  2.6276 -0.4082  1.1728
  245MOL0     H33036   1.218   8.655   4.353 -0.8969 -0.1703  2.2127
  245MOL0     H33037   1.294   8.639   4.509 -1.8619  1.7117 -0.4434
  245MOL0     H33038   1.391   8.618   4.362 -0.5801 -0.6457 -1.2540
  245MOL0     H33039   0.729   8.417   4.622 -0.4879 -2.0870  1.9556
  245MOL0     H33040   0.589   8.532   4.759  0.2286 -3.8806  0.1203
  245MOL0     H33041   0.595   8.809   4.821  1.6805  3.1455  2.0566
  245MOL0     H33042   0.470   8.704   4.897  1.3476 -1.6203  0.5868
  245MOL0     H33043   0.453   8.945   4.934 -1.4237 -0.0221 -0.2014
  245MOL0     H33044   0.451   8.842   5.082  1.2043  1.4800  1.7245
  245MOL0     H33045   0.709   8.879   5.101 -1.1308  0.6539  0.5901
  245MOL0     H33046   0.608   9.019   5.135 -0.4561 -0.2649 -0.9586
  245MOL0     H33047   0.799   8.962   4.908 -0.4231  0.1121 -2.1317
  245MOL0     H33048   0.661   9.063   4.867  0.9398 -2.3060 -0.5711
  245MOL0     H33049   0.721   9.226   5.038  1.6172  2.5263  1.3301
  245MOL0     H33050   0.869   9.195   4.933  0.6372 -0.0287  0.7580
  245MOL0     H33051   0.823   9.077   5.208  1.2339 -0.8928  0.5046
  245MOL0     H33052   0.957   9.041   5.110 -0.2632 -0.3065  2.6698
  245MOL0     H33053   0.892   9.318   5.201 -1.3306 -1.2287 -0.7095
  245MOL0     H33054   1.024   9.276   5.092 -1.0575 -0.6337 -1.0849
  245MOL0     H33055   1.012   9.118   5.355  2.9749 -2.3291 -0.8325
  245MOL0     H33056   1.058   9.293   5.361 -0.9660  1.0291 -1.5500
  245MOL0     H33057   0.907   8.616   5.036  2.8612 -1.1965  0.6880
  245MOL0     H33058   1.063   8.496   4.896 -1.6681  2.8819  6.2468
  245MOL0     H33059   1.037   8.214   4.490  0.8689  0.9310  1.9945
  245MOL0     H33060   1.174   8.073   4.323 -0.3403 -1.4810  3.0299
  245MOL0     H33061   2.669   7.472   4.938  0.6253  1.0437  1.4890
  245MOL0     H33062   2.879   7.395   5.034 -0.9400  0.8462  1.7433
  245MOL0     H33063   3.418   7.456   4.803  0.3791  0.0862  0.3528
  245MOL0     H33064   3.637   7.360   4.892  0.8095 -1.8124  2.2177
  245MOL0     H33065   3.782   7.190   4.997  0.0290 -3.9445  1.7087
  245MOL0     H33066   3.818   7.353   5.053  0.2259 -0.8403 -1.8974
  245MOL0     H33067   3.842   7.088   5.210  0.3420 -2.0143 -3.1771
  245MOL0     H33068   3.884   7.248   5.274  2.1725 -2.2771  0.5398
  245MOL0     H33069   4.051   7.241   5.081 -2.8419 -0.7532 -2.1363
  245MOL0     H33070   4.044   7.065   5.094  0.5283 -0.2560  1.3880
  245MOL0     H33071   4.079   7.088   5.343  1.4232 -0.8724  0.4511
  245MOL0     H33072   4.091   7.259   5.334  0.8563  0.5968 -0.0567
  245MOL0     H33073   4.472   7.148   5.199  0.9429  1.9869 -1.3267
  245MOL0     H33074   3.437   7.333   5.273 -0.9401  0.5759 -0.0591
  245MOL0     H33075   3.243   7.437   5.185 -1.8418  0.1263 -1.9417
  246MOL0     O33076   6.943   6.503   6.708 -0.1719 -0.0029 -0.1180
  246MOL0     C33077   6.968   6.628   6.722 -0.0920 -0.6483  0.0181
  246MOL0     O33078   7.090   6.692   6.732 -0.3637  1.0686 -0.5053
  246MOL0     C33079   7.204   6.629   6.766 -0.1279 -0.4068  0.0153
  246MOL0     C33080   7.223   6.503   6.820 -1.4526 -0.1124  0.7615
  246MOL0     C33081   7.344   6.440   6.827 -0.0380  0.1758 -0.3132
  246MOL0     C33082   7.461   6.504   6.775 -0.6654 -0.1900 -1.0664
  246MOL0     O33083   7.587   6.444   6.769  0.4811 -0.2160  0.2959
  246MOL0     C33084   7.602   6.310   6.817 -0.6010  0.8477 -0.7293
  246MOL0     C33085   7.751   6.297   6.837  0.0685  0.0389  0.7181
  246MOL0     C33086   7.824   6.345   6.706 -1.2383  0.7390 -0.3942
  246MOL0     C33087   7.955   6.260   6.690  0.4338 -0.5647 -0.3647
  246MOL0     C33088   7.929   6.130   6.616  0.0597  0.0032 -0.5531
  246MOL0     C33089   8.037   6.025   6.650 -0.5279  0.6850  0.1863
  246MOL0     C33090   8.173   6.086   6.625  0.0152 -0.0851  0.0543
  246MOL0     C33091   8.192   6.138   6.476  0.4114 -0.3666 -0.2535
  246MOL0     N33092   8.333   6.183   6.462  0.2784  0.4429  0.2498
  246MOL0     C33093   8.446   6.110   6.488 -0.5970  0.7327 -0.2140
  246MOL0     C33094   8.549   6.187   6.466 -0.4267 -0.3020 -0.2960
  246MOL0     C33095   8.690   6.152   6.468  0.0820 -0.7065 -1.0021
  246MOL0     C33096   8.738   6.084   6.596  0.0279 -0.2984 -0.1088
  246MOL0     C33097   8.690   6.150   6.736 -0.2068  0.5742  0.7952
  246MOL0     C33098   8.713   6.045   6.840  0.6978  0.1289 -0.4928
  246MOL0     O33099   8.648   6.093   6.958  0.5972  0.7166 -0.1280
  246MOL0     C33100   8.512   6.064   6.985  0.1750 -0.5407 -0.0167
  246MOL0     C33101   8.472   6.100   7.108  0.0582 -1.0330 -0.7989
  246MOL0     C33102   8.346   6.069   7.154  1.0741 -0.2140  0.0737
  246MOL0     C33103   8.309   6.096   7.296  0.8355  0.6568  0.7508
  246MOL0     C33104   8.253   6.003   7.072  0.0935  0.2447  0.2032
  246MOL0     C33105   8.114   5.977   7.101  0.4644  0.2711 -0.0276
  246MOL0     O33106   8.090   5.890   7.204 -0.4465  0.2153 -0.2978
  246MOL0     C33107   7.962   5.878   7.246 -0.2942  1.4355  0.1726
  246MOL0     C33108   7.916   5.972   7.327  1.2969 -0.1372 -0.5929
  246MOL0     C33109   7.787   5.947   7.384 -0.5761 -0.6258 -0.2447
  246MOL0     C33110   7.713   5.831   7.353  0.4400  0.3734  0.0643
  246MOL0     O33111   7.592   5.806   7.415  0.4083  0.1038  0.2354
  246MOL0     C33112   7.538   5.678   7.394 -0.3997  0.2946  0.2367
  246MOL0     C33113   7.426   5.653   7.496 -0.4510 -0.1851  1.1273
  246MOL0     C33114   7.315   5.759   7.502  0.6254  0.7288 -0.2006
  246MOL0     C33115   7.200   5.756   7.389  0.6560  0.3082 -0.3838
  246MOL0     C33116   7.129   5.895   7.378 -0.4370  0.8510 -0.3697
  246MOL0     C33117   7.020   5.928   7.478  0.3653  0.1417 -0.2493
  246MOL0     C33118   6.958   6.064   7.448 -0.4048 -0.6514 -0.4795
  246MOL0     C33119   6.856   6.061   7.332  0.0248  0.0078 -0.1956
  246MOL0    Cl33120   6.717   5.938   7.364 -0.3401  0.9427  0.1407
  246MOL0     C33121   7.765   5.745   7.252 -0.0668 -0.4027  1.1218
  246MOL0     C33122   7.892   5.770   7.203  0.0336  0.8079 -0.2311
  246MOL0     O33123   8.028   6.026   7.035  0.3197  0.1177  0.1934
  246MOL0     C33124   8.295   5.956   6.953 -0.1013  0.2030 -0.1287
  246MOL0     C33125   8.422   5.983   6.910 -0.2104  0.3927 -0.1375
  246MOL0     N33126   8.501   6.316   6.430  0.5560 -0.0798 -0.6380
  246MOL0     N33127   8.371   6.312   6.438 -0.4041 -0.1063 -0.3693
  246MOL0     C33128   7.443   6.639   6.736 -0.3399  0.5751  0.3296
  246MOL0     C33129   7.321   6.695   6.733 -0.7903  0.0341  0.7713
  246MOL0     C33130   6.858   6.718   6.685  0.0680  0.2973 -0.6072
  246MOL0     C33131   6.868   6.860   6.715  0.4335 -0.0073 -0.6344
  246MOL0     C33132   6.769   6.953   6.659 -0.7090 -0.3501 -0.2850
  246MOL0     C33133   6.663   6.906   6.585 -0.6087  0.1393  0.0047
  246MOL0     O33134   6.583   7.009   6.537 -0.2732  0.2738 -0.0609
  246MOL0     C33135   6.448   6.976   6.507  0.2355 -0.4326  0.4727
  246MOL0     C33136   6.365   6.972   6.637  0.2585 -0.1111 -0.6968
  246MOL0     C33137   6.230   6.897   6.622  0.1415  0.1310 -0.1160
  246MOL0     C33138   6.139   6.932   6.501 -0.3158 -0.7869 -0.0716
  246MOL0     C33139   6.076   7.066   6.534 -0.3167  0.2302  0.1306
  246MOL0     C33140   6.032   7.178   6.555  0.0755  1.1425  1.3745
  246MOL0     C33141   6.654   6.766   6.549  0.5174 -0.4946 -0.1557
  246MOL0     C33142   6.744   6.675   6.612 -0.1343  0.7485  0.2652
  246MOL0     H33143   7.135   6.445   6.845 -2.1301  0.0192 -1.1507
  246MOL0     H33144   7.341   6.348   6.884  3.9613  1.6626  2.8008
  246MOL0     H33145   7.553   6.298   6.914 -0.2634  1.8217 -0.4261
  246MOL0     H33146   7.552   6.251   6.739 -0.8152  1.4738 -1.0741
  246MOL0     H33147   7.794   6.346   6.925  0.7899  3.1875 -1.2234
  246MOL0     H33148   7.766   6.190   6.851 -0.9994 -0.4469 -1.4197
  246MOL0     H33149   7.761   6.357   6.617 -0.4101 -0.7582 -1.2161
  246MOL0     H33150   7.863   6.446   6.723 -1.1537  0.4988  0.9400
  246MOL0     H33151   8.034   6.322   6.647  0.8048 -0.1991  0.8023
  246MOL0     H33152   7.992   6.245   6.792 -2.0830  0.8081  0.8333
  246MOL0     H33153   7.828   6.098   6.642 -0.0773  1.0345  0.2386
  246MOL0     H33154   7.928   6.141   6.507 -0.5751  1.2688 -0.4365
  246MOL0     H33155   8.038   5.987   6.752  2.2563 -2.5139 -0.8315
  246MOL0     H33156   8.023   5.935   6.589  3.1342 -0.6362  1.0320
  246MOL0     H33157   8.188   6.178   6.682 -1.7656 -0.6296  1.4791
  246MOL0     H33158   8.251   6.013   6.647  1.2255  0.9386 -0.6850
  246MOL0     H33159   8.124   6.217   6.444  1.0482  0.0770 -0.5524
  246MOL0     H33160   8.178   6.051   6.413  1.6244 -1.3953  0.8210
  246MOL0     H33161   8.457   6.004   6.507  2.4450  0.6781 -1.6136
  246MOL0     H33162   8.715   6.090   6.381 -0.0663 -1.6838 -0.3680
  246MOL0     H33163   8.737   6.250   6.466 -0.6748 -0.3228 -0.5481
  246MOL0     H33164   8.847   6.070   6.594  0.3826  1.9142 -2.8026
  246MOL0     H33165   8.697   5.984   6.583 -1.5223  0.3904 -0.7147
  246MOL0     H33166   8.587   6.185   6.732 -0.6336 -0.6974  0.5848
  246MOL0     H33167   8.758   6.235   6.755  0.4939  0.0145  0.8483
  246MOL0     H33168   8.821   6.030   6.846  0.7978  1.2518  1.3236
  246MOL0     H33169   8.674   5.946   6.817  0.2975 -0.2055  1.4649
  246MOL0     H33170   8.535   6.157   7.175 -0.6440 -0.9657 -0.1849
  246MOL0     H33171   8.355   6.186   7.337  1.3312  0.9709 -0.4624
  246MOL0     H33172   8.202   6.113   7.314 -0.1676 -1.1810 -2.6201
  246MOL0     H33173   8.341   6.007   7.352 -0.0453 -0.1149  0.0553
  246MOL0     H33174   7.971   6.058   7.361 -0.3000  0.1313  1.5070
  246MOL0     H33175   7.745   6.025   7.446  1.7107  1.5368 -1.2431
  246MOL0     H33176   7.482   5.672   7.300 -2.4062 -4.4677  1.4314
  246MOL0     H33177   7.614   5.600   7.399  0.5263  1.1164 -0.4869
  246MOL0     H33178   7.393   5.552   7.471  1.3338 -1.0420  2.0717
  246MOL0     H33179   7.485   5.643   7.588  0.7420 -0.0562  0.4039
  246MOL0     H33180   7.362   5.857   7.495 -0.1358  1.3412  2.3384
  246MOL0     H33181   7.266   5.763   7.600 -2.5401 -0.9053 -1.5733
  246MOL0     H33182   7.243   5.732   7.292 -0.1167  0.0727 -0.6716
  246MOL0     H33183   7.129   5.681   7.424  3.2202 -1.3070  1.7133
  246MOL0     H33184   7.093   5.919   7.278 -0.4156  1.3704 -0.2541
  246MOL0     H33185   7.206   5.969   7.403  0.5965  0.6210 -2.6239
  246MOL0     H33186   6.947   5.847   7.478  2.0960 -1.4991  0.7125
  246MOL0     H33187   7.069   5.929   7.576  1.6444  0.3034 -0.8673
  246MOL0     H33188   7.036   6.140   7.436 -1.6182  0.8817  0.8250
  246MOL0     H33189   6.902   6.094   7.537  2.5806  1.5559  0.8210
  246MOL0     H33190   6.908   6.032   7.241 -0.3783 -3.4030  0.5469
  246MOL0     H33191   6.815   6.161   7.315  0.4962  0.3822  0.8292
  246MOL0     H33192   7.726   5.650   7.215  1.9737 -0.1476 -2.1006
  246MOL0     H33193   7.933   5.699   7.132 -1.3550  0.4215 -0.6733
  246MOL0     H33194   8.231   5.889   6.896  3.1658 -4.0746  0.8324
  246MOL0     H33195   8.447   5.935   6.817  1.9432 -3.1437  2.0267
  246MOL0     H33196   7.535   6.686   6.704  1.6007 -2.6230  0.7567
  246MOL0     H33197   7.323   6.794   6.689  4.7290 -1.8085 -4.6656
  246MOL0     H33198   6.956   6.896   6.767  0.3799 -0.7206 -0.0381
  246MOL0     H33199   6.771   7.060   6.678  0.2619 -0.1672 -1.2622
  246MOL0     H33200   6.404   7.055   6.446  0.8189  1.8671  2.8564
  246MOL0     H33201   6.439   6.885   6.447 -0.3192  1.5456 -2.6680
  246MOL0     H33202   6.349   7.072   6.679 -0.0919 -1.1511  1.8268
  246MOL0     H33203   6.415   6.919   6.719 -2.0326 -0.7739  0.3683
  246MOL0     H33204   6.174   6.921   6.714  0.6533  2.5926 -0.3798
  246MOL0     H33205   6.248   6.789   6.629  0.9533  0.2244 -0.6523
  246MOL0     H33206   6.057   6.860   6.499 -3.4263  2.4277  1.2953
  246MOL0     H33207   6.204   6.931   6.413 -1.5849 -2.4593 -1.0449
  246MOL0     H33208   5.994   7.278   6.552 -0.0574  1.1085  1.8273
  246MOL0     H33209   6.579   6.727   6.482  3.5679 -2.4059 -2.7693
  246MOL0     H33210   6.727   6.567   6.611 -0.9950  0.8711  0.9195
  247MOL0     O33211  10.746   7.238   3.774  0.4209  1.2814  0.0405
  247MOL0     C33212  10.816   7.286   3.677  0.2975  0.5835 -0.0959
  247MOL0     O33213  10.927   7.233   3.618 -0.3226  0.0453  0.3873
  247MOL0     C33214  11.000   7.130   3.676 -0.1450  0.5713 -0.0473
  247MOL0     C33215  11.122   7.098   3.620  0.4690 -0.1574 -1.1094
  247MOL0     C33216  11.190   6.987   3.655 -0.2531  0.6185  0.4917
  247MOL0     C33217  11.153   6.912   3.764 -0.7735  0.2531  0.2813
  247MOL0     O33218  11.225   6.805   3.808  0.5841 -0.1339  0.4680
  247MOL0     C33219  11.355   6.787   3.747  0.8843  0.4448  0.7432
  247MOL0     C33220  11.438   6.677   3.820 -0.3187 -0.0671  0.0651
  247MOL0     C33221  11.440   6.683   3.964 -0.5204  0.4066 -0.5869
  247MOL0     C33222  11.487   6.819   4.019 -0.8713  0.1160  0.5582
  247MOL0     C33223  11.511   6.818   4.172  0.2537  0.1065 -0.3408
  247MOL0     C33224  11.631   6.908   4.212  0.5188  0.6106 -0.1985
  247MOL0     C33225  11.609   7.055   4.171 -0.4619  0.1958 -0.3970
  247MOL0     C33226  11.695   7.147   4.254 -0.2801  0.1747  0.7496
  247MOL0     N33227  11.673   7.288   4.214 -0.3976 -0.1917  0.8348
  247MOL0     C33228  11.546   7.333   4.171  0.8931 -0.6774 -0.7303
  247MOL0     C33229  11.563   7.453   4.123 -1.0118 -0.2050  0.6602
  247MOL0     C33230  11.449   7.537   4.073 -0.8200  0.3522 -0.5307
  247MOL0     C33231  11.433   7.522   3.927  0.5145 -0.2853 -0.1254
  247MOL0     C33232  11.394   7.381   3.874  0.2936 -1.2461 -0.2880
  247MOL0     C33233  11.252   7.336   3.902  0.4665 -0.3456  0.1767
  247MOL0     O33234  11.149   7.437   3.884 -0.4436 -0.7171  0.5570
  247MOL0     C33235  11.027   7.435   3.949  0.4260 -0.3390 -0.3283
  247MOL0     C33236  10.979   7.319   4.004  0.6452  0.1045  0.0937
  247MOL0     C33237  10.849   7.313   4.051  0.6470 -0.4418 -0.0654
  247MOL0     C33238  10.807   7.186   4.124  0.0067  0.4437  0.6735
  247MOL0     C33239  10.767   7.425   4.040 -0.5390  0.3758  0.5345
  247MOL0     C33240  10.622   7.431   4.080 -0.8016 -0.3095 -0.0199
  247MOL0     O33241  10.587   7.363   4.194 -0.5828  0.3433 -0.4519
  247MOL0     C33242  10.454   7.353   4.230 -0.1057 -0.5124  1.2344
  247MOL0     C33243  10.391   7.465   4.291 -0.9873 -0.3230 -0.5977
  247MOL0     C33244  10.257   7.456   4.331 -0.8204 -0.4449 -0.8700
  247MOL0     C33245  10.191   7.334   4.323 -0.2304  0.2006  0.3826
  247MOL0     O33246  10.064   7.314   4.376  0.3236 -0.0837 -0.6246
  247MOL0     C33247   9.974   7.420   4.409  0.0517 -0.3583 -0.6778
  247MOL0     C33248   9.833   7.375   4.421 -0.6939  0.5974 -0.0695
  247MOL0     C33249   9.729   7.484   4.439 -0.4874  0.7997 -0.0109
  247MOL0     C33250   9.585   7.432   4.427  0.0268 -0.0469 -0.4814
  247MOL0     C33251   9.470   7.546   4.445 -1.1367  0.2199  0.0780
  247MOL0     C33252   9.333   7.481   4.451  0.0491  0.4877 -1.1101
  247MOL0     C33253   9.224   7.587   4.457 -0.0132 -0.0191  0.0992
  247MOL0     C33254   9.255   7.680   4.569  0.3227  0.0199  0.4869
  247MOL0    Cl33255   9.116   7.733   4.657  0.5583  0.0879  0.6326
  247MOL0     C33256  10.250   7.229   4.260 -0.1874  0.6833 -0.2679
  247MOL0     C33257  10.385   7.240   4.213 -0.1924  0.3292 -0.5496
  247MOL0     O33258  10.555   7.527   4.036 -0.4083 -0.1099  0.3851
  247MOL0     C33259  10.823   7.541   3.982 -0.2250  0.0900 -0.8696
  247MOL0     C33260  10.950   7.546   3.936 -0.5501  0.3848 -0.2512
  247MOL0     N33261  11.698   7.477   4.116 -0.2718  0.0168 -0.9057
  247MOL0     N33262  11.761   7.377   4.169 -0.2682  0.2223  0.1759
  247MOL0     C33263  11.038   6.938   3.820 -0.5692  0.9274 -0.8368
  247MOL0     C33264  10.969   7.054   3.784  0.9158  0.2927  0.6624
  247MOL0     C33265  10.770   7.419   3.616  0.0447  0.5802  0.4835
  247MOL0     C33266  10.676   7.493   3.689 -0.5007 -0.4418  0.7751
  247MOL0     C33267  10.636   7.623   3.648 -1.1190 -0.4871 -0.5813
  247MOL0     C33268  10.696   7.673   3.528 -0.7663 -0.0834 -0.6640
  247MOL0     O33269  10.649   7.794   3.490  0.2222 -1.3794 -1.4455
  247MOL0     C33270  10.701   7.836   3.368 -0.0383  0.2128 -0.4358
  247MOL0     C33271  10.645   7.980   3.328 -0.0035  0.8126 -0.8310
  247MOL0     C33272  10.736   8.066   3.242  0.1481  0.2106  1.1118
  247MOL0     C33273  10.742   7.994   3.103 -0.4831  0.2250 -0.1635
  247MOL0     C33274  10.823   8.063   3.008  0.5172 -0.4884 -0.1215
  247MOL0     C33275  10.892   8.118   2.918 -0.5549 -0.6425  0.0288
  247MOL0     C33276  10.800   7.597   3.466 -0.3311 -0.1009 -0.6951
  247MOL0     C33277  10.840   7.476   3.507 -0.3170  0.5379 -0.1375
  247MOL0     H33278  11.159   7.166   3.544  0.1581  2.4479  0.9247
  247MOL0     H33279  11.279   6.979   3.593 -0.7160  3.5236 -0.6960
  247MOL0     H33280  11.338   6.758   3.643 -1.3388  2.5475  0.4278
  247MOL0     H33281  11.420   6.875   3.746  2.9302 -0.9956 -0.6208
  247MOL0     H33282  11.392   6.584   3.787  0.3931 -0.5143  0.3218
  247MOL0     H33283  11.539   6.682   3.778  0.6197 -0.8083  2.0928
  247MOL0     H33284  11.340   6.660   4.003 -0.2196  1.5799  0.9479
  247MOL0     H33285  11.503   6.603   4.004 -2.1907 -0.4086  0.5661
  247MOL0     H33286  11.580   6.835   3.963 -3.0086 -0.7739 -3.6504
  247MOL0     H33287  11.415   6.896   3.989  0.5682  1.1812 -0.2961
  247MOL0     H33288  11.418   6.843   4.224 -1.2145  0.4886 -2.9351
  247MOL0     H33289  11.533   6.714   4.199 -0.8814 -0.9788 -3.2200
  247MOL0     H33290  11.662   6.890   4.315  2.6388 -0.5557 -0.9814
  247MOL0     H33291  11.722   6.882   4.157 -0.2444  2.2138 -2.3478
  247MOL0     H33292  11.630   7.060   4.064 -1.6878 -2.1925 -0.8135
  247MOL0     H33293  11.503   7.078   4.183 -1.2413 -0.9237 -3.9498
  247MOL0     H33294  11.796   7.111   4.235 -0.3159  1.1910 -1.7564
  247MOL0     H33295  11.665   7.135   4.358  0.9897 -1.5409  0.9512
  247MOL0     H33296  11.450   7.284   4.181  0.6681 -0.5379 -2.0838
  247MOL0     H33297  11.359   7.500   4.123  0.2313 -1.2143  0.3157
  247MOL0     H33298  11.464   7.643   4.096 -1.0663  0.0396  1.2656
  247MOL0     H33299  11.527   7.547   3.877 -0.3374 -2.2658 -2.9876
  247MOL0     H33300  11.362   7.592   3.882 -1.1970 -3.5560 -3.0870
  247MOL0     H33301  11.471   7.311   3.910  1.5042  1.4028  2.7472
  247MOL0     H33302  11.404   7.377   3.765  3.5613 -0.6525 -0.1109
  247MOL0     H33303  11.238   7.305   4.006  0.2032  2.6577  1.1138
  247MOL0     H33304  11.223   7.252   3.838 -1.2108 -0.9376  1.6249
  247MOL0     H33305  11.045   7.234   4.012 -0.6403 -0.8801  0.5469
  247MOL0     H33306  10.796   7.205   4.232  1.2751  1.4714  0.6579
  247MOL0     H33307  10.705   7.163   4.092 -0.1352  2.1518 -0.2633
  247MOL0     H33308  10.871   7.101   4.100  0.2766  1.0664 -0.9030
  247MOL0     H33309  10.457   7.549   4.311 -0.4057 -0.9272  0.1006
  247MOL0     H33310  10.211   7.548   4.365 -2.6571 -0.4263 -3.1484
  247MOL0     H33311  10.000   7.459   4.507 -3.1120  1.8693 -0.5742
  247MOL0     H33312   9.976   7.492   4.327  1.7444  0.1091 -0.2557
  247MOL0     H33313   9.797   7.308   4.342 -0.7273  1.2269 -0.6005
  247MOL0     H33314   9.816   7.315   4.511 -5.1625 -1.8345 -2.2112
  247MOL0     H33315   9.753   7.575   4.384  2.4921  0.9173  1.3146
  247MOL0     H33316   9.719   7.519   4.543 -0.9792  3.0729 -0.7660
  247MOL0     H33317   9.567   7.383   4.332 -3.5470  1.5863 -0.7979
  247MOL0     H33318   9.571   7.350   4.498  0.4037  1.6040  1.6048
  247MOL0     H33319   9.472   7.622   4.367 -3.0128 -1.3440 -1.6159
  247MOL0     H33320   9.497   7.606   4.532  1.9471  0.2447 -0.7870
  247MOL0     H33321   9.317   7.432   4.355 -0.9582  1.4884 -1.4803
  247MOL0     H33322   9.330   7.419   4.541  1.3821  0.5863 -0.9662
  247MOL0     H33323   9.123   7.545   4.463 -1.1944  1.5744 -4.4916
  247MOL0     H33324   9.221   7.645   4.364  1.3717 -1.3595 -0.8206
  247MOL0     H33325   9.318   7.760   4.530  0.5916 -0.1121  0.6527
  247MOL0     H33326   9.307   7.621   4.645 -1.0135 -1.9055 -0.0248
  247MOL0     H33327  10.190   7.141   4.239  0.4496 -0.1130  1.1117
  247MOL0     H33328  10.436   7.151   4.179 -2.9291 -0.8019 -2.0767
  247MOL0     H33329  10.760   7.626   3.957  0.6776  0.8946 -0.4784
  247MOL0     H33330  10.990   7.623   3.870  1.8959 -0.9119 -0.3989
  247MOL0     H33331  10.989   6.879   3.896 -0.6052 -1.5020 -2.6034
  247MOL0     H33332  10.877   7.066   3.840 -0.1429 -0.7510 -0.7788
  247MOL0     H33333  10.614   7.446   3.765 -4.4564 -0.5040 -2.1698
  247MOL0     H33334  10.560   7.684   3.698 -1.4954 -0.2685 -1.4045
  247MOL0     H33335  10.810   7.843   3.371 -0.1295  1.8747 -0.1826
  247MOL0     H33336  10.664   7.766   3.293 -2.8524  0.8259  0.2717
  247MOL0     H33337  10.645   8.035   3.422  1.6619  0.5558 -0.6575
  247MOL0     H33338  10.546   7.983   3.282  0.1152 -2.1791 -1.4974
  247MOL0     H33339  10.828   8.086   3.299  0.3395  3.7083 -0.1705
  247MOL0     H33340  10.689   8.162   3.217  0.4211  0.0513 -0.0363
  247MOL0     H33341  10.640   7.993   3.064 -0.3384  1.6418 -0.6374
  247MOL0     H33342  10.772   7.890   3.119 -1.7777  0.1295  2.0626
  247MOL0     H33343  10.959   8.167   2.850  0.7334  4.0453  4.0755
  247MOL0     H33344  10.842   7.641   3.376  0.4926  2.9150  1.0328
  247MOL0     H33345  10.917   7.417   3.458 -0.7010  0.3557 -0.5243
  248MOL0     O33346   9.110   4.730  10.049  0.0708 -0.1057  0.5914
  248MOL0     C33347   9.170   4.754   9.942  0.6701 -0.3884  0.4281
  248MOL0     O33348   9.114   4.772   9.820  0.1756  0.0320  0.6594
  248MOL0     C33349   8.978   4.751   9.809 -0.1761  1.1364  0.3247
  248MOL0     C33350   8.882   4.841   9.841 -0.3634 -0.9345 -0.0674
  248MOL0     C33351   8.747   4.823   9.826 -0.1212 -0.4936 -0.4554
  248MOL0     C33352   8.697   4.708   9.760  1.2519 -0.4745  0.0504
  248MOL0     O33353   8.566   4.689   9.731  0.4219  0.4221 -0.0471
  248MOL0     C33354   8.467   4.760   9.820  0.0327  0.3440  0.9398
  248MOL0     C33355   8.442   4.895   9.754  0.0934  0.0894 -0.0300
  248MOL0     C33356   8.344   4.964   9.848 -0.2695 -0.0912  0.7882
  248MOL0     C33357   8.284   5.102   9.797  0.3474  0.1431  0.3650
  248MOL0     C33358   8.243   5.096   9.654  0.0397  0.3178 -0.5763
  248MOL0     C33359   8.138   4.972   9.627 -0.2884 -0.5877 -0.8290
  248MOL0     C33360   8.105   4.965   9.478  0.1726  0.2868 -0.6736
  248MOL0     C33361   8.015   5.082   9.444 -0.4860 -0.2337 -0.4972
  248MOL0     N33362   7.967   5.064   9.310  0.2797 -1.0281  0.7305
  248MOL0     C33363   7.850   5.004   9.267  0.4411 -0.5219  0.0187
  248MOL0     C33364   7.839   5.038   9.137 -0.7338  1.2796 -0.0844
  248MOL0     C33365   7.718   5.012   9.053 -0.4720  0.4252 -0.0723
  248MOL0     C33366   7.723   4.881   8.971  0.6787  0.3758  0.2005
  248MOL0     C33367   7.599   4.881   8.867 -0.4000 -0.1955 -0.5501
  248MOL0     C33368   7.581   4.754   8.803  0.1473 -0.3291  0.9807
  248MOL0     O33369   7.478   4.780   8.703  0.0841 -0.1150  0.2290
  248MOL0     C33370   7.365   4.705   8.687 -0.1090  0.7208  0.1655
  248MOL0     C33371   7.309   4.704   8.559 -0.1430  0.1320 -0.1806
  248MOL0     C33372   7.195   4.634   8.536  0.6360  1.1033 -0.0183
  248MOL0     C33373   7.127   4.652   8.397 -0.7453 -0.8262 -0.3336
  248MOL0     C33374   7.138   4.555   8.635  0.2449  0.1882  0.1554
  248MOL0     C33375   7.002   4.484   8.623 -0.0964  0.6029 -0.4931
  248MOL0     O33376   6.938   4.465   8.746 -0.4664 -0.5141  0.1403
  248MOL0     C33377   6.812   4.422   8.753  0.9966 -0.1049  0.2300
  248MOL0     C33378   6.783   4.297   8.702  0.6165  0.0779 -0.7036
  248MOL0     C33379   6.656   4.249   8.726 -0.5511 -0.3396 -0.0253
  248MOL0     C33380   6.553   4.335   8.778  0.0494 -0.3241  1.2767
  248MOL0     O33381   6.430   4.284   8.815  0.1341  0.4169 -0.2181
  248MOL0     C33382   6.385   4.167   8.737  0.1325 -0.3844  0.6777
  248MOL0     C33383   6.238   4.139   8.730 -0.3331  0.4399 -0.2244
  248MOL0     C33384   6.191   4.071   8.859 -0.4771  0.3267  0.5625
  248MOL0     C33385   6.187   3.918   8.830 -0.0831 -0.7239 -0.4801
  248MOL0     C33386   6.105   3.834   8.929 -0.4794 -0.1016  0.3124
  248MOL0     C33387   6.066   3.704   8.874 -0.2288 -0.3326 -0.1790
  248MOL0     C33388   5.997   3.629   8.985  0.3481 -0.8965  0.5975
  248MOL0     C33389   5.985   3.486   8.935  0.0163 -0.0121 -0.2931
  248MOL0    Cl33390   5.876   3.383   9.033 -0.1328  0.5108  0.0522
  248MOL0     C33391   6.583   4.461   8.825  0.3969 -0.0894 -0.2621
  248MOL0     C33392   6.716   4.507   8.813  0.4961 -0.8563 -0.4175
  248MOL0     O33393   6.955   4.464   8.517  0.2478 -0.3951  0.4115
  248MOL0     C33394   7.199   4.545   8.764 -0.4472 -0.4639 -0.1079
  248MOL0     C33395   7.310   4.627   8.790  0.0531  0.4103  0.6842
  248MOL0     N33396   7.955   5.116   9.095  0.1079  0.7884  0.1707
  248MOL0     N33397   8.016   5.131   9.204  0.0464 -0.0749  0.7319
  248MOL0     C33398   8.789   4.611   9.715  0.3567 -0.1443 -0.6301
  248MOL0     C33399   8.930   4.633   9.739  0.6243  1.3000  0.0360
  248MOL0     C33400   9.317   4.777   9.959  0.2052 -0.2812  0.2280
  248MOL0     C33401   9.364   4.841  10.074 -0.0635  0.4557  0.1028
  248MOL0     C33402   9.499   4.857  10.089 -0.4813  0.0890 -0.1799
  248MOL0     C33403   9.594   4.816   9.995 -0.0625  0.0875 -0.7491
  248MOL0     O33404   9.727   4.841  10.020  0.3209 -0.2113 -0.0115
  248MOL0     C33405   9.806   4.726  10.033  0.2098 -0.7631 -0.1099
  248MOL0     C33406   9.886   4.741  10.155 -0.4678  0.5448  0.0815
  248MOL0     C33407   9.974   4.617  10.185 -0.1794  0.2921  0.1192
  248MOL0     C33408  10.057   4.648  10.308  0.2704 -0.1418 -0.3212
  248MOL0     C33409  10.140   4.532  10.337  0.6635  0.3330  0.0029
  248MOL0     C33410  10.227   4.449  10.358  0.5380 -0.0244  0.0455
  248MOL0     C33411   9.549   4.755   9.872 -0.2255  0.4656 -0.6992
  248MOL0     C33412   9.409   4.737   9.859  0.3031 -0.7023 -0.0269
  248MOL0     H33413   8.910   4.929   9.899  1.2487 -0.9212 -0.8348
  248MOL0     H33414   8.689   4.909   9.858  3.6532  1.2684  2.5575
  248MOL0     H33415   8.378   4.697   9.826  1.1377 -1.3249  0.5955
  248MOL0     H33416   8.505   4.762   9.923 -0.5035  0.1532  1.1488
  248MOL0     H33417   8.529   4.958   9.731 -0.1598  0.7168  0.6686
  248MOL0     H33418   8.409   4.889   9.650  0.4766  2.3009 -0.3404
  248MOL0     H33419   8.262   4.895   9.869 -1.4733  0.9611 -0.3006
  248MOL0     H33420   8.399   4.986   9.940 -0.6860  0.3288  0.9435
  248MOL0     H33421   8.193   5.135   9.848  0.7210  2.9936 -0.6316
  248MOL0     H33422   8.367   5.174   9.799  1.2047 -0.8249  3.1242
  248MOL0     H33423   8.187   5.184   9.621 -0.9564 -0.0507  0.0987
  248MOL0     H33424   8.343   5.091   9.610  0.5888 -1.5437  0.7696
  248MOL0     H33425   8.190   4.881   9.660  1.0720  0.5339  0.2212
  248MOL0     H33426   8.048   4.994   9.684 -0.0350  1.2802 -1.0821
  248MOL0     H33427   8.202   4.978   9.429  0.1171 -2.4593 -1.6769
  248MOL0     H33428   8.046   4.876   9.454 -1.1647  0.5998  1.2771
  248MOL0     H33429   8.067   5.179   9.449  0.4831 -0.7781  0.4495
  248MOL0     H33430   7.943   5.086   9.527  2.7358  0.3211  2.5106
  248MOL0     H33431   7.766   4.960   9.319 -0.6750 -1.3288 -2.3147
  248MOL0     H33432   7.627   5.021   9.113 -1.2910  0.5232 -1.2968
  248MOL0     H33433   7.713   5.088   8.974 -1.5689 -1.1984 -1.6578
  248MOL0     H33434   7.712   4.793   9.036  2.6832  1.6105  2.3572
  248MOL0     H33435   7.825   4.878   8.931  1.1824 -0.1085  1.4859
  248MOL0     H33436   7.620   4.959   8.794 -1.2749  1.3202  0.7374
  248MOL0     H33437   7.506   4.907   8.919 -1.4900 -1.2698 -1.8749
  248MOL0     H33438   7.540   4.679   8.871 -0.4366 -0.3440  0.6176
  248MOL0     H33439   7.667   4.706   8.755 -0.5032 -1.5267  0.9832
  248MOL0     H33440   7.358   4.764   8.482  2.0168 -0.5676  0.5996
  248MOL0     H33441   7.170   4.733   8.337  0.1625 -1.3669 -0.4349
  248MOL0     H33442   7.148   4.566   8.332  0.5385  0.3571 -1.5440
  248MOL0     H33443   7.019   4.669   8.409 -0.3196  1.7050  0.4996
  248MOL0     H33444   6.859   4.224   8.675  1.3133  0.8289 -0.8199
  248MOL0     H33445   6.644   4.147   8.693  1.0755 -0.7918  0.6628
  248MOL0     H33446   6.419   4.185   8.635  3.7189 -1.8849  1.4537
  248MOL0     H33447   6.439   4.077   8.767  0.0022 -0.9901 -0.8374
  248MOL0     H33448   6.191   4.237   8.727  0.7576  0.9865 -0.1009
  248MOL0     H33449   6.208   4.078   8.643 -1.7963 -1.0358  1.2437
  248MOL0     H33450   6.091   4.111   8.879 -2.2560 -3.0425 -0.8704
  248MOL0     H33451   6.252   4.088   8.948  0.3857  0.6490 -0.0668
  248MOL0     H33452   6.139   3.902   8.733 -0.1974 -1.5413 -0.2998
  248MOL0     H33453   6.289   3.882   8.812 -0.6151 -1.6961 -1.6537
  248MOL0     H33454   6.013   3.889   8.950 -1.8117 -1.3724 -1.7488
  248MOL0     H33455   6.177   3.822   9.011  1.8165 -1.1212 -1.7209
  248MOL0     H33456   6.003   3.707   8.785 -0.2652 -2.1460 -0.2416
  248MOL0     H33457   6.154   3.647   8.842 -0.0491 -1.2548  1.8347
  248MOL0     H33458   5.899   3.677   8.994  1.0733  0.3201  2.3809
  248MOL0     H33459   6.057   3.636   9.076 -1.5303  1.4192  1.7691
  248MOL0     H33460   6.082   3.439   8.916 -0.1672  0.3840 -2.4917
  248MOL0     H33461   5.936   3.493   8.837 -0.4972 -2.2176 -0.2512
  248MOL0     H33462   6.504   4.518   8.873  1.0597 -1.3165  2.4883
  248MOL0     H33463   6.749   4.601   8.857  0.4735 -0.9077 -0.2904
  248MOL0     H33464   7.152   4.480   8.837 -1.7343  1.1865  0.5832
  248MOL0     H33465   7.348   4.627   8.892 -1.6662 -2.3049  1.4393
  248MOL0     H33466   8.757   4.519   9.667 -0.4274 -0.5998  0.7106
  248MOL0     H33467   9.001   4.560   9.702 -0.1942 -0.6816  2.1668
  248MOL0     H33468   9.301   4.884  10.151 -0.3070  0.7376 -0.2508
  248MOL0     H33469   9.527   4.915  10.178 -0.3701 -0.6910  0.3031
  248MOL0     H33470   9.732   4.646  10.034 -4.5445  3.2026  0.0443
  248MOL0     H33471   9.876   4.721   9.949  1.0653 -0.5359  0.5759
  248MOL0     H33472   9.818   4.737  10.240 -1.0807  1.9516 -0.3108
  248MOL0     H33473   9.949   4.830  10.144  1.1024 -0.3217  1.6006
  248MOL0     H33474  10.044   4.606  10.102  2.3891  0.0231  2.1721
  248MOL0     H33475   9.908   4.531  10.201 -0.1833 -0.0629 -1.6065
  248MOL0     H33476   9.992   4.668  10.394 -0.6082  2.0953 -1.4298
  248MOL0     H33477  10.112   4.739  10.284 -3.9091  2.5174 -0.8592
  248MOL0     H33478  10.293   4.367  10.381 -0.3289  0.1791  4.0184
  248MOL0     H33479   9.624   4.725   9.799  1.5743  2.2309  0.3348
  248MOL0     H33480   9.375   4.700   9.763 -1.6729  1.9275 -0.4402
  249MOL0     O33481   7.676   2.322   2.878  0.6409  0.6271 -0.2565
  249MOL0     C33482   7.745   2.250   2.959  0.2387  0.4153 -0.1168
  249MOL0     O33483   7.698   2.188   3.067 -0.1427  0.2146 -0.6070
  249MOL0     C33484   7.564   2.185   3.091 -0.1190  0.1775 -0.0772
  249MOL0     C33485   7.483   2.107   3.021  0.0479  0.4357  0.0663
  249MOL0     C33486   7.347   2.095   3.048  1.1356 -0.9826 -0.1059
  249MOL0     C33487   7.291   2.158   3.163  0.5484  0.2382 -0.3414
  249MOL0     O33488   7.160   2.158   3.197  0.9904  0.2273 -0.6826
  249MOL0     C33489   7.057   2.100   3.108  0.4644 -1.0214  0.3824
  249MOL0     C33490   6.922   2.101   3.183 -0.0974  0.5213 -0.4450
  249MOL0     C33491   6.805   2.069   3.085  0.2809 -0.5226 -0.3380
  249MOL0     C33492   6.668   2.100   3.144 -0.3804  0.0287 -0.2923
  249MOL0     C33493   6.557   2.115   3.032 -0.0083  0.7632  0.1140
  249MOL0     C33494   6.415   2.142   3.093  0.1747 -0.4607  0.6926
  249MOL0     C33495   6.288   2.115   2.995  0.3256 -0.3956  0.0630
  249MOL0     C33496   6.294   1.991   2.923  0.1366  0.1355  0.6198
  249MOL0     N33497   6.176   1.983   2.837 -0.0264  0.5258  0.1692
  249MOL0     C33498   6.160   1.927   2.712 -0.2073 -0.1688  0.1084
  249MOL0     C33499   6.038   1.964   2.661  0.3489 -0.1706  0.4741
  249MOL0     C33500   5.987   1.941   2.526  0.0790  0.6395 -0.2284
  249MOL0     C33501   5.839   1.984   2.504 -0.0272  0.4235 -0.1774
  249MOL0     C33502   5.792   1.919   2.373 -0.4445  0.0680  0.2667
  249MOL0     C33503   5.646   1.963   2.344  0.0384 -0.4196  0.2820
  249MOL0     O33504   5.627   1.939   2.202  0.7163 -0.2070  0.4341
  249MOL0     C33505   5.519   1.863   2.156 -0.2312 -0.6812  0.3388
  249MOL0     C33506   5.518   1.828   2.023  0.4610  0.4919 -0.5778
  249MOL0     C33507   5.430   1.736   1.979 -0.2803  0.8793  0.9261
  249MOL0     C33508   5.444   1.697   1.828  0.1939  0.9993  0.9762
  249MOL0     C33509   5.330   1.673   2.057 -0.7307 -0.4282  0.1552
  249MOL0     C33510   5.228   1.572   2.007  0.1125 -0.1950  0.1470
  249MOL0     O33511   5.226   1.527   1.881  0.2080 -0.6509 -0.2675
  249MOL0     C33512   5.121   1.444   1.845  0.3502  0.2045 -0.2625
  249MOL0     C33513   5.159   1.324   1.781  0.3226 -0.9315  0.6345
  249MOL0     C33514   5.065   1.246   1.705  0.4760  0.8153 -0.2500
  249MOL0     C33515   4.931   1.285   1.709  0.7490 -0.4093 -0.2642
  249MOL0     O33516   4.832   1.219   1.652  0.0081  0.4030  0.2329
  249MOL0     C33517   4.859   1.083   1.639  0.2776  1.3115 -0.1878
  249MOL0     C33518   4.732   1.002   1.603 -0.6500 -0.2568  0.4782
  249MOL0     C33519   4.667   1.045   1.474 -0.1553 -0.5015 -0.3594
  249MOL0     C33520   4.534   0.986   1.466  0.5203  0.0248  0.7002
  249MOL0     C33521   4.474   1.016   1.331 -0.3819 -0.0159 -0.1386
  249MOL0     C33522   4.334   0.952   1.322  0.3318 -0.1359 -0.3153
  249MOL0     C33523   4.277   0.965   1.171 -0.5732  0.7309 -0.1278
  249MOL0     C33524   4.137   0.907   1.141  0.3413 -0.1343 -0.1494
  249MOL0    Cl33525   4.128   0.737   1.197  0.3490 -0.0966  0.3832
  249MOL0     C33526   4.896   1.407   1.759  0.2301 -0.4606 -0.4206
  249MOL0     C33527   4.991   1.484   1.833 -0.1677  0.1522  0.3152
  249MOL0     O33528   5.149   1.543   2.095  0.4430 -0.5425  0.9061
  249MOL0     C33529   5.334   1.709   2.191 -0.2859 -0.5929 -0.2359
  249MOL0     C33530   5.421   1.801   2.238  0.3676 -0.0863 -0.4469
  249MOL0     N33531   5.976   2.043   2.758  0.5648 -0.4435  0.8993
  249MOL0     N33532   6.056   2.050   2.852  0.9502 -0.3859  0.3962
  249MOL0     C33533   7.378   2.232   3.235  0.6728 -0.8945 -0.7817
  249MOL0     C33534   7.506   2.252   3.199  0.4190  0.3489  0.0510
  249MOL0     C33535   7.896   2.257   2.927  0.6299  0.8170 -0.0680
  249MOL0     C33536   7.932   2.324   2.812 -0.2144 -0.1364  0.0624
  249MOL0     C33537   8.066   2.318   2.771 -0.2968  0.8561 -0.2808
  249MOL0     C33538   8.160   2.247   2.860 -0.3889  0.5897  0.3487
  249MOL0     O33539   8.293   2.232   2.808 -0.4992  0.1699 -0.2409
  249MOL0     C33540   8.379   2.283   2.907 -0.0265  0.2349 -0.1316
  249MOL0     C33541   8.517   2.280   2.843 -0.1777 -0.1866 -0.4632
  249MOL0     C33542   8.531   2.369   2.714 -0.3465 -0.2115 -0.8943
  249MOL0     C33543   8.665   2.365   2.661 -0.6184  0.6687  0.6667
  249MOL0     C33544   8.683   2.439   2.541 -0.4505 -0.7786 -0.5089
  249MOL0     C33545   8.693   2.493   2.427  0.7823 -0.7542  0.1629
  249MOL0     C33546   8.122   2.181   2.975 -0.1640 -0.0197  0.4357
  249MOL0     C33547   7.984   2.190   3.004  0.0779  0.3388 -0.4053
  249MOL0     H33548   7.515   2.062   2.927 -0.5741 -1.6909  0.8172
  249MOL0     H33549   7.286   2.041   2.977  0.0553  0.8963 -0.6544
  249MOL0     H33550   7.051   2.153   3.012  0.5194  1.1725  1.5139
  249MOL0     H33551   7.078   1.995   3.089 -1.9866 -1.6001  0.5612
  249MOL0     H33552   6.920   2.029   3.266  1.2250  1.0538  0.0794
  249MOL0     H33553   6.903   2.196   3.233  1.7664 -0.4523  2.4252
  249MOL0     H33554   6.818   2.136   2.999  3.0471 -1.2103 -0.5423
  249MOL0     H33555   6.820   1.970   3.041  2.0535 -0.6715  0.5415
  249MOL0     H33556   6.641   2.016   3.209  0.3473  2.0477  2.8205
  249MOL0     H33557   6.674   2.194   3.199  0.4713 -0.1551 -0.0477
  249MOL0     H33558   6.581   2.194   2.960 -0.4068 -1.8303 -3.0972
  249MOL0     H33559   6.562   2.020   2.978  5.9731 -0.7139  2.4027
  249MOL0     H33560   6.406   2.064   3.170  1.8664 -1.3083  0.0806
  249MOL0     H33561   6.416   2.247   3.123 -1.4563  0.4330 -2.0718
  249MOL0     H33562   6.203   2.104   3.063  1.9393  1.2010  2.4844
  249MOL0     H33563   6.269   2.197   2.926 -0.2283  0.6814  1.4439
  249MOL0     H33564   6.305   1.915   3.001  0.2273  0.2943  0.7631
  249MOL0     H33565   6.386   1.989   2.863 -0.6976  2.9484 -0.9368
  249MOL0     H33566   6.232   1.872   2.652  0.1368  4.1564 -4.0134
  249MOL0     H33567   6.055   1.986   2.453  1.6016 -0.8771  0.2143
  249MOL0     H33568   5.988   1.832   2.521  1.7832  0.6194  0.2735
  249MOL0     H33569   5.848   2.092   2.490  2.3247  0.3855  0.5959
  249MOL0     H33570   5.773   1.947   2.583  0.1014 -0.9199 -0.6759
  249MOL0     H33571   5.790   1.811   2.386  0.3790  0.2106  1.6304
  249MOL0     H33572   5.872   1.936   2.300  2.3384 -2.4463  2.5248
  249MOL0     H33573   5.635   2.072   2.353  4.6617  0.5518 -2.4153
  249MOL0     H33574   5.569   1.929   2.413  0.9092 -1.9041  0.5793
  249MOL0     H33575   5.590   1.865   1.951  0.5085 -2.2338 -2.0527
  249MOL0     H33576   5.533   1.733   1.777 -1.6625  2.0291 -1.7191
  249MOL0     H33577   5.475   1.592   1.818 -1.6031  0.4049  1.2777
  249MOL0     H33578   5.352   1.718   1.773  1.7948 -0.3582 -2.4930
  249MOL0     H33579   5.261   1.290   1.795  0.3007 -2.0836 -1.4772
  249MOL0     H33580   5.109   1.164   1.650 -0.3589 -1.4390  2.2402
  249MOL0     H33581   4.944   1.061   1.574  2.4637  2.5406  2.0433
  249MOL0     H33582   4.884   1.049   1.740 -0.7960  0.8350 -0.0775
  249MOL0     H33583   4.760   0.896   1.596 -0.5644 -0.1256 -2.0585
  249MOL0     H33584   4.662   0.999   1.687 -3.2526  0.6526 -1.5535
  249MOL0     H33585   4.731   1.029   1.386  0.8517  0.4557  0.1726
  249MOL0     H33586   4.643   1.152   1.478 -3.0420 -1.1124  1.5428
  249MOL0     H33587   4.545   0.877   1.471 -1.1916 -0.1419  1.1317
  249MOL0     H33588   4.464   1.015   1.544  1.0197 -2.2966  2.0996
  249MOL0     H33589   4.536   0.960   1.259  1.0297  0.8312  0.3857
  249MOL0     H33590   4.483   1.124   1.317  0.0980 -0.0109  0.2100
  249MOL0     H33591   4.337   0.845   1.347  0.4363  0.1119  0.7775
  249MOL0     H33592   4.270   1.011   1.387 -0.4485 -0.7200 -0.5367
  249MOL0     H33593   4.339   0.907   1.102 -0.2812 -1.9208  2.1874
  249MOL0     H33594   4.281   1.073   1.155 -0.5724  0.6527 -0.6690
  249MOL0     H33595   4.113   0.925   1.036  0.7094 -0.7286 -0.3387
  249MOL0     H33596   4.067   0.958   1.209  0.0332 -1.0006  0.1941
  249MOL0     H33597   4.792   1.438   1.753  0.1901  0.3445  2.6274
  249MOL0     H33598   4.970   1.581   1.877  0.5527  1.4339 -2.0101
  249MOL0     H33599   5.270   1.658   2.262  0.0295  0.3771  0.7680
  249MOL0     H33600   5.426   1.815   2.345  0.0747  1.5011 -0.6088
  249MOL0     H33601   7.348   2.291   3.321 -0.2962  1.4276 -2.6033
  249MOL0     H33602   7.571   2.317   3.257  2.2066 -0.9136 -0.4418
  249MOL0     H33603   7.859   2.368   2.745 -0.2639 -0.0419  0.1784
  249MOL0     H33604   8.094   2.375   2.683  0.1405  0.8060 -0.1745
  249MOL0     H33605   8.342   2.383   2.931 -3.5607 -0.9401 -0.1232
  249MOL0     H33606   8.368   2.227   3.000 -0.8418  4.2584  2.4513
  249MOL0     H33607   8.542   2.178   2.813  0.2367 -1.0655  2.5355
  249MOL0     H33608   8.594   2.305   2.916  0.6912  0.8237 -1.6764
  249MOL0     H33609   8.500   2.468   2.748 -0.9551 -2.0974  5.2944
  249MOL0     H33610   8.458   2.332   2.641 -2.7065  0.9513  0.7572
  249MOL0     H33611   8.690   2.261   2.638 -2.4309  0.1360  0.9733
  249MOL0     H33612   8.737   2.392   2.739  1.7419  1.3662 -1.6148
  249MOL0     H33613   8.701   2.551   2.337  1.7427  0.9103  1.2472
  249MOL0     H33614   8.190   2.110   3.021  0.2210 -1.1995 -1.8078
  249MOL0     H33615   7.953   2.139   3.095  0.8111  0.5646 -0.0211
  250MOL0     O33616   1.964   8.981  10.321  0.1126  0.0276 -0.1072
  250MOL0     C33617   2.050   8.985  10.411 -0.0742  0.2709 -0.5555
  250MOL0     O33618   2.024   8.996  10.551 -0.4611  0.0756 -0.1663
  250MOL0     C33619   1.903   8.965  10.611 -1.4625  0.2260  0.7779
  250MOL0     C33620   1.784   8.943  10.547 -0.4018  0.6035 -0.0517
  250MOL0     C33621   1.666   8.910  10.619  0.4206 -0.3637  0.1646
  250MOL0     C33622   1.669   8.894  10.763  0.3666 -0.2872  0.2214
  250MOL0     O33623   1.557   8.855  10.825 -0.2926  0.6047 -0.2235
  250MOL0     C33624   1.536   8.887  10.966 -0.4278 -0.4402  0.6600
  250MOL0     C33625   1.506   9.041  10.995  0.2595 -0.5798 -0.1215
  250MOL0     C33626   1.397   9.105  10.911  0.0685 -0.5651  0.2653
  250MOL0     C33627   1.318   9.218  10.989 -0.1429  0.6085  0.0413
  250MOL0     C33628   1.204   9.283  10.915 -0.8265 -0.1977  1.3941
  250MOL0     C33629   1.144   9.384  11.015  0.2995 -0.3289 -0.0231
  250MOL0     C33630   1.088   9.340  11.142 -0.8509 -0.2328 -0.0345
  250MOL0     C33631   1.006   9.448  11.212  0.7730  0.1516 -0.1895
  250MOL0     N33632   0.872   9.468  11.155 -0.0094  0.2555  0.6014
  250MOL0     C33633   0.778   9.367  11.135 -0.3017  0.7720 -0.9260
  250MOL0     C33634   0.656   9.433  11.109  0.4679  1.1383 -0.3880
  250MOL0     C33635   0.520   9.362  11.075  0.4427  0.8416 -0.5399
  250MOL0     C33636   0.421   9.366  11.193 -0.3658  0.1487  0.0154
  250MOL0     C33637   0.461   9.296  11.317  0.2344 -0.3633  0.1291
  250MOL0     C33638   0.339   9.287  11.414 -0.0901 -0.1295 -0.4595
  250MOL0     O33639   0.268   9.171  11.385  0.0846  0.0853  0.0849
  250MOL0     C33640   0.133   9.170  11.408 -0.4336 -0.3467 -0.2645
  250MOL0     C33641   0.063   9.254  11.496  0.5076  0.3808 -0.2189
  250MOL0     C33642  -0.085   9.266  11.493  0.5280  0.4666  0.6315
  250MOL0     C33643  -0.149   9.360  11.584 -0.1138 -1.3872  0.5063
  250MOL0     C33644  -0.159   9.192  11.388  1.0565 -0.8276  0.0808
  250MOL0     C33645  -0.305   9.218  11.357  0.9633  0.0182  0.3074
  250MOL0     O33646  -0.397   9.221  11.459 -0.0273 -0.4008  0.4991
  250MOL0     C33647  -0.519   9.261  11.426 -0.3456 -0.7352 -0.1349
  250MOL0     C33648  -0.552   9.383  11.470  0.9136 -0.7900 -0.1165
  250MOL0     C33649  -0.683   9.419  11.437  0.2990  0.0112 -0.7633
  250MOL0     C33650  -0.770   9.337  11.366  0.3221 -0.2148  0.5510
  250MOL0     O33651  -0.892   9.384  11.344  0.4856 -0.1957 -0.4518
  250MOL0     C33652  -0.991   9.292  11.301  1.0208 -0.9450 -0.8214
  250MOL0     C33653  -1.126   9.374  11.307 -0.3324 -0.5178 -0.4952
  250MOL0     C33654  -1.148   9.439  11.447 -0.0783  0.2313 -0.3372
  250MOL0     C33655  -1.298   9.440  11.482  0.7467  0.4908 -1.0085
  250MOL0     C33656  -1.346   9.311  11.533  0.0192 -0.3723 -0.1339
  250MOL0     C33657  -1.492   9.305  11.580 -0.4256  0.5661  0.3678
  250MOL0     C33658  -1.531   9.159  11.610  0.1420  0.5956 -0.1260
  250MOL0     C33659  -1.680   9.139  11.654  0.0384 -0.3623  0.1789
  250MOL0    Cl33660  -1.784   9.142  11.517  0.0404  0.5924  0.4172
  250MOL0     C33661  -0.729   9.217  11.320 -0.9287  0.7704  0.0690
  250MOL0     C33662  -0.595   9.176  11.355 -0.1078  0.3023 -0.3084
  250MOL0     O33663  -0.336   9.224  11.231 -0.3764  0.6062  0.2327
  250MOL0     C33664  -0.087   9.102  11.309 -0.7001 -0.9189  0.7796
  250MOL0     C33665   0.051   9.095  11.320 -0.8895 -0.8708  0.1109
  250MOL0     N33666   0.678   9.567  11.121 -0.2572  0.1027 -0.0026
  250MOL0     N33667   0.807   9.587  11.144  0.1616  0.1006  0.4968
  250MOL0     C33668   1.786   8.931  10.829  0.5122 -1.0000 -0.1120
  250MOL0     C33669   1.907   8.961  10.756  0.0732 -0.1469  0.3482
  250MOL0     C33670   2.189   8.996  10.360  0.5010  0.1343 -0.1161
  250MOL0     C33671   2.301   9.009  10.449  0.2619  0.2917 -0.1427
  250MOL0     C33672   2.425   9.041  10.403  0.0664  0.5028  0.0925
  250MOL0     C33673   2.458   9.041  10.264 -0.6596  0.2074 -0.7758
  250MOL0     O33674   2.580   9.092  10.230  0.8043 -0.0151  0.2565
  250MOL0     C33675   2.628   9.080  10.097 -0.5822  1.1238  0.4271
  250MOL0     C33676   2.750   9.164  10.056 -0.8588  0.2357 -0.6626
  250MOL0     C33677   2.808   9.101   9.935 -1.1676  0.4184  0.6395
  250MOL0     C33678   2.923   9.193   9.885  1.0146  0.7842  0.4375
  250MOL0     C33679   3.055   9.138   9.897  0.5435  0.0802  1.0508
  250MOL0     C33680   3.174   9.109   9.915  0.3336 -0.0043  0.4151
  250MOL0     C33681   2.352   9.007  10.177 -0.3835  0.9398  0.1413
  250MOL0     C33682   2.220   8.992  10.226  0.0938 -0.1724  0.1999
  250MOL0     H33683   1.772   8.950  10.439 -1.7275  0.3474  0.0747
  250MOL0     H33684   1.573   8.886  10.569 -0.6837 -0.7781  2.3014
  250MOL0     H33685   1.447   8.831  10.997  0.1797 -0.3760  2.6695
  250MOL0     H33686   1.621   8.849  11.023  0.8230  0.9977 -0.1654
  250MOL0     H33687   1.480   9.044  11.101 -0.2456 -0.4624 -0.2471
  250MOL0     H33688   1.598   9.098  10.983  0.3622 -0.5183  0.9140
  250MOL0     H33689   1.439   9.154  10.823 -4.0078 -0.1361 -1.6581
  250MOL0     H33690   1.330   9.028  10.871  0.6440 -2.6413  2.9461
  250MOL0     H33691   1.284   9.182  11.087  1.9219 -0.5952  0.3664
  250MOL0     H33692   1.385   9.303  11.004 -1.1827  1.5903 -0.7033
  250MOL0     H33693   1.230   9.343  10.827 -0.5050  0.7284  2.1096
  250MOL0     H33694   1.134   9.209  10.877 -0.3216  0.5471 -1.1624
  250MOL0     H33695   1.218   9.461  11.040  0.2936 -0.4718  0.4585
  250MOL0     H33696   1.072   9.440  10.955  1.7276  3.2260  1.2924
  250MOL0     H33697   1.018   9.257  11.122 -1.0874  0.1785 -0.9735
  250MOL0     H33698   1.161   9.309  11.218 -0.7531  2.4231  1.0358
  250MOL0     H33699   1.064   9.540  11.212 -0.6427  1.0826  0.1629
  250MOL0     H33700   0.997   9.422  11.318  1.6286  0.9072  0.0777
  250MOL0     H33701   0.794   9.260  11.142 -2.9851  0.3591  0.6045
  250MOL0     H33702   0.473   9.405  10.986 -1.5941  0.0121  0.0719
  250MOL0     H33703   0.537   9.255  11.057  0.9987  1.1998 -2.3353
  250MOL0     H33704   0.326   9.325  11.158 -0.1370  0.3248 -0.8368
  250MOL0     H33705   0.413   9.473  11.214  0.5391 -0.0127  1.2882
  250MOL0     H33706   0.540   9.353  11.366  1.0470  0.3747 -1.9251
  250MOL0     H33707   0.485   9.193  11.287  0.3768 -0.5960  1.0076
  250MOL0     H33708   0.278   9.377  11.407  2.7735  1.9783 -0.2420
  250MOL0     H33709   0.373   9.278  11.518 -1.6864  0.1634  0.1234
  250MOL0     H33710   0.124   9.302  11.571  3.3794 -1.7950 -0.9837
  250MOL0     H33711  -0.221   9.311  11.650 -1.3715 -1.5683 -0.9312
  250MOL0     H33712  -0.079   9.422  11.640 -0.0691 -2.1772  1.3426
  250MOL0     H33713  -0.199   9.436  11.523  2.5690  1.2352  1.3413
  250MOL0     H33714  -0.488   9.439  11.536  3.1308 -0.9085 -2.0267
  250MOL0     H33715  -0.711   9.518  11.470  3.0500  1.1830 -1.6096
  250MOL0     H33716  -0.964   9.260  11.200  2.3348 -0.5782 -0.6019
  250MOL0     H33717  -1.007   9.205  11.364 -0.6287 -0.1675 -0.1103
  250MOL0     H33718  -1.129   9.452  11.230  0.9921  0.3847  0.3205
  250MOL0     H33719  -1.201   9.302  11.274 -0.1714 -0.3358 -1.2866
  250MOL0     H33720  -1.113   9.543  11.445  1.4367 -0.2683 -2.5832
  250MOL0     H33721  -1.089   9.391  11.525 -1.0651 -1.4955 -0.6012
  250MOL0     H33722  -1.315   9.512  11.563 -2.2234  0.9903 -1.9519
  250MOL0     H33723  -1.358   9.464  11.394 -0.2751 -0.2632 -0.5345
  250MOL0     H33724  -1.293   9.277  11.622  0.3253 -0.1723 -0.2381
  250MOL0     H33725  -1.330   9.234  11.457  4.0783  1.2694 -1.2409
  250MOL0     H33726  -1.500   9.352  11.679 -1.5218  0.5359  0.2993
  250MOL0     H33727  -1.567   9.350  11.515 -1.6709  1.1276  2.1112
  250MOL0     H33728  -1.474   9.118  11.693 -2.0994 -0.3619  1.0119
  250MOL0     H33729  -1.522   9.106  11.514 -1.1790 -1.7149  0.9673
  250MOL0     H33730  -1.710   9.217  11.724 -1.6407 -1.6020  0.9307
  250MOL0     H33731  -1.692   9.041  11.703  0.2830 -2.2932 -3.3134
  250MOL0     H33732  -0.790   9.153  11.256 -1.0348  1.1122 -0.1761
  250MOL0     H33733  -0.549   9.079  11.335  2.5611  1.3232  0.4360
  250MOL0     H33734  -0.134   9.047  11.228 -1.4674 -0.1280  0.6815
  250MOL0     H33735   0.100   9.032  11.246  0.9357  0.2393  0.3278
  250MOL0     H33736   1.787   8.923  10.937  1.3861 -0.1990 -0.0545
  250MOL0     H33737   1.993   8.980  10.820  0.6032  1.0379 -0.6613
  250MOL0     H33738   2.293   9.015  10.557 -0.5509  0.8117 -0.2271
  250MOL0     H33739   2.495   9.072  10.480 -0.1877  1.2244  0.0407
  250MOL0     H33740   2.651   8.973  10.086  1.6454  1.7319 -1.5864
  250MOL0     H33741   2.557   9.105  10.018 -0.0494 -1.6811 -1.0838
  250MOL0     H33742   2.823   9.172  10.138 -0.6296  0.5448 -0.8916
  250MOL0     H33743   2.725   9.267  10.029 -0.2388  0.8951  1.1194
  250MOL0     H33744   2.735   9.104   9.854  0.9523  0.9310 -1.3552
  250MOL0     H33745   2.849   9.001   9.953 -0.0450  0.7100 -0.1960
  250MOL0     H33746   2.930   9.289   9.937  1.4271  3.7567 -4.4371
  250MOL0     H33747   2.900   9.225   9.783 -2.2458  0.7959  1.0715
  250MOL0     H33748   3.281   9.106   9.921  0.5029  1.3151 -1.1675
  250MOL0     H33749   2.370   9.018  10.070 -1.8156  2.8252  0.0430
  250MOL0     H33750   2.137   8.982  10.157  0.5740 -0.4155 -0.3533
  251MOL0     O33751   6.361   1.326   8.197 -0.2086 -0.4501  0.1687
  251MOL0     C33752   6.399   1.340   8.314 -1.3605  0.4739  0.5441
  251MOL0     O33753   6.324   1.339   8.417  0.7993  0.5174  0.3158
  251MOL0     C33754   6.187   1.341   8.416 -0.4071 -0.2876 -0.6539
  251MOL0     C33755   6.131   1.382   8.534 -0.4557 -0.2633  0.0865
  251MOL0     C33756   5.989   1.383   8.554 -0.3717 -0.1907 -0.9902
  251MOL0     C33757   5.901   1.337   8.458  0.4475  0.2722 -0.2205
  251MOL0     O33758   5.766   1.331   8.491  0.2344 -1.3410  0.0242
  251MOL0     C33759   5.683   1.422   8.409  0.3219  0.8217 -0.1781
  251MOL0     C33760   5.539   1.375   8.404  0.4131  0.5573  0.2158
  251MOL0     C33761   5.467   1.426   8.280  0.3168 -0.2519  0.2970
  251MOL0     C33762   5.363   1.532   8.317 -0.6046  0.8859  0.5085
  251MOL0     C33763   5.274   1.576   8.199  0.3158  0.0095 -0.1940
  251MOL0     C33764   5.146   1.629   8.264  0.3587 -0.5563 -0.2899
  251MOL0     C33765   5.051   1.699   8.169  0.8665 -0.0305 -0.0410
  251MOL0     C33766   4.940   1.600   8.115 -0.7920  0.2808  0.0804
  251MOL0     N33767   4.837   1.561   8.214 -0.3530  0.1993 -0.2985
  251MOL0     C33768   4.796   1.428   8.243 -0.1284 -0.3791  0.5894
  251MOL0     C33769   4.677   1.433   8.305 -0.3141 -0.1115 -0.2656
  251MOL0     C33770   4.611   1.309   8.362 -0.5055  0.1038  0.4508
  251MOL0     C33771   4.489   1.273   8.274 -0.0330 -0.6589  0.1414
  251MOL0     C33772   4.415   1.154   8.320  0.5086  0.7904  0.3082
  251MOL0     C33773   4.303   1.132   8.223  0.1395 -0.2599  0.7948
  251MOL0     O33774   4.236   1.024   8.289 -0.2972 -1.1806 -0.1369
  251MOL0     C33775   4.101   1.018   8.312 -0.4683 -0.3939 -0.6549
  251MOL0     C33776   4.048   0.951   8.416 -0.1842  0.4744  0.4554
  251MOL0     C33777   3.912   0.953   8.447 -0.4512  0.8559 -0.7401
  251MOL0     C33778   3.882   0.883   8.573  0.0652  0.2378 -0.1961
  251MOL0     C33779   3.816   1.020   8.362 -0.3264  0.3619 -0.2581
  251MOL0     C33780   3.668   1.033   8.398 -0.6979 -0.3399 -0.0348
  251MOL0     O33781   3.598   1.120   8.310 -0.0734  0.0125 -0.1491
  251MOL0     C33782   3.472   1.146   8.338 -0.2577  0.6216  0.9324
  251MOL0     C33783   3.376   1.043   8.341  0.0759 -0.2027 -0.0253
  251MOL0     C33784   3.237   1.068   8.357 -0.6389  1.1908 -0.8801
  251MOL0     C33785   3.196   1.199   8.389  0.5243  0.8084 -0.1017
  251MOL0     O33786   3.067   1.220   8.418  1.0843 -0.3119  0.4580
  251MOL0     C33787   3.023   1.354   8.449  0.0247  0.5500  0.3460
  251MOL0     C33788   2.883   1.348   8.486 -0.1968 -0.1732  0.9851
  251MOL0     C33789   2.806   1.481   8.447  0.2154  0.0686 -0.1422
  251MOL0     C33790   2.673   1.502   8.525 -0.0853  0.8407  0.2386
  251MOL0     C33791   2.596   1.623   8.457 -0.9310  0.0374 -0.3094
  251MOL0     C33792   2.442   1.612   8.493 -0.2151  0.2715 -0.1375
  251MOL0     C33793   2.418   1.617   8.645 -0.0103  0.8594 -1.4040
  251MOL0     C33794   2.276   1.582   8.696  0.5722 -0.2145  0.6280
  251MOL0    Cl33795   2.145   1.635   8.586 -0.2696 -0.3528 -0.2930
  251MOL0     C33796   3.299   1.296   8.412  0.1361  0.6747 -0.0866
  251MOL0     C33797   3.429   1.263   8.378 -0.3555 -0.8931 -0.5336
  251MOL0     O33798   3.628   0.986   8.502  0.4223 -0.2639  0.0665
  251MOL0     C33799   3.868   1.081   8.248  0.3781 -0.5514 -0.4942
  251MOL0     C33800   4.005   1.086   8.232 -0.5653 -0.3004  0.9674
  251MOL0     N33801   4.645   1.575   8.298  0.5723  0.5769  0.0496
  251MOL0     N33802   4.740   1.652   8.246  0.3307 -0.3207 -0.4665
  251MOL0     C33803   5.956   1.292   8.336  0.3899 -0.2023  0.1594
  251MOL0     C33804   6.100   1.297   8.322  0.0263 -0.2043  0.2615
  251MOL0     C33805   6.539   1.350   8.331  0.1149  0.2278  0.5067
  251MOL0     C33806   6.632   1.325   8.227 -0.8651 -0.7747  0.2770
  251MOL0     C33807   6.770   1.306   8.254  0.2127  0.7354  0.0182
  251MOL0     C33808   6.824   1.314   8.387 -0.5990  0.3930 -0.0578
  251MOL0     O33809   6.952   1.305   8.428  0.2990  0.6714  1.0647
  251MOL0     C33810   7.047   1.258   8.330  0.5552 -0.3763  0.5485
  251MOL0     C33811   7.143   1.374   8.289 -0.3614 -0.3329 -0.0712
  251MOL0     C33812   7.234   1.409   8.405 -0.2889  0.1337 -0.4845
  251MOL0     C33813   7.297   1.550   8.375 -0.5743  0.3847  0.3427
  251MOL0     C33814   7.371   1.553   8.248 -0.1801  0.9426 -0.1131
  251MOL0     C33815   7.413   1.541   8.131  0.2067 -0.5278  0.2759
  251MOL0     C33816   6.729   1.327   8.490  0.0666  0.5013 -0.9627
  251MOL0     C33817   6.591   1.352   8.462  0.4228 -0.1760  0.7262
  251MOL0     H33818   6.187   1.397   8.625 -0.5570  4.4431 -0.3780
  251MOL0     H33819   5.952   1.412   8.652 -0.3705  2.0546 -1.6015
  251MOL0     H33820   5.704   1.523   8.446  4.1930  1.0648 -2.4918
  251MOL0     H33821   5.716   1.422   8.305 -2.9556 -0.1311 -1.3507
  251MOL0     H33822   5.547   1.266   8.398 -2.6855  0.2790 -0.4500
  251MOL0     H33823   5.489   1.386   8.501  3.0101  0.2756  1.6826
  251MOL0     H33824   5.532   1.455   8.196 -2.2882  1.0266 -1.4063
  251MOL0     H33825   5.419   1.339   8.234  0.3629 -0.3858  0.4990
  251MOL0     H33826   5.308   1.492   8.402  0.8724  0.6620  1.3950
  251MOL0     H33827   5.409   1.628   8.343  0.1424  1.0217 -1.1678
  251MOL0     H33828   5.329   1.640   8.129  2.0897  0.5312  1.6021
  251MOL0     H33829   5.244   1.485   8.147  2.4692 -0.5214 -0.5999
  251MOL0     H33830   5.096   1.546   8.316  2.9635 -0.1086  3.3059
  251MOL0     H33831   5.165   1.692   8.351  0.2554 -1.1580  0.1801
  251MOL0     H33832   4.997   1.787   8.206  1.0049  0.0750 -0.0879
  251MOL0     H33833   5.107   1.742   8.086 -1.0543 -1.3974 -2.1577
  251MOL0     H33834   4.994   1.509   8.088 -0.6049 -0.1196  1.6900
  251MOL0     H33835   4.886   1.635   8.027  1.5199 -0.2461 -1.6447
  251MOL0     H33836   4.849   1.334   8.233 -1.6755 -1.1376 -0.9296
  251MOL0     H33837   4.665   1.216   8.382 -4.3498 -2.0348  1.9397
  251MOL0     H33838   4.578   1.330   8.464  0.2565  2.1974  0.3000
  251MOL0     H33839   4.508   1.265   8.166 -0.8202  3.2568 -0.4518
  251MOL0     H33840   4.436   1.368   8.278  4.6419  2.2269  2.5877
  251MOL0     H33841   4.378   1.173   8.421 -0.6327 -1.5334  0.3709
  251MOL0     H33842   4.487   1.072   8.319 -0.5497 -0.2229  2.1172
  251MOL0     H33843   4.347   1.105   8.127  1.1545  2.7923  0.3030
  251MOL0     H33844   4.238   1.220   8.217 -0.4277 -0.6715  0.8307
  251MOL0     H33845   4.118   0.891   8.473  0.0310 -0.3232 -0.6135
  251MOL0     H33846   3.888   0.944   8.663 -1.1128 -1.1982  0.9151
  251MOL0     H33847   3.790   0.824   8.570  0.3988 -0.2722 -2.9538
  251MOL0     H33848   3.958   0.806   8.593 -1.4367 -1.3992 -0.5152
  251MOL0     H33849   3.408   0.942   8.319 -1.2649 -0.5995 -0.2468
  251MOL0     H33850   3.159   0.993   8.363  1.2294 -0.7783  0.2691
  251MOL0     H33851   3.081   1.394   8.533 -1.7662  1.8042  1.0482
  251MOL0     H33852   3.035   1.426   8.367 -0.0905 -0.5444 -0.6592
  251MOL0     H33853   2.830   1.268   8.434 -0.3754  2.1205 -2.6452
  251MOL0     H33854   2.886   1.328   8.594  1.1794 -1.3228  0.7612
  251MOL0     H33855   2.803   1.482   8.338  0.6166  0.4110 -0.1544
  251MOL0     H33856   2.859   1.572   8.478 -2.1652  2.5308 -2.7143
  251MOL0     H33857   2.620   1.407   8.528  1.7878 -0.3455 -1.6790
  251MOL0     H33858   2.696   1.525   8.630  1.5520  2.9452 -0.5094
  251MOL0     H33859   2.596   1.615   8.348  0.1193 -0.8064 -0.2666
  251MOL0     H33860   2.639   1.717   8.492 -1.9690 -0.6497  3.2749
  251MOL0     H33861   2.380   1.687   8.443 -0.4563  0.3754  0.3064
  251MOL0     H33862   2.408   1.522   8.442  0.5451  2.0464 -4.1555
  251MOL0     H33863   2.439   1.718   8.680  1.0441 -0.1294  1.0515
  251MOL0     H33864   2.487   1.550   8.697 -3.2828 -0.2523  1.8856
  251MOL0     H33865   2.260   1.621   8.797 -1.4674 -1.7211  0.9434
  251MOL0     H33866   2.264   1.474   8.703  0.1989 -0.1578  0.9039
  251MOL0     H33867   3.280   1.400   8.437 -1.7432  0.4618 -0.4264
  251MOL0     H33868   3.494   1.347   8.398  0.4311 -1.3943 -0.9682
  251MOL0     H33869   3.801   1.133   8.181  0.6238  2.7943  1.6321
  251MOL0     H33870   4.042   1.140   8.145  1.1919  0.5604  2.1994
  251MOL0     H33871   5.884   1.255   8.264  0.5176  0.7229 -0.4677
  251MOL0     H33872   6.124   1.253   8.226 -0.7520 -1.3632  0.5637
  251MOL0     H33873   6.594   1.332   8.125 -0.4067 -1.7319  0.0323
  251MOL0     H33874   6.833   1.286   8.168 -1.5243 -5.2644 -0.3302
  251MOL0     H33875   7.090   1.167   8.375 -3.5241 -2.0021  1.6135
  251MOL0     H33876   6.999   1.231   8.235 -1.3720  1.1227  1.0485
  251MOL0     H33877   7.079   1.459   8.260  0.2298  0.1292 -0.0435
  251MOL0     H33878   7.188   1.343   8.194  1.2808 -0.3648  0.6826
  251MOL0     H33879   7.317   1.337   8.407  0.1340  0.5506  2.7266
  251MOL0     H33880   7.182   1.420   8.500  1.6660  3.3591  0.3737
  251MOL0     H33881   7.371   1.577   8.450 -1.6281  1.0040  1.1839
  251MOL0     H33882   7.218   1.623   8.392  1.3668  2.2033  2.2043
  251MOL0     H33883   7.449   1.548   8.030  0.2783  0.6944  0.3724
  251MOL0     H33884   6.768   1.338   8.591  0.8472  2.1446 -1.4085
  251MOL0     H33885   6.524   1.363   8.547 -1.7996  1.0432 -1.0893
  252MOL0     O33886   5.584   9.578   3.075  0.4579  0.2608  0.3841
  252MOL0     C33887   5.656   9.554   3.173  0.2453 -0.4835 -0.4044
  252MOL0     O33888   5.782   9.493   3.170  0.3864 -0.6028 -0.1903
  252MOL0     C33889   5.829   9.444   3.052  0.4602  0.0131 -0.5186
  252MOL0     C33890   5.753   9.357   2.973  0.4580 -0.8461 -0.0861
  252MOL0     C33891   5.803   9.299   2.858 -0.1564  0.3672 -1.1477
  252MOL0     C33892   5.940   9.322   2.819 -0.4095  0.1147  0.8211
  252MOL0     O33893   5.984   9.263   2.700  0.4183 -0.3074 -0.0610
  252MOL0     C33894   5.987   9.343   2.589 -0.2217 -0.8401 -1.0160
  252MOL0     C33895   5.942   9.266   2.463  0.4395 -0.5007 -0.3728
  252MOL0     C33896   5.788   9.243   2.454 -1.0058  0.1563  0.0564
  252MOL0     C33897   5.749   9.259   2.299  0.5261  0.4967  0.4552
  252MOL0     C33898   5.620   9.190   2.268  0.2051  0.2521 -0.0520
  252MOL0     C33899   5.582   9.211   2.119 -0.4536  0.6590 -0.8719
  252MOL0     C33900   5.445   9.144   2.088 -0.9027 -1.1258 -0.2619
  252MOL0     C33901   5.390   9.182   1.945 -0.0828 -0.7491 -0.4141
  252MOL0     N33902   5.254   9.129   1.928 -0.2845  0.7171 -0.1699
  252MOL0     C33903   5.209   8.998   1.899  0.3930  0.6063 -0.0913
  252MOL0     C33904   5.079   9.019   1.861  0.1976 -0.5085 -0.0294
  252MOL0     C33905   4.986   8.923   1.809  1.1132  0.1800 -0.6966
  252MOL0     C33906   4.839   8.962   1.836 -0.0235  0.0792  0.0085
  252MOL0     C33907   4.794   8.988   1.983  0.6691 -0.5588  0.2581
  252MOL0     C33908   4.651   9.031   1.989 -0.2473 -0.4237 -0.7725
  252MOL0     O33909   4.573   8.911   1.970  0.1082 -0.1724  0.3566
  252MOL0     C33910   4.457   8.892   2.040  0.0218  0.4057  0.0429
  252MOL0     C33911   4.416   8.766   2.066 -0.2752  0.8472  0.1499
  252MOL0     C33912   4.293   8.744   2.125 -1.0265  0.8865 -0.1486
  252MOL0     C33913   4.268   8.602   2.178  0.0312  0.2672  0.0846
  252MOL0     C33914   4.203   8.847   2.151 -0.1968  1.1705 -0.6983
  252MOL0     C33915   4.073   8.821   2.217  0.0127  0.4182  0.3330
  252MOL0     O33916   4.013   8.697   2.226 -0.0455  0.4633 -0.8126
  252MOL0     C33917   3.899   8.690   2.310 -0.8223  0.2057  0.3878
  252MOL0     C33918   3.782   8.763   2.289 -0.4977  0.1486  0.0443
  252MOL0     C33919   3.669   8.750   2.373 -0.5643 -0.0464  0.0007
  252MOL0     C33920   3.687   8.685   2.495 -0.6214  0.7227  0.0675
  252MOL0     O33921   3.579   8.702   2.578 -0.6535  0.1068 -0.3559
  252MOL0     C33922   3.544   8.600   2.659  0.4502  0.6291 -1.1316
  252MOL0     C33923   3.462   8.667   2.769 -0.2445 -0.5511  0.6992
  252MOL0     C33924   3.544   8.749   2.871 -0.3740 -0.1014  0.1401
  252MOL0     C33925   3.449   8.794   2.985  0.1047  0.1910 -0.6848
  252MOL0     C33926   3.517   8.901   3.067 -0.5142 -0.1632 -0.9054
  252MOL0     C33927   3.629   8.874   3.164 -0.6021  0.4362 -0.7055
  252MOL0     C33928   3.648   8.996   3.263  0.0164  0.2121  0.3992
  252MOL0     C33929   3.747   8.971   3.373  0.5893 -0.3270  0.1314
  252MOL0    Cl33930   3.918   8.984   3.302  0.0452 -0.0907 -0.3632
  252MOL0     C33931   3.812   8.616   2.517  0.3823 -1.0438  0.4860
  252MOL0     C33932   3.910   8.612   2.422  0.2718  0.4386 -0.0648
  252MOL0     O33933   4.030   8.925   2.276  0.6157 -0.4822 -0.7739
  252MOL0     C33934   4.242   8.978   2.118 -0.3339  0.0214 -0.2444
  252MOL0     C33935   4.372   8.999   2.069  0.1748  0.3279 -0.3723
  252MOL0     N33936   5.041   9.158   1.878  0.3437  0.8224 -0.9003
  252MOL0     N33937   5.151   9.215   1.915  0.1745 -0.3155  0.4581
  252MOL0     C33938   6.014   9.420   2.897 -0.6905  0.1275 -0.1692
  252MOL0     C33939   5.965   9.461   3.018  1.3653 -0.1531 -0.6547
  252MOL0     C33940   5.600   9.605   3.302  0.5539  0.2065  0.1625
  252MOL0     C33941   5.468   9.654   3.309  0.0401 -0.9366 -0.7655
  252MOL0     C33942   5.420   9.720   3.426 -0.1663  0.0313 -0.5576
  252MOL0     C33943   5.500   9.728   3.542  0.2185  0.2639 -0.5238
  252MOL0     O33944   5.452   9.805   3.648 -0.3898 -0.1206  0.0210
  252MOL0     C33945   5.541   9.871   3.740 -0.3990 -0.6490 -0.4016
  252MOL0     C33946   5.507  10.015   3.763 -0.0034  0.1304  0.2569
  252MOL0     C33947   5.615  10.075   3.858 -0.0802 -1.1579  0.2264
  252MOL0     C33948   5.561  10.207   3.923  0.1599 -0.0861 -0.8849
  252MOL0     C33949   5.668  10.290   3.978 -0.2329  0.4743 -1.1331
  252MOL0     C33950   5.748  10.367   4.026  0.3783 -0.6308  0.2129
  252MOL0     C33951   5.626   9.676   3.536 -0.5696 -0.3656  0.4416
  252MOL0     C33952   5.674   9.609   3.422 -0.4389 -0.3700  0.0349
  252MOL0     H33953   5.646   9.347   2.985  0.3995 -0.2214 -0.0431
  252MOL0     H33954   5.737   9.238   2.797  1.4901 -3.1219  0.2618
  252MOL0     H33955   5.926   9.429   2.616 -1.1650 -2.4088  2.4850
  252MOL0     H33956   6.090   9.380   2.584 -0.9049  1.1776 -0.8802
  252MOL0     H33957   5.952   9.342   2.385 -2.0680  1.7635  1.3228
  252MOL0     H33958   6.001   9.174   2.456  0.7546 -0.4362  1.1315
  252MOL0     H33959   5.759   9.151   2.504 -1.6609  1.5355  2.3538
  252MOL0     H33960   5.737   9.319   2.514 -3.2799 -2.0305  1.0893
  252MOL0     H33961   5.760   9.361   2.260  3.4928 -0.5529 -1.8364
  252MOL0     H33962   5.823   9.196   2.249  0.9331  1.2834  0.0505
  252MOL0     H33963   5.617   9.085   2.299 -2.2430 -0.6201 -2.7641
  252MOL0     H33964   5.544   9.235   2.333 -2.3662 -1.3889 -1.7540
  252MOL0     H33965   5.586   9.315   2.086 -1.3035  0.7875 -0.5857
  252MOL0     H33966   5.661   9.159   2.063 -0.3600 -0.4910  0.2620
  252MOL0     H33967   5.457   9.037   2.107  0.9288 -0.7018  1.1808
  252MOL0     H33968   5.369   9.189   2.152 -1.6825 -0.1805 -1.7763
  252MOL0     H33969   5.463   9.132   1.881  0.5384 -0.0316 -0.2866
  252MOL0     H33970   5.389   9.288   1.916  0.1554 -0.4070  0.7559
  252MOL0     H33971   5.275   8.913   1.893 -1.2452 -0.6226 -2.8425
  252MOL0     H33972   5.002   8.898   1.704  1.5342 -1.5795 -0.2467
  252MOL0     H33973   5.008   8.828   1.858  2.3824  1.8153  2.1903
  252MOL0     H33974   4.778   8.883   1.791  0.1464 -0.4631  0.6994
  252MOL0     H33975   4.823   9.049   1.771 -1.5885  0.2026  0.5325
  252MOL0     H33976   4.855   9.066   2.031 -0.0828 -0.3513  0.9024
  252MOL0     H33977   4.807   8.899   2.045 -0.3555  1.5770  3.8640
  252MOL0     H33978   4.628   9.111   1.918 -1.1983  0.5587  0.5903
  252MOL0     H33979   4.629   9.072   2.088 -0.3725 -0.0675 -0.9465
  252MOL0     H33980   4.480   8.681   2.043  2.7477  2.4524  2.0302
  252MOL0     H33981   4.353   8.536   2.159 -1.3227 -1.4219 -0.3158
  252MOL0     H33982   4.244   8.603   2.284 -1.8165  2.6614 -0.2880
  252MOL0     H33983   4.192   8.559   2.112  1.2634 -0.9731 -0.5803
  252MOL0     H33984   3.768   8.811   2.193 -0.7630  1.6441  0.8083
  252MOL0     H33985   3.588   8.806   2.328  0.4832 -1.5513 -4.3061
  252MOL0     H33986   3.491   8.523   2.602 -3.6045  2.8948 -0.8299
  252MOL0     H33987   3.628   8.547   2.703 -0.0750  1.8039  1.4977
  252MOL0     H33988   3.397   8.738   2.716  0.7620 -0.9443 -1.1475
  252MOL0     H33989   3.391   8.596   2.814 -1.3981 -0.4775 -0.9069
  252MOL0     H33990   3.587   8.834   2.817  0.3263 -0.0583  0.7409
  252MOL0     H33991   3.632   8.691   2.900  0.2349 -2.0716 -4.6135
  252MOL0     H33992   3.349   8.821   2.950  0.2395 -1.7402 -2.7942
  252MOL0     H33993   3.443   8.713   3.059  1.0697  0.4906 -0.2641
  252MOL0     H33994   3.435   8.958   3.111  1.1929  1.5823  0.1892
  252MOL0     H33995   3.575   8.969   3.004  1.5385 -1.7725 -0.8655
  252MOL0     H33996   3.605   8.788   3.228  2.3898  0.0425  0.0570
  252MOL0     H33997   3.716   8.854   3.102  0.3235 -0.3557  0.7808
  252MOL0     H33998   3.547   9.021   3.299 -0.7694  0.5603 -1.8622
  252MOL0     H33999   3.687   9.081   3.206  0.3469 -1.9907 -2.9175
  252MOL0     H34000   3.732   8.874   3.423 -1.2815 -1.0967 -1.7826
  252MOL0     H34001   3.724   9.054   3.440 -2.2043  0.8876 -2.1251
  252MOL0     H34002   3.831   8.560   2.608 -2.0276 -2.4514  0.2020
  252MOL0     H34003   4.003   8.558   2.435  1.6719  3.0747  1.8833
  252MOL0     H34004   4.173   9.060   2.137 -2.9292 -2.6046  2.9127
  252MOL0     H34005   4.410   9.100   2.055  0.9346  0.3064  1.3345
  252MOL0     H34006   6.112   9.450   2.862 -1.5507  1.0917 -1.9282
  252MOL0     H34007   6.036   9.521   3.074  1.4660 -0.0502 -0.8938
  252MOL0     H34008   5.405   9.665   3.221 -0.3028  1.7668 -0.2923
  252MOL0     H34009   5.324   9.769   3.417  0.4095  1.2254 -0.5108
  252MOL0     H34010   5.522   9.822   3.836  0.0544  1.1601  0.6586
  252MOL0     H34011   5.646   9.871   3.710 -0.7146  1.2809 -1.6544
  252MOL0     H34012   5.408  10.031   3.805  0.4302  0.7569  1.0641
  252MOL0     H34013   5.509  10.066   3.667 -0.0841  0.4647  0.4307
  252MOL0     H34014   5.711  10.093   3.808  0.1004 -0.3675  0.8353
  252MOL0     H34015   5.634   9.999   3.934 -1.9748 -1.4003  0.4947
  252MOL0     H34016   5.487  10.186   4.001  1.2402 -0.2407  0.1263
  252MOL0     H34017   5.524  10.269   3.841  1.5567  2.7406  0.4987
  252MOL0     H34018   5.812  10.441   4.068 -1.0600  1.3830 -0.9893
  252MOL0     H34019   5.689   9.679   3.624 -0.7815 -0.0179  0.5837
  252MOL0     H34020   5.771   9.561   3.432 -1.8636 -3.2605  1.0815
  253MOL0     O34021   2.002  11.275   4.133  0.3119 -0.5113  0.2236
  253MOL0     C34022   2.008  11.272   4.008 -0.6510 -0.0764  0.5640
  253MOL0     O34023   1.967  11.368   3.915  0.0505  0.4900 -0.6095
  253MOL0     C34024   1.917  11.485   3.967 -0.5032 -0.3773 -0.6162
  253MOL0     C34025   1.974  11.610   3.949 -0.3996  0.1828  0.0793
  253MOL0     C34026   1.915  11.730   3.981 -0.0930  0.1911 -0.0547
  253MOL0     C34027   1.797  11.733   4.057  0.3558 -0.0221 -0.0538
  253MOL0     O34028   1.743  11.857   4.103 -0.6174 -0.3515 -0.2522
  253MOL0     C34029   1.634  11.845   4.190 -1.4148  0.5416  1.1419
  253MOL0     C34030   1.582  11.986   4.216  0.1926 -0.0204  0.1116
  253MOL0     C34031   1.540  12.056   4.081 -0.2142  0.8301 -0.7384
  253MOL0     C34032   1.449  12.170   4.097 -0.2976 -0.6795  0.0968
  253MOL0     C34033   1.434  12.235   3.966 -1.4645 -0.0683 -0.0610
  253MOL0     C34034   1.342  12.352   3.992  0.3985 -0.0806  0.1977
  253MOL0     C34035   1.274  12.390   3.855 -0.2121  0.2200 -0.9992
  253MOL0     C34036   1.146  12.302   3.825 -0.4895  0.2208 -0.1190
  253MOL0     N34037   1.044  12.319   3.929  0.5103  0.1282  0.9279
  253MOL0     C34038   0.988  12.436   3.969  0.1218 -1.0991  0.9124
  253MOL0     C34039   0.924  12.409   4.076  1.3710  0.0813  0.0424
  253MOL0     C34040   0.832  12.494   4.168  0.7260 -0.1013 -0.8813
  253MOL0     C34041   0.794  12.631   4.106 -0.5521 -1.0826 -0.1658
  253MOL0     C34042   0.681  12.693   4.182  0.6777  0.5735  0.3888
  253MOL0     C34043   0.642  12.831   4.131  0.2311  0.9641  0.1533
  253MOL0     O34044   0.527  12.874   4.205  1.0911 -0.7913  0.3084
  253MOL0     C34045   0.472  12.994   4.201  0.6130 -0.3507 -0.0242
  253MOL0     C34046   0.515  13.103   4.118  0.1710 -0.3855 -0.9426
  253MOL0     C34047   0.434  13.221   4.112  0.0614 -0.2172 -0.0681
  253MOL0     C34048   0.488  13.342   4.048  0.7956  0.8545 -0.4761
  253MOL0     C34049   0.311  13.225   4.181  0.4594  0.9072 -0.3644
  253MOL0     C34050   0.208  13.339   4.168  0.8233 -0.6440 -1.1038
  253MOL0     O34051   0.095  13.317   4.232  0.2867 -0.4795  0.0521
  253MOL0     C34052  -0.026  13.388   4.197 -0.8594  0.3213 -0.3656
  253MOL0     C34053  -0.136  13.309   4.159 -0.3308 -0.2013 -0.6679
  253MOL0     C34054  -0.252  13.373   4.114 -0.0179  0.2787 -0.7691
  253MOL0     C34055  -0.263  13.513   4.131 -0.1226 -0.0757 -0.0561
  253MOL0     O34056  -0.382  13.580   4.119 -1.2061 -0.1357  0.2007
  253MOL0     C34057  -0.507  13.510   4.103 -0.5298  0.0496  0.3530
  253MOL0     C34058  -0.622  13.598   4.142 -0.1890 -0.1053  0.4535
  253MOL0     C34059  -0.623  13.628   4.293 -0.0200  0.7735  0.3334
  253MOL0     C34060  -0.762  13.672   4.349 -0.4777  0.7813 -0.3117
  253MOL0     C34061  -0.823  13.790   4.275  0.2523  0.0467  0.5210
  253MOL0     C34062  -0.946  13.855   4.348  0.2715 -0.0205 -0.4383
  253MOL0     C34063  -1.069  13.758   4.340 -0.5264  0.1285  1.0204
  253MOL0     C34064  -1.193  13.811   4.406  0.3970 -0.3156 -0.0085
  253MOL0    Cl34065  -1.326  13.694   4.378  0.0963 -0.4969 -0.1360
  253MOL0     C34066  -0.148  13.592   4.175 -0.3412  0.4434  0.3821
  253MOL0     C34067  -0.029  13.524   4.196  0.2665  0.5034  0.4706
  253MOL0     O34068   0.217  13.431   4.087  0.3927 -0.1528 -0.4325
  253MOL0     C34069   0.272  13.111   4.256  0.1736  0.1927  0.9014
  253MOL0     C34070   0.351  13.003   4.267 -0.6673 -0.1365 -0.0596
  253MOL0     N34071   0.941  12.276   4.111  0.5616 -0.0621  0.5578
  253MOL0     N34072   1.021  12.229   4.022  0.3057  0.8799 -0.3128
  253MOL0     C34073   1.732  11.611   4.071 -1.0505  1.0325 -0.3544
  253MOL0     C34074   1.790  11.491   4.023  0.3056 -0.0163  0.2783
  253MOL0     C34075   2.049  11.149   3.943 -0.9581  0.2754 -0.6648
  253MOL0     C34076   2.008  11.029   3.991 -0.4946  0.4793  1.0033
  253MOL0     C34077   2.039  10.906   3.931  0.3239 -0.1400 -0.2488
  253MOL0     C34078   2.102  10.902   3.809  0.6059  0.4098  0.2544
  253MOL0     O34079   2.131  10.781   3.749  0.8703  0.1816  0.0292
  253MOL0     C34080   2.018  10.694   3.720  0.0853 -0.4222 -0.4441
  253MOL0     C34081   2.091  10.568   3.687 -0.0822  0.1771 -0.2016
  253MOL0     C34082   2.191  10.604   3.571 -0.3839 -1.0984 -0.8811
  253MOL0     C34083   2.197  10.484   3.470  0.0095 -0.3308 -0.2005
  253MOL0     C34084   2.320  10.480   3.395 -1.0011  0.0339  0.8141
  253MOL0     C34085   2.425  10.471   3.335  0.8235 -0.3859  0.1896
  253MOL0     C34086   2.147  11.024   3.749  0.7111 -0.8707 -0.2424
  253MOL0     C34087   2.121  11.149   3.817  0.5111  0.6013 -0.1867
  253MOL0     H34088   2.070  11.621   3.899  0.0479 -0.7128  0.7282
  253MOL0     H34089   1.966  11.824   3.960 -0.3858  0.5493  0.7769
  253MOL0     H34090   1.553  11.794   4.137 -0.9262  0.9012  0.0047
  253MOL0     H34091   1.657  11.784   4.277  1.7940 -0.4305 -0.2538
  253MOL0     H34092   1.502  11.975   4.291  0.9221  2.8050  1.4135
  253MOL0     H34093   1.644  12.063   4.263  2.1771  0.1473 -2.5773
  253MOL0     H34094   1.635  12.084   4.035  1.8763 -1.6094  1.6812
  253MOL0     H34095   1.502  11.979   4.014 -1.3699 -1.4806  2.3275
  253MOL0     H34096   1.351  12.138   4.133 -0.3866 -0.3340  0.1572
  253MOL0     H34097   1.491  12.242   4.168  0.6394  1.2677 -2.2804
  253MOL0     H34098   1.533  12.270   3.938 -1.4007  1.7841  2.1705
  253MOL0     H34099   1.388  12.172   3.889  0.0108 -0.8544 -0.3292
  253MOL0     H34100   1.279  12.333   4.079  0.8680 -0.5854  0.4351
  253MOL0     H34101   1.404  12.439   4.016 -1.4266  1.5732 -0.8105
  253MOL0     H34102   1.249  12.496   3.852 -0.7793  0.2581  1.9767
  253MOL0     H34103   1.349  12.370   3.779 -2.4428 -0.1734 -3.2208
  253MOL0     H34104   1.178  12.199   3.803  1.0672  1.1135 -2.4507
  253MOL0     H34105   1.110  12.336   3.728 -1.3017  2.0346  0.7892
  253MOL0     H34106   0.982  12.526   3.909  1.2281 -0.4951  1.6843
  253MOL0     H34107   0.742  12.436   4.188 -0.6060  2.1571 -0.0043
  253MOL0     H34108   0.883  12.510   4.264  0.1342 -0.6245 -0.4755
  253MOL0     H34109   0.766  12.618   4.001  1.3856 -1.2629 -0.6940
  253MOL0     H34110   0.878  12.701   4.109 -2.0073  0.6776  1.4377
  253MOL0     H34111   0.696  12.688   4.291 -1.9401 -5.5608  0.8755
  253MOL0     H34112   0.600  12.620   4.168  0.9257  0.2085  0.8167
  253MOL0     H34113   0.612  12.813   4.027 -0.5747 -1.0349  0.6837
  253MOL0     H34114   0.725  12.902   4.132  1.7525 -0.7132 -0.5800
  253MOL0     H34115   0.614  13.096   4.075  2.1125  0.2922  3.0299
  253MOL0     H34116   0.425  13.389   3.972  2.8516  0.7711 -2.3353
  253MOL0     H34117   0.507  13.419   4.124 -2.9930  1.1911  0.3597
  253MOL0     H34118   0.582  13.320   3.998  0.5032  0.3189 -0.7980
  253MOL0     H34119  -0.116  13.203   4.166 -2.4217 -0.5483  1.5435
  253MOL0     H34120  -0.343  13.322   4.082 -1.0321  0.2239  1.9502
  253MOL0     H34121  -0.519  13.489   3.996  1.5276 -0.6556  0.2119
  253MOL0     H34122  -0.509  13.416   4.159 -0.4251 -0.0459  0.1999
  253MOL0     H34123  -0.603  13.698   4.102  1.3370  0.6104  2.7327
  253MOL0     H34124  -0.716  13.556   4.104 -1.0407  2.3224 -0.3194
  253MOL0     H34125  -0.545  13.703   4.309 -1.3732  2.9655 -2.4772
  253MOL0     H34126  -0.600  13.539   4.353  0.9505 -0.4724 -1.7623
  253MOL0     H34127  -0.834  13.589   4.346 -1.2142  1.1759  3.0068
  253MOL0     H34128  -0.752  13.697   4.455  1.8475 -0.1450 -0.2526
  253MOL0     H34129  -0.849  13.775   4.170  2.2037 -0.1726  0.0457
  253MOL0     H34130  -0.753  13.874   4.274 -0.9546  1.0818 -0.9994
  253MOL0     H34131  -0.925  13.869   4.454  0.0075 -3.0689  0.0917
  253MOL0     H34132  -0.967  13.956   4.311  1.9301 -0.5477 -3.0818
  253MOL0     H34133  -1.048  13.666   4.394  0.4155 -1.0509 -1.2284
  253MOL0     H34134  -1.099  13.729   4.239 -1.7334  0.9966  1.1047
  253MOL0     H34135  -1.217  13.913   4.374  1.4346 -0.3560 -1.0260
  253MOL0     H34136  -1.180  13.813   4.514 -0.9931 -1.4872  0.2181
  253MOL0     H34137  -0.164  13.698   4.186 -0.1194  0.4878  0.2701
  253MOL0     H34138   0.058  13.569   4.243 -1.3218  2.2574  1.9167
  253MOL0     H34139   0.179  13.106   4.312  0.5571  0.5691  1.5923
  253MOL0     H34140   0.324  12.924   4.336  0.9281  2.1096  3.4482
  253MOL0     H34141   1.635  11.608   4.120 -0.8346  0.2583  0.0385
  253MOL0     H34142   1.724  11.405   4.032  1.8350 -1.5839 -2.1466
  253MOL0     H34143   1.945  11.033   4.079 -0.0416 -0.1314  1.3636
  253MOL0     H34144   2.014  10.815   3.985 -2.4338  0.3321 -0.6016
  253MOL0     H34145   1.948  10.687   3.804 -0.4314  1.9497 -0.6023
  253MOL0     H34146   1.963  10.729   3.632  1.2549  0.1080 -0.9918
  253MOL0     H34147   2.024  10.483   3.668  0.6473 -1.1904  2.7411
  253MOL0     H34148   2.158  10.536   3.767 -2.3862  0.1991  1.8396
  253MOL0     H34149   2.292  10.618   3.612 -0.4133 -1.6842 -0.5901
  253MOL0     H34150   2.158  10.692   3.516  1.1211  0.5798  0.7563
  253MOL0     H34151   2.106  10.490   3.410 -1.3460 -1.1869  1.6885
  253MOL0     H34152   2.212  10.392   3.527  1.7839 -1.3746 -2.1713
  253MOL0     H34153   2.522  10.456   3.292  2.2170  0.0340  2.9530
  253MOL0     H34154   2.200  11.020   3.655  1.7677  1.2850  0.1931
  253MOL0     H34155   2.162  11.238   3.769  2.7340  0.2452  0.9047
  254MOL0     O34156   2.945   4.537   5.283  0.0294 -0.7951 -0.4890
  254MOL0     C34157   2.914   4.460   5.189 -0.3370 -0.0716 -0.2439
  254MOL0     O34158   2.791   4.417   5.165 -0.8290 -0.2357 -0.7496
  254MOL0     C34159   2.682   4.499   5.201  1.0665 -0.0622  1.5261
  254MOL0     C34160   2.667   4.571   5.323  0.3440  0.1308 -0.2383
  254MOL0     C34161   2.546   4.633   5.360  0.9846  0.4880 -0.1817
  254MOL0     C34162   2.442   4.655   5.264  0.2254  0.3785 -0.2807
  254MOL0     O34163   2.332   4.727   5.299 -0.8305  0.0335  0.1349
  254MOL0     C34164   2.263   4.656   5.406 -0.7455  0.5250  0.1067
  254MOL0     C34165   2.120   4.611   5.395  0.4682 -0.4863  0.6385
  254MOL0     C34166   2.038   4.747   5.394 -0.1277  0.0877 -0.0999
  254MOL0     C34167   1.896   4.708   5.387 -0.6753 -0.6571  0.8339
  254MOL0     C34168   1.801   4.809   5.447 -0.0697 -0.3029  0.0644
  254MOL0     C34169   1.787   4.932   5.368 -0.2280  0.7209 -0.4511
  254MOL0     C34170   1.670   5.020   5.387  0.5147 -0.1801  0.8247
  254MOL0     C34171   1.674   5.083   5.531  0.2359 -0.0652 -0.0285
  254MOL0     N34172   1.637   5.223   5.529  0.6396  0.4162 -0.7376
  254MOL0     C34173   1.503   5.254   5.526 -0.1063 -0.6452  0.3734
  254MOL0     C34174   1.490   5.382   5.562  0.2103  0.0761 -0.2751
  254MOL0     C34175   1.377   5.467   5.598  0.1275 -0.4036  0.6966
  254MOL0     C34176   1.238   5.434   5.544  0.6231 -0.2939  0.4475
  254MOL0     C34177   1.140   5.548   5.586  0.5461 -0.1737 -0.2147
  254MOL0     C34178   1.010   5.526   5.510  0.4528  0.8494 -1.0957
  254MOL0     O34179   0.916   5.619   5.563  0.0341 -0.1743 -0.7402
  254MOL0     C34180   0.782   5.609   5.512 -0.2947 -0.4507 -0.3284
  254MOL0     C34181   0.748   5.575   5.384  0.5394  0.0009  0.4842
  254MOL0     C34182   0.617   5.564   5.348  0.1667 -0.7026 -0.5132
  254MOL0     C34183   0.591   5.521   5.204  0.6351 -0.3757 -0.6425
  254MOL0     C34184   0.509   5.594   5.442 -0.1214  0.3520 -0.3116
  254MOL0     C34185   0.361   5.587   5.412  0.4250  0.4596  0.3237
  254MOL0     O34186   0.280   5.580   5.523 -0.6580 -0.4038 -0.2868
  254MOL0     C34187   0.147   5.593   5.511  0.5286 -0.0890 -0.3045
  254MOL0     C34188   0.094   5.722   5.504  0.2213 -0.3011 -0.0913
  254MOL0     C34189  -0.041   5.743   5.498 -0.0466  0.5256 -0.3853
  254MOL0     C34190  -0.124   5.634   5.485 -0.1348  0.3751  0.1365
  254MOL0     O34191  -0.254   5.643   5.499  0.5509  0.6555  0.0811
  254MOL0     C34192  -0.344   5.579   5.410 -0.3183  0.1992  0.0411
  254MOL0     C34193  -0.476   5.657   5.415  0.1853  0.5339 -0.1981
  254MOL0     C34194  -0.528   5.657   5.562  0.3437 -0.5137 -0.1618
  254MOL0     C34195  -0.641   5.764   5.574  0.3789 -0.0236  0.2599
  254MOL0     C34196  -0.773   5.715   5.515 -0.4457 -0.1149 -0.1565
  254MOL0     C34197  -0.858   5.833   5.475  0.1891 -0.4135  0.5181
  254MOL0     C34198  -0.993   5.797   5.420 -0.4796  0.2123 -0.5491
  254MOL0     C34199  -1.041   5.924   5.358 -0.4892 -0.1340 -0.5613
  254MOL0    Cl34200  -1.219   5.919   5.328  0.1137 -0.2439  0.1848
  254MOL0     C34201  -0.076   5.505   5.488 -0.1437 -0.9219  0.2825
  254MOL0     C34202   0.059   5.492   5.491  0.0347 -0.0782 -0.0536
  254MOL0     O34203   0.321   5.590   5.298  0.4190  0.3529 -0.4017
  254MOL0     C34204   0.550   5.620   5.573 -0.1181 -0.0980 -0.6784
  254MOL0     C34205   0.684   5.625   5.605  0.0040 -0.4008 -0.7172
  254MOL0     N34206   1.621   5.432   5.580 -0.3584  0.2023 -0.0985
  254MOL0     N34207   1.703   5.333   5.557 -0.6713  0.5821  0.0924
  254MOL0     C34208   2.454   4.595   5.139 -0.5515 -0.1322  0.1834
  254MOL0     C34209   2.568   4.516   5.107 -0.1114  0.2768 -0.8743
  254MOL0     C34210   3.028   4.410   5.120 -1.0692  0.7963 -0.1335
  254MOL0     C34211   3.158   4.457   5.151 -0.0421  0.2483 -0.2225
  254MOL0     C34212   3.267   4.402   5.093 -0.3763  1.4742 -0.3154
  254MOL0     C34213   3.252   4.325   4.978 -0.0344 -0.8798  0.1187
  254MOL0     O34214   3.358   4.282   4.901 -0.3506  0.7250 -0.2004
  254MOL0     C34215   3.491   4.317   4.936 -0.1219 -1.0144 -0.2828
  254MOL0     C34216   3.581   4.222   4.851 -0.3844  0.2582  0.7470
  254MOL0     C34217   3.724   4.238   4.878 -1.0991  0.5254 -0.4436
  254MOL0     C34218   3.819   4.138   4.801  0.3999 -0.4668 -0.1847
  254MOL0     C34219   3.958   4.172   4.821  0.3926 -0.1326  0.5377
  254MOL0     C34220   4.069   4.221   4.811  0.2794 -0.3364  0.1252
  254MOL0     C34221   3.126   4.273   4.947  1.1807  0.2313 -0.0186
  254MOL0     C34222   3.015   4.312   5.024  0.4242 -0.2211 -1.0966
  254MOL0     H34223   2.737   4.577   5.406 -0.4720 -2.2616  0.6794
  254MOL0     H34224   2.539   4.675   5.460  1.8051 -1.4146  0.7410
  254MOL0     H34225   2.320   4.566   5.431  3.3455  2.9427  0.3885
  254MOL0     H34226   2.270   4.732   5.484 -3.2409  2.7624 -1.6643
  254MOL0     H34227   2.086   4.559   5.304  0.1021  0.3107  0.3145
  254MOL0     H34228   2.099   4.546   5.481  0.9422  1.3693  2.2202
  254MOL0     H34229   2.050   4.800   5.489  1.1748 -0.2263 -0.0817
  254MOL0     H34230   2.068   4.825   5.324  1.7733  3.1546  3.7700
  254MOL0     H34231   1.875   4.695   5.281 -3.0148  2.8084  0.7223
  254MOL0     H34232   1.878   4.613   5.439  2.5351 -2.2724 -0.7388
  254MOL0     H34233   1.703   4.760   5.448 -0.9173  1.3382  1.0520
  254MOL0     H34234   1.842   4.833   5.546  1.8829 -3.3845  0.1647
  254MOL0     H34235   1.875   4.997   5.368  0.1409  0.2298 -0.0860
  254MOL0     H34236   1.778   4.902   5.263  3.3290  2.0290 -1.2898
  254MOL0     H34237   1.686   5.099   5.313 -0.1307 -1.8062 -1.1583
  254MOL0     H34238   1.575   4.972   5.363  0.0787 -0.7904  3.4433
  254MOL0     H34239   1.777   5.079   5.570 -0.1861  2.6214  1.6307
  254MOL0     H34240   1.614   5.035   5.609 -0.2892  2.2921  1.1161
  254MOL0     H34241   1.431   5.178   5.497  0.5440 -0.6571 -1.3131
  254MOL0     H34242   1.378   5.465   5.708  1.7210  0.0228  0.7155
  254MOL0     H34243   1.411   5.571   5.586  0.5568 -0.6758 -0.5658
  254MOL0     H34244   1.199   5.333   5.561 -1.6685  0.2389 -1.1985
  254MOL0     H34245   1.255   5.454   5.438  2.1455 -0.7298  0.5899
  254MOL0     H34246   1.173   5.650   5.566 -1.6940  0.6099 -0.1249
  254MOL0     H34247   1.127   5.546   5.695  0.8568  1.8719 -0.1014
  254MOL0     H34248   0.974   5.423   5.522  1.3558  0.5524 -0.8733
  254MOL0     H34249   1.023   5.530   5.402 -1.7053  1.3331 -1.3958
  254MOL0     H34250   0.829   5.560   5.313 -0.8799 -2.3749 -0.7513
  254MOL0     H34251   0.577   5.613   5.147  3.1953 -1.1743 -2.7728
  254MOL0     H34252   0.681   5.474   5.163  2.4588 -0.1150  2.7743
  254MOL0     H34253   0.499   5.463   5.193  0.4344 -0.2724  0.4007
  254MOL0     H34254   0.166   5.802   5.523  0.7190 -0.8350  0.3058
  254MOL0     H34255  -0.086   5.842   5.494  1.5423  1.2728 -0.9585
  254MOL0     H34256  -0.311   5.566   5.307 -2.2376  0.5803 -0.6700
  254MOL0     H34257  -0.354   5.475   5.442 -0.3533  0.2070  0.0569
  254MOL0     H34258  -0.446   5.757   5.380  1.3777  0.3355  0.2119
  254MOL0     H34259  -0.543   5.612   5.341 -0.2603  0.4566  0.2457
  254MOL0     H34260  -0.446   5.688   5.628  0.4153 -2.4267  0.7159
  254MOL0     H34261  -0.564   5.561   5.600  1.8743  0.1567  3.4646
  254MOL0     H34262  -0.653   5.785   5.681  1.1474 -1.7487  0.7156
  254MOL0     H34263  -0.598   5.846   5.515  2.1787 -1.0548  0.0400
  254MOL0     H34264  -0.824   5.655   5.590  2.2733 -0.9620  1.1646
  254MOL0     H34265  -0.755   5.656   5.424 -1.2072  0.6014 -0.7893
  254MOL0     H34266  -0.867   5.893   5.566  1.3041  1.6782 -0.6707
  254MOL0     H34267  -0.810   5.885   5.392 -1.2194 -0.3874 -0.3138
  254MOL0     H34268  -1.062   5.760   5.496 -1.2808 -0.9774 -1.8061
  254MOL0     H34269  -0.986   5.730   5.334 -1.2413  1.0296 -1.2823
  254MOL0     H34270  -0.992   5.942   5.261  2.9794  0.2984  1.0890
  254MOL0     H34271  -1.015   6.016   5.412 -2.2425  0.1583 -0.1724
  254MOL0     H34272  -0.140   5.417   5.488 -3.8559  1.4644 -3.4091
  254MOL0     H34273   0.093   5.392   5.467  0.2787 -0.1173  0.4223
  254MOL0     H34274   0.485   5.629   5.659  2.4701  1.4362  1.2726
  254MOL0     H34275   0.713   5.651   5.706  1.1760 -1.6768 -0.6955
  254MOL0     H34276   2.379   4.605   5.060 -2.8720 -4.8571  1.4107
  254MOL0     H34277   2.569   4.488   5.002 -0.6177  1.0485 -1.0948
  254MOL0     H34278   3.156   4.532   5.230 -3.3006 -1.4493  1.4868
  254MOL0     H34279   3.358   4.456   5.119 -1.0008  2.3762  0.0533
  254MOL0     H34280   3.515   4.424   4.928  0.4288 -0.8304  2.6614
  254MOL0     H34281   3.510   4.291   5.041  1.0523 -0.9128 -0.4526
  254MOL0     H34282   3.550   4.235   4.747 -4.6603  2.7480  2.0851
  254MOL0     H34283   3.561   4.117   4.878  3.3357 -0.3832  1.5934
  254MOL0     H34284   3.746   4.231   4.985 -1.5268 -1.3295 -0.4414
  254MOL0     H34285   3.751   4.340   4.850 -0.3371  1.4829  3.3192
  254MOL0     H34286   3.798   4.148   4.694  1.7144 -1.5536 -0.5722
  254MOL0     H34287   3.800   4.036   4.835 -0.1635 -0.0070  0.9591
  254MOL0     H34288   4.167   4.247   4.776 -1.2729  3.9798 -1.7903
  254MOL0     H34289   3.118   4.190   4.878  0.1184 -0.4010  0.8273
  254MOL0     H34290   2.914   4.272   5.016 -0.7436  1.8328  1.5240
  255MOL0     O34291   5.106  10.085   1.772 -0.3517 -0.4322  0.7784
  255MOL0     C34292   5.147  10.135   1.666  0.4027  0.1585 -0.0722
  255MOL0     O34293   5.068  10.168   1.558  0.1122 -0.0022  0.9654
  255MOL0     C34294   4.934  10.142   1.574 -0.6355 -0.0415 -0.4495
  255MOL0     C34295   4.880  10.019   1.546  0.0872  0.5344  0.2598
  255MOL0     C34296   4.750   9.993   1.561  0.0161  1.0079 -0.2861
  255MOL0     C34297   4.661  10.086   1.612  0.1811  0.2271 -0.1130
  255MOL0     O34298   4.525  10.078   1.623  0.0486 -0.1422 -0.0157
  255MOL0     C34299   4.461   9.948   1.615  0.6180 -0.3116 -0.5257
  255MOL0     C34300   4.313   9.953   1.576  0.6572 -0.0235 -0.3659
  255MOL0     C34301   4.222  10.006   1.682  0.0693 -0.1246 -0.1251
  255MOL0     C34302   4.216   9.910   1.808  1.0190 -0.3991  0.0263
  255MOL0     C34303   4.098   9.968   1.892 -0.0391  0.3117  0.6943
  255MOL0     C34304   4.074   9.893   2.026 -0.0216  0.2632 -0.0011
  255MOL0     C34305   4.198   9.886   2.107 -0.5921  0.0086  0.8187
  255MOL0     C34306   4.163   9.848   2.254 -0.3247  0.0621 -0.4358
  255MOL0     N34307   4.274   9.844   2.347 -0.3409 -0.1114 -0.2722
  255MOL0     C34308   4.395   9.800   2.293  0.3788 -0.0200 -0.5328
  255MOL0     C34309   4.468   9.802   2.404  0.0849 -0.0514 -0.3576
  255MOL0     C34310   4.616   9.765   2.394  0.2518 -0.6640  0.2730
  255MOL0     C34311   4.703   9.801   2.518 -1.3638 -0.0065  0.1810
  255MOL0     C34312   4.847   9.727   2.521  0.2615  0.7145 -0.5235
  255MOL0     C34313   4.969   9.794   2.453  0.1793 -0.2093  0.1649
  255MOL0     O34314   4.974   9.930   2.477 -0.5139 -0.5346  0.6295
  255MOL0     C34315   5.086  10.002   2.513 -0.4526 -0.6532  0.0777
  255MOL0     C34316   5.058  10.134   2.561  0.1149  0.6697  0.1055
  255MOL0     C34317   5.151  10.229   2.584 -0.4275 -0.0432 -0.4570
  255MOL0     C34318   5.107  10.374   2.614  0.2434  0.1104  0.4683
  255MOL0     C34319   5.284  10.182   2.574  0.5918 -0.4726 -0.1986
  255MOL0     C34320   5.400  10.269   2.588  0.3953 -0.7619 -0.0946
  255MOL0     O34321   5.478  10.244   2.698 -0.3973  0.0616  0.3704
  255MOL0     C34322   5.623  10.256   2.673  0.4791  0.4851 -0.0517
  255MOL0     C34323   5.706  10.296   2.777  0.0806 -0.0685  0.0870
  255MOL0     C34324   5.841  10.331   2.743  0.3776 -0.0559 -0.1063
  255MOL0     C34325   5.897  10.309   2.614  0.0972 -0.0579  0.1591
  255MOL0     O34326   6.026  10.326   2.579 -0.0075 -0.2038  0.1840
  255MOL0     C34327   6.119  10.378   2.671 -0.4423 -0.9334 -1.0470
  255MOL0     C34328   6.267  10.375   2.620  0.5030  0.3953  0.5984
  255MOL0     C34329   6.293  10.450   2.477  0.3153  0.0948  0.8173
  255MOL0     C34330   6.204  10.428   2.354 -0.5133 -0.4753 -0.0837
  255MOL0     C34331   6.271  10.492   2.235  0.3865 -0.0849 -0.5478
  255MOL0     C34332   6.177  10.484   2.115 -0.8558 -0.5083 -0.1185
  255MOL0     C34333   6.239  10.572   1.992 -0.0550  0.4514 -0.1755
  255MOL0     C34334   6.389  10.555   1.979 -0.5673 -0.4966 -0.0648
  255MOL0    Cl34335   6.422  10.382   1.959  0.5457  0.0330 -0.0378
  255MOL0     C34336   5.811  10.267   2.516 -0.6925 -0.0281  0.2910
  255MOL0     C34337   5.680  10.235   2.547  0.7351  0.2672  0.7790
  255MOL0     O34338   5.419  10.359   2.501 -1.1353  0.4771 -0.2713
  255MOL0     C34339   5.313  10.050   2.547  0.3183  0.6711 -0.0567
  255MOL0     C34340   5.214   9.963   2.515  0.0253 -0.3347 -0.1917
  255MOL0     N34341   4.402   9.855   2.514 -0.4452 -0.2139  0.4808
  255MOL0     N34342   4.281   9.872   2.479 -0.3232  0.5984 -0.2614
  255MOL0     C34343   4.709  10.219   1.641 -0.1223  0.8001  0.1640
  255MOL0     C34344   4.849  10.241   1.631 -0.0947 -0.0096 -0.1285
  255MOL0     C34345   5.289  10.122   1.634 -0.0918 -0.6257 -0.2608
  255MOL0     C34346   5.341  10.186   1.523 -0.8201  0.0968  0.6980
  255MOL0     C34347   5.475  10.180   1.494  0.3895 -0.8579 -0.5429
  255MOL0     C34348   5.558  10.103   1.585  0.3450  0.6206  0.2188
  255MOL0     O34349   5.684  10.072   1.561  0.2177 -0.4167 -0.1964
  255MOL0     C34350   5.751  10.086   1.435  0.1652  0.2249 -0.0378
  255MOL0     C34351   5.885  10.154   1.456 -0.1326 -0.0590 -0.2077
  255MOL0     C34352   5.981  10.058   1.531 -0.5677 -0.4157 -0.3330
  255MOL0     C34353   6.121  10.126   1.526 -0.3756  0.1516  1.0015
  255MOL0     C34354   6.127  10.235   1.616 -0.9794 -0.4151  0.0565
  255MOL0     C34355   6.124  10.323   1.706 -0.5464 -0.4143 -0.2474
  255MOL0     C34356   5.502  10.031   1.688  0.0408 -0.4032 -0.3660
  255MOL0     C34357   5.371  10.041   1.712  0.7508  0.5406  0.0361
  255MOL0     H34358   4.953   9.949   1.506 -0.6224 -0.3702  0.5249
  255MOL0     H34359   4.718   9.896   1.525  2.5499 -0.8868  2.1058
  255MOL0     H34360   4.517   9.887   1.543  2.1173  1.7179 -1.1568
  255MOL0     H34361   4.477   9.886   1.704 -1.8077  0.7359  0.7390
  255MOL0     H34362   4.303  10.021   1.491 -1.9136  0.3760  0.1839
  255MOL0     H34363   4.278   9.851   1.560  1.1752 -0.9349  3.3738
  255MOL0     H34364   4.257  10.105   1.712  1.2551  0.5286 -3.2738
  255MOL0     H34365   4.122  10.006   1.638 -0.8485 -3.6525  1.5519
  255MOL0     H34366   4.185   9.809   1.781 -4.0601  1.4896 -2.4360
  255MOL0     H34367   4.302   9.929   1.873 -0.1475  0.2771  1.4124
  255MOL0     H34368   4.114  10.076   1.902  2.0043  0.3100 -1.6710
  255MOL0     H34369   4.005   9.953   1.838  1.2031 -0.2353 -1.3964
  255MOL0     H34370   4.009   9.955   2.088 -0.0781 -2.3942  2.8302
  255MOL0     H34371   4.014   9.802   2.013 -1.3561  1.2706 -1.1449
  255MOL0     H34372   4.267   9.809   2.071  3.7952  4.0262 -0.5189
  255MOL0     H34373   4.259   9.975   2.090  2.9561 -2.4266 -0.4702
  255MOL0     H34374   4.111   9.753   2.264 -2.5826  1.3666  1.0238
  255MOL0     H34375   4.087   9.919   2.288 -1.6582 -0.4099 -2.2965
  255MOL0     H34376   4.414   9.753   2.197 -0.5468 -0.5892 -0.4562
  255MOL0     H34377   4.604   9.656   2.388 -2.2441 -0.4689  0.3095
  255MOL0     H34378   4.645   9.814   2.301 -0.1195 -1.0414 -0.0464
  255MOL0     H34379   4.654   9.761   2.607 -0.6253 -0.2412  0.4934
  255MOL0     H34380   4.723   9.908   2.529  1.2814 -0.5545  1.6083
  255MOL0     H34381   4.831   9.625   2.486  0.0499 -0.2266  2.0765
  255MOL0     H34382   4.870   9.718   2.628  0.4855  1.1099 -0.5367
  255MOL0     H34383   4.958   9.773   2.346  0.8516 -0.5544  0.1554
  255MOL0     H34384   5.060   9.743   2.485  1.3407  0.8409 -1.3042
  255MOL0     H34385   4.954  10.159   2.579 -0.0924  0.4482 -0.7395
  255MOL0     H34386   5.190  10.444   2.600  1.8531 -0.6050  5.0014
  255MOL0     H34387   5.013  10.396   2.564 -0.2712  0.5556  1.6033
  255MOL0     H34388   5.094  10.378   2.722  3.6176  2.2756  0.9348
  255MOL0     H34389   5.660  10.308   2.874  0.9970 -4.1488  1.2202
  255MOL0     H34390   5.908  10.359   2.824  3.0300 -1.5282 -1.6260
  255MOL0     H34391   6.095  10.482   2.698 -0.1658 -0.6471 -1.8755
  255MOL0     H34392   6.126  10.325   2.766  2.7923  1.3006  0.1513
  255MOL0     H34393   6.326  10.417   2.702  0.2846  1.1579  0.3629
  255MOL0     H34394   6.309  10.275   2.602  0.4108  0.5924 -0.7803
  255MOL0     H34395   6.394  10.417   2.451  0.6807  2.0241 -0.3934
  255MOL0     H34396   6.308  10.556   2.502  3.1975 -0.5610  2.3527
  255MOL0     H34397   6.184  10.321   2.343  2.0699 -0.9423 -0.8292
  255MOL0     H34398   6.109  10.478   2.373  0.6035  0.5752  3.5538
  255MOL0     H34399   6.367  10.441   2.222 -0.5951 -2.0516 -0.4202
  255MOL0     H34400   6.289  10.596   2.265 -1.8251 -0.2759  1.8488
  255MOL0     H34401   6.167  10.378   2.091  1.4862 -1.0339  0.8846
  255MOL0     H34402   6.079  10.526   2.140  0.5363  2.0890  1.4692
  255MOL0     H34403   6.226  10.680   2.006  2.5115  0.7596  0.2761
  255MOL0     H34404   6.206  10.538   1.893  2.2684 -1.2934 -0.4286
  255MOL0     H34405   6.439  10.595   2.068  0.5346  1.4189 -1.4798
  255MOL0     H34406   6.429  10.608   1.892  2.4057 -1.6420  0.4840
  255MOL0     H34407   5.840  10.256   2.412 -3.5978 -1.6616 -0.4331
  255MOL0     H34408   5.616  10.199   2.467  1.1704  0.6480  0.2588
  255MOL0     H34409   5.413  10.008   2.534  1.1704  2.7743 -0.7335
  255MOL0     H34410   5.247   9.866   2.478 -0.9704 -0.7220 -0.1076
  255MOL0     H34411   4.641  10.290   1.687  0.6917  2.6605 -1.3887
  255MOL0     H34412   4.897  10.332   1.666 -0.2641 -0.2388  0.7374
  255MOL0     H34413   5.285  10.241   1.448  1.3541  0.5108 -0.6950
  255MOL0     H34414   5.521  10.236   1.413 -0.1129 -1.4836 -1.2643
  255MOL0     H34415   5.770   9.985   1.396  0.4453  0.2585  0.0096
  255MOL0     H34416   5.699  10.139   1.354  0.8520  0.6535 -0.2103
  255MOL0     H34417   5.867  10.249   1.506  0.3539 -0.0591 -0.0219
  255MOL0     H34418   5.921  10.167   1.353  0.6475  0.7987  0.1645
  255MOL0     H34419   5.974   9.962   1.478  0.4623 -0.7523  0.1358
  255MOL0     H34420   5.958  10.032   1.634  1.8184 -0.9289  0.1162
  255MOL0     H34421   6.153  10.133   1.422 -2.9018  0.5380  0.1854
  255MOL0     H34422   6.192  10.058   1.575 -0.6553 -0.1587  0.9768
  255MOL0     H34423   6.098  10.383   1.792 -2.9068 -0.4072 -0.8856
  255MOL0     H34424   5.565   9.981   1.761 -1.3439 -0.7255  0.6521
  255MOL0     H34425   5.337   9.975   1.791 -0.0220  1.1233  0.2076
  256MOL0     O34426   2.702   9.376  10.796  0.0778 -0.2706 -0.1071
  256MOL0     C34427   2.708   9.320  10.687  0.6147  0.1324  0.1908
  256MOL0     O34428   2.601   9.279  10.606  0.4301 -0.3481 -0.0718
  256MOL0     C34429   2.473   9.287  10.659  0.0535  0.7937  0.0355
  256MOL0     C34430   2.446   9.192  10.764  1.2067 -1.3484  0.7065
  256MOL0     C34431   2.321   9.188  10.821  0.9566  0.0133  0.2194
  256MOL0     C34432   2.223   9.279  10.773  1.2338 -1.0670 -0.3133
  256MOL0     O34433   2.100   9.263  10.831  0.1069 -0.0045  0.5258
  256MOL0     C34434   1.995   9.357  10.795  0.8268 -0.4487 -0.1489
  256MOL0     C34435   1.869   9.332  10.882 -0.3878  0.1750 -0.5121
  256MOL0     C34436   1.757   9.434  10.878 -0.3707 -0.3869  1.1029
  256MOL0     C34437   1.682   9.458  11.009 -0.2252  0.0298  0.0820
  256MOL0     C34438   1.551   9.533  11.002  0.6241  0.7646  0.2312
  256MOL0     C34439   1.558   9.680  10.974  0.1071 -0.4085  0.3870
  256MOL0     C34440   1.432   9.723  10.903  0.1114 -0.8445  0.1517
  256MOL0     C34441   1.298   9.742  10.981 -0.2013 -0.9020 -0.2204
  256MOL0     N34442   1.180   9.741  10.896 -0.2396  0.3264  0.3000
  256MOL0     C34443   1.057   9.750  10.945  1.1058  0.1812 -0.7726
  256MOL0     C34444   0.977   9.758  10.836  0.5626 -0.3705 -0.1964
  256MOL0     C34445   0.831   9.771  10.831  0.1752 -0.6717  0.7629
  256MOL0     C34446   0.809   9.916  10.792  0.2818  0.0798 -0.5299
  256MOL0     C34447   0.661   9.943  10.772  0.2644 -0.2951 -0.7170
  256MOL0     C34448   0.630  10.086  10.737 -0.3111 -0.2992 -0.6668
  256MOL0     O34449   0.516  10.127  10.816 -0.1543  0.3665 -1.4873
  256MOL0     C34450   0.390  10.089  10.773  0.4793 -0.0930  0.0445
  256MOL0     C34451   0.280  10.096  10.861 -0.3621  0.8184  0.0719
  256MOL0     C34452   0.149  10.061  10.836 -1.1559 -0.2087 -0.4397
  256MOL0     C34453   0.051  10.078  10.943 -0.1495  0.5812  0.2087
  256MOL0     C34454   0.116  10.022  10.704 -0.4243  0.1417  0.8696
  256MOL0     C34455  -0.019  10.004  10.650  0.9622 -0.4727 -0.1144
  256MOL0     O34456  -0.119  10.005  10.742  0.4153 -1.4619  0.0974
  256MOL0     C34457  -0.239   9.957  10.705 -0.1627  0.2853 -0.0055
  256MOL0     C34458  -0.352  10.041  10.694 -0.2730 -0.7099  0.4137
  256MOL0     C34459  -0.479  10.001  10.684 -0.7882 -0.0856  0.2137
  256MOL0     C34460  -0.500   9.864  10.657 -0.2895 -0.3796  0.6675
  256MOL0     O34461  -0.632   9.816  10.647  0.2463  0.0818 -0.0048
  256MOL0     C34462  -0.685   9.842  10.518  0.1884  0.3214 -0.8770
  256MOL0     C34463  -0.802   9.749  10.500 -0.0216  0.5986  0.4049
  256MOL0     C34464  -0.868   9.777  10.367 -0.0287  0.4712 -0.5652
  256MOL0     C34465  -1.001   9.696  10.366  0.1814 -0.3541 -0.3915
  256MOL0     C34466  -1.096   9.733  10.254  0.6913  0.1784 -0.4215
  256MOL0     C34467  -1.233   9.673  10.278 -0.9377  0.5541  0.3284
  256MOL0     C34468  -1.323   9.670  10.155 -0.0194  0.5527  0.3561
  256MOL0     C34469  -1.438   9.577  10.186  0.2158 -0.5591 -0.2454
  256MOL0    Cl34470  -1.544   9.595  10.050  0.6999 -0.3370 -0.2944
  256MOL0     C34471  -0.393   9.777  10.666 -0.3019  0.3085 -0.2268
  256MOL0     C34472  -0.267   9.821  10.695  0.4444 -0.8839  0.5378
  256MOL0     O34473  -0.042   9.986  10.531 -0.4975  0.0490  0.3874
  256MOL0     C34474   0.226   9.991  10.620 -0.3763  0.4145 -0.2001
  256MOL0     C34475   0.356  10.022  10.653  0.0830 -0.3935  0.6594
  256MOL0     N34476   1.065   9.771  10.735 -0.2193  0.0984  0.3389
  256MOL0     N34477   1.184   9.740  10.755  0.1383 -0.1808  0.3444
  256MOL0     C34478   2.253   9.366  10.670  1.2528  0.2977  0.1618
  256MOL0     C34479   2.379   9.374  10.614 -0.9380  0.7564  0.1693
  256MOL0     C34480   2.844   9.323  10.625  0.2879  0.5390  0.0573
  256MOL0     C34481   2.859   9.270  10.492 -0.1748 -0.9354 -0.8079
  256MOL0     C34482   2.988   9.265  10.428 -0.6358 -1.1240  0.1439
  256MOL0     C34483   3.099   9.330  10.489  0.8509 -0.5946 -0.0003
  256MOL0     O34484   3.221   9.344  10.428 -0.1291 -0.2501 -0.3270
  256MOL0     C34485   3.230   9.343  10.288 -0.2809  0.3998  0.3979
  256MOL0     C34486   3.362   9.407  10.255 -0.2357 -0.1958 -0.7906
  256MOL0     C34487   3.429   9.379  10.119  0.6757  0.1915 -0.1286
  256MOL0     C34488   3.349   9.415   9.995 -0.4919 -1.0390 -0.7486
  256MOL0     C34489   3.424   9.367   9.879  0.6332  0.1223  0.2229
  256MOL0     C34490   3.486   9.310   9.793  0.2752  0.0454  0.7769
  256MOL0     C34491   3.086   9.376  10.622  0.0384 -0.0223 -0.1256
  256MOL0     C34492   2.958   9.372  10.685 -0.5407  1.0078 -0.4512
  256MOL0     H34493   2.524   9.124  10.798  0.4002 -1.9200  1.4776
  256MOL0     H34494   2.289   9.111  10.891 -1.9880 -1.0163 -2.0489
  256MOL0     H34495   2.019   9.459  10.826  2.5588 -0.7721 -0.3714
  256MOL0     H34496   1.968   9.349  10.689 -0.0539  0.0531  0.0238
  256MOL0     H34497   1.829   9.235  10.855 -2.5643  1.1168 -0.8678
  256MOL0     H34498   1.914   9.335  10.982  1.7594  2.1508 -1.4146
  256MOL0     H34499   1.782   9.534  10.841  0.2002 -0.4034  1.4290
  256MOL0     H34500   1.687   9.387  10.809  2.0994  0.0727 -1.8779
  256MOL0     H34501   1.674   9.365  11.065 -0.5782  0.0184  0.0110
  256MOL0     H34502   1.754   9.518  11.065 -1.1483 -1.1490  2.6629
  256MOL0     H34503   1.487   9.483  10.929  1.8526  0.9168 -0.9880
  256MOL0     H34504   1.495   9.530  11.096 -3.1243 -0.0470 -1.8305
  256MOL0     H34505   1.579   9.733  11.068 -0.5585 -0.9916  0.8698
  256MOL0     H34506   1.637   9.707  10.904 -0.1959  1.5622  0.7351
  256MOL0     H34507   1.462   9.811  10.847  1.3023  0.2352  2.3447
  256MOL0     H34508   1.406   9.645  10.831 -4.1257  1.7502 -1.4582
  256MOL0     H34509   1.293   9.825  11.052 -0.5222 -0.2380 -0.9994
  256MOL0     H34510   1.288   9.656  11.048 -1.5446  1.5428  2.9945
  256MOL0     H34511   1.023   9.756  11.048 -0.8539  1.7588 -1.4502
  256MOL0     H34512   0.779   9.695  10.771  1.6209 -1.2521  0.1998
  256MOL0     H34513   0.799   9.757  10.935  4.1226  2.0714  2.6140
  256MOL0     H34514   0.861   9.918  10.696  0.4054  1.4332 -0.4566
  256MOL0     H34515   0.856   9.982  10.866  0.5871 -0.9821  0.2416
  256MOL0     H34516   0.606   9.912  10.862 -3.0115 -1.3092 -2.9066
  256MOL0     H34517   0.619   9.873  10.699  0.7916 -1.8679  0.4294
  256MOL0     H34518   0.604  10.089  10.631 -2.6787 -2.2668 -0.2296
  256MOL0     H34519   0.709  10.160  10.750 -1.8442  1.3716 -0.3279
  256MOL0     H34520   0.314  10.122  10.961 -0.8619 -1.0124  0.7512
  256MOL0     H34521   0.102  10.082  11.039  1.4762  1.0117 -0.6421
  256MOL0     H34522  -0.011  10.168  10.937 -1.3289 -0.1912  0.4500
  256MOL0     H34523  -0.012   9.988  10.948  2.5683 -1.4322  0.7446
  256MOL0     H34524  -0.326  10.146  10.705 -1.7209 -0.4297  1.3385
  256MOL0     H34525  -0.564  10.069  10.689 -0.7063  0.4020 -2.9780
  256MOL0     H34526  -0.718   9.946  10.512  4.0957  1.8008  0.1299
  256MOL0     H34527  -0.608   9.832  10.441  0.1234  1.9158 -1.1835
  256MOL0     H34528  -0.763   9.647  10.507 -1.1500  0.0957 -0.4229
  256MOL0     H34529  -0.872   9.766  10.582 -0.5828  0.4165 -0.0287
  256MOL0     H34530  -0.803   9.737  10.289 -0.1684 -0.9936  0.0191
  256MOL0     H34531  -0.876   9.886  10.367 -0.6601  0.6293  4.1701
  256MOL0     H34532  -0.965   9.593  10.356 -0.0468 -0.2444 -2.8569
  256MOL0     H34533  -1.056   9.701  10.460 -1.4483 -0.2461 -1.3114
  256MOL0     H34534  -1.055   9.683  10.165  0.7308  0.1915 -0.4115
  256MOL0     H34535  -1.111   9.840  10.238  0.6150  0.4841  1.5160
  256MOL0     H34536  -1.225   9.571  10.318 -1.8855  1.0120  1.7368
  256MOL0     H34537  -1.285   9.719  10.362 -0.5619  2.0449 -0.2388
  256MOL0     H34538  -1.260   9.633  10.074  2.9063 -1.8073  3.3874
  256MOL0     H34539  -1.360   9.771  10.133  2.0270  1.0324 -1.1790
  256MOL0     H34540  -1.487   9.596  10.281  0.7217  0.1184 -0.1155
  256MOL0     H34541  -1.413   9.471  10.174 -2.0206 -0.9538 -2.2908
  256MOL0     H34542  -0.412   9.670  10.656  2.0616 -0.1821 -0.0717
  256MOL0     H34543  -0.179   9.758  10.710  1.7209  1.4058  3.7829
  256MOL0     H34544   0.193   9.954  10.523  1.5293 -0.1078 -0.6842
  256MOL0     H34545   0.430  10.023  10.574  0.2893  1.6638  0.8170
  256MOL0     H34546   2.180   9.435  10.630 -0.6526 -2.0334 -0.6678
  256MOL0     H34547   2.402   9.454  10.544 -0.9490  3.0410  2.6291
  256MOL0     H34548   2.773   9.218  10.452 -0.7217  0.1194 -1.0442
  256MOL0     H34549   2.994   9.214  10.333 -1.8739 -0.7220 -0.1752
  256MOL0     H34550   3.242   9.239  10.256 -4.4515  0.0471 -0.5662
  256MOL0     H34551   3.149   9.395  10.237  1.5113  1.3302 -1.6765
  256MOL0     H34552   3.425   9.374  10.338 -1.7204  4.4071  2.6253
  256MOL0     H34553   3.354   9.514  10.279  0.7197 -0.4925  1.0400
  256MOL0     H34554   3.469   9.277  10.125  0.5993  0.0805 -1.3778
  256MOL0     H34555   3.514   9.447  10.118  1.8567 -1.1757  1.2927
  256MOL0     H34556   3.333   9.523   9.990 -2.7772 -1.3286 -0.9816
  256MOL0     H34557   3.251   9.366  10.005  0.4078 -2.8060 -0.1104
  256MOL0     H34558   3.539   9.294   9.702 -1.2074  2.2774 -0.5611
  256MOL0     H34559   3.169   9.413  10.681  0.9778 -1.1522 -0.6691
  256MOL0     H34560   2.949   9.414  10.784  0.6203  1.1253 -0.3867
  257MOL0     O34561  11.308   6.098   6.276  0.8836 -0.1296  0.3520
  257MOL0     C34562  11.363   6.195   6.334 -0.0587 -0.8526  0.1811
  257MOL0     O34563  11.299   6.284   6.417 -0.4786  0.0088  0.3382
  257MOL0     C34564  11.176   6.265   6.472 -0.5492  0.1485  0.6693
  257MOL0     C34565  11.099   6.145   6.482 -0.2852  0.7623 -0.3357
  257MOL0     C34566  10.974   6.151   6.555  0.5523 -0.6660  0.8662
  257MOL0     C34567  10.933   6.276   6.599  0.5926  0.1386 -1.1816
  257MOL0     O34568  10.823   6.275   6.685  0.0867 -1.1659 -0.6867
  257MOL0     C34569  10.704   6.207   6.647  1.2523  0.3798 -0.2044
  257MOL0     C34570  10.627   6.176   6.784 -0.2908  0.0950  0.4371
  257MOL0     C34571  10.610   6.296   6.867  0.9217 -0.4939 -0.3867
  257MOL0     C34572  10.492   6.254   6.969 -0.6176 -0.5149 -0.1099
  257MOL0     C34573  10.438   6.391   7.010  0.3504 -0.2099  0.2106
  257MOL0     C34574  10.317   6.368   7.104 -0.6612  0.5738  0.3606
  257MOL0     C34575  10.277   6.506   7.157 -0.6857  0.3438  0.1016
  257MOL0     C34576  10.170   6.560   7.064  0.1158  0.6631 -0.1138
  257MOL0     N34577  10.149   6.694   7.109  0.8977  0.8144 -0.0352
  257MOL0     C34578  10.090   6.733   7.227 -0.4421 -0.7248  0.3962
  257MOL0     C34579  10.106   6.866   7.227  0.1767  0.3693 -0.0613
  257MOL0     C34580  10.061   6.943   7.347 -0.1249 -0.0115  0.1797
  257MOL0     C34581   9.940   7.024   7.322  0.8217 -0.1449  0.7794
  257MOL0     C34582   9.823   6.929   7.343 -0.2862  0.3867 -0.1836
  257MOL0     C34583   9.695   7.002   7.309  0.3223 -0.2302  0.3387
  257MOL0     O34584   9.638   7.083   7.413 -0.0635  0.0956  0.5875
  257MOL0     C34585   9.524   7.029   7.467  0.5590  0.3154  0.6786
  257MOL0     C34586   9.407   6.999   7.393  0.2951 -0.1834 -0.7180
  257MOL0     C34587   9.294   6.939   7.448 -0.5689 -0.0971  0.6528
  257MOL0     C34588   9.184   6.903   7.365 -0.5450  0.8111 -0.1287
  257MOL0     C34589   9.276   6.942   7.587 -0.3981  0.3557 -0.0760
  257MOL0     C34590   9.153   6.897   7.656  0.4146  0.2627 -0.8109
  257MOL0     O34591   9.172   6.825   7.771  0.5455 -0.0617  0.3155
  257MOL0     C34592   9.061   6.776   7.837 -0.0135  0.3024 -0.2581
  257MOL0     C34593   9.029   6.820   7.961  1.0262 -0.1979 -0.0794
  257MOL0     C34594   8.921   6.768   8.035  0.1547  0.2212  0.3797
  257MOL0     C34595   8.849   6.654   7.989  0.5203 -0.0994 -0.5892
  257MOL0     O34596   8.734   6.607   8.047 -0.5501 -0.2495  0.5255
  257MOL0     C34597   8.736   6.605   8.187 -0.4101  0.5573 -0.3096
  257MOL0     C34598   8.636   6.517   8.265  0.0606  0.2268 -0.1481
  257MOL0     C34599   8.487   6.547   8.221 -0.3545 -0.4567 -0.8751
  257MOL0     C34600   8.399   6.446   8.292  0.3965 -0.3222 -0.0421
  257MOL0     C34601   8.250   6.458   8.254 -0.5816 -0.1337 -0.1838
  257MOL0     C34602   8.170   6.372   8.357 -0.0562 -0.2673  0.2520
  257MOL0     C34603   8.123   6.446   8.482  0.4629 -0.6888  1.0361
  257MOL0     C34604   8.033   6.361   8.570  0.2925 -0.5361  0.5237
  257MOL0    Cl34605   7.915   6.449   8.672  0.1883 -0.6725  0.2267
  257MOL0     C34606   8.876   6.624   7.861  0.0916  0.3675 -0.4434
  257MOL0     C34607   8.979   6.674   7.787 -0.0898  0.5578 -0.7954
  257MOL0     O34608   9.039   6.932   7.610  0.4489  1.0659 -0.3820
  257MOL0     C34609   9.381   6.993   7.667  0.3006  0.5160  0.0568
  257MOL0     C34610   9.507   7.030   7.610  0.7109  0.4167 -0.0122
  257MOL0     N34611  10.167   6.911   7.112  0.6223 -0.4679  0.3333
  257MOL0     N34612  10.194   6.802   7.041  0.0986  0.4334  0.5339
  257MOL0     C34613  11.006   6.392   6.579 -0.2177 -0.4652 -0.4529
  257MOL0     C34614  11.124   6.385   6.523 -0.8318  0.9360  0.2468
  257MOL0     C34615  11.507   6.225   6.306 -0.4901  0.1432 -0.4747
  257MOL0     C34616  11.573   6.141   6.224 -0.2785  0.8767 -0.4252
  257MOL0     C34617  11.701   6.157   6.175  0.2115  0.2433  0.1017
  257MOL0     C34618  11.778   6.254   6.227  0.2616 -0.2601 -0.1361
  257MOL0     O34619  11.911   6.272   6.199  1.1320 -0.6174  0.2079
  257MOL0     C34620  12.000   6.194   6.284 -0.0092  0.0591  0.4479
  257MOL0     C34621  12.127   6.259   6.277  1.1957 -0.0129 -0.1898
  257MOL0     C34622  12.216   6.186   6.375 -0.4156 -0.8770 -0.7054
  257MOL0     C34623  12.360   6.237   6.367  0.1392  0.1998 -0.1064
  257MOL0     C34624  12.430   6.185   6.486 -0.6447 -0.0356 -0.3041
  257MOL0     C34625  12.492   6.140   6.589  0.7355 -0.3493 -0.9551
  257MOL0     C34626  11.717   6.348   6.309  0.2893 -0.0841 -0.2427
  257MOL0     C34627  11.580   6.339   6.338 -1.0170  0.4112 -0.3562
  257MOL0     H34628  11.141   6.053   6.443  0.1000  0.6237  0.3774
  257MOL0     H34629  10.928   6.053   6.567 -0.1976 -1.0439 -3.6449
  257MOL0     H34630  10.646   6.270   6.578  1.1028  1.9964  1.3203
  257MOL0     H34631  10.713   6.106   6.606 -3.4453 -1.0463  1.6296
  257MOL0     H34632  10.526   6.142   6.761 -2.1343  4.0532  1.8221
  257MOL0     H34633  10.675   6.092   6.835 -0.2551 -0.8464 -1.0776
  257MOL0     H34634  10.700   6.317   6.927  1.1991  2.4969 -1.6918
  257MOL0     H34635  10.602   6.387   6.807  1.6213  0.6616  1.1799
  257MOL0     H34636  10.416   6.194   6.918  0.8445 -1.0699 -1.7178
  257MOL0     H34637  10.529   6.186   7.047 -0.0023  0.2801  0.3062
  257MOL0     H34638  10.522   6.453   7.045 -2.5239  2.3745  3.1321
  257MOL0     H34639  10.405   6.443   6.920 -1.2207  0.0202  0.8961
  257MOL0     H34640  10.233   6.316   7.056  1.2126 -1.8748 -0.4913
  257MOL0     H34641  10.361   6.312   7.187  3.0854 -2.1761 -3.0768
  257MOL0     H34642  10.236   6.497   7.258  1.0170  1.8488  1.0089
  257MOL0     H34643  10.367   6.569   7.149  0.6775 -1.7925 -3.4659
  257MOL0     H34644  10.081   6.497   7.075 -0.5807  1.4021 -1.3087
  257MOL0     H34645  10.205   6.561   6.961 -0.5878  1.7057 -0.3607
  257MOL0     H34646  10.035   6.669   7.296 -4.4889  0.4788 -1.3699
  257MOL0     H34647  10.040   6.888   7.440  1.9440 -1.2237 -0.0063
  257MOL0     H34648  10.139   7.017   7.365 -0.8792  2.1208 -4.0533
  257MOL0     H34649   9.959   7.058   7.220  1.7993 -0.5166  0.8244
  257MOL0     H34650   9.934   7.112   7.386 -0.4216  0.9794 -0.8010
  257MOL0     H34651   9.816   6.896   7.447  0.1682  0.6526 -0.0653
  257MOL0     H34652   9.833   6.837   7.283  0.3916 -0.1374  0.7049
  257MOL0     H34653   9.624   6.937   7.256 -0.1675 -1.8482  2.8077
  257MOL0     H34654   9.714   7.081   7.236  2.3923 -0.5405  0.4769
  257MOL0     H34655   9.399   7.021   7.287 -2.1196  1.5071 -0.2695
  257MOL0     H34656   9.143   6.807   7.397 -0.4722  1.9287  3.8886
  257MOL0     H34657   9.110   6.984   7.368 -0.6981  0.9236 -3.5072
  257MOL0     H34658   9.222   6.900   7.263  2.2417  2.5362  0.7470
  257MOL0     H34659   9.088   6.895   8.013  0.5641 -1.3779  2.2886
  257MOL0     H34660   8.902   6.807   8.135  1.3056 -0.6784  0.9777
  257MOL0     H34661   8.830   6.558   8.217 -0.8726 -0.4978 -0.4513
  257MOL0     H34662   8.736   6.708   8.224  3.3566 -0.3126  2.6861
  257MOL0     H34663   8.656   6.411   8.248  3.1017  0.1006  3.0949
  257MOL0     H34664   8.650   6.535   8.372  2.0255 -0.9326 -0.1576
  257MOL0     H34665   8.491   6.525   8.114 -2.2048 -0.9016 -0.8714
  257MOL0     H34666   8.461   6.652   8.236  0.8199 -0.1727 -0.6803
  257MOL0     H34667   8.435   6.344   8.276 -1.5923 -1.1132  0.3140
  257MOL0     H34668   8.404   6.458   8.400 -4.0195 -4.7087  0.9784
  257MOL0     H34669   8.236   6.414   8.154  0.9106  1.0187 -0.9370
  257MOL0     H34670   8.200   6.555   8.260 -1.5171 -0.6202  0.1118
  257MOL0     H34671   8.085   6.332   8.302 -0.1380 -0.0509  0.2223
  257MOL0     H34672   8.212   6.276   8.390  0.2999 -0.3789 -0.4955
  257MOL0     H34673   8.057   6.528   8.452 -2.5689 -2.2538  2.9151
  257MOL0     H34674   8.200   6.494   8.544  3.9986 -3.6872 -0.6815
  257MOL0     H34675   8.093   6.299   8.637  1.3912  2.3357  2.3699
  257MOL0     H34676   7.980   6.293   8.503  1.0274 -1.5722  0.9775
  257MOL0     H34677   8.817   6.545   7.815  1.5289  0.0012 -1.7236
  257MOL0     H34678   8.997   6.633   7.689 -0.9728 -0.3294 -0.6102
  257MOL0     H34679   9.367   7.004   7.774  0.1596 -2.5706  0.4323
  257MOL0     H34680   9.579   7.061   7.684  0.0402  0.0268  0.8186
  257MOL0     H34681  10.961   6.486   6.610  0.2025 -0.7060  0.9823
  257MOL0     H34682  11.175   6.481   6.516  0.3888  0.3440  0.6124
  257MOL0     H34683  11.516   6.061   6.179  0.4749  0.2933 -0.3722
  257MOL0     H34684  11.746   6.092   6.100 -0.2729 -0.7222  0.6384
  257MOL0     H34685  11.971   6.198   6.389  1.2237  1.8949  0.7723
  257MOL0     H34686  12.005   6.092   6.245  2.6884  0.9372 -1.8155
  257MOL0     H34687  12.121   6.365   6.301 -0.9257 -0.3842  1.1975
  257MOL0     H34688  12.171   6.247   6.178 -0.5856 -1.8916 -0.8314
  257MOL0     H34689  12.214   6.078   6.364  2.3334 -0.8101 -2.8164
  257MOL0     H34690  12.186   6.219   6.475  0.5023 -2.6758  0.2037
  257MOL0     H34691  12.375   6.345   6.353  0.9334 -0.0161 -1.0478
  257MOL0     H34692  12.415   6.198   6.281 -2.2277  1.5862 -2.4149
  257MOL0     H34693  12.550   6.115   6.676 -1.2985  2.4933  1.4306
  257MOL0     H34694  11.768   6.436   6.348 -2.1870  1.4589 -0.2848
  257MOL0     H34695  11.530   6.422   6.387 -1.9695  1.0600 -2.3125
  258MOL0     O34696   0.641   8.007   8.268  0.3754 -0.4626 -0.1251
  258MOL0     C34697   0.686   8.085   8.185  0.1270 -0.4766  0.2470
  258MOL0     O34698   0.615   8.142   8.081 -0.0990  0.0634  0.2980
  258MOL0     C34699   0.481   8.142   8.086 -0.0403 -0.0212  0.3157
  258MOL0     C34700   0.406   8.204   8.189  0.3446  0.2842  0.5829
  258MOL0     C34701   0.265   8.216   8.189 -0.2502 -0.5010  0.6492
  258MOL0     C34702   0.190   8.151   8.089  0.3001  0.1726  0.4122
  258MOL0     O34703   0.051   8.160   8.095 -0.0122 -0.2591  0.6180
  258MOL0     C34704  -0.018   8.079   8.002  0.0059 -0.0029  0.0894
  258MOL0     C34705  -0.166   8.090   8.022  0.2493 -0.4885  0.2375
  258MOL0     C34706  -0.227   8.054   7.882  0.0643 -0.2162  0.6847
  258MOL0     C34707  -0.378   8.049   7.910 -0.5631  0.5197 -0.4857
  258MOL0     C34708  -0.450   7.985   7.797  0.6507  0.0444 -0.0001
  258MOL0     C34709  -0.455   8.069   7.667 -0.7624 -0.1791 -0.2604
  258MOL0     C34710  -0.566   8.024   7.576  1.1138 -0.4754 -0.5942
  258MOL0     C34711  -0.575   7.876   7.544  0.2941 -0.6062 -0.9207
  258MOL0     N34712  -0.655   7.866   7.419 -0.7495  0.4728 -0.0379
  258MOL0     C34713  -0.784   7.827   7.411  0.4669 -0.1289 -0.7018
  258MOL0     C34714  -0.808   7.807   7.275  0.3594  0.7168 -0.4940
  258MOL0     C34715  -0.932   7.745   7.216 -0.5189 -0.0353  0.5270
  258MOL0     C34716  -0.950   7.609   7.266  0.1727 -0.1126 -0.7140
  258MOL0     C34717  -1.100   7.572   7.240 -1.2669  0.3307  0.2087
  258MOL0     C34718  -1.135   7.450   7.322 -0.1264  0.1258 -0.3006
  258MOL0     O34719  -1.147   7.483   7.462  0.5682  0.1235  0.5205
  258MOL0     C34720  -1.264   7.456   7.537  0.6576 -0.0867 -0.0862
  258MOL0     C34721  -1.249   7.498   7.666  0.4754  0.3096  0.2720
  258MOL0     C34722  -1.355   7.485   7.758 -0.0509 -0.7391 -0.2311
  258MOL0     C34723  -1.326   7.531   7.901 -0.2169  0.2174  0.4607
  258MOL0     C34724  -1.479   7.426   7.719 -0.0184 -0.0936 -0.6407
  258MOL0     C34725  -1.609   7.425   7.790  0.9222  0.3477 -0.3774
  258MOL0     O34726  -1.692   7.320   7.755  0.3000  0.6532  0.1517
  258MOL0     C34727  -1.821   7.313   7.812  0.1829  0.8368 -0.3280
  258MOL0     C34728  -1.846   7.259   7.939  0.2147 -0.5587  0.5310
  258MOL0     C34729  -1.975   7.229   7.974  0.2893  0.7150 -0.0458
  258MOL0     C34730  -2.084   7.256   7.887 -0.5395  0.3984 -0.7251
  258MOL0     O34731  -2.209   7.224   7.940 -0.7075 -0.1754 -0.6144
  258MOL0     C34732  -2.325   7.227   7.857 -0.0193  0.4455 -0.6658
  258MOL0     C34733  -2.397   7.366   7.878 -0.5238  0.8681 -0.0244
  258MOL0     C34734  -2.454   7.365   8.023  0.3966 -0.6539  0.5393
  258MOL0     C34735  -2.570   7.270   8.041 -1.2587  0.4066  0.3002
  258MOL0     C34736  -2.679   7.320   8.149 -0.4418  0.7695  0.4810
  258MOL0     C34737  -2.784   7.212   8.157 -1.5451 -0.7079  0.9351
  258MOL0     C34738  -2.881   7.238   8.275 -0.3679  0.1797  0.4796
  258MOL0     C34739  -2.987   7.348   8.249  0.1697 -0.0269  0.0091
  258MOL0    Cl34740  -3.084   7.317   8.107 -0.6869  0.1796  0.2227
  258MOL0     C34741  -2.057   7.301   7.753  0.2598  0.5688 -0.0440
  258MOL0     C34742  -1.924   7.326   7.717  0.1965 -0.2707  0.4112
  258MOL0     O34743  -1.628   7.507   7.879 -0.1421 -0.5945 -0.5570
  258MOL0     C34744  -1.480   7.368   7.587  0.3083 -0.2399  0.2605
  258MOL0     C34745  -1.373   7.377   7.500  0.1126 -0.4207  0.0199
  258MOL0     N34746  -0.694   7.847   7.213 -0.0138  0.2782 -0.2687
  258MOL0     N34747  -0.600   7.875   7.292 -0.2418  0.5725 -0.2658
  258MOL0     C34748   0.268   8.087   7.992 -0.1963  0.2357  0.3010
  258MOL0     C34749   0.404   8.083   7.988 -0.3571 -0.1436 -0.4551
  258MOL0     C34750   0.835   8.117   8.183 -0.4840 -0.7727  0.1233
  258MOL0     C34751   0.918   8.121   8.293  0.0569 -0.4328  0.3896
  258MOL0     C34752   1.058   8.150   8.284 -0.7792  0.4438  0.4399
  258MOL0     C34753   1.126   8.167   8.163  0.8728 -0.1285 -0.8569
  258MOL0     O34754   1.256   8.198   8.176 -0.5012  0.1546  0.3755
  258MOL0     C34755   1.319   8.248   8.055 -0.3574 -0.1699 -0.2195
  258MOL0     C34756   1.466   8.273   8.085  0.1293  0.2653  0.2601
  258MOL0     C34757   1.479   8.369   8.199  0.5963  0.1158  0.3159
  258MOL0     C34758   1.632   8.378   8.239  0.0428 -0.2431 -0.9317
  258MOL0     C34759   1.725   8.393   8.128  0.6528  0.4925 -0.7587
  258MOL0     C34760   1.798   8.389   8.031 -0.3564 -0.5066  1.3378
  258MOL0     C34761   1.040   8.157   8.048  0.3719 -0.8680 -0.6579
  258MOL0     C34762   0.900   8.132   8.058 -0.5105  0.0494 -0.1364
  258MOL0     H34763   0.462   8.248   8.272  0.0818  1.1617  0.3058
  258MOL0     H34764   0.219   8.261   8.277 -1.8594  0.0441 -0.4263
  258MOL0     H34765   0.008   8.115   7.902 -0.7148 -1.7797 -0.7920
  258MOL0     H34766   0.002   7.973   8.024 -1.8817 -0.8361 -1.7752
  258MOL0     H34767  -0.190   8.026   8.107 -0.0182 -0.6040  0.0774
  258MOL0     H34768  -0.200   8.189   8.053 -0.2702 -1.3257  2.5670
  258MOL0     H34769  -0.218   8.140   7.814 -2.7995 -1.3495 -1.3174
  258MOL0     H34770  -0.182   7.967   7.835  0.5773  1.4773 -2.2284
  258MOL0     H34771  -0.405   8.004   8.006  1.3107 -1.9803 -1.0379
  258MOL0     H34772  -0.415   8.152   7.913 -0.8838  0.4054 -0.5289
  258MOL0     H34773  -0.402   7.889   7.774  2.1618  1.0532 -1.2645
  258MOL0     H34774  -0.554   7.964   7.823 -0.1975  0.4706 -2.7008
  258MOL0     H34775  -0.456   8.172   7.703  1.6851 -1.1987  3.3626
  258MOL0     H34776  -0.362   8.063   7.609 -1.0470 -0.1326 -0.7224
  258MOL0     H34777  -0.658   8.045   7.632  1.7213  1.3374 -0.2101
  258MOL0     H34778  -0.557   8.086   7.486  0.8374  0.4160 -0.0291
  258MOL0     H34779  -0.634   7.829   7.623  2.8379 -0.1080  1.4281
  258MOL0     H34780  -0.471   7.840   7.538  1.1841  0.7299  3.3453
  258MOL0     H34781  -0.863   7.816   7.485 -2.6858  1.5026 -3.5389
  258MOL0     H34782  -1.015   7.815   7.223 -0.0701  0.6615 -0.7160
  258MOL0     H34783  -0.912   7.734   7.109 -3.2362  0.3866 -0.0920
  258MOL0     H34784  -0.939   7.604   7.375 -1.2723  1.5414 -0.4377
  258MOL0     H34785  -0.879   7.533   7.232  1.9427 -0.6009  3.4836
  258MOL0     H34786  -1.110   7.541   7.136  2.3854 -0.8141  0.0352
  258MOL0     H34787  -1.165   7.654   7.270  0.5830  2.5675 -1.5040
  258MOL0     H34788  -1.071   7.365   7.300  1.5812  0.7330  1.9750
  258MOL0     H34789  -1.234   7.414   7.290  0.7342 -2.4735 -0.3021
  258MOL0     H34790  -1.170   7.567   7.695  0.1195  1.6449 -1.7241
  258MOL0     H34791  -1.217   7.531   7.909  0.0330 -2.8044 -1.3025
  258MOL0     H34792  -1.367   7.630   7.923 -2.2067  0.5898 -3.8644
  258MOL0     H34793  -1.363   7.455   7.971 -0.3951  0.3326  0.4918
  258MOL0     H34794  -1.760   7.234   8.000 -0.1913 -2.0893  0.5308
  258MOL0     H34795  -2.001   7.198   8.075 -0.2820 -0.9669 -0.6907
  258MOL0     H34796  -2.306   7.179   7.760  1.1827  1.2937 -0.8714
  258MOL0     H34797  -2.393   7.154   7.902 -0.8052  1.2852 -0.4703
  258MOL0     H34798  -2.319   7.442   7.865  1.3400 -1.2867 -2.5040
  258MOL0     H34799  -2.465   7.379   7.793  1.3466  2.6242 -1.3506
  258MOL0     H34800  -2.473   7.468   8.054  1.3957 -0.3811  0.2821
  258MOL0     H34801  -2.374   7.337   8.093  3.0349  2.2250 -1.0578
  258MOL0     H34802  -2.618   7.254   7.944  1.5071 -0.4729 -1.0264
  258MOL0     H34803  -2.540   7.168   8.068 -0.0126  0.9875  1.1771
  258MOL0     H34804  -2.728   7.415   8.125  0.5743  0.9940 -0.8615
  258MOL0     H34805  -2.627   7.329   8.245  1.2984  0.1887 -0.3514
  258MOL0     H34806  -2.841   7.200   8.065 -2.1776 -0.5231  1.2966
  258MOL0     H34807  -2.734   7.116   8.173  3.5287  1.2121 -1.2575
  258MOL0     H34808  -2.831   7.267   8.367 -1.8690  2.3463  0.6911
  258MOL0     H34809  -2.923   7.137   8.285 -0.2598 -0.1058 -1.4560
  258MOL0     H34810  -2.931   7.442   8.239  2.6537 -1.4659 -0.5270
  258MOL0     H34811  -3.057   7.359   8.332 -0.7145 -1.8656 -0.4296
  258MOL0     H34812  -2.133   7.317   7.678  1.8775  0.5024 -1.7789
  258MOL0     H34813  -1.900   7.350   7.613 -0.0818 -2.0361 -0.1007
  258MOL0     H34814  -1.563   7.309   7.549  1.4849 -2.4600  0.9706
  258MOL0     H34815  -1.388   7.341   7.399 -0.4326  0.8392 -0.3709
  258MOL0     H34816   0.223   8.035   7.907 -1.5862 -2.8914  2.7385
  258MOL0     H34817   0.443   8.033   7.900  0.5784  0.6521 -0.5143
  258MOL0     H34818   0.872   8.111   8.390  0.0099 -2.0484  0.2153
  258MOL0     H34819   1.128   8.161   8.366 -0.0623  3.0381 -0.4275
  258MOL0     H34820   1.312   8.177   7.972  0.9283  0.7843 -1.1970
  258MOL0     H34821   1.263   8.338   8.029 -2.3547 -1.5545 -0.9274
  258MOL0     H34822   1.509   8.316   7.994  2.3263  2.1663  2.0488
  258MOL0     H34823   1.509   8.173   8.099  0.5140  0.5463  1.1799
  258MOL0     H34824   1.423   8.344   8.290 -0.5705  0.7692 -0.2057
  258MOL0     H34825   1.438   8.461   8.157  1.3277 -0.0189 -0.7467
  258MOL0     H34826   1.659   8.284   8.288 -0.7394 -0.8848 -1.6907
  258MOL0     H34827   1.640   8.463   8.307 -2.7870 -0.3661 -0.3117
  258MOL0     H34828   1.865   8.396   7.949 -1.5901  1.1734  0.3922
  258MOL0     H34829   1.079   8.184   7.951  1.6793 -2.5181 -0.6301
  258MOL0     H34830   0.835   8.125   7.971 -1.6362 -1.3995  0.7772
  259MOL0     O34831   4.240   4.826   3.047  0.8176  0.6500 -0.2468
  259MOL0     C34832   4.245   4.815   3.166 -0.1559  0.7969  0.2362
  259MOL0     O34833   4.146   4.763   3.241 -1.1308 -0.3146  0.3471
  259MOL0     C34834   4.022   4.761   3.175 -0.9048 -0.4706  1.1984
  259MOL0     C34835   3.946   4.642   3.160  1.0450  0.2759  0.1553
  259MOL0     C34836   3.821   4.639   3.110  0.2866 -0.5303  0.0604
  259MOL0     C34837   3.768   4.759   3.067 -0.4287 -0.0899  1.1046
  259MOL0     O34838   3.646   4.745   3.005 -0.1154  0.6681  0.0812
  259MOL0     C34839   3.587   4.833   2.916 -0.4958 -0.0653  0.6402
  259MOL0     C34840   3.506   4.937   2.998 -0.3646  0.3424  0.4307
  259MOL0     C34841   3.411   4.880   3.098  0.1658  0.0790 -0.4462
  259MOL0     C34842   3.283   4.817   3.029  0.5078  0.8554 -0.3097
  259MOL0     C34843   3.140   4.805   3.104  0.1156  0.7808  0.0523
  259MOL0     C34844   3.161   4.767   3.246 -0.6490  0.8331 -0.6581
  259MOL0     C34845   3.044   4.701   3.312  0.3779 -0.5239 -0.6721
  259MOL0     C34846   2.923   4.779   3.291 -0.3926 -0.3992 -0.8862
  259MOL0     N34847   2.820   4.742   3.382  1.2234  0.5379 -0.6387
  259MOL0     C34848   2.743   4.827   3.456 -0.2822  0.1899 -1.3231
  259MOL0     C34849   2.634   4.758   3.496 -0.1810 -0.4133  0.1313
  259MOL0     C34850   2.533   4.820   3.586 -0.0484  0.8416 -0.0738
  259MOL0     C34851   2.391   4.778   3.535 -0.0089  0.4884 -0.0947
  259MOL0     C34852   2.282   4.875   3.593 -1.4031 -0.0264  0.0660
  259MOL0     C34853   2.148   4.816   3.582  0.8179  0.4807 -0.4359
  259MOL0     O34854   2.056   4.915   3.633  0.2131 -0.0041 -0.0342
  259MOL0     C34855   1.916   4.877   3.621  0.5130 -0.4487  0.5382
  259MOL0     C34856   1.857   4.763   3.561 -0.3439  0.6002  0.1134
  259MOL0     C34857   1.720   4.745   3.556  0.6713  0.0863  0.1541
  259MOL0     C34858   1.676   4.627   3.473  0.1291 -0.2039  0.2868
  259MOL0     C34859   1.632   4.842   3.620  0.5638  0.8918  0.3308
  259MOL0     C34860   1.489   4.841   3.628 -0.0265 -0.5729 -0.9568
  259MOL0     O34861   1.429   4.953   3.684 -0.4915  0.1822 -0.1494
  259MOL0     C34862   1.300   4.941   3.722 -0.0196 -0.4226 -0.4657
  259MOL0     C34863   1.251   4.837   3.800  0.3428 -0.0757 -0.0285
  259MOL0     C34864   1.118   4.835   3.848 -0.5099 -1.0585  0.8323
  259MOL0     C34865   1.024   4.928   3.810 -0.2737  0.3243 -0.4003
  259MOL0     O34866   0.898   4.922   3.865  0.1971  0.2635  0.5571
  259MOL0     C34867   0.801   5.006   3.786 -0.9809  0.5081  0.3726
  259MOL0     C34868   0.669   4.989   3.849  0.1360  0.1630 -0.5055
  259MOL0     C34869   0.560   5.058   3.781 -0.6329  0.0522  0.2379
  259MOL0     C34870   0.425   5.066   3.856  1.2338 -0.5287  0.3663
  259MOL0     C34871   0.326   5.159   3.787 -0.7458  0.3844  0.0939
  259MOL0     C34872   0.205   5.179   3.878 -0.0875 -0.9110  0.0207
  259MOL0     C34873   0.097   5.260   3.804  0.1679  0.1260  0.7728
  259MOL0     C34874  -0.006   5.305   3.905 -0.4145  0.1361  0.2433
  259MOL0    Cl34875  -0.144   5.382   3.824  0.4824 -0.1206  0.2465
  259MOL0     C34876   1.076   5.033   3.725  0.7303  0.6475 -0.8014
  259MOL0     C34877   1.205   5.037   3.689 -0.3458 -0.1940 -0.2437
  259MOL0     O34878   1.435   4.737   3.587 -0.0366  0.5288 -0.4564
  259MOL0     C34879   1.692   4.956   3.682  0.3601 -0.3078 -0.1007
  259MOL0     C34880   1.830   4.974   3.677  0.3957  0.6367 -0.0459
  259MOL0     N34881   2.655   4.624   3.468  0.3057  0.2690 -0.3211
  259MOL0     N34882   2.763   4.614   3.400 -0.2885 -0.3979 -0.2755
  259MOL0     C34883   3.820   4.880   3.093 -0.4449 -0.4605 -0.2070
  259MOL0     C34884   3.957   4.881   3.144  0.3987  0.1950 -0.4258
  259MOL0     C34885   4.370   4.862   3.234 -0.5271  0.4485  0.0324
  259MOL0     C34886   4.394   4.814   3.371 -0.1600 -0.1134 -0.0397
  259MOL0     C34887   4.520   4.840   3.428  0.4418  0.0218  0.1822
  259MOL0     C34888   4.619   4.930   3.369  0.7823  0.6665 -0.0307
  259MOL0     O34889   4.749   4.949   3.419 -0.0331 -0.2717 -0.5553
  259MOL0     C34890   4.812   4.851   3.504 -0.9638  0.2158  0.4194
  259MOL0     C34891   4.948   4.904   3.544  0.1305 -0.3593 -0.0646
  259MOL0     C34892   5.023   4.786   3.591 -0.1135 -0.5734  0.0681
  259MOL0     C34893   5.144   4.835   3.679  0.1422  0.1254 -0.1657
  259MOL0     C34894   5.252   4.896   3.599  0.1224 -0.0682 -0.9389
  259MOL0     C34895   5.343   4.948   3.538 -0.4554 -0.8923 -0.6632
  259MOL0     C34896   4.575   4.994   3.252 -0.2007 -0.3428  0.4008
  259MOL0     C34897   4.457   4.959   3.186 -0.0946 -0.2820  0.4596
  259MOL0     H34898   3.985   4.545   3.192 -2.5647 -1.4555 -0.1702
  259MOL0     H34899   3.764   4.549   3.091  2.1465 -1.4399 -1.5516
  259MOL0     H34900   3.655   4.886   2.849 -0.0755  0.2768  1.3265
  259MOL0     H34901   3.514   4.779   2.854 -0.4571  2.5829 -1.9538
  259MOL0     H34902   3.575   4.994   3.061  0.5683 -2.0634  1.6863
  259MOL0     H34903   3.452   5.002   2.927  0.9641  0.9867 -0.0347
  259MOL0     H34904   3.451   4.797   3.157 -0.0061  0.4755  0.2427
  259MOL0     H34905   3.377   4.959   3.165 -0.9963  0.0358 -0.9639
  259MOL0     H34906   3.277   4.861   2.930  2.1102 -2.4754 -2.0540
  259MOL0     H34907   3.321   4.718   3.003  1.2148  0.7358  1.0796
  259MOL0     H34908   3.097   4.906   3.106  0.7218  1.0439  0.8176
  259MOL0     H34909   3.071   4.748   3.041  1.1874 -0.2785 -0.2035
  259MOL0     H34910   3.254   4.713   3.264 -0.7460  0.6881 -0.5934
  259MOL0     H34911   3.186   4.863   3.293  2.4529 -0.4044  0.4637
  259MOL0     H34912   3.033   4.603   3.265 -0.7986 -0.7431  0.0361
  259MOL0     H34913   3.056   4.695   3.420 -1.4886 -2.2385 -0.5084
  259MOL0     H34914   2.893   4.754   3.189 -0.8475 -1.6886 -0.4542
  259MOL0     H34915   2.935   4.887   3.279  1.3653 -0.2984  1.1564
  259MOL0     H34916   2.753   4.933   3.474 -2.1947  0.1598  0.3231
  259MOL0     H34917   2.555   4.781   3.686 -1.5290 -0.2028 -0.1098
  259MOL0     H34918   2.548   4.928   3.587  2.1367  0.5881 -0.9142
  259MOL0     H34919   2.367   4.674   3.557  2.4751  0.3279  2.3783
  259MOL0     H34920   2.388   4.803   3.429  4.4309 -0.2160 -0.5677
  259MOL0     H34921   2.288   4.979   3.561 -0.9497 -0.3854 -1.0739
  259MOL0     H34922   2.303   4.879   3.700  0.3563  1.1470 -0.2905
  259MOL0     H34923   2.134   4.723   3.637  0.5396  0.4934 -0.4817
  259MOL0     H34924   2.118   4.790   3.480 -1.3977  1.5238 -0.1160
  259MOL0     H34925   1.923   4.692   3.513  0.6209  0.2607  1.8640
  259MOL0     H34926   1.752   4.550   3.453 -1.0479 -0.7303 -2.6525
  259MOL0     H34927   1.595   4.573   3.524  0.1582  0.0228  0.5727
  259MOL0     H34928   1.640   4.662   3.377  0.5628 -1.7365 -0.4707
  259MOL0     H34929   1.310   4.750   3.828 -0.1139 -0.3913 -0.0472
  259MOL0     H34930   1.100   4.752   3.915 -0.4880 -1.3187  0.5158
  259MOL0     H34931   0.829   5.111   3.788 -0.6132  0.5239 -2.2207
  259MOL0     H34932   0.803   4.973   3.681  2.4694  5.2368 -1.3739
  259MOL0     H34933   0.645   4.883   3.855 -0.4392  0.3358  0.5724
  259MOL0     H34934   0.667   5.028   3.951 -1.7147  0.2984 -0.5709
  259MOL0     H34935   0.542   5.019   3.680 -2.0868  2.3338 -0.4524
  259MOL0     H34936   0.588   5.163   3.772  1.1439 -0.0721  3.1649
  259MOL0     H34937   0.372   4.971   3.873 -0.9169  0.4562 -0.4747
  259MOL0     H34938   0.458   5.106   3.952  0.6231  1.6344 -0.2648
  259MOL0     H34939   0.293   5.107   3.697 -1.5898 -4.1801  2.7414
  259MOL0     H34940   0.374   5.252   3.755 -0.2214 -0.0700 -0.4862
  259MOL0     H34941   0.157   5.086   3.910 -0.5350 -0.9258 -0.6755
  259MOL0     H34942   0.243   5.232   3.966  0.2258 -0.3655 -0.4448
  259MOL0     H34943   0.050   5.196   3.728 -2.5052  0.5155  1.9879
  259MOL0     H34944   0.139   5.350   3.759 -1.9785  0.8623  0.1111
  259MOL0     H34945   0.037   5.375   3.977 -3.1047  1.9457  0.2191
  259MOL0     H34946  -0.037   5.216   3.960 -2.0341  1.4136  1.4683
  259MOL0     H34947   1.011   5.116   3.698 -2.0792  0.0322  3.0900
  259MOL0     H34948   1.242   5.117   3.625 -0.3148  1.0874  1.3175
  259MOL0     H34949   1.632   5.037   3.723  1.1736  0.5347 -0.5533
  259MOL0     H34950   1.874   5.071   3.700 -2.3245  2.7224 -2.8732
  259MOL0     H34951   3.788   4.977   3.056  4.8768  0.4791 -3.5470
  259MOL0     H34952   4.014   4.973   3.158  0.7883  0.0640 -1.1158
  259MOL0     H34953   4.329   4.749   3.428  1.7452 -2.0889 -0.0018
  259MOL0     H34954   4.544   4.803   3.527 -0.2207 -2.3093 -0.4710
  259MOL0     H34955   4.746   4.831   3.590 -1.8550 -1.6897 -0.6599
  259MOL0     H34956   4.828   4.758   3.449 -0.0296  0.0166  1.0054
  259MOL0     H34957   4.929   4.986   3.614  0.0533  0.4061 -0.9544
  259MOL0     H34958   4.992   4.945   3.452 -0.8285  2.9338  0.7936
  259MOL0     H34959   5.054   4.720   3.508 -0.6504 -1.1632  0.3276
  259MOL0     H34960   4.959   4.726   3.656  0.6290 -1.1153  0.3185
  259MOL0     H34961   5.171   4.755   3.749  1.7315  1.3881  0.7195
  259MOL0     H34962   5.100   4.911   3.744 -3.0435 -1.1158 -0.6346
  259MOL0     H34963   5.418   5.018   3.506 -0.8172  0.9565  2.1539
  259MOL0     H34964   4.638   5.057   3.192 -0.2978 -0.4951  0.1394
  259MOL0     H34965   4.435   5.012   3.094 -0.5354 -0.1243  0.6498
  260MOL0     O34966   3.574   5.301   7.859  0.3898 -0.2037 -0.0585
  260MOL0     C34967   3.664   5.257   7.782  1.4594 -0.3037 -0.5244
  260MOL0     O34968   3.732   5.342   7.699 -0.2808  0.8259  0.6358
  260MOL0     C34969   3.716   5.474   7.692 -0.7937 -0.2444  1.7473
  260MOL0     C34970   3.832   5.541   7.648 -0.3627 -0.8433  0.8960
  260MOL0     C34971   3.833   5.678   7.638 -0.5114  0.9249 -0.4765
  260MOL0     C34972   3.715   5.754   7.649 -0.2151 -1.6013 -0.5896
  260MOL0     O34973   3.709   5.896   7.656 -0.0996  0.2825  0.1779
  260MOL0     C34974   3.812   5.954   7.573  0.7341 -0.7325  0.3230
  260MOL0     C34975   3.775   6.098   7.529  0.1064 -0.0284  0.1701
  260MOL0     C34976   3.652   6.086   7.432 -0.7149  0.0862  0.0478
  260MOL0     C34977   3.618   6.234   7.399  0.0413 -0.0643  0.2420
  260MOL0     C34978   3.480   6.239   7.337 -0.0027  0.0378 -0.1844
  260MOL0     C34979   3.439   6.385   7.307 -0.1507  0.8112  0.4922
  260MOL0     C34980   3.293   6.366   7.260  0.6492 -0.0445  0.2940
  260MOL0     C34981   3.235   6.507   7.244 -0.7176  0.6192 -0.5419
  260MOL0     N34982   3.091   6.511   7.197  0.8857  0.4657  0.0403
  260MOL0     C34983   2.976   6.490   7.271  0.2922 -0.1520 -0.2211
  260MOL0     C34984   2.876   6.455   7.180 -0.4127  0.0052 -0.2324
  260MOL0     C34985   2.737   6.419   7.214 -0.0291 -0.0870  0.2307
  260MOL0     C34986   2.639   6.536   7.190 -0.6997 -0.7114 -0.6870
  260MOL0     C34987   2.494   6.486   7.201 -0.2722 -0.7048  0.6780
  260MOL0     C34988   2.405   6.610   7.211 -0.1432 -0.0818 -0.3496
  260MOL0     O34989   2.265   6.560   7.236 -0.1182  0.5612 -0.2456
  260MOL0     C34990   2.174   6.649   7.280  0.1546  0.3868  0.1858
  260MOL0     C34991   2.189   6.764   7.361  0.9872  0.5074  0.1652
  260MOL0     C34992   2.083   6.849   7.390  0.3661  0.1600  0.0948
  260MOL0     C34993   2.108   6.966   7.477  0.4078  0.1864 -0.5070
  260MOL0     C34994   1.949   6.821   7.346  0.4624  1.0241  0.0337
  260MOL0     C34995   1.825   6.890   7.389 -1.4860  1.2098  0.0537
  260MOL0     O34996   1.708   6.811   7.404 -0.1928  0.3738 -0.1582
  260MOL0     C34997   1.590   6.855   7.464 -0.9819  0.0744 -0.1071
  260MOL0     C34998   1.575   6.980   7.530  0.0140 -0.3845 -0.7122
  260MOL0     C34999   1.446   7.016   7.580  0.4366 -0.2843  0.1121
  260MOL0     C35000   1.335   6.928   7.563 -0.1505  0.5616 -0.3310
  260MOL0     O35001   1.228   6.974   7.632  0.5851 -0.0560 -0.2880
  260MOL0     C35002   1.119   6.889   7.660  0.7073  0.5805 -0.1321
  260MOL0     C35003   1.033   6.953   7.772  1.0163  0.4599 -0.6879
  260MOL0     C35004   0.902   6.879   7.783  0.4120  0.8085 -0.6447
  260MOL0     C35005   0.793   6.957   7.866  0.0198  0.6141  0.1625
  260MOL0     C35006   0.692   6.853   7.922  0.0845 -0.9134 -0.4345
  260MOL0     C35007   0.560   6.918   7.977 -0.4726  0.7222  0.4786
  260MOL0     C35008   0.463   6.818   8.027  0.4824  0.9275  0.1176
  260MOL0     C35009   0.317   6.845   8.046  0.4262  0.1532 -0.0380
  260MOL0    Cl35010   0.296   6.914   8.210  0.2023 -0.0722 -0.0037
  260MOL0     C35011   1.348   6.812   7.480  0.0320 -0.0830 -1.2678
  260MOL0     C35012   1.477   6.779   7.440  0.1808  0.7546  0.3721
  260MOL0     O35013   1.823   7.010   7.383 -0.6562 -0.6397  0.0253
  260MOL0     C35014   1.934   6.702   7.267 -0.2152 -0.4729 -0.5697
  260MOL0     C35015   2.046   6.625   7.232 -0.2188  0.7449 -0.7352
  260MOL0     N35016   2.928   6.453   7.056 -0.6799 -0.0848  0.3488
  260MOL0     N35017   3.054   6.490   7.062  0.2774  1.0391 -0.1483
  260MOL0     C35018   3.601   5.683   7.678  0.3404  0.0667  0.0782
  260MOL0     C35019   3.601   5.544   7.704  0.3200 -0.6154 -0.4658
  260MOL0     C35020   3.694   5.116   7.791  0.2311  1.1108 -0.6004
  260MOL0     C35021   3.807   5.066   7.722  0.0176  0.1896  0.6321
  260MOL0     C35022   3.851   4.930   7.739  0.5587  0.4527  0.1357
  260MOL0     C35023   3.774   4.841   7.821 -0.7325 -0.5987 -0.0086
  260MOL0     O35024   3.811   4.711   7.815  0.4480 -0.1662 -0.3650
  260MOL0     C35025   3.800   4.640   7.939 -0.0473 -0.0524  0.2652
  260MOL0     C35026   3.909   4.540   7.964 -0.6983  0.4437 -0.1300
  260MOL0     C35027   4.051   4.600   7.957 -0.9764 -0.1885 -0.7065
  260MOL0     C35028   4.161   4.493   7.947  0.4820  0.1665  0.1045
  260MOL0     C35029   4.180   4.417   8.069  0.3997  0.4201 -0.2052
  260MOL0     C35030   4.179   4.349   8.171  0.4678  0.8530 -0.2047
  260MOL0     C35031   3.653   4.892   7.875 -0.2130  0.0715  0.0732
  260MOL0     C35032   3.615   5.029   7.866  0.2342  0.1494 -0.4563
  260MOL0     H35033   3.924   5.487   7.631 -1.6655 -2.4270 -1.7733
  260MOL0     H35034   3.931   5.724   7.627  0.1285  0.7110  3.0782
  260MOL0     H35035   3.911   5.945   7.619  0.2840  1.1332  1.7640
  260MOL0     H35036   3.826   5.905   7.477  1.0096  2.1496 -1.2076
  260MOL0     H35037   3.757   6.159   7.617 -1.5191  1.0175 -0.8465
  260MOL0     H35038   3.864   6.138   7.479 -0.1523  0.4368  0.0834
  260MOL0     H35039   3.672   6.029   7.341  2.7111  1.7590 -0.4374
  260MOL0     H35040   3.569   6.047   7.491 -0.2441  0.7551  1.1865
  260MOL0     H35041   3.622   6.298   7.488 -1.6479 -1.7832  1.6282
  260MOL0     H35042   3.696   6.275   7.334 -0.9597  1.9636  0.2445
  260MOL0     H35043   3.469   6.182   7.244  1.3168  2.5753 -2.0394
  260MOL0     H35044   3.406   6.205   7.410 -0.9725  0.0506 -1.1323
  260MOL0     H35045   3.452   6.452   7.393  1.7685 -0.1947  1.0350
  260MOL0     H35046   3.500   6.423   7.225  2.8513  0.6983  2.5433
  260MOL0     H35047   3.296   6.314   7.164 -1.0012  0.8476 -0.2754
  260MOL0     H35048   3.236   6.301   7.328  1.4790 -2.6308 -1.3372
  260MOL0     H35049   3.305   6.574   7.193  0.2491  0.1231  0.1197
  260MOL0     H35050   3.234   6.552   7.344  1.6803 -0.4016 -0.0131
  260MOL0     H35051   2.953   6.504   7.377  1.5845  0.7008 -0.0222
  260MOL0     H35052   2.704   6.343   7.143 -0.3419  1.5837 -1.4851
  260MOL0     H35053   2.725   6.386   7.318 -0.8020 -1.0989 -0.1681
  260MOL0     H35054   2.655   6.573   7.088 -0.9233 -1.7836 -1.1250
  260MOL0     H35055   2.662   6.613   7.264 -0.8391 -2.1652  0.9135
  260MOL0     H35056   2.484   6.431   7.295 -1.5565  0.2283  1.1233
  260MOL0     H35057   2.469   6.416   7.121  2.8661 -1.1999 -0.0014
  260MOL0     H35058   2.406   6.655   7.112  0.4522  1.3522  0.2819
  260MOL0     H35059   2.423   6.680   7.293 -2.8156  0.7555 -0.3718
  260MOL0     H35060   2.276   6.791   7.420  0.6634  0.1177  0.8294
  260MOL0     H35061   2.073   7.056   7.427 -1.4085  0.0910  0.5276
  260MOL0     H35062   2.062   6.953   7.575 -0.8820  2.8463 -0.6804
  260MOL0     H35063   2.216   6.978   7.491  0.2254  0.1804  1.1415
  260MOL0     H35064   1.656   7.050   7.542 -1.1549  0.5204  3.8657
  260MOL0     H35065   1.421   7.103   7.639 -2.2963  0.9201 -2.5363
  260MOL0     H35066   1.056   6.879   7.571  1.3928  0.2958 -0.5926
  260MOL0     H35067   1.149   6.785   7.678 -0.4084  0.4833  1.4244
  260MOL0     H35068   1.080   6.963   7.870  0.6744  0.1030 -0.4834
  260MOL0     H35069   1.013   7.050   7.727 -4.5598  0.0234  0.1764
  260MOL0     H35070   0.923   6.785   7.834  0.6120  2.3794  2.4098
  260MOL0     H35071   0.846   6.858   7.691 -0.7812 -2.2075  0.6379
  260MOL0     H35072   0.851   7.003   7.946  1.2427 -2.3989  1.1782
  260MOL0     H35073   0.744   7.030   7.801 -0.4229  0.7856  0.6852
  260MOL0     H35074   0.732   6.789   8.002 -0.2541 -1.5697 -0.7811
  260MOL0     H35075   0.670   6.779   7.844  1.9136  0.3776 -2.2703
  260MOL0     H35076   0.594   6.970   8.067 -1.1550 -0.6535  1.5720
  260MOL0     H35077   0.515   6.988   7.905  3.6861 -0.0586 -3.2987
  260MOL0     H35078   0.494   6.779   8.124 -1.2597  0.0623  0.3652
  260MOL0     H35079   0.466   6.741   7.950 -2.3361  1.8931 -1.1288
  260MOL0     H35080   0.254   6.756   8.039  0.9957 -0.3189  0.6965
  260MOL0     H35081   0.286   6.927   7.981  1.8653  1.3607  0.7467
  260MOL0     H35082   1.267   6.753   7.437  0.5128 -1.0240 -0.9169
  260MOL0     H35083   1.491   6.688   7.383  2.4933  0.3425  1.4775
  260MOL0     H35084   1.840   6.677   7.218  0.2623  0.4497 -2.0231
  260MOL0     H35085   2.041   6.555   7.150  3.2397  0.4708 -0.8746
  260MOL0     H35086   3.505   5.734   7.679 -0.1567 -0.8345  1.6824
  260MOL0     H35087   3.510   5.489   7.727 -0.0322  0.0949 -0.1188
  260MOL0     H35088   3.863   5.129   7.653 -1.1668  2.1513  1.3723
  260MOL0     H35089   3.937   4.891   7.686  0.3380 -0.8224  0.6827
  260MOL0     H35090   3.815   4.708   8.024 -0.8240 -0.8252  1.0488
  260MOL0     H35091   3.709   4.580   7.944  0.1738 -0.3218  2.9382
  260MOL0     H35092   3.900   4.454   7.896 -0.0210 -0.6418  1.0980
  260MOL0     H35093   3.888   4.505   8.065 -1.0133  2.7016  0.6316
  260MOL0     H35094   4.054   4.657   8.050 -0.2365 -3.9335  1.7647
  260MOL0     H35095   4.068   4.675   7.879  2.8657 -0.9382 -0.7904
  260MOL0     H35096   4.256   4.539   7.921  0.8404 -0.7798 -0.3286
  260MOL0     H35097   4.130   4.424   7.867  1.5122 -0.6533  0.3819
  260MOL0     H35098   4.190   4.291   8.260  4.8647  0.3010 -0.8531
  260MOL0     H35099   3.584   4.824   7.924  1.3119 -0.6207  1.3766
  260MOL0     H35100   3.526   5.068   7.915  0.2927  0.6561 -0.7525
  261MOL0     O35101   2.530   1.632   2.333 -0.1363 -0.0292 -0.5973
  261MOL0     C35102   2.558   1.520   2.385 -0.4964  0.1142 -0.8212
  261MOL0     O35103   2.464   1.437   2.456 -0.2576 -0.7859  0.2368
  261MOL0     C35104   2.344   1.498   2.474  0.2473  0.1613 -0.7364
  261MOL0     C35105   2.244   1.504   2.378  1.0721  0.0789  1.0449
  261MOL0     C35106   2.118   1.537   2.418  0.2590  0.3425  0.1712
  261MOL0     C35107   2.088   1.573   2.550  0.5016 -0.0102 -0.9794
  261MOL0     O35108   1.963   1.619   2.580 -0.6527  1.1278 -0.1951
  261MOL0     C35109   1.969   1.765   2.590 -0.1152 -0.4834  0.1220
  261MOL0     C35110   1.833   1.825   2.595 -0.0655 -0.0668 -0.9636
  261MOL0     C35111   1.735   1.780   2.489 -0.1706 -0.1272  0.1151
  261MOL0     C35112   1.608   1.853   2.498  0.6290 -0.1458 -0.2350
  261MOL0     C35113   1.629   1.980   2.413  0.0170  0.3025  0.1611
  261MOL0     C35114   1.503   2.074   2.414 -0.8647 -0.2903  0.0778
  261MOL0     C35115   1.359   2.020   2.468  0.0166 -0.0029 -1.0839
  261MOL0     C35116   1.244   2.123   2.435 -1.1436 -0.5568  0.0232
  261MOL0     N35117   1.116   2.059   2.431 -0.2063  0.3239 -0.9006
  261MOL0     C35118   1.088   1.935   2.381  0.1620 -0.0178 -0.2703
  261MOL0     C35119   0.957   1.927   2.397 -0.5039  0.1556 -0.2920
  261MOL0     C35120   0.876   1.799   2.364 -0.8342  0.6875  0.8415
  261MOL0     C35121   0.750   1.838   2.286  0.4361 -1.3282  1.1394
  261MOL0     C35122   0.635   1.739   2.301 -0.2159  1.1977  0.3718
  261MOL0     C35123   0.498   1.788   2.244 -0.0142  0.3404  0.2069
  261MOL0     O35124   0.431   1.875   2.341  0.7352  0.4194 -0.1069
  261MOL0     C35125   0.319   1.947   2.303 -0.7676 -0.7028 -0.6779
  261MOL0     C35126   0.276   2.047   2.395  0.2562 -0.3120  0.1116
  261MOL0     C35127   0.166   2.134   2.373  0.7655  0.2290  0.4530
  261MOL0     C35128   0.147   2.241   2.466  0.0609  0.7584 -0.0923
  261MOL0     C35129   0.087   2.112   2.253 -0.6324  0.2670  0.5903
  261MOL0     C35130  -0.037   2.188   2.209 -0.4846 -0.1475  0.3442
  261MOL0     O35131  -0.080   2.275   2.304  0.5500  0.1964 -0.0353
  261MOL0     C35132  -0.207   2.327   2.293  0.0613  0.6513  0.0035
  261MOL0     C35133  -0.307   2.283   2.387 -0.2770 -0.8504  0.2987
  261MOL0     C35134  -0.424   2.347   2.401  0.4513 -0.3263 -0.0756
  261MOL0     C35135  -0.450   2.458   2.329 -0.0098  0.1992 -0.1001
  261MOL0     O35136  -0.572   2.521   2.349 -0.2054 -0.1865  0.1697
  261MOL0     C35137  -0.592   2.649   2.288  0.1180  0.8735 -0.1907
  261MOL0     C35138  -0.712   2.694   2.377 -0.3473  0.9266  0.5604
  261MOL0     C35139  -0.659   2.771   2.496 -0.3010  0.1139 -0.2907
  261MOL0     C35140  -0.762   2.858   2.566 -0.4218  0.7259  0.5771
  261MOL0     C35141  -0.760   3.000   2.506  1.2095 -1.2027  0.0754
  261MOL0     C35142  -0.884   3.077   2.535 -0.6869  0.0356 -0.3117
  261MOL0     C35143  -0.867   3.142   2.679 -0.2061 -0.3646  0.1606
  261MOL0     C35144  -0.949   3.260   2.688 -0.2613 -0.8732 -0.1242
  261MOL0    Cl35145  -0.890   3.404   2.593  0.4989  0.2240 -0.2674
  261MOL0     C35146  -0.353   2.503   2.234 -0.0177  0.1532  0.0110
  261MOL0     C35147  -0.236   2.434   2.210 -0.0759 -0.6560  0.2826
  261MOL0     O35148  -0.094   2.158   2.106 -0.3461 -0.4563  0.2785
  261MOL0     C35149   0.130   2.016   2.160 -0.1576  1.1048 -0.2441
  261MOL0     C35150   0.246   1.933   2.183 -0.4965  0.5054 -0.1730
  261MOL0     N35151   0.912   2.035   2.464 -1.1475 -0.1571  1.1415
  261MOL0     N35152   1.012   2.123   2.489 -0.6379  0.0265  0.1222
  261MOL0     C35153   2.190   1.578   2.652  0.2332 -0.7958 -1.2858
  261MOL0     C35154   2.321   1.545   2.608  1.1128  0.7970 -0.5331
  261MOL0     C35155   2.696   1.474   2.343  0.8662  0.4285  0.5829
  261MOL0     C35156   2.781   1.551   2.270  0.9300 -1.3038  0.7441
  261MOL0     C35157   2.908   1.503   2.232  0.4171 -0.3983  0.5439
  261MOL0     C35158   2.949   1.377   2.273  0.6058 -0.1957 -0.2349
  261MOL0     O35159   3.083   1.342   2.244 -0.0628 -0.7160  0.5622
  261MOL0     C35160   3.137   1.223   2.290  0.1915  0.1138  0.2323
  261MOL0     C35161   3.168   1.241   2.443  0.0615 -0.1219  0.9145
  261MOL0     C35162   3.286   1.339   2.461 -0.3409  0.8090  0.1582
  261MOL0     C35163   3.260   1.427   2.587 -0.2713 -0.6746  0.0411
  261MOL0     C35164   3.261   1.353   2.712 -0.0112  0.2698 -0.7304
  261MOL0     C35165   3.250   1.282   2.812 -0.2030  0.3781 -0.9399
  261MOL0     C35166   2.861   1.302   2.347 -0.1824  0.8174  0.2777
  261MOL0     C35167   2.732   1.348   2.380  0.2110 -0.7479  0.1957
  261MOL0     H35168   2.264   1.472   2.277 -1.9026  1.3414 -0.0656
  261MOL0     H35169   2.031   1.533   2.353  0.3859 -0.6369  0.0522
  261MOL0     H35170   2.036   1.806   2.666 -0.3694  0.2376 -0.0329
  261MOL0     H35171   2.009   1.797   2.493 -1.6709 -0.8293 -0.6591
  261MOL0     H35172   1.798   1.802   2.696  2.8346  1.6350  0.5790
  261MOL0     H35173   1.864   1.930   2.597  1.5271 -0.5202  0.7810
  261MOL0     H35174   1.774   1.796   2.388  1.3229  1.8395  0.9325
  261MOL0     H35175   1.715   1.673   2.489  2.2648 -0.6705  1.8322
  261MOL0     H35176   1.536   1.792   2.443  0.8961 -1.2567  0.6114
  261MOL0     H35177   1.571   1.877   2.598  1.4667  1.5329 -0.2841
  261MOL0     H35178   1.725   2.030   2.429 -0.4681  1.0226  0.9578
  261MOL0     H35179   1.639   1.952   2.307 -1.2573 -0.7307  0.2843
  261MOL0     H35180   1.528   2.168   2.463 -0.8451  0.2640 -0.9788
  261MOL0     H35181   1.481   2.101   2.311 -2.5464  0.9995  0.7357
  261MOL0     H35182   1.345   1.921   2.423  0.5471  0.2663 -1.8595
  261MOL0     H35183   1.364   2.014   2.577 -3.6086  1.5659 -0.6724
  261MOL0     H35184   1.267   2.166   2.336 -0.7053  0.3150  0.4885
  261MOL0     H35185   1.248   2.201   2.512 -0.6264 -0.5210 -0.0358
  261MOL0     H35186   1.160   1.866   2.337  1.3966  1.0170  0.0728
  261MOL0     H35187   0.933   1.730   2.301 -1.6634  1.7978 -1.2419
  261MOL0     H35188   0.853   1.746   2.457 -4.0199  0.0665 -0.1584
  261MOL0     H35189   0.775   1.852   2.180 -1.1499  0.7038  0.9547
  261MOL0     H35190   0.709   1.937   2.309 -4.8832 -1.8366 -3.8509
  261MOL0     H35191   0.609   1.716   2.404 -0.4895  1.7575  0.4320
  261MOL0     H35192   0.665   1.647   2.251 -1.4064 -0.2858  2.2636
  261MOL0     H35193   0.430   1.703   2.230  1.1039 -0.3779 -1.1215
  261MOL0     H35194   0.508   1.831   2.145 -0.2347  0.2418  0.1402
  261MOL0     H35195   0.340   2.047   2.482  1.1860 -0.3234 -0.5602
  261MOL0     H35196   0.242   2.252   2.519 -0.5381 -3.2183  2.2167
  261MOL0     H35197   0.125   2.332   2.410 -3.3856  1.4042  1.9847
  261MOL0     H35198   0.076   2.202   2.541  2.4671 -1.7098  1.1034
  261MOL0     H35199  -0.282   2.201   2.454  3.6624 -0.3141 -0.2604
  261MOL0     H35200  -0.492   2.307   2.475  1.1930 -3.6764 -1.0204
  261MOL0     H35201  -0.504   2.713   2.286  0.8302 -0.0932 -0.5196
  261MOL0     H35202  -0.621   2.621   2.186  1.9407 -1.6046 -0.1307
  261MOL0     H35203  -0.766   2.767   2.316  1.2782  2.5715  1.0186
  261MOL0     H35204  -0.777   2.615   2.416  0.8186 -0.5922 -0.4660
  261MOL0     H35205  -0.572   2.834   2.476 -0.1198  0.1896  0.6991
  261MOL0     H35206  -0.628   2.698   2.571  1.6014  1.5170  0.3507
  261MOL0     H35207  -0.861   2.813   2.555 -0.6155  1.3167 -0.2113
  261MOL0     H35208  -0.742   2.863   2.674 -2.2065 -0.4421  0.9986
  261MOL0     H35209  -0.766   2.994   2.397 -3.8335  1.3388 -0.0806
  261MOL0     H35210  -0.671   3.060   2.528 -0.6723  1.5202  0.7450
  261MOL0     H35211  -0.884   3.158   2.461 -1.2150 -0.2640 -0.6506
  261MOL0     H35212  -0.976   3.019   2.522 -0.0450 -0.5623 -2.6683
  261MOL0     H35213  -0.764   3.179   2.691 -0.9791  1.7981  0.7328
  261MOL0     H35214  -0.886   3.074   2.763 -0.6797  1.0684  1.2554
  261MOL0     H35215  -0.952   3.290   2.793  3.0925  1.0619 -0.4417
  261MOL0     H35216  -1.048   3.242   2.644 -1.9301  2.4956  1.8066
  261MOL0     H35217  -0.372   2.590   2.172  1.7955 -0.6287 -1.7556
  261MOL0     H35218  -0.169   2.463   2.129  0.7462  0.3151  1.2751
  261MOL0     H35219   0.083   1.989   2.066  1.3870 -2.3345 -0.1977
  261MOL0     H35220   0.262   1.862   2.102 -1.8282 -0.7420  0.5857
  261MOL0     H35221   2.166   1.619   2.750  1.0304 -1.6241 -0.7284
  261MOL0     H35222   2.395   1.541   2.687  1.1256  1.2261 -0.5163
  261MOL0     H35223   2.747   1.642   2.220  1.6635  0.0400  2.5947
  261MOL0     H35224   2.980   1.560   2.174  2.2825  0.4980  3.5379
  261MOL0     H35225   3.076   1.136   2.263  0.5152  0.7509 -2.8956
  261MOL0     H35226   3.225   1.204   2.227 -0.4535 -2.8890  0.0790
  261MOL0     H35227   3.195   1.148   2.495 -0.5213 -2.1874 -2.1910
  261MOL0     H35228   3.078   1.283   2.486 -1.8721 -2.0669 -0.9322
  261MOL0     H35229   3.295   1.407   2.376  0.7754 -1.1476 -1.3765
  261MOL0     H35230   3.380   1.283   2.462 -0.6910  0.0973 -1.7827
  261MOL0     H35231   3.160   1.470   2.582 -0.8054 -1.9266 -0.3957
  261MOL0     H35232   3.332   1.509   2.590 -0.9591 -0.0854  1.0331
  261MOL0     H35233   3.230   1.227   2.902 -0.2900 -0.8503 -1.6855
  261MOL0     H35234   2.889   1.207   2.391 -4.2933 -0.5221  0.4993
  261MOL0     H35235   2.671   1.286   2.445  2.0975 -1.9552  0.8979
  262MOL0     O35236   2.495   6.551   6.079 -0.4988  0.1303 -0.2680
  262MOL0     C35237   2.534   6.517   6.191  0.6774 -0.1509 -0.0910
  262MOL0     O35238   2.464   6.540   6.305  0.3582  0.1027  0.6277
  262MOL0     C35239   2.325   6.549   6.292 -0.3417 -1.1836 -0.0051
  262MOL0     C35240   2.265   6.670   6.253 -0.0646  0.8118 -0.6555
  262MOL0     C35241   2.131   6.673   6.238  0.1850 -0.0812  0.4080
  262MOL0     C35242   2.049   6.565   6.268  0.2076  0.2830  0.4104
  262MOL0     O35243   1.915   6.583   6.248 -0.6943 -0.4767  0.5855
  262MOL0     C35244   1.815   6.500   6.313 -0.2924  0.0391 -0.4589
  262MOL0     C35245   1.788   6.559   6.458  0.2961  0.6251 -0.1804
  262MOL0     C35246   1.643   6.518   6.501 -0.3575 -0.0168  0.3541
  262MOL0     C35247   1.620   6.516   6.653 -0.1638 -0.2406 -0.3870
  262MOL0     C35248   1.477   6.534   6.699 -0.5635  0.4242  0.3159
  262MOL0     C35249   1.383   6.415   6.675  0.2099  1.2262  0.1776
  262MOL0     C35250   1.249   6.437   6.750 -0.7385 -0.6226  0.3514
  262MOL0     C35251   1.170   6.544   6.666  0.6761  0.2928 -0.7871
  262MOL0     N35252   1.029   6.559   6.707 -0.3065  0.4509  0.4476
  262MOL0     C35253   0.998   6.585   6.839  0.2761 -0.9477  0.0311
  262MOL0     C35254   0.861   6.578   6.835 -0.0765  0.4440 -0.0079
  262MOL0     C35255   0.761   6.581   6.948 -0.5617  0.3496  0.4204
  262MOL0     C35256   0.661   6.469   6.952  0.1252 -1.0096 -0.0791
  262MOL0     C35257   0.551   6.478   7.056 -0.2111 -0.1133  0.4195
  262MOL0     C35258   0.461   6.356   7.071  0.0235  0.5887 -0.7151
  262MOL0     O35259   0.372   6.390   7.176  0.4908 -0.4116  0.2196
  262MOL0     C35260   0.246   6.442   7.152 -0.2897  0.8050 -0.7991
  262MOL0     C35261   0.168   6.467   7.261 -0.1225  0.4437  0.7817
  262MOL0     C35262   0.038   6.512   7.258  0.6126 -0.4025  0.0797
  262MOL0     C35263  -0.049   6.533   7.381 -0.1068  0.5806  0.1879
  262MOL0     C35264  -0.019   6.539   7.132 -0.5562 -0.1229 -0.2392
  262MOL0     C35265  -0.153   6.594   7.103  0.3036 -0.1007  0.1626
  262MOL0     O35266  -0.165   6.646   6.980 -0.2463 -0.0842 -0.5416
  262MOL0     C35267  -0.287   6.682   6.935  0.5678 -0.9733 -0.4254
  262MOL0     C35268  -0.268   6.785   6.838  0.8908 -0.8287  0.4455
  262MOL0     C35269  -0.380   6.822   6.757 -0.1044 -0.3440 -0.4214
  262MOL0     C35270  -0.500   6.755   6.779  0.5947  0.0439 -0.7882
  262MOL0     O35271  -0.603   6.794   6.704  0.2497  0.3830 -1.0101
  262MOL0     C35272  -0.679   6.692   6.633  0.2604  0.2240  0.6411
  262MOL0     C35273  -0.818   6.749   6.602  0.1089 -0.2097  0.0121
  262MOL0     C35274  -0.913   6.645   6.558  0.0411  0.5537 -0.8532
  262MOL0     C35275  -0.853   6.551   6.452  0.0723 -0.1863 -0.5419
  262MOL0     C35276  -0.963   6.462   6.389 -0.8847  0.0762 -0.1765
  262MOL0     C35277  -0.897   6.361   6.282  0.6762 -0.6127 -0.6969
  262MOL0     C35278  -1.013   6.278   6.233 -0.3059  0.2289 -0.0163
  262MOL0     C35279  -0.973   6.172   6.118  0.1853 -1.4387 -0.4753
  262MOL0    Cl35280  -0.837   6.054   6.158  0.7103 -0.3361  0.0649
  262MOL0     C35281  -0.511   6.654   6.881  0.6520  0.1965  0.7806
  262MOL0     C35282  -0.406   6.616   6.960 -0.4852 -0.6816 -0.0630
  262MOL0     O35283  -0.237   6.598   7.193  0.5613  0.1550 -0.7799
  262MOL0     C35284   0.051   6.505   7.017 -0.9772  0.2155 -0.1767
  262MOL0     C35285   0.189   6.468   7.030  0.3941 -0.0497  0.2563
  262MOL0     N35286   0.822   6.557   6.703 -0.5769  0.0336  0.5274
  262MOL0     N35287   0.923   6.541   6.626  0.3097  0.5230 -0.2737
  262MOL0     C35288   2.099   6.459   6.334 -0.0066 -0.8679 -0.2448
  262MOL0     C35289   2.241   6.452   6.338  0.2558 -0.5908 -0.2345
  262MOL0     C35290   2.660   6.452   6.208 -0.5811  0.8767 -0.6800
  262MOL0     C35291   2.738   6.443   6.334  0.4958  0.4677  0.2397
  262MOL0     C35292   2.868   6.394   6.342 -0.0702  0.5221 -0.1924
  262MOL0     C35293   2.941   6.350   6.234  0.2049  0.4289  0.8435
  262MOL0     O35294   3.070   6.289   6.229  0.4417 -0.0144  0.6796
  262MOL0     C35295   3.126   6.245   6.356  0.3397  1.2559 -0.1585
  262MOL0     C35296   3.259   6.179   6.334  0.0090  0.1509 -0.5119
  262MOL0     C35297   3.317   6.124   6.462  0.2347  0.0402 -0.3152
  262MOL0     C35298   3.451   6.052   6.432  0.2663  0.6754  0.4588
  262MOL0     C35299   3.492   5.964   6.549  0.4242 -0.7748  0.3084
  262MOL0     C35300   3.549   5.900   6.640  0.0744  0.4137  1.0014
  262MOL0     C35301   2.870   6.361   6.108  0.2589 -0.1427 -1.0605
  262MOL0     C35302   2.746   6.417   6.096 -0.6598 -0.4002  0.4197
  262MOL0     H35303   2.326   6.752   6.217  0.3725 -0.6745 -3.7056
  262MOL0     H35304   2.072   6.758   6.204  0.7275  0.6414  1.2231
  262MOL0     H35305   1.724   6.498   6.252 -1.1112 -2.8601  0.7296
  262MOL0     H35306   1.853   6.397   6.313  1.1013  0.4710  2.1033
  262MOL0     H35307   1.856   6.510   6.528  1.8001  2.2305 -0.4356
  262MOL0     H35308   1.808   6.666   6.468  0.9562  0.3993  1.0395
  262MOL0     H35309   1.568   6.582   6.454  0.3542  1.4140  1.0968
  262MOL0     H35310   1.640   6.415   6.466 -1.6259  0.2041 -0.2379
  262MOL0     H35311   1.662   6.428   6.703  2.5159 -0.2043 -2.3953
  262MOL0     H35312   1.669   6.608   6.687 -1.8246  0.4161  0.3449
  262MOL0     H35313   1.498   6.550   6.805 -0.1046 -0.6107  0.3908
  262MOL0     H35314   1.424   6.621   6.659 -0.0162  0.6859  0.1530
  262MOL0     H35315   1.362   6.424   6.568 -2.8614  2.2406  0.7806
  262MOL0     H35316   1.424   6.322   6.717 -0.8438  1.7177  2.4873
  262MOL0     H35317   1.191   6.345   6.760 -4.7915  1.1041 -3.6822
  262MOL0     H35318   1.262   6.474   6.852 -0.5392  1.7739 -0.4767
  262MOL0     H35319   1.163   6.510   6.562 -0.6900 -1.0409 -0.3061
  262MOL0     H35320   1.214   6.643   6.674 -0.4501  0.8657 -1.5268
  262MOL0     H35321   1.058   6.589   6.929  0.3812  4.0223  0.0256
  262MOL0     H35322   0.808   6.598   7.045 -0.2472  2.3468 -0.0439
  262MOL0     H35323   0.707   6.672   6.919 -0.6238  0.1864  0.0088
  262MOL0     H35324   0.709   6.373   6.973 -2.1747 -2.5398 -1.3656
  262MOL0     H35325   0.615   6.471   6.853 -2.1077  2.7636  0.8116
  262MOL0     H35326   0.486   6.559   7.021  0.1055 -0.9222 -2.2349
  262MOL0     H35327   0.599   6.486   7.154  0.8233 -0.1353 -0.0691
  262MOL0     H35328   0.522   6.273   7.107  1.5043  2.0496  0.2780
  262MOL0     H35329   0.405   6.326   6.982  0.4210  1.9557 -1.4637
  262MOL0     H35330   0.197   6.440   7.362 -1.8413 -1.9491  0.7094
  262MOL0     H35331   0.003   6.494   7.469 -0.9660  1.6759  1.2192
  262MOL0     H35332  -0.079   6.637   7.401  1.2152  0.9590  0.3124
  262MOL0     H35333  -0.134   6.466   7.368  0.3292  0.6324 -4.9341
  262MOL0     H35334  -0.174   6.840   6.826  1.1703 -0.7515  2.6342
  262MOL0     H35335  -0.358   6.889   6.674  0.5280 -0.8436 -0.6636
  262MOL0     H35336  -0.634   6.657   6.539 -0.0946  0.5937  0.3274
  262MOL0     H35337  -0.689   6.599   6.690  1.6417 -0.1463  0.3239
  262MOL0     H35338  -0.843   6.803   6.693  1.5667 -1.1674  1.0309
  262MOL0     H35339  -0.810   6.829   6.528 -2.0069  0.3897  0.3580
  262MOL0     H35340  -0.989   6.703   6.505 -2.8936  0.5512  2.9370
  262MOL0     H35341  -0.970   6.587   6.632  0.8426 -1.6561 -1.8691
  262MOL0     H35342  -0.810   6.607   6.369  3.6372 -3.9316 -1.5817
  262MOL0     H35343  -0.764   6.499   6.490  2.1380  1.1206 -3.2643
  262MOL0     H35344  -1.033   6.525   6.334  0.6527  0.8126 -1.3439
  262MOL0     H35345  -1.002   6.402   6.472  0.3864 -2.4824 -1.2924
  262MOL0     H35346  -0.845   6.432   6.217 -1.4679  1.2627 -0.4711
  262MOL0     H35347  -0.819   6.301   6.331 -0.6816  0.1447  2.6073
  262MOL0     H35348  -1.100   6.338   6.205 -0.3700  0.5427  0.8329
  262MOL0     H35349  -1.046   6.217   6.318  3.1349  1.1841  2.2113
  262MOL0     H35350  -0.936   6.229   6.032  0.1709  1.8958  1.5609
  262MOL0     H35351  -1.064   6.124   6.083 -1.9810  3.5909 -2.7848
  262MOL0     H35352  -0.611   6.614   6.895 -0.4983  2.0301 -1.4118
  262MOL0     H35353  -0.406   6.523   7.015  1.3816 -1.0580 -0.6215
  262MOL0     H35354   0.013   6.519   6.916  1.0464  0.6911 -0.9152
  262MOL0     H35355   0.245   6.444   6.940 -1.7448 -0.7240 -0.9511
  262MOL0     H35356   2.041   6.376   6.373 -1.2673  1.2640  2.8261
  262MOL0     H35357   2.278   6.365   6.392 -1.8084 -1.8841 -0.7568
  262MOL0     H35358   2.695   6.490   6.422 -1.3793  0.2490 -0.5222
  262MOL0     H35359   2.917   6.393   6.439  1.5012  1.8427 -0.9266
  262MOL0     H35360   3.141   6.329   6.424  3.1253  0.5314  0.2557
  262MOL0     H35361   3.056   6.180   6.409  0.2503  1.1038 -0.4624
  262MOL0     H35362   3.328   6.258   6.302  1.3927  0.9417  3.8210
  262MOL0     H35363   3.238   6.098   6.264 -1.4354  0.1080 -0.0567
  262MOL0     H35364   3.246   6.060   6.514 -1.3114  1.0539 -1.0969
  262MOL0     H35365   3.334   6.213   6.524 -1.1464  1.9588 -2.5174
  262MOL0     H35366   3.526   6.127   6.403  0.6786  1.0556  2.4184
  262MOL0     H35367   3.451   5.992   6.341  1.4968 -0.3906  1.1285
  262MOL0     H35368   3.606   5.841   6.708  0.2807  0.9157  1.2696
  262MOL0     H35369   2.929   6.335   6.021  1.9320  1.2889 -0.4252
  262MOL0     H35370   2.703   6.426   5.997 -0.9543  1.3615  0.6808
  263MOL0     O35371   1.251   0.795   6.669 -0.6133 -0.1091  0.0856
  263MOL0     C35372   1.337   0.886   6.668  0.1233  0.7779  0.8665
  263MOL0     O35373   1.313   1.011   6.693 -0.2834 -0.6477  0.2716
  263MOL0     C35374   1.185   1.062   6.704 -0.3485  0.1422  0.4777
  263MOL0     C35375   1.086   1.035   6.610 -0.7407  0.1044 -0.3639
  263MOL0     C35376   0.961   1.064   6.636 -0.1619  0.6010  0.3383
  263MOL0     C35377   0.920   1.120   6.752 -0.3406  0.0519 -0.7406
  263MOL0     O35378   0.791   1.126   6.775 -0.2298  1.0639 -0.0169
  263MOL0     C35379   0.750   1.136   6.905  0.1808 -1.1859 -0.6220
  263MOL0     C35380   0.615   1.066   6.902  0.6394  0.6389 -0.7041
  263MOL0     C35381   0.503   1.145   6.838 -0.4200 -0.4332  0.0328
  263MOL0     C35382   0.373   1.072   6.855  0.0690 -0.6175  0.2606
  263MOL0     C35383   0.265   1.155   6.782  0.2637 -0.1169  0.4448
  263MOL0     C35384   0.122   1.118   6.820 -0.2941  1.0778 -0.5945
  263MOL0     C35385   0.007   1.184   6.739  0.2991 -0.5284  0.5793
  263MOL0     C35386  -0.104   1.087   6.718 -1.3688  0.3932 -0.2802
  263MOL0     N35387  -0.217   1.149   6.649  0.0778 -0.0767 -0.1405
  263MOL0     C35388  -0.299   1.233   6.708 -0.5460  0.2767 -0.1517
  263MOL0     C35389  -0.373   1.286   6.613  0.6861 -0.0101  1.0692
  263MOL0     C35390  -0.486   1.376   6.632  0.7119  1.0256  0.4722
  263MOL0     C35391  -0.598   1.375   6.518 -0.3321  0.3385 -0.8060
  263MOL0     C35392  -0.681   1.248   6.492 -1.1479  0.6085  0.5069
  263MOL0     C35393  -0.714   1.213   6.344  0.4448 -0.0424  0.3585
  263MOL0     O35394  -0.776   1.082   6.325 -0.7574  0.3236  0.1572
  263MOL0     C35395  -0.909   1.066   6.319 -0.0053 -0.1468 -0.2743
  263MOL0     C35396  -0.985   1.097   6.432 -1.0729  0.5063 -0.4682
  263MOL0     C35397  -1.126   1.069   6.437  0.2143 -0.1801  0.3614
  263MOL0     C35398  -1.179   1.086   6.569 -0.3590 -0.2000 -0.1315
  263MOL0     C35399  -1.192   1.012   6.324  0.0677  0.7655  1.1099
  263MOL0     C35400  -1.329   0.965   6.326  0.0581 -1.1904  0.2378
  263MOL0     O35401  -1.378   0.902   6.211  0.4943 -0.2311 -1.0213
  263MOL0     C35402  -1.514   0.876   6.210 -0.1858 -0.6587 -0.2505
  263MOL0     C35403  -1.602   0.960   6.155  1.0188 -0.3563  0.7642
  263MOL0     C35404  -1.742   0.945   6.174 -0.2200 -0.8894 -0.2249
  263MOL0     C35405  -1.781   0.820   6.219  0.2105  0.8922  0.5244
  263MOL0     O35406  -1.916   0.818   6.222 -0.0592 -0.4562  0.4353
  263MOL0     C35407  -1.967   0.719   6.308 -0.7691 -0.3984 -0.3919
  263MOL0     C35408  -2.114   0.738   6.339 -0.7024 -0.8074 -0.1410
  263MOL0     C35409  -2.145   0.866   6.421  0.9473 -0.1963 -0.8267
  263MOL0     C35410  -2.267   0.852   6.512  0.1410  0.2078  0.6086
  263MOL0     C35411  -2.381   0.844   6.427  0.3915 -0.3720 -0.0634
  263MOL0     C35412  -2.511   0.840   6.499 -0.8894 -0.4200 -0.8759
  263MOL0     C35413  -2.637   0.820   6.410  0.4747 -0.2810  0.6203
  263MOL0     C35414  -2.771   0.857   6.462 -0.4361 -0.0496  0.2371
  263MOL0    Cl35415  -2.803   0.742   6.598  0.0627  0.1883 -0.5733
  263MOL0     C35416  -1.686   0.718   6.247  0.4610  0.1130 -0.3806
  263MOL0     C35417  -1.550   0.749   6.250  0.2726  0.1588  0.1671
  263MOL0     O35418  -1.399   0.988   6.431 -0.0334  0.1233  0.7263
  263MOL0     C35419  -1.113   1.006   6.208 -0.9395  0.7433  0.3429
  263MOL0     C35420  -0.976   1.028   6.206 -0.8051  0.6688  0.3697
  263MOL0     N35421  -0.333   1.223   6.490  0.3544 -1.4299  0.0188
  263MOL0     N35422  -0.236   1.147   6.516 -0.5753  0.0404  0.3415
  263MOL0     C35423   1.024   1.170   6.834  0.8785  0.3868 -0.1501
  263MOL0     C35424   1.158   1.146   6.817  0.8694  0.7576 -0.1310
  263MOL0     C35425   1.486   0.857   6.653  0.1864 -0.8235  0.4638
  263MOL0     C35426   1.545   0.728   6.629  0.4633  0.3400 -0.0337
  263MOL0     C35427   1.687   0.713   6.613 -0.2826 -0.3499  0.5428
  263MOL0     C35428   1.772   0.823   6.636  0.3593 -0.5742  0.1128
  263MOL0     O35429   1.908   0.825   6.633  0.0035  0.8234  0.1596
  263MOL0     C35430   1.977   0.704   6.633 -0.4284 -0.2827 -0.1722
  263MOL0     C35431   2.126   0.728   6.616  0.1569  0.6758 -0.8350
  263MOL0     C35432   2.205   0.604   6.589  0.5816 -0.4468  0.3645
  263MOL0     C35433   2.239   0.563   6.438  0.8267 -0.3827 -0.2113
  263MOL0     C35434   2.243   0.669   6.340 -0.7096 -0.3112  0.1371
  263MOL0     C35435   2.262   0.743   6.249  0.8022 -0.4170  0.0454
  263MOL0     C35436   1.717   0.949   6.663  0.7750 -1.0688  1.3656
  263MOL0     C35437   1.578   0.962   6.673  0.5737 -0.4342 -0.4725
  263MOL0     H35438   1.119   0.968   6.532  0.0943 -1.2780  1.0979
  263MOL0     H35439   0.879   1.040   6.569  0.8145  0.9616 -1.0276
  263MOL0     H35440   0.817   1.088   6.976 -1.9004 -0.4112  2.0576
  263MOL0     H35441   0.745   1.241   6.934 -3.2389 -1.6029  0.8260
  263MOL0     H35442   0.627   0.972   6.848 -0.1029  0.7255 -1.0380
  263MOL0     H35443   0.574   1.039   7.000 -1.4850  0.4786 -1.5655
  263MOL0     H35444   0.503   1.244   6.886  3.3899 -0.6936  0.8900
  263MOL0     H35445   0.511   1.148   6.729 -2.6516 -1.4804 -0.2064
  263MOL0     H35446   0.372   0.972   6.811  0.9051  0.3025 -1.9838
  263MOL0     H35447   0.344   1.080   6.961  1.0411 -1.9247  0.6430
  263MOL0     H35448   0.272   1.262   6.804  1.6898 -0.3856  1.4722
  263MOL0     H35449   0.286   1.139   6.676 -0.4143 -1.3036  0.4697
  263MOL0     H35450   0.110   1.010   6.828 -1.7362  1.0542 -2.4849
  263MOL0     H35451   0.119   1.152   6.924  2.2536 -1.4834  0.4283
  263MOL0     H35452  -0.028   1.266   6.802  0.9811 -1.2307  1.9204
  263MOL0     H35453   0.043   1.240   6.652 -2.0888  0.2931  0.0493
  263MOL0     H35454  -0.133   1.042   6.814 -0.6814  0.2734 -0.1192
  263MOL0     H35455  -0.073   0.998   6.662  2.1572  0.9782  0.4831
  263MOL0     H35456  -0.306   1.264   6.811  0.9818  0.9840 -0.2328
  263MOL0     H35457  -0.522   1.356   6.733  0.8489 -4.0128 -0.2187
  263MOL0     H35458  -0.447   1.478   6.634  0.9433  0.9349  0.7599
  263MOL0     H35459  -0.549   1.405   6.425 -1.6589  1.5620 -1.1522
  263MOL0     H35460  -0.666   1.459   6.536  0.3122  1.2225 -2.3334
  263MOL0     H35461  -0.772   1.271   6.548 -0.5710 -0.2236  1.8557
  263MOL0     H35462  -0.641   1.162   6.547  0.4656 -0.7544 -2.5403
  263MOL0     H35463  -0.620   1.215   6.289  2.1232 -0.5099  3.0426
  263MOL0     H35464  -0.775   1.293   6.300  1.0592 -1.0906 -2.6874
  263MOL0     H35465  -0.925   1.138   6.512  0.3818  0.2294 -1.3680
  263MOL0     H35466  -1.110   1.130   6.641 -1.8609  0.0516  1.1889
  263MOL0     H35467  -1.271   1.144   6.566 -1.2445 -1.5477  0.1067
  263MOL0     H35468  -1.210   0.989   6.610  2.0738 -0.5502  1.0467
  263MOL0     H35469  -1.559   1.050   6.110 -0.0003  0.5509  1.5632
  263MOL0     H35470  -1.812   1.022   6.142 -0.0465 -1.8381 -3.1820
  263MOL0     H35471  -1.958   0.626   6.252 -0.2666 -0.5698 -0.0337
  263MOL0     H35472  -1.912   0.710   6.402  0.1492 -2.4514 -1.0634
  263MOL0     H35473  -2.166   0.737   6.243  0.2341 -1.3242 -0.6505
  263MOL0     H35474  -2.149   0.653   6.399 -0.6184 -1.4078 -0.9300
  263MOL0     H35475  -2.148   0.963   6.372 -2.9359  1.9359  2.9294
  263MOL0     H35476  -2.063   0.878   6.493 -0.1886  1.8973  0.1964
  263MOL0     H35477  -2.254   0.763   6.574  1.5698  1.0241  1.5321
  263MOL0     H35478  -2.280   0.937   6.578 -0.7957 -0.5948  1.4874
  263MOL0     H35479  -2.383   0.759   6.358  3.7576 -1.1397  0.6191
  263MOL0     H35480  -2.380   0.927   6.355 -1.7860 -0.1054  0.1669
  263MOL0     H35481  -2.505   0.766   6.580  1.0279  1.9627  1.3175
  263MOL0     H35482  -2.518   0.934   6.553  2.1628 -0.9910  0.7443
  263MOL0     H35483  -2.651   0.717   6.377  1.3807 -0.6262  1.2721
  263MOL0     H35484  -2.626   0.875   6.316  1.1684 -0.9067  0.3248
  263MOL0     H35485  -2.827   0.842   6.369  1.1663 -1.4458 -0.5755
  263MOL0     H35486  -2.788   0.962   6.486 -0.0519 -0.1363  0.8970
  263MOL0     H35487  -1.713   0.620   6.283 -0.3864  0.4545 -0.0572
  263MOL0     H35488  -1.484   0.673   6.293  0.4836 -0.7599 -1.6570
  263MOL0     H35489  -1.159   0.970   6.116  0.9830 -0.1122 -0.3582
  263MOL0     H35490  -0.926   1.025   6.109 -0.0978  0.9517  0.7177
  263MOL0     H35491   0.991   1.216   6.927 -0.7858 -0.5533 -0.2317
  263MOL0     H35492   1.226   1.163   6.899 -1.6350 -1.6634  2.6639
  263MOL0     H35493   1.479   0.642   6.626  2.9837 -1.6791 -0.3345
  263MOL0     H35494   1.743   0.621   6.597  0.5761  0.1290  0.7081
  263MOL0     H35495   1.948   0.672   6.733  0.0546  3.0768  1.1561
  263MOL0     H35496   1.948   0.646   6.544  2.0590 -1.4490 -0.3163
  263MOL0     H35497   2.168   0.767   6.709 -0.3561 -3.0663  1.1426
  263MOL0     H35498   2.129   0.809   6.542  1.7154  0.3028 -1.2083
  263MOL0     H35499   2.151   0.520   6.634  0.0654  0.2885  1.1642
  263MOL0     H35500   2.294   0.626   6.649  0.8609 -1.4864  0.3567
  263MOL0     H35501   2.152   0.503   6.410  2.1757 -2.9721  0.7752
  263MOL0     H35502   2.317   0.490   6.414 -1.3580 -2.3401 -1.7749
  263MOL0     H35503   2.281   0.804   6.163 -0.6330 -1.1720 -0.8633
  263MOL0     H35504   1.791   1.026   6.683  1.2668 -0.9020 -0.8570
  263MOL0     H35505   1.542   1.064   6.680 -1.6101 -1.0654 -1.5757
  264MOL0     O35506   0.067   0.517   1.415 -0.0907  0.5625 -0.2711
  264MOL0     C35507   0.051   0.397   1.429 -0.1440 -0.0570  0.4404
  264MOL0     O35508  -0.061   0.328   1.424 -0.0248  0.3701  0.8016
  264MOL0     C35509  -0.180   0.395   1.400  0.2956  0.4169 -0.1058
  264MOL0     C35510  -0.205   0.494   1.304 -0.9921  1.0117  0.1354
  264MOL0     C35511  -0.336   0.544   1.284 -0.4916  1.0482 -0.2060
  264MOL0     C35512  -0.443   0.501   1.371  0.1833  0.2735 -0.3771
  264MOL0     O35513  -0.577   0.549   1.374 -0.3419  0.5746 -0.2697
  264MOL0     C35514  -0.622   0.633   1.262 -0.9291  0.5849 -0.7522
  264MOL0     C35515  -0.759   0.679   1.304 -0.0384 -0.4041  0.4623
  264MOL0     C35516  -0.872   0.576   1.328 -0.2131  0.2143  0.5022
  264MOL0     C35517  -0.893   0.460   1.222  0.6267 -0.2614 -0.4414
  264MOL0     C35518  -1.005   0.355   1.271 -0.0109  0.0876 -0.4388
  264MOL0     C35519  -1.024   0.243   1.170  0.7576 -0.0925  0.4552
  264MOL0     C35520  -1.129   0.150   1.224  0.3846  0.1424 -0.1873
  264MOL0     C35521  -1.160   0.020   1.145 -0.5333 -0.3154 -0.2804
  264MOL0     N35522  -1.271  -0.046   1.212  0.3635 -0.1461  0.1032
  264MOL0     C35523  -1.396   0.004   1.210 -1.0571  0.6907 -0.0893
  264MOL0     C35524  -1.472  -0.099   1.264 -0.5928 -0.3174  0.2509
  264MOL0     C35525  -1.618  -0.116   1.278 -0.4200 -0.0037 -0.1279
  264MOL0     C35526  -1.698  -0.046   1.166  0.2685  0.5598  0.3682
  264MOL0     C35527  -1.847  -0.053   1.199 -0.2477  0.9901  0.6140
  264MOL0     C35528  -1.933   0.013   1.088 -0.2915  0.6353 -0.2905
  264MOL0     O35529  -2.060   0.062   1.139 -0.2011 -1.2288  0.2691
  264MOL0     C35530  -2.178  -0.006   1.160 -0.3287  0.9583 -0.2057
  264MOL0     C35531  -2.195  -0.141   1.127  0.4243  0.7055 -0.0529
  264MOL0     C35532  -2.316  -0.209   1.142 -0.0528 -0.4869  0.3607
  264MOL0     C35533  -2.321  -0.346   1.090  0.1087 -0.0484 -0.0346
  264MOL0     C35534  -2.437  -0.133   1.177  0.3604  0.7177  0.2277
  264MOL0     C35535  -2.576  -0.192   1.186 -0.7680  0.3657  0.4137
  264MOL0     O35536  -2.672  -0.096   1.199  0.0639 -1.1458  0.4533
  264MOL0     C35537  -2.808  -0.130   1.187  0.3999  0.9496  0.5217
  264MOL0     C35538  -2.874  -0.206   1.282 -0.2544 -0.4936  0.4265
  264MOL0     C35539  -3.016  -0.217   1.268  0.1801 -0.9321 -0.2060
  264MOL0     C35540  -3.083  -0.184   1.149 -1.1139  0.0924 -0.7352
  264MOL0     O35541  -3.207  -0.219   1.137 -0.0506  0.2949 -0.5638
  264MOL0     C35542  -3.274  -0.214   1.011  0.6486  0.6731 -0.1191
  264MOL0     C35543  -3.387  -0.318   1.023 -0.6076 -0.2604 -0.1836
  264MOL0     C35544  -3.499  -0.288   1.127 -0.8773 -0.2908  0.1497
  264MOL0     C35545  -3.588  -0.168   1.095 -1.2090 -0.4213 -0.2455
  264MOL0     C35546  -3.677  -0.122   1.211 -0.4948  0.6425 -0.0903
  264MOL0     C35547  -3.782  -0.226   1.260 -0.4283 -0.5548  0.1563
  264MOL0     C35548  -3.879  -0.160   1.361  0.5522 -0.3799 -0.2334
  264MOL0     C35549  -3.821  -0.149   1.503 -0.2813  0.4485  0.1595
  264MOL0    Cl35550  -3.946  -0.092   1.617 -0.0322 -0.1423 -0.4228
  264MOL0     C35551  -3.016  -0.099   1.056 -0.8994 -0.2481 -0.4148
  264MOL0     C35552  -2.878  -0.074   1.078  0.6758  1.0593 -0.4871
  264MOL0     O35553  -2.598  -0.312   1.189  0.1221 -0.0150  0.2520
  264MOL0     C35554  -2.419   0.007   1.205 -0.2237 -0.5049  0.3523
  264MOL0     C35555  -2.289   0.062   1.203 -0.4127 -0.4541 -0.8928
  264MOL0     N35556  -1.387  -0.190   1.316 -0.5910 -0.2282  0.6204
  264MOL0     N35557  -1.266  -0.161   1.273  0.9925  0.3775 -0.2255
  264MOL0     C35558  -0.413   0.407   1.470 -0.1558  0.5626  0.0530
  264MOL0     C35559  -0.281   0.349   1.482 -0.9968  0.4535  0.3152
  264MOL0     C35560   0.177   0.319   1.442  0.1117  0.0483  0.3227
  264MOL0     C35561   0.177   0.175   1.435 -0.0230 -0.0703 -0.4477
  264MOL0     C35562   0.294   0.105   1.405  0.6251 -0.6750 -0.2155
  264MOL0     C35563   0.415   0.171   1.390  0.7439 -0.1724  0.0207
  264MOL0     O35564   0.531   0.093   1.370  0.0096 -0.0006  0.2459
  264MOL0     C35565   0.650   0.147   1.416 -0.3766  0.0673 -0.5694
  264MOL0     C35566   0.737   0.034   1.465  0.7762  0.3342  0.5423
  264MOL0     C35567   0.885   0.071   1.483  0.1841 -0.3470 -0.3738
  264MOL0     C35568   0.964  -0.051   1.510 -0.0455 -0.2461  0.6934
  264MOL0     C35569   1.106  -0.011   1.502  0.8969 -0.0397  0.3338
  264MOL0     C35570   1.214   0.045   1.472 -0.5264  0.5127 -0.4997
  264MOL0     C35571   0.421   0.312   1.406 -0.6544  0.5593  0.2657
  264MOL0     C35572   0.305   0.381   1.430  0.2732 -0.1929 -0.8650
  264MOL0     H35573  -0.128   0.519   1.233 -2.3357 -0.2635 -1.8875
  264MOL0     H35574  -0.352   0.614   1.203  0.1559  0.9834 -0.3960
  264MOL0     H35575  -0.552   0.713   1.234 -0.1128 -0.5315 -1.9655
  264MOL0     H35576  -0.631   0.568   1.175  0.4863 -1.0202  0.2387
  264MOL0     H35577  -0.756   0.745   1.391 -0.1096 -0.4703  0.5159
  264MOL0     H35578  -0.784   0.745   1.221 -0.4625 -2.5128 -1.1564
  264MOL0     H35579  -0.838   0.532   1.422 -0.6316 -0.1672  0.4776
  264MOL0     H35580  -0.967   0.630   1.329 -0.5022 -0.1997 -1.2483
  264MOL0     H35581  -0.918   0.510   1.128  1.8492  0.1110 -0.5794
  264MOL0     H35582  -0.799   0.405   1.216 -0.2806 -2.0050  0.5630
  264MOL0     H35583  -0.975   0.308   1.365 -1.1197  3.9636  2.0778
  264MOL0     H35584  -1.100   0.408   1.286 -1.5635 -1.7990 -2.6878
  264MOL0     H35585  -1.059   0.292   1.079 -4.9818  0.7842  2.7196
  264MOL0     H35586  -0.923   0.200   1.168  2.8885  4.2620  0.5654
  264MOL0     H35587  -1.088   0.117   1.321 -0.7946  0.2541  0.3705
  264MOL0     H35588  -1.229   0.193   1.232 -0.0967 -1.0531  0.4737
  264MOL0     H35589  -1.063  -0.031   1.135 -0.1096  0.0610  1.5649
  264MOL0     H35590  -1.183   0.040   1.039  0.1955 -0.0050 -0.3891
  264MOL0     H35591  -1.412   0.102   1.165  0.0131  1.8687  1.9093
  264MOL0     H35592  -1.635  -0.223   1.259 -0.2862  0.0766 -0.7132
  264MOL0     H35593  -1.642  -0.085   1.380  0.5007  0.3409 -0.0116
  264MOL0     H35594  -1.675  -0.095   1.071 -0.0282  0.5319  0.3095
  264MOL0     H35595  -1.675   0.059   1.149 -2.3334  0.8409 -2.0513
  264MOL0     H35596  -1.848  -0.008   1.299  1.5952  2.7286 -0.0798
  264MOL0     H35597  -1.880  -0.156   1.210  1.5276  0.3278  0.0850
  264MOL0     H35598  -1.946  -0.067   1.015 -2.9378 -0.3664  1.1077
  264MOL0     H35599  -1.884   0.098   1.040  1.6207 -1.2209 -1.8085
  264MOL0     H35600  -2.105  -0.192   1.092 -0.4688 -0.0480 -1.3143
  264MOL0     H35601  -2.330  -0.335   0.982 -0.9912 -0.9069 -0.0456
  264MOL0     H35602  -2.225  -0.398   1.094 -0.1173 -0.4359  0.7241
  264MOL0     H35603  -2.391  -0.415   1.138 -0.7248  0.2490 -0.7934
  264MOL0     H35604  -2.836  -0.242   1.376  1.0672 -1.6762 -0.5269
  264MOL0     H35605  -3.078  -0.273   1.337 -2.5818  1.2243 -0.7779
  264MOL0     H35606  -3.308  -0.114   0.985  0.8412  1.0038  0.8570
  264MOL0     H35607  -3.210  -0.244   0.927 -0.2751  1.0655 -0.9825
  264MOL0     H35608  -3.434  -0.313   0.925 -1.2362  1.7129  0.1787
  264MOL0     H35609  -3.337  -0.414   1.040 -0.6052  0.0926  2.1512
  264MOL0     H35610  -3.453  -0.285   1.226  0.0799 -1.7839 -0.2163
  264MOL0     H35611  -3.564  -0.375   1.134 -0.0704 -0.7700  4.1648
  264MOL0     H35612  -3.514  -0.090   1.074 -0.1280 -1.8156 -1.8686
  264MOL0     H35613  -3.647  -0.190   1.005  0.1289 -0.1408 -1.2219
  264MOL0     H35614  -3.720  -0.025   1.185 -0.0447  0.6748 -0.7337
  264MOL0     H35615  -3.601  -0.114   1.289 -0.8275  1.1577  0.1856
  264MOL0     H35616  -3.844  -0.264   1.178 -0.5043  0.9587 -0.5341
  264MOL0     H35617  -3.727  -0.311   1.300 -1.3785 -0.7841  1.0271
  264MOL0     H35618  -3.965  -0.227   1.367  0.3818 -0.0745  0.9576
  264MOL0     H35619  -3.906  -0.063   1.319 -0.4748 -0.2701  0.6319
  264MOL0     H35620  -3.730  -0.089   1.508  1.4669 -1.7764 -2.0765
  264MOL0     H35621  -3.789  -0.250   1.532  2.6835  1.8894  2.4058
  264MOL0     H35622  -3.066  -0.050   0.973 -0.5400  0.5474 -0.1671
  264MOL0     H35623  -2.831  -0.004   1.010  0.3057  0.8453 -0.9651
  264MOL0     H35624  -2.505   0.070   1.225 -0.3436 -1.2477  2.4698
  264MOL0     H35625  -2.280   0.168   1.226 -1.3405 -0.8169  1.4195
  264MOL0     H35626  -0.502   0.377   1.526 -0.2478  1.2539  0.2821
  264MOL0     H35627  -0.247   0.274   1.553 -1.9881 -0.4093 -0.0908
  264MOL0     H35628   0.080   0.128   1.434 -1.1599  2.1182 -0.0949
  264MOL0     H35629   0.292  -0.003   1.395 -1.1691 -0.6589 -0.3075
  264MOL0     H35630   0.703   0.202   1.337  1.8721  0.1233  0.8778
  264MOL0     H35631   0.632   0.211   1.503  0.2501 -2.6129  1.6779
  264MOL0     H35632   0.741  -0.045   1.390  0.3308 -1.4033  2.2792
  264MOL0     H35633   0.686  -0.006   1.553 -0.5303  0.1112 -0.2931
  264MOL0     H35634   0.893   0.145   1.563  0.7162 -0.1122 -0.6345
  264MOL0     H35635   0.923   0.116   1.390  1.9060  0.2147  0.5679
  264MOL0     H35636   0.955  -0.125   1.431  1.6402 -0.4143  0.6209
  264MOL0     H35637   0.948  -0.098   1.607  1.4572  0.3165  1.2422
  264MOL0     H35638   1.307   0.086   1.438  0.2304  0.3595  1.2941
  264MOL0     H35639   0.517   0.364   1.409 -0.3967  0.1153 -0.1714
  264MOL0     H35640   0.306   0.488   1.447 -2.4509 -0.5111  2.2111
  265MOL0     O35641   3.957   2.248   0.035 -0.1397  0.2568 -0.0971
  265MOL0     C35642   3.971   2.149  -0.031  0.1523  0.4453  0.4926
  265MOL0     O35643   3.877   2.066  -0.072 -0.2052  0.8152  0.3425
  265MOL0     C35644   3.748   2.081  -0.037 -0.3335  0.6100  0.1809
  265MOL0     C35645   3.684   1.964  -0.026  0.1890 -0.1006 -0.1566
  265MOL0     C35646   3.546   1.959   0.001 -0.5795 -0.3131  0.0082
  265MOL0     C35647   3.475   2.079   0.019 -0.1679 -0.6653  0.1191
  265MOL0     O35648   3.343   2.084   0.061  0.1067 -0.0395 -0.1407
  265MOL0     C35649   3.256   1.995  -0.010 -0.3655 -0.3990  0.1299
  265MOL0     C35650   3.102   2.034  -0.005  0.2111 -0.2808  0.3218
  265MOL0     C35651   3.074   2.185  -0.038 -0.5083 -0.1713  0.2065
  265MOL0     C35652   3.088   2.273   0.094 -0.1676 -0.0926 -0.1671
  265MOL0     C35653   3.066   2.427   0.082  0.0727  0.1002 -0.6349
  265MOL0     C35654   3.016   2.488   0.215 -0.7542  0.1346  0.7801
  265MOL0     C35655   2.995   2.635   0.199  1.0230 -0.8400  0.3951
  265MOL0     C35656   2.927   2.703   0.325 -0.0849  0.7258 -0.5874
  265MOL0     N35657   2.793   2.638   0.345 -0.1174 -0.2686 -0.0729
  265MOL0     C35658   2.687   2.659   0.267  0.3838 -0.3181  0.0916
  265MOL0     C35659   2.588   2.588   0.329  0.7658  0.8230  0.5712
  265MOL0     C35660   2.443   2.557   0.281 -0.1736 -0.2961  0.6262
  265MOL0     C35661   2.396   2.668   0.170 -0.9748  0.7005 -0.4041
  265MOL0     C35662   2.268   2.627   0.095  0.1481  0.2378 -0.4353
  265MOL0     C35663   2.228   2.733   0.004 -0.3084  0.2171  1.0008
  265MOL0     O35664   2.197   2.845   0.081  0.8168  0.4341  0.1527
  265MOL0     C35665   2.078   2.856   0.147  0.2740  0.7096  0.0597
  265MOL0     C35666   2.086   2.946   0.245 -0.4820 -0.3570  0.0195
  265MOL0     C35667   1.981   2.974   0.333  0.3118  0.1746 -1.1352
  265MOL0     C35668   2.007   3.068   0.449  0.3802  0.4293 -0.5353
  265MOL0     C35669   1.860   2.904   0.312 -0.2450  0.8111  0.5879
  265MOL0     C35670   1.735   2.925   0.396  0.5757 -0.4033  0.3156
  265MOL0     O35671   1.607   2.892   0.352 -0.5676 -0.1720  0.0343
  265MOL0     C35672   1.498   2.914   0.434 -0.5280  0.1231  0.1107
  265MOL0     C35673   1.483   2.939   0.572  0.2319 -1.0878 -0.0848
  265MOL0     C35674   1.356   2.957   0.630  1.1426  1.0765  0.5762
  265MOL0     C35675   1.241   2.960   0.558 -0.1002  0.1584 -0.2082
  265MOL0     O35676   1.124   2.992   0.619 -0.1878  0.1676  0.8788
  265MOL0     C35677   1.001   2.990   0.541 -0.4334  0.1844  0.1960
  265MOL0     C35678   0.889   3.032   0.638 -0.5312  0.4627  0.5069
  265MOL0     C35679   0.760   3.027   0.558  0.4804  0.3412  0.6418
  265MOL0     C35680   0.641   3.002   0.659 -0.9921 -0.9153  0.0497
  265MOL0     C35681   0.517   2.959   0.584 -0.1305  0.4179 -0.0980
  265MOL0     C35682   0.415   2.905   0.680 -0.2629  1.0119 -0.7922
  265MOL0     C35683   0.279   2.884   0.616  0.0996  0.4034  0.2426
  265MOL0     C35684   0.167   2.909   0.730 -0.3789 -0.7530 -0.2684
  265MOL0    Cl35685  -0.014   2.919   0.675 -0.4080  0.1496  0.3875
  265MOL0     C35686   1.254   2.922   0.418  0.5552 -0.8482  0.1894
  265MOL0     C35687   1.380   2.906   0.360 -1.2640 -0.1081  0.0546
  265MOL0     O35688   1.760   2.946   0.515  0.3036  0.1247  0.5214
  265MOL0     C35689   1.855   2.808   0.209 -0.6488 -0.5042 -0.2210
  265MOL0     C35690   1.962   2.782   0.131  0.2180  0.3193 -0.0336
  265MOL0     N35691   2.640   2.532   0.448  0.1387  0.4198  0.3388
  265MOL0     N35692   2.765   2.555   0.450  0.2390  0.3791 -0.6025
  265MOL0     C35693   3.542   2.200   0.021 -0.0218  0.8083  0.1441
  265MOL0     C35694   3.677   2.198  -0.008  0.2976 -0.2924 -0.1177
  265MOL0     C35695   4.110   2.099  -0.057  0.0534  0.6374  0.0177
  265MOL0     C35696   4.205   2.129   0.034  0.1307 -0.1310  0.0573
  265MOL0     C35697   4.334   2.081   0.020 -0.2169 -0.2258 -1.0522
  265MOL0     C35698   4.369   2.004  -0.088  0.0590  0.0107  0.6295
  265MOL0     O35699   4.493   1.953  -0.067  0.9957 -0.3263 -0.0501
  265MOL0     C35700   4.594   1.977  -0.164 -0.1904  0.4846  0.9432
  265MOL0     C35701   4.734   1.948  -0.114  0.0483 -0.2970  0.5336
  265MOL0     C35702   4.841   1.999  -0.210  0.8060  0.1377 -1.0598
  265MOL0     C35703   4.979   1.986  -0.155  0.2928  0.6129 -0.2572
  265MOL0     C35704   5.076   2.047  -0.245 -0.2597 -0.6547  0.3069
  265MOL0     C35705   5.149   2.093  -0.330  0.1199 -0.3541 -0.9809
  265MOL0     C35706   4.269   1.962  -0.174 -0.7072 -0.3895  0.0104
  265MOL0     C35707   4.140   2.006  -0.164  0.1373 -0.6753  0.1765
  265MOL0     H35708   3.737   1.870  -0.036 -0.8702 -0.8318  0.7093
  265MOL0     H35709   3.496   1.863   0.008 -0.3285 -0.5574 -1.3870
  265MOL0     H35710   3.279   2.004  -0.117  0.7848 -0.6042  0.3537
  265MOL0     H35711   3.256   1.888   0.016 -0.3024 -0.0903  1.4282
  265MOL0     H35712   3.048   1.967  -0.072 -1.0847  1.3871 -0.3764
  265MOL0     H35713   3.071   2.011   0.098 -1.0670  0.7530  0.1994
  265MOL0     H35714   3.139   2.230  -0.114  0.1673  2.4693  2.1878
  265MOL0     H35715   2.972   2.184  -0.077 -0.6047  0.7449  0.4130
  265MOL0     H35716   3.008   2.234   0.159 -0.4308 -0.5311 -0.7470
  265MOL0     H35717   3.177   2.260   0.156 -0.7542  0.6844  0.8814
  265MOL0     H35718   3.158   2.473   0.048  1.6647 -2.2038  0.3090
  265MOL0     H35719   2.982   2.446   0.015 -2.4243 -3.7150  1.0212
  265MOL0     H35720   2.918   2.445   0.241 -0.8026 -0.4469 -0.2854
  265MOL0     H35721   3.081   2.471   0.301 -0.3228  3.0547  1.1082
  265MOL0     H35722   3.087   2.694   0.196  1.7492 -1.9458  0.4982
  265MOL0     H35723   2.935   2.655   0.109  1.9610  0.7984  0.0860
  265MOL0     H35724   2.912   2.811   0.311  1.1921  0.9784 -0.1581
  265MOL0     H35725   2.984   2.679   0.415 -0.9768  0.8776  0.0374
  265MOL0     H35726   2.679   2.714   0.174 -1.2175 -1.4090 -0.4728
  265MOL0     H35727   2.434   2.457   0.238 -1.9601 -0.9752  2.3637
  265MOL0     H35728   2.373   2.558   0.366  0.1266 -3.6865  1.0385
  265MOL0     H35729   2.476   2.681   0.097  0.8930  1.7247  1.7389
  265MOL0     H35730   2.386   2.765   0.219  0.2441  0.3187  0.6402
  265MOL0     H35731   2.188   2.592   0.161 -0.0257  0.7745 -0.3584
  265MOL0     H35732   2.290   2.534   0.041  0.2130  0.3398 -0.5856
  265MOL0     H35733   2.144   2.697  -0.056  0.9641 -1.4413  0.1342
  265MOL0     H35734   2.302   2.752  -0.074 -0.0210 -0.7877  1.0069
  265MOL0     H35735   2.173   3.006   0.267 -1.2571  0.0758  2.1034
  265MOL0     H35736   1.909   3.109   0.476 -0.4907 -1.2516 -1.0354
  265MOL0     H35737   2.038   3.007   0.535  0.5191  2.0264  0.5863
  265MOL0     H35738   2.082   3.144   0.424 -0.5520  1.7471  0.5201
  265MOL0     H35739   1.565   2.937   0.644 -0.6258 -2.7434  0.9205
  265MOL0     H35740   1.340   2.974   0.736 -1.7117 -0.8743  0.5616
  265MOL0     H35741   1.004   3.064   0.460  1.1704 -0.1552 -0.0763
  265MOL0     H35742   0.963   2.894   0.505 -0.3819  0.1430  0.2513
  265MOL0     H35743   0.888   2.960   0.720 -0.5336 -0.5954 -0.4015
  265MOL0     H35744   0.911   3.131   0.679  0.9402  0.3082  0.1577
  265MOL0     H35745   0.763   2.937   0.496 -0.4154  1.6799 -1.4770
  265MOL0     H35746   0.752   3.112   0.490  0.5686 -0.0607  0.1184
  265MOL0     H35747   0.680   2.924   0.726  2.6176 -0.4360 -1.2287
  265MOL0     H35748   0.612   3.087   0.720  0.6474  0.6282 -1.2023
  265MOL0     H35749   0.537   2.886   0.504  1.5394 -1.7604  2.1540
  265MOL0     H35750   0.477   3.047   0.533  2.0906  2.4390  1.4130
  265MOL0     H35751   0.448   2.816   0.735 -0.2068  1.3150 -0.3298
  265MOL0     H35752   0.398   2.985   0.752 -0.0651 -2.1374  3.1299
  265MOL0     H35753   0.262   2.789   0.564 -0.7093  1.8406 -2.2651
  265MOL0     H35754   0.269   2.961   0.539  0.6831  2.5223  2.1765
  265MOL0     H35755   0.182   3.007   0.778 -2.6591 -0.9482  1.0086
  265MOL0     H35756   0.168   2.832   0.808 -0.7523 -0.5126 -0.0169
  265MOL0     H35757   1.162   2.915   0.360 -0.0987  0.8938  0.9231
  265MOL0     H35758   1.388   2.881   0.255 -0.1975  1.0854 -0.1650
  265MOL0     H35759   1.764   2.749   0.201 -0.0024 -1.3132 -1.9685
  265MOL0     H35760   1.963   2.711   0.050  1.4624  2.6560 -2.2001
  265MOL0     H35761   3.486   2.291   0.043  0.2399  1.3509 -1.3323
  265MOL0     H35762   3.729   2.293  -0.012  2.8197 -1.5060  1.2844
  265MOL0     H35763   4.186   2.196   0.117 -0.7323  0.2962 -0.4721
  265MOL0     H35764   4.398   2.101   0.105 -1.5693  0.3297 -0.1438
  265MOL0     H35765   4.574   1.919  -0.254 -0.7725  1.3386  0.5053
  265MOL0     H35766   4.585   2.080  -0.199 -2.6792 -0.5328 -1.8297
  265MOL0     H35767   4.756   1.843  -0.094 -2.3422 -0.9901 -0.2018
  265MOL0     H35768   4.748   2.003  -0.021  4.0094  2.1023 -1.2115
  265MOL0     H35769   4.831   2.106  -0.230  0.3003  0.0302 -1.3761
  265MOL0     H35770   4.842   1.942  -0.303 -0.1259  0.4903 -1.2952
  265MOL0     H35771   5.015   1.882  -0.150  1.1478  0.7895 -1.9351
  265MOL0     H35772   4.992   2.025  -0.054 -1.2928  0.7299 -0.0748
  265MOL0     H35773   5.221   2.120  -0.406 -0.1419  2.0247 -0.4770
  265MOL0     H35774   4.310   1.900  -0.253  0.9944 -0.7834  1.1435
  265MOL0     H35775   4.060   1.972  -0.228 -2.2412  2.6004  1.1463
  266MOL0     O35776   6.307   9.316   6.914 -0.4218 -0.0808 -0.5816
  266MOL0     C35777   6.244   9.230   6.972  0.0337  0.0569  0.1176
  266MOL0     O35778   6.253   9.097   6.948 -0.2163 -0.5091 -0.4228
  266MOL0     C35779   6.300   9.066   6.826  0.6830 -0.0271 -0.0151
  266MOL0     C35780   6.235   9.085   6.706  0.1356  0.6613  0.6864
  266MOL0     C35781   6.284   9.047   6.581 -0.5250  0.1767  0.6821
  266MOL0     C35782   6.415   8.987   6.562 -1.1526 -0.2650 -0.3920
  266MOL0     O35783   6.448   8.951   6.433 -0.1890  0.9405  0.0180
  266MOL0     C35784   6.552   8.850   6.411  0.5407 -0.5337  0.4154
  266MOL0     C35785   6.538   8.790   6.265  0.4043 -0.3989 -0.0922
  266MOL0     C35786   6.390   8.742   6.233 -0.1467  0.1603 -0.3066
  266MOL0     C35787   6.380   8.675   6.086 -0.4528 -0.3774  0.5548
  266MOL0     C35788   6.237   8.630   6.033  0.1841  0.2952  0.1291
  266MOL0     C35789   6.204   8.510   6.123  0.5813 -0.1379  0.4215
  266MOL0     C35790   6.059   8.463   6.102 -0.5734 -0.1543  0.1866
  266MOL0     C35791   6.040   8.360   5.988  0.1711  0.0993  0.7262
  266MOL0     N35792   5.909   8.292   5.963  0.1935 -0.3960 -0.5923
  266MOL0     C35793   5.893   8.159   5.939  0.2217 -1.1867  0.2547
  266MOL0     C35794   5.762   8.141   5.933  0.5244  1.1421 -0.0585
  266MOL0     C35795   5.689   8.011   5.899  0.0301 -0.0563  0.3159
  266MOL0     C35796   5.629   7.913   6.012 -0.9654 -0.1209  0.3978
  266MOL0     C35797   5.517   7.962   6.089  0.3845 -0.2369 -0.7518
  266MOL0     C35798   5.442   7.844   6.152  1.2954  0.2946  0.3154
  266MOL0     O35799   5.301   7.855   6.103 -1.1694  0.1579  0.1207
  266MOL0     C35800   5.210   7.903   6.191  0.2161  0.3412  0.1191
  266MOL0     C35801   5.224   7.976   6.315 -0.0557  0.1341  1.0229
  266MOL0     C35802   5.115   8.026   6.388  0.7314  0.2100 -0.1933
  266MOL0     C35803   5.138   8.077   6.525 -0.3623  0.0805 -0.3671
  266MOL0     C35804   4.982   7.997   6.342 -0.5269 -0.5797 -0.6528
  266MOL0     C35805   4.853   8.042   6.412 -0.0130  0.0671 -0.0965
  266MOL0     O35806   4.846   8.149   6.494 -0.5006  0.6231 -0.3734
  266MOL0     C35807   4.719   8.192   6.532 -0.3961 -0.5656 -0.9059
  266MOL0     C35808   4.609   8.190   6.453  0.8980  0.4385 -0.4985
  266MOL0     C35809   4.495   8.250   6.501 -0.1249  0.0645 -0.5128
  266MOL0     C35810   4.488   8.299   6.634  0.4699  0.7150  0.4384
  266MOL0     O35811   4.376   8.352   6.686  0.0428 -0.0674  0.1086
  266MOL0     C35812   4.254   8.361   6.615  0.7000  0.6245  0.5527
  266MOL0     C35813   4.146   8.436   6.691 -0.4675  0.1105  0.7187
  266MOL0     C35814   4.005   8.401   6.633  0.6210 -0.3311 -0.2469
  266MOL0     C35815   3.981   8.463   6.498  0.2134 -0.0192  0.0334
  266MOL0     C35816   3.853   8.416   6.429 -0.2070 -0.4290 -0.1819
  266MOL0     C35817   3.741   8.489   6.496  0.3751 -0.3570 -0.6464
  266MOL0     C35818   3.626   8.496   6.401  0.3446 -0.4390 -0.4342
  266MOL0     C35819   3.495   8.542   6.471  0.0732 -0.5243  0.4200
  266MOL0    Cl35820   3.364   8.553   6.345  0.0215 -0.5076 -0.0419
  266MOL0     C35821   4.598   8.298   6.712  0.3278  0.6010 -0.0575
  266MOL0     C35822   4.711   8.247   6.665 -0.0700 -0.4613 -0.1844
  266MOL0     O35823   4.761   7.963   6.380 -0.3413 -0.7210  0.5730
  266MOL0     C35824   4.967   7.922   6.223 -0.6405 -0.6999 -0.0489
  266MOL0     C35825   5.082   7.881   6.147 -0.3479  0.1471 -0.1767
  266MOL0     N35826   5.700   8.265   5.954 -0.9639 -0.0418  0.9387
  266MOL0     N35827   5.796   8.356   5.976  0.4591  0.7243 -0.1012
  266MOL0     C35828   6.501   8.984   6.679  0.6621 -0.5328 -0.2969
  266MOL0     C35829   6.438   9.024   6.806 -0.1814 -1.0093  0.1931
  266MOL0     C35830   6.145   9.277   7.069  0.0650  1.0119 -0.0999
  266MOL0     C35831   6.124   9.416   7.090 -0.4427  0.4966 -0.0579
  266MOL0     C35832   6.042   9.458   7.197 -0.1173  0.1411 -0.9873
  266MOL0     C35833   5.980   9.376   7.286 -0.2809 -0.6855 -0.2465
  266MOL0     O35834   5.925   9.435   7.396  0.4678  0.0573 -1.1323
  266MOL0     C35835   5.847   9.362   7.505 -0.6424  0.2560  0.2274
  266MOL0     C35836   5.747   9.440   7.580 -0.5090 -0.8461 -0.5659
  266MOL0     C35837   5.619   9.468   7.486  0.7726 -0.2634  0.5982
  266MOL0     C35838   5.515   9.508   7.589 -0.3763 -0.5575  0.3027
  266MOL0     C35839   5.392   9.554   7.528 -0.6001 -0.6191  0.3669
  266MOL0     C35840   5.289   9.577   7.465  1.0183 -0.7399 -0.3895
  266MOL0     C35841   6.016   9.241   7.279 -0.0827 -0.1759  0.1998
  266MOL0     C35842   6.098   9.195   7.172  0.2701 -0.1383  0.1716
  266MOL0     H35843   6.135   9.126   6.715 -0.5761 -0.8865  0.1292
  266MOL0     H35844   6.228   9.059   6.489  1.4189  0.5205 -0.5032
  266MOL0     H35845   6.652   8.895   6.419  0.4044  0.4047 -2.1253
  266MOL0     H35846   6.536   8.765   6.477 -2.6262  0.0189  0.5245
  266MOL0     H35847   6.558   8.868   6.191 -1.0481  0.3979  0.3119
  266MOL0     H35848   6.601   8.703   6.244  1.7096  0.8320 -1.5793
  266MOL0     H35849   6.352   8.683   6.317  0.6717  4.0646  3.1364
  266MOL0     H35850   6.333   8.836   6.228  3.4247  2.4654 -2.0582
  266MOL0     H35851   6.409   8.756   6.019  0.5093 -0.6057  0.6855
  266MOL0     H35852   6.467   8.610   6.070 -0.1999  0.5591 -2.4288
  266MOL0     H35853   6.167   8.715   6.030  0.3551  0.5292  1.8448
  266MOL0     H35854   6.238   8.595   5.929 -0.7863 -0.4948  0.3758
  266MOL0     H35855   6.276   8.429   6.105 -1.5654 -1.7963 -1.2086
  266MOL0     H35856   6.211   8.544   6.227  0.3095  0.5859  0.2118
  266MOL0     H35857   6.020   8.415   6.192  1.4685  0.2457  1.3475
  266MOL0     H35858   5.991   8.548   6.088 -0.3882 -0.4157 -3.2026
  266MOL0     H35859   6.113   8.282   6.012  1.1566  0.7419 -0.1237
  266MOL0     H35860   6.071   8.409   5.896 -0.7091 -0.1104  0.3131
  266MOL0     H35861   5.973   8.086   5.939  0.0577 -1.3687  0.2860
  266MOL0     H35862   5.607   8.039   5.832  2.5634  2.7523 -1.9011
  266MOL0     H35863   5.762   7.954   5.842  1.0282 -0.6218  2.0888
  266MOL0     H35864   5.703   7.888   6.088 -1.9316 -0.7455  1.1543
  266MOL0     H35865   5.593   7.829   5.951  3.6615 -1.8476 -0.3090
  266MOL0     H35866   5.449   8.011   6.019 -1.8779 -6.0047 -3.2068
  266MOL0     H35867   5.551   8.028   6.170 -0.1944 -0.6528 -0.1634
  266MOL0     H35868   5.454   7.854   6.260  3.2521 -1.1210  0.2803
  266MOL0     H35869   5.482   7.745   6.132 -2.5710 -1.2805 -0.6152
  266MOL0     H35870   5.319   8.014   6.349  0.3406 -1.5413  1.8967
  266MOL0     H35871   5.243   8.073   6.557  0.2315  2.7554 -1.7640
  266MOL0     H35872   5.107   8.181   6.536  1.7307  0.9136 -1.7541
  266MOL0     H35873   5.080   8.021   6.599  0.2504  0.6032  0.5269
  266MOL0     H35874   4.606   8.155   6.350  1.9467 -0.6589 -0.1822
  266MOL0     H35875   4.408   8.265   6.437  1.2944 -0.1043 -2.5994
  266MOL0     H35876   4.261   8.427   6.527  0.2277 -0.1153 -0.0496
  266MOL0     H35877   4.216   8.263   6.587 -0.1042  0.6312  1.5657
  266MOL0     H35878   4.132   8.396   6.792 -2.1111 -0.1314  0.4229
  266MOL0     H35879   4.165   8.544   6.682 -0.7825  0.4040  2.9779
  266MOL0     H35880   3.933   8.445   6.702 -2.4541 -5.3367  0.2182
  266MOL0     H35881   3.982   8.294   6.629 -0.4276 -0.0957 -1.1378
  266MOL0     H35882   3.985   8.573   6.499  1.7319 -0.0298  1.7409
  266MOL0     H35883   4.072   8.444   6.439 -0.3907  0.4891 -1.0945
  266MOL0     H35884   3.841   8.308   6.440 -2.2043 -0.0882  1.5871
  266MOL0     H35885   3.865   8.434   6.322  1.3020  0.3982  0.0998
  266MOL0     H35886   3.710   8.434   6.586  1.7263 -0.2974 -0.1146
  266MOL0     H35887   3.758   8.593   6.526  1.6953 -0.2834 -1.5616
  266MOL0     H35888   3.608   8.399   6.354  1.4412  0.2786 -2.4780
  266MOL0     H35889   3.646   8.564   6.317  2.2848 -0.2249  0.1508
  266MOL0     H35890   3.498   8.641   6.517 -0.5959  1.1907 -2.8841
  266MOL0     H35891   3.467   8.467   6.545  0.7298 -2.6195 -1.3188
  266MOL0     H35892   4.607   8.353   6.804 -0.8307  0.6035  0.0680
  266MOL0     H35893   4.801   8.255   6.726 -0.6905  0.5774  0.6327
  266MOL0     H35894   4.872   7.926   6.170  0.7325  2.3904 -2.6680
  266MOL0     H35895   5.070   7.837   6.048  1.9399  2.7458 -1.7369
  266MOL0     H35896   6.603   8.948   6.679  0.3503 -1.4361  0.6734
  266MOL0     H35897   6.503   9.014   6.893  3.0081 -3.4342 -2.2353
  266MOL0     H35898   6.172   9.488   7.025  2.6714 -1.7726 -0.5537
  266MOL0     H35899   6.023   9.564   7.211  0.2728  0.2629 -1.3585
  266MOL0     H35900   5.799   9.271   7.466 -4.9901  2.2682  0.3635
  266MOL0     H35901   5.923   9.332   7.578  0.0601  2.5979  0.5371
  266MOL0     H35902   5.783   9.540   7.606  0.0567 -0.8515 -1.3014
  266MOL0     H35903   5.716   9.381   7.667 -2.2587 -1.9080 -1.8596
  266MOL0     H35904   5.602   9.371   7.437  0.3221 -0.3937  1.0152
  266MOL0     H35905   5.637   9.548   7.413  1.4805 -1.3884 -0.5147
  266MOL0     H35906   5.539   9.590   7.656 -0.5912  0.0620 -0.3688
  266MOL0     H35907   5.494   9.417   7.647 -0.1872 -1.0316 -0.3531
  266MOL0     H35908   5.200   9.602   7.411  0.9546 -1.0503 -0.4302
  266MOL0     H35909   5.983   9.166   7.351 -0.1013  1.5767  2.1186
  266MOL0     H35910   6.133   9.092   7.166  0.4192 -0.0613 -0.3456
  267MOL0     O35911   3.150   8.759   6.840  0.2775 -0.6349  0.3055
  267MOL0     C35912   3.207   8.739   6.946 -0.1625 -0.9609  0.2552
  267MOL0     O35913   3.162   8.753   7.073  0.1413  0.7134  0.8407
  267MOL0     C35914   3.030   8.784   7.105  0.7343  0.7117  0.7357
  267MOL0     C35915   2.928   8.696   7.059  0.3665 -0.0775 -0.1637
  267MOL0     C35916   2.796   8.732   7.083  0.6252  0.6721 -0.2661
  267MOL0     C35917   2.757   8.862   7.124 -0.0564  0.1688 -0.8683
  267MOL0     O35918   2.624   8.883   7.129 -0.0069 -0.0609  0.2306
  267MOL0     C35919   2.583   9.010   7.185 -0.0301  0.3204 -0.5080
  267MOL0     C35920   2.436   9.034   7.184 -0.8882  0.4736  1.2925
  267MOL0     C35921   2.355   8.920   7.239 -0.3767  0.8379 -1.0684
  267MOL0     C35922   2.215   8.945   7.214  0.3206 -0.0239  0.0363
  267MOL0     C35923   2.127   8.823   7.232  0.1671  0.0007 -0.2458
  267MOL0     C35924   1.984   8.865   7.232 -0.0235 -0.1790 -0.5900
  267MOL0     C35925   1.886   8.748   7.246 -0.4640  0.3830 -0.4194
  267MOL0     C35926   1.741   8.805   7.251  0.0548  0.1246  0.3230
  267MOL0     N35927   1.631   8.710   7.283  0.0737 -0.3086 -0.2037
  267MOL0     C35928   1.501   8.720   7.238 -0.0446  1.1873 -0.3866
  267MOL0     C35929   1.432   8.634   7.329  0.7590  0.0949  0.7023
  267MOL0     C35930   1.286   8.619   7.316  0.0794 -1.1099  0.6082
  267MOL0     C35931   1.213   8.711   7.412  0.1232 -0.3731 -0.4184
  267MOL0     C35932   1.072   8.719   7.388  0.6128  0.4518  0.1389
  267MOL0     C35933   0.998   8.596   7.427 -0.0925 -0.2693 -0.4990
  267MOL0     O35934   0.856   8.612   7.434 -0.6892  0.2216 -0.5680
  267MOL0     C35935   0.772   8.507   7.388  0.2271  0.6704 -0.1053
  267MOL0     C35936   0.805   8.372   7.392 -0.5103  0.5941  0.1398
  267MOL0     C35937   0.723   8.263   7.350 -0.1604 -0.6836 -0.2430
  267MOL0     C35938   0.775   8.119   7.346 -0.4671  0.4592 -0.6711
  267MOL0     C35939   0.596   8.306   7.294  0.3688  0.6055 -0.1945
  267MOL0     C35940   0.495   8.203   7.250 -0.3347 -0.2214  0.9513
  267MOL0     O35941   0.542   8.090   7.186 -0.4783 -0.0366  0.0368
  267MOL0     C35942   0.458   7.991   7.146 -0.8309 -1.0148 -0.5928
  267MOL0     C35943   0.395   7.914   7.240 -0.1842 -0.1053 -0.7529
  267MOL0     C35944   0.313   7.808   7.198  0.2569 -0.1173  1.0977
  267MOL0     C35945   0.302   7.780   7.063  0.9515 -0.4932 -0.1340
  267MOL0     O35946   0.229   7.667   7.030  0.1559 -0.2055  0.2842
  267MOL0     C35947   0.185   7.655   6.890  0.4293 -0.4742 -0.1885
  267MOL0     C35948   0.071   7.564   6.867 -1.0458 -0.3449  0.7004
  267MOL0     C35949  -0.065   7.592   6.941 -0.0894 -0.5713  0.2380
  267MOL0     C35950  -0.165   7.492   6.885 -0.1829 -0.5993  0.3095
  267MOL0     C35951  -0.302   7.519   6.946  0.0834 -0.1727 -0.1224
  267MOL0     C35952  -0.363   7.648   6.910 -0.0460 -0.9267  0.2343
  267MOL0     C35953  -0.505   7.656   6.953 -0.1497  0.4578  0.8409
  267MOL0     C35954  -0.580   7.776   6.912 -0.6228  0.0194 -0.7231
  267MOL0    Cl35955  -0.569   7.801   6.745 -0.0484  0.4327 -0.0074
  267MOL0     C35956   0.358   7.861   6.971 -0.3394 -0.0592  0.2197
  267MOL0     C35957   0.439   7.975   7.013  0.2511  0.8812 -0.3112
  267MOL0     O35958   0.375   8.239   7.252  0.1501  0.0180 -0.2688
  267MOL0     C35959   0.569   8.445   7.282 -0.1884  0.5352 -0.4769
  267MOL0     C35960   0.653   8.542   7.333  0.5204 -0.4163  0.4596
  267MOL0     N35961   1.517   8.589   7.432  0.0021 -0.1378 -0.3788
  267MOL0     N35962   1.633   8.631   7.392 -0.5086  0.1241  0.8361
  267MOL0     C35963   2.859   8.944   7.162  0.3085 -0.4810 -0.1422
  267MOL0     C35964   2.992   8.902   7.164 -0.4203  0.2123 -0.2313
  267MOL0     C35965   3.350   8.699   6.938  0.6841  0.5658 -0.2501
  267MOL0     C35966   3.426   8.728   6.831 -0.1527  0.0578  0.3728
  267MOL0     C35967   3.564   8.703   6.836 -0.3786  0.2032 -0.0383
  267MOL0     C35968   3.630   8.645   6.944  0.2316  0.3073 -0.0292
  267MOL0     O35969   3.764   8.619   6.940 -0.2090  0.2646  0.4598
  267MOL0     C35970   3.852   8.611   7.059  0.7652 -0.1899  0.4018
  267MOL0     C35971   3.991   8.626   6.990  0.4136  0.3218  0.7125
  267MOL0     C35972   4.112   8.643   7.088 -0.4463 -0.1980 -0.6846
  267MOL0     C35973   4.175   8.500   7.115 -0.2052 -0.1125  0.3986
  267MOL0     C35974   4.295   8.493   7.022 -0.2453 -0.6170  0.5779
  267MOL0     C35975   4.402   8.504   6.969 -0.5743 -0.2915  0.1750
  267MOL0     C35976   3.550   8.600   7.048 -0.4999  0.4281 -0.6998
  267MOL0     C35977   3.416   8.634   7.051 -0.0302  0.8010  0.4994
  267MOL0     H35978   2.953   8.601   7.011  0.7422 -0.8010  1.3804
  267MOL0     H35979   2.722   8.656   7.059  2.3951 -1.1374 -0.2972
  267MOL0     H35980   2.627   9.026   7.284 -1.5735 -0.0006  0.2610
  267MOL0     H35981   2.610   9.087   7.112  1.2431  2.5811  2.1563
  267MOL0     H35982   2.410   9.130   7.230 -0.0226  1.8574 -0.9509
  267MOL0     H35983   2.425   9.032   7.076  0.0367  2.3381  1.1041
  267MOL0     H35984   2.394   8.826   7.198  1.3358  0.8644  0.3973
  267MOL0     H35985   2.373   8.914   7.347 -1.1845  0.0800 -0.9712
  267MOL0     H35986   2.184   9.025   7.281 -1.3544 -0.6392  0.0486
  267MOL0     H35987   2.196   8.986   7.114 -1.6242  0.6171  0.6119
  267MOL0     H35988   2.142   8.748   7.154 -1.6479 -0.6868  0.0381
  267MOL0     H35989   2.145   8.787   7.333  1.9749 -3.8154 -1.7148
  267MOL0     H35990   1.966   8.936   7.314  1.6049  2.0465 -2.0252
  267MOL0     H35991   1.962   8.930   7.146 -1.5081  1.9178  1.2335
  267MOL0     H35992   1.903   8.688   7.156 -0.4315 -0.1883 -0.0376
  267MOL0     H35993   1.909   8.688   7.334 -0.0582 -2.3689 -2.2765
  267MOL0     H35994   1.729   8.851   7.152  0.4071  0.7233  0.5517
  267MOL0     H35995   1.738   8.877   7.333 -1.5479 -0.0032  0.3906
  267MOL0     H35996   1.460   8.776   7.155 -1.2670  0.2859 -0.4194
  267MOL0     H35997   1.271   8.650   7.212 -1.9448  2.6935  1.8448
  267MOL0     H35998   1.249   8.520   7.342 -3.1507  0.8121  4.2839
  267MOL0     H35999   1.252   8.813   7.406  1.6307 -0.9816 -2.2347
  267MOL0     H36000   1.244   8.669   7.508  1.4040  0.5950 -0.3723
  267MOL0     H36001   1.068   8.730   7.279  2.9708  2.8926  0.1947
  267MOL0     H36002   1.019   8.802   7.435 -1.3725 -0.0060 -1.1374
  267MOL0     H36003   1.036   8.562   7.524  0.6705 -0.5909 -0.8941
  267MOL0     H36004   1.024   8.510   7.365  4.3422  1.3140 -1.1908
  267MOL0     H36005   0.904   8.351   7.430  0.4665  1.4104 -1.8057
  267MOL0     H36006   0.802   8.099   7.242  0.8333 -0.1960 -0.2270
  267MOL0     H36007   0.865   8.110   7.408 -1.9854  0.2309  1.6220
  267MOL0     H36008   0.703   8.045   7.383 -0.2499  1.1426  1.2252
  267MOL0     H36009   0.415   7.927   7.346 -0.8084 -0.6951 -0.5538
  267MOL0     H36010   0.285   7.728   7.266  0.8223 -2.1154 -0.8752
  267MOL0     H36011   0.160   7.748   6.840  0.8300  0.1872  0.8087
  267MOL0     H36012   0.275   7.621   6.837  0.6540  0.2841 -0.3009
  267MOL0     H36013   0.058   7.566   6.758 -0.6834 -0.0465  0.6619
  267MOL0     H36014   0.096   7.464   6.903 -2.2463 -0.7026  0.5905
  267MOL0     H36015  -0.108   7.689   6.916 -1.6685 -1.3296 -0.1362
  267MOL0     H36016  -0.055   7.577   7.049  1.5541 -1.4665 -0.0143
  267MOL0     H36017  -0.170   7.495   6.776  2.5502 -0.2333  0.1228
  267MOL0     H36018  -0.138   7.388   6.909 -2.9448 -1.6311 -0.6769
  267MOL0     H36019  -0.292   7.519   7.055 -2.0386  0.1379  0.1210
  267MOL0     H36020  -0.353   7.425   6.922  1.8769 -0.8868 -1.3708
  267MOL0     H36021  -0.317   7.734   6.960 -1.1197  0.2144 -0.6532
  267MOL0     H36022  -0.345   7.664   6.803 -0.0094 -1.5809  0.1381
  267MOL0     H36023  -0.510   7.642   7.062 -2.2686 -0.5839  0.6666
  267MOL0     H36024  -0.564   7.578   6.905  2.6049 -1.3182  0.1252
  267MOL0     H36025  -0.556   7.864   6.973  2.0653 -0.0799 -1.4899
  267MOL0     H36026  -0.684   7.754   6.935 -0.3892 -0.4178 -0.0608
  267MOL0     H36027   0.344   7.836   6.866 -0.0872 -3.0067  0.8079
  267MOL0     H36028   0.484   8.051   6.950 -2.1502  5.1581  2.6409
  267MOL0     H36029   0.474   8.475   7.240 -1.9299 -2.7060  0.7924
  267MOL0     H36030   0.631   8.647   7.322 -1.8585 -0.8229  0.8926
  267MOL0     H36031   2.842   9.046   7.193  0.1091 -0.2141 -1.0800
  267MOL0     H36032   3.070   8.975   7.185 -0.3573  0.0972 -0.0658
  267MOL0     H36033   3.379   8.782   6.750 -1.4019 -1.2481  0.1864
  267MOL0     H36034   3.612   8.735   6.744 -0.1726 -1.7066 -0.6369
  267MOL0     H36035   3.840   8.699   7.123 -1.5177 -0.3572  0.2772
  267MOL0     H36036   3.839   8.516   7.112  2.7197 -0.6944  0.0492
  267MOL0     H36037   3.998   8.713   6.924 -0.0762  1.5500  2.2397
  267MOL0     H36038   4.018   8.543   6.923  1.3549  0.9488  0.2881
  267MOL0     H36039   4.074   8.692   7.178  0.6082 -0.4134 -0.1148
  267MOL0     H36040   4.183   8.711   7.042 -0.7055  1.4038  1.1412
  267MOL0     H36041   4.107   8.422   7.080 -0.2448  0.3297 -0.5667
  267MOL0     H36042   4.203   8.483   7.219 -4.2064 -0.2897  1.5861
  267MOL0     H36043   4.489   8.499   6.907 -1.3922  0.1126 -1.0514
  267MOL0     H36044   3.597   8.548   7.131 -0.3596 -1.6903 -2.0483
  267MOL0     H36045   3.363   8.602   7.140 -1.2809 -0.4466 -0.6575
  268MOL0     O36046   6.209   8.068   5.906  0.3357  0.8520 -0.3674
  268MOL0     C36047   6.268   8.137   5.827 -0.3641 -0.2450  0.2067
  268MOL0     O36048   6.235   8.161   5.695  0.0844 -0.0344 -0.5862
  268MOL0     C36049   6.114   8.111   5.652 -0.5221 -0.2376 -0.1543
  268MOL0     C36050   6.085   7.977   5.635 -0.7260  0.4157 -0.7783
  268MOL0     C36051   5.966   7.929   5.579 -0.8429 -0.7779  1.0766
  268MOL0     C36052   5.855   8.019   5.545 -0.3621  0.0569 -1.3503
  268MOL0     O36053   5.731   7.966   5.517 -0.3124 -0.5312  0.2254
  268MOL0     C36054   5.642   8.052   5.450  0.9145 -0.6880 -0.6957
  268MOL0     C36055   5.504   7.979   5.452 -0.5491  0.8474  0.8022
  268MOL0     C36056   5.436   8.004   5.315  0.7080 -0.4847  0.1545
  268MOL0     C36057   5.289   7.954   5.295 -0.4873 -0.3713  0.2573
  268MOL0     C36058   5.244   7.998   5.151 -0.2229  0.1999  0.3252
  268MOL0     C36059   5.291   7.914   5.035 -0.5347 -0.7954  0.2764
  268MOL0     C36060   5.244   7.982   4.908  0.5802 -0.0740  1.2442
  268MOL0     C36061   5.090   7.964   4.872 -0.1979  0.8652 -0.8119
  268MOL0     N36062   5.064   8.014   4.736  0.6394  0.0173 -0.2576
  268MOL0     C36063   5.144   8.011   4.621  0.5294 -0.5250 -0.6693
  268MOL0     C36064   5.089   8.113   4.548 -1.5356 -0.0515  0.7153
  268MOL0     C36065   5.124   8.134   4.404  0.4178  0.3432 -0.7419
  268MOL0     C36066   5.236   8.244   4.388  0.0343 -0.0477 -0.1675
  268MOL0     C36067   5.265   8.265   4.240 -0.4653  0.0972 -0.2199
  268MOL0     C36068   5.370   8.378   4.226  0.0108  0.3088  0.3983
  268MOL0     O36069   5.416   8.404   4.094  0.5557  0.4597  0.5274
  268MOL0     C36070   5.331   8.459   4.005  0.5726 -0.4671  0.3006
  268MOL0     C36071   5.364   8.452   3.865 -0.0143  0.5366  0.5995
  268MOL0     C36072   5.279   8.493   3.769  0.7366 -0.8977  0.2009
  268MOL0     C36073   5.319   8.462   3.626 -0.7633 -0.0300  0.0374
  268MOL0     C36074   5.175   8.577   3.800 -0.0780  0.6354 -0.1473
  268MOL0     C36075   5.090   8.651   3.705 -0.4210 -0.0906  0.2714
  268MOL0     O36076   4.999   8.729   3.761 -0.3577  0.0609  0.0599
  268MOL0     C36077   4.934   8.818   3.676  0.4888 -0.4072 -0.1364
  268MOL0     C36078   4.800   8.787   3.649 -0.1211  0.7421 -1.2425
  268MOL0     C36079   4.712   8.877   3.579 -0.8107  0.3583 -0.4819
  268MOL0     C36080   4.765   9.007   3.550  0.8248 -0.3462  0.0751
  268MOL0     O36081   4.693   9.098   3.484  0.3570 -0.6756 -0.1545
  268MOL0     C36082   4.630   9.190   3.569 -0.0300 -0.0235 -0.4764
  268MOL0     C36083   4.520   9.115   3.656  0.6140 -0.0678  0.3206
  268MOL0     C36084   4.442   9.214   3.740  0.4359  0.7350  0.6750
  268MOL0     C36085   4.298   9.213   3.688  0.1311  1.0813  0.0556
  268MOL0     C36086   4.209   9.327   3.741 -0.6796 -1.4890 -0.2854
  268MOL0     C36087   4.075   9.360   3.670 -0.2896  0.2558 -0.6104
  268MOL0     C36088   3.977   9.238   3.672  0.0821 -0.5228  0.2455
  268MOL0     C36089   3.871   9.238   3.781  0.3381 -0.0216 -0.3168
  268MOL0    Cl36090   3.701   9.214   3.726 -0.4152 -0.0221 -0.0690
  268MOL0     C36091   4.900   9.035   3.570  0.4254 -0.5713  0.1411
  268MOL0     C36092   4.991   8.945   3.633  1.3008 -1.0413  0.6668
  268MOL0     O36093   5.114   8.642   3.579  0.0482 -0.4020  0.1494
  268MOL0     C36094   5.133   8.584   3.938 -0.4435  0.2889 -0.1604
  268MOL0     C36095   5.209   8.522   4.040 -0.4072 -0.3931  0.4885
  268MOL0     N36096   4.977   8.166   4.604  0.0923 -0.2377  0.2294
  268MOL0     N36097   4.970   8.113   4.720 -0.1452  0.5966  0.5004
  268MOL0     C36098   5.887   8.152   5.557 -0.6018 -0.0153 -0.2381
  268MOL0     C36099   6.013   8.196   5.600 -0.5878  0.2118 -0.5692
  268MOL0     C36100   6.388   8.205   5.865  1.4466 -0.9166 -0.9414
  268MOL0     C36101   6.435   8.192   6.000  0.8644  0.1644  0.3909
  268MOL0     C36102   6.557   8.248   6.026  0.7154  0.0720  0.4359
  268MOL0     C36103   6.627   8.329   5.934 -0.2410  0.9309 -0.3396
  268MOL0     O36104   6.745   8.382   5.983  0.0977  0.4162 -0.4577
  268MOL0     C36105   6.827   8.459   5.889  0.4272  0.1632 -1.1072
  268MOL0     C36106   6.793   8.608   5.892 -0.0718 -0.3779 -0.2489
  268MOL0     C36107   6.827   8.655   6.035  0.0553 -0.0623  0.4058
  268MOL0     C36108   6.822   8.800   6.049 -0.5586 -0.2100  0.1306
  268MOL0     C36109   6.890   8.837   6.168  0.4978  0.2346  0.4983
  268MOL0     C36110   6.937   8.859   6.276 -0.2629  1.3319 -0.3080
  268MOL0     C36111   6.568   8.354   5.811  0.2184  0.2595  0.2809
  268MOL0     C36112   6.456   8.282   5.770  0.1071  1.0169 -0.8555
  268MOL0     H36113   6.168   7.924   5.680  1.4581  2.6692 -1.8893
  268MOL0     H36114   5.951   7.823   5.563 -1.5388 -0.3689 -1.4164
  268MOL0     H36115   5.620   8.150   5.492  1.0871 -1.7214  2.0185
  268MOL0     H36116   5.677   8.077   5.349 -2.7668  0.9356 -1.7655
  268MOL0     H36117   5.514   7.870   5.449 -1.7044  0.7435 -2.0666
  268MOL0     H36118   5.442   8.014   5.534 -0.8714  1.7289  0.1952
  268MOL0     H36119   5.433   8.112   5.298  0.7963 -0.0103  2.7481
  268MOL0     H36120   5.505   7.960   5.242 -0.7612 -1.6947 -0.5425
  268MOL0     H36121   5.281   7.846   5.309 -0.2286 -0.5882 -1.1433
  268MOL0     H36122   5.214   7.989   5.367 -1.5733 -2.0024 -0.0088
  268MOL0     H36123   5.135   8.006   5.146 -0.1123  3.2120  0.4510
  268MOL0     H36124   5.284   8.099   5.138 -0.9821  0.7920  2.2612
  268MOL0     H36125   5.400   7.917   5.035 -0.5151  2.1443 -0.6484
  268MOL0     H36126   5.256   7.810   5.033  0.1379 -1.0538  1.4216
  268MOL0     H36127   5.264   8.090   4.913  2.6921 -0.3883  0.3482
  268MOL0     H36128   5.303   7.948   4.823 -0.5945  2.4515 -0.7379
  268MOL0     H36129   5.041   8.025   4.947  1.3713  0.5277  0.5571
  268MOL0     H36130   5.062   7.858   4.874  1.0739  0.4777 -1.9533
  268MOL0     H36131   5.234   7.956   4.599  3.2899  2.9239  0.9504
  268MOL0     H36132   5.174   8.042   4.374  5.2295  1.3817  3.0295
  268MOL0     H36133   5.038   8.159   4.340 -0.1227  0.4913  0.0326
  268MOL0     H36134   5.321   8.206   4.445  0.1964 -1.2197 -1.1309
  268MOL0     H36135   5.195   8.339   4.423 -0.6837  0.1970 -1.6033
  268MOL0     H36136   5.174   8.288   4.185 -2.1857 -4.1915  0.4110
  268MOL0     H36137   5.297   8.178   4.181  0.6509  0.1249  0.3036
  268MOL0     H36138   5.459   8.345   4.281 -1.9258 -2.4645  2.1322
  268MOL0     H36139   5.331   8.473   4.262  0.8222  1.1165 -0.7752
  268MOL0     H36140   5.449   8.392   3.836 -0.7874 -1.2710  1.9179
  268MOL0     H36141   5.232   8.446   3.561 -1.2143  2.0168  0.0657
  268MOL0     H36142   5.362   8.559   3.599  1.2489 -0.6742  0.7991
  268MOL0     H36143   5.385   8.376   3.620 -2.6796 -1.4929 -1.8528
  268MOL0     H36144   4.753   8.695   3.683  0.5405  0.3716 -1.3025
  268MOL0     H36145   4.616   8.838   3.548 -1.4175  2.5202 -1.4889
  268MOL0     H36146   4.705   9.238   3.633  0.1499 -1.0853  0.1309
  268MOL0     H36147   4.578   9.273   3.520 -0.1165  0.6182  0.6550
  268MOL0     H36148   4.450   9.062   3.590  0.8867  0.1241 -0.1287
  268MOL0     H36149   4.570   9.053   3.731  1.3224  3.5726  3.1279
  268MOL0     H36150   4.486   9.314   3.739 -0.7815  1.2980  0.1564
  268MOL0     H36151   4.443   9.189   3.846  0.5164 -2.1792  0.0592
  268MOL0     H36152   4.298   9.225   3.580  1.7100  3.5649  0.2359
  268MOL0     H36153   4.256   9.119   3.725 -0.5495  2.2991  2.6710
  268MOL0     H36154   4.260   9.422   3.722  1.7191 -2.5587  0.4325
  268MOL0     H36155   4.196   9.316   3.849 -0.2779 -0.9400 -0.1772
  268MOL0     H36156   4.024   9.448   3.709 -0.2913  0.7526 -1.6785
  268MOL0     H36157   4.097   9.384   3.565  0.0073  0.2393 -0.5527
  268MOL0     H36158   4.027   9.141   3.677  1.1383 -0.1105 -1.4795
  268MOL0     H36159   3.920   9.237   3.579 -0.2924 -1.2600  0.4728
  268MOL0     H36160   3.874   9.339   3.822  2.9278  0.5294 -1.6190
  268MOL0     H36161   3.902   9.171   3.862  0.0534 -1.3858 -1.2809
  268MOL0     H36162   4.939   9.133   3.543  3.3091 -1.3746  1.0320
  268MOL0     H36163   5.095   8.975   3.645  0.7570  0.7901  1.1059
  268MOL0     H36164   5.041   8.635   3.967 -0.3182  2.3729 -3.0390
  268MOL0     H36165   5.178   8.527   4.144  0.9511  2.3520  0.8766
  268MOL0     H36166   5.826   8.237   5.528 -0.2390 -0.6696 -3.2782
  268MOL0     H36167   6.040   8.301   5.606  0.5844 -0.0929 -0.0543
  268MOL0     H36168   6.393   8.123   6.073 -3.4566 -0.0414 -1.9312
  268MOL0     H36169   6.603   8.254   6.125 -2.4860 -0.9135  2.1023
  268MOL0     H36170   6.934   8.439   5.899  0.7641  1.9328 -0.8063
  268MOL0     H36171   6.799   8.429   5.788 -0.9294 -1.2789 -0.3552
  268MOL0     H36172   6.687   8.633   5.885  0.4792  2.4654  0.4416
  268MOL0     H36173   6.853   8.657   5.815  2.2292  1.2275  2.3855
  268MOL0     H36174   6.931   8.626   6.049 -0.1290 -0.7478  0.3890
  268MOL0     H36175   6.754   8.613   6.104 -0.4591 -0.9267 -0.6357
  268MOL0     H36176   6.716   8.828   6.050 -0.7091 -0.7534 -0.0912
  268MOL0     H36177   6.866   8.843   5.959 -1.7376 -0.5135 -0.6216
  268MOL0     H36178   6.982   8.887   6.369  2.1287  2.2911 -1.6766
  268MOL0     H36179   6.610   8.423   5.739 -1.4552  0.0322 -0.9702
  268MOL0     H36180   6.424   8.309   5.670 -1.2849 -1.3085 -1.1031
  269MOL0     O36181   5.010   3.082   0.535 -0.0371  0.1964  0.4879
  269MOL0     C36182   5.057   2.986   0.467  0.7464 -0.5773 -1.0039
  269MOL0     O36183   4.993   2.917   0.363  0.5084 -0.2000  0.1251
  269MOL0     C36184   4.857   2.941   0.335  0.1607 -0.7222 -0.3722
  269MOL0     C36185   4.795   2.840   0.267  0.2258 -1.2181 -0.3649
  269MOL0     C36186   4.654   2.838   0.250  0.1538  0.2056  0.2146
  269MOL0     C36187   4.574   2.940   0.292 -0.9339  0.0269  0.0799
  269MOL0     O36188   4.447   2.920   0.270 -0.3197 -0.0259 -0.3896
  269MOL0     C36189   4.353   2.988   0.361 -0.4011  1.0823  0.5868
  269MOL0     C36190   4.211   2.947   0.313 -0.1631  0.4300  0.2172
  269MOL0     C36191   4.189   2.794   0.314  0.4835 -0.1809  0.0530
  269MOL0     C36192   4.039   2.769   0.285  0.3636  0.4440  0.0165
  269MOL0     C36193   4.008   2.629   0.326 -0.4887  0.7093  1.0219
  269MOL0     C36194   3.852   2.603   0.319 -0.1518  0.7587 -0.3609
  269MOL0     C36195   3.830   2.462   0.375 -0.4265  0.6965  0.0058
  269MOL0     C36196   3.703   2.384   0.322 -0.8381  0.3717 -0.0989
  269MOL0     N36197   3.577   2.452   0.358 -0.0086 -0.1044  0.4628
  269MOL0     C36198   3.554   2.531   0.469 -0.5657 -0.4450 -0.5308
  269MOL0     C36199   3.433   2.589   0.450  0.1879 -0.6969 -0.2070
  269MOL0     C36200   3.351   2.687   0.537  0.5702  0.2021 -0.1196
  269MOL0     C36201   3.423   2.821   0.578 -0.4543 -0.2537 -0.1337
  269MOL0     C36202   3.487   2.823   0.720 -0.0340  0.1474  0.0270
  269MOL0     C36203   3.615   2.747   0.739  0.0210 -0.2792  0.2859
  269MOL0     O36204   3.715   2.794   0.649 -0.0463 -0.2338  0.1406
  269MOL0     C36205   3.843   2.762   0.671 -0.4781  1.0381  0.6244
  269MOL0     C36206   3.888   2.646   0.730  0.6771 -0.0738 -0.0330
  269MOL0     C36207   4.017   2.615   0.755 -0.0853 -0.9321  0.1981
  269MOL0     C36208   4.051   2.474   0.798  0.1644 -0.4689  0.2942
  269MOL0     C36209   4.112   2.715   0.724  0.1228  0.7512  0.1418
  269MOL0     C36210   4.255   2.702   0.770  0.6614 -0.4805  0.0181
  269MOL0     O36211   4.283   2.632   0.883  0.2091  0.3415 -0.2283
  269MOL0     C36212   4.397   2.569   0.907  0.0957 -0.2911 -0.6511
  269MOL0     C36213   4.501   2.620   0.986  0.4438 -0.8759 -0.5038
  269MOL0     C36214   4.632   2.557   0.986  0.8925 -0.7092  0.3765
  269MOL0     C36215   4.660   2.439   0.918 -1.1811 -0.9664  0.0284
  269MOL0     O36216   4.788   2.383   0.946  0.2954 -0.4114 -0.0945
  269MOL0     C36217   4.820   2.257   0.882 -0.3055 -0.5217 -0.2743
  269MOL0     C36218   4.960   2.222   0.935 -0.5962  0.4636  1.0370
  269MOL0     C36219   4.971   2.215   1.086 -0.4892 -0.6348  0.2017
  269MOL0     C36220   5.065   2.329   1.138 -0.1321 -0.5718  0.1616
  269MOL0     C36221   5.077   2.337   1.295  0.9511 -1.0121 -0.0554
  269MOL0     C36222   5.166   2.448   1.348 -0.1149 -0.4954 -0.5198
  269MOL0     C36223   5.314   2.415   1.333 -0.7145  0.4631  0.5355
  269MOL0     C36224   5.388   2.535   1.382  0.1013  0.1429 -0.3207
  269MOL0    Cl36225   5.559   2.496   1.409 -0.3047  0.4401  0.0310
  269MOL0     C36226   4.555   2.377   0.843 -0.3529 -1.0988  0.4133
  269MOL0     C36227   4.426   2.449   0.839 -0.1250  0.2913 -0.4045
  269MOL0     O36228   4.340   2.745   0.690  1.2191 -0.3941  0.6829
  269MOL0     C36229   4.072   2.838   0.655 -0.2828 -0.1535 -0.3019
  269MOL0     C36230   3.936   2.851   0.633  0.0220  0.7616 -0.0480
  269MOL0     N36231   3.385   2.541   0.324  0.3441 -0.2391 -1.0079
  269MOL0     N36232   3.469   2.457   0.279 -0.5545 -0.4191 -0.4225
  269MOL0     C36233   4.638   3.047   0.357  0.5434 -0.0557 -0.2252
  269MOL0     C36234   4.779   3.046   0.383  0.2993 -0.2352  0.2719
  269MOL0     C36235   5.196   2.953   0.508 -1.2186  0.4280  0.1625
  269MOL0     C36236   5.258   2.833   0.454  0.4700 -0.2310  0.3941
  269MOL0     C36237   5.392   2.799   0.493 -0.5584  0.1799  0.1474
  269MOL0     C36238   5.470   2.881   0.583  0.4377  0.0767  0.4189
  269MOL0     O36239   5.591   2.836   0.621 -0.4996  0.1690  0.3113
  269MOL0     C36240   5.703   2.932   0.625 -0.2356  0.7622 -0.4844
  269MOL0     C36241   5.760   2.951   0.489 -0.4620 -0.5196 -0.1725
  269MOL0     C36242   5.815   2.815   0.434  0.0481 -0.4467  0.7984
  269MOL0     C36243   5.827   2.830   0.284  0.2070  0.1959 -0.3566
  269MOL0     C36244   5.877   2.705   0.222 -0.2596 -1.0823  0.4581
  269MOL0     C36245   5.920   2.599   0.172 -0.0210 -0.1365 -0.9662
  269MOL0     C36246   5.401   2.989   0.641 -0.3353  0.0081  0.4642
  269MOL0     C36247   5.271   3.034   0.597  0.5675 -0.0153 -0.1801
  269MOL0     H36248   4.855   2.757   0.230 -0.0284 -1.8413  0.5860
  269MOL0     H36249   4.617   2.752   0.195  2.0637 -0.2677 -0.4103
  269MOL0     H36250   4.367   2.956   0.465  3.3734  0.6122  0.0530
  269MOL0     H36251   4.367   3.097   0.359 -0.4623  1.0798 -0.1544
  269MOL0     H36252   4.141   2.993   0.383 -0.1801 -1.6767  1.6715
  269MOL0     H36253   4.194   2.992   0.215  1.9543 -0.2656 -0.5346
  269MOL0     H36254   4.262   2.752   0.244  1.6475  1.3202  0.3067
  269MOL0     H36255   4.213   2.753   0.413 -1.6757  0.3558  0.8606
  269MOL0     H36256   3.964   2.840   0.322 -2.1791  0.0660 -3.8971
  269MOL0     H36257   4.038   2.764   0.176  1.8581 -2.1467  0.0397
  269MOL0     H36258   4.062   2.560   0.260 -2.1585 -0.5350  0.9057
  269MOL0     H36259   4.050   2.610   0.426  1.9658 -0.3932 -0.1275
  269MOL0     H36260   3.797   2.668   0.388 -2.6362 -1.2988 -0.2856
  269MOL0     H36261   3.812   2.624   0.219 -0.7978  1.0060 -0.0495
  269MOL0     H36262   3.901   2.391   0.332 -3.2743 -1.8551 -0.9268
  269MOL0     H36263   3.835   2.459   0.485  3.9479  2.1952  0.0334
  269MOL0     H36264   3.718   2.285   0.364  2.9052  0.6788 -0.3849
  269MOL0     H36265   3.714   2.365   0.215  0.7737 -0.1777  0.1384
  269MOL0     H36266   3.614   2.560   0.555  0.9182  2.7603 -2.4675
  269MOL0     H36267   3.256   2.711   0.489 -0.1123 -0.0625  1.0778
  269MOL0     H36268   3.325   2.630   0.626  0.5311  1.1604  0.4904
  269MOL0     H36269   3.344   2.895   0.566 -0.1733  0.2150  0.8112
  269MOL0     H36270   3.495   2.851   0.502 -0.8123  0.3082 -0.2500
  269MOL0     H36271   3.419   2.780   0.793 -0.9011  1.3467 -0.0459
  269MOL0     H36272   3.500   2.927   0.752  2.2736 -0.6783  2.0846
  269MOL0     H36273   3.589   2.641   0.732  1.1475 -0.6255  1.0191
  269MOL0     H36274   3.641   2.759   0.845 -3.3421 -2.8225  1.5835
  269MOL0     H36275   3.817   2.573   0.769  1.6372 -1.1541 -0.2665
  269MOL0     H36276   3.964   2.412   0.823 -1.0803  1.4691  0.9736
  269MOL0     H36277   4.106   2.431   0.714 -1.0817 -1.6030  0.0212
  269MOL0     H36278   4.116   2.486   0.885 -0.2321  2.6777  0.2916
  269MOL0     H36279   4.497   2.716   1.038 -0.4619 -0.7967 -0.7069
  269MOL0     H36280   4.723   2.599   1.027 -1.5292  2.5537  2.9434
  269MOL0     H36281   4.745   2.179   0.895  0.5233 -1.0582  1.7009
  269MOL0     H36282   4.819   2.262   0.773  1.2823 -2.5169 -0.4305
  269MOL0     H36283   4.982   2.124   0.891 -2.1205  1.0035 -1.1215
  269MOL0     H36284   5.029   2.291   0.885  1.0605 -2.7483 -1.4531
  269MOL0     H36285   5.021   2.121   1.111  2.2204  0.3734 -1.0491
  269MOL0     H36286   4.876   2.220   1.140 -1.1010 -0.3501 -0.8719
  269MOL0     H36287   5.163   2.318   1.091 -0.3247 -0.3806 -0.2905
  269MOL0     H36288   5.021   2.424   1.105 -0.9546 -1.0923 -0.2564
  269MOL0     H36289   5.107   2.237   1.330  0.3061 -1.9436 -1.9809
  269MOL0     H36290   4.974   2.352   1.329  2.2110  0.9281  3.3876
  269MOL0     H36291   5.145   2.543   1.297  1.8373  0.1608 -0.1857
  269MOL0     H36292   5.137   2.469   1.451 -1.0740 -1.3026 -0.6128
  269MOL0     H36293   5.335   2.391   1.229 -1.8756 -0.6654  0.5381
  269MOL0     H36294   5.332   2.335   1.405 -2.7083  0.2002  0.8122
  269MOL0     H36295   5.341   2.571   1.474  0.7693  3.0767 -1.0123
  269MOL0     H36296   5.382   2.618   1.311 -0.3007  0.0233 -0.4264
  269MOL0     H36297   4.576   2.280   0.800 -1.7657 -2.6035  2.8878
  269MOL0     H36298   4.341   2.422   0.777 -1.0559  0.3548  0.8105
  269MOL0     H36299   4.145   2.915   0.632  2.9472 -2.7451  0.4747
  269MOL0     H36300   3.896   2.945   0.595 -1.4698 -0.0219 -0.4929
  269MOL0     H36301   4.585   3.132   0.399  0.1483 -1.4286  2.2413
  269MOL0     H36302   4.817   3.136   0.429  0.5464 -0.5554  0.7027
  269MOL0     H36303   5.207   2.763   0.389  0.1467  0.8188 -0.5087
  269MOL0     H36304   5.457   2.718   0.462  2.8374  1.7771  2.4276
  269MOL0     H36305   5.667   3.025   0.671  1.5489  0.2191  2.2743
  269MOL0     H36306   5.788   2.899   0.685 -1.1793  0.3749  0.6952
  269MOL0     H36307   5.844   3.021   0.489 -0.0886 -0.9441 -1.0827
  269MOL0     H36308   5.685   3.000   0.426  0.1535 -0.2628 -0.7250
  269MOL0     H36309   5.757   2.725   0.459  0.6096 -1.2972 -0.8054
  269MOL0     H36310   5.916   2.800   0.471  0.4869  0.5352  0.0444
  269MOL0     H36311   5.893   2.913   0.256  0.0194  0.0722 -1.1915
  269MOL0     H36312   5.734   2.862   0.237 -0.7423 -0.6148  0.9009
  269MOL0     H36313   5.960   2.509   0.130  0.4606 -0.3376 -0.0835
  269MOL0     H36314   5.438   3.057   0.718  1.1821 -1.2682  0.9160
  269MOL0     H36315   5.225   3.127   0.628 -2.5958 -1.7198  0.6264
  270MOL0     O36316   8.691   2.116   8.730  0.0141  0.3039 -0.0816
  270MOL0     C36317   8.575   2.091   8.759 -0.1744  0.5712 -0.0643
  270MOL0     O36318   8.521   2.112   8.883 -0.1973  0.3560 -0.1173
  270MOL0     C36319   8.588   2.190   8.969  0.4924  0.3673 -0.4547
  270MOL0     C36320   8.624   2.134   9.098 -0.1316 -0.0560 -0.0955
  270MOL0     C36321   8.675   2.213   9.199 -0.3555 -0.8471 -0.1089
  270MOL0     C36322   8.682   2.357   9.183 -0.6922 -0.4261 -0.2737
  270MOL0     O36323   8.726   2.441   9.282  0.7550 -0.0494  0.2733
  270MOL0     C36324   8.826   2.383   9.367 -0.5122 -1.0853 -1.1265
  270MOL0     C36325   8.902   2.484   9.462 -0.0923  0.9475  0.5796
  270MOL0     C36326   8.816   2.535   9.575 -0.8399  0.7480 -0.1386
  270MOL0     C36327   8.879   2.659   9.647 -0.2818  0.1131 -0.0637
  270MOL0     C36328   8.809   2.702   9.772 -0.7497  0.6865 -1.2697
  270MOL0     C36329   8.664   2.762   9.746 -0.0158  0.4354 -0.5611
  270MOL0     C36330   8.579   2.783   9.874 -0.3076  0.2647 -0.3413
  270MOL0     C36331   8.450   2.875   9.846 -0.4645 -0.3801  0.1561
  270MOL0     N36332   8.357   2.873   9.967  0.2135 -0.2893  1.1439
  270MOL0     C36333   8.347   2.982  10.058 -0.0301  0.4594  0.0197
  270MOL0     C36334   8.249   2.951  10.141  0.6661  0.0418 -0.4678
  270MOL0     C36335   8.181   3.037  10.245 -0.3647  0.3879 -0.3967
  270MOL0     C36336   8.029   3.063  10.209  0.4204  0.5452 -0.5742
  270MOL0     C36337   8.030   3.138  10.076  1.2337 -0.3784  0.3042
  270MOL0     C36338   7.885   3.139  10.031  0.3283 -0.5000  0.5753
  270MOL0     O36339   7.873   3.182   9.893  1.1330 -0.1532 -0.8316
  270MOL0     C36340   7.743   3.173   9.836  0.2340  0.3774  0.1247
  270MOL0     C36341   7.620   3.152   9.903  0.8489  0.2196  0.2899
  270MOL0     C36342   7.493   3.156   9.840 -0.3440  0.5492  0.1911
  270MOL0     C36343   7.368   3.154   9.937  0.1595 -0.2570 -0.8366
  270MOL0     C36344   7.492   3.170   9.703  0.1417 -0.3163 -0.3231
  270MOL0     C36345   7.356   3.156   9.632 -0.4662  0.5843 -0.0980
  270MOL0     O36346   7.246   3.122   9.705  0.3611  0.4017  0.0823
  270MOL0     C36347   7.109   3.118   9.655 -0.1129  0.6920 -0.4328
  270MOL0     C36348   7.046   3.214   9.571  1.1435  0.3355 -0.2105
  270MOL0     C36349   6.910   3.205   9.543  0.1348  0.1227 -0.5561
  270MOL0     C36350   6.838   3.097   9.587  0.0397 -0.1504  0.0578
  270MOL0     O36351   6.705   3.065   9.560 -1.1094 -0.2847  0.3374
  270MOL0     C36352   6.602   3.160   9.589  0.1295 -0.2971 -0.1076
  270MOL0     C36353   6.464   3.118   9.539  0.2460 -0.6941 -0.6336
  270MOL0     C36354   6.448   3.140   9.392  0.0649  0.3281 -0.3076
  270MOL0     C36355   6.308   3.120   9.341  0.0509 -0.6387 -0.4434
  270MOL0     C36356   6.293   3.150   9.191 -0.4408  0.2952 -0.7166
  270MOL0     C36357   6.148   3.148   9.151 -0.2434  0.1818 -0.2403
  270MOL0     C36358   6.078   3.011   9.194 -0.5596  0.2798  0.0930
  270MOL0     C36359   5.937   3.005   9.147  1.1508  0.1781  0.4001
  270MOL0    Cl36360   5.887   2.834   9.169  0.2463  0.0108 -0.4111
  270MOL0     C36361   6.896   3.009   9.670 -0.7937  0.8769 -0.3902
  270MOL0     C36362   7.034   3.014   9.708  0.0529 -0.1260 -0.8599
  270MOL0     O36363   7.339   3.176   9.514 -0.0580  0.2872 -0.6161
  270MOL0     C36364   7.612   3.184   9.628  0.0606 -0.6544 -0.6842
  270MOL0     C36365   7.738   3.190   9.693 -0.2299  0.0141 -0.3541
  270MOL0     N36366   8.197   2.830  10.096  0.5517  0.8892  0.2883
  270MOL0     N36367   8.256   2.790   9.985 -0.0650  0.6900 -0.5241
  270MOL0     C36368   8.638   2.415   9.055  0.6030 -0.1739 -0.5470
  270MOL0     C36369   8.596   2.331   8.948 -0.0157 -0.2985  0.6346
  270MOL0     C36370   8.480   2.023   8.663 -0.5066 -0.3495  0.3445
  270MOL0     C36371   8.354   1.975   8.708 -0.1980  0.2025  0.3058
  270MOL0     C36372   8.267   1.906   8.621  0.8745 -0.3428 -0.2713
  270MOL0     C36373   8.298   1.879   8.491  0.7788  0.0515 -0.2568
  270MOL0     O36374   8.228   1.796   8.406  0.1557 -0.1751  0.6729
  270MOL0     C36375   8.087   1.764   8.426  0.4188 -0.1189 -0.4708
  270MOL0     C36376   8.021   1.736   8.285  0.7763  0.4721 -0.8849
  270MOL0     C36377   8.040   1.853   8.198 -0.2562 -0.3320 -0.9361
  270MOL0     C36378   7.970   1.838   8.064 -0.2749  0.3340  0.6540
  270MOL0     C36379   7.833   1.803   8.071  0.6256  0.2391 -0.0956
  270MOL0     C36380   7.712   1.784   8.092  0.6725 -0.0649 -0.0663
  270MOL0     C36381   8.422   1.918   8.450 -0.1221  0.2125 -0.7229
  270MOL0     C36382   8.510   1.985   8.528 -0.4756  0.4463 -0.3986
  270MOL0     H36383   8.607   2.027   9.106 -0.6011 -0.2112 -2.4654
  270MOL0     H36384   8.701   2.161   9.291 -1.8508 -1.2097  0.1297
  270MOL0     H36385   8.785   2.318   9.444  0.1328  0.9353  1.0214
  270MOL0     H36386   8.905   2.344   9.302  1.6465 -2.5300  2.0849
  270MOL0     H36387   8.980   2.416   9.497 -1.7048 -1.7143 -0.6154
  270MOL0     H36388   8.951   2.558   9.398  0.2430 -0.7201 -1.2051
  270MOL0     H36389   8.714   2.546   9.536 -0.2495 -1.6484 -2.6220
  270MOL0     H36390   8.797   2.452   9.644 -1.5241 -0.4340 -1.7099
  270MOL0     H36391   8.985   2.642   9.665 -0.4341 -2.0845 -0.7930
  270MOL0     H36392   8.871   2.739   9.573 -3.6152  0.4750  0.5354
  270MOL0     H36393   8.782   2.608   9.820  0.9093  1.2003  0.8570
  270MOL0     H36394   8.871   2.766   9.836 -2.3319  1.2569 -0.2468
  270MOL0     H36395   8.672   2.843   9.673 -1.1779  0.4429 -0.7063
  270MOL0     H36396   8.608   2.684   9.693  0.1009 -1.5560  2.0542
  270MOL0     H36397   8.540   2.689   9.915  3.4079 -1.8691 -1.2818
  270MOL0     H36398   8.645   2.827   9.950  2.2931 -1.1254 -1.6927
  270MOL0     H36399   8.390   2.831   9.765  0.7723 -5.2329  1.5467
  270MOL0     H36400   8.480   2.977   9.818  0.7218 -0.9379 -0.6992
  270MOL0     H36401   8.414   3.067  10.060 -0.8800  1.1523  2.0992
  270MOL0     H36402   8.178   2.988  10.343 -2.9383  0.8954 -0.1607
  270MOL0     H36403   8.232   3.133  10.258 -1.4566  0.8285  0.7970
  270MOL0     H36404   8.001   3.124  10.295 -0.1988 -1.8760  1.0366
  270MOL0     H36405   7.976   2.968  10.197  1.4743 -0.2822  1.0154
  270MOL0     H36406   8.087   3.090   9.997  1.3460 -1.7653  1.2000
  270MOL0     H36407   8.062   3.241  10.094 -1.4073  0.5043  0.4506
  270MOL0     H36408   7.827   3.210  10.090 -0.0568 -1.1229  0.9578
  270MOL0     H36409   7.838   3.041  10.044 -2.3004  0.6618  0.3655
  270MOL0     H36410   7.631   3.135  10.009  3.1257  0.8762  0.2012
  270MOL0     H36411   7.311   3.061   9.925 -2.1058  0.7520  1.4227
  270MOL0     H36412   7.406   3.168  10.039  2.1356  0.7660 -1.6566
  270MOL0     H36413   7.290   3.230   9.934 -0.6646 -1.0320  0.0714
  270MOL0     H36414   7.094   3.306   9.540 -0.0027  1.2006  0.5429
  270MOL0     H36415   6.876   3.290   9.485 -0.3331  1.6750  1.8467
  270MOL0     H36416   6.597   3.183   9.696  0.4943  2.9135 -0.6537
  270MOL0     H36417   6.630   3.256   9.544  2.4383 -0.1658  1.4132
  270MOL0     H36418   6.448   3.012   9.561 -2.5006  0.3204  3.5598
  270MOL0     H36419   6.386   3.180   9.584 -1.1058 -1.5309 -1.7592
  270MOL0     H36420   6.511   3.072   9.333 -0.6154  0.7522 -1.5606
  270MOL0     H36421   6.494   3.233   9.357  0.8005  0.2188  0.3271
  270MOL0     H36422   6.274   3.017   9.354 -0.2084 -0.7275 -1.7014
  270MOL0     H36423   6.238   3.182   9.399  3.6790  2.1007  1.4189
  270MOL0     H36424   6.352   3.075   9.136 -0.9744 -1.0089  0.4193
  270MOL0     H36425   6.323   3.253   9.170 -3.3337  1.5866  0.9164
  270MOL0     H36426   6.092   3.228   9.200  1.1906  1.8968 -1.2607
  270MOL0     H36427   6.138   3.165   9.044 -1.0062 -1.2441 -0.4171
  270MOL0     H36428   6.080   2.998   9.302 -2.2461 -3.3472 -0.1927
  270MOL0     H36429   6.131   2.929   9.145 -3.2870 -2.0618  0.8399
  270MOL0     H36430   5.866   3.056   9.213  2.9233 -0.9312  3.3899
  270MOL0     H36431   5.906   3.038   9.048 -3.6474  0.5640  1.7778
  270MOL0     H36432   6.828   2.933   9.709 -1.8665  0.7044 -2.4709
  270MOL0     H36433   7.072   2.941   9.779  2.9076  1.4772 -0.5992
  270MOL0     H36434   7.612   3.197   9.520  0.5422  1.0916 -0.4936
  270MOL0     H36435   7.827   3.191   9.632 -0.3943 -2.0787 -0.7014
  270MOL0     H36436   8.636   2.523   9.040 -1.7086 -0.4858 -3.4590
  270MOL0     H36437   8.555   2.378   8.859  0.1175 -1.2024  0.0842
  270MOL0     H36438   8.326   1.992   8.811  1.7505  0.0310  0.8940
  270MOL0     H36439   8.168   1.874   8.651 -1.2280  2.7269 -3.1364
  270MOL0     H36440   8.094   1.675   8.489 -1.6421 -0.9919 -1.3989
  270MOL0     H36441   8.031   1.844   8.475  2.6364 -0.0262  2.1463
  270MOL0     H36442   7.916   1.717   8.310  1.3496 -3.8363 -0.9214
  270MOL0     H36443   8.057   1.648   8.230 -1.2217 -0.0937 -1.3481
  270MOL0     H36444   8.149   1.864   8.193 -0.0359  1.3897  3.6361
  270MOL0     H36445   7.996   1.942   8.244  0.7533  2.1999 -4.4531
  270MOL0     H36446   8.029   1.768   8.003  0.4615  2.0362 -0.6892
  270MOL0     H36447   7.983   1.935   8.014  0.5581  0.7813  1.7094
  270MOL0     H36448   7.613   1.747   8.105  1.1011 -1.3731 -0.4260
  270MOL0     H36449   8.456   1.879   8.355 -1.0223 -2.6298  0.0040
  270MOL0     H36450   8.612   2.005   8.498  0.4096 -1.1185  1.3464
  271MOL0     O36451   6.253   6.354   5.477 -0.0132  0.0330  0.2677
  271MOL0     C36452   6.310   6.278   5.401  0.4800 -0.4941  0.6033
  271MOL0     O36453   6.247   6.191   5.312 -0.2393 -0.2113  0.1390
  271MOL0     C36454   6.109   6.178   5.312 -1.0100 -0.5803  0.3136
  271MOL0     C36455   6.029   6.184   5.429  0.5921  0.4867  0.5002
  271MOL0     C36456   5.886   6.179   5.417  0.2451 -0.5174  0.4923
  271MOL0     C36457   5.830   6.166   5.288 -0.0075 -0.4485 -1.3183
  271MOL0     O36458   5.696   6.136   5.292 -0.3853 -0.0626  0.4280
  271MOL0     C36459   5.612   6.243   5.241  0.0353 -0.0354  0.0639
  271MOL0     C36460   5.470   6.194   5.202  0.2877  0.1678 -1.1916
  271MOL0     C36461   5.379   6.161   5.329 -0.4127  0.6747  0.6641
  271MOL0     C36462   5.279   6.048   5.289 -0.1215 -1.0635  0.2498
  271MOL0     C36463   5.147   6.106   5.232  0.2326  0.4177  0.8523
  271MOL0     C36464   5.158   6.163   5.081 -0.4670  0.7489 -0.0759
  271MOL0     C36465   5.038   6.132   4.990 -0.6073 -0.1801  0.2900
  271MOL0     C36466   4.906   6.168   5.062  0.8390  0.9050 -0.1061
  271MOL0     N36467   4.806   6.185   4.959  0.8862 -0.3664  0.0406
  271MOL0     C36468   4.808   6.255   4.836  0.3051  0.2263 -0.1062
  271MOL0     C36469   4.680   6.275   4.805 -0.7035  0.9839  0.0039
  271MOL0     C36470   4.611   6.365   4.704  0.4066  0.9054 -0.1172
  271MOL0     C36471   4.477   6.308   4.647  0.6306  0.3333 -0.0661
  271MOL0     C36472   4.399   6.410   4.559 -0.3651 -0.7094  0.1919
  271MOL0     C36473   4.255   6.363   4.507 -0.4203 -0.3966  1.0035
  271MOL0     O36474   4.219   6.461   4.412  0.0647  0.0716  0.0387
  271MOL0     C36475   4.080   6.478   4.394 -0.8562 -0.1094 -0.6965
  271MOL0     C36476   3.982   6.378   4.421 -0.4205  0.4621  0.0595
  271MOL0     C36477   3.854   6.398   4.390  0.5643 -1.1159  0.1497
  271MOL0     C36478   3.757   6.287   4.415  0.5417  0.8713 -0.6857
  271MOL0     C36479   3.811   6.536   4.350  0.2705 -0.2859  0.1396
  271MOL0     C36480   3.666   6.586   4.339 -0.3505  0.6260  0.4582
  271MOL0     O36481   3.646   6.716   4.328  0.3890  0.7375 -0.3450
  271MOL0     C36482   3.520   6.764   4.314 -0.7930 -0.0193  0.6780
  271MOL0     C36483   3.461   6.774   4.195  0.2824  0.0878 -0.1951
  271MOL0     C36484   3.336   6.837   4.188 -0.2122  0.9682 -0.5675
  271MOL0     C36485   3.263   6.878   4.303 -0.2216  0.3655 -1.1492
  271MOL0     O36486   3.138   6.930   4.314 -0.4082 -0.2842 -0.1581
  271MOL0     C36487   3.066   6.949   4.191 -0.6101  0.4248 -0.1911
  271MOL0     C36488   2.994   6.821   4.153 -0.1474 -0.0079  0.4446
  271MOL0     C36489   2.943   6.822   4.012 -0.2437 -0.1400  0.5572
  271MOL0     C36490   2.927   6.681   3.943 -0.7011 -0.4612  0.6021
  271MOL0     C36491   2.859   6.568   4.030 -1.2425 -1.2472 -0.1413
  271MOL0     C36492   2.881   6.434   3.973  0.7055 -1.7121  0.6992
  271MOL0     C36493   2.785   6.404   3.861  0.0798  0.1468  1.1226
  271MOL0     C36494   2.858   6.398   3.729  0.5968 -0.4080  0.7061
  271MOL0    Cl36495   2.927   6.238   3.716  0.3124 -0.5264 -0.0287
  271MOL0     C36496   3.324   6.834   4.427 -0.1126 -0.4707 -0.4297
  271MOL0     C36497   3.454   6.787   4.435 -0.4241 -0.6239 -0.5157
  271MOL0     O36498   3.581   6.500   4.333 -0.3750 -0.6181  0.1529
  271MOL0     C36499   3.908   6.632   4.339  0.1817  0.1333 -0.6162
  271MOL0     C36500   4.041   6.602   4.347 -0.6248  0.0595  0.8056
  271MOL0     N36501   4.607   6.196   4.896  0.1206  0.2268  0.2040
  271MOL0     N36502   4.681   6.155   4.993  0.1593 -0.4229  0.3323
  271MOL0     C36503   5.903   6.158   5.176 -0.2481 -0.0443 -0.6810
  271MOL0     C36504   6.041   6.167   5.187  0.6026  0.5694  1.1147
  271MOL0     C36505   6.452   6.275   5.411 -0.3064 -0.8704 -0.2398
  271MOL0     C36506   6.516   6.376   5.498 -0.1901  0.4359  1.0560
  271MOL0     C36507   6.652   6.374   5.519  0.4306  0.4963 -0.2495
  271MOL0     C36508   6.732   6.275   5.457  0.7340  0.4716  0.0946
  271MOL0     O36509   6.867   6.260   5.478 -0.2408 -0.3131 -0.2433
  271MOL0     C36510   6.932   6.333   5.585 -0.1726  0.3023  0.2041
  271MOL0     C36511   7.076   6.280   5.599  1.0470 -0.2014  1.1527
  271MOL0     C36512   7.137   6.333   5.732 -0.2844 -0.0348  0.5381
  271MOL0     C36513   7.275   6.284   5.781  0.0335 -0.1791  0.2949
  271MOL0     C36514   7.388   6.288   5.687 -0.1083 -0.0081  0.0055
  271MOL0     C36515   7.479   6.283   5.611 -0.0862 -0.3010 -0.6268
  271MOL0     C36516   6.676   6.182   5.367  0.2720 -0.4279  0.2500
  271MOL0     C36517   6.543   6.184   5.338 -0.9890  0.4906 -0.0624
  271MOL0     H36518   6.075   6.194   5.527  0.1226 -2.4584  1.1216
  271MOL0     H36519   5.828   6.189   5.509 -1.2913  0.1313 -0.5015
  271MOL0     H36520   5.615   6.324   5.315 -1.9663 -1.1300  1.4452
  271MOL0     H36521   5.661   6.279   5.150  0.5347 -0.4504  0.1652
  271MOL0     H36522   5.423   6.268   5.136 -3.5877  1.2664  2.3691
  271MOL0     H36523   5.485   6.107   5.139  0.4450 -0.6505 -0.0513
  271MOL0     H36524   5.449   6.129   5.407  2.7313  3.8881 -0.5775
  271MOL0     H36525   5.332   6.252   5.369  3.6771  3.2858  0.0929
  271MOL0     H36526   5.321   5.971   5.224 -2.2081 -1.6919 -0.4163
  271MOL0     H36527   5.267   5.994   5.384  2.3831  0.2250  1.4137
  271MOL0     H36528   5.078   6.021   5.225 -1.0459  1.4067  1.0223
  271MOL0     H36529   5.102   6.179   5.300  1.9505  2.9208 -0.5585
  271MOL0     H36530   5.175   6.271   5.081  5.4857  0.1608 -0.2116
  271MOL0     H36531   5.241   6.124   5.022 -2.2109 -3.3573 -0.1271
  271MOL0     H36532   5.049   6.180   4.893  0.9864 -0.9085  0.0770
  271MOL0     H36533   5.033   6.024   4.969 -2.4669 -0.1579  0.4208
  271MOL0     H36534   4.902   6.265   5.114 -0.5758  0.9972 -0.3496
  271MOL0     H36535   4.877   6.086   5.129 -0.4165 -1.3871 -3.2281
  271MOL0     H36536   4.887   6.313   4.788 -1.9999  1.8443 -2.2572
  271MOL0     H36537   4.591   6.460   4.754  0.5523  1.2820 -0.7705
  271MOL0     H36538   4.678   6.367   4.618 -0.7294  2.5279 -0.9950
  271MOL0     H36539   4.418   6.288   4.737  2.1125  2.4174  1.4522
  271MOL0     H36540   4.489   6.213   4.593 -1.2277 -0.0603  0.1282
  271MOL0     H36541   4.457   6.439   4.471 -0.6043  1.9752  0.8407
  271MOL0     H36542   4.381   6.501   4.617  0.3317 -1.3426  1.4362
  271MOL0     H36543   4.181   6.356   4.587 -2.1066  1.6693 -0.2602
  271MOL0     H36544   4.271   6.264   4.464 -0.3954 -0.2726  0.7297
  271MOL0     H36545   4.010   6.281   4.461 -0.2937  0.2854 -0.4461
  271MOL0     H36546   3.686   6.282   4.332 -0.8507 -1.0188  0.5448
  271MOL0     H36547   3.811   6.192   4.420 -1.0091  0.0095  0.6122
  271MOL0     H36548   3.689   6.312   4.497 -1.2781  1.7962 -2.3877
  271MOL0     H36549   3.518   6.734   4.111 -0.5593  0.9275 -1.2013
  271MOL0     H36550   3.311   6.851   4.083 -0.3037  1.6825 -0.4536
  271MOL0     H36551   2.988   7.025   4.204 -1.0568  0.0991 -0.8783
  271MOL0     H36552   3.134   6.994   4.119 -0.0886  0.5071  0.3512
  271MOL0     H36553   3.067   6.739   4.152 -1.5931 -1.5062 -4.0143
  271MOL0     H36554   2.925   6.792   4.232  0.0733  2.8090  1.8063
  271MOL0     H36555   3.007   6.880   3.945 -3.5155  1.3702 -1.4755
  271MOL0     H36556   2.846   6.871   4.001  0.6366  1.4882 -0.5070
  271MOL0     H36557   2.863   6.704   3.858  0.2668  3.4605  0.7629
  271MOL0     H36558   3.025   6.659   3.900 -0.7315  3.4831 -2.0324
  271MOL0     H36559   2.755   6.599   4.046 -0.8826  2.1950 -3.0860
  271MOL0     H36560   2.908   6.560   4.127 -0.8687 -0.5683 -0.2634
  271MOL0     H36561   2.982   6.422   3.931 -0.8679 -0.1679 -4.1794
  271MOL0     H36562   2.865   6.358   4.049  1.3326 -0.5431  2.0396
  271MOL0     H36563   2.709   6.482   3.860 -0.6010 -0.5030  0.4067
  271MOL0     H36564   2.734   6.308   3.871  0.0901 -0.0994 -0.7360
  271MOL0     H36565   2.938   6.472   3.716 -0.4463  0.4892 -1.0633
  271MOL0     H36566   2.799   6.415   3.639  2.9944  2.1600 -0.5574
  271MOL0     H36567   3.270   6.862   4.516  1.1216 -1.2861  0.6014
  271MOL0     H36568   3.512   6.794   4.527 -0.2180  0.4142 -0.7114
  271MOL0     H36569   3.894   6.736   4.313 -2.0779  0.0878  0.1933
  271MOL0     H36570   4.117   6.679   4.334  0.1848 -0.5047  2.0011
  271MOL0     H36571   5.857   6.145   5.078  0.7965 -1.1710 -1.0450
  271MOL0     H36572   6.100   6.183   5.097 -1.2413  2.1989  0.1118
  271MOL0     H36573   6.458   6.449   5.554 -1.4658 -1.3011  2.1193
  271MOL0     H36574   6.695   6.459   5.571  1.5205  0.6663 -1.3723
  271MOL0     H36575   6.942   6.439   5.562 -0.6041 -0.0476 -1.8643
  271MOL0     H36576   6.872   6.325   5.676  1.6899 -0.1749  1.4428
  271MOL0     H36577   7.132   6.322   5.515 -0.1362 -1.8757 -0.5687
  271MOL0     H36578   7.085   6.172   5.587  2.4935 -0.0946  1.1089
  271MOL0     H36579   7.069   6.291   5.808 -1.7779  0.5098 -0.4463
  271MOL0     H36580   7.138   6.443   5.737  3.5441  0.0332  4.4316
  271MOL0     H36581   7.261   6.178   5.806 -3.5184  0.3850  1.1279
  271MOL0     H36582   7.295   6.361   5.856 -0.3575  2.5814 -2.2534
  271MOL0     H36583   7.562   6.313   5.550  0.8298  1.0216  1.1622
  271MOL0     H36584   6.747   6.118   5.316  1.9576  0.7401  1.0347
  271MOL0     H36585   6.501   6.110   5.271  3.2919  0.8549 -3.6202
  272MOL0     O36586   2.059   3.713   1.183 -0.3059  0.6165 -0.0866
  272MOL0     C36587   2.116   3.752   1.281  0.0126  0.0529 -0.5234
  272MOL0     O36588   2.068   3.764   1.403 -0.1191  0.3284 -0.2702
  272MOL0     C36589   1.940   3.792   1.442  0.9898 -0.0306 -0.6746
  272MOL0     C36590   1.869   3.901   1.387 -0.3805  1.6089  0.4652
  272MOL0     C36591   1.730   3.910   1.410 -0.3255  0.0971 -0.1324
  272MOL0     C36592   1.660   3.831   1.490 -0.0608  0.0395 -0.3408
  272MOL0     O36593   1.526   3.850   1.517  0.4303 -0.5714 -0.5756
  272MOL0     C36594   1.443   3.741   1.498 -0.1881 -0.4629  0.3758
  272MOL0     C36595   1.303   3.765   1.558 -0.7439 -0.1974  0.7858
  272MOL0     C36596   1.208   3.648   1.536 -0.5746 -0.5400  0.8485
  272MOL0     C36597   1.062   3.673   1.585  0.1549 -0.8693  0.3531
  272MOL0     C36598   0.969   3.548   1.591  0.6251  0.3752 -0.0165
  272MOL0     C36599   0.839   3.601   1.643  0.7416 -0.0664 -0.2341
  272MOL0     C36600   0.720   3.503   1.646  0.1487  0.4877  0.7681
  272MOL0     C36601   0.645   3.509   1.501  0.5782 -0.3559 -0.1985
  272MOL0     N36602   0.526   3.433   1.519  0.4997 -0.0333 -0.0800
  272MOL0     C36603   0.523   3.301   1.539 -0.6604  0.6261  0.5301
  272MOL0     C36604   0.390   3.262   1.516 -0.5612  0.1496  0.0263
  272MOL0     C36605   0.332   3.122   1.508 -0.0493  0.5551  0.6518
  272MOL0     C36606   0.282   3.076   1.644 -0.1466 -0.2335 -0.2156
  272MOL0     C36607   0.171   3.169   1.700  0.6477 -0.2112  0.6291
  272MOL0     C36608   0.142   3.141   1.852  0.1170 -0.2171 -0.5830
  272MOL0     O36609   0.104   3.006   1.873  0.2045 -0.3923 -0.2750
  272MOL0     C36610  -0.027   2.981   1.895  0.0487 -0.9221 -0.0857
  272MOL0     C36611  -0.115   2.968   1.784 -0.1502 -0.1612  0.5392
  272MOL0     C36612  -0.253   2.941   1.809  0.0115  0.3313  0.2606
  272MOL0     C36613  -0.333   2.907   1.681  0.4617 -0.3295 -0.5082
  272MOL0     C36614  -0.301   2.935   1.943 -0.5488 -0.3828  0.4102
  272MOL0     C36615  -0.439   2.919   1.976  0.7550  0.0691 -0.1274
  272MOL0     O36616  -0.535   2.961   1.884 -0.4314 -0.0508  0.3378
  272MOL0     C36617  -0.670   2.960   1.929 -0.2952 -0.7397 -0.0157
  272MOL0     C36618  -0.739   3.075   1.976 -0.6856 -0.1630 -1.5564
  272MOL0     C36619  -0.865   3.061   2.030  0.3901  0.0222  0.6757
  272MOL0     C36620  -0.923   2.932   2.055  0.7821  0.5693 -0.0416
  272MOL0     O36621  -1.049   2.913   2.092  0.5303  0.4086  0.2228
  272MOL0     C36622  -1.089   2.965   2.216 -0.6961 -0.0704  0.6248
  272MOL0     C36623  -1.203   3.066   2.206 -0.0410 -0.3294  0.1369
  272MOL0     C36624  -1.196   3.169   2.325 -0.8171 -0.3562  0.2376
  272MOL0     C36625  -1.325   3.257   2.325  1.1038  0.4138  0.0189
  272MOL0     C36626  -1.322   3.330   2.456 -0.8328 -0.0992 -1.3971
  272MOL0     C36627  -1.453   3.404   2.476 -0.4763  0.2198 -0.6619
  272MOL0     C36628  -1.482   3.495   2.352 -0.0168 -0.6376  0.1949
  272MOL0     C36629  -1.617   3.560   2.374 -0.1866  0.6988 -0.4384
  272MOL0    Cl36630  -1.748   3.444   2.426 -0.1328  0.0590 -0.3969
  272MOL0     C36631  -0.858   2.820   2.007 -0.7512 -0.7506  0.1996
  272MOL0     C36632  -0.730   2.835   1.952  0.5167 -0.2911  0.4698
  272MOL0     O36633  -0.465   2.849   2.068  0.5598 -0.2218 -0.5622
  272MOL0     C36634  -0.212   2.955   2.051 -0.3812  0.7436 -1.0290
  272MOL0     C36635  -0.069   2.974   2.024  0.3052  0.0989  0.0404
  272MOL0     N36636   0.325   3.379   1.481 -0.4764 -0.9389 -1.0243
  272MOL0     N36637   0.404   3.482   1.492 -0.4036 -0.6659 -0.2285
  272MOL0     C36638   1.732   3.716   1.547  0.4177 -0.9720 -0.7148
  272MOL0     C36639   1.865   3.694   1.527 -0.7276 -0.7573  0.8014
  272MOL0     C36640   2.256   3.778   1.274 -0.2997 -0.2435  0.2371
  272MOL0     C36641   2.344   3.723   1.178  0.6240  0.3115 -0.6350
  272MOL0     C36642   2.480   3.760   1.176  0.4361 -0.1014  0.1754
  272MOL0     C36643   2.527   3.865   1.249 -0.1928 -0.2176 -1.4133
  272MOL0     O36644   2.649   3.920   1.252 -0.4154  0.2337  0.5897
  272MOL0     C36645   2.731   3.882   1.137 -0.8063  0.5840  0.6881
  272MOL0     C36646   2.846   3.977   1.142 -0.1708  0.1092  0.8056
  272MOL0     C36647   2.932   3.956   1.261 -0.5508 -0.4421  0.2240
  272MOL0     C36648   3.044   4.058   1.264 -0.1876 -0.1391  0.0999
  272MOL0     C36649   3.149   3.997   1.338 -0.1066 -0.1916 -0.0494
  272MOL0     C36650   3.234   3.953   1.407 -0.5127  0.4631 -0.0284
  272MOL0     C36651   2.446   3.906   1.355 -0.4813  0.0825  0.6720
  272MOL0     C36652   2.312   3.882   1.354 -0.7259 -1.1911  0.4702
  272MOL0     H36653   1.918   3.966   1.315  1.0584 -0.9562 -1.0112
  272MOL0     H36654   1.687   4.000   1.367 -0.0323  0.7363  0.8767
  272MOL0     H36655   1.442   3.710   1.393  3.7347  0.6314 -0.1290
  272MOL0     H36656   1.476   3.650   1.550  0.2635 -0.2657  0.4371
  272MOL0     H36657   1.312   3.782   1.665 -3.4189 -0.3771  1.0968
  272MOL0     H36658   1.260   3.851   1.505  0.6550  0.2783  0.3439
  272MOL0     H36659   1.206   3.631   1.428 -0.7475 -0.5253  0.8490
  272MOL0     H36660   1.246   3.560   1.589 -0.2321 -0.4924  0.6837
  272MOL0     H36661   1.073   3.711   1.687  0.1816  2.4285 -0.7516
  272MOL0     H36662   1.017   3.744   1.515  0.0712 -1.2100  0.0618
  272MOL0     H36663   0.957   3.500   1.494 -0.6473 -0.1031  0.3581
  272MOL0     H36664   1.010   3.482   1.668 -0.4609  1.6613  1.7388
  272MOL0     H36665   0.863   3.638   1.743  3.4703 -1.3045 -0.3365
  272MOL0     H36666   0.811   3.692   1.590 -1.7540 -0.5775  0.0722
  272MOL0     H36667   0.752   3.399   1.663 -1.1710 -0.2491 -1.0024
  272MOL0     H36668   0.654   3.532   1.728 -0.2440 -1.6342  1.2761
  272MOL0     H36669   0.706   3.471   1.418  1.9940  0.3197  0.5053
  272MOL0     H36670   0.620   3.615   1.488  0.7992 -0.5848 -3.3451
  272MOL0     H36671   0.611   3.242   1.562 -0.7930  0.5338  0.7976
  272MOL0     H36672   0.257   3.117   1.428  2.6660 -3.1134 -2.0535
  272MOL0     H36673   0.412   3.055   1.474  0.0170  2.0260 -2.4982
  272MOL0     H36674   0.365   3.070   1.715  0.2771  1.5665 -0.5239
  272MOL0     H36675   0.235   2.977   1.638  2.3770 -1.4537 -2.4436
  272MOL0     H36676   0.083   3.170   1.634  1.2457  0.1990 -0.1687
  272MOL0     H36677   0.215   3.267   1.683 -0.5124  0.4656  1.3575
  272MOL0     H36678   0.063   3.212   1.881  0.0023 -0.5713 -0.0118
  272MOL0     H36679   0.223   3.171   1.920 -0.3851  1.6003 -0.7308
  272MOL0     H36680  -0.085   2.956   1.681 -0.6784  1.3230  0.1860
  272MOL0     H36681  -0.412   2.834   1.699  0.3551  0.3643  2.2056
  272MOL0     H36682  -0.390   2.997   1.657 -2.3173 -1.5953  0.8741
  272MOL0     H36683  -0.266   2.873   1.601  0.4969 -0.4675 -0.4222
  272MOL0     H36684  -0.684   3.169   1.978  1.3440 -1.2160  2.4408
  272MOL0     H36685  -0.927   3.147   2.053  0.7043  0.8568 -1.3226
  272MOL0     H36686  -1.140   2.880   2.262 -0.0767 -1.5495 -1.2749
  272MOL0     H36687  -1.000   3.005   2.266  0.7788  0.6365 -2.3295
  272MOL0     H36688  -1.207   3.121   2.112 -3.7706  1.5324  1.2134
  272MOL0     H36689  -1.296   3.008   2.203  0.1975 -0.7231 -2.7781
  272MOL0     H36690  -1.106   3.231   2.329 -1.8026  1.0632  2.0090
  272MOL0     H36691  -1.200   3.105   2.414  1.1156 -1.4277 -0.4088
  272MOL0     H36692  -1.325   3.326   2.240  0.1118  1.3726  0.7661
  272MOL0     H36693  -1.413   3.193   2.318  0.4958  0.8807  2.5463
  272MOL0     H36694  -1.238   3.400   2.464 -1.4396  0.4101  1.7456
  272MOL0     H36695  -1.306   3.268   2.545  1.2877 -1.1000 -2.4156
  272MOL0     H36696  -1.535   3.333   2.490 -0.0586  0.0845  1.4198
  272MOL0     H36697  -1.444   3.461   2.569  0.7255 -0.5680 -0.2688
  272MOL0     H36698  -1.496   3.437   2.260  0.5156 -0.1161 -0.2156
  272MOL0     H36699  -1.394   3.559   2.339  0.2655 -1.3662 -1.9095
  272MOL0     H36700  -1.652   3.621   2.290  0.8045  3.0531  0.7773
  272MOL0     H36701  -1.597   3.636   2.449  3.4231 -0.0988 -0.3903
  272MOL0     H36702  -0.903   2.722   2.009 -0.0102 -1.1336 -0.9518
  272MOL0     H36703  -0.675   2.748   1.918  1.5256  0.1954  0.8079
  272MOL0     H36704  -0.243   2.928   2.151  0.3900  1.0400 -0.7050
  272MOL0     H36705  -0.007   2.984   2.113  1.2000 -0.9210 -0.4368
  272MOL0     H36706   1.685   3.643   1.613 -2.3993 -1.6267 -3.1948
  272MOL0     H36707   1.908   3.603   1.568 -0.3216 -0.4313  1.1102
  272MOL0     H36708   2.306   3.650   1.107 -1.4137 -0.2119  0.9082
  272MOL0     H36709   2.544   3.718   1.099 -0.8277 -1.7489 -0.0289
  272MOL0     H36710   2.768   3.779   1.144  0.9295  1.1980  0.9333
  272MOL0     H36711   2.683   3.895   1.040  1.7213 -1.9018 -1.0282
  272MOL0     H36712   2.813   4.081   1.131  0.1938  0.0739 -0.9345
  272MOL0     H36713   2.912   3.960   1.055 -1.1454 -0.1585  0.1028
  272MOL0     H36714   2.972   3.855   1.271 -0.5644 -0.4301  0.4195
  272MOL0     H36715   2.860   3.980   1.340 -1.2747  0.4794 -0.6834
  272MOL0     H36716   3.004   4.143   1.319  0.9749 -0.6608  1.8272
  272MOL0     H36717   3.075   4.084   1.162  0.8814  0.2266  0.5033
  272MOL0     H36718   3.313   3.924   1.473  0.5918  1.9549 -0.6308
  272MOL0     H36719   2.495   3.975   1.423  0.4895 -0.0293  0.1043
  272MOL0     H36720   2.248   3.935   1.424  2.1009  1.3847  1.2919
  273MOL0     O36721  11.015  10.555   9.954 -0.2148  0.4653  0.1651
  273MOL0     C36722  11.000  10.442   9.906 -0.0020  0.3946 -0.6410
  273MOL0     O36723  10.887  10.390   9.849  0.0564 -0.4723  0.0695
  273MOL0     C36724  10.756  10.424   9.887 -0.2083  0.2579 -1.1495
  273MOL0     C36725  10.652  10.335   9.854 -0.9833 -0.9533 -0.1230
  273MOL0     C36726  10.522  10.367   9.885  0.5079  0.0602 -1.1617
  273MOL0     C36727  10.495  10.489   9.949 -0.2635 -0.9525  0.5056
  273MOL0     O36728  10.373  10.536   9.980 -0.1733 -0.2403 -0.0405
  273MOL0     C36729  10.268  10.442   9.994 -0.6169 -0.1036  0.5030
  273MOL0     C36730  10.145  10.515  10.046 -0.6952 -0.4036 -0.1676
  273MOL0     C36731  10.020  10.423  10.058 -0.0958  0.0384 -0.2864
  273MOL0     C36732   9.888  10.501  10.091 -0.4229 -0.0385  0.0577
  273MOL0     C36733   9.754  10.448  10.024 -0.3562  0.0353 -0.9023
  273MOL0     C36734   9.639  10.533  10.087  0.3927  1.0834 -0.2563
  273MOL0     C36735   9.514  10.495  10.003  0.6626  0.6081  0.0768
  273MOL0     C36736   9.391  10.575  10.055 -0.0360 -0.6002  0.0422
  273MOL0     N36737   9.273  10.545   9.979  0.8153 -0.0710  0.2824
  273MOL0     C36738   9.248  10.585   9.850  0.1223 -1.1923  0.2345
  273MOL0     C36739   9.127  10.530   9.818  0.6324 -0.5288 -0.2186
  273MOL0     C36740   9.051  10.540   9.691  0.5664 -0.3297  0.6998
  273MOL0     C36741   8.908  10.606   9.697  0.2646  0.4920 -0.3832
  273MOL0     C36742   8.799  10.498   9.738  0.2090 -0.2436  0.3742
  273MOL0     C36743   8.654  10.559   9.764 -0.0054 -0.0869  0.6506
  273MOL0     O36744   8.566  10.447   9.805  0.2666  0.0457  0.1274
  273MOL0     C36745   8.435  10.471   9.845 -0.5284  0.0754  0.5933
  273MOL0     C36746   8.364  10.395   9.940 -0.8582  0.1370  0.4728
  273MOL0     C36747   8.230  10.423   9.987 -0.8444 -0.1001 -0.7916
  273MOL0     C36748   8.179  10.328  10.102  0.1143  0.1684  0.0405
  273MOL0     C36749   8.159  10.526   9.926  0.3552 -0.0612  0.0123
  273MOL0     C36750   8.019  10.557   9.969  0.4834 -1.1003 -0.2519
  273MOL0     O36751   7.965  10.502  10.073 -0.6542  0.0413 -0.4752
  273MOL0     C36752   7.829  10.501  10.098  0.4848 -0.1282 -0.0823
  273MOL0     C36753   7.788  10.493  10.237  0.4680 -0.5203  0.1727
  273MOL0     C36754   7.651  10.484  10.267 -0.0738 -0.0942 -0.1912
  273MOL0     C36755   7.559  10.496  10.161 -0.4304  0.5528 -0.0685
  273MOL0     O36756   7.425  10.509  10.168  0.3102  0.1461  0.1345
  273MOL0     C36757   7.365  10.523  10.296  0.4082 -0.2170 -0.2564
  273MOL0     C36758   7.211  10.521  10.266 -0.5888  0.1349  0.3642
  273MOL0     C36759   7.146  10.534  10.407 -1.0205 -0.1320  0.9871
  273MOL0     C36760   7.151  10.402  10.494  0.2839 -0.6179 -0.0140
  273MOL0     C36761   7.044  10.387  10.597  0.2446 -0.1686 -0.6423
  273MOL0     C36762   6.917  10.346  10.527 -0.3102 -0.4665 -0.6372
  273MOL0     C36763   6.818  10.279  10.617  0.3659  0.1544  0.0101
  273MOL0     C36764   6.785  10.373  10.742  1.0032  0.5937 -0.0911
  273MOL0    Cl36765   6.651  10.288  10.822 -0.5516 -0.4751  0.0617
  273MOL0     C36766   7.601  10.505  10.027  0.3632  0.0020 -0.4038
  273MOL0     C36767   7.738  10.498   9.994  1.1337 -0.0820  0.0214
  273MOL0     O36768   7.970  10.656   9.914 -0.5414  0.4843  0.1641
  273MOL0     C36769   8.226  10.594   9.826 -0.8974  0.5989  0.3998
  273MOL0     C36770   8.363  10.578   9.783 -0.5598  0.2961 -0.3734
  273MOL0     N36771   9.074  10.478   9.935 -0.0379 -0.4931 -0.6903
  273MOL0     N36772   9.157  10.485  10.033 -0.2240 -0.2583  0.1627
  273MOL0     C36773  10.594  10.576   9.981  0.0890  0.0169 -0.1305
  273MOL0     C36774  10.727  10.548   9.946  0.7221  0.3413 -0.6438
  273MOL0     C36775  11.121  10.353   9.885 -0.8092 -0.7595 -0.3661
  273MOL0     C36776  11.113  10.227   9.818  0.6386 -0.2332  0.8213
  273MOL0     C36777  11.231  10.157   9.806  0.0974  0.2739 -0.5808
  273MOL0     C36778  11.354  10.209   9.855 -0.2785  0.3099  0.0242
  273MOL0     O36779  11.458  10.118   9.846  0.4549  0.1746 -0.0010
  273MOL0     C36780  11.588  10.168   9.888  0.2966 -0.0114 -0.1297
  273MOL0     C36781  11.714  10.087   9.843  0.7196  0.0941  0.8356
  273MOL0     C36782  11.688   9.942   9.898  0.1667  0.3763 -0.3382
  273MOL0     C36783  11.779   9.828   9.847 -0.2639  0.5957 -0.5868
  273MOL0     C36784  11.752   9.708   9.926  0.1535 -0.0339  0.1923
  273MOL0     C36785  11.743   9.607   9.997  0.6103 -0.7443 -0.3934
  273MOL0     C36786  11.358  10.330   9.933 -0.0289  0.6000 -0.7664
  273MOL0     C36787  11.245  10.400   9.938 -0.2672 -0.0480  0.6660
  273MOL0     H36788  10.685  10.248   9.797  0.9662  0.6782 -1.6457
  273MOL0     H36789  10.443  10.299   9.854  1.6098 -0.9903 -1.7526
  273MOL0     H36790  10.233  10.397   9.901 -0.7773 -2.1879  1.5216
  273MOL0     H36791  10.301  10.356  10.052  3.1227  0.8349  0.0600
  273MOL0     H36792  10.174  10.571  10.136 -4.6402  0.1589  0.9616
  273MOL0     H36793  10.122  10.593   9.974 -0.5224  1.0185  1.2648
  273MOL0     H36794   9.998  10.374   9.963 -1.7336 -0.2812  0.2424
  273MOL0     H36795  10.047  10.339  10.122 -0.1504  1.3134  1.4773
  273MOL0     H36796   9.883  10.529  10.196  1.4988  2.6463 -0.4597
  273MOL0     H36797   9.914  10.592  10.037  0.5546  1.8659  3.4617
  273MOL0     H36798   9.749  10.468   9.917  1.3553 -1.5067 -1.3131
  273MOL0     H36799   9.742  10.343  10.053 -0.3161  0.0667 -0.7711
  273MOL0     H36800   9.623  10.516  10.194  0.2689  3.3950  0.1357
  273MOL0     H36801   9.652  10.641  10.077  0.3372  1.0116 -1.2631
  273MOL0     H36802   9.522  10.532   9.900 -1.8279 -3.7569 -1.9946
  273MOL0     H36803   9.489  10.390   9.984  3.2359 -0.0233 -0.2541
  273MOL0     H36804   9.405  10.683  10.059 -2.6820 -0.1202 -1.3046
  273MOL0     H36805   9.372  10.549  10.159 -0.7265  0.1693  0.1235
  273MOL0     H36806   9.320  10.637   9.788  1.0458  1.0851  2.9924
  273MOL0     H36807   9.123  10.590   9.626  0.9579 -2.6851 -0.8183
  273MOL0     H36808   9.054  10.440   9.646  0.2962 -0.2313  0.4593
  273MOL0     H36809   8.883  10.639   9.596 -2.4800 -0.9675 -0.2745
  273MOL0     H36810   8.907  10.687   9.771  0.8926  1.3823 -1.3323
  273MOL0     H36811   8.822  10.446   9.831  4.0677  2.2608  1.0459
  273MOL0     H36812   8.789  10.420   9.662  1.6895  2.1068 -2.4109
  273MOL0     H36813   8.621  10.616   9.677 -2.1797 -0.3841  1.2159
  273MOL0     H36814   8.675  10.628   9.847  2.2599  0.2979 -0.1830
  273MOL0     H36815   8.426  10.316   9.981  0.5019  0.5240 -0.7331
  273MOL0     H36816   8.089  10.276  10.068 -0.1572 -0.6416  1.8748
  273MOL0     H36817   8.260  10.260  10.129  0.8339  0.5817 -1.0493
  273MOL0     H36818   8.147  10.387  10.189  0.8041  1.2909 -0.4442
  273MOL0     H36819   7.859  10.496  10.319  0.4536  0.1189  0.1687
  273MOL0     H36820   7.611  10.481  10.367  1.9545 -1.7793  0.6412
  273MOL0     H36821   7.392  10.442  10.364 -0.5897  0.7854  1.3911
  273MOL0     H36822   7.386  10.619  10.345 -0.4755  0.4178 -1.0751
  273MOL0     H36823   7.176  10.605  10.206  0.7419 -1.5117 -2.9138
  273MOL0     H36824   7.186  10.426  10.217 -1.0068  0.3222  0.2117
  273MOL0     H36825   7.043  10.565  10.393 -0.6989  0.0175 -1.4458
  273MOL0     H36826   7.191  10.621  10.455  0.7988  0.4263 -1.5380
  273MOL0     H36827   7.160  10.311  10.433  0.7796  0.1251 -1.0776
  273MOL0     H36828   7.244  10.407  10.551 -0.0907 -1.1630  0.6695
  273MOL0     H36829   7.031  10.483  10.647 -0.4430 -0.1263 -0.8879
  273MOL0     H36830   7.076  10.311  10.669 -0.2627  1.6970  1.7141
  273MOL0     H36831   6.872  10.435  10.482 -0.1851 -1.0683 -1.9884
  273MOL0     H36832   6.937  10.279  10.443  1.5390 -0.1712 -0.4747
  273MOL0     H36833   6.854  10.179  10.642 -0.7945 -0.4700 -0.7154
  273MOL0     H36834   6.732  10.256  10.553  2.2042 -2.4310 -1.7572
  273MOL0     H36835   6.743  10.466  10.702  0.9937  0.7442  0.2658
  273MOL0     H36836   6.863  10.390  10.816  1.1236 -1.7336  0.4152
  273MOL0     H36837   7.534  10.522   9.943 -0.9207  1.6955  0.8887
  273MOL0     H36838   7.757  10.503   9.887 -1.3039 -2.4568 -0.6450
  273MOL0     H36839   8.173  10.673   9.774  0.4403  1.0154 -0.3696
  273MOL0     H36840   8.417  10.637   9.709  0.3313 -2.4984 -2.1096
  273MOL0     H36841  10.571  10.671  10.028 -0.1104 -0.0330 -0.1256
  273MOL0     H36842  10.796  10.625   9.979  1.2576 -1.2011  2.1812
  273MOL0     H36843  11.018  10.178   9.801  1.5779 -1.4936 -1.1814
  273MOL0     H36844  11.226  10.059   9.758 -1.2315  0.6262 -1.2178
  273MOL0     H36845  11.599  10.263   9.834  2.1149 -0.8525 -1.3762
  273MOL0     H36846  11.579  10.182   9.996 -0.2732 -0.7520 -0.0738
  273MOL0     H36847  11.814  10.123   9.867  0.6262  0.4704  0.6705
  273MOL0     H36848  11.706  10.083   9.734  2.6384 -2.2677  0.6746
  273MOL0     H36849  11.584   9.916   9.875 -0.4228  0.7442  1.7648
  273MOL0     H36850  11.694   9.960  10.005 -3.1552  3.0557 -0.4349
  273MOL0     H36851  11.883   9.857   9.866 -0.7971  1.6998  0.9025
  273MOL0     H36852  11.762   9.813   9.740  1.5033  0.8419 -0.9420
  273MOL0     H36853  11.736   9.525  10.065  2.9175 -0.7402 -0.0875
  273MOL0     H36854  11.443  10.359   9.994  0.5172 -3.3816  0.6306
  273MOL0     H36855  11.253  10.496   9.987  2.1584 -0.7355  1.7364
  274MOL0     O36856   2.624   8.558   8.219  0.3880 -0.3294  0.2254
  274MOL0     C36857   2.648   8.582   8.339  0.1417  0.5080  0.4048
  274MOL0     O36858   2.570   8.532   8.451 -0.1578 -0.0966 -0.9820
  274MOL0     C36859   2.439   8.489   8.456 -0.8390  0.7145 -0.6504
  274MOL0     C36860   2.384   8.476   8.587 -0.4261 -0.3872  0.4887
  274MOL0     C36861   2.250   8.422   8.600 -0.4920  0.1663 -0.6451
  274MOL0     C36862   2.177   8.396   8.485  0.0150 -0.3064 -0.8381
  274MOL0     O36863   2.043   8.367   8.489  0.1224  0.5051  0.3298
  274MOL0     C36864   1.983   8.318   8.610  0.2887  0.0771 -1.0577
  274MOL0     C36865   1.865   8.227   8.571 -0.3185 -0.2909 -0.0620
  274MOL0     C36866   1.781   8.199   8.696 -0.6494  0.3918 -1.2384
  274MOL0     C36867   1.652   8.124   8.663  0.7835 -0.1663 -0.5968
  274MOL0     C36868   1.549   8.220   8.607  0.2855  0.2299  0.7442
  274MOL0     C36869   1.420   8.143   8.581 -0.3590 -0.0326 -0.4561
  274MOL0     C36870   1.341   8.106   8.710  0.1520  0.5065 -1.1983
  274MOL0     C36871   1.274   8.234   8.777 -0.6957 -0.1340  0.1600
  274MOL0     N36872   1.189   8.286   8.665  0.2249  0.5352 -0.2362
  274MOL0     C36873   1.198   8.408   8.610  0.4829 -0.1685  0.2648
  274MOL0     C36874   1.084   8.425   8.544  0.2951  0.0669  0.0900
  274MOL0     C36875   1.036   8.559   8.495  0.0403 -0.6761  0.1132
  274MOL0     C36876   1.111   8.623   8.382  0.2988 -0.6106 -0.3451
  274MOL0     C36877   1.104   8.545   8.249 -0.6839  0.4400 -0.3561
  274MOL0     C36878   0.963   8.492   8.209 -0.2020  0.0778 -0.1623
  274MOL0     O36879   0.881   8.603   8.174 -0.0913  0.0929 -0.6722
  274MOL0     C36880   0.804   8.588   8.065  0.2862 -0.1743 -0.7580
  274MOL0     C36881   0.805   8.678   7.962  0.1694 -0.5547 -0.6211
  274MOL0     C36882   0.722   8.673   7.853  0.6247  0.3579 -0.1632
  274MOL0     C36883   0.741   8.782   7.750  0.3364  0.4463 -0.8809
  274MOL0     C36884   0.623   8.571   7.860  0.0861 -0.4920  1.4154
  274MOL0     C36885   0.497   8.581   7.781  0.1452  0.3720 -0.5052
  274MOL0     O36886   0.405   8.476   7.793 -0.5664  0.9385  0.2833
  274MOL0     C36887   0.291   8.459   7.728  0.0849  0.5531  0.5973
  274MOL0     C36888   0.276   8.482   7.593  0.0824 -1.0078  0.3063
  274MOL0     C36889   0.163   8.441   7.525  0.6683 -1.1348  0.2003
  274MOL0     C36890   0.059   8.372   7.587  0.2322 -0.0598 -0.6586
  274MOL0     O36891  -0.050   8.356   7.507  0.1747 -0.3317 -0.4694
  274MOL0     C36892  -0.182   8.381   7.555  0.1440 -0.2493 -0.0386
  274MOL0     C36893  -0.292   8.353   7.455 -0.0889 -0.3469 -0.7336
  274MOL0     C36894  -0.264   8.437   7.322  0.1244 -0.5325  0.3664
  274MOL0     C36895  -0.358   8.383   7.214  0.3094  0.2933 -0.4521
  274MOL0     C36896  -0.313   8.256   7.141  0.2538  0.3721 -0.3691
  274MOL0     C36897  -0.173   8.239   7.081 -0.3802 -0.0020  0.5682
  274MOL0     C36898  -0.075   8.144   7.164 -0.3881 -0.5179 -0.3205
  274MOL0     C36899   0.066   8.164   7.135 -0.3709 -0.1849 -0.4659
  274MOL0    Cl36900   0.091   8.100   6.967 -0.3156  0.6657  0.5530
  274MOL0     C36901   0.066   8.352   7.724 -0.2808  0.8173 -0.5077
  274MOL0     C36902   0.185   8.387   7.795  0.1665  0.1694 -0.0057
  274MOL0     O36903   0.475   8.682   7.716  0.3118  0.8584  0.4255
  274MOL0     C36904   0.627   8.474   7.949 -0.2221  0.2288 -0.2069
  274MOL0     C36905   0.721   8.478   8.051  0.8038  0.0534  0.6580
  274MOL0     N36906   0.995   8.319   8.568 -0.0528  0.4609  0.6281
  274MOL0     N36907   1.069   8.237   8.641  0.5776  0.2280  0.2242
  274MOL0     C36908   2.233   8.401   8.360 -0.0000 -0.0553 -0.8405
  274MOL0     C36909   2.366   8.450   8.343  0.9212  0.0658 -1.1936
  274MOL0     C36910   2.768   8.667   8.380  0.1907  0.4058 -0.8097
  274MOL0     C36911   2.788   8.713   8.511  0.5398 -0.7319 -0.1092
  274MOL0     C36912   2.895   8.809   8.541  0.5014  1.0499 -0.9134
  274MOL0     C36913   2.979   8.846   8.432  0.8853 -0.6114  0.5387
  274MOL0     O36914   3.079   8.933   8.461  0.4203  0.1390  0.1460
  274MOL0     C36915   3.062   9.024   8.578  0.1388 -0.0036 -0.7006
  274MOL0     C36916   3.157   9.144   8.559  0.4513 -0.0619 -0.2438
  274MOL0     C36917   3.122   9.256   8.657 -0.5231  0.2218 -0.1539
  274MOL0     C36918   2.988   9.321   8.636  0.2830  0.0756  1.0275
  274MOL0     C36919   2.984   9.444   8.715  0.4611  0.6103  0.0658
  274MOL0     C36920   2.982   9.548   8.779 -0.1264  0.6206  0.2583
  274MOL0     C36921   2.952   8.805   8.308 -0.8149 -1.0690  0.4165
  274MOL0     C36922   2.851   8.720   8.276 -0.4223  0.0818  0.0856
  274MOL0     H36923   2.434   8.495   8.681 -1.8800 -2.1526  1.6838
  274MOL0     H36924   2.199   8.423   8.697 -0.5077  1.8987 -0.6272
  274MOL0     H36925   2.054   8.257   8.668  0.7211  2.0808  0.6122
  274MOL0     H36926   1.957   8.401   8.675 -0.8053  0.3784 -1.8527
  274MOL0     H36927   1.800   8.291   8.510 -1.3491 -0.1968  1.0927
  274MOL0     H36928   1.880   8.139   8.509 -0.9987  0.5524 -1.4670
  274MOL0     H36929   1.851   8.137   8.752  0.1036 -0.3988 -2.9770
  274MOL0     H36930   1.767   8.287   8.760  0.0623  0.5447 -1.2845
  274MOL0     H36931   1.686   8.058   8.583  1.0343  0.8128 -1.3139
  274MOL0     H36932   1.611   8.071   8.750 -0.0215  0.1852 -0.7473
  274MOL0     H36933   1.543   8.311   8.667  1.7469  0.5120  0.5222
  274MOL0     H36934   1.585   8.261   8.512  1.8474  0.8648  1.5678
  274MOL0     H36935   1.354   8.199   8.514 -2.5593 -1.9675 -0.0239
  274MOL0     H36936   1.447   8.048   8.533 -0.0631 -0.4435  0.4930
  274MOL0     H36937   1.256   8.040   8.694 -0.8337  2.0841 -2.8528
  274MOL0     H36938   1.417   8.057   8.771  1.6373 -0.9583 -4.0205
  274MOL0     H36939   1.344   8.307   8.818  0.0620 -0.4728 -0.4979
  274MOL0     H36940   1.209   8.202   8.859 -1.6932 -1.0330 -0.9344
  274MOL0     H36941   1.274   8.483   8.629  1.7796 -2.0309  3.1037
  274MOL0     H36942   0.932   8.539   8.468  0.1333 -1.3107  0.2066
  274MOL0     H36943   1.038   8.620   8.586 -2.6553  0.7993 -0.7132
  274MOL0     H36944   1.216   8.632   8.412 -0.0357  0.7711  0.4787
  274MOL0     H36945   1.079   8.726   8.364  1.2609 -0.2161  0.1342
  274MOL0     H36946   1.167   8.456   8.263 -0.8483 -0.5307 -4.4821
  274MOL0     H36947   1.151   8.595   8.164 -2.4736 -2.3367 -3.2268
  274MOL0     H36948   0.922   8.437   8.294  0.6508 -1.4092 -0.6693
  274MOL0     H36949   0.978   8.414   8.133  0.6305 -0.9736  1.0363
  274MOL0     H36950   0.869   8.766   7.962  1.0189 -1.1546 -0.2522
  274MOL0     H36951   0.728   8.742   7.649  1.9412 -2.9162  0.1083
  274MOL0     H36952   0.666   8.859   7.770  1.3676  0.9982  1.1316
  274MOL0     H36953   0.843   8.820   7.759  1.0158 -1.0098 -2.1005
  274MOL0     H36954   0.359   8.529   7.543 -1.6321  1.0950 -0.7365
  274MOL0     H36955   0.143   8.473   7.423 -1.3090 -2.7114  0.0223
  274MOL0     H36956  -0.208   8.322   7.643  0.7607 -0.6065 -0.0923
  274MOL0     H36957  -0.197   8.488   7.576  1.1004 -0.0676 -0.2207
  274MOL0     H36958  -0.281   8.251   7.415  0.5415  0.5152 -2.9391
  274MOL0     H36959  -0.394   8.367   7.492 -0.8802  0.6547 -3.0490
  274MOL0     H36960  -0.157   8.433   7.297 -0.5743  0.1528 -3.2202
  274MOL0     H36961  -0.294   8.541   7.336 -2.2296 -1.2969  1.4296
  274MOL0     H36962  -0.459   8.362   7.251 -0.2647  2.4293 -0.6992
  274MOL0     H36963  -0.357   8.454   7.131  2.3450 -1.2584 -1.8605
  274MOL0     H36964  -0.375   8.251   7.051  3.1156  0.2523 -2.4984
  274MOL0     H36965  -0.315   8.174   7.213 -0.3373  2.1524  1.7631
  274MOL0     H36966  -0.182   8.199   6.979  3.0753  1.1474 -0.3467
  274MOL0     H36967  -0.125   8.337   7.076 -0.0678 -0.1250  1.1319
  274MOL0     H36968  -0.098   8.041   7.135  2.0367 -1.2567  0.1587
  274MOL0     H36969  -0.093   8.170   7.269  0.5145 -0.7031 -0.1131
  274MOL0     H36970   0.116   8.100   7.208 -2.5184 -0.1666  1.1117
  274MOL0     H36971   0.099   8.266   7.157  1.3709 -0.5767 -1.1326
  274MOL0     H36972  -0.009   8.285   7.764  1.7124 -0.8138  0.7510
  274MOL0     H36973   0.196   8.360   7.899 -1.6543 -0.3129  0.1066
  274MOL0     H36974   0.558   8.391   7.956  2.0760 -2.0329 -2.2299
  274MOL0     H36975   0.697   8.405   8.127 -0.6942 -1.3134 -1.0390
  274MOL0     H36976   2.177   8.376   8.271  0.5315  2.2451 -1.9220
  274MOL0     H36977   2.411   8.444   8.245  0.2449 -1.3245 -1.4558
  274MOL0     H36978   2.727   8.680   8.595 -1.6293  0.5550 -1.0955
  274MOL0     H36979   2.905   8.844   8.643  1.7057 -1.7968  0.0332
  274MOL0     H36980   2.962   9.066   8.586  0.3426  0.2841  0.7495
  274MOL0     H36981   3.092   8.963   8.665 -0.4009  0.9359  0.1575
  274MOL0     H36982   3.146   9.181   8.457  1.7001  1.0319 -0.0007
  274MOL0     H36983   3.263   9.128   8.578  0.1843 -0.4566  1.0628
  274MOL0     H36984   3.188   9.342   8.645 -2.8884  2.2428  0.4579
  274MOL0     H36985   3.131   9.220   8.760  1.4137 -1.2748 -0.7750
  274MOL0     H36986   2.908   9.251   8.661 -0.6511  0.5513 -0.4693
  274MOL0     H36987   2.980   9.351   8.531 -0.6318 -1.5876  0.5955
  274MOL0     H36988   2.969   9.630   8.845 -0.8956 -0.2491  1.2187
  274MOL0     H36989   3.019   8.844   8.232  0.3024 -2.2595  0.7669
  274MOL0     H36990   2.841   8.687   8.173 -2.3565 -0.4259  0.3945
  275MOL0     O36991  10.826   9.298   5.918  1.4389  0.3266  0.7372
  275MOL0     C36992  10.844   9.313   5.797 -0.0642  0.3928  0.2938
  275MOL0     O36993  10.786   9.400   5.718 -0.0062 -0.1573  0.3164
  275MOL0     C36994  10.670   9.455   5.754  0.4472  0.8093 -1.2060
  275MOL0     C36995  10.541   9.433   5.693  0.1825  0.1972  0.5237
  275MOL0     C36996  10.430   9.513   5.729  1.0155  0.4357 -0.1506
  275MOL0     C36997  10.438   9.615   5.828 -0.0596 -0.0244 -0.8241
  275MOL0     O36998  10.318   9.683   5.847  0.5002  0.0756  0.4428
  275MOL0     C36999  10.292   9.737   5.984 -0.0181  1.0435 -0.4040
  275MOL0     C37000  10.285   9.622   6.092 -0.1836  0.1950  0.0750
  275MOL0     C37001  10.278   9.704   6.218 -0.1713  0.5907  0.1558
  275MOL0     C37002  10.269   9.621   6.349  0.3623  0.4814  0.4657
  275MOL0     C37003  10.123   9.586   6.386  0.0306 -0.4860  0.0304
  275MOL0     C37004  10.128   9.499   6.516  0.7157 -0.1934 -0.6646
  275MOL0     C37005   9.989   9.496   6.574 -0.5075  0.5705  0.3578
  275MOL0     C37006   9.998   9.448   6.725 -0.2091  0.3478 -0.1121
  275MOL0     N37007   9.875   9.385   6.765  0.0228  0.1990 -1.3403
  275MOL0     C37008   9.769   9.460   6.806 -0.1331 -0.3824  0.5588
  275MOL0     C37009   9.668   9.376   6.845 -0.4559 -0.2773 -0.2984
  275MOL0     C37010   9.525   9.413   6.883 -0.4187  0.5776  0.1116
  275MOL0     C37011   9.430   9.292   6.873 -0.6394 -0.8917 -0.1554
  275MOL0     C37012   9.287   9.326   6.901  0.1084 -0.3175 -0.0548
  275MOL0     C37013   9.212   9.411   6.798 -0.2763 -0.7717  0.9269
  275MOL0     O37014   9.223   9.353   6.665  1.2738 -0.4014 -0.2554
  275MOL0     C37015   9.103   9.287   6.636  0.5435  0.7872  0.1112
  275MOL0     C37016   9.002   9.342   6.560  0.6250  0.2760  0.4229
  275MOL0     C37017   8.888   9.268   6.527  0.1094  0.4416  0.9148
  275MOL0     C37018   8.790   9.331   6.436 -0.2551 -0.0917  0.0155
  275MOL0     C37019   8.880   9.131   6.569  0.3999 -1.0225 -0.2732
  275MOL0     C37020   8.763   9.051   6.543 -0.3176  1.2163 -0.0279
  275MOL0     O37021   8.784   8.926   6.490  0.9957 -0.2626  0.0017
  275MOL0     C37022   8.690   8.826   6.475  0.9608 -0.3913 -0.6859
  275MOL0     C37023   8.707   8.731   6.367  0.1804 -0.5445  0.5154
  275MOL0     C37024   8.612   8.637   6.332 -0.4970 -0.2859 -0.1843
  275MOL0     C37025   8.485   8.644   6.384 -0.4299 -0.0241 -1.3042
  275MOL0     O37026   8.389   8.558   6.349 -0.3476 -0.7157 -0.4079
  275MOL0     C37027   8.401   8.496   6.221 -0.5717 -0.2975 -0.3006
  275MOL0     C37028   8.268   8.425   6.193  0.9827 -0.7313 -0.5567
  275MOL0     C37029   8.273   8.345   6.060  0.2648 -0.7990 -0.9034
  275MOL0     C37030   8.324   8.205   6.080 -0.2600  0.2718  0.6591
  275MOL0     C37031   8.279   8.098   5.973  0.0869  0.2320 -0.0368
  275MOL0     C37032   8.307   8.131   5.830  0.6716  0.5837 -0.0710
  275MOL0     C37033   8.195   8.077   5.745 -0.9849  0.2276 -0.4844
  275MOL0     C37034   8.255   8.100   5.604 -0.9077  0.1141  0.1936
  275MOL0    Cl37035   8.117   8.054   5.498 -0.4442 -0.3482 -0.1011
  275MOL0     C37036   8.468   8.729   6.497  0.0605 -0.1942 -0.9459
  275MOL0     C37037   8.567   8.819   6.533  0.1010  0.0029  0.5280
  275MOL0     O37038   8.653   9.105   6.571 -0.3648 -0.2822 -0.6915
  275MOL0     C37039   8.978   9.082   6.661 -0.5398  0.1138  1.0334
  275MOL0     C37040   9.088   9.158   6.689  0.0177 -1.0483 -1.3151
  275MOL0     N37041   9.721   9.248   6.825  0.0472  0.0603 -0.6519
  275MOL0     N37042   9.844   9.251   6.783 -0.2844  0.1175  0.4862
  275MOL0     C37043  10.561   9.630   5.891 -0.0373  0.2733 -0.6472
  275MOL0     C37044  10.670   9.545   5.858 -0.5149 -0.7560  0.2059
  275MOL0     C37045  10.961   9.244   5.736 -0.3170 -0.3749  0.5193
  275MOL0     C37046  11.047   9.153   5.806 -0.5543 -0.0874 -0.6424
  275MOL0     C37047  11.144   9.081   5.740 -0.4571 -0.3317 -0.3439
  275MOL0     C37048  11.158   9.079   5.603  0.2132 -0.2590  0.4305
  275MOL0     O37049  11.233   8.992   5.529  0.2232 -0.6727  0.5500
  275MOL0     C37050  11.302   8.881   5.592 -0.2668 -0.1642  0.8431
  275MOL0     C37051  11.438   8.935   5.625  0.3895  0.3814  0.1215
  275MOL0     C37052  11.521   8.811   5.661 -0.6874  0.0127  0.0885
  275MOL0     C37053  11.570   8.728   5.545 -0.1388  0.5905  0.1565
  275MOL0     C37054  11.679   8.782   5.463  0.1027  0.5593 -0.3515
  275MOL0     C37055  11.771   8.816   5.390 -0.7999 -0.3954  0.4632
  275MOL0     C37056  11.083   9.175   5.530 -0.9071 -0.6331  0.0339
  275MOL0     C37057  10.986   9.254   5.596 -0.1228  0.8864 -0.1109
  275MOL0     H37058  10.533   9.358   5.615  0.3275  0.9741 -0.2649
  275MOL0     H37059  10.329   9.499   5.692  1.1438 -0.0917 -0.3177
  275MOL0     H37060  10.366   9.816   6.003 -1.6210  2.4712  0.1855
  275MOL0     H37061  10.195   9.786   5.994 -0.1298  0.8965 -0.7608
  275MOL0     H37062  10.195   9.563   6.071  0.7545 -1.0344 -0.5833
  275MOL0     H37063  10.369   9.552   6.091 -1.7639 -1.9717  2.7365
  275MOL0     H37064  10.369   9.761   6.236  0.2652 -0.2206  0.5961
  275MOL0     H37065  10.188   9.765   6.209  0.1498  0.8556 -1.4044
  275MOL0     H37066  10.328   9.530   6.336 -1.9915 -0.9710 -0.6133
  275MOL0     H37067  10.311   9.683   6.429  0.8785 -1.4054  1.7230
  275MOL0     H37068  10.065   9.676   6.408 -1.4576 -2.0603  3.2603
  275MOL0     H37069  10.074   9.538   6.301 -0.1028  0.2943 -0.3391
  275MOL0     H37070  10.165   9.397   6.500  2.4993 -0.3889  3.4705
  275MOL0     H37071  10.195   9.539   6.592 -0.9616 -1.5569  1.6908
  275MOL0     H37072   9.932   9.589   6.563  0.3392  1.1876  1.0133
  275MOL0     H37073   9.943   9.416   6.517  1.5339 -0.1376 -0.3893
  275MOL0     H37074  10.025   9.534   6.787  1.9382  0.1877 -0.7493
  275MOL0     H37075  10.079   9.375   6.734  0.0818  0.7838  0.9071
  275MOL0     H37076   9.765   9.567   6.787 -2.5348 -0.5062  0.0612
  275MOL0     H37077   9.530   9.448   6.987  2.3063  0.1292  0.2230
  275MOL0     H37078   9.493   9.499   6.824 -2.1066  2.4299  3.3980
  275MOL0     H37079   9.472   9.203   6.922  1.8806  0.7623  0.8828
  275MOL0     H37080   9.442   9.262   6.769  1.4441 -2.2665  0.4093
  275MOL0     H37081   9.263   9.380   6.993 -0.8322 -0.7776 -0.0149
  275MOL0     H37082   9.229   9.236   6.925 -0.5751 -0.1370 -0.9727
  275MOL0     H37083   9.260   9.509   6.793 -1.5357 -0.1914 -0.6028
  275MOL0     H37084   9.111   9.426   6.837 -0.0936 -2.9235  2.3798
  275MOL0     H37085   9.012   9.446   6.532  1.4451  0.4164  1.2095
  275MOL0     H37086   8.835   9.385   6.352  3.7760 -0.7262  1.5450
  275MOL0     H37087   8.730   9.260   6.379  0.5911 -0.3528 -0.5617
  275MOL0     H37088   8.720   9.398   6.487 -1.8673 -2.8827  1.7136
  275MOL0     H37089   8.801   8.727   6.313 -0.7984 -2.4802 -1.2109
  275MOL0     H37090   8.650   8.566   6.259 -0.6128 -1.2505  0.6724
  275MOL0     H37091   8.422   8.568   6.141 -0.9828  2.0301  1.5614
  275MOL0     H37092   8.477   8.418   6.218 -2.7271 -2.4930 -1.6779
  275MOL0     H37093   8.237   8.358   6.274 -0.9000 -1.2131 -1.6039
  275MOL0     H37094   8.190   8.500   6.177  2.0164  0.3552 -0.6315
  275MOL0     H37095   8.337   8.403   5.993  1.4122  0.3954  1.1312
  275MOL0     H37096   8.172   8.340   6.017  1.2510  1.2658 -3.7616
  275MOL0     H37097   8.433   8.211   6.075 -0.3201  1.4331  0.2916
  275MOL0     H37098   8.292   8.162   6.175 -0.0471  0.2434  0.7179
  275MOL0     H37099   8.170   8.089   5.986  0.2514  0.0397  1.4212
  275MOL0     H37100   8.320   8.002   6.006  1.3102  0.9286  0.4939
  275MOL0     H37101   8.320   8.237   5.808 -0.9853  1.1202  1.2675
  275MOL0     H37102   8.400   8.081   5.802  1.1069  0.3907  1.6321
  275MOL0     H37103   8.101   8.131   5.761 -0.5765  1.4338 -1.8637
  275MOL0     H37104   8.180   7.971   5.766  0.1970  0.1193 -0.0943
  275MOL0     H37105   8.346   8.046   5.579 -1.0574  1.1938 -3.2450
  275MOL0     H37106   8.270   8.207   5.587  1.9701 -0.2784 -0.1152
  275MOL0     H37107   8.365   8.753   6.523  0.3464  1.8950 -1.5879
  275MOL0     H37108   8.541   8.902   6.597  1.1871  0.7033  0.0864
  275MOL0     H37109   8.965   8.988   6.714  0.7995  0.8256  2.7379
  275MOL0     H37110   9.163   9.121   6.759 -2.5101 -3.1918  0.4673
  275MOL0     H37111  10.572   9.708   5.966 -2.4331 -0.4323  0.5216
  275MOL0     H37112  10.769   9.539   5.904 -0.7006 -1.9710  0.4724
  275MOL0     H37113  11.037   9.130   5.912  1.4918 -1.3403 -0.6633
  275MOL0     H37114  11.190   9.000   5.796  0.0371  0.1415 -0.0624
  275MOL0     H37115  11.248   8.839   5.677 -0.3899  0.3670  1.0329
  275MOL0     H37116  11.303   8.806   5.513 -0.1596  0.0522  0.6373
  275MOL0     H37117  11.436   9.010   5.704 -2.3712 -1.4379  1.9544
  275MOL0     H37118  11.471   8.987   5.534  2.3134  0.0449  0.5851
  275MOL0     H37119  11.467   8.748   5.733 -0.7192  1.7309  1.6460
  275MOL0     H37120  11.600   8.856   5.721 -1.0519  0.5635  0.1605
  275MOL0     H37121  11.484   8.695   5.485  2.3067 -4.5762 -1.1367
  275MOL0     H37122  11.592   8.627   5.581 -1.9580 -0.2219 -0.8468
  275MOL0     H37123  11.862   8.831   5.336 -0.9876 -0.9987 -0.0372
  275MOL0     H37124  11.096   9.189   5.423  1.5978 -2.2824  0.0556
  275MOL0     H37125  10.936   9.330   5.537 -0.3128  1.7704  1.1499
  276MOL0     O37126  10.162   9.552   2.092  0.1543 -0.1077 -0.0823
  276MOL0     C37127  10.175   9.610   1.984 -0.0560  0.9712 -0.3602
  276MOL0     O37128  10.071   9.646   1.897 -0.4721 -0.5785 -0.0316
  276MOL0     C37129   9.946   9.587   1.918  0.5055  0.3699 -0.6516
  276MOL0     C37130   9.821   9.653   1.918  0.2211 -0.9841  0.9451
  276MOL0     C37131   9.700   9.588   1.947  0.4165 -0.1377 -0.1465
  276MOL0     C37132   9.704   9.457   1.983  0.0064  0.3628 -0.0562
  276MOL0     O37133   9.602   9.383   2.024  0.5819  0.1933  0.3395
  276MOL0     C37134   9.468   9.422   1.987  0.3008  0.0569 -0.3555
  276MOL0     C37135   9.406   9.516   2.093  0.1373 -1.0755  0.1292
  276MOL0     C37136   9.293   9.590   2.023 -0.2773  0.1375  0.2275
  276MOL0     C37137   9.208   9.686   2.104  0.0618 -0.2534  0.0104
  276MOL0     C37138   9.164   9.621   2.234  1.2543 -0.0528 -0.5914
  276MOL0     C37139   9.057   9.510   2.224  0.0457  0.8187 -0.2737
  276MOL0     C37140   8.916   9.570   2.209  0.1431  0.3615  0.1094
  276MOL0     C37141   8.803   9.482   2.146 -0.7530 -0.0560 -0.0176
  276MOL0     N37142   8.664   9.497   2.199  0.1180  0.4965 -0.0002
  276MOL0     C37143   8.587   9.603   2.244 -0.2592 -0.5958 -0.4449
  276MOL0     C37144   8.464   9.560   2.264  0.1923 -0.5484  0.1314
  276MOL0     C37145   8.357   9.645   2.329  0.0141  0.1955  0.1713
  276MOL0     C37146   8.215   9.635   2.262  0.3540 -0.9422  0.0183
  276MOL0     C37147   8.102   9.661   2.365  0.3735 -0.2982 -1.0383
  276MOL0     C37148   7.970   9.666   2.292  0.4123  0.3639 -0.3691
  276MOL0     O37149   7.859   9.693   2.386 -0.2903 -0.5546  0.0103
  276MOL0     C37150   7.760   9.776   2.347 -0.5847  0.3350  0.2596
  276MOL0     C37151   7.694   9.741   2.229 -0.3456  0.1237 -0.9241
  276MOL0     C37152   7.601   9.829   2.170  0.5998  0.4372  1.2878
  276MOL0     C37153   7.524   9.785   2.044 -0.0499 -0.2328  0.0597
  276MOL0     C37154   7.584   9.955   2.230  0.4821  0.0890  0.0876
  276MOL0     C37155   7.470  10.040   2.185 -0.0529  0.1402 -0.1742
  276MOL0     O37156   7.350   9.978   2.152 -0.6018 -0.5698 -0.3539
  276MOL0     C37157   7.239  10.054   2.164  0.5629 -0.6775 -0.2472
  276MOL0     C37158   7.187  10.095   2.288  0.3019  0.0836 -0.5161
  276MOL0     C37159   7.085  10.192   2.301 -0.2539  0.5997  0.8524
  276MOL0     C37160   7.012  10.235   2.183 -0.0092 -0.4212  0.1299
  276MOL0     O37161   6.908  10.326   2.201  0.1169  0.0823  0.6005
  276MOL0     C37162   6.797  10.347   2.116 -0.3317 -0.5907 -0.1985
  276MOL0     C37163   6.721  10.471   2.172 -0.4460  0.6204  0.6840
  276MOL0     C37164   6.776  10.609   2.111  0.3819 -0.8112 -0.3440
  276MOL0     C37165   6.733  10.733   2.188 -0.4151 -0.4590  0.3044
  276MOL0     C37166   6.819  10.857   2.150 -1.0593  0.1715  0.1536
  276MOL0     C37167   6.818  10.906   2.001  0.3016 -0.1089  0.2304
  276MOL0     C37168   6.881  11.034   1.988 -0.4135  0.0885  0.3900
  276MOL0     C37169   7.034  11.030   2.012  0.6899 -0.4927 -0.3934
  276MOL0    Cl37170   7.107  11.164   1.941 -0.0232 -0.1059  0.0089
  276MOL0     C37171   7.054  10.189   2.059  0.0970 -0.5865 -0.8616
  276MOL0     C37172   7.158  10.096   2.054 -0.4689 -0.4175  0.7917
  276MOL0     O37173   7.485  10.162   2.201  0.1108 -0.0323  0.3460
  276MOL0     C37174   7.647   9.990   2.350 -0.3722  1.2092  0.0314
  276MOL0     C37175   7.733   9.895   2.408 -0.5831 -0.0312  0.0988
  276MOL0     N37176   8.456   9.434   2.218 -0.9061  0.3779 -0.2270
  276MOL0     N37177   8.571   9.392   2.182 -0.0370 -0.4995 -0.4167
  276MOL0     C37178   9.826   9.387   1.965  1.0584 -0.2590  0.2730
  276MOL0     C37179   9.945   9.449   1.944 -0.4634 -0.3679 -0.6187
  276MOL0     C37180  10.311   9.626   1.937 -0.6760 -0.5489  0.4466
  276MOL0     C37181  10.338   9.685   1.813  0.7640  0.3483 -0.1363
  276MOL0     C37182  10.465   9.715   1.773 -0.2302 -0.4998  0.0655
  276MOL0     C37183  10.574   9.685   1.862  0.1718 -0.6030  0.1548
  276MOL0     O37184  10.693   9.732   1.817  0.0469 -0.2034 -0.0447
  276MOL0     C37185  10.817   9.720   1.891 -0.3747 -0.6649 -0.7787
  276MOL0     C37186  10.926   9.767   1.788  0.5037  0.5251  0.2898
  276MOL0     C37187  11.068   9.747   1.850  0.5191  0.2380 -0.6913
  276MOL0     C37188  11.110   9.872   1.927  0.0851  0.9223 -0.4023
  276MOL0     C37189  11.249   9.861   1.967  0.5947  0.2154  0.0764
  276MOL0     C37190  11.356   9.856   2.024 -0.4852 -0.3457 -0.5780
  276MOL0     C37191  10.553   9.619   1.982 -0.1339  0.0921 -0.1694
  276MOL0     C37192  10.425   9.597   2.016  1.1861 -0.3133  0.6468
  276MOL0     H37193   9.822   9.757   1.885 -0.0691 -1.6462 -1.3416
  276MOL0     H37194   9.604   9.637   1.960  1.8050  2.4217  1.4536
  276MOL0     H37195   9.465   9.466   1.887 -1.7016  1.7082  0.3488
  276MOL0     H37196   9.424   9.323   1.977  0.3243  0.0943 -0.8348
  276MOL0     H37197   9.394   9.474   2.193  2.5567  1.3778  1.5747
  276MOL0     H37198   9.474   9.599   2.115 -3.0833  2.3678 -1.7383
  276MOL0     H37199   9.340   9.643   1.940  1.6444 -0.0737  1.1446
  276MOL0     H37200   9.222   9.511   1.992 -0.4755 -0.4313  2.0368
  276MOL0     H37201   9.263   9.776   2.132  0.6393 -0.8591  0.8893
  276MOL0     H37202   9.111   9.711   2.060 -0.7779 -0.1640  1.8107
  276MOL0     H37203   9.246   9.579   2.293  0.9284 -1.3123 -1.0084
  276MOL0     H37204   9.125   9.701   2.298 -0.0392 -2.0352  1.2622
  276MOL0     H37205   9.077   9.446   2.137  0.8356 -0.0499  0.5260
  276MOL0     H37206   9.059   9.442   2.310  0.0291 -0.6973 -1.4189
  276MOL0     H37207   8.891   9.597   2.312 -0.0495  3.3795 -0.6285
  276MOL0     H37208   8.914   9.663   2.150 -1.5804  1.6696  2.0840
  276MOL0     H37209   8.834   9.377   2.157  1.3672  0.6402  1.1987
  276MOL0     H37210   8.817   9.500   2.039  0.5443  0.0996  0.1558
  276MOL0     H37211   8.620   9.701   2.278 -0.3583 -1.4575  2.3190
  276MOL0     H37212   8.354   9.633   2.438  1.3833  0.0583  0.2212
  276MOL0     H37213   8.396   9.746   2.311  0.5522 -0.0621 -0.1433
  276MOL0     H37214   8.181   9.535   2.235  1.4863 -1.6376  1.0624
  276MOL0     H37215   8.212   9.693   2.169  0.0189  2.8787  2.2084
  276MOL0     H37216   8.113   9.737   2.443 -1.2803 -0.6268 -0.4541
  276MOL0     H37217   8.105   9.567   2.420  0.1952  1.9085  3.1064
  276MOL0     H37218   7.952   9.570   2.243  2.1027  0.8445 -2.0641
  276MOL0     H37219   7.975   9.741   2.213 -2.3668  1.9152  0.7588
  276MOL0     H37220   7.720   9.652   2.172  2.5271  2.1597 -3.1039
  276MOL0     H37221   7.422   9.757   2.071 -1.5870  2.6367 -2.1783
  276MOL0     H37222   7.516   9.865   1.969  0.7485  2.3647  2.5803
  276MOL0     H37223   7.573   9.696   2.002 -0.2377 -1.1451  1.7023
  276MOL0     H37224   7.232  10.069   2.383  0.5041  2.6017  0.1444
  276MOL0     H37225   7.064  10.242   2.395  0.7494  1.4092  0.6596
  276MOL0     H37226   6.829  10.361   2.012  0.7665  0.4970  0.2638
  276MOL0     H37227   6.729  10.260   2.121 -0.8956 -0.0780  2.0017
  276MOL0     H37228   6.616  10.460   2.143 -0.0353 -1.7526 -0.1734
  276MOL0     H37229   6.732  10.468   2.281 -1.9703 -1.0296  0.8488
  276MOL0     H37230   6.743  10.621   2.007  1.4267  0.0457 -0.5888
  276MOL0     H37231   6.883  10.589   2.104  0.2747 -0.9538 -2.0492
  276MOL0     H37232   6.628  10.738   2.157 -1.0606 -4.0472  1.4438
  276MOL0     H37233   6.734  10.727   2.297 -1.8278 -0.9385  0.3184
  276MOL0     H37234   6.925  10.842   2.171 -0.5157  1.7986 -1.2854
  276MOL0     H37235   6.786  10.930   2.225  1.6711 -2.2574  4.1595
  276MOL0     H37236   6.867  10.825   1.946  0.7380  0.8077 -0.7678
  276MOL0     H37237   6.711  10.912   1.978 -0.2925 -0.3802  2.6216
  276MOL0     H37238   6.838  11.113   2.051 -0.4734 -0.7938  1.4878
  276MOL0     H37239   6.858  11.064   1.886  0.9090  2.7174  0.7796
  276MOL0     H37240   7.073  10.936   1.973  2.9879  0.7292 -1.2524
  276MOL0     H37241   7.054  11.019   2.119  2.6848 -1.6955 -0.8340
  276MOL0     H37242   7.007  10.215   1.965 -0.2926 -0.8269 -0.7371
  276MOL0     H37243   7.194  10.068   1.956  2.1307  2.8923  0.6525
  276MOL0     H37244   7.611  10.080   2.398 -1.0870  0.9046  0.0836
  276MOL0     H37245   7.780   9.907   2.505  1.3845 -1.9242 -0.5256
  276MOL0     H37246   9.812   9.281   1.984 -3.0957  0.4579  2.4948
  276MOL0     H37247  10.038   9.394   1.941 -0.0368  0.3758 -2.6017
  276MOL0     H37248  10.249   9.708   1.754  0.3143  0.4130  0.5588
  276MOL0     H37249  10.480   9.758   1.674 -3.7027 -1.6460 -1.1060
  276MOL0     H37250  10.817   9.778   1.983  1.2003 -0.6235 -0.7856
  276MOL0     H37251  10.827   9.620   1.935 -0.8579 -0.4003 -0.0456
  276MOL0     H37252  10.911   9.873   1.768 -0.0583  0.5545  0.8547
  276MOL0     H37253  10.931   9.703   1.699  1.6022 -0.8731  1.3123
  276MOL0     H37254  11.136   9.740   1.764  0.9532  1.7008 -0.4919
  276MOL0     H37255  11.069   9.657   1.912  0.0380 -1.7665 -3.4100
  276MOL0     H37256  11.052   9.889   2.018  1.3509  4.7935 -0.1761
  276MOL0     H37257  11.106   9.964   1.869  2.8226  1.8162  0.6964
  276MOL0     H37258  11.448   9.853   2.078 -0.4197 -1.1271 -0.7226
  276MOL0     H37259  10.637   9.611   2.051 -0.4679 -2.4820  0.0335
  276MOL0     H37260  10.406   9.574   2.120 -0.9294  1.9133  0.8520
  277MOL0     O37261   2.602   3.485   9.984 -0.2343 -0.4217  0.2394
  277MOL0     C37262   2.613   3.607  10.019 -0.1209 -0.3126  0.8284
  277MOL0     O37263   2.509   3.684  10.064 -0.6690  0.7694 -0.1590
  277MOL0     C37264   2.388   3.624  10.067  0.0740  0.8352 -0.0175
  277MOL0     C37265   2.366   3.523  10.154 -0.8620  0.4083 -0.1926
  277MOL0     C37266   2.237   3.467  10.164 -0.1827 -1.0989  0.3179
  277MOL0     C37267   2.128   3.501  10.075 -0.2432 -0.1438 -0.0370
  277MOL0     O37268   2.012   3.434  10.086 -0.0141  0.1962  0.0067
  277MOL0     C37269   1.912   3.477   9.993 -0.1336  0.1850 -0.0739
  277MOL0     C37270   1.792   3.392  10.019 -0.5061 -0.5403 -0.1595
  277MOL0     C37271   1.707   3.431  10.140  0.0668 -0.2387  0.3751
  277MOL0     C37272   1.664   3.309  10.222 -0.8412 -0.3077 -0.3171
  277MOL0     C37273   1.565   3.221  10.143  0.0098  0.1364 -1.8881
  277MOL0     C37274   1.576   3.087  10.215 -0.5727  0.2217  0.4584
  277MOL0     C37275   1.467   2.993  10.162  0.3833  0.1855 -0.5061
  277MOL0     C37276   1.344   2.983  10.254 -0.5385  0.1638 -0.4887
  277MOL0     N37277   1.228   2.921  10.192  0.3063 -0.6054  0.0428
  277MOL0     C37278   1.152   2.815  10.241  0.0898 -0.1137 -0.1128
  277MOL0     C37279   1.037   2.812  10.167  0.1860  0.0490 -0.3513
  277MOL0     C37280   0.932   2.716  10.180  0.0589  0.2375 -0.1856
  277MOL0     C37281   0.886   2.681  10.039  0.6930 -0.1020 -0.2264
  277MOL0     C37282   0.782   2.565  10.027 -0.1972  0.2652  0.6316
  277MOL0     C37283   0.643   2.613   9.981 -0.4499  0.9355 -0.7048
  277MOL0     O37284   0.586   2.700  10.079  0.0301 -0.1948  0.6341
  277MOL0     C37285   0.456   2.745  10.054 -0.9108  0.4396  1.0194
  277MOL0     C37286   0.395   2.772  10.169  0.5993 -0.5263 -0.5158
  277MOL0     C37287   0.259   2.810  10.173 -0.2427  1.1834  0.8008
  277MOL0     C37288   0.206   2.838  10.311 -0.3956  0.2103  0.3770
  277MOL0     C37289   0.180   2.803  10.054  0.5654 -0.4093 -0.6042
  277MOL0     C37290   0.030   2.816  10.059 -0.1753 -0.6205 -0.0594
  277MOL0     O37291  -0.022   2.919  10.140 -0.8159  0.6465  0.7084
  277MOL0     C37292  -0.150   2.945  10.117 -0.1086  0.8091 -0.3169
  277MOL0     C37293  -0.249   2.870  10.183 -0.0140  0.4409 -0.2119
  277MOL0     C37294  -0.384   2.908  10.161  0.1656  0.5246  0.0227
  277MOL0     C37295  -0.418   3.016  10.084 -0.0766  0.6056 -0.2956
  277MOL0     O37296  -0.555   3.064  10.081 -0.4116  0.3337 -0.0811
  277MOL0     C37297  -0.614   3.091   9.956 -0.7971 -0.1666  0.4181
  277MOL0     C37298  -0.688   2.961   9.919  0.6293 -0.3153 -0.1126
  277MOL0     C37299  -0.786   2.911  10.027  0.0182  0.1617  0.7010
  277MOL0     C37300  -0.840   2.777   9.973  0.8642  0.0833  0.1865
  277MOL0     C37301  -0.945   2.716  10.071  0.3304 -0.5407 -0.9131
  277MOL0     C37302  -1.021   2.595  10.001  0.3010 -1.0787 -0.0690
  277MOL0     C37303  -1.122   2.529  10.093  0.6861 -1.2155  1.2773
  277MOL0     C37304  -1.200   2.423  10.009  0.1782 -0.3900 -0.9461
  277MOL0    Cl37305  -1.109   2.318   9.897 -0.1222 -0.3344  0.1488
  277MOL0     C37306  -0.311   3.072  10.009  1.1824 -0.1902 -0.1604
  277MOL0     C37307  -0.177   3.045  10.029  0.7375 -0.1971 -0.2674
  277MOL0     O37308  -0.034   2.738   9.985  0.3189  0.0245  0.0002
  277MOL0     C37309   0.246   2.772   9.932  0.7821 -0.5665  0.2132
  277MOL0     C37310   0.391   2.744   9.928  0.9636 -0.5278 -0.2848
  277MOL0     N37311   1.056   2.909  10.069 -0.2545 -0.4502 -0.3969
  277MOL0     N37312   1.168   2.977  10.084 -0.0269  0.3033  0.0934
  277MOL0     C37313   2.157   3.608   9.987 -0.6073  0.4045  0.1059
  277MOL0     C37314   2.285   3.668   9.980 -0.2346 -0.3392  0.8081
  277MOL0     C37315   2.738   3.687  10.009  0.1418 -0.2454 -0.6041
  277MOL0     C37316   2.731   3.827  10.050  0.1816  0.0920  1.7016
  277MOL0     C37317   2.842   3.903  10.008  0.2781  0.6496  0.3686
  277MOL0     C37318   2.959   3.850   9.961 -0.9684  0.0491 -0.5776
  277MOL0     O37319   3.052   3.942   9.928  0.7487  0.0942  0.0489
  277MOL0     C37320   3.176   3.912   9.860 -0.6996  0.3018  0.4782
  277MOL0     C37321   3.279   3.863   9.962  0.1218  0.1677 -0.4255
  277MOL0     C37322   3.330   3.977  10.053  0.0906 -0.1560  0.5349
  277MOL0     C37323   3.442   3.917  10.157 -0.0299 -0.0908  0.4828
  277MOL0     C37324   3.486   4.026  10.243  0.1238 -0.7525 -0.8305
  277MOL0     C37325   3.539   4.103  10.321  0.3153 -0.6833  0.3746
  277MOL0     C37326   2.970   3.714   9.951 -0.1752  0.1252  0.5053
  277MOL0     C37327   2.859   3.631   9.966  0.1391  0.4873  0.9224
  277MOL0     H37328   2.442   3.492  10.224 -0.3763 -0.2905 -1.0135
  277MOL0     H37329   2.216   3.389  10.236 -1.7132 -0.4717  0.5772
  277MOL0     H37330   1.888   3.583   9.998 -3.0431 -0.4017  0.1619
  277MOL0     H37331   1.950   3.464   9.891 -0.4672 -1.1192 -0.0584
  277MOL0     H37332   1.732   3.391   9.927  0.7249  1.6347 -1.0510
  277MOL0     H37333   1.823   3.287  10.028 -0.9174 -0.6904 -0.4301
  277MOL0     H37334   1.760   3.505  10.202  0.2298 -1.1296  1.3331
  277MOL0     H37335   1.621   3.488  10.106  1.6547  2.0279 -0.0661
  277MOL0     H37336   1.759   3.260  10.245 -2.6643 -2.0574  4.8364
  277MOL0     H37337   1.636   3.338  10.324  2.5609  0.0464  0.6292
  277MOL0     H37338   1.469   3.265  10.171  1.3636  0.9683  2.1054
  277MOL0     H37339   1.589   3.219  10.036 -4.4967  1.2038 -3.1256
  277MOL0     H37340   1.675   3.043  10.201 -0.3662  1.2256 -1.5767
  277MOL0     H37341   1.582   3.090  10.324  3.1336  3.7299  0.3795
  277MOL0     H37342   1.447   3.016  10.057  3.0938  0.8091 -0.9525
  277MOL0     H37343   1.506   2.891  10.164 -2.4809 -1.0001  0.1758
  277MOL0     H37344   1.313   3.083  10.286  0.2856  0.4174 -0.4533
  277MOL0     H37345   1.370   2.936  10.349  1.0471 -0.3804 -1.1480
  277MOL0     H37346   1.160   2.760  10.335  1.9392  1.1484  0.5222
  277MOL0     H37347   0.965   2.619  10.217 -0.4689 -0.4157 -1.3725
  277MOL0     H37348   0.855   2.757  10.247 -0.6089 -1.3223  0.0512
  277MOL0     H37349   0.979   2.656   9.987  0.2264 -1.4977 -0.4388
  277MOL0     H37350   0.852   2.772   9.989 -0.6736 -1.1665 -1.3197
  277MOL0     H37351   0.775   2.507  10.119  1.2163 -3.9237 -1.6032
  277MOL0     H37352   0.831   2.500   9.953 -2.5866  0.6187 -1.3783
  277MOL0     H37353   0.572   2.530   9.977 -0.3077  0.8464 -3.9532
  277MOL0     H37354   0.652   2.655   9.881  1.0798 -0.3445 -1.1365
  277MOL0     H37355   0.449   2.770  10.264  0.5204  0.5372 -0.4349
  277MOL0     H37356   0.189   2.946  10.316  1.4821  0.5696 -0.0780
  277MOL0     H37357   0.107   2.795  10.327 -0.7159  1.0152  0.6040
  277MOL0     H37358   0.272   2.801  10.390  0.0532  0.8412  0.3030
  277MOL0     H37359  -0.236   2.792  10.258  0.5353  0.5176 -0.2170
  277MOL0     H37360  -0.470   2.861  10.208  1.9440 -1.6835  1.2887
  277MOL0     H37361  -0.680   3.178   9.966 -1.5826 -0.6716 -0.2769
  277MOL0     H37362  -0.542   3.122   9.880 -0.6589 -0.1004  0.5764
  277MOL0     H37363  -0.737   2.981   9.824  1.2977  1.7068 -0.0842
  277MOL0     H37364  -0.621   2.880   9.891 -0.6881 -0.5714 -2.8401
  277MOL0     H37365  -0.869   2.981  10.035 -0.0406  0.4391 -1.5471
  277MOL0     H37366  -0.740   2.894  10.124 -1.2867 -0.3397  1.2471
  277MOL0     H37367  -0.878   2.790   9.871  1.0701 -1.2368 -0.0680
  277MOL0     H37368  -0.756   2.708   9.973  0.9774  0.0876 -2.7933
  277MOL0     H37369  -1.014   2.795  10.101  0.7824 -0.1217 -0.9604
  277MOL0     H37370  -0.894   2.678  10.160  0.4281  1.2629 -0.1746
  277MOL0     H37371  -1.078   2.638   9.918  0.6792  0.2721  0.3447
  277MOL0     H37372  -0.947   2.528   9.958 -3.0473 -1.9015 -5.4555
  277MOL0     H37373  -1.192   2.597  10.143 -0.0041 -2.0821  1.5068
  277MOL0     H37374  -1.072   2.472  10.171  0.5540 -1.0260  1.4994
  277MOL0     H37375  -1.271   2.469   9.940 -1.1816  2.2251  1.9462
  277MOL0     H37376  -1.255   2.362  10.081 -0.4275  2.5502  1.2968
  277MOL0     H37377  -0.344   3.144   9.933  2.8522  0.3300 -0.4269
  277MOL0     H37378  -0.100   3.081   9.962 -0.3816  0.7828 -1.0672
  277MOL0     H37379   0.186   2.766   9.842  1.5316 -2.0023 -0.2280
  277MOL0     H37380   0.432   2.713   9.832  0.0169  2.1071 -1.6173
  277MOL0     H37381   2.083   3.637   9.914 -0.7012 -1.1023 -0.4511
  277MOL0     H37382   2.303   3.743   9.904 -1.1899 -1.4093 -0.5116
  277MOL0     H37383   2.647   3.889  10.081  0.8154  2.1918 -0.5225
  277MOL0     H37384   2.820   4.009  10.017  0.5732  0.5869  2.1815
  277MOL0     H37385   3.151   3.825   9.797 -0.2128 -0.6738  1.5981
  277MOL0     H37386   3.216   3.990   9.795  1.2677 -0.2093  0.9771
  277MOL0     H37387   3.369   3.826   9.912 -1.1967 -0.2129 -2.6834
  277MOL0     H37388   3.240   3.788  10.031 -0.3290  1.7586  1.1193
  277MOL0     H37389   3.251   4.010  10.122  0.7603 -2.2040  2.4450
  277MOL0     H37390   3.366   4.056   9.988  2.5385 -0.2584  1.6783
  277MOL0     H37391   3.532   3.904  10.096 -0.7716 -2.1029 -0.2253
  277MOL0     H37392   3.425   3.821  10.205  0.0205 -0.4383 -0.1910
  277MOL0     H37393   3.582   4.154  10.404 -3.5324 -1.6517  3.1982
  277MOL0     H37394   3.065   3.673   9.916 -0.7025 -1.1319  0.4975
  277MOL0     H37395   2.873   3.527   9.941  1.6339  0.5945  1.2407
  278MOL0     O37396   1.337   8.583   2.567  0.0731 -0.8904  0.0003
  278MOL0     C37397   1.404   8.651   2.482  0.4604  0.0694  0.3936
  278MOL0     O37398   1.375   8.773   2.449 -0.0038 -0.4179 -0.1898
  278MOL0     C37399   1.317   8.852   2.544 -0.4533  1.1288 -0.4781
  278MOL0     C37400   1.393   8.914   2.644 -0.2432 -0.2420  0.2708
  278MOL0     C37401   1.333   8.983   2.752  0.4502 -0.5296  0.9203
  278MOL0     C37402   1.195   9.004   2.739  0.3333  1.1495 -0.0290
  278MOL0     O37403   1.121   9.072   2.829 -0.4191 -0.0825  0.5990
  278MOL0     C37404   1.095   9.207   2.793 -0.3758  1.6311  0.2097
  278MOL0     C37405   0.990   9.276   2.876 -0.1736 -0.4137  0.9692
  278MOL0     C37406   0.857   9.202   2.870  0.1694  0.4795 -0.2842
  278MOL0     C37407   0.745   9.295   2.931  0.2067  0.0677  0.0629
  278MOL0     C37408   0.627   9.203   2.985  1.1286  0.2036  0.3174
  278MOL0     C37409   0.520   9.288   3.040  0.6273  0.0130 -0.1031
  278MOL0     C37410   0.412   9.200   3.113  0.4161 -0.0809 -0.2561
  278MOL0     C37411   0.299   9.291   3.169  0.1388  0.1712  0.4650
  278MOL0     N37412   0.177   9.217   3.164 -0.5489 -0.0346 -0.4026
  278MOL0     C37413   0.064   9.243   3.088 -0.4220  0.0984  0.5667
  278MOL0     C37414  -0.019   9.133   3.110  0.2958  0.0378  0.0857
  278MOL0     C37415  -0.150   9.135   3.042 -0.0976 -0.4033 -0.7007
  278MOL0     C37416  -0.257   9.134   3.142  0.0028  0.1283  0.1791
  278MOL0     C37417  -0.392   9.150   3.083 -0.1452 -0.8616  0.0953
  278MOL0     C37418  -0.507   9.152   3.189  0.6368 -0.1986  0.2809
  278MOL0     O37419  -0.517   9.034   3.274 -0.0101 -0.0022  1.3295
  278MOL0     C37420  -0.607   8.931   3.243 -0.9178  0.1150  0.7515
  278MOL0     C37421  -0.638   8.841   3.350 -0.2585 -0.2972  0.3098
  278MOL0     C37422  -0.719   8.726   3.348 -0.1377  0.4432  0.0901
  278MOL0     C37423  -0.730   8.636   3.471 -0.5348  0.3409  0.2131
  278MOL0     C37424  -0.785   8.703   3.218 -0.8490 -0.6150 -0.4394
  278MOL0     C37425  -0.889   8.594   3.198 -0.3873 -1.2048  0.7541
  278MOL0     O37426  -0.932   8.523   3.311  0.5572  0.6506 -0.0142
  278MOL0     C37427  -1.032   8.434   3.306  0.7863  1.2494  0.0284
  278MOL0     C37428  -1.157   8.486   3.297  0.1512  0.5427 -0.6784
  278MOL0     C37429  -1.271   8.407   3.302  0.3506  0.0847  0.4130
  278MOL0     C37430  -1.256   8.262   3.313  0.7960  0.7019  0.5369
  278MOL0     O37431  -1.364   8.178   3.321  0.5848  0.7323 -0.7276
  278MOL0     C37432  -1.495   8.234   3.285 -0.3706  0.2112 -0.3536
  278MOL0     C37433  -1.600   8.124   3.284  0.1795 -0.2889 -0.5647
  278MOL0     C37434  -1.743   8.172   3.268 -0.3222 -0.1526 -0.2925
  278MOL0     C37435  -1.834   8.049   3.277  0.2079  0.0840  0.3799
  278MOL0     C37436  -1.983   8.082   3.306 -0.7315 -1.4347 -0.2218
  278MOL0     C37437  -2.060   7.960   3.331 -0.3726 -0.1848  0.6637
  278MOL0     C37438  -2.210   7.991   3.355  0.7444 -0.0192 -0.8105
  278MOL0     C37439  -2.294   7.866   3.386 -0.0901  0.2761 -0.1087
  278MOL0    Cl37440  -2.452   7.899   3.461 -0.2712 -0.0133  0.5206
  278MOL0     C37441  -1.123   8.208   3.326 -1.1806 -0.0688  0.2755
  278MOL0     C37442  -1.009   8.297   3.318  0.4214  0.6317  0.6544
  278MOL0     O37443  -0.924   8.577   3.081  0.6952  0.5501  0.5068
  278MOL0     C37444  -0.751   8.785   3.104 -0.1447 -0.2947  0.1135
  278MOL0     C37445  -0.663   8.899   3.119  0.3945  0.1697  0.9957
  278MOL0     N37446   0.042   9.045   3.190  0.0323 -0.0984  0.1656
  278MOL0     N37447   0.164   9.089   3.210 -0.2283  0.1429 -0.7229
  278MOL0     C37448   1.124   8.943   2.640  0.2603  0.2683  0.1275
  278MOL0     C37449   1.179   8.863   2.540 -0.5055  0.7080 -0.1738
  278MOL0     C37450   1.528   8.595   2.419 -0.5720 -0.9129 -1.0839
  278MOL0     C37451   1.590   8.668   2.313 -0.2506 -0.2660  0.5045
  278MOL0     C37452   1.690   8.608   2.239 -0.5847 -0.3926 -0.2618
  278MOL0     C37453   1.744   8.486   2.276  0.5245  0.8529 -0.3286
  278MOL0     O37454   1.848   8.440   2.202 -0.2530 -0.0796 -0.0307
  278MOL0     C37455   1.964   8.383   2.269 -0.4475  0.4310  0.0464
  278MOL0     C37456   2.088   8.460   2.221 -0.4263  0.5150 -0.1417
  278MOL0     C37457   2.223   8.379   2.250  0.2943 -0.1870  0.1534
  278MOL0     C37458   2.338   8.438   2.171 -0.0875  0.1520 -0.7794
  278MOL0     C37459   2.457   8.360   2.205 -1.1816  0.3911 -0.1074
  278MOL0     C37460   2.557   8.291   2.230 -0.1304 -0.0637 -0.4497
  278MOL0     C37461   1.691   8.417   2.387  0.3974  0.4559 -0.3069
  278MOL0     C37462   1.583   8.474   2.460  0.4124  0.1000 -0.1128
  278MOL0     H37463   1.500   8.891   2.645 -0.8614 -3.6524  1.2960
  278MOL0     H37464   1.393   9.017   2.835  1.5615  1.4615 -0.6182
  278MOL0     H37465   1.188   9.264   2.792  0.7974 -0.1809 -1.8252
  278MOL0     H37466   1.050   9.205   2.694 -3.9105 -2.9367  1.5878
  278MOL0     H37467   1.037   9.286   2.975 -0.9000  0.2055  1.2570
  278MOL0     H37468   0.972   9.375   2.836  1.6122 -0.6715 -0.6380
  278MOL0     H37469   0.825   9.168   2.771 -1.4306  1.9759 -0.3236
  278MOL0     H37470   0.865   9.113   2.934 -3.2911  0.5923  0.4831
  278MOL0     H37471   0.784   9.361   3.009 -0.6391  1.2088 -0.4547
  278MOL0     H37472   0.701   9.363   2.857 -0.3485  1.3144  1.4817
  278MOL0     H37473   0.597   9.137   2.903  0.6446  2.9319 -1.8438
  278MOL0     H37474   0.664   9.137   3.064  1.7746  1.9473  1.5098
  278MOL0     H37475   0.569   9.341   3.123  2.0878 -1.0701 -0.2309
  278MOL0     H37476   0.475   9.355   2.967  0.6320 -1.6416 -1.6731
  278MOL0     H37477   0.366   9.126   3.048  0.8048 -0.7031  0.1636
  278MOL0     H37478   0.464   9.148   3.194  0.9644  0.4745 -0.2445
  278MOL0     H37479   0.291   9.384   3.112  0.3330 -2.5788 -4.6642
  278MOL0     H37480   0.322   9.321   3.271 -0.9112 -4.8150  2.4594
  278MOL0     H37481   0.054   9.329   3.023  2.2325  0.2064  0.2177
  278MOL0     H37482  -0.166   9.228   2.987 -0.8837  0.0872  0.3346
  278MOL0     H37483  -0.154   9.059   2.963 -0.0989  1.6688 -2.7938
  278MOL0     H37484  -0.250   9.207   3.223 -1.2223 -0.5123  0.9007
  278MOL0     H37485  -0.270   9.036   3.189 -0.8123 -0.1918 -0.6859
  278MOL0     H37486  -0.407   9.082   2.999  3.6355  1.0617 -2.4574
  278MOL0     H37487  -0.392   9.243   3.025 -0.2823 -1.3301 -0.6588
  278MOL0     H37488  -0.603   9.174   3.142  0.2938 -0.0179  1.0409
  278MOL0     H37489  -0.485   9.233   3.259  1.2725  0.2453 -0.4237
  278MOL0     H37490  -0.590   8.857   3.446 -0.4537 -0.0059  0.3592
  278MOL0     H37491  -0.650   8.648   3.544  0.8278 -2.8830 -0.6144
  278MOL0     H37492  -0.832   8.652   3.508 -1.5731 -3.2648 -0.6533
  278MOL0     H37493  -0.713   8.533   3.440  1.9321  1.0504 -1.0173
  278MOL0     H37494  -1.154   8.593   3.281  1.7027  1.0943  2.4669
  278MOL0     H37495  -1.369   8.453   3.298  0.2340 -0.2268 -1.1939
  278MOL0     H37496  -1.517   8.298   3.370 -0.1550  1.2126 -1.0271
  278MOL0     H37497  -1.502   8.289   3.190 -0.9718  2.1872  0.7757
  278MOL0     H37498  -1.583   8.040   3.216  0.1068 -2.6381  2.1032
  278MOL0     H37499  -1.592   8.080   3.384  0.7242 -1.2280 -1.0120
  278MOL0     H37500  -1.747   8.224   3.172  0.9407  1.0965  0.3049
  278MOL0     H37501  -1.761   8.245   3.347  0.4932  2.4453 -2.3745
  278MOL0     H37502  -1.821   7.992   3.185 -0.7597  1.7661 -0.8731
  278MOL0     H37503  -1.795   7.979   3.351 -1.4199 -2.0130 -0.6292
  278MOL0     H37504  -2.023   8.136   3.220 -0.5198 -2.9546 -1.3101
  278MOL0     H37505  -1.985   8.149   3.393  0.5393  2.4536 -2.9486
  278MOL0     H37506  -2.050   7.901   3.239  2.4611 -1.8969  1.9120
  278MOL0     H37507  -2.038   7.906   3.424 -1.1973  1.9912  2.2012
  278MOL0     H37508  -2.259   8.049   3.276 -0.3583  0.9273  0.5119
  278MOL0     H37509  -2.219   8.057   3.441 -0.9825 -3.4122  1.8630
  278MOL0     H37510  -2.232   7.803   3.451  0.8673  0.4832 -0.7917
  278MOL0     H37511  -2.303   7.809   3.292 -3.0323  1.2462 -0.5193
  278MOL0     H37512  -1.105   8.106   3.357 -1.1587 -0.1337  0.0590
  278MOL0     H37513  -0.911   8.255   3.341 -0.3562 -0.2055  2.7457
  278MOL0     H37514  -0.807   8.771   3.012 -1.8459 -1.0521  1.2118
  278MOL0     H37515  -0.638   8.954   3.029  3.6332 -4.7600 -1.5756
  278MOL0     H37516   1.018   8.964   2.651  0.5339  0.7249  2.3861
  278MOL0     H37517   1.115   8.811   2.470  1.2260 -1.8009 -0.0088
  278MOL0     H37518   1.545   8.762   2.279 -3.3271 -2.0799 -0.9263
  278MOL0     H37519   1.728   8.663   2.154  1.6642 -0.2544  0.7499
  278MOL0     H37520   1.962   8.393   2.378  1.6717  0.1839  0.1643
  278MOL0     H37521   1.969   8.278   2.242  0.5320  0.8134 -1.3618
  278MOL0     H37522   2.090   8.551   2.281  2.7589 -1.2217  2.7283
  278MOL0     H37523   2.094   8.492   2.116  1.4893  2.1157  0.3969
  278MOL0     H37524   2.217   8.271   2.239 -1.3153 -0.0924 -0.1048
  278MOL0     H37525   2.243   8.393   2.357 -0.4452 -0.4209  0.3322
  278MOL0     H37526   2.359   8.539   2.207  2.0404  0.0375 -1.5846
  278MOL0     H37527   2.317   8.457   2.065 -0.9093  5.8014  0.0696
  278MOL0     H37528   2.639   8.226   2.251 -0.6944 -0.7445 -0.3482
  278MOL0     H37529   1.731   8.322   2.422 -0.0089 -0.4206 -2.1254
  278MOL0     H37530   1.549   8.425   2.550  2.3416 -3.9752 -1.3712
  279MOL0     O37531   9.385   7.502   9.743 -0.4416 -0.1916 -0.2906
  279MOL0     C37532   9.471   7.560   9.677 -0.4778  0.9002 -0.0743
  279MOL0     O37533   9.439   7.634   9.556 -0.2404  0.2735  0.2492
  279MOL0     C37534   9.317   7.605   9.506 -0.0200 -0.9437  0.3160
  279MOL0     C37535   9.267   7.481   9.466 -0.3088 -0.5793  0.0605
  279MOL0     C37536   9.142   7.453   9.419 -1.1158  0.4134 -0.3805
  279MOL0     C37537   9.054   7.560   9.415 -0.6750  0.2912  0.2404
  279MOL0     O37538   8.937   7.542   9.349 -0.0876 -0.4108  0.6249
  279MOL0     C37539   8.822   7.548   9.435 -0.3161  0.6135  0.3789
  279MOL0     C37540   8.707   7.496   9.352 -0.3888  0.2966  0.0363
  279MOL0     C37541   8.567   7.518   9.422 -0.6536 -0.2130 -0.1532
  279MOL0     C37542   8.459   7.453   9.337  1.1186 -0.1025  0.4210
  279MOL0     C37543   8.317   7.492   9.390 -0.7337 -0.6285 -0.1855
  279MOL0     C37544   8.290   7.430   9.530 -0.5172  0.4743 -0.1642
  279MOL0     C37545   8.147   7.458   9.575  0.5557  0.3021 -0.0848
  279MOL0     C37546   8.094   7.372   9.693 -0.7291  0.2150  0.4571
  279MOL0     N37547   7.969   7.427   9.730  0.7113  1.2024 -0.1572
  279MOL0     C37548   7.848   7.384   9.681 -0.2624  0.3358  0.2825
  279MOL0     C37549   7.759   7.468   9.732  0.9059  0.5878 -0.5785
  279MOL0     C37550   7.611   7.454   9.719 -0.5222 -0.1510  0.4596
  279MOL0     C37551   7.538   7.493   9.845 -0.6799 -0.1927 -0.5957
  279MOL0     C37552   7.394   7.446   9.846  0.3571  0.0911  0.6969
  279MOL0     C37553   7.307   7.485   9.725 -0.9627  0.1347  0.9181
  279MOL0     O37554   7.173   7.433   9.737  0.4440  0.1998 -0.5492
  279MOL0     C37555   7.079   7.483   9.822  0.3453  0.6612 -0.4473
  279MOL0     C37556   6.951   7.434   9.804  0.2035 -0.1936  0.2461
  279MOL0     C37557   6.847   7.480   9.882  0.0942  0.1727 -1.2651
  279MOL0     C37558   6.708   7.423   9.852  0.0440  0.4113  0.1279
  279MOL0     C37559   6.869   7.571   9.995 -0.7391 -0.1598 -1.1719
  279MOL0     C37560   6.756   7.621  10.080 -0.1390 -0.0397  0.1838
  279MOL0     O37561   6.640   7.657  10.019 -0.7852 -0.2627  0.1040
  279MOL0     C37562   6.547   7.724  10.094  0.8858 -0.1427 -0.0901
  279MOL0     C37563   6.578   7.832  10.181  0.4280 -0.1442  0.8823
  279MOL0     C37564   6.479   7.902  10.248  0.2996 -0.4506  0.2101
  279MOL0     C37565   6.342   7.874  10.212 -0.5903  0.6776  0.1499
  279MOL0     O37566   6.238   7.929  10.277  0.1923  0.1769  0.4398
  279MOL0     C37567   6.261   8.042  10.364  0.1222  0.3577 -0.0315
  279MOL0     C37568   6.137   8.083  10.441  0.7651 -0.2208 -0.1884
  279MOL0     C37569   6.086   7.982  10.540  0.2912  0.5365 -0.5092
  279MOL0     C37570   5.939   7.992  10.574 -0.1909 -0.6297 -0.4073
  279MOL0     C37571   5.883   8.131  10.600 -0.2077  0.0426  1.5088
  279MOL0     C37572   5.745   8.131  10.676  0.5829  0.0401 -0.0315
  279MOL0     C37573   5.623   8.101  10.582  0.2799  0.1977 -0.3029
  279MOL0     C37574   5.488   8.115  10.653 -0.0160  0.0842 -0.0473
  279MOL0    Cl37575   5.369   8.108  10.524  0.2783  0.3510 -0.2347
  279MOL0     C37576   6.313   7.771  10.123 -0.6237 -0.7500 -0.7630
  279MOL0     C37577   6.412   7.701  10.064  0.2785  0.1519  0.0652
  279MOL0     O37578   6.783   7.632  10.198 -0.8949 -0.1717 -0.5141
  279MOL0     C37579   7.000   7.625  10.007 -0.3296 -0.4474 -0.8285
  279MOL0     C37580   7.106   7.591   9.916 -0.3319  0.1336  0.3637
  279MOL0     N37581   7.819   7.574   9.787 -0.4696 -0.0188  1.0569
  279MOL0     N37582   7.947   7.551   9.788 -0.3472  0.6940  1.2448
  279MOL0     C37583   9.089   7.688   9.466  0.2441 -0.1812  0.1843
  279MOL0     C37584   9.223   7.711   9.504  0.0455 -0.0876 -0.6275
  279MOL0     C37585   9.596   7.585   9.736 -0.0181  0.2372 -0.0035
  279MOL0     C37586   9.696   7.638   9.648  0.1278 -0.8592  1.2083
  279MOL0     C37587   9.826   7.660   9.694  0.5282 -0.9623 -0.6632
  279MOL0     C37588   9.854   7.649   9.833 -0.0867  0.5421 -1.0197
  279MOL0     O37589   9.978   7.678   9.885  0.4079  0.1974  0.1546
  279MOL0     C37590  10.073   7.762   9.811  0.1206  0.1085  0.7674
  279MOL0     C37591  10.143   7.691   9.691  0.0053 -0.2553  0.0201
  279MOL0     C37592  10.292   7.733   9.687  0.2841 -0.2739 -0.5140
  279MOL0     C37593  10.321   7.883   9.652  0.1440 -0.7870  0.0425
  279MOL0     C37594  10.319   7.901   9.507  0.3833 -0.3328 -0.5346
  279MOL0     C37595  10.327   7.906   9.384 -0.1427 -0.4726  0.1907
  279MOL0     C37596   9.759   7.586   9.918 -1.7762  0.4848  0.2334
  279MOL0     C37597   9.632   7.552   9.872 -0.0871 -0.5527  0.4094
  279MOL0     H37598   9.330   7.392   9.470 -1.0783 -1.2048 -1.1765
  279MOL0     H37599   9.110   7.359   9.375 -0.0469 -0.2561  0.2389
  279MOL0     H37600   8.832   7.476   9.517  0.8311 -0.6116 -0.7824
  279MOL0     H37601   8.810   7.650   9.471  1.5456  0.3172  2.0655
  279MOL0     H37602   8.693   7.547   9.256 -0.0440 -2.0196 -1.3073
  279MOL0     H37603   8.741   7.394   9.333 -0.1187  0.0615  1.5816
  279MOL0     H37604   8.572   7.473   9.521  0.9006 -0.4250 -0.3126
  279MOL0     H37605   8.548   7.626   9.416 -1.5871 -0.0843  3.1116
  279MOL0     H37606   8.465   7.488   9.234  1.1464  2.6461  1.2767
  279MOL0     H37607   8.471   7.344   9.336  0.1386 -0.2354 -1.6882
  279MOL0     H37608   8.319   7.599   9.413 -2.3680 -1.0998  2.6831
  279MOL0     H37609   8.242   7.468   9.314 -1.2055  0.5051 -0.0994
  279MOL0     H37610   8.307   7.322   9.518  3.1845  1.0831 -1.5287
  279MOL0     H37611   8.366   7.466   9.600 -1.1724 -1.2852  1.5608
  279MOL0     H37612   8.141   7.561   9.612  0.3827 -0.4679  2.2572
  279MOL0     H37613   8.082   7.453   9.487  0.6066  2.3423 -0.2971
  279MOL0     H37614   8.158   7.377   9.782  0.6241  1.1013 -0.5280
  279MOL0     H37615   8.081   7.265   9.672  4.3574 -0.7547  1.0389
  279MOL0     H37616   7.828   7.294   9.624  2.1719 -0.4559  0.5905
  279MOL0     H37617   7.571   7.511   9.634 -0.5907  1.0700  1.2987
  279MOL0     H37618   7.591   7.346   9.718  1.4597 -0.5929  2.2432
  279MOL0     H37619   7.551   7.601   9.860  2.5926 -0.9073  3.6228
  279MOL0     H37620   7.590   7.448   9.930 -0.4615 -1.6077 -1.4575
  279MOL0     H37621   7.348   7.479   9.940 -3.1536  0.3596 -0.9381
  279MOL0     H37622   7.405   7.339   9.866 -1.3276 -0.1274  0.6140
  279MOL0     H37623   7.336   7.445   9.627 -3.1552 -0.0004  0.2589
  279MOL0     H37624   7.314   7.593   9.711  1.6964 -0.1688 -0.6528
  279MOL0     H37625   6.924   7.365   9.725  1.6700  0.5261 -0.9457
  279MOL0     H37626   6.658   7.381   9.940 -4.5565  0.2393 -2.2588
  279MOL0     H37627   6.626   7.488   9.820 -0.8186 -0.9553 -0.5492
  279MOL0     H37628   6.715   7.339   9.781 -0.9720  1.0871 -0.7981
  279MOL0     H37629   6.678   7.872  10.171 -0.5903  2.2348 -0.6613
  279MOL0     H37630   6.505   7.980  10.318  0.9904 -0.2347 -0.2786
  279MOL0     H37631   6.336   8.028  10.442 -1.0946  1.0964  1.3135
  279MOL0     H37632   6.279   8.134  10.307  0.7805  2.6159  3.5177
  279MOL0     H37633   6.149   8.182  10.487  0.3292  1.2618 -3.0391
  279MOL0     H37634   6.057   8.097  10.367  3.3211 -1.7067 -3.4843
  279MOL0     H37635   6.136   7.979  10.638  0.2124 -1.4931 -0.4756
  279MOL0     H37636   6.108   7.881  10.503 -0.6016  0.1586 -0.0440
  279MOL0     H37637   5.883   7.955  10.488 -2.7226  2.5171 -0.2807
  279MOL0     H37638   5.917   7.933  10.664 -0.8227  0.1870 -0.0180
  279MOL0     H37639   5.868   8.187  10.507 -2.1752  1.6797  2.7294
  279MOL0     H37640   5.953   8.185  10.665  0.3117  1.2419  0.0150
  279MOL0     H37641   5.748   8.058  10.758  1.2227 -1.6643 -1.4856
  279MOL0     H37642   5.731   8.230  10.719  0.1191 -1.7182  4.3995
  279MOL0     H37643   5.628   7.999  10.541 -1.6317  0.3343 -0.9615
  279MOL0     H37644   5.620   8.173  10.501 -2.4010  0.2433 -0.2423
  279MOL0     H37645   5.482   8.212  10.703 -1.0993 -1.5000  3.2341
  279MOL0     H37646   5.468   8.046  10.735  1.7903  1.3714  1.5786
  279MOL0     H37647   6.210   7.739  10.114 -1.3388  0.3715  2.3083
  279MOL0     H37648   6.390   7.618   9.998  1.8524 -0.2802  0.0620
  279MOL0     H37649   7.003   7.702  10.083 -3.4952 -1.5063  0.5460
  279MOL0     H37650   7.205   7.635   9.922  1.2716 -2.6810 -2.3530
  279MOL0     H37651   9.022   7.773   9.474  0.5738 -0.0273  1.5438
  279MOL0     H37652   9.263   7.806   9.539 -3.3609  0.8133  1.3234
  279MOL0     H37653   9.680   7.646   9.541 -1.6608 -1.5387  1.3979
  279MOL0     H37654   9.903   7.678   9.620  1.4524 -0.7853  0.3114
  279MOL0     H37655  10.016   7.848   9.776 -0.5544 -1.0810 -1.1988
  279MOL0     H37656  10.140   7.793   9.892  0.4053 -0.5470  0.7925
  279MOL0     H37657  10.098   7.731   9.600  2.0310  1.2029 -0.4075
  279MOL0     H37658  10.131   7.582   9.695 -0.5267 -0.2043 -0.1918
  279MOL0     H37659  10.342   7.664   9.617 -0.5367 -0.3970 -0.9825
  279MOL0     H37660  10.352   7.709   9.776 -0.5621  2.0117  0.7481
  279MOL0     H37661  10.417   7.908   9.698 -0.3981 -0.8535  1.2492
  279MOL0     H37662  10.251   7.953   9.698 -1.8528 -1.8822 -1.1592
  279MOL0     H37663  10.343   7.928   9.281 -1.8414  2.1171  0.3978
  279MOL0     H37664   9.803   7.552  10.011  1.7236 -2.8338 -2.2997
  279MOL0     H37665   9.564   7.496   9.935  1.6224 -0.6323  2.3032
  280MOL0     O37666   1.089   6.314   7.594 -0.3966 -0.6786  0.1139
  280MOL0     C37667   1.102   6.280   7.483  0.2239  0.1810 -0.6737
  280MOL0     O37668   1.017   6.211   7.403  0.3570 -0.3887 -0.2543
  280MOL0     C37669   0.888   6.209   7.442 -0.3023 -0.2766 -0.4511
  280MOL0     C37670   0.799   6.270   7.357 -0.3311 -0.0508  0.0603
  280MOL0     C37671   0.661   6.254   7.383  0.6596 -0.3764 -0.5718
  280MOL0     C37672   0.606   6.193   7.494  0.6705 -0.4548 -0.1057
  280MOL0     O37673   0.473   6.189   7.527  0.6893 -0.0130  0.1450
  280MOL0     C37674   0.401   6.310   7.499 -0.4299 -0.0070 -0.3465
  280MOL0     C37675   0.295   6.337   7.601  0.8666 -0.9221  0.9387
  280MOL0     C37676   0.363   6.340   7.736 -0.6800  0.2791  0.7258
  280MOL0     C37677   0.295   6.443   7.840 -0.1098  0.2359 -0.6832
  280MOL0     C37678   0.168   6.398   7.902 -0.8675  0.8199 -0.1608
  280MOL0     C37679   0.090   6.510   7.956 -0.1006 -0.5158 -0.2405
  280MOL0     C37680  -0.058   6.468   7.983  0.4881  1.1014  0.5661
  280MOL0     C37681  -0.148   6.588   8.017 -0.2535 -0.8063 -0.2919
  280MOL0     N37682  -0.160   6.677   7.901 -0.2728 -0.0985  0.1962
  280MOL0     C37683  -0.079   6.793   7.877  0.0814  0.2558 -0.5191
  280MOL0     C37684  -0.103   6.814   7.750  0.4773  0.5402 -0.0835
  280MOL0     C37685  -0.037   6.923   7.672 -0.0419 -0.1808  0.6156
  280MOL0     C37686   0.107   6.888   7.653  0.3292 -0.5903  0.6437
  280MOL0     C37687   0.121   6.754   7.587  0.1008 -0.7233  0.7264
  280MOL0     C37688   0.256   6.739   7.512 -0.1931 -0.0949  0.4494
  280MOL0     O37689   0.356   6.664   7.582  0.1177  0.0124 -0.5100
  280MOL0     C37690   0.482   6.658   7.538 -0.3588 -0.3475  0.9877
  280MOL0     C37691   0.577   6.615   7.629  0.4315 -0.0855 -0.1227
  280MOL0     C37692   0.718   6.609   7.595 -0.1174  0.8574 -0.1006
  280MOL0     C37693   0.805   6.526   7.687 -0.1513 -0.7566  0.0741
  280MOL0     C37694   0.757   6.643   7.462 -0.4295 -0.2432 -0.0461
  280MOL0     C37695   0.894   6.626   7.413 -0.2137  1.2713  0.0418
  280MOL0     O37696   0.922   6.616   7.280  0.6492  0.0890 -0.6894
  280MOL0     C37697   1.051   6.657   7.248  0.2700 -0.1977  0.5394
  280MOL0     C37698   1.138   6.558   7.194  0.5829 -0.4434  0.9609
  280MOL0     C37699   1.252   6.592   7.135 -0.7282  0.4016 -1.1839
  280MOL0     C37700   1.295   6.728   7.114  0.3359  0.2604  0.0436
  280MOL0     O37701   1.415   6.762   7.047  0.0389  0.3065 -0.1224
  280MOL0     C37702   1.480   6.878   7.096  0.3139 -0.0572 -0.6270
  280MOL0     C37703   1.631   6.864   7.061  0.5479  0.0152  0.1141
  280MOL0     C37704   1.646   6.919   6.913 -0.6502  0.1219 -0.5116
  280MOL0     C37705   1.799   6.954   6.882 -0.1339 -0.2394  0.0046
  280MOL0     C37706   1.893   6.827   6.879  0.1830 -0.0235 -0.3156
  280MOL0     C37707   2.044   6.872   6.864 -0.3734 -0.7012  0.3401
  280MOL0     C37708   2.092   6.923   6.998  0.2626  0.3793 -0.1471
  280MOL0     C37709   2.244   6.947   7.025 -0.5916 -0.0148  0.2658
  280MOL0    Cl37710   2.348   6.834   6.933 -0.3164 -0.0562 -0.3327
  280MOL0     C37711   1.199   6.827   7.150  0.0588 -0.8274 -0.1923
  280MOL0     C37712   1.080   6.788   7.219 -0.9896  0.2447  0.4942
  280MOL0     O37713   0.992   6.629   7.497  0.0920 -0.0391 -0.2639
  280MOL0     C37714   0.663   6.697   7.377 -0.7727  0.4902  0.3231
  280MOL0     C37715   0.525   6.710   7.411  0.3683  0.6188  0.1266
  280MOL0     N37716  -0.193   6.726   7.705  0.2439  0.1794  0.5652
  280MOL0     N37717  -0.230   6.641   7.795 -0.5699 -0.8811 -0.2565
  280MOL0     C37718   0.699   6.151   7.590 -0.2926 -0.1108 -0.4284
  280MOL0     C37719   0.839   6.151   7.560 -0.9888 -0.3189 -0.6358
  280MOL0     C37720   1.238   6.296   7.427  0.5255  0.1991  0.0253
  280MOL0     C37721   1.342   6.359   7.496 -1.1063 -0.8791  0.0032
  280MOL0     C37722   1.471   6.384   7.447 -0.2391  0.0103 -0.1714
  280MOL0     C37723   1.510   6.343   7.325 -0.0794  0.4076 -0.3976
  280MOL0     O37724   1.641   6.352   7.293 -0.0094 -0.2374  0.4198
  280MOL0     C37725   1.749   6.268   7.334 -0.8212  0.0022 -0.1666
  280MOL0     C37726   1.804   6.193   7.212 -0.4333  0.2251  0.8107
  280MOL0     C37727   1.928   6.110   7.247 -0.5481  0.4163 -0.3886
  280MOL0     C37728   2.057   6.199   7.223 -0.0559  0.3193 -0.0468
  280MOL0     C37729   2.168   6.150   7.304  0.5271  1.4693 -0.5092
  280MOL0     C37730   2.260   6.108   7.380  0.3826  0.2188  0.9417
  280MOL0     C37731   1.408   6.279   7.246  0.0695  0.2900  0.0880
  280MOL0     C37732   1.279   6.261   7.295 -0.2180  0.9162  0.1082
  280MOL0     H37733   0.854   6.315   7.275  1.8710 -1.4500  0.6569
  280MOL0     H37734   0.598   6.296   7.306 -1.8446  2.5451  2.7186
  280MOL0     H37735   0.462   6.400   7.488 -0.0901 -0.3268 -1.2367
  280MOL0     H37736   0.355   6.286   7.403  2.3064  1.1124 -2.0741
  280MOL0     H37737   0.240   6.430   7.582 -1.6958 -2.0079  2.5529
  280MOL0     H37738   0.220   6.258   7.605 -0.7299  0.5630  1.3493
  280MOL0     H37739   0.360   6.238   7.775 -1.5246  0.5693  1.4299
  280MOL0     H37740   0.469   6.359   7.715 -0.4590 -2.5595 -1.3018
  280MOL0     H37741   0.360   6.478   7.920 -0.1402 -0.5642 -0.2958
  280MOL0     H37742   0.286   6.527   7.771 -0.2892 -0.0488 -1.0123
  280MOL0     H37743   0.108   6.375   7.814 -0.7744  2.1152 -0.5889
  280MOL0     H37744   0.180   6.313   7.971  0.9722 -0.9734 -2.5289
  280MOL0     H37745   0.136   6.529   8.053 -0.3367 -1.6617  0.1109
  280MOL0     H37746   0.098   6.600   7.895  2.8853 -0.1771  0.5044
  280MOL0     H37747  -0.098   6.415   7.896  0.3912 -4.0633  3.3247
  280MOL0     H37748  -0.058   6.398   8.067  1.9709 -0.9581 -1.0574
  280MOL0     H37749  -0.112   6.641   8.106 -2.8794  2.8621 -1.1601
  280MOL0     H37750  -0.249   6.549   8.034 -0.0032 -1.2041  0.3218
  280MOL0     H37751  -0.019   6.849   7.948 -0.8986  0.9433 -0.2232
  280MOL0     H37752  -0.088   6.924   7.575  0.3575 -1.8648  0.3495
  280MOL0     H37753  -0.058   7.014   7.728 -2.4039 -0.7042  0.6873
  280MOL0     H37754   0.165   6.887   7.745  0.1666  1.8949  0.8363
  280MOL0     H37755   0.147   6.973   7.596 -0.7936 -0.5919 -0.1929
  280MOL0     H37756   0.049   6.734   7.507  0.7066 -1.9777  0.4747
  280MOL0     H37757   0.112   6.678   7.665 -2.4436 -0.0273  1.2301
  280MOL0     H37758   0.305   6.834   7.490 -0.8079  0.7570  2.5107
  280MOL0     H37759   0.232   6.685   7.420  1.9473  1.4027 -1.0810
  280MOL0     H37760   0.553   6.579   7.728  0.1087  1.5746  0.4421
  280MOL0     H37761   0.865   6.589   7.754 -2.1633  2.6614 -1.0643
  280MOL0     H37762   0.758   6.447   7.746 -1.5004  0.5542  0.8245
  280MOL0     H37763   0.877   6.475   7.622  0.4992 -1.3945  1.2530
  280MOL0     H37764   1.102   6.455   7.187  0.7465 -0.3533 -2.5980
  280MOL0     H37765   1.308   6.504   7.103 -1.6286 -1.1662  1.2798
  280MOL0     H37766   1.442   6.965   7.041 -2.5797  0.0231  1.2935
  280MOL0     H37767   1.464   6.890   7.203 -1.8112  0.0442 -0.9094
  280MOL0     H37768   1.696   6.923   7.125 -0.1632  1.7399 -0.7030
  280MOL0     H37769   1.646   6.757   7.078  0.2505 -0.3274 -1.6006
  280MOL0     H37770   1.578   7.004   6.898 -3.1814 -1.3715  1.6087
  280MOL0     H37771   1.613   6.841   6.845 -1.3508 -0.3128  0.3003
  280MOL0     H37772   1.811   6.994   6.781 -4.2346 -0.3974 -0.7127
  280MOL0     H37773   1.836   7.030   6.952  0.4041  0.9112 -1.4809
  280MOL0     H37774   1.867   6.765   6.793  1.1065  1.4752 -1.7314
  280MOL0     H37775   1.875   6.773   6.973 -2.0585  2.8899  1.1104
  280MOL0     H37776   2.101   6.782   6.841 -1.1525 -0.9224 -0.8279
  280MOL0     H37777   2.064   6.940   6.780  2.4151  1.0172  2.2119
  280MOL0     H37778   2.077   6.838   7.066  0.9517  1.5420  1.5324
  280MOL0     H37779   2.034   7.011   7.025  0.6048  0.1799  1.3403
  280MOL0     H37780   2.272   6.943   7.131 -1.7552 -2.5300  0.5408
  280MOL0     H37781   2.264   7.046   6.982  1.3871 -0.8138 -0.7734
  280MOL0     H37782   1.217   6.934   7.146  1.4976 -1.0588 -0.6653
  280MOL0     H37783   1.015   6.873   7.239 -1.6885 -0.4420  1.1664
  280MOL0     H37784   0.693   6.732   7.279  2.9288 -3.3032 -0.1342
  280MOL0     H37785   0.457   6.748   7.335 -0.3526 -1.4044 -0.3054
  280MOL0     H37786   0.660   6.108   7.682  1.6907 -1.1616 -0.0323
  280MOL0     H37787   0.909   6.103   7.628  0.8213  1.3511 -1.2207
  280MOL0     H37788   1.326   6.404   7.594  0.0625  4.0676 -1.7972
  280MOL0     H37789   1.543   6.422   7.520  0.0855  1.0431 -1.0095
  280MOL0     H37790   1.828   6.330   7.376 -0.2954  0.5049 -1.8232
  280MOL0     H37791   1.708   6.193   7.403 -0.1117  0.9731  1.3699
  280MOL0     H37792   1.829   6.265   7.133  1.4826 -1.5291 -0.2912
  280MOL0     H37793   1.718   6.141   7.170  0.7603 -0.2060 -1.2638
  280MOL0     H37794   1.946   6.031   7.172  0.4401  0.0917  0.1649
  280MOL0     H37795   1.924   6.061   7.345 -0.0377  1.3279  0.1001
  280MOL0     H37796   2.033   6.300   7.257 -1.9778  0.0026 -0.3194
  280MOL0     H37797   2.087   6.197   7.118  0.7990 -1.7021  0.1894
  280MOL0     H37798   2.336   6.068   7.444 -0.3871 -1.9370  0.6096
  280MOL0     H37799   1.417   6.228   7.151 -3.3422  1.8294 -1.2451
  280MOL0     H37800   1.212   6.206   7.230  3.3498 -2.1814 -1.3995
  281MOL0     O37801   7.527   8.998   9.062  0.4380  0.1119  0.3528
  281MOL0     C37802   7.597   9.002   8.958  0.0659  0.0066 -0.5905
  281MOL0     O37803   7.560   8.967   8.829 -0.5665 -0.4096 -0.4789
  281MOL0     C37804   7.430   8.949   8.816 -0.2609  0.1774  0.4695
  281MOL0     C37805   7.334   9.042   8.851 -0.1650 -0.7193 -1.0075
  281MOL0     C37806   7.204   9.003   8.854 -0.2439 -0.0524  0.3743
  281MOL0     C37807   7.158   8.883   8.795 -0.2237 -0.1569  0.5880
  281MOL0     O37808   7.025   8.849   8.774 -1.1193  0.8117  0.2826
  281MOL0     C37809   6.923   8.932   8.806 -0.3329  0.4539 -0.3989
  281MOL0     C37810   6.796   8.912   8.720 -0.5630 -0.4008 -0.2566
  281MOL0     C37811   6.825   8.889   8.572 -0.4477  0.2875 -1.0998
  281MOL0     C37812   6.835   8.744   8.535  0.2553  0.8826 -0.2834
  281MOL0     C37813   6.697   8.680   8.513 -0.1705  0.2290  0.2481
  281MOL0     C37814   6.714   8.534   8.486 -0.5732  0.6301 -0.5937
  281MOL0     C37815   6.582   8.458   8.487 -0.1804  0.4877  0.0537
  281MOL0     C37816   6.615   8.316   8.439 -0.3613 -0.7287  0.9032
  281MOL0     N37817   6.509   8.216   8.460  0.5855 -0.0731  0.4801
  281MOL0     C37818   6.463   8.185   8.581 -0.1647  0.2178  0.2283
  281MOL0     C37819   6.391   8.072   8.563  1.3092 -0.2558  0.7158
  281MOL0     C37820   6.291   7.999   8.658 -0.7723 -0.3000  0.4404
  281MOL0     C37821   6.358   7.906   8.754 -0.2856  1.0323 -0.3100
  281MOL0     C37822   6.437   7.791   8.699 -0.8748  0.2746 -0.2907
  281MOL0     C37823   6.574   7.825   8.630 -0.1686 -0.5622  0.3514
  281MOL0     O37824   6.650   7.905   8.721 -0.4201 -0.4003  0.8807
  281MOL0     C37825   6.737   7.999   8.670  0.5123  0.3227 -0.2558
  281MOL0     C37826   6.786   8.016   8.535  1.0488  0.1140  0.1373
  281MOL0     C37827   6.895   8.109   8.513 -0.1202  0.1572  0.1951
  281MOL0     C37828   6.929   8.128   8.362 -0.6771  0.4634 -0.4516
  281MOL0     C37829   6.952   8.190   8.620  0.1916  0.1425 -0.2119
  281MOL0     C37830   7.059   8.294   8.618  0.1045  0.1788  0.5219
  281MOL0     O37831   7.149   8.290   8.514 -0.1312  0.1971  0.5760
  281MOL0     C37832   7.275   8.355   8.524 -0.1990  0.7179 -0.0058
  281MOL0     C37833   7.281   8.500   8.506  0.3205  0.3849 -0.4334
  281MOL0     C37834   7.402   8.573   8.520 -0.3538 -0.0897  0.1573
  281MOL0     C37835   7.519   8.497   8.546  0.7455  0.3675  0.0088
  281MOL0     O37836   7.640   8.560   8.565  0.3515 -0.3278 -0.4545
  281MOL0     C37837   7.706   8.530   8.682  0.2374 -0.2013 -0.8138
  281MOL0     C37838   7.824   8.619   8.717  0.1488 -0.1017  0.5608
  281MOL0     C37839   7.839   8.632   8.877  0.7033  0.9150  0.2339
  281MOL0     C37840   7.982   8.669   8.893  0.9275 -0.8431 -0.4420
  281MOL0     C37841   8.022   8.640   9.051 -0.2881 -0.9695  0.3529
  281MOL0     C37842   7.984   8.754   9.150  0.4844  0.2713  0.0451
  281MOL0     C37843   7.845   8.742   9.211  0.2156 -0.0369  0.2926
  281MOL0     C37844   7.833   8.825   9.342  0.3162  0.8213  0.7353
  281MOL0    Cl37845   7.652   8.877   9.371 -0.2604  0.1810  0.4198
  281MOL0     C37846   7.513   8.356   8.566  0.2623 -0.0441 -0.1529
  281MOL0     C37847   7.391   8.285   8.559 -1.4662 -0.2795  0.2775
  281MOL0     O37848   7.067   8.374   8.713  1.1233  0.2480  0.0746
  281MOL0     C37849   6.881   8.178   8.745  0.8563  0.2219  0.5357
  281MOL0     C37850   6.775   8.089   8.765 -0.1500  0.4417 -0.7315
  281MOL0     N37851   6.384   8.043   8.424  0.1938 -0.4361 -0.4971
  281MOL0     N37852   6.447   8.143   8.363 -0.2244 -0.2558 -0.4144
  281MOL0     C37853   7.251   8.793   8.745 -0.7356 -0.1432  0.0493
  281MOL0     C37854   7.390   8.827   8.766  0.0660 -0.3355 -0.1652
  281MOL0     C37855   7.733   9.054   8.981 -0.5215  0.3400 -0.4711
  281MOL0     C37856   7.811   9.087   8.865 -0.4205  0.4742 -1.5048
  281MOL0     C37857   7.949   9.134   8.873  0.3275  0.0818  0.3364
  281MOL0     C37858   8.001   9.153   9.003  1.1419 -0.1154 -1.5430
  281MOL0     O37859   8.115   9.224   9.005 -0.3729  0.1526 -0.2077
  281MOL0     C37860   8.192   9.214   9.123 -0.6338 -0.6171  1.0927
  281MOL0     C37861   8.334   9.198   9.065 -0.0187  0.2891  0.5388
  281MOL0     C37862   8.363   9.049   9.037  0.1809  0.5314  0.1381
  281MOL0     C37863   8.500   9.019   8.970  0.1597 -0.2181 -0.9839
  281MOL0     C37864   8.602   9.074   9.054 -0.2643  0.3864  0.1833
  281MOL0     C37865   8.677   9.125   9.141 -0.3200  0.0975 -0.3940
  281MOL0     C37866   7.925   9.130   9.122  0.4669  0.0461 -0.7965
  281MOL0     C37867   7.794   9.082   9.106  0.3730  0.8062 -0.1610
  281MOL0     H37868   7.357   9.142   8.886 -3.3571 -0.3147  0.2993
  281MOL0     H37869   7.138   9.075   8.902 -0.9405 -0.7109  0.4295
  281MOL0     H37870   6.893   8.927   8.911 -2.6696  1.8503 -0.9391
  281MOL0     H37871   6.960   9.033   8.786  3.3936 -0.0672  2.6704
  281MOL0     H37872   6.740   8.826   8.756  0.5563 -0.8113  0.5875
  281MOL0     H37873   6.726   8.996   8.718 -0.0453  0.0333 -1.8568
  281MOL0     H37874   6.748   8.932   8.507 -0.6078  0.3799 -0.8490
  281MOL0     H37875   6.921   8.938   8.552 -0.8406  1.5710 -0.0042
  281MOL0     H37876   6.897   8.733   8.445  0.7206  1.0147  0.0184
  281MOL0     H37877   6.882   8.692   8.619  0.2286 -1.9156 -1.8485
  281MOL0     H37878   6.633   8.690   8.601 -3.1326 -0.1749 -1.7214
  281MOL0     H37879   6.643   8.726   8.430 -0.7786 -4.0938 -2.0411
  281MOL0     H37880   6.758   8.515   8.388  0.3946 -0.4526  0.0284
  281MOL0     H37881   6.778   8.494   8.566 -0.0440 -1.3846 -1.9476
  281MOL0     H37882   6.541   8.464   8.588 -0.1792  0.7751  0.0386
  281MOL0     H37883   6.509   8.505   8.419 -0.2258  0.2331 -0.0749
  281MOL0     H37884   6.697   8.283   8.503  1.2704 -0.3932 -0.9108
  281MOL0     H37885   6.643   8.317   8.333  1.3275  0.3362  1.3140
  281MOL0     H37886   6.488   8.232   8.676  1.5683  1.9426 -1.0001
  281MOL0     H37887   6.230   8.073   8.711 -1.2528 -0.5708  0.2736
  281MOL0     H37888   6.218   7.951   8.593 -0.5043  1.3193 -1.1240
  281MOL0     H37889   6.274   7.862   8.808  1.6311 -0.3407  1.7278
  281MOL0     H37890   6.420   7.956   8.828 -0.0063 -2.7507  2.3028
  281MOL0     H37891   6.368   7.743   8.629 -0.6393 -0.1623 -0.2230
  281MOL0     H37892   6.454   7.721   8.781  0.0741 -0.6285 -1.2306
  281MOL0     H37893   6.549   7.877   8.537 -2.0814 -0.4228  0.8942
  281MOL0     H37894   6.624   7.730   8.612 -3.1132 -2.6998  2.4869
  281MOL0     H37895   6.753   7.957   8.450  0.2970  0.0077  0.4968
  281MOL0     H37896   7.024   8.076   8.349 -1.8545 -1.3627 -2.5024
  281MOL0     H37897   6.869   8.073   8.289 -0.5091 -2.3634  1.3602
  281MOL0     H37898   6.940   8.232   8.329  1.1676 -0.0286 -1.5082
  281MOL0     H37899   7.185   8.544   8.478  0.3161  0.1846 -0.7351
  281MOL0     H37900   7.416   8.680   8.507  0.3230 -0.0593  1.0589
  281MOL0     H37901   7.632   8.536   8.762 -0.3005 -3.1255 -0.9922
  281MOL0     H37902   7.739   8.426   8.677 -3.2887 -1.5058  0.0886
  281MOL0     H37903   7.914   8.575   8.674  0.9084  1.5185  0.4276
  281MOL0     H37904   7.805   8.720   8.678 -0.2025 -0.7032 -0.8701
  281MOL0     H37905   7.822   8.536   8.927  1.4897  0.4218 -0.4124
  281MOL0     H37906   7.776   8.705   8.928  0.5015 -0.1096  1.4923
  281MOL0     H37907   8.049   8.617   8.825 -0.1735 -2.5554 -0.2811
  281MOL0     H37908   7.982   8.776   8.873  1.8871 -0.6396  0.5512
  281MOL0     H37909   8.131   8.625   9.044 -0.0047  1.3605 -1.8442
  281MOL0     H37910   7.972   8.552   9.090  0.5922 -1.7801 -0.3042
  281MOL0     H37911   8.057   8.756   9.231 -0.1042  0.5781  0.5775
  281MOL0     H37912   7.995   8.851   9.099 -0.4695  1.0937  1.3239
  281MOL0     H37913   7.834   8.636   9.236 -0.3718  0.2655  1.3841
  281MOL0     H37914   7.775   8.777   9.134  1.2201 -4.4555 -3.0382
  281MOL0     H37915   7.888   8.919   9.325 -0.1520  0.9608 -0.0617
  281MOL0     H37916   7.878   8.777   9.429 -0.2179 -1.0256  0.0335
  281MOL0     H37917   7.597   8.291   8.590  1.2114  1.3267  0.3712
  281MOL0     H37918   7.400   8.178   8.577  1.3384 -0.1482  0.0707
  281MOL0     H37919   6.897   8.244   8.830  3.1443 -0.5093  0.7356
  281MOL0     H37920   6.727   8.085   8.863 -0.0715  0.4917 -0.6910
  281MOL0     H37921   7.229   8.700   8.694  0.1887 -1.0909  1.3093
  281MOL0     H37922   7.470   8.759   8.737 -0.9449 -0.4461 -3.0727
  281MOL0     H37923   7.758   9.066   8.773 -2.2946  0.8920 -0.5790
  281MOL0     H37924   8.016   9.145   8.788 -1.0369 -2.7558 -1.2476
  281MOL0     H37925   8.177   9.306   9.180 -1.3789  0.9697 -1.4931
  281MOL0     H37926   8.185   9.125   9.187  1.7598 -1.8935 -0.3037
  281MOL0     H37927   8.404   9.236   9.140 -1.4593 -0.3458  2.2863
  281MOL0     H37928   8.334   9.256   8.972  0.0515 -0.8467 -0.1939
  281MOL0     H37929   8.281   9.019   8.971  1.7474 -1.6580 -0.9398
  281MOL0     H37930   8.349   8.991   9.128 -0.4000 -0.8093 -0.7684
  281MOL0     H37931   8.510   9.069   8.873 -1.1976  1.4696 -0.2990
  281MOL0     H37932   8.522   8.912   8.959 -2.1839 -0.6956 -1.5865
  281MOL0     H37933   8.741   9.159   9.220  0.8433 -2.2550 -0.2478
  281MOL0     H37934   7.962   9.162   9.219 -2.0820  1.5106 -0.2076
  281MOL0     H37935   7.716   9.070   9.181 -1.7773  1.3448 -2.2079
  282MOL0     O37936   8.440   2.623   0.636  0.1508 -0.7399  0.4994
  282MOL0     C37937   8.518   2.716   0.607  0.0588 -0.1244 -0.9589
  282MOL0     O37938   8.490   2.818   0.522  0.2583  0.2929  1.0708
  282MOL0     C37939   8.360   2.848   0.489 -0.7593  0.2426  0.1722
  282MOL0     C37940   8.317   2.791   0.372 -0.1525 -0.3245  0.0753
  282MOL0     C37941   8.189   2.824   0.322  0.6306  0.2094 -0.1316
  282MOL0     C37942   8.101   2.901   0.406 -0.6048  0.4232  0.9727
  282MOL0     O37943   7.970   2.952   0.367 -0.1911  0.0287 -1.0259
  282MOL0     C37944   7.885   2.842   0.333  0.9396  1.0564 -0.1080
  282MOL0     C37945   7.740   2.894   0.309  0.3266 -0.3423  0.1956
  282MOL0     C37946   7.665   2.935   0.430 -0.5617  0.9248  0.0972
  282MOL0     C37947   7.528   2.998   0.389 -0.6055  0.5417  0.2957
  282MOL0     C37948   7.446   2.995   0.515  0.0247 -0.7162  0.3483
  282MOL0     C37949   7.308   3.064   0.482  0.3514 -0.4050 -0.7501
  282MOL0     C37950   7.198   3.029   0.582 -0.4367 -0.5207  0.2195
  282MOL0     C37951   7.221   3.076   0.728 -0.0761  0.0706 -0.4311
  282MOL0     N37952   7.118   3.028   0.822 -0.0175 -0.1476 -0.0427
  282MOL0     C37953   7.003   3.098   0.843  0.5352 -0.0929 -0.9046
  282MOL0     C37954   6.919   3.004   0.903  0.4396 -0.0320 -0.3635
  282MOL0     C37955   6.778   3.024   0.949  0.2636  0.9057  0.5644
  282MOL0     C37956   6.777   3.124   1.050 -0.6236 -0.2802 -0.4583
  282MOL0     C37957   6.633   3.139   1.111 -0.6356 -0.4045 -0.0651
  282MOL0     C37958   6.509   3.178   1.023 -1.2459  0.8164  0.2564
  282MOL0     O37959   6.394   3.216   1.102  0.7273  0.2160  0.0332
  282MOL0     C37960   6.266   3.214   1.055 -0.2655  1.0518  0.5068
  282MOL0     C37961   6.232   3.201   0.920 -0.2758  0.4359 -0.2836
  282MOL0     C37962   6.105   3.189   0.864  0.1191  0.3019 -0.6434
  282MOL0     C37963   6.090   3.151   0.715 -1.0487  0.2631  0.0077
  282MOL0     C37964   5.990   3.202   0.954  0.1111  0.9590  0.1187
  282MOL0     C37965   5.846   3.193   0.918  0.6625  0.7902  0.6011
  282MOL0     O37966   5.756   3.226   1.016 -0.8314 -0.2569 -0.2738
  282MOL0     C37967   5.628   3.258   0.976 -0.1472  0.5147  0.0290
  282MOL0     C37968   5.599   3.364   0.887 -0.0666 -0.3399  0.0451
  282MOL0     C37969   5.465   3.391   0.850  0.2080  0.1711 -0.3140
  282MOL0     C37970   5.364   3.315   0.903  0.2577 -0.5994  0.4011
  282MOL0     O37971   5.236   3.319   0.866  0.6111  0.0127  0.0731
  282MOL0     C37972   5.174   3.434   0.806  0.9314 -0.4996  0.2769
  282MOL0     C37973   5.034   3.408   0.745 -0.8658 -0.7523  0.0320
  282MOL0     C37974   4.989   3.509   0.645  0.3845 -0.2619  0.1584
  282MOL0     C37975   4.847   3.457   0.580  0.1830  0.2314  0.3104
  282MOL0     C37976   4.768   3.559   0.492  0.8538  0.3252 -1.1340
  282MOL0     C37977   4.638   3.487   0.448  0.4363  0.2090 -1.1088
  282MOL0     C37978   4.551   3.566   0.345  0.3179  0.3169  0.2759
  282MOL0     C37979   4.418   3.509   0.315  0.8208 -0.2307 -0.3767
  282MOL0    Cl37980   4.424   3.345   0.232  0.0344  0.1576  0.0749
  282MOL0     C37981   5.384   3.222   1.003  0.1229  0.1100 -0.2782
  282MOL0     C37982   5.520   3.192   1.032 -0.1778  0.5002  0.5016
  282MOL0     O37983   5.813   3.149   0.812 -0.9975 -0.6442 -0.0015
  282MOL0     C37984   6.029   3.216   1.087  0.1561 -0.5947  0.4042
  282MOL0     C37985   6.156   3.219   1.135 -0.2826  0.3738 -0.1352
  282MOL0     N37986   6.987   2.890   0.932 -0.2645 -0.0468 -0.3526
  282MOL0     N37987   7.101   2.909   0.879 -0.5981 -1.0615  0.4075
  282MOL0     C37988   8.148   2.946   0.525  0.3511  1.0028  0.2668
  282MOL0     C37989   8.277   2.929   0.575 -0.7412 -0.3727 -0.6967
  282MOL0     C37990   8.650   2.720   0.655  0.4146  0.6603 -0.2616
  282MOL0     C37991   8.674   2.677   0.789 -0.4081  0.1620 -0.6537
  282MOL0     C37992   8.796   2.670   0.846 -1.2297  1.2496  0.2577
  282MOL0     C37993   8.910   2.694   0.763 -0.1965 -0.6324 -0.1799
  282MOL0     O37994   9.022   2.682   0.835 -0.3531 -0.6662 -0.4204
  282MOL0     C37995   9.140   2.641   0.766  0.3174  0.0533 -0.1908
  282MOL0     C37996   9.188   2.513   0.830  0.0911  0.4397 -0.1079
  282MOL0     C37997   9.318   2.469   0.768  0.2720 -0.0235 -0.8189
  282MOL0     C37998   9.295   2.387   0.646 -0.5066 -0.2746 -0.8473
  282MOL0     C37999   9.249   2.259   0.683 -0.5462 -0.3603 -0.2472
  282MOL0     C38000   9.219   2.146   0.723  0.1523 -0.3391  0.2598
  282MOL0     C38001   8.893   2.739   0.628 -0.1694 -0.1994  0.8688
  282MOL0     C38002   8.761   2.756   0.577 -0.2099  0.0700 -0.8124
  282MOL0     H38003   8.385   2.728   0.315 -1.4460 -0.5314 -1.3051
  282MOL0     H38004   8.161   2.799   0.220 -1.5356  3.4846 -0.5027
  282MOL0     H38005   7.924   2.804   0.238  1.9767  3.5430 -0.7622
  282MOL0     H38006   7.881   2.762   0.407 -0.3735  2.1974  1.1239
  282MOL0     H38007   7.743   2.973   0.234 -0.7839 -0.2707  0.2084
  282MOL0     H38008   7.688   2.808   0.264  1.0398 -1.4996  1.5140
  282MOL0     H38009   7.648   2.853   0.500 -1.6386  3.2607  2.7563
  282MOL0     H38010   7.723   3.011   0.483  2.3420 -1.1012  0.0921
  282MOL0     H38011   7.542   3.101   0.357  2.3583 -0.4646 -2.1453
  282MOL0     H38012   7.493   2.943   0.301 -2.9653  0.8016  1.0117
  282MOL0     H38013   7.432   2.896   0.559 -0.9951 -1.0029 -0.5767
  282MOL0     H38014   7.508   3.052   0.585  0.0419 -2.3838  1.7573
  282MOL0     H38015   7.326   3.172   0.484 -0.1351 -0.2621 -2.6523
  282MOL0     H38016   7.268   3.045   0.382 -1.9383  1.7939 -0.3566
  282MOL0     H38017   7.103   3.071   0.547 -0.1385  1.1816  1.2893
  282MOL0     H38018   7.187   2.921   0.580 -0.2831 -0.5476  0.7344
  282MOL0     H38019   7.228   3.185   0.737  0.4449 -0.1173  3.3341
  282MOL0     H38020   7.318   3.035   0.758  0.2644  1.0036 -0.2205
  282MOL0     H38021   6.988   3.205   0.829  2.4391  0.7927  2.6325
  282MOL0     H38022   6.719   3.057   0.863  1.2898  1.4515  0.0608
  282MOL0     H38023   6.737   2.931   0.989 -1.4552  1.7107  0.7848
  282MOL0     H38024   6.813   3.217   1.004  0.7178 -0.7644 -0.4267
  282MOL0     H38025   6.847   3.111   1.133 -2.8054  0.6444  1.6857
  282MOL0     H38026   6.635   3.215   1.191  1.8176  0.0377 -0.4645
  282MOL0     H38027   6.607   3.041   1.151 -4.1109  0.2515 -0.4578
  282MOL0     H38028   6.500   3.087   0.963  2.6237  0.4760 -0.0980
  282MOL0     H38029   6.522   3.263   0.956 -1.6571  1.0468  0.4638
  282MOL0     H38030   6.316   3.197   0.851 -1.6047 -0.1852 -1.9117
  282MOL0     H38031   6.018   3.221   0.674 -2.5349 -0.1773  1.7304
  282MOL0     H38032   6.188   3.156   0.666 -0.5023  0.8547  1.1147
  282MOL0     H38033   6.064   3.044   0.716  1.8797 -0.6088  3.3061
  282MOL0     H38034   5.677   3.423   0.841  0.1729 -0.8997 -0.2828
  282MOL0     H38035   5.444   3.461   0.770  1.3516 -0.0619 -0.8397
  282MOL0     H38036   5.174   3.519   0.875  1.6756 -0.0147 -0.2988
  282MOL0     H38037   5.225   3.459   0.713 -0.8089 -2.6639 -1.3656
  282MOL0     H38038   5.046   3.312   0.693 -0.2880 -0.3627 -0.5739
  282MOL0     H38039   4.962   3.393   0.825 -0.0489  0.3826  1.0228
  282MOL0     H38040   5.055   3.509   0.558 -1.2030 -0.2553 -1.0919
  282MOL0     H38041   4.978   3.610   0.686 -0.2687 -1.2847  2.7043
  282MOL0     H38042   4.870   3.372   0.515 -3.2235 -1.9176  1.6653
  282MOL0     H38043   4.783   3.417   0.659  0.8375 -1.4508  0.0215
  282MOL0     H38044   4.825   3.577   0.400  1.2434  1.1112 -0.7504
  282MOL0     H38045   4.739   3.649   0.546 -1.5452  0.0892 -1.9258
  282MOL0     H38046   4.656   3.385   0.412  0.9252 -0.1544  0.1224
  282MOL0     H38047   4.580   3.487   0.541 -0.4513 -1.0665 -1.6300
  282MOL0     H38048   4.616   3.573   0.257  1.9141 -0.3794  1.3585
  282MOL0     H38049   4.539   3.668   0.382 -0.8038  1.1961 -2.2688
  282MOL0     H38050   4.371   3.581   0.247 -0.2278  0.3243  0.8899
  282MOL0     H38051   4.362   3.490   0.408 -1.8787  0.3597 -1.7591
  282MOL0     H38052   5.310   3.157   1.047  0.2918 -1.6092 -2.4190
  282MOL0     H38053   5.547   3.111   1.099 -1.8565  2.0785  3.2611
  282MOL0     H38054   5.949   3.236   1.157 -0.4247  3.0117 -1.1174
  282MOL0     H38055   6.172   3.231   1.242 -2.5635 -2.1547  0.5908
  282MOL0     H38056   8.084   3.017   0.577  0.8888  1.5874  0.1443
  282MOL0     H38057   8.328   2.975   0.660 -0.4880  0.9569 -1.5359
  282MOL0     H38058   8.590   2.649   0.852  1.2418  0.1998  1.7099
  282MOL0     H38059   8.804   2.638   0.950  1.5712  2.9372  0.6572
  282MOL0     H38060   9.104   2.625   0.664  0.8835  1.9732 -0.7489
  282MOL0     H38061   9.221   2.713   0.777  0.1017  0.0149  1.9935
  282MOL0     H38062   9.106   2.442   0.816  1.7471 -2.2349  2.4908
  282MOL0     H38063   9.208   2.535   0.935 -1.5752  0.7172  0.1856
  282MOL0     H38064   9.368   2.408   0.844 -1.6454  0.6836  1.1091
  282MOL0     H38065   9.379   2.558   0.748 -0.5402  0.9633  0.9272
  282MOL0     H38066   9.389   2.366   0.594 -0.5352 -2.1905 -0.2368
  282MOL0     H38067   9.224   2.431   0.576 -2.6563  0.3516  1.6115
  282MOL0     H38068   9.196   2.047   0.756 -2.9959 -0.2146 -1.2260
  282MOL0     H38069   8.976   2.770   0.566 -1.1437  2.0106  0.5602
  282MOL0     H38070   8.748   2.786   0.473 -2.5296 -0.5832 -0.7670
  283MOL0     O38071   0.688   2.404   1.326 -0.3462 -0.1384  0.0268
  283MOL0     C38072   0.768   2.319   1.294  0.2011  1.0812 -0.3883
  283MOL0     O38073   0.736   2.190   1.245 -0.1845 -0.2966 -0.3093
  283MOL0     C38074   0.594   2.159   1.251 -0.3743  0.5591  0.4689
  283MOL0     C38075   0.504   2.199   1.151  0.4673 -0.2617  0.4443
  283MOL0     C38076   0.368   2.182   1.158  0.0006  0.5215 -0.1488
  283MOL0     C38077   0.315   2.120   1.276  0.1132  0.1788  0.6506
  283MOL0     O38078   0.186   2.079   1.299 -0.6447 -0.3079 -0.1009
  283MOL0     C38079   0.080   2.096   1.205  0.9765 -0.2690  0.8002
  283MOL0     C38080   0.097   1.977   1.110  0.1523  0.1583 -0.1895
  283MOL0     C38081   0.006   2.003   0.988  0.1003 -0.8301 -0.5555
  283MOL0     C38082  -0.140   2.005   1.022  0.4818  0.2398  0.2524
  283MOL0     C38083  -0.215   2.049   0.896 -0.1896  0.2200  0.4084
  283MOL0     C38084  -0.363   2.083   0.906  0.2478  0.9156  1.2349
  283MOL0     C38085  -0.447   2.043   0.775 -0.2119 -0.2889 -0.2085
  283MOL0     C38086  -0.597   2.052   0.792 -0.2747  0.3948  0.1199
  283MOL0     N38087  -0.648   1.944   0.871 -0.1265  0.4253 -0.0344
  283MOL0     C38088  -0.667   1.948   1.003  0.8807 -0.4436  0.2333
  283MOL0     C38089  -0.724   1.828   1.032 -0.6063 -0.0127 -0.4857
  283MOL0     C38090  -0.736   1.770   1.172 -0.6982 -1.0260  0.4570
  283MOL0     C38091  -0.875   1.799   1.226  0.2251 -0.4153  0.6140
  283MOL0     C38092  -0.916   1.942   1.231 -0.0804  0.2655  0.8587
  283MOL0     C38093  -0.827   2.035   1.316  0.5661  0.4908  0.3927
  283MOL0     O38094  -0.803   1.975   1.448 -0.2644  0.4950  0.1807
  283MOL0     C38095  -0.892   1.997   1.553 -0.5007 -0.9137  0.4537
  283MOL0     C38096  -0.847   1.947   1.688  0.5266 -0.0276  1.4257
  283MOL0     C38097  -0.939   1.950   1.800  0.0869 -1.1599  0.2102
  283MOL0     C38098  -0.883   1.871   1.919  0.0162 -0.8058  1.5408
  283MOL0     C38099  -1.068   2.011   1.778 -0.7723  0.0388  0.6240
  283MOL0     C38100  -1.175   2.023   1.882 -1.0251 -0.4715 -0.4029
  283MOL0     O38101  -1.310   2.038   1.841  0.3489 -0.1077  0.3866
  283MOL0     C38102  -1.394   2.091   1.941 -0.1006  0.5951  0.2211
  283MOL0     C38103  -1.507   2.012   1.961  0.2496 -0.0451 -0.2831
  283MOL0     C38104  -1.613   2.066   2.033 -0.3224 -0.2224  0.2756
  283MOL0     C38105  -1.602   2.194   2.091  1.0186  0.8486  0.1444
  283MOL0     O38106  -1.706   2.249   2.167 -0.0891  0.4094  0.4032
  283MOL0     C38107  -1.838   2.232   2.115 -0.4520 -0.1764 -0.2066
  283MOL0     C38108  -1.945   2.301   2.186  0.6436  0.1708 -0.3551
  283MOL0     C38109  -2.078   2.261   2.130 -0.0855 -0.2619 -0.6111
  283MOL0     C38110  -2.193   2.365   2.161  0.3382  0.5492  0.4313
  283MOL0     C38111  -2.230   2.387   2.313  0.3237 -0.1022 -0.4682
  283MOL0     C38112  -2.297   2.258   2.379  0.7105  0.9917 -0.0878
  283MOL0     C38113  -2.342   2.268   2.525 -0.0176  0.2527 -0.6018
  283MOL0     C38114  -2.405   2.134   2.579  0.2845 -0.6643 -0.1771
  283MOL0    Cl38115  -2.451   2.131   2.751  0.2752  0.5202 -0.4395
  283MOL0     C38116  -1.481   2.264   2.081  0.1667 -0.1740  0.5466
  283MOL0     C38117  -1.375   2.217   2.000  0.0455  0.4624 -0.6165
  283MOL0     O38118  -1.136   2.037   1.998  0.1134 -0.4496 -0.0307
  283MOL0     C38119  -1.088   2.075   1.656  0.4722 -1.0966  0.4368
  283MOL0     C38120  -1.010   2.078   1.549 -0.2842 -0.0052  0.0266
  283MOL0     N38121  -0.740   1.758   0.918  0.1022 -0.2520 -0.1523
  283MOL0     N38122  -0.695   1.826   0.821 -0.1057  0.0684  0.1692
  283MOL0     C38123   0.405   2.076   1.370 -0.1424 -0.5358 -0.1237
  283MOL0     C38124   0.550   2.095   1.367  0.9319  1.0591 -0.0540
  283MOL0     C38125   0.909   2.352   1.301  0.4770  0.2604  0.6704
  283MOL0     C38126   1.004   2.254   1.254 -0.0016  0.2993 -0.9880
  283MOL0     C38127   1.146   2.286   1.256  0.0905  0.0193  0.1241
  283MOL0     C38128   1.189   2.416   1.302  0.5711 -0.1340 -0.1359
  283MOL0     O38129   1.324   2.422   1.290 -0.1034 -0.2194 -0.1054
  283MOL0     C38130   1.370   2.545   1.342 -0.1166  0.5132  0.9716
  283MOL0     C38131   1.511   2.551   1.285 -0.9464 -0.3683  0.0764
  283MOL0     C38132   1.597   2.681   1.302  0.5302 -0.2210  0.7448
  283MOL0     C38133   1.556   2.764   1.415  0.3134 -0.0109 -0.4232
  283MOL0     C38134   1.641   2.879   1.442  0.6688  0.8186  0.4297
  283MOL0     C38135   1.724   2.955   1.464 -0.1275 -0.6481 -0.2125
  283MOL0     C38136   1.088   2.502   1.355 -0.0916 -0.1779 -0.5745
  283MOL0     C38137   0.954   2.469   1.357  0.6223  0.4234  0.2422
  283MOL0     H38138   0.552   2.248   1.067  0.6414 -0.9243  0.1454
  283MOL0     H38139   0.298   2.211   1.081 -1.3843  0.6820  1.1219
  283MOL0     H38140  -0.010   2.087   1.265  1.3365  0.3520  1.4486
  283MOL0     H38141   0.083   2.196   1.161 -0.5076 -0.5073  0.1053
  283MOL0     H38142   0.201   1.962   1.079  0.8978 -0.0851  2.2584
  283MOL0     H38143   0.070   1.878   1.147 -1.3017  1.6198  3.0651
  283MOL0     H38144   0.024   2.107   0.958 -0.6514 -0.4097  0.3950
  283MOL0     H38145   0.024   1.940   0.900  0.6693  0.0962 -1.1166
  283MOL0     H38146  -0.179   1.914   1.069 -0.0707  0.1531 -0.3637
  283MOL0     H38147  -0.167   2.078   1.100  1.5023 -0.0893  0.9338
  283MOL0     H38148  -0.163   2.131   0.845 -0.5979 -0.1335 -0.6010
  283MOL0     H38149  -0.220   1.967   0.824 -1.3006  1.1614 -0.6370
  283MOL0     H38150  -0.401   2.024   0.990 -2.4604  0.1123 -0.4014
  283MOL0     H38151  -0.384   2.183   0.947 -2.4082  0.3348  1.4733
  283MOL0     H38152  -0.421   2.120   0.702 -1.3393 -0.4821 -0.8347
  283MOL0     H38153  -0.407   1.949   0.736  1.5102  0.0486  0.6581
  283MOL0     H38154  -0.638   2.049   0.691  1.4378  0.4904 -0.6254
  283MOL0     H38155  -0.626   2.146   0.840 -1.8120 -0.3729  0.7593
  283MOL0     H38156  -0.659   2.028   1.076 -1.6070 -0.0910  0.2234
  283MOL0     H38157  -0.712   1.664   1.177 -0.4358 -0.9052  3.0457
  283MOL0     H38158  -0.653   1.807   1.233  1.2934 -1.7595 -1.6596
  283MOL0     H38159  -0.877   1.752   1.325 -5.9002 -1.6291  0.3311
  283MOL0     H38160  -0.944   1.742   1.162  3.8386 -1.7527 -2.5005
  283MOL0     H38161  -1.019   1.942   1.270 -0.0481  3.8058  1.2343
  283MOL0     H38162  -0.918   1.985   1.130  0.5854 -1.6500 -0.0214
  283MOL0     H38163  -0.886   2.124   1.338 -1.6357 -1.1618  1.5423
  283MOL0     H38164  -0.735   2.064   1.264 -0.6125 -0.9457 -2.7644
  283MOL0     H38165  -0.760   1.882   1.684 -0.1591 -0.9060 -0.8383
  283MOL0     H38166  -0.935   1.897   2.012 -1.5415 -1.0168  0.7451
  283MOL0     H38167  -0.896   1.763   1.908  1.9492 -0.9171 -0.2629
  283MOL0     H38168  -0.777   1.890   1.940  0.1351 -2.2945  2.5108
  283MOL0     H38169  -1.518   1.910   1.926  0.5705 -0.7359  1.4960
  283MOL0     H38170  -1.698   2.000   2.046 -1.5938  1.3546  0.3844
  283MOL0     H38171  -1.838   2.274   2.014  0.6497  3.5307  1.1599
  283MOL0     H38172  -1.858   2.125   2.116 -1.6157  0.0038 -1.5341
  283MOL0     H38173  -1.933   2.276   2.292  0.6419 -0.0882 -0.4157
  283MOL0     H38174  -1.931   2.409   2.172 -0.2956  0.3472 -0.0035
  283MOL0     H38175  -2.109   2.165   2.171 -2.0707  0.5002 -0.1758
  283MOL0     H38176  -2.059   2.252   2.022  0.9281 -1.9061 -0.3296
  283MOL0     H38177  -2.158   2.456   2.112  3.6053 -2.0838 -2.7010
  283MOL0     H38178  -2.279   2.333   2.102  1.1154  0.8238 -0.8788
  283MOL0     H38179  -2.306   2.465   2.332 -1.6655 -2.6301  3.3315
  283MOL0     H38180  -2.139   2.419   2.364  1.9343 -0.9041 -2.6987
  283MOL0     H38181  -2.385   2.244   2.314  1.4348  1.6432 -1.2456
  283MOL0     H38182  -2.235   2.170   2.361  0.3016  0.7763 -0.4517
  283MOL0     H38183  -2.425   2.338   2.523  0.9111  1.4368  0.5568
  283MOL0     H38184  -2.265   2.308   2.592 -2.1218  2.0582  0.8595
  283MOL0     H38185  -2.329   2.058   2.558  0.1180 -2.0237  3.5017
  283MOL0     H38186  -2.487   2.118   2.508  2.0695 -2.3612 -1.9899
  283MOL0     H38187  -1.480   2.368   2.112  1.0427 -0.6948  2.3963
  283MOL0     H38188  -1.297   2.283   1.966 -2.0102  2.2527 -2.1112
  283MOL0     H38189  -1.182   2.126   1.637 -0.3387 -2.3100  1.0666
  283MOL0     H38190  -1.038   2.127   1.456  2.3467 -0.1234 -0.8873
  283MOL0     H38191   0.363   2.016   1.450 -2.3828 -0.2173 -1.0040
  283MOL0     H38192   0.617   2.058   1.444  0.5813 -2.0394 -1.0628
  283MOL0     H38193   0.993   2.153   1.215 -0.9555  0.0619 -0.1416
  283MOL0     H38194   1.221   2.210   1.234  2.3868  1.3814  2.7111
  283MOL0     H38195   1.305   2.625   1.305 -3.5756 -2.6862 -0.4812
  283MOL0     H38196   1.370   2.555   1.451  0.7309  0.0571  1.0222
  283MOL0     H38197   1.518   2.536   1.177  1.4461  1.6052 -0.1335
  283MOL0     H38198   1.572   2.472   1.332 -0.5770 -0.8739 -1.2017
  283MOL0     H38199   1.587   2.732   1.206  3.4147 -1.1355 -0.1272
  283MOL0     H38200   1.703   2.660   1.315  0.8258  0.2266 -0.7545
  283MOL0     H38201   1.564   2.703   1.506  1.5598 -0.6902 -0.9732
  283MOL0     H38202   1.448   2.785   1.411  0.1697 -0.7519 -0.5197
  283MOL0     H38203   1.787   3.041   1.478 -1.3829  0.3767 -0.5988
  283MOL0     H38204   1.110   2.604   1.386  1.7972  0.4554 -3.6310
  283MOL0     H38205   0.885   2.543   1.396  1.4566  1.1360  0.4005
  284MOL0     O38206   9.705   5.974   1.717 -0.2978  0.1537 -0.0532
  284MOL0     C38207   9.792   6.028   1.788  0.0006 -0.1068 -0.0472
  284MOL0     O38208   9.818   6.006   1.916  0.6419 -0.0849 -0.0255
  284MOL0     C38209   9.719   5.928   1.989 -0.7629 -0.2923 -1.1678
  284MOL0     C38210   9.641   5.995   2.088 -0.5009 -0.0098  0.3414
  284MOL0     C38211   9.561   5.922   2.168  1.0333 -0.9954 -0.3548
  284MOL0     C38212   9.553   5.780   2.169 -0.3104 -0.5751  0.2797
  284MOL0     O38213   9.489   5.701   2.258  0.2649  0.7364 -0.2646
  284MOL0     C38214   9.403   5.764   2.354 -0.2975  0.3031  0.5016
  284MOL0     C38215   9.297   5.671   2.410 -0.2347  0.3071  0.6944
  284MOL0     C38216   9.194   5.651   2.295  0.2360  0.3144 -0.7001
  284MOL0     C38217   9.132   5.779   2.237 -0.3224 -0.4334 -0.2614
  284MOL0     C38218   9.007   5.740   2.164  0.0786 -0.0264  0.0419
  284MOL0     C38219   8.953   5.864   2.096  0.6348 -0.0848 -0.8439
  284MOL0     C38220   8.823   5.834   2.021  0.1443  0.4890 -0.1514
  284MOL0     C38221   8.696   5.800   2.114  0.3439  0.6515 -0.2532
  284MOL0     N38222   8.570   5.778   2.041 -0.1626 -0.0209 -0.6925
  284MOL0     C38223   8.496   5.668   2.051  0.0186  0.5460  1.4082
  284MOL0     C38224   8.389   5.698   1.972  1.0473 -0.1306  0.7992
  284MOL0     C38225   8.260   5.607   1.955  0.1057  0.0577 -0.5363
  284MOL0     C38226   8.239   5.548   1.812  0.1452  0.2271  0.6864
  284MOL0     C38227   8.194   5.655   1.710  1.0983 -0.8861 -0.0251
  284MOL0     C38228   8.175   5.590   1.569  0.1970 -0.4129 -0.6181
  284MOL0     O38229   8.272   5.634   1.471  0.0023 -0.0405  0.0991
  284MOL0     C38230   8.260   5.765   1.426  0.4611  0.3580 -0.1793
  284MOL0     C38231   8.378   5.840   1.397 -0.0758 -0.2532 -0.0491
  284MOL0     C38232   8.371   5.971   1.343 -0.0284  0.2260  0.2293
  284MOL0     C38233   8.503   6.033   1.311  0.0767  0.7228 -0.1950
  284MOL0     C38234   8.244   6.036   1.319 -0.8018  0.2296 -0.6717
  284MOL0     C38235   8.222   6.181   1.291 -1.1889  0.0267 -0.0763
  284MOL0     O38236   8.099   6.227   1.341  0.2615 -1.1257  0.3614
  284MOL0     C38237   8.046   6.350   1.306 -0.4590 -0.0056 -0.2241
  284MOL0     C38238   7.914   6.350   1.266  0.2791  0.2550  0.3124
  284MOL0     C38239   7.850   6.469   1.227 -0.3747 -0.5309 -0.5785
  284MOL0     C38240   7.923   6.591   1.226 -0.3628 -0.1448  0.2122
  284MOL0     O38241   7.878   6.708   1.176  0.7134 -0.4643 -0.0620
  284MOL0     C38242   7.765   6.722   1.090 -0.5235 -0.2452  0.1960
  284MOL0     C38243   7.793   6.669   0.945  0.1588  0.4859 -0.1639
  284MOL0     C38244   7.688   6.713   0.845  0.8353 -0.1343 -0.3888
  284MOL0     C38245   7.577   6.596   0.839  0.9384  0.2276  0.4995
  284MOL0     C38246   7.469   6.615   0.727  0.0763  0.9987 -0.3386
  284MOL0     C38247   7.392   6.479   0.697  0.4046  0.0087  0.1601
  284MOL0     C38248   7.381   6.462   0.549  0.2924  0.6836  0.2549
  284MOL0     C38249   7.347   6.319   0.511 -0.6312  0.6024  1.1248
  284MOL0    Cl38250   7.502   6.213   0.522  0.7570  0.0749 -0.2553
  284MOL0     C38251   8.058   6.585   1.266 -0.0724 -0.6758  0.8481
  284MOL0     C38252   8.121   6.469   1.307  0.1457  0.0815  0.5216
  284MOL0     O38253   8.297   6.256   1.227 -0.5219 -0.5729 -0.0211
  284MOL0     C38254   8.132   5.959   1.346  0.3586 -0.7025  0.8449
  284MOL0     C38255   8.139   5.830   1.398  0.2525  0.3787  0.5254
  284MOL0     N38256   8.403   5.825   1.912 -0.3900 -0.0466 -0.2893
  284MOL0     N38257   8.513   5.870   1.967 -0.2860 -0.0546 -0.1293
  284MOL0     C38258   9.631   5.718   2.066  0.4563 -0.6055 -0.1959
  284MOL0     C38259   9.715   5.790   1.981  0.2633 -0.2132  0.9607
  284MOL0     C38260   9.894   6.107   1.712  0.1152 -0.2117  0.4358
  284MOL0     C38261   9.986   6.204   1.770 -0.0082 -0.7975  0.0531
  284MOL0     C38262  10.078   6.270   1.693  0.6427 -0.1896  0.6266
  284MOL0     C38263  10.079   6.254   1.555 -0.1638  0.3295  0.5723
  284MOL0     O38264  10.164   6.330   1.487 -0.3011 -0.4507  0.3240
  284MOL0     C38265  10.144   6.350   1.345 -0.4978 -0.6565 -0.0061
  284MOL0     C38266  10.199   6.488   1.317  0.3437  0.6404 -0.3728
  284MOL0     C38267  10.346   6.519   1.354 -0.9201 -0.0636  0.1737
  284MOL0     C38268  10.376   6.524   1.508 -0.0176 -0.8672  0.3022
  284MOL0     C38269  10.491   6.615   1.521  0.0001  0.5383  0.3516
  284MOL0     C38270  10.601   6.666   1.540 -0.8746 -0.1092  0.0898
  284MOL0     C38271   9.986   6.176   1.487 -0.0278 -0.3572  0.3240
  284MOL0     C38272   9.904   6.094   1.565  0.6446  0.4018 -0.0958
  284MOL0     H38273   9.659   6.102   2.090  0.2916 -0.1440  1.9259
  284MOL0     H38274   9.493   5.979   2.230  0.3988 -1.3212 -0.7476
  284MOL0     H38275   9.460   5.804   2.439 -2.8558  2.9277  1.1286
  284MOL0     H38276   9.359   5.856   2.314 -0.4607  0.4778  1.0827
  284MOL0     H38277   9.341   5.574   2.437  1.3417  0.8625  0.1753
  284MOL0     H38278   9.253   5.707   2.504  0.1078  0.4805  0.7901
  284MOL0     H38279   9.241   5.594   2.214 -3.0311 -0.8139 -1.9570
  284MOL0     H38280   9.116   5.583   2.329 -0.8367  2.3702  1.2572
  284MOL0     H38281   9.119   5.849   2.319  1.5340 -0.7749  0.3543
  284MOL0     H38282   9.200   5.834   2.172  0.4167  2.0921  2.4479
  284MOL0     H38283   9.025   5.670   2.082 -2.5237  0.3669 -0.9865
  284MOL0     H38284   8.929   5.704   2.232 -0.3105  1.0983  0.2314
  284MOL0     H38285   8.956   5.943   2.172 -1.4362  0.3491 -1.1640
  284MOL0     H38286   9.030   5.902   2.027 -0.3668  2.6244 -0.6043
  284MOL0     H38287   8.796   5.920   1.959 -3.5697  0.8866  1.6792
  284MOL0     H38288   8.849   5.758   1.947 -1.5138 -0.8904  0.5963
  284MOL0     H38289   8.674   5.885   2.179  2.8363  0.7729  0.5364
  284MOL0     H38290   8.709   5.715   2.182  0.1976  0.0997 -0.9074
  284MOL0     H38291   8.520   5.571   2.093 -1.3049 -0.7145 -0.5842
  284MOL0     H38292   8.265   5.527   2.030 -0.7689  1.8903  1.5673
  284MOL0     H38293   8.165   5.650   1.989  1.3318 -0.4565  4.3637
  284MOL0     H38294   8.169   5.464   1.810  0.4574 -0.0282  0.2794
  284MOL0     H38295   8.333   5.506   1.776 -0.1222  0.6398 -0.5546
  284MOL0     H38296   8.266   5.736   1.698 -0.3854  0.1630 -2.5601
  284MOL0     H38297   8.100   5.698   1.744  0.5866 -2.4909  0.7085
  284MOL0     H38298   8.072   5.604   1.536  0.3275  2.9026  0.0407
  284MOL0     H38299   8.198   5.485   1.590 -2.1494 -0.5774  1.4625
  284MOL0     H38300   8.471   5.795   1.430  1.9248  2.6326 -1.2797
  284MOL0     H38301   8.570   5.989   1.386 -1.7949 -4.1567 -0.9999
  284MOL0     H38302   8.539   5.982   1.222 -0.2676 -0.6357  0.4258
  284MOL0     H38303   8.511   6.142   1.311 -0.1898  0.7445 -0.8871
  284MOL0     H38304   7.871   6.251   1.253  0.8571 -0.0355  0.6012
  284MOL0     H38305   7.748   6.475   1.191  0.1809 -0.1205 -2.1525
  284MOL0     H38306   7.669   6.678   1.117  0.6741 -5.1345 -2.2491
  284MOL0     H38307   7.744   6.829   1.081 -2.0644 -0.4718  0.7243
  284MOL0     H38308   7.884   6.721   0.912  1.0817  0.4179  2.0997
  284MOL0     H38309   7.809   6.561   0.945 -2.8952 -0.0441 -0.1820
  284MOL0     H38310   7.727   6.728   0.744  5.4429 -2.0724  0.8571
  284MOL0     H38311   7.645   6.803   0.890  0.4986 -1.1027  1.3122
  284MOL0     H38312   7.624   6.497   0.833 -0.9251 -0.6520 -0.4564
  284MOL0     H38313   7.532   6.588   0.938 -1.4472 -0.8155 -0.6059
  284MOL0     H38314   7.521   6.651   0.638  1.8759 -1.6046 -0.4525
  284MOL0     H38315   7.400   6.684   0.777 -0.2742 -0.8723  1.9401
  284MOL0     H38316   7.437   6.392   0.747 -1.1225 -1.7257 -1.3263
  284MOL0     H38317   7.290   6.498   0.730  0.0677  1.9292 -1.7536
  284MOL0     H38318   7.471   6.489   0.492  0.2798 -3.1430 -1.9106
  284MOL0     H38319   7.304   6.534   0.522  0.6860  0.8484 -0.4400
  284MOL0     H38320   7.306   6.313   0.410 -0.6666  2.2594  0.9995
  284MOL0     H38321   7.268   6.282   0.576  0.1032 -0.9314  1.1936
  284MOL0     H38322   8.110   6.680   1.268 -0.6104 -0.1601 -2.8382
  284MOL0     H38323   8.223   6.477   1.344  0.4083  2.2893 -0.4995
  284MOL0     H38324   8.028   5.990   1.341  0.3686 -0.8143 -0.1263
  284MOL0     H38325   8.039   5.794   1.419 -0.9669  3.9383  1.5079
  284MOL0     H38326   9.626   5.610   2.054  2.4912 -0.8541  0.7145
  284MOL0     H38327   9.781   5.750   1.906 -2.1441  0.1216 -1.4940
  284MOL0     H38328   9.979   6.223   1.876 -1.1772 -0.3940 -0.0768
  284MOL0     H38329  10.156   6.329   1.741  0.9675 -1.1708  1.3143
  284MOL0     H38330  10.198   6.281   1.280 -0.0670  2.5893 -3.4788
  284MOL0     H38331  10.038   6.353   1.319 -1.0394  1.9856  2.0957
  284MOL0     H38332  10.139   6.563   1.370  3.1919  1.5028  1.9034
  284MOL0     H38333  10.193   6.511   1.211 -1.3109 -1.6942 -0.8719
  284MOL0     H38334  10.364   6.615   1.305  0.9282 -0.1955  0.5300
  284MOL0     H38335  10.413   6.442   1.315  0.5387  0.9166  0.7086
  284MOL0     H38336  10.393   6.427   1.557 -2.2563 -0.1334  2.7231
  284MOL0     H38337  10.283   6.562   1.551 -0.2001  1.1279 -1.6986
  284MOL0     H38338  10.695   6.714   1.555  0.6384 -3.5318  3.0738
  284MOL0     H38339   9.990   6.155   1.381  0.7913  0.2105  0.2275
  284MOL0     H38340   9.830   6.026   1.523  0.4596 -1.3044  2.7400
  285MOL0     O38341   4.495   4.789   9.343 -0.4686  0.3280 -0.0281
  285MOL0     C38342   4.424   4.695   9.348  0.2660  1.1996 -0.3152
  285MOL0     O38343   4.340   4.659   9.246 -0.2803  0.6140 -0.5011
  285MOL0     C38344   4.325   4.734   9.136  0.4231  0.3114 -0.2331
  285MOL0     C38345   4.423   4.758   9.041  0.9625 -0.0769  0.3253
  285MOL0     C38346   4.399   4.837   8.933 -0.5762  0.9775  0.3771
  285MOL0     C38347   4.287   4.919   8.914  0.6606 -0.0533 -0.1373
  285MOL0     O38348   4.268   5.013   8.812  0.3573  0.5595 -0.2938
  285MOL0     C38349   4.321   4.962   8.684  0.5358  0.0043 -0.6095
  285MOL0     C38350   4.246   5.019   8.562 -0.6371 -0.2943 -0.1778
  285MOL0     C38351   4.122   4.938   8.518 -0.6524  0.0115  0.2829
  285MOL0     C38352   4.003   4.959   8.608 -0.2886  0.3758 -0.6222
  285MOL0     C38353   3.935   5.093   8.590 -0.4739 -0.6830 -0.7928
  285MOL0     C38354   3.795   5.107   8.652  0.4701  0.9828  0.4324
  285MOL0     C38355   3.711   5.220   8.600 -0.2026  0.2082 -0.0984
  285MOL0     C38356   3.565   5.222   8.652  0.6922  0.2673 -0.5263
  285MOL0     N38357   3.480   5.320   8.579  0.4444  0.4458 -0.6333
  285MOL0     C38358   3.445   5.442   8.614  0.9407 -0.1159 -0.4792
  285MOL0     C38359   3.398   5.498   8.498  0.1289 -0.6109  0.3952
  285MOL0     C38360   3.361   5.645   8.487 -0.4911  1.6490 -0.5302
  285MOL0     C38361   3.221   5.678   8.544  0.6579  0.4525  1.2237
  285MOL0     C38362   3.121   5.684   8.429 -0.0492  1.1771  0.4655
  285MOL0     C38363   2.985   5.715   8.492 -0.8947  0.1513  0.2607
  285MOL0     O38364   2.888   5.702   8.392  0.0385 -0.5631  0.3799
  285MOL0     C38365   2.766   5.771   8.412  0.5386  0.5826 -0.3701
  285MOL0     C38366   2.672   5.733   8.315  0.0595 -0.8755 -0.4527
  285MOL0     C38367   2.538   5.775   8.312  0.0634 -0.3507 -0.4278
  285MOL0     C38368   2.467   5.749   8.187  0.7862  0.2681  0.0250
  285MOL0     C38369   2.492   5.862   8.418 -0.5724  0.4532  0.2055
  285MOL0     C38370   2.369   5.940   8.415  0.2580  0.5920 -0.0370
  285MOL0     O38371   2.370   6.053   8.485 -0.5991  0.1836 -0.0511
  285MOL0     C38372   2.258   6.095   8.531  0.3033  0.8372 -0.5201
  285MOL0     C38373   2.216   6.231   8.518 -0.9177  0.5345 -0.4335
  285MOL0     C38374   2.093   6.267   8.567  0.3865  0.3052 -0.2882
  285MOL0     C38375   2.002   6.177   8.630  0.4087  0.5475 -0.2244
  285MOL0     O38376   1.874   6.233   8.656 -0.1389  0.7710 -0.2890
  285MOL0     C38377   1.778   6.151   8.728 -0.1523  1.2971 -0.0029
  285MOL0     C38378   1.653   6.236   8.712 -0.0642  0.1379  0.2502
  285MOL0     C38379   1.529   6.201   8.796 -1.3363 -0.2313  0.2909
  285MOL0     C38380   1.392   6.210   8.728 -0.2873 -0.3363  0.9051
  285MOL0     C38381   1.340   6.351   8.702  0.5432 -0.8062 -0.1934
  285MOL0     C38382   1.204   6.330   8.636  0.5379 -0.6958 -0.1093
  285MOL0     C38383   1.164   6.456   8.572 -0.3278 -0.1974  0.4868
  285MOL0     C38384   1.156   6.454   8.419  0.7822  0.2014 -0.3644
  285MOL0    Cl38385   1.309   6.407   8.342  0.4454 -0.1650  0.1108
  285MOL0     C38386   2.055   6.053   8.660  0.6793  0.1779 -0.3327
  285MOL0     C38387   2.182   6.008   8.614  0.3004  0.0418  0.0682
  285MOL0     O38388   2.281   5.896   8.341  0.3181 -0.3009  0.1142
  285MOL0     C38389   2.587   5.904   8.513 -0.2387  1.2363  0.0794
  285MOL0     C38390   2.718   5.860   8.513 -0.2539 -0.7655 -0.2183
  285MOL0     N38391   3.425   5.407   8.397  0.9099 -0.1024 -0.5679
  285MOL0     N38392   3.470   5.301   8.445 -0.3544  0.1254 -0.6929
  285MOL0     C38393   4.183   4.894   9.010  0.0691  0.1463 -1.2279
  285MOL0     C38394   4.205   4.808   9.126 -0.6895 -0.1185  0.7387
  285MOL0     C38395   4.414   4.612   9.463 -1.0908  0.5511 -0.2719
  285MOL0     C38396   4.502   4.638   9.568 -0.4521 -0.7152 -0.0016
  285MOL0     C38397   4.496   4.560   9.683 -0.7482  0.6014 -0.1299
  285MOL0     C38398   4.412   4.454   9.690  0.1324 -0.4556 -0.6211
  285MOL0     O38399   4.408   4.378   9.807 -0.1621 -0.1693  0.8308
  285MOL0     C38400   4.406   4.236   9.795  0.1825  0.1223 -0.5603
  285MOL0     C38401   4.476   4.164   9.914  0.3069 -0.4017 -0.3921
  285MOL0     C38402   4.616   4.213   9.934 -0.1474 -0.3431 -0.0675
  285MOL0     C38403   4.685   4.139  10.049  1.1633 -0.3657  1.0012
  285MOL0     C38404   4.808   4.203  10.104 -0.7204 -0.0216  0.9932
  285MOL0     C38405   4.900   4.280  10.139  0.0458  0.4826 -0.5065
  285MOL0     C38406   4.327   4.418   9.584 -0.1031 -1.5631  0.0300
  285MOL0     C38407   4.324   4.500   9.470 -0.5237  0.9697 -0.6802
  285MOL0     H38408   4.509   4.692   9.045  0.6780 -0.3985  1.5577
  285MOL0     H38409   4.491   4.858   8.881  0.3169  1.1429  1.9770
  285MOL0     H38410   4.424   4.998   8.685  2.2664 -4.3375 -1.4233
  285MOL0     H38411   4.326   4.853   8.675 -0.0401 -0.0979  0.1774
  285MOL0     H38412   4.207   5.120   8.579 -0.7364 -0.6280  1.8324
  285MOL0     H38413   4.326   5.025   8.488 -0.6398 -0.3214 -0.1836
  285MOL0     H38414   4.100   4.970   8.416 -1.7223 -1.5680 -0.0197
  285MOL0     H38415   4.137   4.830   8.518 -0.0811  0.0544 -1.7413
  285MOL0     H38416   3.922   4.888   8.589  0.6508 -0.7236 -0.5700
  285MOL0     H38417   4.034   4.933   8.709  3.3708  1.1843 -1.3968
  285MOL0     H38418   3.998   5.173   8.629  0.2790 -0.3766 -2.5749
  285MOL0     H38419   3.933   5.114   8.483 -0.3721  2.7903 -0.2063
  285MOL0     H38420   3.743   5.012   8.637 -0.5515  1.4026  1.2285
  285MOL0     H38421   3.797   5.099   8.761 -2.7789 -1.9304  0.4519
  285MOL0     H38422   3.755   5.318   8.621 -0.4489  0.2710  0.1311
  285MOL0     H38423   3.700   5.215   8.491 -1.0983  3.6530 -0.2906
  285MOL0     H38424   3.564   5.235   8.760 -1.6328 -0.7740 -0.3576
  285MOL0     H38425   3.522   5.122   8.644 -0.2727  0.5082  1.1262
  285MOL0     H38426   3.447   5.493   8.710  2.1423  2.5547 -1.8313
  285MOL0     H38427   3.438   5.707   8.533  0.1226  1.7943 -1.7063
  285MOL0     H38428   3.370   5.670   8.381  3.5458  1.3445 -0.4254
  285MOL0     H38429   3.225   5.772   8.600  0.0309  1.0144  0.3349
  285MOL0     H38430   3.192   5.597   8.612 -1.5471 -0.3689 -0.5680
  285MOL0     H38431   3.117   5.585   8.383 -0.9241  0.7531  1.4130
  285MOL0     H38432   3.145   5.766   8.360  4.2742  0.1704  0.5007
  285MOL0     H38433   2.995   5.818   8.527 -2.9602  1.4345 -2.5628
  285MOL0     H38434   2.970   5.637   8.568  2.5322 -0.6525  0.2360
  285MOL0     H38435   2.713   5.672   8.235  1.1019 -1.2949  0.3620
  285MOL0     H38436   2.366   5.712   8.209  0.1880  0.6431 -1.9704
  285MOL0     H38437   2.456   5.841   8.130  0.1049 -1.5890 -3.0827
  285MOL0     H38438   2.527   5.672   8.138  0.1777 -0.8569  0.9828
  285MOL0     H38439   2.278   6.306   8.469 -0.0085 -0.4187 -0.7891
  285MOL0     H38440   2.060   6.369   8.551  0.3203  0.6861  1.9189
  285MOL0     H38441   1.754   6.050   8.695 -0.0943  1.4503 -0.5277
  285MOL0     H38442   1.814   6.156   8.831  1.9728  1.3570 -0.6974
  285MOL0     H38443   1.666   6.344   8.717  2.2235 -0.0662 -0.0420
  285MOL0     H38444   1.619   6.223   8.609 -0.5686  0.7917  0.3313
  285MOL0     H38445   1.530   6.271   8.880  0.9653  1.2356 -0.8718
  285MOL0     H38446   1.537   6.097   8.829 -0.2553 -1.7240 -3.9854
  285MOL0     H38447   1.397   6.144   8.641 -0.0156  0.9347 -0.0725
  285MOL0     H38448   1.318   6.162   8.792 -1.0639 -1.6001 -0.8430
  285MOL0     H38449   1.402   6.412   8.635 -0.6836 -2.0251 -2.5736
  285MOL0     H38450   1.323   6.401   8.797 -0.7004 -1.6402  0.0476
  285MOL0     H38451   1.201   6.253   8.558 -0.1071 -0.0825 -0.7134
  285MOL0     H38452   1.128   6.300   8.709 -0.5015 -3.3664 -2.1084
  285MOL0     H38453   1.234   6.536   8.595  0.7520 -0.5360 -1.4746
  285MOL0     H38454   1.060   6.473   8.601 -0.8562 -1.5372 -0.5007
  285MOL0     H38455   1.127   6.555   8.386 -1.3697 -0.6356 -1.2586
  285MOL0     H38456   1.071   6.393   8.385  1.8831 -0.5412 -1.9222
  285MOL0     H38457   2.009   5.975   8.720  2.0151  0.5325  1.2327
  285MOL0     H38458   2.232   5.914   8.633  0.4846 -0.2718 -1.8043
  285MOL0     H38459   2.564   5.975   8.591  0.6011 -1.3020  2.7995
  285MOL0     H38460   2.795   5.898   8.580  2.2482 -0.3162 -3.1097
  285MOL0     H38461   4.090   4.949   9.009  1.3326  2.6701  2.4764
  285MOL0     H38462   4.146   4.801   9.217  1.0536  1.2964  2.0415
  285MOL0     H38463   4.566   4.726   9.568  1.0289 -1.7376  1.6100
  285MOL0     H38464   4.578   4.579   9.752 -0.6156 -1.2971  0.2830
  285MOL0     H38465   4.305   4.208   9.762 -0.5391  1.1802  0.6599
  285MOL0     H38466   4.460   4.208   9.704 -0.1080 -0.0810 -0.6718
  285MOL0     H38467   4.471   4.055   9.906  2.8134 -0.4544 -2.2416
  285MOL0     H38468   4.417   4.197  10.000 -0.1339 -0.3583 -0.7065
  285MOL0     H38469   4.604   4.317   9.968  0.9957  0.4482 -1.9410
  285MOL0     H38470   4.684   4.208   9.848 -0.5505  2.1642 -0.6092
  285MOL0     H38471   4.703   4.033  10.029 -2.5950 -1.2321  1.4364
  285MOL0     H38472   4.611   4.137  10.130  2.3130  0.0902  2.0987
  285MOL0     H38473   4.972   4.353  10.170  0.4201 -0.2149  0.3203
  285MOL0     H38474   4.249   4.342   9.581 -2.9700  0.8636  3.5519
  285MOL0     H38475   4.268   4.474   9.381 -4.1201  1.4427  1.2389
  286MOL0     O38476   4.891   3.818   2.892  0.2066 -0.1304  0.0391
  286MOL0     C38477   4.867   3.899   2.981  0.0191 -0.0219  0.0133
  286MOL0     O38478   4.738   3.937   3.022  0.0767  0.0705  0.0033
  286MOL0     C38479   4.625   3.913   2.940  0.3694 -0.1971 -0.4388
  286MOL0     C38480   4.593   4.009   2.843 -0.4415  0.5187 -0.3414
  286MOL0     C38481   4.480   3.992   2.768  1.0529  0.8970 -0.8016
  286MOL0     C38482   4.397   3.879   2.771  0.9818  0.0305  0.3904
  286MOL0     O38483   4.287   3.858   2.685 -0.2658 -0.2432  0.1622
  286MOL0     C38484   4.235   3.958   2.600 -0.0027 -0.9431  1.1009
  286MOL0     C38485   4.094   3.924   2.550 -0.3506 -0.2480  0.4842
  286MOL0     C38486   4.051   4.041   2.463 -0.0871 -0.8411  0.4165
  286MOL0     C38487   3.904   4.033   2.413 -0.5908 -0.8732  0.2743
  286MOL0     C38488   3.845   4.165   2.361 -0.6295  0.1302  0.3323
  286MOL0     C38489   3.719   4.134   2.282 -0.1277  0.6209 -0.9028
  286MOL0     C38490   3.644   4.261   2.245 -0.9462 -0.2702 -0.0783
  286MOL0     C38491   3.538   4.237   2.138  0.3040  0.1938 -0.1530
  286MOL0     N38492   3.452   4.354   2.118 -0.3546  0.1580 -0.4635
  286MOL0     C38493   3.339   4.378   2.184 -0.1782 -0.2410 -0.2239
  286MOL0     C38494   3.287   4.498   2.155 -0.2855  0.3937 -0.0608
  286MOL0     C38495   3.168   4.560   2.195  1.0665 -0.4513  0.6836
  286MOL0     C38496   3.030   4.515   2.131  0.2361  0.8382  0.9421
  286MOL0     C38497   3.026   4.508   1.971 -0.2073  0.3654  0.4006
  286MOL0     C38498   2.881   4.487   1.920  0.6431 -0.2109 -0.7661
  286MOL0     O38499   2.805   4.601   1.968 -0.1162  0.4936  0.6523
  286MOL0     C38500   2.672   4.586   1.999 -0.3833  0.1849  0.9455
  286MOL0     C38501   2.634   4.635   2.116 -0.6732 -0.6761  0.1665
  286MOL0     C38502   2.506   4.621   2.158  0.5094  0.1440  0.4356
  286MOL0     C38503   2.467   4.680   2.287 -0.5060 -0.5513  0.4844
  286MOL0     C38504   2.410   4.564   2.062 -0.0221  0.0110 -0.1729
  286MOL0     C38505   2.271   4.528   2.093 -0.9211  0.2988 -0.7097
  286MOL0     O38506   2.196   4.493   1.983 -0.2752 -0.4656 -0.6210
  286MOL0     C38507   2.058   4.512   1.998 -1.4448  0.2353  0.5029
  286MOL0     C38508   1.995   4.633   2.041 -0.9163 -0.3701 -0.4359
  286MOL0     C38509   1.858   4.647   2.046 -0.5431 -0.4113  0.2084
  286MOL0     C38510   1.784   4.529   2.010  0.4146  0.1252 -0.4539
  286MOL0     O38511   1.644   4.533   2.046 -0.5692  0.2348  0.1014
  286MOL0     C38512   1.556   4.441   1.992  0.7836 -0.1595 -0.8467
  286MOL0     C38513   1.410   4.501   1.991 -0.1691  0.4702 -0.3428
  286MOL0     C38514   1.342   4.517   2.123 -0.1062 -0.0123  0.3176
  286MOL0     C38515   1.191   4.538   2.099  0.1985 -0.5338 -0.1187
  286MOL0     C38516   1.108   4.599   2.209 -0.2619  0.0925  0.2950
  286MOL0     C38517   1.130   4.525   2.349  0.5011  0.1966  0.6255
  286MOL0     C38518   1.042   4.581   2.460  0.3553 -0.2297  1.1629
  286MOL0     C38519   1.062   4.518   2.601  0.4244 -0.2891  0.1253
  286MOL0    Cl38520   0.933   4.570   2.711  0.1269 -0.3521  0.4888
  286MOL0     C38521   1.839   4.407   1.966 -0.4102 -0.3084  0.3696
  286MOL0     C38522   1.980   4.397   1.959  0.6523 -0.3387 -0.1231
  286MOL0     O38523   2.231   4.547   2.205 -0.0148 -0.5260  0.0896
  286MOL0     C38524   2.455   4.539   1.928 -0.6311 -1.0152  0.8223
  286MOL0     C38525   2.584   4.546   1.895  0.0724  0.4600 -0.0913
  286MOL0     N38526   3.383   4.550   2.062  0.0773  0.4221 -0.2117
  286MOL0     N38527   3.472   4.458   2.036  0.5146 -0.6800 -0.2257
  286MOL0     C38528   4.432   3.777   2.866  1.1010 -0.7722 -0.8462
  286MOL0     C38529   4.540   3.800   2.951 -0.5225  0.6466 -0.5463
  286MOL0     C38530   4.981   3.941   3.057 -1.0596 -0.6112 -0.5533
  286MOL0     C38531   5.113   3.903   3.028  0.2415  0.7036  1.0099
  286MOL0     C38532   5.217   3.934   3.119 -0.0140 -0.3181  0.4950
  286MOL0     C38533   5.189   4.010   3.239 -0.4223  0.2137 -0.7455
  286MOL0     O38534   5.273   4.030   3.344  0.2697  1.0070  0.3978
  286MOL0     C38535   5.418   3.994   3.331  0.5845  0.1144  0.0969
  286MOL0     C38536   5.480   4.090   3.234 -0.5709 -0.5419 -0.2564
  286MOL0     C38537   5.627   4.059   3.195  0.1956  0.3576  0.2482
  286MOL0     C38538   5.670   3.920   3.147 -0.2347 -0.6370 -0.1867
  286MOL0     C38539   5.687   3.820   3.258 -0.3885  0.7997  0.0952
  286MOL0     C38540   5.713   3.743   3.347  0.3176  0.1465 -0.0081
  286MOL0     C38541   5.059   4.058   3.254  0.1015  0.2316 -0.6040
  286MOL0     C38542   4.957   4.024   3.164  0.1543  0.5919 -0.0336
  286MOL0     H38543   4.647   4.103   2.834 -0.5283  0.7052  0.8957
  286MOL0     H38544   4.448   4.069   2.699 -1.3969  0.4940 -0.2025
  286MOL0     H38545   4.225   4.053   2.654 -2.3908 -0.3359 -0.2736
  286MOL0     H38546   4.288   3.974   2.506 -2.9112  1.9915 -0.2481
  286MOL0     H38547   4.096   3.829   2.495 -1.8477 -0.8067  1.3297
  286MOL0     H38548   4.036   3.919   2.643 -0.1059 -0.2406  0.6401
  286MOL0     H38549   4.052   4.137   2.515 -0.6223  0.2178 -1.4397
  286MOL0     H38550   4.116   4.055   2.376 -1.6989  1.8160 -0.4818
  286MOL0     H38551   3.903   3.950   2.341  3.1992 -0.7089 -0.1745
  286MOL0     H38552   3.837   4.003   2.495 -0.5472  0.1358  0.6977
  286MOL0     H38553   3.817   4.218   2.452 -0.5604  1.7020 -0.5352
  286MOL0     H38554   3.912   4.226   2.300 -1.8718  0.2481 -0.9859
  286MOL0     H38555   3.746   4.083   2.189  0.3593 -0.7928 -0.0182
  286MOL0     H38556   3.651   4.067   2.336 -0.6639  2.9081  1.5057
  286MOL0     H38557   3.586   4.293   2.332  0.5608 -1.2968  1.3631
  286MOL0     H38558   3.703   4.345   2.207 -1.6142 -0.0638 -0.6793
  286MOL0     H38559   3.469   4.154   2.152  2.1804 -1.2327  1.1854
  286MOL0     H38560   3.593   4.216   2.046 -0.0957 -2.8987  0.2250
  286MOL0     H38561   3.291   4.314   2.257  0.9552  0.5339  1.2576
  286MOL0     H38562   3.151   4.545   2.302  4.1885 -2.0775  1.0427
  286MOL0     H38563   3.191   4.666   2.182  2.3102 -0.8248 -0.2238
  286MOL0     H38564   2.950   4.583   2.164 -1.5211  0.7770 -2.7317
  286MOL0     H38565   3.001   4.419   2.174 -1.3609  1.4145  1.2367
  286MOL0     H38566   3.086   4.425   1.930 -3.5837 -2.4225  0.6281
  286MOL0     H38567   3.064   4.605   1.939 -2.1690  1.2355  0.5942
  286MOL0     H38568   2.832   4.391   1.939 -2.3753  0.6864 -3.2645
  286MOL0     H38569   2.890   4.495   1.812  0.6171 -0.6965 -0.8064
  286MOL0     H38570   2.704   4.675   2.188 -1.9196  0.1425  0.9796
  286MOL0     H38571   2.546   4.747   2.323 -1.1997  0.4733  0.1583
  286MOL0     H38572   2.381   4.748   2.282  1.3383  1.8350 -0.9882
  286MOL0     H38573   2.434   4.600   2.354 -4.2484  0.2020 -0.2151
  286MOL0     H38574   2.055   4.718   2.070 -1.5023 -0.1886  0.2847
  286MOL0     H38575   1.804   4.731   2.088  3.1157  1.2582  1.9768
  286MOL0     H38576   1.595   4.406   1.896  1.8278  3.1556 -1.7585
  286MOL0     H38577   1.562   4.356   2.060 -1.9659  1.0410  1.0713
  286MOL0     H38578   1.403   4.598   1.941  1.3218  0.2064 -1.1242
  286MOL0     H38579   1.357   4.427   1.930 -1.2854 -0.2253  1.3981
  286MOL0     H38580   1.395   4.597   2.177 -0.5619 -1.4573  3.0825
  286MOL0     H38581   1.364   4.424   2.178  2.1595 -1.0646 -2.1427
  286MOL0     H38582   1.169   4.591   2.006  0.9290 -1.3091 -0.7538
  286MOL0     H38583   1.140   4.443   2.080  0.3085 -0.4459 -0.9195
  286MOL0     H38584   1.003   4.598   2.181  0.5516 -0.3489 -3.1214
  286MOL0     H38585   1.132   4.705   2.226 -1.8962  0.4105  0.7673
  286MOL0     H38586   1.100   4.422   2.329 -1.2684  1.1124 -1.9114
  286MOL0     H38587   1.231   4.543   2.388  0.7900  0.2822 -0.1403
  286MOL0     H38588   0.937   4.561   2.435  0.4397  2.3397 -1.9924
  286MOL0     H38589   1.057   4.689   2.464 -0.5257 -0.1306  3.0465
  286MOL0     H38590   1.156   4.564   2.633  0.5157  1.0428 -1.8644
  286MOL0     H38591   1.063   4.409   2.597 -0.3844 -0.4035  2.2147
  286MOL0     H38592   1.781   4.317   1.950  2.3081 -2.2137  0.6384
  286MOL0     H38593   2.030   4.305   1.933 -1.5189 -1.7379  0.4043
  286MOL0     H38594   2.396   4.482   1.857  0.2942 -0.8412 -0.1072
  286MOL0     H38595   2.613   4.518   1.794 -2.5544  0.0014 -0.8146
  286MOL0     H38596   4.378   3.682   2.871  0.9049 -0.5799  2.1518
  286MOL0     H38597   4.573   3.729   3.026  1.8699  1.0788 -1.1331
  286MOL0     H38598   5.142   3.837   2.947  2.3001  0.2240  2.0647
  286MOL0     H38599   5.312   3.882   3.115  0.5103  0.6383 -3.0899
  286MOL0     H38600   5.460   3.991   3.432  0.0768  1.1702  0.3468
  286MOL0     H38601   5.428   3.892   3.292  0.6184  1.0073 -2.4097
  286MOL0     H38602   5.465   4.189   3.277 -0.1396  1.1975 -3.7881
  286MOL0     H38603   5.426   4.097   3.140  0.7091  0.5095 -0.9439
  286MOL0     H38604   5.693   4.093   3.275  0.0174 -2.3372  1.6692
  286MOL0     H38605   5.644   4.130   3.113  2.5857 -0.3914  0.0184
  286MOL0     H38606   5.753   3.924   3.075 -0.8585  1.3162 -0.8707
  286MOL0     H38607   5.588   3.887   3.082 -0.6882 -1.9262  1.0021
  286MOL0     H38608   5.752   3.671   3.417 -0.5207 -0.4876 -0.1871
  286MOL0     H38609   5.026   4.105   3.346 -1.4133  0.5737 -1.2900
  286MOL0     H38610   4.858   4.064   3.184 -0.7362 -2.9397  4.2569
  287MOL0     O38611   8.863   3.410   6.603 -0.5161 -0.1739  0.2865
  287MOL0     C38612   8.915   3.388   6.712 -0.5968  0.1210 -0.6238
  287MOL0     O38613   8.841   3.402   6.828  0.0397  0.4417  0.1343
  287MOL0     C38614   8.700   3.406   6.833  0.1649  0.7740 -1.1010
  287MOL0     C38615   8.625   3.512   6.791 -0.1237 -0.4219  0.4084
  287MOL0     C38616   8.490   3.515   6.808 -0.7395  0.6518 -0.4163
  287MOL0     C38617   8.418   3.401   6.863  1.2166  0.6359  0.2737
  287MOL0     O38618   8.281   3.403   6.871 -0.4974  0.2585  0.3504
  287MOL0     C38619   8.211   3.290   6.823  0.1729  1.2512 -0.2696
  287MOL0     C38620   8.066   3.327   6.777  0.3676  0.8336 -0.2412
  287MOL0     C38621   8.004   3.200   6.720 -1.9064  0.2605 -0.4279
  287MOL0     C38622   7.854   3.233   6.688  0.4210 -1.0669  0.0416
  287MOL0     C38623   7.780   3.120   6.611  0.2293 -0.0105 -0.0981
  287MOL0     C38624   7.631   3.148   6.598 -0.7048  0.3595  0.2655
  287MOL0     C38625   7.593   3.256   6.489  0.0675 -0.5442 -0.2328
  287MOL0     C38626   7.449   3.265   6.479 -0.8231  0.0524  0.5903
  287MOL0     N38627   7.403   3.309   6.347  0.2412 -0.0709 -1.0450
  287MOL0     C38628   7.435   3.250   6.227 -0.1422 -0.4640  0.4321
  287MOL0     C38629   7.360   3.319   6.141  0.1041  0.3628  0.6208
  287MOL0     C38630   7.363   3.302   5.998  0.5983 -0.1702 -1.1848
  287MOL0     C38631   7.258   3.196   5.951  0.5753 -0.1356  0.2863
  287MOL0     C38632   7.112   3.244   5.984 -0.4325  0.1302  0.1206
  287MOL0     C38633   7.085   3.379   5.933  0.0323 -0.1904 -0.7487
  287MOL0     O38634   6.948   3.382   5.899  0.2682  0.2594 -0.2543
  287MOL0     C38635   6.857   3.394   6.001  0.1908  0.4191 -0.3570
  287MOL0     C38636   6.879   3.402   6.140  0.1187  0.1131  0.1000
  287MOL0     C38637   6.778   3.413   6.237 -0.0444  0.7214 -0.2368
  287MOL0     C38638   6.819   3.414   6.391 -0.0474  0.5266  0.6347
  287MOL0     C38639   6.645   3.427   6.188  0.1282 -0.0331  0.6883
  287MOL0     C38640   6.528   3.445   6.275  0.6893 -0.5884 -0.0548
  287MOL0     O38641   6.391   3.433   6.228 -0.1389 -0.2908  0.1429
  287MOL0     C38642   6.276   3.449   6.304 -0.7543 -0.6285 -0.4122
  287MOL0     C38643   6.255   3.462   6.445  0.2359 -0.0448  0.4787
  287MOL0     C38644   6.128   3.446   6.499 -0.4032 -0.8482  0.1961
  287MOL0     C38645   6.014   3.455   6.413  0.2649 -0.0233  0.3861
  287MOL0     O38646   5.888   3.451   6.463  0.1348  0.3023 -0.0400
  287MOL0     C38647   5.875   3.424   6.603  0.7425  0.4044 -0.3965
  287MOL0     C38648   5.728   3.392   6.647 -0.3594  0.3193 -0.3802
  287MOL0     C38649   5.646   3.518   6.663 -0.5858  0.3447 -0.2583
  287MOL0     C38650   5.657   3.588   6.799 -1.1818 -0.0029 -1.0310
  287MOL0     C38651   5.561   3.710   6.817  0.1997 -0.3527  0.2188
  287MOL0     C38652   5.412   3.670   6.804 -0.5893  0.4081  0.3359
  287MOL0     C38653   5.306   3.766   6.861 -0.6604  0.3494 -0.1933
  287MOL0     C38654   5.171   3.732   6.811 -0.4296  0.5865 -0.2223
  287MOL0    Cl38655   5.153   3.788   6.639  0.2902 -0.1416 -0.3530
  287MOL0     C38656   6.027   3.455   6.273 -0.7322  0.0303 -0.3316
  287MOL0     C38657   6.160   3.445   6.221 -0.2609  0.1580 -0.6829
  287MOL0     O38658   6.556   3.458   6.396 -0.1114 -0.1582  0.5309
  287MOL0     C38659   6.616   3.419   6.045 -0.7249 -0.0216 -0.8347
  287MOL0     C38660   6.721   3.394   5.964 -0.3390  0.0311 -0.0049
  287MOL0     N38661   7.277   3.407   6.207  0.4078  0.6681  0.6130
  287MOL0     N38662   7.303   3.407   6.329  0.6270 -0.1833  0.3425
  287MOL0     C38663   8.494   3.281   6.891  0.5914 -0.5824 -0.6537
  287MOL0     C38664   8.636   3.288   6.880 -0.6077 -0.6046 -0.4291
  287MOL0     C38665   9.057   3.359   6.736  0.0750 -0.5280 -0.1274
  287MOL0     C38666   9.147   3.408   6.656 -0.2672  0.2283  0.8055
  287MOL0     C38667   9.286   3.380   6.678 -0.1367  0.1223  0.0786
  287MOL0     C38668   9.335   3.318   6.790 -0.2862  0.3680 -0.1256
  287MOL0     O38669   9.463   3.288   6.806  0.0931  0.4743 -0.7976
  287MOL0     C38670   9.557   3.329   6.709  0.5087  0.0181 -0.7504
  287MOL0     C38671   9.697   3.315   6.761  0.0323 -0.5985  0.2185
  287MOL0     C38672   9.725   3.173   6.808  0.9542  0.4870 -0.2470
  287MOL0     C38673   9.875   3.132   6.839  0.8563 -0.3318  1.1260
  287MOL0     C38674   9.953   3.173   6.717 -0.3915  0.0487 -0.0423
  287MOL0     C38675  10.031   3.206   6.630  0.1391 -0.1662  0.5182
  287MOL0     C38676   9.239   3.281   6.880 -0.2980 -0.0018  0.5375
  287MOL0     C38677   9.101   3.297   6.857 -0.1235 -0.2553  0.6143
  287MOL0     H38678   8.692   3.589   6.754 -1.1091 -0.7589 -2.3702
  287MOL0     H38679   8.428   3.601   6.785 -2.7328 -0.6405 -0.1183
  287MOL0     H38680   8.248   3.238   6.735 -4.2120 -1.4168 -0.8646
  287MOL0     H38681   8.212   3.223   6.909  3.3589  0.6231 -0.7065
  287MOL0     H38682   8.002   3.357   6.860 -0.7368 -2.2140  0.1310
  287MOL0     H38683   8.072   3.410   6.705  1.5343  0.4672 -0.5942
  287MOL0     H38684   8.053   3.157   6.632  0.9611 -0.2149  1.2830
  287MOL0     H38685   8.012   3.126   6.799  1.9799 -0.5703 -1.3877
  287MOL0     H38686   7.791   3.255   6.775 -2.2483  1.5402 -2.3281
  287MOL0     H38687   7.849   3.324   6.627  2.3949  1.3277  3.1765
  287MOL0     H38688   7.819   3.112   6.509  0.4531 -1.5528  0.0969
  287MOL0     H38689   7.792   3.027   6.666  2.3750 -1.0788 -2.2012
  287MOL0     H38690   7.586   3.049   6.583  0.6998 -0.2698  0.1011
  287MOL0     H38691   7.592   3.175   6.697 -1.8457 -3.1534  0.9533
  287MOL0     H38692   7.628   3.353   6.525  1.5142 -0.7858 -0.9221
  287MOL0     H38693   7.642   3.249   6.392  0.8196 -0.6265  0.1422
  287MOL0     H38694   7.409   3.340   6.548  0.6612  2.7707 -1.3470
  287MOL0     H38695   7.408   3.163   6.486  2.3529 -1.3228  0.9259
  287MOL0     H38696   7.513   3.175   6.212  0.4642 -0.2721  2.4074
  287MOL0     H38697   7.373   3.394   5.940  3.5863 -1.8875 -3.7463
  287MOL0     H38698   7.458   3.251   5.978  0.3135 -2.0190  1.5974
  287MOL0     H38699   7.274   3.098   5.997 -0.7050  0.0272  1.1268
  287MOL0     H38700   7.259   3.182   5.843 -1.2867  2.6613 -0.2231
  287MOL0     H38701   7.088   3.236   6.090 -1.8123 -1.6692 -0.2827
  287MOL0     H38702   7.043   3.175   5.934 -1.0506  1.1507 -0.4824
  287MOL0     H38703   7.142   3.388   5.840  0.2593  0.2437 -0.5675
  287MOL0     H38704   7.125   3.459   5.996  0.5549 -1.3049  0.3909
  287MOL0     H38705   6.977   3.397   6.185  0.5893  0.9422 -0.7790
  287MOL0     H38706   6.760   3.344   6.451 -0.5750 -0.2122 -0.7092
  287MOL0     H38707   6.918   3.377   6.419  0.1921  2.9689  3.4471
  287MOL0     H38708   6.806   3.518   6.420 -0.8028  0.3986  0.7572
  287MOL0     H38709   6.342   3.460   6.511 -1.0713  0.1013  2.2724
  287MOL0     H38710   6.123   3.441   6.607 -0.8253 -2.5873  0.1188
  287MOL0     H38711   5.933   3.336   6.629 -0.3101  0.5863  3.0289
  287MOL0     H38712   5.907   3.504   6.670  0.9896  0.6158 -0.7638
  287MOL0     H38713   5.685   3.319   6.578 -0.5389  0.6913 -0.6677
  287MOL0     H38714   5.727   3.343   6.745 -1.7911  1.2092  0.0770
  287MOL0     H38715   5.542   3.492   6.643 -0.1811 -1.0065 -0.6729
  287MOL0     H38716   5.681   3.590   6.589 -0.6185  2.0827  1.3323
  287MOL0     H38717   5.634   3.511   6.874  0.7394  1.2867  1.0064
  287MOL0     H38718   5.761   3.618   6.817 -1.7318  0.4452  1.8725
  287MOL0     H38719   5.585   3.787   6.743 -3.6591 -0.3158 -1.2171
  287MOL0     H38720   5.576   3.753   6.916 -1.7087 -1.1817  0.9012
  287MOL0     H38721   5.402   3.655   6.696 -0.3195 -1.3550  0.5294
  287MOL0     H38722   5.396   3.573   6.851  1.9554 -1.1630 -1.7168
  287MOL0     H38723   5.338   3.866   6.831  0.9355 -0.5612 -1.7592
  287MOL0     H38724   5.300   3.750   6.969 -0.1342 -0.4480 -0.2787
  287MOL0     H38725   5.087   3.775   6.866 -0.6004  0.1422 -0.1352
  287MOL0     H38726   5.155   3.624   6.806  0.5071  0.3807  0.7199
  287MOL0     H38727   5.939   3.458   6.210 -1.6292 -1.9358  0.7204
  287MOL0     H38728   6.174   3.450   6.113 -1.8009  2.0384 -0.8691
  287MOL0     H38729   6.515   3.427   6.005 -0.7235  0.7729 -0.7010
  287MOL0     H38730   6.709   3.387   5.857  0.8876 -1.2050 -0.0869
  287MOL0     H38731   8.442   3.194   6.928  0.7841 -1.6415 -2.6953
  287MOL0     H38732   8.702   3.208   6.910  0.6522  0.1588 -1.0725
  287MOL0     H38733   9.111   3.458   6.566 -2.1435 -0.2704  1.2479
  287MOL0     H38734   9.349   3.407   6.594  1.5501 -2.3251  0.4470
  287MOL0     H38735   9.537   3.255   6.631  0.6140 -1.0562  0.2166
  287MOL0     H38736   9.540   3.430   6.670  0.6625  0.4465  0.2556
  287MOL0     H38737   9.706   3.395   6.835 -2.8066  0.7196 -0.7172
  287MOL0     H38738   9.760   3.334   6.674 -0.0491 -0.0172  0.2837
  287MOL0     H38739   9.685   3.108   6.729 -3.7702 -0.0579  2.2396
  287MOL0     H38740   9.661   3.153   6.894  0.2167 -2.9892 -1.4520
  287MOL0     H38741   9.873   3.023   6.854 -1.8098 -0.6603 -0.8804
  287MOL0     H38742   9.913   3.184   6.927  1.5415  1.9824 -0.4508
  287MOL0     H38743  10.099   3.235   6.552 -1.5447 -0.4703 -1.1389
  287MOL0     H38744   9.276   3.230   6.969  3.2536  0.3109 -0.5830
  287MOL0     H38745   9.033   3.260   6.934 -0.9686  0.8273  0.4164
  288MOL0     O38746   4.422   1.176   0.903 -0.3142 -0.1619 -0.1418
  288MOL0     C38747   4.495   1.251   0.964  0.8002  0.7430 -1.3234
  288MOL0     O38748   4.470   1.385   0.987  0.0370  0.3910  0.3916
  288MOL0     C38749   4.354   1.447   0.945  0.2420  0.1406 -0.6537
  288MOL0     C38750   4.334   1.434   0.806  0.3905  0.1147  0.1505
  288MOL0     C38751   4.226   1.496   0.751  0.4143 -0.6639  0.4037
  288MOL0     C38752   4.136   1.581   0.827 -0.3917 -0.1361  0.3616
  288MOL0     O38753   4.034   1.655   0.777  0.0204  0.4810  0.6318
  288MOL0     C38754   3.986   1.636   0.637  0.4709  0.3193  0.6027
  288MOL0     C38755   3.900   1.506   0.614 -0.6248  0.6810 -0.0588
  288MOL0     C38756   3.780   1.479   0.702  1.4789  0.5237  0.5281
  288MOL0     C38757   3.721   1.343   0.643 -0.0690  0.2919 -0.4844
  288MOL0     C38758   3.610   1.293   0.740 -0.1045 -0.5125  0.0488
  288MOL0     C38759   3.526   1.171   0.693  0.2928 -1.2095  0.0862
  288MOL0     C38760   3.423   1.198   0.587 -0.2385  0.4037  0.7668
  288MOL0     C38761   3.349   1.064   0.552  0.7067  1.3149 -0.5062
  288MOL0     N38762   3.234   1.090   0.465  0.3929 -0.5303  0.1598
  288MOL0     C38763   3.246   1.154   0.348  0.0130 -0.0708 -0.4045
  288MOL0     C38764   3.114   1.173   0.309  0.0481  0.7890 -1.0419
  288MOL0     C38765   3.085   1.249   0.181  0.2391 -0.4449  0.5444
  288MOL0     C38766   3.139   1.176   0.062 -0.5383 -0.0453 -0.0856
  288MOL0     C38767   3.105   1.224  -0.075 -0.7608 -0.2346  0.5001
  288MOL0     C38768   2.963   1.259  -0.102 -0.1848 -0.8320  0.0711
  288MOL0     O38769   2.942   1.287  -0.250 -0.2735  0.1077 -0.4667
  288MOL0     C38770   2.822   1.316  -0.299 -0.3084 -0.9472  0.4157
  288MOL0     C38771   2.710   1.366  -0.225 -0.3979 -0.5231 -0.6312
  288MOL0     C38772   2.585   1.368  -0.286 -0.3937  0.6996  0.4490
  288MOL0     C38773   2.469   1.414  -0.195 -0.4275  0.1839 -0.6732
  288MOL0     C38774   2.569   1.332  -0.421  0.2638  0.8621  0.7879
  288MOL0     C38775   2.436   1.319  -0.493  0.3674  0.4353 -0.5528
  288MOL0     O38776   2.432   1.333  -0.629  0.6477  0.2315 -0.2815
  288MOL0     C38777   2.320   1.280  -0.704 -0.1109  0.7395  0.2243
  288MOL0     C38778   2.267   1.160  -0.672  0.4023  0.7406 -0.1666
  288MOL0     C38779   2.161   1.103  -0.743 -1.4148  0.4465 -0.8394
  288MOL0     C38780   2.102   1.175  -0.841  0.5797 -0.2147  0.1201
  288MOL0     O38781   1.998   1.110  -0.908 -0.0433  0.2812 -0.2768
  288MOL0     C38782   1.931   1.189  -1.008  0.1944 -0.0473  0.2601
  288MOL0     C38783   1.811   1.120  -1.072 -0.1361 -0.1332 -0.2449
  288MOL0     C38784   1.837   0.973  -1.096 -0.7399  0.5551  0.4026
  288MOL0     C38785   1.705   0.890  -1.119  0.4083  0.8676  0.5032
  288MOL0     C38786   1.737   0.740  -1.083  0.4723  0.1366  1.0678
  288MOL0     C38787   1.658   0.631  -1.162 -0.4123 -0.0987  0.4953
  288MOL0     C38788   1.644   0.498  -1.085  0.2671 -0.2793  0.4300
  288MOL0     C38789   1.501   0.444  -1.123 -0.5068 -0.3512  0.3023
  288MOL0    Cl38790   1.497   0.386  -1.300  0.1252 -0.4113 -0.2811
  288MOL0     C38791   2.134   1.313  -0.860  0.1913  1.1223 -0.1035
  288MOL0     C38792   2.247   1.358  -0.796  0.0090 -0.0294  1.1215
  288MOL0     O38793   2.337   1.296  -0.429 -0.4994  0.3945 -0.6128
  288MOL0     C38794   2.693   1.314  -0.492 -0.7404  0.4073  0.6977
  288MOL0     C38795   2.817   1.305  -0.435  0.9494  0.4990 -0.1161
  288MOL0     N38796   3.024   1.124   0.399 -0.3219 -0.5433  0.1023
  288MOL0     N38797   3.102   1.069   0.489  0.2000  0.4181  0.5173
  288MOL0     C38798   4.162   1.582   0.964  0.1866 -0.3466  0.0908
  288MOL0     C38799   4.270   1.525   1.021  0.2686 -0.0076  0.3651
  288MOL0     C38800   4.622   1.194   1.015  1.4348  0.5450 -0.5522
  288MOL0     C38801   4.736   1.268   1.016  0.3612 -0.2588  0.0225
  288MOL0     C38802   4.860   1.213   1.049  0.0290 -0.2660 -0.1155
  288MOL0     C38803   4.868   1.079   1.094 -0.1893 -1.2621  0.8520
  288MOL0     O38804   4.993   1.042   1.113 -0.2973  0.2888 -0.4116
  288MOL0     C38805   5.037   0.901   1.096 -0.1261 -0.6156  0.0646
  288MOL0     C38806   5.187   0.883   1.114 -1.0634  0.3608  0.9426
  288MOL0     C38807   5.240   0.769   1.016 -0.2030  1.1546  0.1730
  288MOL0     C38808   5.385   0.739   1.059 -0.1223 -0.7347  0.7812
  288MOL0     C38809   5.471   0.844   0.994  0.0217  0.3626 -0.3292
  288MOL0     C38810   5.553   0.921   0.947 -0.2068  0.2386 -0.2067
  288MOL0     C38811   4.753   0.995   1.079 -0.6805 -0.7037 -0.7459
  288MOL0     C38812   4.634   1.058   1.040  0.5502 -0.3823 -0.4856
  288MOL0     H38813   4.401   1.375   0.744 -0.2415 -0.7130  0.2309
  288MOL0     H38814   4.212   1.492   0.643 -3.4519 -0.7238  0.7705
  288MOL0     H38815   3.918   1.719   0.615  2.5671  1.6937 -1.0300
  288MOL0     H38816   4.070   1.639   0.568  1.5431 -1.4758  1.7400
  288MOL0     H38817   3.874   1.496   0.508  1.6489 -1.7899 -0.4993
  288MOL0     H38818   3.969   1.423   0.634  3.7373  3.3658 -2.2957
  288MOL0     H38819   3.808   1.483   0.807 -1.0394  1.3764  1.2526
  288MOL0     H38820   3.710   1.560   0.679  2.0062 -0.1503 -4.7297
  288MOL0     H38821   3.692   1.353   0.538  0.6537 -2.2109 -0.9920
  288MOL0     H38822   3.805   1.273   0.652 -0.6779 -0.1839  2.6459
  288MOL0     H38823   3.653   1.273   0.839  0.8421  4.4913  0.9396
  288MOL0     H38824   3.551   1.386   0.746 -0.4723 -0.5232 -2.4532
  288MOL0     H38825   3.602   1.099   0.660  0.4049 -0.4553 -1.3911
  288MOL0     H38826   3.469   1.124   0.773 -2.0583  1.2263 -0.0171
  288MOL0     H38827   3.352   1.273   0.624  0.5429  1.2021  0.6854
  288MOL0     H38828   3.461   1.244   0.496  0.2957 -0.7165  0.4111
  288MOL0     H38829   3.299   1.007   0.631 -3.1511  1.3331 -2.7202
  288MOL0     H38830   3.416   0.992   0.505 -0.7062 -0.3875 -0.0001
  288MOL0     H38831   3.330   1.198   0.296 -0.2030  1.4068  0.4267
  288MOL0     H38832   2.978   1.261   0.162  0.8673  0.1432 -3.5805
  288MOL0     H38833   3.128   1.350   0.185  0.5414 -0.4927 -0.9479
  288MOL0     H38834   3.122   1.068   0.074  0.5420 -0.2897 -0.6001
  288MOL0     H38835   3.246   1.193   0.076 -1.0831  2.3139  1.8689
  288MOL0     H38836   3.139   1.146  -0.144 -0.4908 -2.1488  2.7060
  288MOL0     H38837   3.164   1.312  -0.102  0.2196 -1.3811 -1.2532
  288MOL0     H38838   2.932   1.345  -0.043 -1.2291 -0.5253 -0.9102
  288MOL0     H38839   2.898   1.172  -0.085  1.1580 -1.9891 -0.5322
  288MOL0     H38840   2.731   1.385  -0.120 -2.1222  1.2781 -0.5412
  288MOL0     H38841   2.521   1.494  -0.143  1.4619 -0.1542 -1.9390
  288MOL0     H38842   2.382   1.449  -0.253 -1.7894 -2.5282 -0.4406
  288MOL0     H38843   2.455   1.335  -0.120 -1.1078 -0.2852 -1.2728
  288MOL0     H38844   2.317   1.094  -0.603 -0.1159  2.1793  1.6720
  288MOL0     H38845   2.125   1.002  -0.727  2.1482 -0.4377  3.2351
  288MOL0     H38846   1.893   1.284  -0.971  2.0390  1.5725 -1.7145
  288MOL0     H38847   2.015   1.207  -1.077 -0.9416  0.8363 -0.9390
  288MOL0     H38848   1.723   1.119  -1.006 -1.4373 -2.7189 -1.8322
  288MOL0     H38849   1.774   1.176  -1.157  0.5777  0.9166  0.1239
  288MOL0     H38850   1.887   0.927  -1.010 -2.3316  2.6960  2.6017
  288MOL0     H38851   1.908   0.970  -1.179 -3.3291  0.9667 -1.9719
  288MOL0     H38852   1.629   0.929  -1.051 -0.7276  0.5045 -0.5117
  288MOL0     H38853   1.675   0.893  -1.224  1.9364 -1.1204 -0.0521
  288MOL0     H38854   1.730   0.718  -0.976 -1.7881  1.9893  1.3747
  288MOL0     H38855   1.842   0.721  -1.108 -0.2451 -1.7058 -0.8513
  288MOL0     H38856   1.561   0.675  -1.187  0.2627 -0.1289 -2.5674
  288MOL0     H38857   1.712   0.609  -1.254 -1.2623  1.0934 -0.3259
  288MOL0     H38858   1.651   0.519  -0.978  2.3774  2.8942 -0.2026
  288MOL0     H38859   1.723   0.427  -1.110  0.3961  0.2997 -0.8902
  288MOL0     H38860   1.421   0.516  -1.103  0.6753  1.2148 -0.4125
  288MOL0     H38861   1.471   0.361  -1.058  0.3258 -0.1262  0.9961
  288MOL0     H38862   2.072   1.391  -0.902 -1.4041  0.7344  1.3993
  288MOL0     H38863   2.292   1.451  -0.827 -0.7079 -0.1847 -0.5009
  288MOL0     H38864   2.672   1.297  -0.597 -1.6722  1.2533  0.7333
  288MOL0     H38865   2.909   1.279  -0.486  3.9668 -1.4362  5.4285
  288MOL0     H38866   4.085   1.645   1.008  0.4112  1.5493 -2.0486
  288MOL0     H38867   4.293   1.539   1.126 -1.0247 -0.1967  0.6975
  288MOL0     H38868   4.738   1.372   0.987 -3.3721 -0.6416 -2.2395
  288MOL0     H38869   4.941   1.284   1.035 -0.1191 -0.1986 -0.6728
  288MOL0     H38870   4.988   0.829   1.162  0.4044 -0.7255  0.3496
  288MOL0     H38871   5.004   0.875   0.995  0.0882  0.7258 -0.3727
  288MOL0     H38872   5.206   0.836   1.211  0.3013 -0.1196  0.4684
  288MOL0     H38873   5.242   0.976   1.095  1.8042 -0.9445  2.2597
  288MOL0     H38874   5.247   0.799   0.911 -1.7204  0.4250 -0.1590
  288MOL0     H38875   5.177   0.680   1.021  1.9176 -0.3927  1.1754
  288MOL0     H38876   5.423   0.640   1.031  0.3916 -1.0700  2.5435
  288MOL0     H38877   5.393   0.734   1.168  1.3148 -1.6246  0.6617
  288MOL0     H38878   5.628   0.985   0.905 -1.8250  1.8242 -0.8172
  288MOL0     H38879   4.759   0.886   1.075 -2.0801 -0.8177 -0.2416
  288MOL0     H38880   4.564   0.980   1.014 -1.0469  0.8161  0.0709
  289MOL0     O38881   9.818   4.098   6.449  1.2838 -0.5263  0.0372
  289MOL0     C38882   9.874   4.083   6.557  0.5794 -0.1984  1.2663
  289MOL0     O38883   9.828   4.123   6.683 -0.1700  0.1286 -0.2028
  289MOL0     C38884   9.722   4.207   6.701  0.0404 -0.6259  0.4596
  289MOL0     C38885   9.602   4.191   6.624 -0.0980 -0.0988 -0.3923
  289MOL0     C38886   9.489   4.268   6.659  0.6302  0.0973 -0.4222
  289MOL0     C38887   9.486   4.358   6.759  0.6493 -0.8763  0.2501
  289MOL0     O38888   9.376   4.438   6.798  0.3438  0.0784  0.1574
  289MOL0     C38889   9.245   4.393   6.750 -0.1060  0.2011  0.0338
  289MOL0     C38890   9.121   4.476   6.796  0.2358  0.0499  0.1568
  289MOL0     C38891   9.100   4.467   6.943  0.7607 -0.2523 -0.1883
  289MOL0     C38892   8.958   4.430   6.982 -1.2074  1.1809  0.5312
  289MOL0     C38893   8.867   4.546   6.993  0.0597 -0.3627  0.8854
  289MOL0     C38894   8.720   4.507   6.982  0.3120  0.1980  0.5460
  289MOL0     C38895   8.622   4.583   7.065 -0.3531 -0.5035  0.0818
  289MOL0     C38896   8.483   4.581   7.006  0.0212 -0.2340  0.0237
  289MOL0     N38897   8.422   4.446   7.026 -0.1583 -0.1607 -0.0437
  289MOL0     C38898   8.314   4.392   6.966  0.4819 -0.1270 -0.6255
  289MOL0     C38899   8.281   4.276   7.018 -0.2712  0.5146  0.9204
  289MOL0     C38900   8.161   4.185   6.981  0.2727 -0.2586 -0.2318
  289MOL0     C38901   8.077   4.159   7.101  0.2244  0.2021 -0.5349
  289MOL0     C38902   7.943   4.100   7.054  0.2575 -0.0351  0.7034
  289MOL0     C38903   7.838   4.087   7.167  0.1559 -0.3347 -0.3785
  289MOL0     O38904   7.703   4.090   7.115  0.5099  0.2273  0.7450
  289MOL0     C38905   7.610   3.995   7.148  0.1752 -0.3342 -0.4743
  289MOL0     C38906   7.507   3.990   7.054 -0.4117  0.1372  0.0928
  289MOL0     C38907   7.399   3.910   7.073 -0.8204  0.0687  0.2362
  289MOL0     C38908   7.282   3.930   6.980 -0.2351  0.3877  1.0468
  289MOL0     C38909   7.398   3.826   7.179 -0.0629 -0.0098 -0.5106
  289MOL0     C38910   7.282   3.741   7.210  0.0487  0.3708  0.6740
  289MOL0     O38911   7.240   3.717   7.333  0.3678  0.6355 -0.8064
  289MOL0     C38912   7.140   3.635   7.357  0.3497 -0.2495  0.0041
  289MOL0     C38913   7.024   3.689   7.397  0.0122 -0.1238 -0.7272
  289MOL0     C38914   6.916   3.598   7.424  0.7428 -0.7017  0.8071
  289MOL0     C38915   6.928   3.462   7.422 -0.9104 -0.3210  0.3050
  289MOL0     O38916   6.823   3.385   7.455  0.1410  0.3181 -0.2448
  289MOL0     C38917   6.848   3.242   7.461  0.5940 -0.4708 -0.7197
  289MOL0     C38918   6.751   3.177   7.555 -0.6428 -0.7031 -0.3241
  289MOL0     C38919   6.612   3.153   7.493 -0.5145 -0.8661  0.6728
  289MOL0     C38920   6.505   3.150   7.600 -0.0219  0.1077 -0.2532
  289MOL0     C38921   6.363   3.151   7.540  0.1402 -0.4294  0.2598
  289MOL0     C38922   6.335   3.026   7.461 -0.4859  0.3830 -0.4500
  289MOL0     C38923   6.189   3.018   7.420  0.0855  0.2493  0.5800
  289MOL0     C38924   6.151   2.887   7.367  0.2899  0.1793  0.6283
  289MOL0    Cl38925   6.011   2.882   7.265  0.1240 -0.0226 -0.2245
  289MOL0     C38926   7.049   3.411   7.367 -0.0439 -0.5524 -0.2366
  289MOL0     C38927   7.155   3.496   7.350  0.0889 -0.8024  0.2370
  289MOL0     O38928   7.235   3.682   7.114 -0.4133  0.8032 -0.7428
  289MOL0     C38929   7.497   3.825   7.273  0.1518 -0.5902 -0.0942
  289MOL0     C38930   7.604   3.915   7.256 -0.1634 -0.1734 -0.2970
  289MOL0     N38931   8.363   4.269   7.129  0.7965 -0.5185 -0.2310
  289MOL0     N38932   8.426   4.378   7.141  0.0763  0.5635 -0.1185
  289MOL0     C38933   9.614   4.386   6.820 -0.0481  0.2752 -0.2623
  289MOL0     C38934   9.725   4.307   6.794 -0.5009 -0.3081  0.2646
  289MOL0     C38935  10.002   4.009   6.551  0.7838  0.0976 -0.3875
  289MOL0     C38936  10.058   3.973   6.424 -0.0275 -0.0818 -0.4041
  289MOL0     C38937  10.186   3.917   6.415 -0.1085  0.0640  0.0589
  289MOL0     C38938  10.265   3.881   6.529  0.4890 -0.4481 -0.7696
  289MOL0     O38939  10.381   3.812   6.504 -1.1693  0.5820  0.4435
  289MOL0     C38940  10.456   3.763   6.619  0.5812 -0.1930 -0.3746
  289MOL0     C38941  10.578   3.681   6.557 -0.9335  0.7325  0.0982
  289MOL0     C38942  10.647   3.620   6.681  0.4153 -0.0758 -0.2420
  289MOL0     C38943  10.786   3.570   6.649  0.4744  0.5668  0.2920
  289MOL0     C38944  10.836   3.479   6.751 -0.0595 -0.1073 -0.7460
  289MOL0     C38945  10.898   3.419   6.837  0.0525  0.3571 -0.1465
  289MOL0     C38946  10.205   3.909   6.654  0.5751  0.0848 -0.3776
  289MOL0     C38947  10.069   3.976   6.666 -0.2691  0.2606 -0.3967
  289MOL0     H38948   9.592   4.113   6.549 -1.7287 -0.6367  0.3486
  289MOL0     H38949   9.402   4.257   6.596  0.2212  4.4944 -0.9406
  289MOL0     H38950   9.246   4.396   6.641  1.2616 -1.8939 -0.0655
  289MOL0     H38951   9.231   4.290   6.786 -1.1336  0.5613  0.7049
  289MOL0     H38952   9.146   4.581   6.780  0.5168 -0.1755 -0.9767
  289MOL0     H38953   9.034   4.450   6.736 -1.1542  0.7162  1.8206
  289MOL0     H38954   9.163   4.384   6.977  2.3030  0.9518 -0.0008
  289MOL0     H38955   9.135   4.559   6.991  1.1744  0.3398 -1.5678
  289MOL0     H38956   8.913   4.358   6.913  3.5392 -1.8818  0.1085
  289MOL0     H38957   8.967   4.378   7.078  0.0052 -2.7706 -1.4860
  289MOL0     H38958   8.886   4.600   7.086  1.6479  1.2921 -0.3305
  289MOL0     H38959   8.890   4.621   6.917  1.7209 -1.4427  0.2598
  289MOL0     H38960   8.684   4.498   6.879 -3.2367 -1.9779  1.7768
  289MOL0     H38961   8.708   4.403   7.016 -0.4747 -0.0822 -0.5218
  289MOL0     H38962   8.620   4.547   7.169  1.5169 -1.4604 -0.1735
  289MOL0     H38963   8.647   4.690   7.072  0.8091 -0.8310  1.3945
  289MOL0     H38964   8.469   4.613   6.903 -0.3227  0.7671  0.3661
  289MOL0     H38965   8.416   4.649   7.060  0.1223  0.2441 -0.4518
  289MOL0     H38966   8.269   4.431   6.875  1.7040  2.7798 -0.0721
  289MOL0     H38967   8.101   4.238   6.906  2.4449 -1.2537 -2.8474
  289MOL0     H38968   8.185   4.089   6.936 -1.3428 -0.9417  0.2854
  289MOL0     H38969   8.056   4.246   7.164 -1.8209 -0.9170  0.4836
  289MOL0     H38970   8.130   4.092   7.169 -0.6746  0.7777  0.7734
  289MOL0     H38971   7.954   4.003   7.005  0.2485 -0.1294  0.8862
  289MOL0     H38972   7.912   4.175   6.981  3.8047  1.0817  0.1509
  289MOL0     H38973   7.846   4.168   7.239  1.7956 -1.9018  1.3246
  289MOL0     H38974   7.870   3.994   7.215 -0.1795 -0.9891 -1.3835
  289MOL0     H38975   7.509   4.041   6.959  0.0587 -1.3857 -0.7396
  289MOL0     H38976   7.271   3.846   6.911  0.1161  1.2982 -0.1411
  289MOL0     H38977   7.190   3.945   7.037  0.5873 -0.2774  2.6417
  289MOL0     H38978   7.292   4.024   6.924 -0.0425 -0.4528 -0.3796
  289MOL0     H38979   7.016   3.797   7.392  2.7892  0.1773 -0.2287
  289MOL0     H38980   6.828   3.659   7.447  2.4121  3.7770 -3.0581
  289MOL0     H38981   6.828   3.203   7.361  1.7253 -2.3882 -0.2576
  289MOL0     H38982   6.952   3.228   7.492  0.0674  1.6391  2.4835
  289MOL0     H38983   6.786   3.076   7.579  2.4991  0.0313 -1.2650
  289MOL0     H38984   6.749   3.242   7.643  2.1485 -0.9013 -0.0027
  289MOL0     H38985   6.616   3.056   7.441  1.5277 -0.1332 -0.6526
  289MOL0     H38986   6.592   3.234   7.422 -0.7943 -2.5374 -1.2504
  289MOL0     H38987   6.514   3.060   7.661 -2.3406  0.1888  0.3191
  289MOL0     H38988   6.516   3.236   7.666 -0.6371 -0.6452  0.8631
  289MOL0     H38989   6.354   3.230   7.466  1.2393  0.8437  1.4298
  289MOL0     H38990   6.294   3.158   7.624  1.8086 -1.2209  1.7938
  289MOL0     H38991   6.393   3.027   7.369  1.2082 -0.8725  0.5408
  289MOL0     H38992   6.366   2.941   7.523 -3.1672 -1.2039 -1.1046
  289MOL0     H38993   6.167   3.090   7.340 -0.2744  0.6706  1.0436
  289MOL0     H38994   6.126   3.041   7.507  1.1046 -0.4407  1.5132
  289MOL0     H38995   6.128   2.815   7.446  1.4775  1.2331  1.9707
  289MOL0     H38996   6.236   2.846   7.313 -1.5481 -0.6494 -1.8141
  289MOL0     H38997   7.059   3.305   7.347  0.2505 -0.3000 -1.5174
  289MOL0     H38998   7.250   3.452   7.319  0.2580  0.5033 -1.1615
  289MOL0     H38999   7.494   3.749   7.351  1.1564  1.2804  1.8742
  289MOL0     H39000   7.672   3.911   7.341 -1.4684  0.6653  0.8272
  289MOL0     H39001   9.633   4.453   6.904 -2.3509 -0.8897  1.3194
  289MOL0     H39002   9.823   4.332   6.833 -0.5851  0.4062  0.0319
  289MOL0     H39003  10.002   3.991   6.333  2.4054  0.4599 -1.8748
  289MOL0     H39004  10.234   3.902   6.318  1.2201 -2.3079  1.0021
  289MOL0     H39005  10.499   3.842   6.681 -1.8409  1.0549 -0.1857
  289MOL0     H39006  10.401   3.697   6.687 -0.6003  0.0946 -1.0316
  289MOL0     H39007  10.656   3.742   6.511  0.2676 -1.3917 -0.8224
  289MOL0     H39008  10.551   3.612   6.477  2.4686 -0.6983  0.0188
  289MOL0     H39009  10.575   3.542   6.707 -1.2697  1.8174  1.0518
  289MOL0     H39010  10.653   3.680   6.772 -1.2495  1.4702 -1.0898
  289MOL0     H39011  10.853   3.654   6.627 -0.9712  1.4516 -0.9797
  289MOL0     H39012  10.785   3.504   6.561  2.4697 -1.7616  1.8905
  289MOL0     H39013  10.962   3.375   6.911  0.5620  2.7596  0.9593
  289MOL0     H39014  10.250   3.885   6.750  1.8057  1.8998 -0.4539
  289MOL0     H39015  10.028   4.002   6.763  1.1178  1.1527 -0.0178
  290MOL0     O39016   6.358  10.199   9.413  0.2857  0.6409  0.5915
  290MOL0     C39017   6.372  10.188   9.535 -0.5890 -0.4358 -0.0612
  290MOL0     O39018   6.300  10.115   9.622 -0.2160 -0.0965 -0.2764
  290MOL0     C39019   6.170  10.079   9.604  0.8668 -0.3658  0.3428
  290MOL0     C39020   6.112  10.031   9.486 -0.0924  0.3825  0.2463
  290MOL0     C39021   5.984   9.968   9.481 -0.1298 -0.9027 -0.1561
  290MOL0     C39022   5.904   9.965   9.597  0.0419  0.1747  0.1579
  290MOL0     O39023   5.769   9.943   9.587  0.2243 -0.3352 -0.2976
  290MOL0     C39024   5.673  10.002   9.681  0.1340 -0.6055  0.1679
  290MOL0     C39025   5.530   9.988   9.629 -1.2291  0.9253  0.4293
  290MOL0     C39026   5.426  10.040   9.730 -0.3323 -0.4820  0.1043
  290MOL0     C39027   5.274  10.025   9.690 -0.0240 -1.0347 -0.6335
  290MOL0     C39028   5.249  10.033   9.544 -0.6124  0.2483 -0.1650
  290MOL0     C39029   5.106  10.070   9.510 -0.7525  0.1335  0.5418
  290MOL0     C39030   5.069  10.073   9.360 -0.7045 -0.2589 -0.0804
  290MOL0     C39031   4.922  10.106   9.335  0.0086 -0.3527  0.5433
  290MOL0     N39032   4.883  10.240   9.397  0.8022  0.5682 -0.0552
  290MOL0     C39033   4.771  10.274   9.472  0.2584 -0.1931  0.2907
  290MOL0     C39034   4.781  10.413   9.485 -0.0666 -0.0181 -0.3748
  290MOL0     C39035   4.681  10.507   9.540 -0.1602 -0.0758 -0.5424
  290MOL0     C39036   4.586  10.433   9.631 -0.1539  0.5796 -0.3271
  290MOL0     C39037   4.526  10.513   9.752 -0.5595  0.0819 -0.2592
  290MOL0     C39038   4.387  10.472   9.789  0.3441  0.3052  0.9605
  290MOL0     O39039   4.366  10.342   9.837  0.0689  0.8010  0.0463
  290MOL0     C39040   4.252  10.294   9.894 -0.7377  0.0747  0.6700
  290MOL0     C39041   4.234  10.160   9.934  0.0106 -0.2950  0.6040
  290MOL0     C39042   4.126  10.114  10.003  0.0232 -0.3177 -0.2418
  290MOL0     C39043   4.131   9.972  10.042 -0.5181 -0.4102  0.1261
  290MOL0     C39044   4.020  10.210  10.028  0.6526  0.1489  0.2836
  290MOL0     C39045   3.895  10.185  10.103  0.2118  1.1597 -0.1785
  290MOL0     O39046   3.794  10.272  10.084  0.3030  0.0846  0.1629
  290MOL0     C39047   3.699  10.280  10.181  0.6831  0.2607 -0.8090
  290MOL0     C39048   3.565  10.245  10.147 -0.1654 -0.2669 -0.2814
  290MOL0     C39049   3.473  10.242  10.249 -0.1596 -0.0391 -0.5565
  290MOL0     C39050   3.504  10.273  10.388  0.0766 -0.9584  0.3646
  290MOL0     O39051   3.392  10.279  10.467  0.1812 -0.1089  0.3881
  290MOL0     C39052   3.415  10.264  10.603  0.2044 -0.3986 -0.1650
  290MOL0     C39053   3.293  10.229  10.674  0.2061 -0.1523  0.0059
  290MOL0     C39054   3.209  10.357  10.701 -0.5749  0.1780 -0.1299
  290MOL0     C39055   3.066  10.330  10.750  0.4461  0.1349 -0.8413
  290MOL0     C39056   2.953  10.300  10.650  0.1157  0.4824  0.4375
  290MOL0     C39057   2.917  10.151  10.642 -0.9040 -0.4588 -0.0191
  290MOL0     C39058   2.858  10.088  10.776 -1.0852  0.1589  0.0491
  290MOL0     C39059   2.717  10.146  10.781 -0.7546  0.0526  0.2376
  290MOL0    Cl39060   2.656  10.050  10.914  0.3467 -0.2899  0.5696
  290MOL0     C39061   3.632  10.325  10.418  0.1790  0.1596 -0.0301
  290MOL0     C39062   3.730  10.317  10.315 -0.7029 -0.2709 -0.8166
  290MOL0     O39063   3.907  10.104  10.192  0.4382  0.1010 -0.4008
  290MOL0     C39064   4.031  10.345   9.982  0.2095 -0.0807 -0.3652
  290MOL0     C39065   4.148  10.383   9.915 -0.2342  0.0103  0.0647
  290MOL0     N39066   4.899  10.458   9.437 -0.3898  0.1751 -0.2925
  290MOL0     N39067   4.952  10.357   9.378 -0.0966  0.5082 -0.0061
  290MOL0     C39068   5.959  10.021   9.712  1.1711  0.7722  0.3232
  290MOL0     C39069   6.093  10.072   9.717  0.6051 -0.4371 -0.9849
  290MOL0     C39070   6.503  10.246   9.581 -0.5332  0.7458  0.1117
  290MOL0     C39071   6.596  10.311   9.494  0.0428 -0.5563 -0.4441
  290MOL0     C39072   6.713  10.371   9.546  0.1404 -0.0337  0.0210
  290MOL0     C39073   6.756  10.339   9.676 -0.2152 -0.8738 -0.3459
  290MOL0     O39074   6.873  10.408   9.710 -0.0454 -0.4683 -0.4006
  290MOL0     C39075   6.934  10.352   9.827  0.0157  0.3560  0.0141
  290MOL0     C39076   7.074  10.408   9.831 -0.0506 -0.5343 -0.2833
  290MOL0     C39077   7.169  10.326   9.737 -0.0791  0.3063  0.0781
  290MOL0     C39078   7.299  10.401   9.722 -0.1459  0.3792 -0.3601
  290MOL0     C39079   7.377  10.330   9.617 -0.2298 -0.2663  0.7187
  290MOL0     C39080   7.443  10.268   9.540  0.3592  0.2431 -0.2006
  290MOL0     C39081   6.677  10.256   9.756  0.4227 -0.1229  0.1676
  290MOL0     C39082   6.554  10.202   9.710 -0.5747 -0.5776  0.1552
  290MOL0     H39083   6.167  10.025   9.392  0.9644  0.3382  0.8508
  290MOL0     H39084   5.946   9.920   9.392  4.0668 -2.2499 -1.4438
  290MOL0     H39085   5.680   9.968   9.785 -1.9012  0.2650  0.6287
  290MOL0     H39086   5.696  10.109   9.681  2.7686 -1.0641 -2.2259
  290MOL0     H39087   5.517  10.039   9.533 -1.4864 -0.3874 -0.2461
  290MOL0     H39088   5.518   9.882   9.605 -0.2442  0.1409  3.0558
  290MOL0     H39089   5.456  10.011   9.831  3.1868 -1.6485 -1.1425
  290MOL0     H39090   5.439  10.148   9.741 -0.4081 -0.4574 -0.0425
  290MOL0     H39091   5.229   9.931   9.723  2.1339 -2.2124 -0.8435
  290MOL0     H39092   5.225  10.105   9.745  2.7771  0.3268  0.0651
  290MOL0     H39093   5.314  10.109   9.500 -0.8547  0.3027 -0.4354
  290MOL0     H39094   5.268   9.940   9.490 -2.5604  0.0650 -0.6268
  290MOL0     H39095   5.037   9.998   9.557 -0.1787 -1.2034 -0.6158
  290MOL0     H39096   5.086  10.168   9.555 -0.8056 -0.6681  2.3736
  290MOL0     H39097   5.131  10.156   9.326 -1.7314  0.6076  0.1272
  290MOL0     H39098   5.087   9.983   9.300 -1.2862 -0.4549  0.0283
  290MOL0     H39099   4.858  10.025   9.372 -1.4799  0.5791  0.1153
  290MOL0     H39100   4.890  10.109   9.230 -3.3691  3.0349  1.4505
  290MOL0     H39101   4.690  10.206   9.498  2.3279 -2.5625  0.9371
  290MOL0     H39102   4.745  10.573   9.600  1.9916 -2.1949 -0.3542
  290MOL0     H39103   4.631  10.569   9.465  1.6540  1.3219 -0.6690
  290MOL0     H39104   4.635  10.349   9.680 -1.3293 -0.7239 -1.2989
  290MOL0     H39105   4.504  10.394   9.571 -1.8385  0.6309  1.8324
  290MOL0     H39106   4.529  10.621   9.733 -4.1559  0.5792  1.1313
  290MOL0     H39107   4.597  10.503   9.835 -0.7059  2.2145  0.1932
  290MOL0     H39108   4.318  10.486   9.704 -1.2238 -2.5778  1.6233
  290MOL0     H39109   4.351  10.536   9.870 -1.8805 -2.9869  2.7820
  290MOL0     H39110   4.317  10.093   9.912 -0.9359 -0.9559 -1.1975
  290MOL0     H39111   4.160   9.924   9.948 -0.3848  1.5577 -0.8921
  290MOL0     H39112   4.207   9.967  10.120 -0.0060  4.5321  0.2785
  290MOL0     H39113   4.041   9.930  10.087 -0.7430 -1.1234 -0.9658
  290MOL0     H39114   3.541  10.202  10.050 -0.0897 -2.0044  0.4367
  290MOL0     H39115   3.370  10.209  10.247 -0.6574  1.2378  1.1633
  290MOL0     H39116   3.487  10.182  10.605  0.2015 -0.4466 -1.2302
  290MOL0     H39117   3.452  10.357  10.647  1.1850  1.0524 -3.7223
  290MOL0     H39118   3.242  10.153  10.615  1.6662 -1.1997  0.0516
  290MOL0     H39119   3.315  10.184  10.772 -1.9816  1.0787  1.1434
  290MOL0     H39120   3.205  10.416  10.609  2.8085 -0.5828 -0.8865
  290MOL0     H39121   3.264  10.407  10.781 -2.0394  0.3632  0.8072
  290MOL0     H39122   3.069  10.258  10.832  0.3738  0.4562 -0.5539
  290MOL0     H39123   3.024  10.420  10.796 -0.8512 -1.0844  0.4551
  290MOL0     H39124   2.991  10.330  10.551  1.0340 -0.3508  0.5220
  290MOL0     H39125   2.857  10.349  10.668 -0.7638 -0.5757 -1.1165
  290MOL0     H39126   2.855  10.116  10.559 -0.4406 -1.3270 -0.0147
  290MOL0     H39127   3.014  10.104  10.621 -0.6075  0.0331  0.2174
  290MOL0     H39128   2.917  10.111  10.865 -1.0880  1.4291 -0.2614
  290MOL0     H39129   2.860   9.980  10.759  0.2817 -0.0508  1.3164
  290MOL0     H39130   2.663  10.127  10.687 -2.9771 -0.7825  1.6064
  290MOL0     H39131   2.714  10.253  10.802 -1.6646  0.9464 -3.6922
  290MOL0     H39132   3.654  10.358  10.519  2.0883  0.8316 -0.6010
  290MOL0     H39133   3.832  10.344  10.344 -0.5419 -0.3249 -1.3378
  290MOL0     H39134   3.964  10.430   9.985  0.5517  0.1725  0.4224
  290MOL0     H39135   4.155  10.487   9.884  0.9547 -0.4539 -1.3287
  290MOL0     H39136   5.906  10.023   9.807 -1.4408 -1.3831 -0.9820
  290MOL0     H39137   6.134  10.111   9.809  1.3267  0.1350 -1.5371
  290MOL0     H39138   6.572  10.334   9.391  0.9614 -1.2125 -0.8224
  290MOL0     H39139   6.757  10.441   9.475  0.9963 -3.0183 -2.5943
  290MOL0     H39140   6.883  10.391   9.915  1.5638 -0.0031  1.1034
  290MOL0     H39141   6.939  10.243   9.829  2.5239  0.4062  0.6211
  290MOL0     H39142   7.103  10.410   9.937 -1.4839  0.7048  0.1208
  290MOL0     H39143   7.074  10.514   9.803 -0.7656 -0.7818 -1.2509
  290MOL0     H39144   7.122  10.318   9.638 -0.0373 -4.0114  0.2163
  290MOL0     H39145   7.175  10.219   9.760  0.7187 -0.0618 -1.6581
  290MOL0     H39146   7.355  10.405   9.816 -2.5516 -0.7195  1.2382
  290MOL0     H39147   7.271  10.502   9.690 -1.0976  0.2786  0.1155
  290MOL0     H39148   7.506  10.199   9.488 -1.5830 -1.0644 -0.9359
  290MOL0     H39149   6.707  10.215   9.852 -0.7521 -1.0306  0.1730
  290MOL0     H39150   6.504  10.129   9.773 -1.0613 -0.9603 -0.6592
  291MOL0     O39151   2.042  11.272   6.870 -0.7983 -0.6815  0.3514
  291MOL0     C39152   2.029  11.296   6.744 -0.4346 -0.6669 -0.3347
  291MOL0     O39153   1.914  11.303   6.663 -0.1572  0.2432  0.0926
  291MOL0     C39154   1.796  11.309   6.733  0.3407 -0.2932  0.7626
  291MOL0     C39155   1.759  11.216   6.828  0.0287  0.3503  0.8682
  291MOL0     C39156   1.644  11.230   6.902 -0.1714 -0.4503  0.9232
  291MOL0     C39157   1.549  11.329   6.866  0.1882  0.3439  0.3886
  291MOL0     O39158   1.427  11.325   6.931 -0.2600  0.3038 -1.0931
  291MOL0     C39159   1.317  11.292   6.835 -0.1030  0.1230 -0.2465
  291MOL0     C39160   1.202  11.212   6.905 -0.5323 -0.0800  0.7995
  291MOL0     C39161   1.112  11.302   6.992 -0.0663  1.0191  0.6815
  291MOL0     C39162   1.002  11.218   7.061 -0.4736 -0.5812 -0.7325
  291MOL0     C39163   0.881  11.304   7.118  0.9568 -0.4529 -0.4686
  291MOL0     C39164   0.803  11.235   7.224  0.0653  0.6337  0.2674
  291MOL0     C39165   0.705  11.321   7.305  0.5561 -0.2451 -0.5155
  291MOL0     C39166   0.699  11.269   7.449 -0.1479  0.3114 -0.4778
  291MOL0     N39167   0.613  11.150   7.471 -0.1664 -0.4047  0.2314
  291MOL0     C39168   0.484  11.154   7.483  0.6346  0.2015 -0.5539
  291MOL0     C39169   0.450  11.043   7.550  0.2351 -0.5200 -0.5080
  291MOL0     C39170   0.307  11.000   7.589 -0.0184 -0.5531 -0.1853
  291MOL0     C39171   0.242  11.121   7.655 -0.5482  0.4599  0.5841
  291MOL0     C39172   0.107  11.085   7.707  0.4694 -0.2986  0.5500
  291MOL0     C39173   0.030  11.205   7.766 -0.6537  0.2010 -0.6471
  291MOL0     O39174  -0.080  11.132   7.822  0.7878  0.3761  0.5067
  291MOL0     C39175  -0.200  11.195   7.858 -0.1999  0.7280  0.7188
  291MOL0     C39176  -0.310  11.121   7.907  0.1077  0.6107 -0.0460
  291MOL0     C39177  -0.429  11.178   7.955 -0.0958 -0.4536  0.6413
  291MOL0     C39178  -0.539  11.088   8.013  0.3715 -0.6116 -0.1159
  291MOL0     C39179  -0.447  11.315   7.948  0.1864 -0.8446 -0.1315
  291MOL0     C39180  -0.558  11.394   8.012  0.6400 -0.0841 -0.2032
  291MOL0     O39181  -0.677  11.366   7.959  0.1901 -0.5153 -0.2698
  291MOL0     C39182  -0.782  11.434   8.016  0.3106 -0.1304  0.1297
  291MOL0     C39183  -0.852  11.538   7.953  0.3570 -0.2904  0.1658
  291MOL0     C39184  -0.963  11.608   8.013 -0.2739  0.4390 -0.4060
  291MOL0     C39185  -0.997  11.572   8.146  0.4552 -0.1286 -0.8696
  291MOL0     O39186  -1.087  11.658   8.218 -0.6776  0.3055  0.2725
  291MOL0     C39187  -1.218  11.631   8.183  0.3497  0.2130 -0.1562
  291MOL0     C39188  -1.248  11.482   8.218  1.4051 -0.0224  0.2177
  291MOL0     C39189  -1.400  11.446   8.210  0.8404  0.1054 -0.6650
  291MOL0     C39190  -1.456  11.462   8.067 -0.3307  0.4376 -0.0297
  291MOL0     C39191  -1.610  11.455   8.042 -0.4305  0.8014 -0.1471
  291MOL0     C39192  -1.672  11.338   8.122 -0.5525 -1.1425 -0.8049
  291MOL0     C39193  -1.810  11.297   8.060 -0.7807  0.0568  0.5385
  291MOL0     C39194  -1.879  11.187   8.145  0.4235 -0.6319 -0.3371
  291MOL0    Cl39195  -1.946  11.257   8.297 -0.0238  0.1746 -0.2807
  291MOL0     C39196  -0.923  11.466   8.207 -0.1465 -0.6140 -0.7730
  291MOL0     C39197  -0.823  11.403   8.144 -0.1998 -0.0797 -0.3842
  291MOL0     O39198  -0.537  11.470   8.104 -0.2445 -0.1619 -0.4435
  291MOL0     C39199  -0.335  11.396   7.914 -0.5522  0.2536  0.7638
  291MOL0     C39200  -0.216  11.339   7.857 -0.7653 -0.2764  0.3090
  291MOL0     N39201   0.568  10.978   7.583 -0.2363 -0.4964 -0.3320
  291MOL0     N39202   0.660  11.036   7.535  0.1008 -0.2982  0.1343
  291MOL0     C39203   1.577  11.408   6.754  0.0431 -0.1888  0.2506
  291MOL0     C39204   1.700  11.402   6.698 -0.3787  0.0534  0.0268
  291MOL0     C39205   2.162  11.303   6.672 -0.1776  0.2088  0.1314
  291MOL0     C39206   2.174  11.367   6.547  0.7624 -0.9876 -0.0973
  291MOL0     C39207   2.295  11.400   6.484  0.0506  0.9254  0.2142
  291MOL0     C39208   2.414  11.358   6.546  0.1044 -0.2730  0.1718
  291MOL0     O39209   2.548  11.381   6.508 -0.0224 -0.3826 -0.0848
  291MOL0     C39210   2.564  11.468   6.394 -0.0951 -0.1435  0.3305
  291MOL0     C39211   2.701  11.492   6.340  0.2501  0.9193 -0.0621
  291MOL0     C39212   2.824  11.449   6.427  0.4198  0.4014  0.0746
  291MOL0     C39213   2.939  11.546   6.404 -0.1699  0.9813 -0.0216
  291MOL0     C39214   2.923  11.674   6.475 -0.0998 -0.1578  0.3905
  291MOL0     C39215   2.905  11.784   6.531 -0.1914  0.9655 -0.1911
  291MOL0     C39216   2.405  11.287   6.672 -0.1475  0.2572  0.0234
  291MOL0     C39217   2.282  11.270   6.737  0.3425 -0.0942 -0.2960
  291MOL0     H39218   1.823  11.128   6.833 -1.5083 -0.9637 -0.7880
  291MOL0     H39219   1.615  11.170   6.988 -0.1426 -1.1399  0.4589
  291MOL0     H39220   1.287  11.389   6.794  0.7783  0.8603  0.7818
  291MOL0     H39221   1.360  11.229   6.756  1.4807  1.1496 -0.2611
  291MOL0     H39222   1.135  11.180   6.825 -1.9891  4.1199  0.1438
  291MOL0     H39223   1.241  11.127   6.963 -1.3840 -0.8474  0.2747
  291MOL0     H39224   1.169  11.355   7.068 -1.2478  1.1827  1.4818
  291MOL0     H39225   1.067  11.379   6.929  2.9997  3.8505  1.6799
  291MOL0     H39226   0.965  11.137   6.999  0.6444 -1.4284 -0.3183
  291MOL0     H39227   1.049  11.170   7.147 -0.2556  1.4180  0.3294
  291MOL0     H39228   0.926  11.394   7.159  0.1509  0.0552 -0.6821
  291MOL0     H39229   0.818  11.333   7.034 -0.2190 -1.0734  0.1718
  291MOL0     H39230   0.757  11.155   7.165 -0.0566  1.2255 -0.4557
  291MOL0     H39231   0.867  11.177   7.290 -1.2300 -0.3182  0.7242
  291MOL0     H39232   0.739  11.424   7.313  1.5429 -0.6724  1.3985
  291MOL0     H39233   0.605  11.312   7.261  0.5920 -0.1878 -0.6074
  291MOL0     H39234   0.660  11.342   7.520  0.4517 -2.1153  2.6161
  291MOL0     H39235   0.800  11.249   7.486  0.4483 -0.3664 -2.3618
  291MOL0     H39236   0.406  11.208   7.431 -1.7382 -0.2252  2.2858
  291MOL0     H39237   0.253  10.979   7.496  0.2489  3.1593 -1.3482
  291MOL0     H39238   0.309  10.906   7.645 -1.8838 -1.3892 -1.3912
  291MOL0     H39239   0.235  11.195   7.575  0.2148  1.0701  1.0677
  291MOL0     H39240   0.305  11.167   7.732 -0.3892 -0.0622  0.7684
  291MOL0     H39241   0.125  11.009   7.783 -0.1349  0.2404  1.2389
  291MOL0     H39242   0.048  11.044   7.624 -0.0406  0.4828  0.5117
  291MOL0     H39243   0.002  11.273   7.685  0.8130  0.9928 -0.5437
  291MOL0     H39244   0.086  11.258   7.845 -0.8447 -1.3773  0.6096
  291MOL0     H39245  -0.320  11.014   7.916 -2.0381  0.9582  2.8938
  291MOL0     H39246  -0.556  11.117   8.117 -5.9971  0.2691 -0.9909
  291MOL0     H39247  -0.630  11.102   7.953  1.9898 -0.0069 -2.5676
  291MOL0     H39248  -0.514  10.981   8.008 -2.9877 -1.4748 -1.9447
  291MOL0     H39249  -0.815  11.585   7.862 -0.1383 -0.2432 -0.0103
  291MOL0     H39250  -1.006  11.684   7.948 -0.2320 -0.6545 -1.7654
  291MOL0     H39251  -1.286  11.689   8.246  0.8850 -0.2988  0.9240
  291MOL0     H39252  -1.228  11.652   8.076  2.7097  0.5124 -0.3815
  291MOL0     H39253  -1.199  11.408   8.153 -0.5077 -2.6074  1.4968
  291MOL0     H39254  -1.224  11.464   8.324  1.6385 -0.0643  0.1576
  291MOL0     H39255  -1.451  11.511   8.282  1.8515  0.7451 -0.5075
  291MOL0     H39256  -1.404  11.341   8.240 -0.0032  0.2121 -0.3986
  291MOL0     H39257  -1.421  11.558   8.029  2.8118 -0.0375  1.3884
  291MOL0     H39258  -1.411  11.386   8.003 -2.3059  1.1719 -2.4920
  291MOL0     H39259  -1.627  11.439   7.935  0.9429 -1.3942 -0.0761
  291MOL0     H39260  -1.650  11.551   8.079 -2.7420  1.1329 -3.1043
  291MOL0     H39261  -1.607  11.251   8.120  2.2218  0.8253 -2.6699
  291MOL0     H39262  -1.676  11.375   8.225  1.2194 -1.1908 -0.6987
  291MOL0     H39263  -1.791  11.261   7.958 -0.6159  0.4438  0.4317
  291MOL0     H39264  -1.871  11.387   8.050 -0.1487  0.2772 -2.0403
  291MOL0     H39265  -1.824  11.093   8.146  0.8535 -0.3982 -1.3285
  291MOL0     H39266  -1.969  11.169   8.085  1.5814 -0.4792 -2.1710
  291MOL0     H39267  -0.940  11.436   8.310  0.7111  1.2785 -0.0315
  291MOL0     H39268  -0.758  11.336   8.199 -1.8519 -1.3105  0.1346
  291MOL0     H39269  -0.337  11.504   7.910  3.3491  0.4722  0.5972
  291MOL0     H39270  -0.142  11.409   7.819 -2.3972  0.4774 -1.7365
  291MOL0     H39271   1.496  11.471   6.718  0.3229  0.0660  0.0641
  291MOL0     H39272   1.724  11.459   6.609 -0.4187  0.6936  0.4211
  291MOL0     H39273   2.081  11.405   6.506  0.5544  1.0552  2.1026
  291MOL0     H39274   2.287  11.471   6.402 -3.2368 -0.5901 -0.9548
  291MOL0     H39275   2.518  11.413   6.312 -1.0124  1.2581 -0.1367
  291MOL0     H39276   2.517  11.566   6.404  1.1445  0.4124  1.0017
  291MOL0     H39277   2.710  11.598   6.318 -0.7021  1.0265  0.0245
  291MOL0     H39278   2.710  11.452   6.239  1.4134  2.8880 -0.7940
  291MOL0     H39279   2.867  11.353   6.398  0.3092  0.5557 -0.6145
  291MOL0     H39280   2.793  11.450   6.532  1.0081 -2.6987  0.3624
  291MOL0     H39281   2.965  11.553   6.298 -0.9595  0.6100 -0.2476
  291MOL0     H39282   3.020  11.491   6.455 -2.4371  0.2678  3.1531
  291MOL0     H39283   2.904  11.878   6.583  2.5527  0.6877  0.5313
  291MOL0     H39284   2.491  11.259   6.733 -1.4307 -1.9192  0.9434
  291MOL0     H39285   2.287  11.243   6.842 -0.4803 -2.7507 -0.8551
  292MOL0     O39286   2.188   8.646   2.848  0.8051  0.3701 -0.6603
  292MOL0     C39287   2.293   8.627   2.908 -0.1512 -0.7416 -0.5726
  292MOL0     O39288   2.340   8.692   3.025  0.1929 -0.4562  0.3161
  292MOL0     C39289   2.271   8.779   3.105  0.2987 -0.1518 -0.5765
  292MOL0     C39290   2.345   8.826   3.210  0.0426 -0.3684 -0.5537
  292MOL0     C39291   2.290   8.903   3.310 -0.4646 -0.0920 -0.0489
  292MOL0     C39292   2.153   8.927   3.315  0.0742  0.2352 -0.1166
  292MOL0     O39293   2.108   8.979   3.432 -0.6121  0.2850  0.4496
  292MOL0     C39294   2.004   9.076   3.424 -0.1642 -0.0073  0.4790
  292MOL0     C39295   2.052   9.207   3.356 -0.5908 -0.0079 -0.7508
  292MOL0     C39296   1.930   9.305   3.336 -0.6532  0.2749  0.7376
  292MOL0     C39297   1.972   9.410   3.234 -0.0463 -0.0709 -0.1405
  292MOL0     C39298   1.855   9.505   3.210 -0.3409 -0.2174  0.0349
  292MOL0     C39299   1.874   9.645   3.285 -0.1052 -0.9964 -0.1012
  292MOL0     C39300   1.738   9.720   3.265 -0.2526  0.2887  0.3320
  292MOL0     C39301   1.726   9.850   3.337  0.0558 -0.4283  0.3870
  292MOL0     N39302   1.609   9.932   3.309  0.9569 -0.5848  0.3724
  292MOL0     C39303   1.485   9.912   3.357  0.4152 -0.5345 -0.9395
  292MOL0     C39304   1.397   9.984   3.290  1.0353 -0.2078  0.0319
  292MOL0     C39305   1.239   9.982   3.313 -0.6375 -0.5147  0.0966
  292MOL0     C39306   1.159  10.080   3.236  0.3131 -0.4280  1.0088
  292MOL0     C39307   1.009  10.085   3.282 -0.9678 -0.8509  0.8715
  292MOL0     C39308   0.922  10.177   3.191 -0.4612 -0.1273 -0.1275
  292MOL0     O39309   0.854  10.080   3.109  0.4117  0.0890  0.5901
  292MOL0     C39310   0.722  10.107   3.080  1.2004 -0.3868 -0.5432
  292MOL0     C39311   0.675  10.173   2.975  0.7143 -0.1833 -0.3534
  292MOL0     C39312   0.539  10.190   2.951  0.3115  0.2950  0.2790
  292MOL0     C39313   0.486  10.253   2.826  0.4586 -0.2957  0.6251
  292MOL0     C39314   0.441  10.122   3.027 -0.0808 -0.3934  0.1343
  292MOL0     C39315   0.289  10.128   3.018 -0.0382 -0.5162  0.1936
  292MOL0     O39316   0.220  10.028   3.071  0.1412 -0.4852 -0.4466
  292MOL0     C39317   0.087  10.011   3.033  0.1845 -0.0595  0.4204
  292MOL0     C39318  -0.022  10.078   3.082  0.1065 -0.2635 -0.7417
  292MOL0     C39319  -0.142  10.051   3.018 -0.8278 -0.2234  0.1252
  292MOL0     C39320  -0.155   9.977   2.902  0.2420  0.1896  0.7212
  292MOL0     O39321  -0.274   9.923   2.850  0.2343  0.5147  0.3260
  292MOL0     C39322  -0.394  10.003   2.862 -0.1736 -0.0024  0.1135
  292MOL0     C39323  -0.506   9.905   2.807 -0.0991  0.1198  0.2149
  292MOL0     C39324  -0.650   9.979   2.815 -0.0127  0.3238 -0.5385
  292MOL0     C39325  -0.753   9.884   2.749  0.2161 -0.2498  1.6124
  292MOL0     C39326  -0.886   9.956   2.742 -0.0572  0.2408 -0.2584
  292MOL0     C39327  -0.979   9.889   2.640 -0.3259 -0.2251 -0.6230
  292MOL0     C39328  -1.120   9.930   2.666  0.2718  0.1107 -0.1707
  292MOL0     C39329  -1.223   9.886   2.552 -0.1250  1.1045 -0.9834
  292MOL0    Cl39330  -1.390   9.899   2.607  0.0236 -0.0662  0.2984
  292MOL0     C39331  -0.038   9.917   2.853  1.0500  0.3079 -0.1665
  292MOL0     C39332   0.080   9.929   2.922 -0.1610  0.0399  0.6740
  292MOL0     O39333   0.239  10.215   2.959  0.1952  0.6821 -0.8301
  292MOL0     C39334   0.488  10.060   3.141  0.5091  0.6269 -0.6316
  292MOL0     C39335   0.620  10.047   3.164  0.2602 -0.7371  0.3969
  292MOL0     N39336   1.473  10.066   3.203 -0.0703  0.3402  0.5907
  292MOL0     N39337   1.600  10.033   3.217 -0.1600  0.6890 -0.7654
  292MOL0     C39338   2.073   8.887   3.202  1.3392 -0.9058  0.3565
  292MOL0     C39339   2.134   8.806   3.101  0.3939  0.0801  0.3170
  292MOL0     C39340   2.385   8.539   2.831  0.3281 -0.2239 -0.3246
  292MOL0     C39341   2.354   8.462   2.714  0.2043  1.8025  0.6746
  292MOL0     C39342   2.451   8.388   2.655 -0.6905  0.6512  0.5704
  292MOL0     C39343   2.582   8.376   2.696 -0.7081  0.2333 -0.1238
  292MOL0     O39344   2.674   8.309   2.615  0.6252 -0.1479 -0.0872
  292MOL0     C39345   2.805   8.285   2.669 -0.2376 -0.2696 -0.2681
  292MOL0     C39346   2.895   8.213   2.561  0.1251  0.1347  0.1981
  292MOL0     C39347   2.917   8.286   2.427  0.3273  0.6510 -0.5805
  292MOL0     C39348   2.950   8.221   2.288 -0.4684 -0.7330 -0.6476
  292MOL0     C39349   3.079   8.152   2.273 -0.2138 -0.5210 -0.5766
  292MOL0     C39350   3.178   8.087   2.250  0.1929 -0.6768  0.3326
  292MOL0     C39351   2.610   8.438   2.815  0.0358  0.4479 -0.1698
  292MOL0     C39352   2.519   8.527   2.877 -0.3573  0.0409 -0.1487
  292MOL0     H39353   2.449   8.800   3.220 -0.2940 -1.8124 -0.5881
  292MOL0     H39354   2.346   8.927   3.399  0.9730  2.2672 -1.5006
  292MOL0     H39355   1.918   9.027   3.377  0.5252  0.5956 -1.4980
  292MOL0     H39356   1.956   9.095   3.520 -1.7275 -2.6156  0.3341
  292MOL0     H39357   2.116   9.265   3.424  1.1563 -0.2400 -2.1319
  292MOL0     H39358   2.100   9.172   3.265  0.7701 -2.3090  0.7535
  292MOL0     H39359   1.844   9.255   3.290  1.8102  0.1116 -4.4310
  292MOL0     H39360   1.901   9.351   3.431 -3.4284  0.3281 -0.0295
  292MOL0     H39361   2.063   9.464   3.259 -1.3845  2.3359 -0.2455
  292MOL0     H39362   1.989   9.356   3.140  0.1647  1.0449 -0.7528
  292MOL0     H39363   1.835   9.514   3.102 -4.0675  0.3266  0.6234
  292MOL0     H39364   1.759   9.465   3.246 -1.3500  0.2623 -1.9629
  292MOL0     H39365   1.894   9.632   3.392 -2.8625 -1.0307  0.5039
  292MOL0     H39366   1.952   9.702   3.235  1.7232 -2.3397  1.0871
  292MOL0     H39367   1.725   9.745   3.159 -0.3231  0.3773  0.3612
  292MOL0     H39368   1.651   9.660   3.295 -0.4928  1.4147  1.9779
  292MOL0     H39369   1.814   9.911   3.312 -0.0654 -0.6112 -0.4894
  292MOL0     H39370   1.725   9.838   3.446 -1.5192 -0.9088  0.3374
  292MOL0     H39371   1.460   9.846   3.439  1.2171 -1.1505 -1.1773
  292MOL0     H39372   1.204   9.881   3.289  2.4156 -1.4885 -0.5935
  292MOL0     H39373   1.233  10.001   3.420  1.4575  1.6655 -0.1008
  292MOL0     H39374   1.167  10.055   3.130  1.6040  1.8612  0.4938
  292MOL0     H39375   1.202  10.180   3.237  0.4505 -0.4732  0.2629
  292MOL0     H39376   1.017  10.124   3.384  0.2354  0.6195  0.2515
  292MOL0     H39377   0.966   9.984   3.281  0.0196 -1.2938 -0.6215
  292MOL0     H39378   0.989  10.250   3.144 -0.7902 -1.7541 -3.4661
  292MOL0     H39379   0.848  10.240   3.240 -0.9155 -1.1659  0.5502
  292MOL0     H39380   0.753  10.224   2.919  0.9275  0.2830  0.3512
  292MOL0     H39381   0.426  10.340   2.853  0.9913 -0.1178  1.2783
  292MOL0     H39382   0.575  10.278   2.767  0.8694 -0.3889  1.1892
  292MOL0     H39383   0.418  10.196   2.762 -1.7749  0.5016  2.1588
  292MOL0     H39384  -0.025  10.143   3.169 -3.6188 -2.1823  0.7811
  292MOL0     H39385  -0.234  10.085   3.064  0.0117  0.3779  1.4209
  292MOL0     H39386  -0.408  10.027   2.967  0.6920  1.9306 -0.1697
  292MOL0     H39387  -0.396  10.092   2.799  0.4806 -1.5283 -2.2173
  292MOL0     H39388  -0.488   9.875   2.704 -1.7542  0.9495 -0.3543
  292MOL0     H39389  -0.510   9.807   2.856 -0.0260 -0.5095 -0.9958
  292MOL0     H39390  -0.652  10.074   2.759  1.6678  1.2442  0.8423
  292MOL0     H39391  -0.678   9.993   2.920  0.3372 -1.1558 -0.2331
  292MOL0     H39392  -0.719   9.854   2.649  1.4735  0.2398  1.8666
  292MOL0     H39393  -0.762   9.791   2.806  2.1119 -1.1833  0.5124
  292MOL0     H39394  -0.871  10.059   2.709  0.1101 -0.6722 -3.3417
  292MOL0     H39395  -0.937   9.943   2.838  2.0001 -3.8189  0.5247
  292MOL0     H39396  -0.951   9.925   2.541  1.1106  0.2661 -0.0651
  292MOL0     H39397  -0.968   9.780   2.646  0.2985 -0.0836  1.9726
  292MOL0     H39398  -1.123  10.039   2.665  1.7154  0.1669 -0.1903
  292MOL0     H39399  -1.161   9.899   2.762  0.3198 -0.8152 -0.4371
  292MOL0     H39400  -1.219   9.780   2.528 -1.4788  0.3140  1.8408
  292MOL0     H39401  -1.189   9.937   2.462 -2.5485  1.8597 -1.5659
  292MOL0     H39402  -0.046   9.847   2.770 -0.6828 -0.5343  0.6632
  292MOL0     H39403   0.163   9.882   2.871  1.9990  1.2368  2.8278
  292MOL0     H39404   0.425  10.013   3.215 -1.0764  2.5603 -0.6836
  292MOL0     H39405   0.655  10.010   3.260 -1.7009  1.3932  2.0688
  292MOL0     H39406   1.970   8.916   3.186  2.3629  2.0816 -1.7574
  292MOL0     H39407   2.069   8.755   3.030  1.1754 -0.8653  0.2573
  292MOL0     H39408   2.251   8.464   2.682 -0.4091  0.0655  2.3161
  292MOL0     H39409   2.431   8.342   2.559  1.1604 -3.3571  1.9111
  292MOL0     H39410   2.860   8.374   2.701  0.3971  0.0699 -2.1897
  292MOL0     H39411   2.792   8.225   2.760  2.7946  1.8546  1.7540
  292MOL0     H39412   2.851   8.114   2.547 -1.0689 -0.6212  6.4258
  292MOL0     H39413   2.990   8.196   2.614 -0.5390  1.0815  1.7698
  292MOL0     H39414   2.987   8.370   2.435  1.6942 -0.5195  0.1225
  292MOL0     H39415   2.819   8.330   2.404  1.4355  2.6246 -1.8460
  292MOL0     H39416   2.948   8.304   2.217 -0.1421  0.8973  1.1882
  292MOL0     H39417   2.876   8.148   2.255 -2.0067  0.5524 -0.1449
  292MOL0     H39418   3.270   8.041   2.217  1.1839  2.5776 -1.9245
  292MOL0     H39419   2.701   8.418   2.870 -1.0058  1.0665  1.8987
  292MOL0     H39420   2.554   8.577   2.967 -0.4438  0.6672 -0.4618
  293MOL0     O39421   6.259  11.070   2.511 -0.5153 -0.2709 -0.1236
  293MOL0     C39422   6.327  10.964   2.528  0.1447  1.4305 -0.4407
  293MOL0     O39423   6.275  10.840   2.553 -0.4853  0.5524  0.1784
  293MOL0     C39424   6.148  10.824   2.510 -0.8636  0.5499 -0.6421
  293MOL0     C39425   6.102  10.853   2.386  0.4202  0.4043 -0.1198
  293MOL0     C39426   5.979  10.808   2.339  1.1352 -0.4150 -0.4865
  293MOL0     C39427   5.902  10.729   2.425 -0.6664 -0.3586  0.8605
  293MOL0     O39428   5.779  10.692   2.380  0.7057  0.2021  0.6886
  293MOL0     C39429   5.735  10.556   2.397 -0.2908  1.0921 -0.1219
  293MOL0     C39430   5.654  10.517   2.277 -0.1791 -1.0345 -0.0206
  293MOL0     C39431   5.749  10.494   2.159  0.5015 -0.0257  0.8010
  293MOL0     C39432   5.679  10.494   2.022 -0.4336 -0.7280 -0.6083
  293MOL0     C39433   5.780  10.490   1.903  0.3867 -0.1564 -0.1931
  293MOL0     C39434   5.692  10.510   1.773  0.0021 -0.6198  0.8857
  293MOL0     C39435   5.787  10.506   1.650 -0.0243 -0.0593 -0.1328
  293MOL0     C39436   5.781  10.621   1.552  0.3771  0.3262  0.1076
  293MOL0     N39437   5.832  10.570   1.420 -0.4585  0.1963  0.5463
  293MOL0     C39438   5.960  10.581   1.375  0.0534 -0.1662  0.5334
  293MOL0     C39439   5.977  10.502   1.263 -0.3703  1.1426 -0.5134
  293MOL0     C39440   6.106  10.476   1.190  0.1641  0.2032  0.2780
  293MOL0     C39441   6.202  10.379   1.262  0.2981 -0.2243  0.2987
  293MOL0     C39442   6.347  10.401   1.216  1.3052  0.2617  0.1335
  293MOL0     C39443   6.445  10.289   1.247  0.3559 -0.2076 -0.4009
  293MOL0     O39444   6.456  10.255   1.388  0.1589 -0.2291  0.2363
  293MOL0     C39445   6.572  10.208   1.440 -0.2250  1.1248 -0.3958
  293MOL0     C39446   6.661  10.118   1.378 -0.1468 -0.1215  0.1513
  293MOL0     C39447   6.783  10.087   1.434  0.4058 -0.3565 -0.0783
  293MOL0     C39448   6.874  10.014   1.340  0.1503  0.1067  0.4175
  293MOL0     C39449   6.820  10.146   1.560 -0.6687  0.1740  0.0084
  293MOL0     C39450   6.951  10.131   1.629 -0.1715  0.2900 -0.8467
  293MOL0     O39451   7.032  10.035   1.582 -0.0516  0.1851 -0.2100
  293MOL0     C39452   7.164  10.032   1.622  0.2307  0.7530 -0.3528
  293MOL0     C39453   7.240  10.144   1.654 -0.2638 -1.1726 -0.9300
  293MOL0     C39454   7.371  10.137   1.708  0.3845  0.2025 -0.3848
  293MOL0     C39455   7.427  10.004   1.711 -0.0322  0.4748  0.2310
  293MOL0     O39456   7.563   9.984   1.752  0.6763 -0.6757  0.0022
  293MOL0     C39457   7.620  10.089   1.834 -1.1188 -1.4637 -0.5675
  293MOL0     C39458   7.751  10.019   1.879 -0.1224  0.8015 -0.4810
  293MOL0     C39459   7.854  10.112   1.941 -0.5963  0.3270 -0.4114
  293MOL0     C39460   7.955  10.029   2.023  0.5645  0.1373 -0.1473
  293MOL0     C39461   8.061  10.118   2.087 -0.2636 -1.2205 -0.6936
  293MOL0     C39462   8.127  10.237   2.014  0.4405  0.3344  0.1174
  293MOL0     C39463   8.230  10.298   2.116 -0.2841 -0.2624  0.9531
  293MOL0     C39464   8.298  10.431   2.064 -0.7432  0.2432  0.3146
  293MOL0    Cl39465   8.456  10.431   2.141 -0.2998 -0.2726  0.4684
  293MOL0     C39466   7.354   9.893   1.677 -1.0853 -0.3667 -0.5636
  293MOL0     C39467   7.219   9.905   1.637  0.1593  0.2300 -0.0797
  293MOL0     O39468   6.975  10.204   1.723 -0.3256  0.7332  0.3899
  293MOL0     C39469   6.713  10.216   1.626 -0.8848 -0.4548 -0.3480
  293MOL0     C39470   6.600  10.254   1.564 -0.3959 -0.4262  0.1757
  293MOL0     N39471   5.848  10.453   1.244  0.1549  0.0803  0.1231
  293MOL0     N39472   5.767  10.502   1.326  0.1674  0.1375  0.2485
  293MOL0     C39473   5.947  10.703   2.554 -0.3394 -0.5491 -0.2601
  293MOL0     C39474   6.069  10.754   2.599  0.5241 -0.1261 -0.2394
  293MOL0     C39475   6.473  10.983   2.542  0.1304  0.3604  0.5906
  293MOL0     C39476   6.548  10.864   2.563  0.1069  0.4447 -0.1975
  293MOL0     C39477   6.689  10.870   2.566 -0.5321  0.5578  0.1319
  293MOL0     C39478   6.760  10.983   2.533  0.1793  0.1511 -0.5662
  293MOL0     O39479   6.895  10.997   2.518 -0.3690  1.0035  0.0956
  293MOL0     C39480   6.979  10.893   2.555  0.1030  0.1963  0.4134
  293MOL0     C39481   7.125  10.940   2.532 -0.2603  0.1481  0.2813
  293MOL0     C39482   7.228  10.838   2.588 -0.2850 -0.4110 -1.0886
  293MOL0     C39483   7.376  10.886   2.558  0.1207  0.9708 -0.1630
  293MOL0     C39484   7.470  10.785   2.616  0.2037  1.0462 -0.0764
  293MOL0     C39485   7.567  10.714   2.656 -0.3120 -0.7332 -0.2006
  293MOL0     C39486   6.682  11.097   2.516 -0.6185  0.6802 -0.5654
  293MOL0     C39487   6.549  11.097   2.507 -0.1603  0.7728 -0.7094
  293MOL0     H39488   6.157  10.907   2.309  0.3703 -2.4315 -2.3097
  293MOL0     H39489   5.948  10.837   2.239 -1.4692 -1.9773 -0.2324
  293MOL0     H39490   5.822  10.491   2.412  0.2730  1.6753 -0.7927
  293MOL0     H39491   5.668  10.558   2.483  0.7453 -3.4569  1.0276
  293MOL0     H39492   5.587  10.434   2.298  0.1342 -1.5737 -1.0491
  293MOL0     H39493   5.579  10.595   2.256  1.0145 -0.3092 -1.8581
  293MOL0     H39494   5.823  10.573   2.146 -0.4249  0.5516 -1.4361
  293MOL0     H39495   5.797  10.397   2.176  0.3921 -0.1822  0.2449
  293MOL0     H39496   5.627  10.398   2.014  0.9345 -1.4298 -1.4163
  293MOL0     H39497   5.610  10.578   2.011  0.0738 -0.3280 -0.7461
  293MOL0     H39498   5.847  10.576   1.915  0.7958 -0.3243 -1.1824
  293MOL0     H39499   5.838  10.397   1.898 -2.5517 -2.0817 -0.6097
  293MOL0     H39500   5.607  10.443   1.757 -0.3124  0.2916 -1.9127
  293MOL0     H39501   5.641  10.607   1.778 -0.2260 -0.5618 -1.4725
  293MOL0     H39502   5.888  10.485   1.686  0.1709  0.3195 -0.4450
  293MOL0     H39503   5.754  10.412   1.605 -0.2714 -0.8280  1.5595
  293MOL0     H39504   5.851  10.699   1.585  0.0917  0.1910  1.0778
  293MOL0     H39505   5.683  10.668   1.540 -0.6891 -1.8162  0.0210
  293MOL0     H39506   6.034  10.641   1.428  0.7395 -1.1988  0.7840
  293MOL0     H39507   6.079  10.439   1.091 -3.0565  1.5221  0.5469
  293MOL0     H39508   6.145  10.578   1.177 -2.4829  1.2351 -0.2081
  293MOL0     H39509   6.165  10.280   1.234  0.4336 -0.8426  2.1485
  293MOL0     H39510   6.198  10.392   1.371 -1.3993 -1.9576  0.5140
  293MOL0     H39511   6.383  10.498   1.252 -1.5707  1.5599 -0.2419
  293MOL0     H39512   6.345  10.411   1.107 -0.2248  1.0736  0.2126
  293MOL0     H39513   6.541  10.328   1.212  0.2123 -0.8343 -1.5369
  293MOL0     H39514   6.426  10.195   1.195  0.6992 -2.4033  3.1420
  293MOL0     H39515   6.634  10.087   1.278  0.3689  0.2644 -0.1092
  293MOL0     H39516   6.952  10.089   1.329  0.5898  0.2510  3.5661
  293MOL0     H39517   6.910   9.919   1.382  1.0749  0.3218  0.1301
  293MOL0     H39518   6.815   9.994   1.250  0.2333  1.2322  0.0984
  293MOL0     H39519   7.205  10.246   1.648  1.7955 -0.4043 -0.6773
  293MOL0     H39520   7.415  10.229   1.746 -0.3368  0.5351 -0.3370
  293MOL0     H39521   7.646  10.177   1.774 -3.7863  0.5100  0.9317
  293MOL0     H39522   7.561  10.131   1.916  2.8526  1.6222  1.0532
  293MOL0     H39523   7.721   9.944   1.953 -1.0704  0.9483 -0.6952
  293MOL0     H39524   7.795   9.955   1.802 -2.0285 -3.9081  1.9383
  293MOL0     H39525   7.801  10.181   2.008 -1.6037  0.9422 -1.8142
  293MOL0     H39526   7.915  10.173   1.873  1.3804 -1.4746 -0.3596
  293MOL0     H39527   7.907   9.964   2.098 -2.6385  2.9055  0.4415
  293MOL0     H39528   8.010   9.959   1.960  2.3066  1.5700 -0.2847
  293MOL0     H39529   8.144  10.056   2.121  2.1941  2.0216 -0.2901
  293MOL0     H39530   8.014  10.159   2.176  0.6207  0.6252 -1.0276
  293MOL0     H39531   8.181  10.209   1.922 -0.6542  1.1682 -0.8179
  293MOL0     H39532   8.045  10.303   1.983 -0.7544 -0.7557  0.8515
  293MOL0     H39533   8.310  10.224   2.123  0.1466  0.3852  5.0582
  293MOL0     H39534   8.178  10.302   2.212  0.8942 -0.3950  1.6166
  293MOL0     H39535   8.232  10.518   2.076 -0.2826  0.3509  2.2924
  293MOL0     H39536   8.305  10.421   1.955 -2.8461  1.2169  0.0373
  293MOL0     H39537   7.404   9.797   1.687  1.1459  0.6258 -1.5718
  293MOL0     H39538   7.159   9.816   1.620 -2.1954  1.6130  0.5107
  293MOL0     H39539   6.728  10.244   1.730 -2.9730 -0.1562 -0.0733
  293MOL0     H39540   6.529  10.321   1.611  1.2189 -0.4124  2.8566
  293MOL0     H39541   5.910  10.633   2.629  1.2026 -0.9410  0.1861
  293MOL0     H39542   6.087  10.712   2.697 -2.0660 -2.6761 -0.6932
  293MOL0     H39543   6.490  10.772   2.562 -1.9872  1.6969 -2.2469
  293MOL0     H39544   6.741  10.776   2.577 -0.8245  0.2361 -1.1459
  293MOL0     H39545   6.953  10.869   2.658 -1.9223  1.6330  0.2816
  293MOL0     H39546   6.962  10.809   2.487  0.9463  0.6905 -0.4294
  293MOL0     H39547   7.140  11.037   2.580 -2.6790 -0.4399  2.4473
  293MOL0     H39548   7.152  10.963   2.428  0.2697  1.1996  0.6394
  293MOL0     H39549   7.224  10.738   2.542 -1.2985 -1.2906  0.8156
  293MOL0     H39550   7.210  10.824   2.695 -1.0993  1.9985 -0.8511
  293MOL0     H39551   7.391  10.984   2.604  2.9371  0.1542  0.8998
  293MOL0     H39552   7.404  10.892   2.453  0.9687  2.1740  0.1040
  293MOL0     H39553   7.646  10.644   2.678  1.7937  1.9621  1.4296
  293MOL0     H39554   6.739  11.189   2.504  0.9081  0.0626  1.3937
  293MOL0     H39555   6.505  11.191   2.473  0.3286  0.2253 -3.0400
  294MOL0     O39556  10.779   5.348   5.268 -0.0425 -0.2782  0.0486
  294MOL0     C39557  10.811   5.272   5.363 -0.7078  0.2935 -0.0076
  294MOL0     O39558  10.726   5.236   5.468 -0.2296  0.0474 -0.4993
  294MOL0     C39559  10.608   5.297   5.504  0.0133 -0.2823  0.5662
  294MOL0     C39560  10.579   5.279   5.643  0.1832 -0.3599  0.4964
  294MOL0     C39561  10.456   5.321   5.689  0.4510 -0.7339  0.4649
  294MOL0     C39562  10.369   5.396   5.615  0.2296  0.4076  0.9312
  294MOL0     O39563  10.261   5.440   5.679  0.6068 -0.1765  0.1975
  294MOL0     C39564  10.151   5.501   5.600  0.4736 -0.8867  0.2266
  294MOL0     C39565  10.025   5.526   5.687 -0.4671  0.1110 -0.2727
  294MOL0     C39566  10.025   5.650   5.769 -0.2689 -0.3558 -0.2154
  294MOL0     C39567   9.895   5.643   5.871 -1.0678 -0.0796  0.6688
  294MOL0     C39568   9.866   5.774   5.938 -0.0609  0.4469 -0.0426
  294MOL0     C39569   9.750   5.751   6.033  0.3072 -0.5153  0.0531
  294MOL0     C39570   9.713   5.890   6.102 -0.0979 -0.2543 -0.2399
  294MOL0     C39571   9.804   5.898   6.232  0.2608 -0.6270 -0.2650
  294MOL0     N39572   9.758   6.015   6.309 -0.0444 -0.5514  0.5501
  294MOL0     C39573   9.797   6.145   6.284 -1.4883 -0.4029  0.5830
  294MOL0     C39574   9.730   6.239   6.368 -0.7356  0.4563  0.2374
  294MOL0     C39575   9.763   6.387   6.383  0.5791  1.0588  0.4400
  294MOL0     C39576   9.911   6.411   6.426  0.4036  0.1552  0.0310
  294MOL0     C39577   9.945   6.556   6.462 -0.5789 -0.5519 -0.2300
  294MOL0     C39578  10.067   6.569   6.563  0.1802 -0.0336  0.1719
  294MOL0     O39579  10.046   6.513   6.683  0.0127  0.5697  0.3595
  294MOL0     C39580   9.964   6.564   6.775  0.8044 -0.7196  0.0169
  294MOL0     C39581   9.934   6.698   6.797 -0.3217 -0.4646 -0.9902
  294MOL0     C39582   9.832   6.741   6.887  0.7008  0.2711 -0.0820
  294MOL0     C39583   9.803   6.888   6.899 -0.3189 -0.8436 -0.3417
  294MOL0     C39584   9.768   6.646   6.972  0.6355  0.0540 -0.1651
  294MOL0     C39585   9.664   6.676   7.071  0.5342  0.7761  0.7049
  294MOL0     O39586   9.658   6.589   7.172  0.3641 -0.0130 -0.3301
  294MOL0     C39587   9.542   6.578   7.246 -0.5709  0.2247  0.5443
  294MOL0     C39588   9.537   6.607   7.381 -0.0915 -0.5469  0.0429
  294MOL0     C39589   9.424   6.584   7.459 -0.1177  0.6871  0.0406
  294MOL0     C39590   9.311   6.533   7.392  0.2819  0.6610  0.5842
  294MOL0     O39591   9.188   6.519   7.458 -0.6739 -0.5882  0.1800
  294MOL0     C39592   9.084   6.427   7.411  0.6796 -0.4164  0.3472
  294MOL0     C39593   9.008   6.361   7.528  0.4147 -0.4560 -0.4019
  294MOL0     C39594   8.865   6.318   7.503  0.3576  0.4561  0.9685
  294MOL0     C39595   8.799   6.277   7.635  0.5398 -0.0900 -0.0991
  294MOL0     C39596   8.650   6.244   7.622  0.0578  0.1629  0.0228
  294MOL0     C39597   8.583   6.175   7.747 -0.3839 -0.5864 -0.6686
  294MOL0     C39598   8.586   6.252   7.875  0.4869  0.8254 -0.1381
  294MOL0     C39599   8.508   6.180   7.985  0.8225  0.4846 -0.1820
  294MOL0    Cl39600   8.327   6.182   7.954  0.3923 -0.0019 -0.4862
  294MOL0     C39601   9.318   6.522   7.256 -0.3817 -0.1526  0.0392
  294MOL0     C39602   9.433   6.523   7.187  0.6167  0.1123  0.1998
  294MOL0     O39603   9.579   6.763   7.042 -0.3358 -0.1281 -0.0145
  294MOL0     C39604   9.805   6.508   6.958  0.3713 -0.4057  0.1182
  294MOL0     C39605   9.900   6.476   6.856  0.3485  0.6346  0.4023
  294MOL0     N39606   9.659   6.154   6.451  0.2205 -0.3053 -0.1341
  294MOL0     N39607   9.672   6.032   6.413  0.4816 -0.3833  0.6708
  294MOL0     C39608  10.396   5.413   5.478 -1.3658  0.6526  0.0632
  294MOL0     C39609  10.520   5.364   5.421 -0.6869  0.0398  0.1244
  294MOL0     C39610  10.954   5.225   5.370  0.2872 -0.2174  0.0749
  294MOL0     C39611  11.009   5.159   5.477 -0.1612 -0.2052 -1.3927
  294MOL0     C39612  11.145   5.127   5.503  0.5801  0.1710  0.8847
  294MOL0     C39613  11.224   5.157   5.391  0.1848 -0.0242 -1.1628
  294MOL0     O39614  11.366   5.143   5.382  0.5866 -0.4879  0.4426
  294MOL0     C39615  11.446   5.090   5.487 -1.3967 -0.0508 -0.6014
  294MOL0     C39616  11.594   5.120   5.460  0.1416  0.2354 -0.1412
  294MOL0     C39617  11.647   5.089   5.320 -0.3455 -1.6075 -0.0590
  294MOL0     C39618  11.639   4.942   5.278 -1.3319 -0.2741  0.8480
  294MOL0     C39619  11.697   4.855   5.384 -1.5012  0.7006  0.3763
  294MOL0     C39620  11.756   4.782   5.461  0.1172  0.1418 -0.7165
  294MOL0     C39621  11.171   5.216   5.273 -0.2230  1.1808 -0.1595
  294MOL0     C39622  11.043   5.252   5.258 -0.1071 -0.5086  0.6653
  294MOL0     H39623  10.644   5.215   5.702  0.2430  0.1792  1.0180
  294MOL0     H39624  10.431   5.300   5.792  0.7461 -1.1428  0.4562
  294MOL0     H39625  10.184   5.592   5.548  0.1685 -0.0379  1.4492
  294MOL0     H39626  10.116   5.439   5.518 -0.2253  0.3694 -0.4574
  294MOL0     H39627   9.937   5.526   5.621 -0.8819  0.8834  0.2742
  294MOL0     H39628  10.003   5.442   5.754  3.8242 -1.0998 -0.0632
  294MOL0     H39629  10.119   5.664   5.822 -0.3908  2.1084 -0.5408
  294MOL0     H39630  10.005   5.735   5.703 -2.4543 -0.1280  0.6401
  294MOL0     H39631   9.810   5.596   5.820 -0.3221  1.0086 -1.7105
  294MOL0     H39632   9.922   5.567   5.946 -0.6459 -0.5125  0.0925
  294MOL0     H39633   9.958   5.795   5.994 -0.6670 -0.2384  1.2635
  294MOL0     H39634   9.849   5.857   5.869 -0.1762  1.5037  1.2273
  294MOL0     H39635   9.665   5.715   5.975  0.9802 -1.1575 -0.5562
  294MOL0     H39636   9.769   5.672   6.107  3.5961 -2.1082 -2.2065
  294MOL0     H39637   9.734   5.982   6.047 -0.4879 -0.9714 -1.6371
  294MOL0     H39638   9.606   5.893   6.125  0.1609  0.3481  0.9932
  294MOL0     H39639   9.911   5.909   6.208 -0.1131 -0.4472 -1.9877
  294MOL0     H39640   9.798   5.809   6.295 -0.0879 -1.0500 -0.8924
  294MOL0     H39641   9.880   6.167   6.218  0.7093  0.2566  3.3638
  294MOL0     H39642   9.742   6.434   6.287 -0.5589 -1.1161 -0.4684
  294MOL0     H39643   9.700   6.434   6.459  0.7189 -0.0053  1.2473
  294MOL0     H39644   9.977   6.372   6.348  0.3203 -1.6889  0.8434
  294MOL0     H39645   9.926   6.352   6.516 -0.3457  0.6811  0.5085
  294MOL0     H39646   9.853   6.591   6.511 -3.7546 -2.7348 -4.0108
  294MOL0     H39647   9.960   6.608   6.367  4.2370 -1.8340 -0.3950
  294MOL0     H39648  10.101   6.672   6.581  1.0600 -0.1693 -0.6342
  294MOL0     H39649  10.152   6.518   6.517  0.9462  0.7084  0.7225
  294MOL0     H39650   9.992   6.768   6.739  1.7592 -1.9916 -0.8904
  294MOL0     H39651   9.704   6.913   6.860  0.1589  0.0244 -1.0431
  294MOL0     H39652   9.811   6.916   7.005  0.7241  2.0744 -1.0877
  294MOL0     H39653   9.876   6.947   6.843  0.1121 -1.7456 -0.7341
  294MOL0     H39654   9.616   6.662   7.431  0.9332  1.4103 -3.4421
  294MOL0     H39655   9.417   6.608   7.564  3.0460  0.4128  0.4157
  294MOL0     H39656   9.022   6.494   7.352  0.2151 -1.9191 -0.9519
  294MOL0     H39657   9.113   6.357   7.332 -0.1612 -0.9946  0.5425
  294MOL0     H39658   9.052   6.262   7.544 -4.1838 -2.8495 -0.9129
  294MOL0     H39659   9.015   6.425   7.616  0.0841  0.3488 -0.9431
  294MOL0     H39660   8.875   6.226   7.444 -0.6775 -0.0572  1.5626
  294MOL0     H39661   8.795   6.393   7.465 -0.4274 -1.0743 -0.7549
  294MOL0     H39662   8.856   6.190   7.669  1.0171  1.2603  2.9101
  294MOL0     H39663   8.814   6.357   7.709  0.0195  1.0735 -1.2104
  294MOL0     H39664   8.642   6.164   7.547  0.5404  0.3940 -0.2835
  294MOL0     H39665   8.591   6.328   7.584 -2.7913 -2.1145 -0.9322
  294MOL0     H39666   8.480   6.161   7.710 -0.3394  0.4598 -1.2047
  294MOL0     H39667   8.627   6.078   7.773 -0.3919  0.3403  3.4169
  294MOL0     H39668   8.541   6.352   7.866  0.0763  0.7956  1.2607
  294MOL0     H39669   8.689   6.275   7.902  0.4743 -0.5504  1.1968
  294MOL0     H39670   8.534   6.232   8.078  0.8601 -2.1270  1.3754
  294MOL0     H39671   8.545   6.077   7.982  3.7820  1.4681 -2.0774
  294MOL0     H39672   9.231   6.505   7.192 -1.5266  0.2059  1.4559
  294MOL0     H39673   9.427   6.502   7.080 -2.2665 -3.7491  0.8834
  294MOL0     H39674   9.764   6.435   7.027  3.4194  0.1625  2.7351
  294MOL0     H39675   9.933   6.373   6.849 -0.1934  0.5169 -0.6029
  294MOL0     H39676  10.330   5.459   5.405 -1.7693  1.8734  1.1487
  294MOL0     H39677  10.528   5.370   5.313 -2.2392  0.2952 -0.0034
  294MOL0     H39678  10.942   5.135   5.559  1.2553 -0.1411 -0.1719
  294MOL0     H39679  11.183   5.094   5.599  2.1855 -2.0358 -0.4275
  294MOL0     H39680  11.427   5.130   5.587  0.8008  2.0506 -0.9350
  294MOL0     H39681  11.411   4.986   5.493  0.9178 -0.9422 -1.6688
  294MOL0     H39682  11.659   5.064   5.528  2.7130  3.0935 -0.0564
  294MOL0     H39683  11.616   5.223   5.486  0.3200  0.1679 -0.0252
  294MOL0     H39684  11.750   5.125   5.320 -0.2198 -1.8998  1.6795
  294MOL0     H39685  11.593   5.156   5.252  0.5001  1.0906  1.7442
  294MOL0     H39686  11.696   4.942   5.184  0.6314  3.0472  1.8435
  294MOL0     H39687  11.535   4.915   5.258 -1.3310  1.5615 -2.2269
  294MOL0     H39688  11.783   4.724   5.547 -0.4841  1.7267  0.5928
  294MOL0     H39689  11.238   5.219   5.188  4.5964  1.0080  3.2333
  294MOL0     H39690  11.006   5.300   5.168  0.0993  0.4182  1.0660
  295MOL0     O39691   7.056  11.290   5.544 -0.0892  0.1789 -0.3047
  295MOL0     C39692   7.062  11.316   5.427  0.3683 -0.1002 -0.1248
  295MOL0     O39693   6.969  11.274   5.334 -0.0206  0.1723 -0.6727
  295MOL0     C39694   6.867  11.196   5.373  0.2609 -0.1579  0.6709
  295MOL0     C39695   6.740  11.228   5.323 -0.3819  0.1762  0.2218
  295MOL0     C39696   6.620  11.153   5.344  0.0834 -0.0315  0.3440
  295MOL0     C39697   6.633  11.042   5.411 -0.4612 -0.1250 -0.6198
  295MOL0     O39698   6.517  10.970   5.434 -0.0184 -0.1558  0.3765
  295MOL0     C39699   6.528  10.834   5.473  0.1825  0.0684  0.4643
  295MOL0     C39700   6.386  10.775   5.472  0.3381  0.2564  0.1823
  295MOL0     C39701   6.276  10.854   5.538  0.4488 -0.3772 -0.1013
  295MOL0     C39702   6.138  10.776   5.532  0.0888  0.2103 -0.6885
  295MOL0     C39703   6.029  10.858   5.600  0.1604  0.2747  0.4725
  295MOL0     C39704   5.898  10.773   5.608  0.0950 -0.2122  0.1366
  295MOL0     C39705   5.768  10.832   5.673  0.7648 -0.1579 -0.0071
  295MOL0     C39706   5.714  10.954   5.597  0.1005  0.4574 -0.0479
  295MOL0     N39707   5.594  11.019   5.655 -0.2462  0.2210  0.1816
  295MOL0     C39708   5.576  11.038   5.789 -0.2925 -1.2221  0.2428
  295MOL0     C39709   5.469  11.127   5.797  0.7828 -0.5187  0.2014
  295MOL0     C39710   5.401  11.166   5.930  0.0450 -1.2283  0.2025
  295MOL0     C39711   5.290  11.055   5.950  0.0784 -0.8746  0.1133
  295MOL0     C39712   5.177  11.097   6.057 -0.5150 -0.6832 -0.7623
  295MOL0     C39713   5.059  11.004   6.076 -0.4224  0.0832  0.1450
  295MOL0     O39714   4.970  11.007   5.960 -0.7406  0.1886 -0.4609
  295MOL0     C39715   4.850  11.072   5.971 -0.3410  0.5868 -0.5582
  295MOL0     C39716   4.832  11.200   6.025  0.3410 -0.6158  0.1782
  295MOL0     C39717   4.701  11.256   6.032  0.0208  0.2491 -0.1795
  295MOL0     C39718   4.688  11.403   6.087  0.3612  0.2166  0.4029
  295MOL0     C39719   4.587  11.177   5.995  0.5658 -1.0556 -0.0720
  295MOL0     C39720   4.446  11.230   5.989 -0.1908 -0.0042 -0.0869
  295MOL0     O39721   4.344  11.142   5.994  0.1256 -0.1377 -0.1041
  295MOL0     C39722   4.211  11.186   6.003 -0.3021  0.3110 -0.8240
  295MOL0     C39723   4.142  11.174   6.128  0.7729 -0.3105 -0.4634
  295MOL0     C39724   4.014  11.219   6.139 -0.2175 -0.4904  0.3243
  295MOL0     C39725   3.943  11.266   6.033  0.2025 -0.0911 -0.1124
  295MOL0     O39726   3.823  11.330   6.066  0.4377 -0.3197  1.0853
  295MOL0     C39727   3.709  11.252   6.099  0.8151 -0.4878 -0.4184
  295MOL0     C39728   3.626  11.198   5.972 -0.1582 -0.3376 -0.8625
  295MOL0     C39729   3.579  11.311   5.878 -0.5043 -0.0531  0.8310
  295MOL0     C39730   3.486  11.256   5.766 -0.0147  0.1878 -0.8076
  295MOL0     C39731   3.446  11.349   5.646  0.9538  0.9812 -0.5269
  295MOL0     C39732   3.346  11.448   5.693 -0.2030  0.4690 -0.0654
  295MOL0     C39733   3.266  11.494   5.568 -0.3237 -0.2762 -0.7313
  295MOL0     C39734   3.182  11.618   5.597 -0.0421  0.1120  0.9138
  295MOL0    Cl39735   3.296  11.739   5.651  0.2014 -0.3514  0.0907
  295MOL0     C39736   4.006  11.270   5.911 -0.0712 -0.0607  0.2070
  295MOL0     C39737   4.141  11.240   5.892 -0.3515 -0.0644  0.3736
  295MOL0     O39738   4.431  11.351   5.984  0.1337  0.3786 -0.2434
  295MOL0     C39739   4.605  11.052   5.939  0.4879 -0.2820 -0.6420
  295MOL0     C39740   4.733  10.994   5.935  0.4549 -0.2398  0.5629
  295MOL0     N39741   5.434  11.169   5.665  0.0283  0.2980 -0.2058
  295MOL0     N39742   5.517  11.101   5.585  0.1477 -0.0553 -0.6559
  295MOL0     C39743   6.762  10.997   5.454  0.1814  0.1664  0.5155
  295MOL0     C39744   6.876  11.080   5.447 -0.3286  0.8061  0.4533
  295MOL0     C39745   7.150  11.414   5.367 -0.5939 -0.7044  0.0214
  295MOL0     C39746   7.282  11.421   5.423  0.4798 -0.1774  0.1539
  295MOL0     C39747   7.379  11.504   5.380 -0.2405  0.2895  0.4805
  295MOL0     C39748   7.357  11.581   5.264 -0.0402  0.5311  0.6272
  295MOL0     O39749   7.454  11.663   5.214  0.4729  0.6488 -0.4283
  295MOL0     C39750   7.546  11.725   5.310  0.0559  0.1285  0.2823
  295MOL0     C39751   7.665  11.772   5.223  0.8829  0.1975 -0.0847
  295MOL0     C39752   7.744  11.650   5.177  0.3315  0.3929  0.1993
  295MOL0     C39753   7.801  11.676   5.033 -0.3763 -0.3373 -0.8965
  295MOL0     C39754   7.890  11.791   5.019 -0.0126 -0.3346  0.8580
  295MOL0     C39755   7.964  11.886   5.027 -0.2643 -1.3069 -0.2902
  295MOL0     C39756   7.237  11.563   5.198  0.3225  0.1574 -0.1329
  295MOL0     C39757   7.135  11.475   5.246 -0.3215 -0.6121  0.5585
  295MOL0     H39758   6.743  11.311   5.253  0.2788  0.6544  0.8076
  295MOL0     H39759   6.524  11.180   5.300 -1.1512 -3.2418  0.7935
  295MOL0     H39760   6.593  10.771   5.411 -2.2059 -1.8896 -0.1931
  295MOL0     H39761   6.544  10.827   5.581  0.7635 -2.4074  0.2720
  295MOL0     H39762   6.357  10.756   5.368 -1.3196  2.1125  0.2602
  295MOL0     H39763   6.397  10.683   5.530 -3.0142  0.7137  1.7582
  295MOL0     H39764   6.295  10.886   5.641  0.7160  0.7871 -0.4939
  295MOL0     H39765   6.259  10.939   5.470 -1.2055  0.5409  1.3685
  295MOL0     H39766   6.107  10.748   5.431  1.1938 -3.5587 -0.1391
  295MOL0     H39767   6.146  10.683   5.589  1.3365  1.6498  1.6627
  295MOL0     H39768   6.046  10.896   5.701  0.5994  1.5965 -0.0848
  295MOL0     H39769   6.005  10.948   5.542 -1.1281  1.8578  3.2409
  295MOL0     H39770   5.874  10.735   5.508 -0.3149  2.3718 -0.8060
  295MOL0     H39771   5.920  10.685   5.670 -1.8144  1.2062  3.0151
  295MOL0     H39772   5.690  10.755   5.675  1.3469 -0.7885 -0.7460
  295MOL0     H39773   5.791  10.882   5.767 -2.1824  1.6852 -0.1656
  295MOL0     H39774   5.688  10.921   5.497 -0.4133 -0.2653  0.3137
  295MOL0     H39775   5.800  11.022   5.596  2.8466 -2.7704 -0.9811
  295MOL0     H39776   5.618  10.982   5.871 -1.9867 -5.3506 -1.4083
  295MOL0     H39777   5.472  11.167   6.013 -1.3253  0.9336  1.4500
  295MOL0     H39778   5.348  11.259   5.908  0.1043 -1.4356 -0.8652
  295MOL0     H39779   5.344  10.973   6.000  1.2386  1.3746  2.8251
  295MOL0     H39780   5.246  11.027   5.854 -3.5729  0.2869  1.2773
  295MOL0     H39781   5.150  11.200   6.029  1.2706 -0.7844 -3.1693
  295MOL0     H39782   5.225  11.100   6.156 -1.6963 -0.0321 -0.1790
  295MOL0     H39783   5.005  11.041   6.164  1.1754  0.3374  1.0627
  295MOL0     H39784   5.081  10.902   6.109 -4.7253 -0.2508  2.8403
  295MOL0     H39785   4.916  11.266   6.044  1.0811 -0.8071 -2.2088
  295MOL0     H39786   4.781  11.450   6.121 -1.0237  3.6238 -0.0599
  295MOL0     H39787   4.667  11.464   5.998 -0.5359 -2.7355 -1.5482
  295MOL0     H39788   4.613  11.413   6.166  0.1179  3.3674 -0.0834
  295MOL0     H39789   4.203  11.133   6.208  0.2127 -2.5403 -1.1235
  295MOL0     H39790   3.981  11.234   6.242  0.7369  1.7740  0.3704
  295MOL0     H39791   3.750  11.169   6.158  0.9759 -0.0611  0.0651
  295MOL0     H39792   3.637  11.308   6.158  0.2185 -0.8117 -0.8315
  295MOL0     H39793   3.682  11.127   5.911 -2.1286 -0.0694 -3.1416
  295MOL0     H39794   3.537  11.140   6.000 -0.2094 -1.3751 -3.0023
  295MOL0     H39795   3.667  11.356   5.831 -1.6738 -0.2070 -1.6551
  295MOL0     H39796   3.528  11.386   5.940 -1.1734 -2.1457  3.0049
  295MOL0     H39797   3.535  11.166   5.727 -2.5022 -0.6901 -2.1728
  295MOL0     H39798   3.391  11.223   5.809  0.1366  1.2520  0.4022
  295MOL0     H39799   3.398  11.292   5.566 -1.0419  2.3092 -0.3600
  295MOL0     H39800   3.531  11.409   5.614  2.1597  1.0203  2.4020
  295MOL0     H39801   3.283  11.405   5.772 -1.6463 -0.0996 -1.4811
  295MOL0     H39802   3.393  11.534   5.742  1.6175  1.3870 -3.1198
  295MOL0     H39803   3.215  11.403   5.535 -0.7985 -0.7176  1.0954
  295MOL0     H39804   3.343  11.519   5.496  2.5015 -1.2141  1.7708
  295MOL0     H39805   3.107  11.593   5.673 -0.8255  1.9535  0.8049
  295MOL0     H39806   3.114  11.652   5.518 -0.0581  1.4583  1.4784
  295MOL0     H39807   3.955  11.305   5.822  0.9973  0.1360 -0.3405
  295MOL0     H39808   4.194  11.243   5.798  0.8640 -0.6730  1.0064
  295MOL0     H39809   4.521  10.997   5.896  1.3927 -1.7970 -0.5489
  295MOL0     H39810   4.741  10.894   5.893 -0.4046 -0.5641  1.1623
  295MOL0     H39811   6.772  10.905   5.511  0.3224 -0.4757 -0.5264
  295MOL0     H39812   6.974  11.063   5.490  0.4619  3.5817 -0.1006
  295MOL0     H39813   7.302  11.351   5.504 -0.0994 -2.2294 -1.3906
  295MOL0     H39814   7.474  11.502   5.433 -0.0249  0.6236  0.1165
  295MOL0     H39815   7.491  11.809   5.353 -2.0104  0.5584 -2.8702
  295MOL0     H39816   7.592  11.658   5.383 -0.6911  0.6093  1.2163
  295MOL0     H39817   7.729  11.831   5.289  0.0597 -1.0021  1.8891
  295MOL0     H39818   7.626  11.826   5.136  2.0058 -1.2902 -1.5509
  295MOL0     H39819   7.674  11.566   5.178  0.0999  0.5671  2.0176
  295MOL0     H39820   7.822  11.623   5.248 -1.6007 -2.2856  1.4596
  295MOL0     H39821   7.713  11.684   4.968 -2.2168  0.5178  1.5555
  295MOL0     H39822   7.849  11.582   5.002  0.5680  0.1718 -1.0170
  295MOL0     H39823   8.031  11.969   5.042 -2.5063  0.7784 -1.0596
  295MOL0     H39824   7.221  11.612   5.102  0.1802  1.3213  0.4673
  295MOL0     H39825   7.046  11.457   5.186 -0.9498  3.5647 -0.0803
  296MOL0     O39826  10.563   7.057   1.459 -0.2419 -0.5662  0.2889
  296MOL0     C39827  10.614   6.980   1.375  0.5868 -0.9773 -0.2959
  296MOL0     O39828  10.542   6.941   1.264  0.0697 -0.3505 -0.4524
  296MOL0     C39829  10.403   6.922   1.275  0.4187 -0.3227 -0.3871
  296MOL0     C39830  10.341   6.939   1.149  0.0173  0.4181 -0.1490
  296MOL0     C39831  10.208   6.895   1.135 -0.4363  0.2268  0.2433
  296MOL0     C39832  10.138   6.847   1.253 -0.5942  0.5300  0.8783
  296MOL0     O39833  10.016   6.788   1.251 -0.1604  0.5142  0.1320
  296MOL0     C39834   9.913   6.810   1.144  0.3528 -0.5036 -0.6575
  296MOL0     C39835   9.891   6.681   1.063  0.4603 -0.4123 -0.5942
  296MOL0     C39836   9.852   6.576   1.154  0.1752  0.5791  0.8992
  296MOL0     C39837   9.764   6.473   1.082 -0.0324 -0.5178  0.4049
  296MOL0     C39838   9.729   6.370   1.187 -0.8153 -0.5387  0.1964
  296MOL0     C39839   9.666   6.242   1.129 -0.3461 -0.8797 -0.2975
  296MOL0     C39840   9.674   6.132   1.225  0.2498 -0.2429  0.3387
  296MOL0     C39841   9.571   6.019   1.194 -0.4620 -0.4519  0.3252
  296MOL0     N39842   9.621   5.898   1.252  0.3194 -0.1101 -0.6977
  296MOL0     C39843   9.631   5.861   1.388  0.1234 -0.3422  1.3585
  296MOL0     C39844   9.657   5.729   1.380 -0.1342 -1.1390  0.1561
  296MOL0     C39845   9.669   5.640   1.505  0.0546 -0.5309  0.2027
  296MOL0     C39846   9.628   5.492   1.491  0.1483  0.9580  0.2386
  296MOL0     C39847   9.482   5.456   1.496 -0.1581  0.6971 -0.4784
  296MOL0     C39848   9.400   5.524   1.394  0.5809 -0.0863 -0.0147
  296MOL0     O39849   9.381   5.662   1.445  0.1494  0.3634  0.1543
  296MOL0     C39850   9.276   5.731   1.395 -0.7011  0.4589  0.0562
  296MOL0     C39851   9.179   5.684   1.304 -0.6803  0.5254  0.0402
  296MOL0     C39852   9.081   5.773   1.257 -0.6885 -0.0514 -0.2979
  296MOL0     C39853   8.981   5.719   1.157 -0.4845 -0.1769 -0.4646
  296MOL0     C39854   9.075   5.908   1.305 -0.4228  0.1305  0.1224
  296MOL0     C39855   8.963   5.992   1.274 -1.7036 -0.5496 -0.3754
  296MOL0     O39856   8.998   6.119   1.251 -0.3438  0.4432  0.0093
  296MOL0     C39857   8.902   6.212   1.213  0.3747  1.1397  0.3650
  296MOL0     C39858   8.881   6.263   1.079  0.0495 -0.2260 -0.0042
  296MOL0     C39859   8.778   6.350   1.043  1.0555  0.3341  0.2404
  296MOL0     C39860   8.691   6.401   1.145  0.0759 -0.0988 -0.7230
  296MOL0     O39861   8.579   6.473   1.107 -0.2169  0.4349 -0.1075
  296MOL0     C39862   8.486   6.522   1.197  0.2671 -0.0404 -0.7670
  296MOL0     C39863   8.537   6.644   1.269  0.2357 -0.0235  0.0950
  296MOL0     C39864   8.551   6.758   1.178 -0.2637 -1.0268 -0.2693
  296MOL0     C39865   8.420   6.843   1.184 -0.1342  0.1476 -0.3476
  296MOL0     C39866   8.418   6.938   1.069  0.4369 -0.4928  0.0341
  296MOL0     C39867   8.290   7.030   1.062 -0.8796  0.3051  0.0632
  296MOL0     C39868   8.156   6.961   1.020  0.8260 -0.1933  0.0155
  296MOL0     C39869   8.058   7.067   0.967  0.1392 -0.9069  0.5953
  296MOL0    Cl39870   7.924   7.009   0.867  0.3406 -0.2079 -0.4087
  296MOL0     C39871   8.708   6.356   1.269  0.1231  0.4844 -0.5253
  296MOL0     C39872   8.807   6.251   1.306 -0.2931 -0.1343  0.2070
  296MOL0     O39873   8.848   5.950   1.277  0.1701  0.1111 -0.4551
  296MOL0     C39874   9.180   5.954   1.396  0.8774 -0.1529  0.5837
  296MOL0     C39875   9.282   5.868   1.427  0.0821 -0.5651 -0.3364
  296MOL0     N39876   9.673   5.688   1.249  0.3333 -0.1488 -0.5379
  296MOL0     N39877   9.650   5.788   1.171 -0.2471 -0.3754  0.8022
  296MOL0     C39878  10.205   6.845   1.379  0.7725  0.3106 -0.5878
  296MOL0     C39879  10.331   6.886   1.392 -0.1116  0.3209 -0.5628
  296MOL0     C39880  10.766   6.948   1.373  1.1268  0.3990 -0.1725
  296MOL0     C39881  10.814   6.888   1.259 -0.8451 -0.8903 -0.8972
  296MOL0     C39882  10.953   6.861   1.251 -0.1329 -0.4848  0.3766
  296MOL0     C39883  11.041   6.900   1.345  0.2999  0.2921  0.0611
  296MOL0     O39884  11.177   6.877   1.324  0.3830 -0.5026  0.3754
  296MOL0     C39885  11.265   6.827   1.426 -0.3786  0.6427  0.6481
  296MOL0     C39886  11.354   6.939   1.481  0.6229 -0.1206  0.4902
  296MOL0     C39887  11.453   6.878   1.581 -0.3014 -0.0048 -0.4216
  296MOL0     C39888  11.565   6.969   1.625  0.3741 -0.3384  0.5631
  296MOL0     C39889  11.663   6.903   1.711  1.0358 -0.6464  0.3055
  296MOL0     C39890  11.744   6.841   1.766 -0.7937 -0.6322  0.2059
  296MOL0     C39891  10.986   6.957   1.468 -0.1446 -0.0201  1.1535
  296MOL0     C39892  10.850   6.980   1.479  0.5108  0.1127 -0.0441
  296MOL0     H39893  10.401   6.968   1.063  1.2522 -2.9028 -0.5733
  296MOL0     H39894  10.158   6.890   1.039  0.5698  0.2307 -0.2875
  296MOL0     H39895   9.819   6.843   1.188  2.0721  0.3202  2.7697
  296MOL0     H39896   9.941   6.891   1.076  0.1566 -1.6741 -2.1786
  296MOL0     H39897   9.813   6.695   0.988 -0.0899  1.7598  0.2982
  296MOL0     H39898   9.980   6.649   1.009  0.3938 -1.7943  0.0624
  296MOL0     H39899   9.951   6.546   1.189  0.1894 -0.4369  0.0444
  296MOL0     H39900   9.795   6.613   1.240  2.9459  1.7009  2.3827
  296MOL0     H39901   9.672   6.518   1.044 -0.1549 -0.7036  0.4835
  296MOL0     H39902   9.822   6.419   1.006 -1.5590  0.9771 -1.9388
  296MOL0     H39903   9.824   6.349   1.237  0.4154 -1.8081 -2.4348
  296MOL0     H39904   9.670   6.416   1.267  0.2736  1.9112 -0.3245
  296MOL0     H39905   9.562   6.264   1.106 -0.4108 -1.3605 -0.4710
  296MOL0     H39906   9.713   6.215   1.033  1.0432  3.5953 -1.0913
  296MOL0     H39907   9.775   6.090   1.211 -0.9078 -2.8153 -0.9101
  296MOL0     H39908   9.659   6.168   1.327  0.8118 -0.1320  0.3906
  296MOL0     H39909   9.549   6.005   1.088 -0.8751  1.1808  0.1742
  296MOL0     H39910   9.475   6.051   1.234 -0.3767  3.5708 -2.1357
  296MOL0     H39911   9.607   5.924   1.474 -1.6784 -0.7562  1.2048
  296MOL0     H39912   9.775   5.640   1.532  0.6937 -1.2517 -2.0990
  296MOL0     H39913   9.599   5.667   1.585 -2.2076 -0.9565 -1.5468
  296MOL0     H39914   9.671   5.438   1.576  0.9100  0.4471 -0.4612
  296MOL0     H39915   9.677   5.454   1.401 -0.5317 -0.0959  0.3018
  296MOL0     H39916   9.446   5.480   1.596 -0.1198 -1.9040  0.2257
  296MOL0     H39917   9.472   5.348   1.479 -0.3353  0.9906 -2.5462
  296MOL0     H39918   9.308   5.465   1.385 -0.5273  1.7026 -1.0068
  296MOL0     H39919   9.446   5.532   1.295 -0.6567  1.5203 -0.5085
  296MOL0     H39920   9.169   5.582   1.269 -0.6446  0.0930  1.2229
  296MOL0     H39921   8.895   5.674   1.207 -1.6070  2.2787 -0.0324
  296MOL0     H39922   8.946   5.794   1.086 -0.2057 -1.1922 -1.6982
  296MOL0     H39923   9.031   5.643   1.097  2.5599  1.8464 -0.7236
  296MOL0     H39924   8.950   6.232   1.002 -0.3121  1.2785 -0.9744
  296MOL0     H39925   8.755   6.395   0.947  0.9698  0.0637  0.1342
  296MOL0     H39926   8.403   6.564   1.138  0.2471 -0.5560 -1.1197
  296MOL0     H39927   8.451   6.442   1.262 -0.4550 -2.3348 -3.7278
  296MOL0     H39928   8.476   6.663   1.357  0.9706 -0.8985  0.8118
  296MOL0     H39929   8.637   6.617   1.304 -0.6134 -3.0128  0.4518
  296MOL0     H39930   8.577   6.733   1.075 -1.3027  3.6280 -1.8942
  296MOL0     H39931   8.632   6.817   1.224 -0.4358 -2.4635  2.0315
  296MOL0     H39932   8.332   6.779   1.178 -1.8063  2.0599  1.7442
  296MOL0     H39933   8.410   6.899   1.278 -1.7717 -2.2984  1.0295
  296MOL0     H39934   8.423   6.875   0.979  1.5224  0.7638 -0.8330
  296MOL0     H39935   8.505   7.005   1.066 -0.6538  0.9937  0.2128
  296MOL0     H39936   8.287   7.086   1.156  0.7503  0.5481  0.0017
  296MOL0     H39937   8.315   7.106   0.988  1.2441 -0.5937 -0.2303
  296MOL0     H39938   8.108   6.898   1.095  0.1159  0.5214  0.1706
  296MOL0     H39939   8.175   6.892   0.938 -0.2937 -0.9678  0.3868
  296MOL0     H39940   8.123   7.125   0.900  1.6224 -1.7202  1.2846
  296MOL0     H39941   8.017   7.126   1.049  0.8536  0.5603 -0.0646
  296MOL0     H39942   8.660   6.388   1.361  1.3300 -3.1794  1.5966
  296MOL0     H39943   8.818   6.206   1.404  0.5162 -3.1190 -1.1412
  296MOL0     H39944   9.164   6.057   1.426  2.9155 -0.2252  2.1201
  296MOL0     H39945   9.365   5.903   1.488 -0.6412  1.7456 -0.5659
  296MOL0     H39946  10.159   6.797   1.464 -0.5972 -0.3661 -1.6569
  296MOL0     H39947  10.373   6.873   1.491  0.3156  2.2700 -0.4339
  296MOL0     H39948  10.750   6.852   1.179 -2.9887  3.0059 -1.1615
  296MOL0     H39949  10.989   6.822   1.156 -0.7152  1.2670 -0.6148
  296MOL0     H39950  11.207   6.785   1.508  1.0326 -1.5334  0.6305
  296MOL0     H39951  11.329   6.746   1.388  1.0144  1.0750  1.9674
  296MOL0     H39952  11.290   7.013   1.531  2.5462 -0.2173  3.2958
  296MOL0     H39953  11.407   6.980   1.395 -0.8924 -1.7480 -1.2926
  296MOL0     H39954  11.497   6.788   1.536 -1.0016 -1.1273  1.0266
  296MOL0     H39955  11.390   6.843   1.663 -1.8304  0.8702 -1.1848
  296MOL0     H39956  11.517   7.045   1.687 -0.9565 -0.2209 -0.5490
  296MOL0     H39957  11.621   7.019   1.546 -1.2296  0.4984 -0.0960
  296MOL0     H39958  11.825   6.789   1.812 -0.4928 -0.2457  0.1152
  296MOL0     H39959  11.042   6.996   1.553 -2.2294  4.1304  0.8513
  296MOL0     H39960  10.808   7.041   1.559 -1.2634  2.8083 -2.8089
  297MOL0     O39961   4.918   1.665   4.910 -0.6135 -0.0051 -0.9445
  297MOL0     C39962   4.948   1.784   4.950  0.8860  0.4229  0.4568
  297MOL0     O39963   4.861   1.887   4.934 -0.8014  0.1609  0.1368
  297MOL0     C39964   4.737   1.844   4.907  0.2718 -0.1149  0.0370
  297MOL0     C39965   4.658   1.812   5.018 -0.2747 -0.6637 -0.1538
  297MOL0     C39966   4.519   1.785   4.999 -0.2360 -0.7678 -0.0214
  297MOL0     C39967   4.464   1.797   4.879 -0.6928 -0.3456  0.4354
  297MOL0     O39968   4.333   1.761   4.866 -0.1865 -0.1510 -0.1393
  297MOL0     C39969   4.262   1.850   4.773  0.4034  0.9387  0.1906
  297MOL0     C39970   4.118   1.830   4.792 -0.1235 -0.1515 -0.2667
  297MOL0     C39971   4.050   1.913   4.678 -0.0867  0.4318 -0.7726
  297MOL0     C39972   3.915   1.965   4.727 -0.1545 -0.2576 -0.8569
  297MOL0     C39973   3.821   1.853   4.800 -0.3117 -0.0080  0.4737
  297MOL0     C39974   3.695   1.920   4.846  0.2297 -0.1866 -0.0941
  297MOL0     C39975   3.583   1.830   4.885  0.2162 -0.2723  0.2498
  297MOL0     C39976   3.447   1.900   4.920 -0.5718  0.3465 -0.5004
  297MOL0     N39977   3.394   1.991   4.827  0.4604 -1.2414  0.3278
  297MOL0     C39978   3.448   2.114   4.804  0.2109  0.4020 -0.2125
  297MOL0     C39979   3.349   2.192   4.746 -0.4200 -0.3424 -0.8052
  297MOL0     C39980   3.341   2.344   4.726  0.0132 -0.9296  0.8749
  297MOL0     C39981   3.331   2.417   4.856  0.3689  0.6427  0.2540
  297MOL0     C39982   3.206   2.386   4.929  0.3448 -0.3164  0.2346
  297MOL0     C39983   3.078   2.404   4.837 -0.3065  0.1707  0.2003
  297MOL0     O39984   2.958   2.408   4.919  0.5032  0.5132  0.0840
  297MOL0     C39985   2.834   2.424   4.859  0.4136  0.3686 -0.0360
  297MOL0     C39986   2.813   2.421   4.720 -0.0706 -0.5908 -1.0318
  297MOL0     C39987   2.681   2.445   4.675 -0.1256  0.1276 -0.0126
  297MOL0     C39988   2.658   2.431   4.519  0.0875  0.0441 -0.4149
  297MOL0     C39989   2.572   2.469   4.763 -0.8382  0.3421 -0.0026
  297MOL0     C39990   2.428   2.492   4.730 -0.5526  0.0737  0.0733
  297MOL0     O39991   2.377   2.462   4.604  0.3248  0.5965  0.0190
  297MOL0     C39992   2.245   2.475   4.575  0.5907  0.2399  0.5061
  297MOL0     C39993   2.208   2.485   4.437 -0.3939  0.0156  0.0613
  297MOL0     C39994   2.074   2.515   4.397 -0.2480 -0.0521  1.3887
  297MOL0     C39995   1.969   2.526   4.485  0.4040 -0.0763 -0.3979
  297MOL0     O39996   1.850   2.549   4.429  0.1159  0.4477  0.4429
  297MOL0     C39997   1.733   2.522   4.502  0.0819 -0.1257  0.2938
  297MOL0     C39998   1.623   2.523   4.406  0.3114 -0.6493 -0.0316
  297MOL0     C39999   1.490   2.493   4.484  0.3167  0.8856  0.8701
  297MOL0     C40000   1.466   2.341   4.505 -0.7581 -0.3630  0.0057
  297MOL0     C40001   1.344   2.312   4.596  0.8600  0.2275  0.0143
  297MOL0     C40002   1.335   2.169   4.638  0.1784 -0.5719  0.7368
  297MOL0     C40003   1.232   2.148   4.744  0.0001 -0.4743  0.3603
  297MOL0     C40004   1.228   2.007   4.783  0.2926  0.9245 -0.1359
  297MOL0    Cl40005   1.234   1.883   4.656  0.3132  0.6594 -0.0011
  297MOL0     C40006   2.002   2.501   4.617 -0.3247 -0.1171 -0.6862
  297MOL0     C40007   2.134   2.473   4.661  0.2268 -0.5427 -0.2885
  297MOL0     O40008   2.370   2.561   4.810 -0.5039  0.4028  0.3017
  297MOL0     C40009   2.595   2.449   4.900 -0.3105  0.1737  0.3584
  297MOL0     C40010   2.729   2.432   4.945 -0.3370 -0.3200  0.3582
  297MOL0     N40011   3.237   2.111   4.735 -0.0959 -0.1945 -0.1496
  297MOL0     N40012   3.263   1.990   4.780 -0.3445 -0.1430  0.3427
  297MOL0     C40013   4.545   1.828   4.768 -0.6943  0.0413 -1.6523
  297MOL0     C40014   4.676   1.850   4.784  0.0757 -0.5134  0.5441
  297MOL0     C40015   5.078   1.813   5.002 -0.3117  0.2881 -0.5313
  297MOL0     C40016   5.108   1.942   5.045  0.0185  1.1321 -0.0294
  297MOL0     C40017   5.236   1.963   5.092  0.7989 -0.4884  0.3745
  297MOL0     C40018   5.342   1.873   5.078 -0.1057  1.3384 -0.0289
  297MOL0     O40019   5.468   1.921   5.104 -0.1866 -0.1583  0.2581
  297MOL0     C40020   5.584   1.835   5.092  0.1544  0.3223 -0.6012
  297MOL0     C40021   5.720   1.894   5.133 -0.0992  0.6076  0.5312
  297MOL0     C40022   5.832   1.795   5.097  0.1843 -0.2860 -0.5397
  297MOL0     C40023   5.863   1.807   4.954 -1.1240  0.2657 -0.2320
  297MOL0     C40024   5.980   1.902   4.924 -0.6592 -0.8815  0.4753
  297MOL0     C40025   6.077   1.974   4.902 -0.0946 -0.5880  1.1011
  297MOL0     C40026   5.317   1.750   5.016 -0.6821 -0.7632  0.1537
  297MOL0     C40027   5.186   1.718   4.979 -0.0137  0.5908 -0.4032
  297MOL0     H40028   4.699   1.819   5.119  0.5607  0.1199 -0.5296
  297MOL0     H40029   4.445   1.763   5.075 -1.6292 -2.5254 -1.7823
  297MOL0     H40030   4.285   1.956   4.783  1.4484  1.0703 -2.5517
  297MOL0     H40031   4.282   1.808   4.673  0.2186 -0.7629  0.8293
  297MOL0     H40032   4.091   1.724   4.791  0.0765 -0.2027 -0.9293
  297MOL0     H40033   4.099   1.875   4.890 -1.3471 -1.3561  0.0828
  297MOL0     H40034   4.116   1.999   4.663  0.3401  0.3139  0.3245
  297MOL0     H40035   4.034   1.858   4.585  1.8628 -0.7450 -0.4525
  297MOL0     H40036   3.930   2.031   4.813 -0.7545 -2.8146  1.3441
  297MOL0     H40037   3.859   2.010   4.645  0.4890  0.2917 -1.0082
  297MOL0     H40038   3.800   1.766   4.738 -0.0084  1.7633 -2.2754
  297MOL0     H40039   3.883   1.816   4.883  1.4254  1.0517 -0.2999
  297MOL0     H40040   3.717   1.992   4.925  3.7134  0.0285 -1.1075
  297MOL0     H40041   3.661   1.978   4.760  1.4929  1.0366  0.1874
  297MOL0     H40042   3.572   1.770   4.794 -0.4881 -3.4479  2.2737
  297MOL0     H40043   3.602   1.754   4.960 -0.8362 -0.7771  0.0266
  297MOL0     H40044   3.465   1.943   5.019 -0.2822 -0.4701 -0.1846
  297MOL0     H40045   3.377   1.816   4.923  0.7160 -0.7408  2.0088
  297MOL0     H40046   3.545   2.156   4.830  0.1660 -0.1413  0.8647
  297MOL0     H40047   3.434   2.374   4.677 -1.2362  0.1448 -0.9344
  297MOL0     H40048   3.262   2.376   4.658  1.8082 -0.0263 -0.8795
  297MOL0     H40049   3.334   2.523   4.830  1.4390  0.1258 -1.9297
  297MOL0     H40050   3.417   2.406   4.923  1.4143 -0.0453 -1.1542
  297MOL0     H40051   3.202   2.453   5.015  3.7586  1.0455 -0.5244
  297MOL0     H40052   3.211   2.286   4.973 -0.3940  0.2475  1.6819
  297MOL0     H40053   3.084   2.320   4.766  1.8383 -2.5235  3.2849
  297MOL0     H40054   3.081   2.495   4.777 -2.5969 -0.8953 -1.7171
  297MOL0     H40055   2.890   2.413   4.644  1.6152 -0.9042  0.6662
  297MOL0     H40056   2.631   2.533   4.492 -0.6164  0.1125  0.5152
  297MOL0     H40057   2.754   2.405   4.473  0.8991  1.0463  0.6574
  297MOL0     H40058   2.574   2.363   4.503  0.0105 -0.8689  3.0187
  297MOL0     H40059   2.285   2.488   4.360 -3.1475  1.5276 -2.8439
  297MOL0     H40060   2.049   2.534   4.293 -1.0086 -0.4471  1.4877
  297MOL0     H40061   1.733   2.425   4.551  1.6528  0.0345  0.6676
  297MOL0     H40062   1.733   2.590   4.588  0.6537 -0.6196  0.6935
  297MOL0     H40063   1.609   2.623   4.365  0.8702 -0.3296  0.5406
  297MOL0     H40064   1.624   2.452   4.322  2.9236  0.4882 -1.0724
  297MOL0     H40065   1.406   2.534   4.427  2.0195  2.0065 -0.9642
  297MOL0     H40066   1.483   2.546   4.580 -1.5476  2.0498  0.1426
  297MOL0     H40067   1.455   2.304   4.403 -2.6984  1.2352 -0.4259
  297MOL0     H40068   1.555   2.302   4.554  0.7874  3.2509  0.4197
  297MOL0     H40069   1.259   2.343   4.534  0.9668 -1.8399 -1.2585
  297MOL0     H40070   1.354   2.374   4.686  0.1305  1.7056 -0.8807
  297MOL0     H40071   1.311   2.102   4.554  1.5090  0.2279 -0.3287
  297MOL0     H40072   1.427   2.136   4.686  0.5353 -1.0473 -0.2375
  297MOL0     H40073   1.139   2.179   4.697  1.1015  2.8850  0.1069
  297MOL0     H40074   1.240   2.213   4.832 -0.3417 -0.1248  0.1371
  297MOL0     H40075   1.142   1.992   4.849 -0.3370  1.0416 -0.9245
  297MOL0     H40076   1.319   1.981   4.838 -1.6346 -3.0008  1.6035
  297MOL0     H40077   1.924   2.518   4.691 -0.8672  0.1184 -1.3000
  297MOL0     H40078   2.149   2.441   4.764  0.3213  0.7029  0.1008
  297MOL0     H40079   2.513   2.439   4.970  1.2999 -2.6903  2.0281
  297MOL0     H40080   2.752   2.424   5.051  0.8694  0.6197  0.1939
  297MOL0     H40081   4.506   1.834   4.667 -1.7004 -0.0580 -1.2925
  297MOL0     H40082   4.743   1.866   4.700  1.0134  0.9672  1.5372
  297MOL0     H40083   5.041   2.023   5.021  1.5910  1.8450 -2.3370
  297MOL0     H40084   5.264   2.062   5.127 -1.7422  0.6494 -0.6038
  297MOL0     H40085   5.570   1.742   5.148  0.4894  0.2737 -0.5929
  297MOL0     H40086   5.589   1.808   4.987  2.5835 -1.9226 -0.0085
  297MOL0     H40087   5.728   1.907   5.242  0.7636  0.0180  0.5521
  297MOL0     H40088   5.734   1.991   5.085  2.4796  0.7754  1.4559
  297MOL0     H40089   5.812   1.690   5.122 -0.5619  0.2560  1.2595
  297MOL0     H40090   5.923   1.822   5.151  0.2412 -0.5247 -0.5156
  297MOL0     H40091   5.781   1.835   4.888  0.7409 -0.9076 -3.2724
  297MOL0     H40092   5.899   1.711   4.915  0.2921  1.0761 -1.0183
  297MOL0     H40093   6.155   2.045   4.886 -1.0636  0.2931  0.1174
  297MOL0     H40094   5.401   1.683   4.998  1.9260  2.4874 -0.7231
  297MOL0     H40095   5.171   1.618   4.940  0.6663  0.1985  0.3220
  298MOL0     O40096  10.908   7.519   9.218 -0.2785  0.4931  0.1639
  298MOL0     C40097  10.887   7.403   9.264  0.1171  0.1786  0.2146
  298MOL0     O40098  10.771   7.354   9.301 -0.0976  0.0428 -0.7510
  298MOL0     C40099  10.652   7.411   9.256 -0.4217  0.1225  0.0276
  298MOL0     C40100  10.572   7.464   9.352  0.2353  0.0199 -0.6701
  298MOL0     C40101  10.452   7.525   9.327 -0.2101  0.1875  0.4815
  298MOL0     C40102  10.414   7.548   9.190  0.0959  0.0895 -0.1607
  298MOL0     O40103  10.302   7.618   9.157 -0.7317  0.1324 -0.2179
  298MOL0     C40104  10.209   7.531   9.109  0.0123  0.8571 -0.4189
  298MOL0     C40105  10.077   7.599   9.078 -0.5731  0.3890 -0.3428
  298MOL0     C40106  10.016   7.664   9.201  0.3158 -0.2531 -0.1670
  298MOL0     C40107   9.893   7.742   9.154  0.1697 -0.4621  0.4666
  298MOL0     C40108   9.798   7.779   9.277 -0.1234  0.0124 -0.8539
  298MOL0     C40109   9.864   7.875   9.382  0.6474  0.4545  0.8391
  298MOL0     C40110   9.761   7.942   9.468 -0.7769 -0.2845  0.0734
  298MOL0     C40111   9.682   8.051   9.406  0.1583 -0.0364  0.2390
  298MOL0     N40112   9.567   8.001   9.331  0.4072 -0.0160  0.6756
  298MOL0     C40113   9.546   8.038   9.202 -0.0253 -0.1686  0.7849
  298MOL0     C40114   9.424   7.978   9.170  0.6426  0.1441 -1.1342
  298MOL0     C40115   9.365   7.986   9.035 -0.1337  0.3840 -0.2351
  298MOL0     C40116   9.252   8.092   9.031 -0.0941  0.7851 -0.1740
  298MOL0     C40117   9.307   8.230   9.025  0.5278  0.4967 -0.4209
  298MOL0     C40118   9.211   8.346   9.031 -0.7928  0.6527 -0.2620
  298MOL0     O40119   9.115   8.335   8.914  0.0929  0.3347 -0.6310
  298MOL0     C40120   8.987   8.338   8.945 -0.2136  0.3753  0.1198
  298MOL0     C40121   8.921   8.451   8.902 -0.6337  0.3138 -0.0423
  298MOL0     C40122   8.782   8.465   8.915 -0.7048 -0.4716 -0.3089
  298MOL0     C40123   8.729   8.587   8.854 -0.7911 -0.0904  0.5288
  298MOL0     C40124   8.713   8.361   8.978  0.2277 -0.0673  0.4152
  298MOL0     C40125   8.569   8.361   8.991 -0.1651  0.2083  0.6667
  298MOL0     O40126   8.511   8.289   9.092  0.0893 -0.1533  0.4697
  298MOL0     C40127   8.377   8.286   9.100 -0.3775 -0.5559  0.4688
  298MOL0     C40128   8.307   8.391   9.167 -0.6325  0.0900 -0.6648
  298MOL0     C40129   8.168   8.369   9.180  0.9333 -0.6750 -0.2584
  298MOL0     C40130   8.100   8.252   9.137 -0.3424 -0.2697 -0.5294
  298MOL0     O40131   7.970   8.254   9.180  0.0725 -0.1392  0.2285
  298MOL0     C40132   7.890   8.134   9.168 -0.0101  0.3119  0.0265
  298MOL0     C40133   7.779   8.166   9.078  0.2006  0.1906 -0.5126
  298MOL0     C40134   7.662   8.066   9.073 -0.0706 -0.5523  0.0295
  298MOL0     C40135   7.549   8.088   8.967 -0.4105 -0.1323  0.3415
  298MOL0     C40136   7.435   7.976   8.977  0.6748 -0.4153 -0.4173
  298MOL0     C40137   7.338   7.976   8.850 -0.3536  0.1582 -0.5641
  298MOL0     C40138   7.264   7.850   8.849  0.5842  0.0296  0.9234
  298MOL0     C40139   7.138   7.873   8.927  0.1424 -0.7261  0.1444
  298MOL0    Cl40140   7.011   7.745   8.880 -0.2466  0.1534  0.2221
  298MOL0     C40141   8.182   8.152   9.085  0.3245 -0.1609 -0.0271
  298MOL0     C40142   8.311   8.168   9.058 -0.7941 -0.5609  0.3470
  298MOL0     O40143   8.507   8.432   8.912  0.5892 -0.6942  0.5834
  298MOL0     C40144   8.783   8.244   9.017 -0.2632 -0.2972  0.1407
  298MOL0     C40145   8.920   8.233   9.001 -0.1794  0.1645 -0.0131
  298MOL0     N40146   9.368   7.924   9.280 -0.2558  0.2599  0.0887
  298MOL0     N40147   9.458   7.924   9.375 -0.2836  0.1289  0.1840
  298MOL0     C40148  10.500   7.498   9.090  0.6094  0.0099 -0.0970
  298MOL0     C40149  10.613   7.425   9.121  0.0959 -0.6532 -0.3293
  298MOL0     C40150  11.005   7.322   9.292  0.1910 -0.5562  0.2218
  298MOL0     C40151  11.008   7.181   9.300 -0.4741 -0.3457  0.9688
  298MOL0     C40152  11.116   7.108   9.346 -0.1027 -0.7868 -0.6634
  298MOL0     C40153  11.236   7.178   9.368 -0.4013  0.1684  0.8268
  298MOL0     O40154  11.355   7.126   9.405 -0.3443 -0.0752  0.3918
  298MOL0     C40155  11.350   6.987   9.425 -0.0950  0.9058 -0.5072
  298MOL0     C40156  11.498   6.949   9.463 -0.6483 -0.9810  0.5667
  298MOL0     C40157  11.533   7.011   9.597 -0.1256  0.4157  0.8949
  298MOL0     C40158  11.637   6.925   9.664 -1.0018  0.6479  0.1010
  298MOL0     C40159  11.765   6.897   9.587  0.4382  0.5208  0.3246
  298MOL0     C40160  11.868   6.881   9.529 -0.2993  0.6643  0.5228
  298MOL0     C40161  11.241   7.318   9.359 -0.0758  0.6820 -0.0366
  298MOL0     C40162  11.125   7.382   9.313  0.0916 -0.5617  0.6727
  298MOL0     H40163  10.605   7.470   9.455 -1.6810  2.0511 -0.0867
  298MOL0     H40164  10.400   7.578   9.406  0.4217  0.9451  0.4046
  298MOL0     H40165  10.233   7.464   9.026  0.0037  0.0585  0.2057
  298MOL0     H40166  10.191   7.455   9.186  2.5963 -1.0843 -1.5670
  298MOL0     H40167  10.089   7.669   8.995 -4.2871 -0.0069 -1.3845
  298MOL0     H40168  10.009   7.518   9.050  1.4995 -2.3638  1.9897
  298MOL0     H40169   9.989   7.581   9.267 -1.6554 -0.0168 -0.5981
  298MOL0     H40170  10.073   7.732   9.264 -0.3524 -0.4201  0.6364
  298MOL0     H40171   9.923   7.834   9.104  1.5960 -0.6511  0.9250
  298MOL0     H40172   9.827   7.685   9.089  1.1215 -1.0897  0.0329
  298MOL0     H40173   9.711   7.833   9.239 -0.9503  0.7156  1.8110
  298MOL0     H40174   9.761   7.683   9.314 -2.0318  0.2593 -1.9811
  298MOL0     H40175   9.929   7.816   9.446 -1.0814  0.5026  2.7604
  298MOL0     H40176   9.927   7.948   9.330 -1.2729  1.4159 -0.2803
  298MOL0     H40177   9.690   7.865   9.497 -1.7259  0.9245  1.0918
  298MOL0     H40178   9.815   7.983   9.554 -0.6026  0.4724 -0.3871
  298MOL0     H40179   9.737   8.125   9.347  0.9607  0.1885  1.2227
  298MOL0     H40180   9.638   8.101   9.493 -0.1591  0.7295 -0.3566
  298MOL0     H40181   9.602   8.095   9.129 -0.7099 -0.9125 -0.3542
  298MOL0     H40182   9.442   8.015   8.963 -0.5932  1.5886 -0.2646
  298MOL0     H40183   9.322   7.890   9.004  4.1879 -2.1091  0.6919
  298MOL0     H40184   9.196   8.077   9.124 -0.3033 -0.7704 -0.5380
  298MOL0     H40185   9.190   8.073   8.943 -1.3809  2.1335  0.3847
  298MOL0     H40186   9.365   8.245   8.933 -0.0010 -1.5291 -1.1402
  298MOL0     H40187   9.375   8.234   9.111 -0.3828  0.7029  0.3036
  298MOL0     H40188   9.271   8.437   9.021 -0.8389  1.0936  2.5939
  298MOL0     H40189   9.162   8.349   9.129 -0.4433  0.1530 -0.0647
  298MOL0     H40190   8.978   8.537   8.865  1.0910  0.9335  3.5871
  298MOL0     H40191   8.702   8.666   8.925  0.2548 -0.0792  0.9363
  298MOL0     H40192   8.801   8.637   8.787 -2.2312  3.1871  1.2002
  298MOL0     H40193   8.637   8.570   8.797 -1.4491 -1.3842  1.9333
  298MOL0     H40194   8.361   8.475   9.211 -0.4132 -0.8071  0.8361
  298MOL0     H40195   8.115   8.447   9.233  0.1958 -0.3714 -1.4114
  298MOL0     H40196   7.946   8.053   9.119  0.9213  1.3917 -0.7545
  298MOL0     H40197   7.849   8.095   9.262 -2.4575  1.7148 -0.3774
  298MOL0     H40198   7.735   8.259   9.115 -3.6544 -1.3643 -0.7355
  298MOL0     H40199   7.810   8.182   8.974  0.1146 -1.3014 -0.7917
  298MOL0     H40200   7.606   8.055   9.167 -0.8178  1.3322 -0.1496
  298MOL0     H40201   7.708   7.974   9.036 -1.0077 -0.4455 -1.4534
  298MOL0     H40202   7.508   8.189   8.967 -2.0920 -0.7899  0.3260
  298MOL0     H40203   7.607   8.087   8.874  1.4649 -1.2472  1.4525
  298MOL0     H40204   7.380   7.984   9.071  0.8186  1.2549 -0.4411
  298MOL0     H40205   7.484   7.878   8.977  0.1587 -0.6817 -1.1680
  298MOL0     H40206   7.279   8.066   8.831 -0.9442 -0.4952 -2.0274
  298MOL0     H40207   7.403   7.970   8.762  0.6783  0.7112  0.1462
  298MOL0     H40208   7.322   7.768   8.893  0.4216 -0.3488  0.4406
  298MOL0     H40209   7.223   7.825   8.750 -1.0688  1.4738  1.2110
  298MOL0     H40210   7.098   7.970   8.897  0.9332 -0.3941  0.1476
  298MOL0     H40211   7.160   7.867   9.034  1.4588  1.9641  0.1102
  298MOL0     H40212   8.142   8.055   9.056 -0.9976  0.1374  0.7169
  298MOL0     H40213   8.366   8.099   8.995 -2.0179 -1.6761  0.4553
  298MOL0     H40214   8.731   8.157   9.055  1.7093 -1.4717  0.2213
  298MOL0     H40215   8.971   8.141   9.028  0.2085  0.3367 -0.1498
  298MOL0     H40216  10.466   7.495   8.987 -1.1021 -1.0551  0.4435
  298MOL0     H40217  10.686   7.383   9.053 -0.3387 -0.3912 -0.9696
  298MOL0     H40218  10.925   7.121   9.265  0.7758 -2.0894  0.8488
  298MOL0     H40219  11.111   7.001   9.363  2.9749 -1.0520 -0.8127
  298MOL0     H40220  11.287   6.961   9.510  2.3018  0.3690  1.2234
  298MOL0     H40221  11.323   6.920   9.343 -0.8130 -1.7774  1.7909
  298MOL0     H40222  11.572   6.980   9.387 -0.7379 -0.1435  0.8152
  298MOL0     H40223  11.499   6.839   9.470 -1.4630 -1.1492 -1.3651
  298MOL0     H40224  11.440   7.012   9.655 -0.3399  3.4162  0.6520
  298MOL0     H40225  11.568   7.114   9.584  0.7403 -0.0739 -1.0387
  298MOL0     H40226  11.599   6.824   9.685  0.9260 -0.6066 -1.9268
  298MOL0     H40227  11.669   6.980   9.753  1.1466 -0.7717  0.2877
  298MOL0     H40228  11.959   6.833   9.497  1.6596  1.8287  3.8617
  298MOL0     H40229  11.335   7.371   9.355 -0.3457  1.2038  0.5092
  298MOL0     H40230  11.141   7.486   9.287  2.1871 -1.2178 -0.8991
  299MOL0     O40231   0.053   3.841   3.806  0.3086 -0.2416 -0.3900
  299MOL0     C40232   0.070   3.725   3.842 -0.5506  0.4195  0.0878
  299MOL0     O40233  -0.004   3.653   3.933 -0.0392  0.7023 -0.1483
  299MOL0     C40234  -0.102   3.718   4.008 -0.4322 -0.1792 -0.4170
  299MOL0     C40235  -0.116   3.684   4.141  0.0402  0.8822 -0.0067
  299MOL0     C40236  -0.206   3.742   4.216  0.4915 -0.4101 -0.3657
  299MOL0     C40237  -0.278   3.855   4.176  0.2174  0.3274  0.0646
  299MOL0     O40238  -0.336   3.927   4.279 -0.8016 -0.8332 -0.2561
  299MOL0     C40239  -0.398   4.059   4.266 -0.4264  0.8938 -0.3331
  299MOL0     C40240  -0.422   4.109   4.410  0.7984  0.0090 -0.0024
  299MOL0     C40241  -0.449   4.266   4.412 -0.1336 -0.0239  0.3898
  299MOL0     C40242  -0.598   4.301   4.384 -0.1671 -0.1218  0.0113
  299MOL0     C40243  -0.678   4.285   4.513  0.0689 -0.5337 -0.3896
  299MOL0     C40244  -0.833   4.307   4.500  0.0630  0.3827 -0.0769
  299MOL0     C40245  -0.870   4.457   4.490 -1.0414  0.2274  0.5029
  299MOL0     C40246  -1.007   4.472   4.443 -0.6609  0.2704 -0.2443
  299MOL0     N40247  -1.107   4.414   4.535 -0.0997  0.3685  0.0331
  299MOL0     C40248  -1.187   4.302   4.508  0.3367 -0.8411  0.1777
  299MOL0     C40249  -1.265   4.278   4.611  0.9676  0.0977 -0.9657
  299MOL0     C40250  -1.348   4.155   4.626  0.7216 -0.1403 -1.1240
  299MOL0     C40251  -1.500   4.177   4.641 -0.0230  0.0114  1.3860
  299MOL0     C40252  -1.577   4.045   4.660 -0.5781  0.2216 -0.3134
  299MOL0     C40253  -1.718   4.065   4.619 -0.1138  0.5438  0.1179
  299MOL0     O40254  -1.800   3.955   4.659 -0.0585  0.1989  0.5454
  299MOL0     C40255  -1.942   3.956   4.643 -0.3519 -0.2416  0.8404
  299MOL0     C40256  -1.997   3.828   4.636  0.1161  0.8281 -0.1523
  299MOL0     C40257  -2.137   3.814   4.637  0.2265 -0.0649  0.9148
  299MOL0     C40258  -2.187   3.669   4.628  0.2185 -0.0489 -0.8049
  299MOL0     C40259  -2.217   3.922   4.649  0.9313  0.9049 -0.6344
  299MOL0     C40260  -2.360   3.910   4.667  0.6551  0.3634 -0.1908
  299MOL0     O40261  -2.408   4.021   4.719 -0.5417 -0.0014  0.2005
  299MOL0     C40262  -2.541   4.039   4.726  0.0768  0.1859 -0.5631
  299MOL0     C40263  -2.634   4.052   4.626  0.3900 -0.1736 -0.5774
  299MOL0     C40264  -2.764   4.104   4.637 -0.1110 -0.0176 -0.3239
  299MOL0     C40265  -2.806   4.150   4.763  0.7689  0.4823 -0.5577
  299MOL0     O40266  -2.925   4.206   4.778 -0.0252 -0.0161 -0.3723
  299MOL0     C40267  -2.944   4.343   4.745  0.5342  0.6621  1.0256
  299MOL0     C40268  -3.092   4.367   4.723  0.4700  0.9213 -0.8024
  299MOL0     C40269  -3.139   4.290   4.597  0.1556 -0.3477  0.0028
  299MOL0     C40270  -3.295   4.299   4.595 -0.0757 -0.0935  0.5311
  299MOL0     C40271  -3.359   4.238   4.723 -0.1536  0.2227  0.3667
  299MOL0     C40272  -3.508   4.206   4.709  0.1421 -0.6471  1.0330
  299MOL0     C40273  -3.603   4.305   4.756  0.2289  1.1120 -1.0399
  299MOL0     C40274  -3.605   4.430   4.672 -1.1110 -0.7008 -0.9437
  299MOL0    Cl40275  -3.645   4.408   4.501 -0.0285 -0.0132 -0.3620
  299MOL0     C40276  -2.713   4.156   4.869 -0.1322 -0.1398 -0.3587
  299MOL0     C40277  -2.581   4.104   4.852 -0.7645  0.2069  0.4912
  299MOL0     O40278  -2.428   3.817   4.635 -0.1326  0.2937  1.2092
  299MOL0     C40279  -2.158   4.050   4.658 -0.4830 -0.1339  0.6603
  299MOL0     C40280  -2.022   4.069   4.655 -0.5257  0.3476 -0.2342
  299MOL0     N40281  -1.254   4.386   4.701  0.2550  0.0154 -0.3662
  299MOL0     N40282  -1.171   4.464   4.647 -0.8463 -0.2082 -0.7190
  299MOL0     C40283  -0.268   3.897   4.043  1.1701  0.6683  0.5868
  299MOL0     C40284  -0.176   3.828   3.958  0.0334  0.4701  0.5122
  299MOL0     C40285   0.185   3.639   3.783 -0.0858 -0.7719 -0.4833
  299MOL0     C40286   0.195   3.503   3.785  0.3668 -0.3347 -0.5097
  299MOL0     C40287   0.309   3.445   3.737  0.4247 -0.5208  0.1470
  299MOL0     C40288   0.425   3.510   3.708 -0.0661 -0.4349 -0.1387
  299MOL0     O40289   0.531   3.429   3.667 -0.5199 -0.2094  0.3328
  299MOL0     C40290   0.658   3.493   3.658 -0.7087 -0.4666 -0.6178
  299MOL0     C40291   0.748   3.388   3.598  0.5470  0.3205 -0.2516
  299MOL0     C40292   0.882   3.447   3.541  0.7115  0.3957  0.2174
  299MOL0     C40293   0.989   3.492   3.652  0.8684 -0.6643  0.2287
  299MOL0     C40294   0.943   3.633   3.690  0.2617  0.0317 -0.3337
  299MOL0     C40295   0.906   3.739   3.747  0.2777  0.4220 -0.0108
  299MOL0     C40296   0.423   3.652   3.717  0.0401  0.2682 -0.3076
  299MOL0     C40297   0.303   3.714   3.752 -0.1310  0.7326  0.0419
  299MOL0     H40298  -0.057   3.598   4.172  0.4999  0.3859 -2.0986
  299MOL0     H40299  -0.212   3.715   4.321 -1.8178 -1.3306 -0.6903
  299MOL0     H40300  -0.331   4.123   4.209 -0.7421  0.8175 -0.7920
  299MOL0     H40301  -0.496   4.052   4.217 -0.5731 -3.0065  0.1905
  299MOL0     H40302  -0.508   4.051   4.444  1.0042 -0.4563 -0.2716
  299MOL0     H40303  -0.335   4.091   4.473  0.9065 -2.9077 -0.8510
  299MOL0     H40304  -0.413   4.303   4.508  0.4369 -1.8698  0.9318
  299MOL0     H40305  -0.386   4.307   4.332 -1.9685 -1.4388 -1.9369
  299MOL0     H40306  -0.586   4.403   4.344  1.8145  0.5390  2.0766
  299MOL0     H40307  -0.638   4.239   4.303 -0.1727  1.4683 -1.2522
  299MOL0     H40308  -0.682   4.183   4.550 -1.3277  0.1554  1.5234
  299MOL0     H40309  -0.628   4.335   4.596  1.0885 -1.1788 -0.6042
  299MOL0     H40310  -0.868   4.258   4.409  2.1102 -0.6985 -0.3247
  299MOL0     H40311  -0.889   4.265   4.584 -0.6810  0.7837 -0.3657
  299MOL0     H40312  -0.863   4.509   4.586  1.1031  2.9278 -0.9622
  299MOL0     H40313  -0.795   4.498   4.422  0.3915 -0.0056  1.9105
  299MOL0     H40314  -1.018   4.441   4.338  0.7691 -0.4536 -0.1971
  299MOL0     H40315  -1.012   4.582   4.442 -0.5468  0.3451  2.0291
  299MOL0     H40316  -1.183   4.243   4.417  3.3033 -0.5322  0.0060
  299MOL0     H40317  -1.333   4.084   4.544 -1.8900 -1.1017 -0.8556
  299MOL0     H40318  -1.307   4.114   4.720  0.0364  2.2686  0.3206
  299MOL0     H40319  -1.523   4.223   4.545  2.6617 -1.2144  0.0533
  299MOL0     H40320  -1.519   4.245   4.725  1.6296 -0.0549  1.8578
  299MOL0     H40321  -1.575   4.020   4.767 -0.0820  3.1706  0.4726
  299MOL0     H40322  -1.535   3.961   4.603  1.1214  1.7791 -1.4770
  299MOL0     H40323  -1.731   4.094   4.514 -1.5289  0.3807  0.2355
  299MOL0     H40324  -1.758   4.144   4.683  0.3127 -0.3521  1.5197
  299MOL0     H40325  -1.933   3.740   4.638 -0.2400  0.5522 -0.7793
  299MOL0     H40326  -2.233   3.647   4.531  2.2416 -0.8154 -1.6464
  299MOL0     H40327  -2.103   3.600   4.623 -0.3793 -0.7208 -3.8227
  299MOL0     H40328  -2.259   3.648   4.707 -1.2870 -1.1211 -2.3814
  299MOL0     H40329  -2.604   4.016   4.528  2.2583  0.3072 -0.2234
  299MOL0     H40330  -2.838   4.114   4.558 -1.2111  0.4912  0.7315
  299MOL0     H40331  -2.909   4.399   4.832  0.5122 -0.2684  1.6587
  299MOL0     H40332  -2.878   4.352   4.659  2.1774 -2.6923  1.7480
  299MOL0     H40333  -3.153   4.330   4.805  1.3824 -0.4978 -0.7332
  299MOL0     H40334  -3.102   4.475   4.709 -0.8662  0.7800 -1.0477
  299MOL0     H40335  -3.112   4.184   4.598 -0.1248 -0.4155  0.5673
  299MOL0     H40336  -3.098   4.335   4.505  0.1562  0.2411  0.2866
  299MOL0     H40337  -3.325   4.404   4.582 -2.1210 -0.5629  1.1033
  299MOL0     H40338  -3.332   4.249   4.505  0.1470  0.6018  0.0461
  299MOL0     H40339  -3.361   4.306   4.809 -2.2804 -0.4266  0.8918
  299MOL0     H40340  -3.299   4.158   4.768  0.8397  1.5491  1.5202
  299MOL0     H40341  -3.530   4.174   4.607  1.7600 -2.5443  1.2135
  299MOL0     H40342  -3.534   4.124   4.776 -2.8682  0.0679  0.8757
  299MOL0     H40343  -3.581   4.328   4.861 -1.9138 -3.7512  0.7794
  299MOL0     H40344  -3.704   4.265   4.769  0.4502  0.0246 -2.4726
  299MOL0     H40345  -3.516   4.492   4.686 -1.3034  0.4292 -3.9939
  299MOL0     H40346  -3.694   4.478   4.712 -1.0194 -1.4401  0.2082
  299MOL0     H40347  -2.757   4.216   4.948 -0.3819 -1.3469  0.4373
  299MOL0     H40348  -2.504   4.098   4.929  0.4590 -2.4205 -0.8199
  299MOL0     H40349  -2.212   4.142   4.679 -0.0281  0.3248 -0.1285
  299MOL0     H40350  -1.983   4.171   4.664  1.4032 -0.2136 -1.5065
  299MOL0     H40351  -0.317   3.984   3.999 -0.0132  0.1204  0.7761
  299MOL0     H40352  -0.185   3.862   3.855 -1.9929 -0.8558  0.2016
  299MOL0     H40353   0.107   3.441   3.804  1.2087 -1.4954 -0.3090
  299MOL0     H40354   0.312   3.337   3.725 -1.2344 -0.9677  2.8599
  299MOL0     H40355   0.656   3.582   3.594  0.5009  0.8594  1.0964
  299MOL0     H40356   0.691   3.522   3.758 -0.3544 -0.9471 -0.5876
  299MOL0     H40357   0.691   3.350   3.513  2.3443 -1.1676 -0.8619
  299MOL0     H40358   0.768   3.301   3.660 -1.3100 -1.5277 -2.1043
  299MOL0     H40359   0.861   3.532   3.475 -1.3123  0.6387  1.1078
  299MOL0     H40360   0.933   3.380   3.472  2.0064  2.3904 -0.8650
  299MOL0     H40361   1.093   3.494   3.619  1.3757 -2.8067  1.5136
  299MOL0     H40362   0.984   3.422   3.736 -0.4458 -1.9043 -0.8306
  299MOL0     H40363   0.865   3.829   3.789 -2.2404  0.6722 -2.6547
  299MOL0     H40364   0.511   3.711   3.693 -0.9027  1.6876 -0.3902
  299MOL0     H40365   0.296   3.822   3.747 -0.7811  0.7444  1.0226
  300MOL0     O40366   8.388   4.661   7.595 -1.2562  0.3312  0.0647
  300MOL0     C40367   8.403   4.688   7.478  0.8588  0.4846 -0.1604
  300MOL0     O40368   8.313   4.664   7.378  0.1077 -0.7084  0.0040
  300MOL0     C40369   8.182   4.629   7.399 -0.6139  0.2731  0.6065
  300MOL0     C40370   8.108   4.648   7.517 -0.5330 -0.4758 -0.8286
  300MOL0     C40371   7.978   4.607   7.535  0.4961 -0.1405 -0.0357
  300MOL0     C40372   7.914   4.537   7.431 -0.1389  0.3290  0.1432
  300MOL0     O40373   7.777   4.516   7.425  0.1917 -0.2260  0.2941
  300MOL0     C40374   7.724   4.407   7.497 -0.6300 -0.1225  0.2251
  300MOL0     C40375   7.569   4.415   7.490 -0.6328  0.1981 -0.0793
  300MOL0     C40376   7.530   4.354   7.353  0.1273 -0.5061 -0.5375
  300MOL0     C40377   7.386   4.358   7.313 -0.1741  0.5505  0.1597
  300MOL0     C40378   7.361   4.283   7.184 -0.2174  0.0329 -0.5511
  300MOL0     C40379   7.215   4.319   7.133  0.1530  0.0061 -0.3147
  300MOL0     C40380   7.099   4.287   7.228  0.0584 -0.0908  0.1978
  300MOL0     C40381   7.082   4.142   7.254  0.3695  0.0427 -0.4412
  300MOL0     N40382   7.103   4.113   7.393  0.1015  0.5421 -0.5356
  300MOL0     C40383   7.211   4.044   7.441 -1.0022  0.1553  0.2178
  300MOL0     C40384   7.197   4.047   7.573  0.4907  0.1790  0.9556
  300MOL0     C40385   7.293   3.990   7.669  0.6342 -0.2924  0.0795
  300MOL0     C40386   7.367   4.114   7.717 -0.1464 -0.6235  0.2152
  300MOL0     C40387   7.437   4.095   7.847 -0.3913  0.3640 -0.6621
  300MOL0     C40388   7.503   4.220   7.892 -0.9589 -0.4451  0.4225
  300MOL0     O40389   7.620   4.258   7.813  0.1067  0.7409 -0.0937
  300MOL0     C40390   7.711   4.349   7.865 -0.2095  0.1330  0.5458
  300MOL0     C40391   7.843   4.337   7.832 -0.1779 -0.1408  0.1323
  300MOL0     C40392   7.945   4.407   7.885  0.9830 -0.7804 -0.6056
  300MOL0     C40393   8.090   4.363   7.859 -0.0518 -0.5114  0.4040
  300MOL0     C40394   7.908   4.509   7.977 -0.4043 -1.1198 -0.1011
  300MOL0     C40395   7.997   4.614   8.029 -0.1835 -0.1756 -0.5047
  300MOL0     O40396   7.964   4.687   8.142 -0.2677  0.1038  0.6399
  300MOL0     C40397   8.064   4.756   8.203 -0.0251  0.0617 -0.8584
  300MOL0     C40398   8.154   4.699   8.293  0.3884  0.2114 -0.6125
  300MOL0     C40399   8.260   4.766   8.349  0.2037 -0.4389 -0.4378
  300MOL0     C40400   8.284   4.907   8.314 -0.0516  0.2558 -0.0509
  300MOL0     O40401   8.386   4.989   8.366 -0.2674 -0.0687 -0.3139
  300MOL0     C40402   8.494   4.916   8.426 -0.6019 -0.0664  0.3388
  300MOL0     C40403   8.624   4.990   8.422 -0.7088 -0.4940  0.1276
  300MOL0     C40404   8.634   5.092   8.536 -0.6974 -0.3342  0.2964
  300MOL0     C40405   8.768   5.176   8.523  1.1221  0.1846  0.1718
  300MOL0     C40406   8.862   5.145   8.642 -0.5091  0.5412 -0.1159
  300MOL0     C40407   8.936   5.014   8.636 -0.1305  0.3441  0.3013
  300MOL0     C40408   9.053   5.006   8.739 -0.0489 -0.2161  0.8517
  300MOL0     C40409   9.119   4.865   8.752 -0.6115  0.2900 -1.0280
  300MOL0    Cl40410   9.240   4.855   8.882  0.1054  0.3640 -0.1427
  300MOL0     C40411   8.204   4.963   8.218  0.0534  0.1038 -0.7067
  300MOL0     C40412   8.091   4.890   8.166 -0.9757  0.8875  0.8526
  300MOL0     O40413   8.098   4.641   7.967 -0.2499  0.1479 -0.0424
  300MOL0     C40414   7.770   4.523   8.015  0.2835 -0.3678  0.5456
  300MOL0     C40415   7.669   4.452   7.948 -1.0511  0.0788 -0.2536
  300MOL0     N40416   7.074   4.108   7.606  0.5319 -0.4225 -0.3514
  300MOL0     N40417   7.023   4.144   7.495 -0.1461  0.4685  0.4843
  300MOL0     C40418   7.985   4.506   7.314 -0.3805 -0.2539 -0.1060
  300MOL0     C40419   8.118   4.547   7.302 -0.2348  0.0822  0.2908
  300MOL0     C40420   8.525   4.765   7.452  0.3779  0.0571  0.2309
  300MOL0     C40421   8.632   4.770   7.534  0.1293  0.8505 -0.1279
  300MOL0     C40422   8.755   4.827   7.501 -0.2879  0.9121 -0.3082
  300MOL0     C40423   8.776   4.887   7.381  0.1550 -0.0820  0.1307
  300MOL0     O40424   8.896   4.953   7.358 -0.3838  0.0430 -0.1659
  300MOL0     C40425   8.901   5.050   7.250 -0.3015  0.4532 -0.5151
  300MOL0     C40426   8.937   4.976   7.123  0.6459 -0.6329  0.5164
  300MOL0     C40427   9.064   4.894   7.149  0.1699 -0.6552  0.6387
  300MOL0     C40428   9.142   4.894   7.018 -0.7210  0.2889  0.4548
  300MOL0     C40429   9.268   4.824   7.031 -0.3001 -0.0240 -0.5058
  300MOL0     C40430   9.377   4.764   7.037 -0.4458  0.0080  0.3114
  300MOL0     C40431   8.662   4.884   7.298  0.0425 -0.4378  0.1163
  300MOL0     C40432   8.537   4.830   7.337  0.5916 -0.5779  0.0153
  300MOL0     H40433   8.148   4.706   7.599 -0.4780 -2.0128  0.2695
  300MOL0     H40434   7.932   4.635   7.629  0.1657 -0.7216 -0.0167
  300MOL0     H40435   7.766   4.318   7.449  0.5025 -0.9120  2.5392
  300MOL0     H40436   7.766   4.416   7.597  1.3298  1.4500 -0.6747
  300MOL0     H40437   7.525   4.357   7.571 -2.0350  1.7591  0.3383
  300MOL0     H40438   7.538   4.517   7.512 -1.9687 -0.2768  0.3496
  300MOL0     H40439   7.582   4.407   7.273 -0.7300  1.7629  0.3120
  300MOL0     H40440   7.565   4.251   7.357  4.3524  0.7104 -1.0992
  300MOL0     H40441   7.328   4.308   7.391  2.0760 -0.0887  1.5099
  300MOL0     H40442   7.342   4.458   7.304 -3.8448 -0.8888  0.1902
  300MOL0     H40443   7.434   4.315   7.108 -0.2618  0.3638 -0.4578
  300MOL0     H40444   7.377   4.177   7.202  3.8562  0.4452 -0.7711
  300MOL0     H40445   7.215   4.428   7.127  0.6598  0.1402  1.6058
  300MOL0     H40446   7.189   4.289   7.031 -1.1352 -0.3927  0.1099
  300MOL0     H40447   7.108   4.348   7.318 -0.4712  0.7089 -0.2729
  300MOL0     H40448   7.009   4.322   7.178  0.8124  1.0058 -0.4492
  300MOL0     H40449   7.160   4.082   7.206  0.7309  1.9426 -2.3718
  300MOL0     H40450   6.982   4.107   7.228 -0.2689  1.5195 -0.0762
  300MOL0     H40451   7.293   4.008   7.380 -0.4239 -0.2295  1.1825
  300MOL0     H40452   7.247   3.945   7.758 -0.1589  2.3526  1.1152
  300MOL0     H40453   7.349   3.913   7.614  3.8984  1.2376  0.9680
  300MOL0     H40454   7.305   4.201   7.740  1.9132  0.3723  2.4529
  300MOL0     H40455   7.440   4.146   7.642 -0.9318  0.8692  0.0523
  300MOL0     H40456   7.516   4.021   7.833  0.5132  1.6281 -2.6267
  300MOL0     H40457   7.364   4.062   7.922 -0.7596  0.8768 -0.7898
  300MOL0     H40458   7.541   4.217   7.994  3.7094 -2.2614 -1.1317
  300MOL0     H40459   7.444   4.310   7.871 -1.5776 -1.0264 -0.3792
  300MOL0     H40460   7.872   4.246   7.781 -0.3472  0.6472 -1.4103
  300MOL0     H40461   8.104   4.255   7.856  0.6156 -0.4496  1.0380
  300MOL0     H40462   8.127   4.413   7.769 -0.6328  2.0526  1.4818
  300MOL0     H40463   8.157   4.397   7.938 -0.3754 -0.9905  0.8933
  300MOL0     H40464   8.121   4.601   8.327 -1.1791  0.6263 -0.8770
  300MOL0     H40465   8.324   4.721   8.424 -1.8405 -0.4822  1.3948
  300MOL0     H40466   8.471   4.879   8.526  1.2625  2.3890  1.7915
  300MOL0     H40467   8.513   4.826   8.366 -3.1126 -0.2417 -0.2905
  300MOL0     H40468   8.707   4.920   8.440  0.5515  0.6018 -1.2353
  300MOL0     H40469   8.649   5.022   8.321  2.8115 -2.9670  0.0079
  300MOL0     H40470   8.628   5.034   8.628  1.1341  1.2755  1.5285
  300MOL0     H40471   8.548   5.159   8.529 -1.0734 -0.9624 -1.9267
  300MOL0     H40472   8.818   5.149   8.430  0.2269  0.7158 -0.4738
  300MOL0     H40473   8.747   5.283   8.530 -0.9477 -0.2948  3.2850
  300MOL0     H40474   8.808   5.146   8.738 -1.4508 -2.0402 -0.5418
  300MOL0     H40475   8.932   5.228   8.651  0.0917 -0.1682  3.6756
  300MOL0     H40476   8.871   4.926   8.644 -0.4701  0.5672  0.0059
  300MOL0     H40477   8.986   5.006   8.538 -0.5544  0.0502  0.1062
  300MOL0     H40478   9.019   5.025   8.841  0.6824 -2.8267  1.6631
  300MOL0     H40479   9.134   5.080   8.732 -0.0411  0.4513  5.2434
  300MOL0     H40480   9.171   4.841   8.659  1.3726  0.0748  0.0717
  300MOL0     H40481   9.045   4.784   8.761 -0.7262  0.1095 -3.1761
  300MOL0     H40482   8.235   5.062   8.187 -0.3138  0.9096  1.3367
  300MOL0     H40483   8.026   4.921   8.085 -2.2988 -2.9676  0.2397
  300MOL0     H40484   7.747   4.593   8.094 -0.9823 -1.1234  0.8843
  300MOL0     H40485   7.565   4.466   7.974 -0.0626  0.8879  4.1116
  300MOL0     H40486   7.942   4.467   7.222 -0.6896  0.1887 -0.1572
  300MOL0     H40487   8.166   4.510   7.213 -3.7562 -1.7712 -1.0332
  300MOL0     H40488   8.630   4.721   7.631  1.4240  2.6589  0.8828
  300MOL0     H40489   8.839   4.818   7.568 -0.2876  0.6563 -0.3442
  300MOL0     H40490   8.807   5.105   7.246 -1.1829 -0.7842  1.4725
  300MOL0     H40491   8.971   5.128   7.281  1.2077 -1.5078  1.4580
  300MOL0     H40492   8.938   5.050   7.043  0.4229 -0.6507  0.4950
  300MOL0     H40493   8.854   4.909   7.098  0.0961  0.1055  0.3372
  300MOL0     H40494   9.036   4.791   7.173  0.0657 -0.3791  1.7707
  300MOL0     H40495   9.126   4.946   7.223 -1.8014  2.1482  0.4886
  300MOL0     H40496   9.163   4.998   6.992  0.0792  0.7595  2.8044
  300MOL0     H40497   9.084   4.850   6.936  1.3192 -0.9631 -0.4107
  300MOL0     H40498   9.465   4.704   7.026 -0.1569  0.7449 -1.8517
  300MOL0     H40499   8.669   4.925   7.198 -2.1541  1.2608  0.5781
  300MOL0     H40500   8.459   4.836   7.262  1.4525  0.7076 -0.8275
  301MOL0     O40501   5.263   2.029   7.090 -0.2903  0.1827 -0.2431
  301MOL0     C40502   5.323   2.119   7.033 -0.3178  0.3116 -0.3675
  301MOL0     O40503   5.275   2.230   6.984 -0.2220  0.0288  0.2731
  301MOL0     C40504   5.141   2.225   6.941  0.2101  0.3455 -1.2007
  301MOL0     C40505   5.053   2.299   7.014 -0.3111 -1.1906  0.1420
  301MOL0     C40506   4.938   2.347   6.954 -0.2199  0.3486  0.7377
  301MOL0     C40507   4.900   2.304   6.826 -0.1339 -0.8195 -0.2265
  301MOL0     O40508   4.778   2.351   6.781  0.1825 -0.1598 -0.0108
  301MOL0     C40509   4.772   2.378   6.636 -1.0935 -0.5515  0.7381
  301MOL0     C40510   4.651   2.468   6.600 -0.8218 -0.0667 -0.6114
  301MOL0     C40511   4.525   2.407   6.646 -0.3195  0.4620  0.3917
  301MOL0     C40512   4.415   2.515   6.641  0.2936 -0.0030 -0.1380
  301MOL0     C40513   4.280   2.464   6.675 -0.4720 -0.5325 -0.7937
  301MOL0     C40514   4.166   2.569   6.660 -0.4781 -0.1990  0.7862
  301MOL0     C40515   4.040   2.525   6.743 -0.1383  0.3016 -0.4526
  301MOL0     C40516   3.926   2.622   6.741  0.3275 -0.0989  0.5098
  301MOL0     N40517   3.846   2.618   6.615  0.0001 -0.1968  0.4478
  301MOL0     C40518   3.799   2.730   6.552  0.1314 -0.7208  0.0044
  301MOL0     C40519   3.720   2.691   6.450  0.2134 -0.1586 -0.2802
  301MOL0     C40520   3.638   2.777   6.365  0.5874  0.2849  0.2719
  301MOL0     C40521   3.483   2.756   6.393  0.4751 -0.1296 -0.2256
  301MOL0     C40522   3.393   2.840   6.298 -0.1656  0.0739 -0.4334
  301MOL0     C40523   3.239   2.819   6.334 -0.2292  0.6062 -0.3147
  301MOL0     O40524   3.201   2.867   6.460 -0.2792 -0.2325  1.1536
  301MOL0     C40525   3.069   2.895   6.489  1.0111  0.4934  0.0511
  301MOL0     C40526   3.033   2.929   6.617 -0.4564 -0.3619 -0.9327
  301MOL0     C40527   2.904   2.964   6.663 -0.0962  0.0203  0.0485
  301MOL0     C40528   2.879   3.006   6.804 -1.0083 -0.0604 -0.7162
  301MOL0     C40529   2.789   2.954   6.566 -0.2582 -0.0126 -0.4812
  301MOL0     C40530   2.653   3.015   6.583 -0.4904  0.1211  0.3032
  301MOL0     O40531   2.594   3.068   6.471 -0.0723 -0.2731 -0.2882
  301MOL0     C40532   2.462   3.103   6.481 -0.5952 -0.5002 -0.5750
  301MOL0     C40533   2.361   3.013   6.531 -0.3204  0.4903 -1.1084
  301MOL0     C40534   2.230   3.064   6.551 -0.0411  0.1530  0.1939
  301MOL0     C40535   2.196   3.198   6.509  0.1253  0.3023  0.6261
  301MOL0     O40536   2.076   3.254   6.529 -0.3297  0.2436  0.8488
  301MOL0     C40537   1.971   3.164   6.512 -1.1782 -0.8451  0.0374
  301MOL0     C40538   1.850   3.255   6.502  1.1455 -0.4511  0.4635
  301MOL0     C40539   1.719   3.181   6.522 -0.6072 -0.2518  0.2062
  301MOL0     C40540   1.598   3.277   6.514 -0.5496 -0.5870  0.6375
  301MOL0     C40541   1.462   3.195   6.510  0.1578 -0.0631  0.1193
  301MOL0     C40542   1.335   3.287   6.523  0.8043  0.4260  0.9621
  301MOL0     C40543   1.213   3.202   6.568  0.1315  0.7516 -0.3511
  301MOL0     C40544   1.092   3.290   6.602 -0.4508 -0.4888 -0.6974
  301MOL0    Cl40545   0.956   3.200   6.633  0.1386 -0.0041  0.5679
  301MOL0     C40546   2.296   3.283   6.457  0.1388 -0.4903  0.2680
  301MOL0     C40547   2.431   3.234   6.447  0.5430 -0.3369 -0.4529
  301MOL0     O40548   2.605   3.014   6.692 -0.3621  0.2735 -1.0065
  301MOL0     C40549   2.821   2.911   6.442  0.5443  0.5409  0.0300
  301MOL0     C40550   2.957   2.884   6.396 -0.0374  0.5033  0.3906
  301MOL0     N40551   3.730   2.549   6.440  0.1777  0.2594 -0.3538
  301MOL0     N40552   3.802   2.507   6.547  0.1445  0.0698 -0.6365
  301MOL0     C40553   4.982   2.223   6.750  0.0710 -0.0692  0.1321
  301MOL0     C40554   5.102   2.187   6.813  0.3383  0.3626 -0.9873
  301MOL0     C40555   5.472   2.094   7.028 -0.7312 -0.4288  0.7491
  301MOL0     C40556   5.526   1.968   7.043 -1.0242  0.0633  0.1234
  301MOL0     C40557   5.662   1.950   7.043  0.3113  0.6296 -0.6034
  301MOL0     C40558   5.757   2.051   7.025 -0.4979 -0.5089 -0.3838
  301MOL0     O40559   5.891   2.017   7.042 -0.5830 -0.0351 -0.4066
  301MOL0     C40560   6.000   2.115   7.011 -0.1562 -0.7170  0.6193
  301MOL0     C40561   6.123   2.026   7.016  0.5701 -0.3225  0.1473
  301MOL0     C40562   6.243   2.099   6.950  0.9354  0.1338 -0.0594
  301MOL0     C40563   6.372   2.025   6.977  0.6199  0.1824  0.0853
  301MOL0     C40564   6.480   2.068   6.877  0.5820 -0.4477  0.1447
  301MOL0     C40565   6.562   2.120   6.800  0.8876  0.2749  0.3883
  301MOL0     C40566   5.703   2.186   7.007  0.3688  0.1044  0.3113
  301MOL0     C40567   5.561   2.200   7.006  0.2772  0.9105  1.1763
  301MOL0     H40568   5.081   2.329   7.115 -1.2947 -0.2130  0.1326
  301MOL0     H40569   4.857   2.397   7.006 -1.5150  0.1034 -0.9484
  301MOL0     H40570   4.858   2.435   6.600  0.0803 -2.7008 -0.0969
  301MOL0     H40571   4.762   2.284   6.580 -2.4004  0.7524 -1.3385
  301MOL0     H40572   4.666   2.563   6.653  1.8882  1.2191 -3.3918
  301MOL0     H40573   4.659   2.488   6.493 -0.4503  0.4770 -0.4850
  301MOL0     H40574   4.502   2.318   6.586 -0.8805  1.1041 -0.3719
  301MOL0     H40575   4.537   2.379   6.751  1.5207 -1.7222 -0.3153
  301MOL0     H40576   4.449   2.597   6.704  1.4777 -1.1694  0.8078
  301MOL0     H40577   4.406   2.554   6.539 -0.9140  0.7932  0.2473
  301MOL0     H40578   4.262   2.373   6.616 -5.4207 -1.7035  2.0022
  301MOL0     H40579   4.288   2.443   6.782  0.6009  3.4726  0.0883
  301MOL0     H40580   4.198   2.668   6.694 -2.9823  0.5659  1.0998
  301MOL0     H40581   4.148   2.572   6.552  0.2848  3.4677  0.6393
  301MOL0     H40582   4.003   2.427   6.712  1.7625 -0.9138  0.8532
  301MOL0     H40583   4.078   2.514   6.845  0.0209  0.3373 -0.5074
  301MOL0     H40584   3.952   2.726   6.765  1.0675 -0.6424  2.2651
  301MOL0     H40585   3.857   2.603   6.824  0.7259  1.3605  1.2179
  301MOL0     H40586   3.824   2.831   6.583 -0.4869 -1.1189  1.9159
  301MOL0     H40587   3.668   2.881   6.383 -0.6860  0.2950  2.8097
  301MOL0     H40588   3.648   2.745   6.261 -0.5780  0.0989  0.2083
  301MOL0     H40589   3.470   2.777   6.500  0.3196 -1.2006 -0.0181
  301MOL0     H40590   3.461   2.648   6.396  0.4399 -0.1124  2.5268
  301MOL0     H40591   3.422   2.813   6.196  0.8898 -2.5078  0.4673
  301MOL0     H40592   3.407   2.948   6.310 -0.6616 -0.0147  1.2417
  301MOL0     H40593   3.229   2.710   6.346 -4.0852  1.0281  1.6848
  301MOL0     H40594   3.175   2.858   6.255 -1.3380  2.5705  1.4586
  301MOL0     H40595   3.115   2.934   6.687  1.0378  0.9987 -2.6724
  301MOL0     H40596   2.809   2.952   6.867  0.4739  1.2424  2.2356
  301MOL0     H40597   2.981   3.008   6.844 -0.7241 -0.4717 -1.3985
  301MOL0     H40598   2.831   3.103   6.788  0.2115  0.5397 -0.8892
  301MOL0     H40599   2.379   2.909   6.558 -2.2723  0.8468  2.2692
  301MOL0     H40600   2.164   2.989   6.593  0.9145 -1.0533 -0.4259
  301MOL0     H40601   1.991   3.103   6.423 -1.3654 -0.9277  0.0501
  301MOL0     H40602   1.964   3.096   6.598  0.6352 -0.6504  0.3661
  301MOL0     H40603   1.858   3.331   6.581  0.8253  0.6111 -0.4933
  301MOL0     H40604   1.851   3.306   6.405  3.5858 -1.6198 -0.2070
  301MOL0     H40605   1.713   3.126   6.616 -2.2793 -0.8380 -0.1937
  301MOL0     H40606   1.701   3.113   6.437  0.9441  0.9252 -1.1344
  301MOL0     H40607   1.594   3.349   6.597  0.9898  0.6636 -0.3191
  301MOL0     H40608   1.596   3.332   6.419 -2.3140 -0.3995  0.7617
  301MOL0     H40609   1.452   3.127   6.596  0.8709  0.6507  0.7839
  301MOL0     H40610   1.447   3.136   6.419 -3.7416  0.6497  0.1010
  301MOL0     H40611   1.354   3.367   6.595  1.0258  0.8195  0.4726
  301MOL0     H40612   1.320   3.339   6.428  0.2422  0.9031  1.2992
  301MOL0     H40613   1.230   3.149   6.662 -0.3017  0.7695 -0.2613
  301MOL0     H40614   1.198   3.120   6.498  1.0929 -2.0411  2.4673
  301MOL0     H40615   1.065   3.352   6.517  0.3501  0.2562 -0.4235
  301MOL0     H40616   1.124   3.358   6.681  1.3154 -0.0781 -1.7053
  301MOL0     H40617   2.281   3.377   6.405  1.6034 -0.6157 -0.4225
  301MOL0     H40618   2.507   3.290   6.392  0.9058 -0.2270  0.1531
  301MOL0     H40619   2.744   2.895   6.367  1.4186  3.7034 -1.7123
  301MOL0     H40620   2.967   2.842   6.296 -0.0977 -1.4196  1.1456
  301MOL0     H40621   4.966   2.179   6.652 -2.0253 -2.7496  1.5253
  301MOL0     H40622   5.177   2.132   6.757  1.5485 -0.5642  1.4167
  301MOL0     H40623   5.456   1.888   7.065  0.9569 -1.2091  2.2310
  301MOL0     H40624   5.703   1.850   7.056  1.0943  0.9851 -0.2979
  301MOL0     H40625   6.001   2.170   6.917 -2.2628  1.3697  1.7064
  301MOL0     H40626   6.007   2.189   7.091  0.0611  0.2154 -0.2510
  301MOL0     H40627   6.097   1.933   6.964 -0.5030  0.4343 -0.7159
  301MOL0     H40628   6.154   2.003   7.119  5.9556  3.2973 -0.2792
  301MOL0     H40629   6.256   2.196   7.000  1.9384 -0.0436  0.0410
  301MOL0     H40630   6.225   2.117   6.844 -1.7112 -0.5612  0.1973
  301MOL0     H40631   6.354   1.919   6.958  2.0771 -0.4389  1.8944
  301MOL0     H40632   6.394   2.030   7.084 -3.7793  1.5103  1.1346
  301MOL0     H40633   6.641   2.174   6.753  1.3277  0.7302  1.6040
  301MOL0     H40634   5.777   2.264   6.991  0.4509  0.0409  0.3750
  301MOL0     H40635   5.518   2.297   6.983 -2.2281  0.0177  1.7540
  302MOL0     O40636   8.915   5.108  10.873  0.0760  0.2922  1.3115
  302MOL0     C40637   9.004   5.048  10.938 -0.1771  0.2996  0.9444
  302MOL0     O40638   8.984   4.929  10.998  0.2224  0.1954 -0.0584
  302MOL0     C40639   8.856   4.879  10.982 -0.6357  0.3175  0.2494
  302MOL0     C40640   8.834   4.787  10.877  0.6546  0.3408 -0.5878
  302MOL0     C40641   8.709   4.737  10.852  0.2333 -0.5348  0.1425
  302MOL0     C40642   8.602   4.770  10.927  0.7067 -0.1538  0.2463
  302MOL0     O40643   8.478   4.708  10.910 -0.0631  0.5777 -1.0056
  302MOL0     C40644   8.362   4.796  10.915  0.4552  0.1202 -0.3807
  302MOL0     C40645   8.243   4.723  10.835 -0.5396 -0.8954  0.2126
  302MOL0     C40646   8.188   4.605  10.918  0.2214 -0.3422  0.2124
  302MOL0     C40647   8.090   4.508  10.838 -0.1093  0.5124  0.0539
  302MOL0     C40648   8.042   4.379  10.916 -0.0953 -0.3222  0.0413
  302MOL0     C40649   7.934   4.307  10.834 -0.4006 -0.1501  1.1964
  302MOL0     C40650   7.904   4.172  10.898 -0.3905 -0.0586 -0.1160
  302MOL0     C40651   7.802   4.083  10.836 -0.3350 -0.1281  0.1235
  302MOL0     N40652   7.812   4.066  10.698  0.4361  0.2273 -0.7536
  302MOL0     C40653   7.732   4.120  10.605  0.3914  0.8074  0.6629
  302MOL0     C40654   7.767   4.063  10.485  0.2341  0.0428 -1.7556
  302MOL0     C40655   7.717   4.074  10.346 -0.0457 -0.0831  0.4756
  302MOL0     C40656   7.629   3.942  10.320  0.4414  0.2969 -0.5981
  302MOL0     C40657   7.557   3.964  10.198 -0.6382 -0.0677 -0.1976
  302MOL0     C40658   7.422   3.896  10.194 -0.3215  0.0895 -0.0856
  302MOL0     O40659   7.347   3.953  10.086  0.5726 -0.2648  0.0347
  302MOL0     C40660   7.209   3.930  10.095  0.5955 -0.0766  0.9675
  302MOL0     C40661   7.127   4.000   9.999 -0.5534  0.2136 -1.1411
  302MOL0     C40662   6.988   3.993   9.998  0.5555  0.1105  0.1776
  302MOL0     C40663   6.924   4.071   9.888 -0.4445 -0.0464 -0.1697
  302MOL0     C40664   6.922   3.912  10.100  0.2937  0.1214 -0.6717
  302MOL0     C40665   6.781   3.907  10.135  0.6309 -0.4414 -0.7548
  302MOL0     O40666   6.733   3.793  10.211  0.1856 -0.5614 -0.0378
  302MOL0     C40667   6.602   3.790  10.234 -0.1418 -0.0168  0.4250
  302MOL0     C40668   6.543   3.863  10.336 -0.6368  0.4549 -0.1908
  302MOL0     C40669   6.404   3.864  10.361 -0.0658 -0.2652 -1.0441
  302MOL0     C40670   6.315   3.792  10.276  0.1942  0.4316 -0.0405
  302MOL0     O40671   6.182   3.815  10.297 -0.6864  0.0898  0.3520
  302MOL0     C40672   6.094   3.702  10.279 -0.8393  0.0482 -0.6295
  302MOL0     C40673   5.956   3.758  10.272 -0.5344  0.2255 -0.3102
  302MOL0     C40674   5.912   3.785  10.413  0.6228  0.0883  0.4512
  302MOL0     C40675   5.772   3.857  10.411 -0.0174 -0.3366 -0.1597
  302MOL0     C40676   5.712   3.844  10.554  0.5148  0.1763 -0.5673
  302MOL0     C40677   5.582   3.916  10.562  0.0340 -0.1830 -0.5315
  302MOL0     C40678   5.539   3.928  10.708  0.7811 -0.3896  0.3557
  302MOL0     C40679   5.392   3.971  10.714  0.6286 -0.2190 -0.5303
  302MOL0    Cl40680   5.335   3.982  10.887 -0.3836 -0.0424 -0.1331
  302MOL0     C40681   6.382   3.701  10.180 -0.7569 -0.6136 -0.0506
  302MOL0     C40682   6.516   3.720  10.149 -0.1525  0.3467 -0.8659
  302MOL0     O40683   6.709   3.999  10.095 -0.5638 -0.6533  0.2704
  302MOL0     C40684   6.999   3.838  10.191  0.1268  0.8077 -0.6537
  302MOL0     C40685   7.142   3.848  10.187 -0.2478  0.1361  0.1200
  302MOL0     N40686   7.870   3.983  10.511 -0.3236  0.7358  0.9507
  302MOL0     N40687   7.911   3.991  10.634  0.2834  0.0978 -0.3488
  302MOL0     C40688   8.623   4.872  11.029 -0.2401 -1.0639  1.3591
  302MOL0     C40689   8.752   4.924  11.058  1.0296  0.5490 -0.3923
  302MOL0     C40690   9.132   5.112  10.970 -0.2451  0.0906  0.0457
  302MOL0     C40691   9.171   5.216  10.889 -0.1333  0.2133 -0.2519
  302MOL0     C40692   9.293   5.276  10.913 -0.2764  0.2500 -0.7126
  302MOL0     C40693   9.369   5.246  11.035 -0.5402 -0.3638 -0.3091
  302MOL0     O40694   9.472   5.330  11.060  0.4023 -0.2930 -0.3681
  302MOL0     C40695   9.570   5.303  11.159  0.5846  0.4870 -0.6697
  302MOL0     C40696   9.647   5.423  11.212 -0.1646  0.5030 -0.6587
  302MOL0     C40697   9.762   5.363  11.312 -0.6131 -0.1919  1.0052
  302MOL0     C40698   9.868   5.467  11.304 -0.1596 -0.2728 -0.1405
  302MOL0     C40699   9.995   5.426  11.369  0.1888  0.4361  0.3721
  302MOL0     C40700  10.101   5.397  11.426  0.3941 -0.6076  0.1176
  302MOL0     C40701   9.338   5.125  11.097  0.2443  0.7908 -0.1744
  302MOL0     C40702   9.218   5.059  11.064  0.0819  0.6393  0.6521
  302MOL0     H40703   8.918   4.744  10.823  1.7125 -0.5205  1.6055
  302MOL0     H40704   8.704   4.666  10.770  1.8387  1.7263 -2.0719
  302MOL0     H40705   8.329   4.814  11.018  1.1929  1.6272 -0.3785
  302MOL0     H40706   8.386   4.891  10.865 -1.0934  0.1350 -1.1407
  302MOL0     H40707   8.167   4.799  10.816  1.9723  1.7334 -0.0488
  302MOL0     H40708   8.286   4.689  10.740 -0.6043  1.2912 -0.6619
  302MOL0     H40709   8.270   4.556  10.972  1.2260  1.4487  0.4075
  302MOL0     H40710   8.128   4.655  10.994 -0.2981  1.6988 -1.4492
  302MOL0     H40711   8.001   4.564  10.807 -0.8577 -0.0526  1.1287
  302MOL0     H40712   8.137   4.471  10.747 -2.5182  0.3377 -1.2239
  302MOL0     H40713   8.131   4.318  10.933  0.5248  0.9497  1.7540
  302MOL0     H40714   8.000   4.411  11.012  0.5626  1.9965 -0.3819
  302MOL0     H40715   7.843   4.368  10.825 -1.3267 -1.7688 -1.2720
  302MOL0     H40716   7.969   4.294  10.731 -0.8329 -1.4934  1.2003
  302MOL0     H40717   7.996   4.112  10.896  0.6393  1.4728 -1.3890
  302MOL0     H40718   7.882   4.177  11.004 -1.1058 -0.6590 -0.2285
  302MOL0     H40719   7.697   4.106  10.856 -0.6035 -1.4316  0.3005
  302MOL0     H40720   7.809   3.984  10.883 -1.6494  0.7083  2.2173
  302MOL0     H40721   7.648   4.189  10.616  0.9571  1.1911  2.8562
  302MOL0     H40722   7.669   4.170  10.323  2.0950  0.4907 -2.1671
  302MOL0     H40723   7.799   4.076  10.273 -0.6913  1.4358 -0.2579
  302MOL0     H40724   7.557   3.929  10.402 -1.6384  0.7096 -2.2854
  302MOL0     H40725   7.695   3.855  10.316 -0.0669 -0.1629  0.5540
  302MOL0     H40726   7.614   3.934  10.109 -1.7669  0.0720 -0.9825
  302MOL0     H40727   7.534   4.071  10.190 -2.2323 -0.2887  1.0888
  302MOL0     H40728   7.369   3.909  10.289 -0.6345  0.1748 -0.2706
  302MOL0     H40729   7.411   3.788  10.179 -2.5218  0.2202  0.2594
  302MOL0     H40730   7.169   4.060   9.918 -2.6849 -1.4062 -3.6386
  302MOL0     H40731   6.818   4.048   9.885 -0.5432  0.4527 -0.8802
  302MOL0     H40732   6.943   4.173   9.925  1.9451 -0.9314  1.3110
  302MOL0     H40733   6.979   4.052   9.795  1.5667  0.7183  0.7921
  302MOL0     H40734   6.618   3.925  10.385 -0.4083  0.0701 -0.0482
  302MOL0     H40735   6.368   3.937  10.433  5.6478  1.1366  0.8976
  302MOL0     H40736   6.117   3.636  10.195 -1.0089 -2.4145  1.1414
  302MOL0     H40737   6.110   3.630  10.359  0.8239  0.3888 -0.6312
  302MOL0     H40738   5.957   3.860  10.231  2.6527  3.3361  5.9990
  302MOL0     H40739   5.878   3.709  10.213 -1.2451  2.6723 -1.5450
  302MOL0     H40740   5.974   3.853  10.472 -1.2597  3.1678 -0.8685
  302MOL0     H40741   5.901   3.689  10.464 -1.6205 -0.4239 -0.8316
  302MOL0     H40742   5.777   3.962  10.378 -1.6519  0.4630  1.9309
  302MOL0     H40743   5.711   3.805  10.337  0.0197 -0.8152  0.1459
  302MOL0     H40744   5.781   3.879  10.631 -0.6365  1.5170 -0.1096
  302MOL0     H40745   5.689   3.741  10.584 -1.6460  0.6028 -0.5566
  302MOL0     H40746   5.579   4.013  10.513 -1.6904  0.5526  0.9218
  302MOL0     H40747   5.504   3.865  10.504 -1.6622  1.3852  0.2647
  302MOL0     H40748   5.604   3.994  10.765 -2.0287 -0.8611  4.5149
  302MOL0     H40749   5.553   3.829  10.752  0.5683 -0.8641 -0.6023
  302MOL0     H40750   5.334   3.890  10.669 -0.7137 -1.6084  3.2614
  302MOL0     H40751   5.368   4.069  10.671  0.2742  0.0870  0.3485
  302MOL0     H40752   6.319   3.635  10.123 -2.0335  0.6628 -0.1786
  302MOL0     H40753   6.558   3.663  10.067  1.0235  1.7113 -1.2550
  302MOL0     H40754   6.957   3.783  10.275 -1.5757  2.0406 -0.6355
  302MOL0     H40755   7.195   3.799  10.268 -1.2186 -0.1650  0.5949
  302MOL0     H40756   8.548   4.934  11.078 -1.1441 -0.7342 -0.3397
  302MOL0     H40757   8.762   5.011  11.122 -0.1433  1.2287 -1.0942
  302MOL0     H40758   9.101   5.253  10.814 -1.3098 -0.5838  0.4109
  302MOL0     H40759   9.335   5.358  10.856  2.4660  0.4404  1.3563
  302MOL0     H40760   9.514   5.263  11.244  1.2920 -1.1256 -0.9221
  302MOL0     H40761   9.643   5.225  11.136 -0.2029 -0.7675  0.8618
  302MOL0     H40762   9.577   5.488  11.266 -0.7097 -0.5385 -0.0752
  302MOL0     H40763   9.682   5.477  11.124 -0.0531 -1.3024 -1.7807
  302MOL0     H40764   9.803   5.270  11.271 -0.4440  1.1767 -2.2043
  302MOL0     H40765   9.728   5.346  11.415  0.0642 -0.4434  1.1921
  302MOL0     H40766   9.832   5.557  11.353  1.3507  2.1165 -3.0934
  302MOL0     H40767   9.886   5.475  11.196 -2.3456  1.6599 -0.4257
  302MOL0     H40768  10.188   5.383  11.487  1.5529  1.6679 -0.9075
  302MOL0     H40769   9.390   5.097  11.188  0.1501  1.0771 -0.0298
  302MOL0     H40770   9.174   4.981  11.125  1.3326 -0.7564 -0.1679
  303MOL0     O40771   2.792   9.444  10.218 -0.1424 -0.4145 -0.5651
  303MOL0     C40772   2.768   9.517  10.125 -0.7191  0.3497  0.5075
  303MOL0     O40773   2.646   9.545  10.076  0.2199  0.0151 -0.6572
  303MOL0     C40774   2.521   9.494  10.117 -0.8815 -0.3706  0.5714
  303MOL0     C40775   2.495   9.404  10.222  0.4533  0.4400  0.9200
  303MOL0     C40776   2.361   9.366  10.255 -0.5478  0.8787  0.7061
  303MOL0     C40777   2.257   9.392  10.176  0.4593  0.1606  0.4916
  303MOL0     O40778   2.136   9.334  10.211  0.1430  0.8942  0.1643
  303MOL0     C40779   2.017   9.410  10.219  0.6238  0.2013 -0.3713
  303MOL0     C40780   2.016   9.525  10.319 -0.7587  0.4188 -0.2595
  303MOL0     C40781   1.875   9.584  10.313  0.4680 -0.2122 -0.1391
  303MOL0     C40782   1.766   9.501  10.378 -0.9186 -0.6152  0.4245
  303MOL0     C40783   1.636   9.581  10.411  0.0121  0.1793  0.5688
  303MOL0     C40784   1.517   9.487  10.449 -0.0703 -0.0806  0.7414
  303MOL0     C40785   1.418   9.574  10.517 -0.4328  0.0620  0.0188
  303MOL0     C40786   1.280   9.504  10.532 -0.3022  0.1299 -0.3737
  303MOL0     N40787   1.216   9.459  10.404 -0.4810 -0.6876  0.2358
  303MOL0     C40788   1.227   9.526  10.287 -0.5505 -0.3092  1.0477
  303MOL0     C40789   1.194   9.438  10.187  0.1482 -0.0824  0.5021
  303MOL0     C40790   1.185   9.467  10.040  0.0560  0.2778  0.7311
  303MOL0     C40791   1.306   9.417   9.970  0.5890 -0.4261  0.1020
  303MOL0     C40792   1.430   9.497  10.008  0.6434  0.5348  1.1869
  303MOL0     C40793   1.538   9.459   9.912  0.1425 -0.0922 -0.3203
  303MOL0     O40794   1.668   9.512   9.928  0.0218 -0.0791 -0.0210
  303MOL0     C40795   1.757   9.509   9.817 -0.0750 -0.6508 -0.0130
  303MOL0     C40796   1.873   9.586   9.830  0.3759 -0.1104  0.1359
  303MOL0     C40797   1.971   9.595   9.735  0.0939  0.3858  0.4293
  303MOL0     C40798   2.099   9.673   9.769 -0.6935 -0.9578 -0.1229
  303MOL0     C40799   1.952   9.543   9.600  0.4345 -0.0999  0.6510
  303MOL0     C40800   2.043   9.559   9.482 -0.1850 -0.7294 -0.2602
  303MOL0     O40801   2.000   9.499   9.366 -0.1569 -0.0022  0.7587
  303MOL0     C40802   2.058   9.537   9.244  0.2043  0.5412  0.4977
  303MOL0     C40803   2.199   9.553   9.222  0.4621  0.0089  0.3263
  303MOL0     C40804   2.248   9.573   9.093 -0.6494 -0.8705 -0.5994
  303MOL0     C40805   2.162   9.590   8.990 -0.1255  0.5768  0.1874
  303MOL0     O40806   2.210   9.623   8.867 -0.1780  0.2041  0.0708
  303MOL0     C40807   2.313   9.537   8.817  0.0820 -0.1920  0.3066
  303MOL0     C40808   2.395   9.606   8.713 -0.7890  0.2041 -0.7654
  303MOL0     C40809   2.509   9.525   8.657 -0.0449  0.0165  0.8660
  303MOL0     C40810   2.470   9.389   8.598  0.0686 -0.1008  0.8891
  303MOL0     C40811   2.598   9.313   8.552 -0.6349 -0.5479  0.1649
  303MOL0     C40812   2.557   9.182   8.483 -0.0910 -0.3163 -0.3577
  303MOL0     C40813   2.674   9.085   8.472 -0.9559 -1.2410 -0.7206
  303MOL0     C40814   2.669   9.038   8.322  0.4887  0.4671 -0.5042
  303MOL0    Cl40815   2.496   8.969   8.283  0.2234 -0.4967  0.3401
  303MOL0     C40816   2.021   9.558   8.999 -0.5012  0.6316 -1.2008
  303MOL0     C40817   1.968   9.533   9.132  0.0635  0.2094  0.1297
  303MOL0     O40818   2.149   9.631   9.497  0.3829  0.0595  0.5018
  303MOL0     C40819   1.832   9.468   9.587 -0.1554  0.0754 -0.7142
  303MOL0     C40820   1.737   9.456   9.686 -0.6624 -0.0065  0.0299
  303MOL0     N40821   1.163   9.315  10.248 -0.3093  0.1025  0.1566
  303MOL0     N40822   1.181   9.328  10.381  0.1225 -0.4985  0.8428
  303MOL0     C40823   2.283   9.467  10.062 -0.2033  0.9600  0.5802
  303MOL0     C40824   2.410   9.522  10.033 -0.4189 -0.1689  0.1799
  303MOL0     C40825   2.885   9.574  10.048 -0.0551 -0.1149 -1.0198
  303MOL0     C40826   2.875   9.597   9.908 -0.0476  0.7127  0.2191
  303MOL0     C40827   2.985   9.651   9.837  0.4290  0.6461  0.6250
  303MOL0     C40828   3.103   9.677   9.906  0.0228  0.3288  0.4749
  303MOL0     O40829   3.214   9.732   9.840 -0.2026 -0.0640  0.3413
  303MOL0     C40830   3.233   9.712   9.693  0.1945 -0.4634 -0.3263
  303MOL0     C40831   3.371   9.754   9.648  0.4111 -0.1065 -0.2099
  303MOL0     C40832   3.477   9.679   9.736  0.1829  0.2395  0.5128
  303MOL0     C40833   3.617   9.701   9.682 -0.1532  0.2463 -0.6115
  303MOL0     C40834   3.633   9.625   9.562  0.4984 -0.6811  0.2069
  303MOL0     C40835   3.663   9.562   9.465  0.7754 -0.0115  0.3334
  303MOL0     C40836   3.113   9.657  10.042  0.4705  0.7237 -0.6003
  303MOL0     C40837   3.011   9.594  10.114 -0.5258 -0.0083 -0.7219
  303MOL0     H40838   2.579   9.366  10.279  0.5065 -0.5937  0.1807
  303MOL0     H40839   2.342   9.301  10.339  2.9620  0.1580  1.0953
  303MOL0     H40840   1.993   9.441  10.117 -1.5902 -1.9502 -0.5867
  303MOL0     H40841   1.939   9.339  10.248 -1.6952  1.7402 -2.4062
  303MOL0     H40842   2.032   9.493  10.423 -0.2441 -2.1860 -1.0803
  303MOL0     H40843   2.091   9.600  10.291 -1.1134  1.5642  1.6284
  303MOL0     H40844   1.876   9.683  10.358 -2.8713 -0.2981  0.3631
  303MOL0     H40845   1.845   9.604  10.210 -0.6718  1.4746  0.4770
  303MOL0     H40846   1.737   9.420  10.311 -2.2236  1.6967 -2.0313
  303MOL0     H40847   1.814   9.466  10.469  0.0090 -0.9456 -0.1712
  303MOL0     H40848   1.672   9.647  10.491  1.3626 -1.6150  1.5048
  303MOL0     H40849   1.602   9.637  10.324 -0.0935 -0.6661  0.0515
  303MOL0     H40850   1.469   9.424  10.374 -1.9269  1.2558  0.7401
  303MOL0     H40851   1.560   9.423  10.527  2.3337  1.9231  1.2089
  303MOL0     H40852   1.468   9.592  10.613  1.3537 -1.1073 -0.6343
  303MOL0     H40853   1.395   9.668  10.466  1.5604  0.3011 -0.5375
  303MOL0     H40854   1.214   9.581  10.574 -0.3100  0.0196 -0.1778
  303MOL0     H40855   1.292   9.419  10.601  2.0996 -0.7725 -1.7788
  303MOL0     H40856   1.243   9.632  10.270 -0.0958 -0.3484  1.2400
  303MOL0     H40857   1.101   9.405  10.008  1.4894 -1.2395 -0.2793
  303MOL0     H40858   1.163   9.571  10.013  1.5423  0.4922  0.2584
  303MOL0     H40859   1.278   9.420   9.864 -1.5601  0.4432  0.6311
  303MOL0     H40860   1.335   9.315   9.998 -0.4202 -0.2321  2.0903
  303MOL0     H40861   1.460   9.486  10.112  0.2098 -1.4966  1.1397
  303MOL0     H40862   1.410   9.602   9.989  0.7994  0.4109  0.2834
  303MOL0     H40863   1.491   9.489   9.818  0.5009  0.9815 -0.1592
  303MOL0     H40864   1.553   9.350   9.906 -0.2163 -0.0589 -2.7326
  303MOL0     H40865   1.892   9.637   9.924  0.1195  0.0312  0.1113
  303MOL0     H40866   2.183   9.610   9.739 -1.8976 -1.9537 -1.5525
  303MOL0     H40867   2.102   9.768   9.713  1.0426 -1.4984 -1.0320
  303MOL0     H40868   2.102   9.693   9.876  0.2936  0.2286 -0.3482
  303MOL0     H40869   2.261   9.545   9.311  0.7633 -2.0692 -0.0248
  303MOL0     H40870   2.355   9.590   9.083 -0.8253 -0.2729 -1.5978
  303MOL0     H40871   2.382   9.489   8.887  1.4783 -0.8550 -1.4349
  303MOL0     H40872   2.279   9.448   8.762  0.8793 -0.7325  0.6780
  303MOL0     H40873   2.329   9.620   8.627  0.5239 -3.4272 -2.5547
  303MOL0     H40874   2.443   9.698   8.749 -0.5290 -0.0221 -0.5245
  303MOL0     H40875   2.587   9.528   8.733  0.3638  0.4822  0.4366
  303MOL0     H40876   2.559   9.578   8.575 -1.7146 -0.7346 -0.7354
  303MOL0     H40877   2.415   9.329   8.671  0.2196  0.1515  1.2146
  303MOL0     H40878   2.404   9.396   8.511 -2.1940 -3.1983  2.1635
  303MOL0     H40879   2.670   9.285   8.629  1.7003  2.8475 -0.5673
  303MOL0     H40880   2.654   9.374   8.480 -0.6011  1.3792  1.7548
  303MOL0     H40881   2.468   9.145   8.533 -2.0865 -0.5878 -3.7926
  303MOL0     H40882   2.523   9.204   8.381  2.3256 -1.3110 -1.4797
  303MOL0     H40883   2.688   9.008   8.549  1.9667 -0.7477 -0.6539
  303MOL0     H40884   2.769   9.138   8.478 -0.3148 -2.5299  2.8646
  303MOL0     H40885   2.749   8.964   8.318  0.2384 -0.1329  2.6385
  303MOL0     H40886   2.692   9.121   8.255  3.4062  0.9116  0.8864
  303MOL0     H40887   1.950   9.575   8.919 -1.4552 -1.2515 -0.8021
  303MOL0     H40888   1.862   9.511   9.140  0.6590 -3.1614  0.2036
  303MOL0     H40889   1.805   9.439   9.486 -0.5083  3.5413 -1.7672
  303MOL0     H40890   1.641   9.418   9.651 -1.4561  1.2814  0.7421
  303MOL0     H40891   2.204   9.507   9.999  0.5287  2.1002  0.3517
  303MOL0     H40892   2.425   9.574   9.939 -2.2750 -1.7479 -1.0462
  303MOL0     H40893   2.778   9.574   9.864  0.5008 -1.3351 -0.0059
  303MOL0     H40894   2.952   9.668   9.735 -0.3486  1.0105  0.9243
  303MOL0     H40895   3.226   9.605   9.671  1.9101 -0.7451  0.3133
  303MOL0     H40896   3.152   9.770   9.647 -1.4302 -1.0863  1.6129
  303MOL0     H40897   3.377   9.862   9.664  1.7355 -0.1733 -0.2041
  303MOL0     H40898   3.381   9.721   9.544 -0.2919 -1.7072  0.1812
  303MOL0     H40899   3.461   9.571   9.723  2.1576  0.2515 -3.7839
  303MOL0     H40900   3.478   9.706   9.842 -0.1832  0.9019  0.3485
  303MOL0     H40901   3.692   9.670   9.755 -0.7845  0.0020 -0.0489
  303MOL0     H40902   3.638   9.805   9.657 -0.0262  0.9072  1.9772
  303MOL0     H40903   3.696   9.487   9.396  0.6388 -0.2098  0.4818
  303MOL0     H40904   3.201   9.683  10.100 -0.2404  1.7094  0.0909
  303MOL0     H40905   3.016   9.578  10.221 -0.8460  0.3568 -0.6516
  304MOL0     O40906   8.752   1.892   1.950 -0.5864 -0.1054  0.0923
  304MOL0     C40907   8.851   1.959   1.989 -0.1092  1.5232  0.7491
  304MOL0     O40908   8.875   2.011   2.108 -0.5862  0.2870  0.4046
  304MOL0     C40909   8.784   2.018   2.197 -0.1419 -0.1882  0.6962
  304MOL0     C40910   8.742   1.906   2.270  0.9520 -0.6124 -0.2962
  304MOL0     C40911   8.646   1.918   2.366 -0.9625  0.0607  0.4589
  304MOL0     C40912   8.590   2.045   2.402  0.0424 -0.4211  0.9111
  304MOL0     O40913   8.500   2.071   2.507  0.1794  0.3364  0.4196
  304MOL0     C40914   8.404   1.972   2.547  0.0971 -0.5014 -0.3344
  304MOL0     C40915   8.437   1.916   2.681  0.2618 -0.6647  0.4068
  304MOL0     C40916   8.343   1.806   2.729 -0.2185  0.5016 -0.0208
  304MOL0     C40917   8.262   1.736   2.612 -0.4501 -0.4480 -0.0614
  304MOL0     C40918   8.189   1.619   2.665 -1.2744 -0.0180 -0.6359
  304MOL0     C40919   8.100   1.567   2.553  0.8683  0.4520  0.2708
  304MOL0     C40920   7.977   1.513   2.635  0.2473  0.5196  0.2157
  304MOL0     C40921   7.878   1.447   2.543 -0.1429 -0.7200 -0.6596
  304MOL0     N40922   7.740   1.447   2.596  0.4457  0.6125 -0.2868
  304MOL0     C40923   7.678   1.350   2.663 -0.4809  0.0399 -0.1474
  304MOL0     C40924   7.557   1.398   2.703  0.4324 -0.6522  0.0833
  304MOL0     C40925   7.448   1.326   2.771  0.0328 -0.3846  0.3941
  304MOL0     C40926   7.323   1.326   2.689  0.6152 -0.2378  0.1293
  304MOL0     C40927   7.211   1.265   2.772 -0.6532 -1.2714 -0.3617
  304MOL0     C40928   7.078   1.273   2.701 -1.4823 -0.1568  0.6425
  304MOL0     O40929   6.970   1.270   2.794 -0.5277  0.2173 -0.5811
  304MOL0     C40930   6.840   1.269   2.745 -0.3345  0.5206 -0.3039
  304MOL0     C40931   6.799   1.306   2.615  0.7565 -0.9934 -0.5850
  304MOL0     C40932   6.656   1.298   2.584 -0.8875 -0.3604 -0.4946
  304MOL0     C40933   6.632   1.309   2.438 -0.4860  0.2538  0.0615
  304MOL0     C40934   6.556   1.276   2.684 -0.1379 -0.6825  0.7811
  304MOL0     C40935   6.404   1.294   2.662  0.2604 -0.8163 -0.3893
  304MOL0     O40936   6.319   1.260   2.760 -0.2193  0.4081  0.0023
  304MOL0     C40937   6.191   1.231   2.735 -0.8560  0.1356 -0.3586
  304MOL0     C40938   6.112   1.262   2.846  0.1133  0.9153  0.4794
  304MOL0     C40939   5.974   1.233   2.837 -0.3544 -0.5163 -0.2256
  304MOL0     C40940   5.917   1.178   2.723 -0.0763  0.2572  0.3772
  304MOL0     O40941   5.779   1.153   2.710  0.5455 -0.3472 -0.6723
  304MOL0     C40942   5.684   1.209   2.806  0.2163  0.2811 -1.1581
  304MOL0     C40943   5.542   1.198   2.755 -0.2576  0.2793  0.3940
  304MOL0     C40944   5.438   1.234   2.858 -0.2822  0.4973  0.0404
  304MOL0     C40945   5.291   1.183   2.836 -0.8838  0.1336 -0.1950
  304MOL0     C40946   5.191   1.233   2.940 -0.0972 -0.0322  1.2917
  304MOL0     C40947   5.049   1.169   2.929 -0.6191  0.7920  0.1984
  304MOL0     C40948   4.970   1.236   2.814 -0.5307  0.2949  0.6583
  304MOL0     C40949   4.817   1.231   2.847  0.1824 -0.1265 -0.8435
  304MOL0    Cl40950   4.780   1.336   2.995  0.0214  0.3967  0.2029
  304MOL0     C40951   5.996   1.148   2.612 -0.0654  0.4909 -0.8324
  304MOL0     C40952   6.137   1.174   2.614  0.1717 -0.3222 -0.6808
  304MOL0     O40953   6.372   1.342   2.548 -0.5512 -0.7330 -0.2879
  304MOL0     C40954   6.606   1.232   2.809  0.4710  0.0117 -1.1988
  304MOL0     C40955   6.744   1.229   2.839  0.4818 -0.6124  0.0648
  304MOL0     N40956   7.553   1.539   2.655  0.4260  0.7439  0.8053
  304MOL0     N40957   7.662   1.560   2.594  0.0598  0.2404 -0.4564
  304MOL0     C40958   8.627   2.157   2.320  0.7251 -0.3225  0.1374
  304MOL0     C40959   8.722   2.143   2.220 -0.4605 -0.0165  1.3834
  304MOL0     C40960   8.965   1.963   1.886  0.6024 -0.5509 -0.2120
  304MOL0     C40961   9.089   2.021   1.905  0.5360 -0.0459  0.3452
  304MOL0     C40962   9.181   2.032   1.805 -0.3914  0.0293 -0.2825
  304MOL0     C40963   9.159   1.975   1.684  0.7644  0.4398  0.7659
  304MOL0     O40964   9.262   1.996   1.585  1.1162  0.0296  0.5045
  304MOL0     C40965   9.250   1.936   1.461  0.0849  0.1558  0.9057
  304MOL0     C40966   9.384   1.954   1.394  0.3257  0.8576  0.7578
  304MOL0     C40967   9.383   1.886   1.260  0.0755 -0.3435  0.2383
  304MOL0     C40968   9.260   1.925   1.171  0.1531 -0.7263 -0.2095
  304MOL0     C40969   9.303   1.907   1.030  0.8429  0.1312 -0.0816
  304MOL0     C40970   9.341   1.875   0.922  0.2206 -0.5716  1.1547
  304MOL0     C40971   9.037   1.904   1.658  0.1214  0.2414 -0.5540
  304MOL0     C40972   8.941   1.905   1.759 -0.5002  0.2248 -0.1902
  304MOL0     H40973   8.796   1.814   2.252  0.4116 -1.1516  0.7250
  304MOL0     H40974   8.618   1.830   2.423  1.3626  1.0467  3.3662
  304MOL0     H40975   8.310   2.023   2.566 -0.3910 -1.0029 -1.3357
  304MOL0     H40976   8.397   1.895   2.469 -1.4769  2.0614 -2.9064
  304MOL0     H40977   8.542   1.886   2.687  0.4682 -0.4824 -1.5665
  304MOL0     H40978   8.407   1.996   2.749  1.2990  0.9268 -0.9212
  304MOL0     H40979   8.400   1.728   2.781 -0.8076 -0.6528 -1.0605
  304MOL0     H40980   8.277   1.840   2.808  0.5330 -2.8675  2.3009
  304MOL0     H40981   8.203   1.817   2.568  3.0138  1.2795 -2.0488
  304MOL0     H40982   8.327   1.702   2.530 -0.1456  0.4880 -0.2186
  304MOL0     H40983   8.252   1.535   2.696 -3.0101 -1.3752 -0.6294
  304MOL0     H40984   8.126   1.646   2.751  0.8398 -1.0894  1.3624
  304MOL0     H40985   8.056   1.642   2.486 -0.9782 -2.7558 -2.3651
  304MOL0     H40986   8.147   1.487   2.495  1.5835  2.6390 -2.4032
  304MOL0     H40987   8.021   1.442   2.706 -0.0110  0.1453  0.0011
  304MOL0     H40988   7.931   1.597   2.688 -2.3767  1.0958 -2.7139
  304MOL0     H40989   7.907   1.344   2.518  2.8995 -0.1922  0.3684
  304MOL0     H40990   7.887   1.503   2.450 -0.7167 -1.2350 -1.0407
  304MOL0     H40991   7.703   1.245   2.672 -0.1548 -0.0938 -2.1430
  304MOL0     H40992   7.481   1.223   2.792  0.8915 -1.0056 -3.2285
  304MOL0     H40993   7.434   1.359   2.874  1.3655  0.1563  0.4306
  304MOL0     H40994   7.319   1.264   2.599  1.1387  2.6297 -1.9941
  304MOL0     H40995   7.279   1.423   2.663 -1.7218 -0.4139  2.9053
  304MOL0     H40996   7.195   1.325   2.862 -3.0272 -0.9778 -0.9011
  304MOL0     H40997   7.235   1.160   2.788  0.8962 -1.4774 -3.3007
  304MOL0     H40998   7.072   1.177   2.649 -0.6422  0.4932 -0.7296
  304MOL0     H40999   7.064   1.353   2.627  0.9256  1.5237  1.9129
  304MOL0     H41000   6.869   1.356   2.549  2.3725  0.8257  2.3205
  304MOL0     H41001   6.560   1.230   2.413 -0.8031  0.4665  0.2901
  304MOL0     H41002   6.600   1.410   2.413 -0.3965 -0.0505 -1.3431
  304MOL0     H41003   6.724   1.294   2.382  0.7272  0.8440  1.7979
  304MOL0     H41004   6.160   1.287   2.940 -0.7770  0.5553  1.0384
  304MOL0     H41005   5.916   1.248   2.927  0.2104 -3.2885  0.6707
  304MOL0     H41006   5.686   1.150   2.898 -2.7338  0.1904 -1.0687
  304MOL0     H41007   5.702   1.312   2.836  0.9281 -0.4214  0.9874
  304MOL0     H41008   5.526   1.258   2.665  0.1284  1.3722  1.0252
  304MOL0     H41009   5.529   1.091   2.736  1.2714  0.4556 -1.9446
  304MOL0     H41010   5.441   1.343   2.867  1.7022  0.5927 -1.0848
  304MOL0     H41011   5.462   1.178   2.949 -3.7659 -0.1318  0.7135
  304MOL0     H41012   5.273   1.220   2.734  2.1635 -0.0218 -0.9116
  304MOL0     H41013   5.300   1.075   2.843 -0.7619  0.2039  0.9969
  304MOL0     H41014   5.185   1.341   2.922  0.7224 -0.4015 -1.7447
  304MOL0     H41015   5.225   1.197   3.038 -1.3297 -5.3573  0.0678
  304MOL0     H41016   5.055   1.063   2.901  0.5255 -0.1639  3.5667
  304MOL0     H41017   4.997   1.176   3.025 -1.2296 -0.5832 -0.0023
  304MOL0     H41018   4.999   1.177   2.727 -2.7244 -0.9456  0.7099
  304MOL0     H41019   4.998   1.341   2.801 -2.1028  1.0845  2.9879
  304MOL0     H41020   4.782   1.133   2.880  2.1255  0.0953  2.2668
  304MOL0     H41021   4.770   1.267   2.755 -1.8214  0.9777  0.5345
  304MOL0     H41022   5.945   1.111   2.524 -0.7612  2.8820 -1.5257
  304MOL0     H41023   6.203   1.156   2.530  3.4370  0.5864  1.5231
  304MOL0     H41024   6.536   1.206   2.887  0.5494  1.8781 -0.4395
  304MOL0     H41025   6.781   1.215   2.940  1.3305  1.0090  0.0067
  304MOL0     H41026   8.581   2.250   2.350  0.9334  0.1850 -1.0552
  304MOL0     H41027   8.751   2.229   2.161 -2.6281  1.1434  1.8812
  304MOL0     H41028   9.107   2.042   2.010  4.4389 -0.7614 -0.0324
  304MOL0     H41029   9.276   2.081   1.820  0.3063 -1.0270 -1.1367
  304MOL0     H41030   9.234   1.828   1.475 -0.9683  0.4391  2.0027
  304MOL0     H41031   9.163   1.972   1.405  0.1303 -0.7170  0.2448
  304MOL0     H41032   9.467   1.914   1.453  0.9337 -0.6325 -1.0196
  304MOL0     H41033   9.410   2.060   1.380  1.2963  0.3888 -1.4400
  304MOL0     H41034   9.368   1.780   1.282 -3.2240  0.3536  1.9700
  304MOL0     H41035   9.475   1.904   1.203  0.1988 -0.8130  0.2873
  304MOL0     H41036   9.251   2.033   1.187  1.4031 -0.4969 -0.9265
  304MOL0     H41037   9.167   1.874   1.194  0.8691 -2.8272 -1.6438
  304MOL0     H41038   9.366   1.852   0.820 -0.7604 -0.4120  0.8686
  304MOL0     H41039   9.003   1.883   1.557  0.9362  2.4639 -1.3608
  304MOL0     H41040   8.847   1.858   1.732 -0.8392  1.2920 -0.9623
  305MOL0     O41041   6.176   8.763   4.923 -0.0482  0.1307 -0.2716
  305MOL0     C41042   6.279   8.718   4.958 -0.7316  0.3780  0.3461
  305MOL0     O41043   6.346   8.601   4.919  0.4649 -0.3755  0.2734
  305MOL0     C41044   6.286   8.527   4.816  0.3183  0.4566  0.3423
  305MOL0     C41045   6.230   8.567   4.692 -0.4488 -0.0054 -1.1194
  305MOL0     C41046   6.167   8.477   4.609 -0.1175 -0.3879 -0.0212
  305MOL0     C41047   6.165   8.341   4.635  0.6358 -0.2904 -0.1757
  305MOL0     O41048   6.082   8.259   4.559  0.8315 -0.6607 -0.6513
  305MOL0     C41049   6.150   8.149   4.491 -1.2392 -0.0406  0.6435
  305MOL0     C41050   6.099   8.112   4.354  0.4571 -0.7222  0.3569
  305MOL0     C41051   6.103   8.222   4.244  0.4248 -0.6512 -0.3078
  305MOL0     C41052   6.220   8.324   4.249 -0.2208 -0.1955  0.0865
  305MOL0     C41053   6.225   8.414   4.118  0.2881 -0.5150 -0.3548
  305MOL0     C41054   6.285   8.543   4.151 -0.2551 -0.1655 -0.6559
  305MOL0     C41055   6.324   8.616   4.021  0.5092  0.3180  0.1809
  305MOL0     C41056   6.426   8.540   3.939 -0.5837 -0.3115  0.0128
  305MOL0     N41057   6.480   8.626   3.835  0.0258  0.4658  0.3968
  305MOL0     C41058   6.581   8.711   3.853 -0.0792 -0.4184 -0.5319
  305MOL0     C41059   6.588   8.777   3.738  0.1593  0.4490 -0.4501
  305MOL0     C41060   6.684   8.900   3.728  0.0888  0.2414  0.7941
  305MOL0     C41061   6.820   8.879   3.809  0.1782  0.7170 -0.3699
  305MOL0     C41062   6.902   8.759   3.781  0.9184  0.0787 -0.5457
  305MOL0     C41063   7.045   8.781   3.832  0.3856  0.2857  0.2777
  305MOL0     O41064   7.150   8.690   3.784 -0.2209 -0.4844  0.3924
  305MOL0     C41065   7.275   8.707   3.838  0.6620  0.8059  0.4092
  305MOL0     C41066   7.356   8.592   3.865 -0.3974 -0.2621 -0.9110
  305MOL0     C41067   7.481   8.605   3.919 -1.3036 -0.1720  0.7942
  305MOL0     C41068   7.561   8.487   3.944 -0.0324 -0.0641 -0.5765
  305MOL0     C41069   7.532   8.737   3.949 -0.0311  0.3382  0.2172
  305MOL0     C41070   7.658   8.768   4.002  0.3341  0.3160 -0.3180
  305MOL0     O41071   7.752   8.805   3.909 -0.6301  0.6000  0.7446
  305MOL0     C41072   7.884   8.805   3.941  0.5329  1.3800 -0.5818
  305MOL0     C41073   7.955   8.911   3.895  0.7008  0.0745  0.1281
  305MOL0     C41074   8.089   8.925   3.928 -0.9822  0.9790 -0.0440
  305MOL0     C41075   8.158   8.825   4.005  0.1059  0.4117  0.4300
  305MOL0     O41076   8.290   8.826   4.042 -0.0829  0.4560  0.1741
  305MOL0     C41077   8.348   8.947   4.089  0.9193 -0.5274  0.1616
  305MOL0     C41078   8.496   8.953   4.055 -0.1934  1.3423  0.5662
  305MOL0     C41079   8.535   9.099   4.069 -0.5362 -0.7561  0.3439
  305MOL0     C41080   8.675   9.127   4.105  0.0350  0.3932  0.2959
  305MOL0     C41081   8.716   9.272   4.093 -0.4602  0.2704  0.2302
  305MOL0     C41082   8.860   9.295   4.090 -0.1518 -0.7595  1.0746
  305MOL0     C41083   8.894   9.435   4.023 -0.9845 -0.0406 -0.2144
  305MOL0     C41084   9.036   9.468   4.012  0.0744 -0.7137  0.7558
  305MOL0    Cl41085   9.042   9.636   3.950  0.1405  0.2575  0.2808
  305MOL0     C41086   8.083   8.720   4.059  0.3824  0.2886 -0.0152
  305MOL0     C41087   7.944   8.707   4.021 -1.1816 -0.6443  0.7450
  305MOL0     O41088   7.674   8.758   4.120  0.2516  0.6937 -0.5104
  305MOL0     C41089   7.454   8.852   3.919 -0.7803 -0.0918 -0.1122
  305MOL0     C41090   7.326   8.830   3.869  0.1089  0.3394 -0.2244
  305MOL0     N41091   6.488   8.736   3.651 -0.1340  0.5490  0.0344
  305MOL0     N41092   6.423   8.652   3.716 -0.4217 -1.0476 -0.4203
  305MOL0     C41093   6.216   8.291   4.755 -0.2027 -0.5782 -0.3309
  305MOL0     C41094   6.269   8.384   4.846 -0.1757  0.0494 -0.0678
  305MOL0     C41095   6.359   8.802   5.043 -0.0550  0.0466  0.2962
  305MOL0     C41096   6.289   8.896   5.128  0.0715  0.6260 -0.0019
  305MOL0     C41097   6.364   8.980   5.201 -0.9689  0.0829 -0.0761
  305MOL0     C41098   6.509   8.971   5.199  0.3575 -0.1798 -0.8475
  305MOL0     O41099   6.595   9.058   5.259 -0.3523 -0.2348  0.3967
  305MOL0     C41100   6.547   9.188   5.296 -0.2260  0.9897  0.1054
  305MOL0     C41101   6.676   9.267   5.325 -0.0238  0.3162 -0.3232
  305MOL0     C41102   6.747   9.316   5.193 -0.6396  0.7520 -0.8064
  305MOL0     C41103   6.865   9.412   5.220 -0.1721  0.8344 -0.0334
  305MOL0     C41104   6.889   9.490   5.103  0.8426  0.0415  0.0879
  305MOL0     C41105   6.891   9.565   5.006 -0.3776 -0.1021 -0.3471
  305MOL0     C41106   6.572   8.872   5.126  0.5040  0.5219  0.4278
  305MOL0     C41107   6.500   8.788   5.037 -0.2025  0.2802 -0.2985
  305MOL0     H41108   6.239   8.675   4.681  0.2779  0.3229  1.8873
  305MOL0     H41109   6.112   8.518   4.525 -1.6510 -1.1671  0.5734
  305MOL0     H41110   6.256   8.168   4.473 -0.6539 -3.0331  0.3853
  305MOL0     H41111   6.135   8.062   4.556  1.4148 -1.4743 -0.5275
  305MOL0     H41112   6.152   8.021   4.326 -4.3666 -5.1018  3.4645
  305MOL0     H41113   5.996   8.076   4.367  0.0797 -0.0218 -0.5715
  305MOL0     H41114   6.087   8.169   4.150 -1.7552 -0.5872 -0.0279
  305MOL0     H41115   6.016   8.288   4.260  0.4254 -0.1852 -2.0482
  305MOL0     H41116   6.216   8.380   4.343 -0.7133 -2.5107  1.5137
  305MOL0     H41117   6.307   8.259   4.242 -1.1494 -1.3843 -1.0537
  305MOL0     H41118   6.284   8.358   4.045  0.8014  1.6763 -1.7165
  305MOL0     H41119   6.122   8.431   4.084 -0.6647 -0.7266  2.2160
  305MOL0     H41120   6.220   8.615   4.202 -0.4713 -0.3172 -0.7158
  305MOL0     H41121   6.375   8.532   4.212 -0.8784  1.6713  0.6620
  305MOL0     H41122   6.237   8.642   3.960  0.0009 -2.8730 -0.6338
  305MOL0     H41123   6.367   8.712   4.052 -2.1807  1.2922  1.1603
  305MOL0     H41124   6.367   8.462   3.889  0.8931 -0.5703 -1.4145
  305MOL0     H41125   6.504   8.493   4.000  0.8316 -0.4668 -1.8293
  305MOL0     H41126   6.636   8.734   3.944 -0.0868 -1.0506 -0.3679
  305MOL0     H41127   6.716   8.903   3.623  1.1440  0.2806  1.1139
  305MOL0     H41128   6.637   8.994   3.759  0.7892  0.9785 -0.2974
  305MOL0     H41129   6.800   8.873   3.916  0.3217  1.3714 -0.2969
  305MOL0     H41130   6.883   8.969   3.806  0.0241  0.9195  1.6472
  305MOL0     H41131   6.895   8.726   3.676  2.4702  0.2328 -0.7144
  305MOL0     H41132   6.864   8.673   3.837 -1.8199  0.3425 -1.8309
  305MOL0     H41133   7.035   8.774   3.941  1.2799  3.6322  0.6936
  305MOL0     H41134   7.071   8.886   3.816 -3.2528  1.3176  0.1992
  305MOL0     H41135   7.316   8.493   3.841 -0.7339 -0.5032  0.5645
  305MOL0     H41136   7.546   8.452   4.047  0.6616 -0.1192 -0.4910
  305MOL0     H41137   7.542   8.406   3.873 -1.5908  0.1164 -0.4045
  305MOL0     H41138   7.664   8.523   3.943 -0.1484  0.3621  0.8410
  305MOL0     H41139   7.923   8.997   3.836 -1.3498 -0.5014  0.3221
  305MOL0     H41140   8.145   9.010   3.889 -0.6292  0.3318 -0.9934
  305MOL0     H41141   8.311   9.027   4.025  2.2970 -0.5060 -0.6511
  305MOL0     H41142   8.326   8.960   4.196  0.2682  1.5454 -0.1818
  305MOL0     H41143   8.554   8.895   4.127  1.3100  1.3456 -0.5891
  305MOL0     H41144   8.528   8.924   3.954 -0.0281 -0.0750  1.0045
  305MOL0     H41145   8.487   9.149   4.154  0.9982  0.9145  0.2867
  305MOL0     H41146   8.510   9.146   3.974  1.4169 -1.8201 -0.7655
  305MOL0     H41147   8.702   9.094   4.206 -1.6265 -1.6749  0.1386
  305MOL0     H41148   8.744   9.074   4.038  1.3828  1.5288  0.7385
  305MOL0     H41149   8.671   9.326   4.177  0.0216  1.2642 -0.1333
  305MOL0     H41150   8.673   9.315   4.002 -4.3281 -0.8452  1.3096
  305MOL0     H41151   8.906   9.293   4.189  3.4562  1.3654 -0.3726
  305MOL0     H41152   8.899   9.210   4.035  1.6275 -0.4490  1.7786
  305MOL0     H41153   8.834   9.508   4.077  0.6749  0.2773  1.2807
  305MOL0     H41154   8.858   9.429   3.920  0.7455  1.7298 -0.9867
  305MOL0     H41155   9.084   9.410   3.933 -1.6907 -0.9973 -0.1486
  305MOL0     H41156   9.081   9.460   4.111 -1.0352  2.7173  1.6790
  305MOL0     H41157   8.133   8.642   4.116 -1.4109  0.8605  2.5318
  305MOL0     H41158   7.890   8.618   4.055 -0.7167 -1.8839 -1.5422
  305MOL0     H41159   7.503   8.948   3.923  0.5442 -0.7793  2.3879
  305MOL0     H41160   7.281   8.927   3.851 -0.3015  0.0801 -0.6039
  305MOL0     H41161   6.213   8.185   4.780  1.0592 -0.4024  0.7287
  305MOL0     H41162   6.320   8.336   4.928  2.2424  2.4453 -0.0189
  305MOL0     H41163   6.180   8.898   5.124  0.0115 -0.8875  0.2016
  305MOL0     H41164   6.326   9.069   5.250 -0.9540  1.5146 -2.4878
  305MOL0     H41165   6.491   9.237   5.215 -0.7462  1.4040  0.7088
  305MOL0     H41166   6.480   9.172   5.381 -2.8664  1.3897 -1.7757
  305MOL0     H41167   6.744   9.206   5.385 -0.1044 -0.1438 -0.6867
  305MOL0     H41168   6.649   9.352   5.388  0.8112 -0.4361  1.0974
  305MOL0     H41169   6.671   9.370   5.136 -0.6590  0.6062 -0.9207
  305MOL0     H41170   6.779   9.231   5.132  0.3956  0.7765 -0.3329
  305MOL0     H41171   6.955   9.353   5.239 -2.8534 -4.9990 -2.7098
  305MOL0     H41172   6.846   9.480   5.303  2.1352 -0.7748  1.9791
  305MOL0     H41173   6.888   9.632   4.922 -1.5374  3.0312  2.0243
  305MOL0     H41174   6.680   8.869   5.140  0.7655  0.8779 -1.2488
  305MOL0     H41175   6.551   8.717   4.972  1.9331 -0.0065  1.5745
  306MOL0     O41176   3.404   0.251   0.769  0.1901  0.6984 -0.1880
  306MOL0     C41177   3.415   0.249   0.888 -0.0203 -0.0399 -0.4207
  306MOL0     O41178   3.325   0.237   0.981  0.3025 -0.1921  0.4681
  306MOL0     C41179   3.190   0.235   0.963 -0.5157  0.3579  0.0210
  306MOL0     C41180   3.117   0.267   0.845  0.5077  0.7429 -0.8914
  306MOL0     C41181   2.978   0.258   0.848  0.9828 -0.0750 -0.5125
  306MOL0     C41182   2.917   0.219   0.970  0.8596 -0.4744 -0.1536
  306MOL0     O41183   2.786   0.180   0.980 -0.2446 -0.4012 -0.4229
  306MOL0     C41184   2.692   0.260   1.045 -0.4759 -0.4668  0.1802
  306MOL0     C41185   2.564   0.187   1.003  1.0016 -0.0740  1.1273
  306MOL0     C41186   2.451   0.290   1.031  0.1414  0.3947 -0.2719
  306MOL0     C41187   2.323   0.232   0.970  0.6858 -0.7085 -0.3668
  306MOL0     C41188   2.306   0.278   0.828 -0.3678 -0.1224 -0.1171
  306MOL0     C41189   2.167   0.239   0.763  0.0680 -0.0874 -0.0654
  306MOL0     C41190   2.047   0.337   0.787 -0.1048  0.4173 -0.4246
  306MOL0     C41191   1.927   0.276   0.709 -1.2812  0.6613 -0.1845
  306MOL0     N41192   1.813   0.363   0.713  0.8582  0.1003 -0.1569
  306MOL0     C41193   1.696   0.359   0.780 -0.2066 -0.0249 -0.3531
  306MOL0     C41194   1.618   0.464   0.749  0.2104  0.5654 -0.1885
  306MOL0     C41195   1.484   0.516   0.788 -0.1871  0.0389  0.7853
  306MOL0     C41196   1.374   0.455   0.708  0.4041 -0.1262 -0.6537
  306MOL0     C41197   1.328   0.316   0.751 -0.3707  0.2970  0.2119
  306MOL0     C41198   1.213   0.267   0.668  0.6562 -0.2383  0.0441
  306MOL0     O41199   1.095   0.354   0.681 -0.1768  0.0360 -0.1922
  306MOL0     C41200   0.971   0.317   0.630 -0.0071 -0.0364 -0.1073
  306MOL0     C41201   0.852   0.377   0.676 -0.1807 -0.7576 -0.6290
  306MOL0     C41202   0.728   0.349   0.618  0.0227 -0.5186  0.3490
  306MOL0     C41203   0.614   0.430   0.678 -0.3428 -0.5632  0.3096
  306MOL0     C41204   0.721   0.265   0.500 -0.0117  0.3458  0.2878
  306MOL0     C41205   0.602   0.249   0.413 -0.3326 -0.3216 -0.1447
  306MOL0     O41206   0.589   0.134   0.335 -0.2570 -0.4811  0.2408
  306MOL0     C41207   0.476   0.120   0.255  0.0210 -0.4773 -0.4558
  306MOL0     C41208   0.420  -0.013   0.244 -0.1158  0.0733 -0.6549
  306MOL0     C41209   0.306  -0.036   0.172  0.0458  0.4267 -0.4239
  306MOL0     C41210   0.254   0.059   0.096 -0.6412 -0.1064 -0.3791
  306MOL0     O41211   0.140   0.024   0.021  0.1404  0.6630  0.7139
  306MOL0     C41212   0.064   0.132  -0.031  0.6321 -0.2056 -0.5614
  306MOL0     C41213  -0.073   0.086  -0.089  0.0882 -0.0486 -0.5368
  306MOL0     C41214  -0.157   0.198  -0.152 -0.8303  0.9920  0.3740
  306MOL0     C41215  -0.283   0.151  -0.236 -0.0740  0.0677 -0.5060
  306MOL0     C41216  -0.407   0.108  -0.142 -0.3925  0.6593  0.7919
  306MOL0     C41217  -0.449   0.205  -0.033 -0.2343  0.0380 -0.6665
  306MOL0     C41218  -0.490   0.345  -0.096  0.1580 -0.6025 -0.3183
  306MOL0     C41219  -0.571   0.435  -0.002  0.8541  0.3988  0.2115
  306MOL0    Cl41220  -0.483   0.478   0.146  0.0586  0.3032 -0.4181
  306MOL0     C41221   0.307   0.190   0.100 -0.7532 -0.4350  0.1657
  306MOL0     C41222   0.414   0.225   0.183 -0.8365 -0.1796 -0.2734
  306MOL0     O41223   0.515   0.335   0.413  0.0203 -1.0875  0.2973
  306MOL0     C41224   0.840   0.202   0.458 -0.8607 -1.2282 -0.1517
  306MOL0     C41225   0.962   0.230   0.518  0.0934  0.8201  0.0020
  306MOL0     N41226   1.689   0.540   0.658  0.3526 -0.0383 -0.2368
  306MOL0     N41227   1.800   0.474   0.636 -0.1070 -0.1137  0.7128
  306MOL0     C41228   2.980   0.205   1.092  0.0914  0.2661  0.1135
  306MOL0     C41229   3.124   0.207   1.083 -1.1771 -0.6241 -0.0751
  306MOL0     C41230   3.554   0.251   0.947 -0.9707 -0.1075  0.2714
  306MOL0     C41231   3.668   0.241   0.860  0.7027  0.5568 -0.1534
  306MOL0     C41232   3.795   0.249   0.909 -0.4284  1.1155 -0.4035
  306MOL0     C41233   3.825   0.269   1.038  0.3260 -0.0023 -0.3683
  306MOL0     O41234   3.954   0.259   1.091  0.0064 -0.3274  0.0618
  306MOL0     C41235   4.001   0.378   1.162 -0.1973 -0.6865  0.3534
  306MOL0     C41236   4.111   0.351   1.265 -0.3868  0.4148 -0.5206
  306MOL0     C41237   4.135   0.214   1.333 -0.4186  0.5836  0.1573
  306MOL0     C41238   4.008   0.155   1.385 -0.4053 -0.3875 -0.1362
  306MOL0     C41239   3.944   0.249   1.476 -0.4448  0.9507  0.6611
  306MOL0     C41240   3.872   0.315   1.551  0.4924  0.8024  0.7200
  306MOL0     C41241   3.712   0.297   1.126 -0.2074 -0.4615 -0.2561
  306MOL0     C41242   3.582   0.284   1.084  0.5968  0.7922  0.8677
  306MOL0     H41243   3.169   0.294   0.754  3.6295 -5.6849 -1.5570
  306MOL0     H41244   2.926   0.279   0.755  0.8743  2.3297  0.0512
  306MOL0     H41245   2.717   0.260   1.152 -0.5992 -0.9252  0.2099
  306MOL0     H41246   2.697   0.363   1.010 -0.7849 -0.3783  0.3931
  306MOL0     H41247   2.559   0.184   0.894  1.2020 -0.7984  1.1305
  306MOL0     H41248   2.545   0.095   1.061  1.7263  0.4051  2.1592
  306MOL0     H41249   2.430   0.301   1.138 -0.5200  2.1710 -0.5539
  306MOL0     H41250   2.467   0.389   0.988 -1.7747  0.1889 -1.5724
  306MOL0     H41251   2.317   0.122   0.973  1.3540 -0.7653 -0.8993
  306MOL0     H41252   2.235   0.267   1.025  1.6211  1.6844 -0.3006
  306MOL0     H41253   2.307   0.387   0.825  1.1401 -0.1316 -1.8855
  306MOL0     H41254   2.381   0.227   0.766 -2.0877 -3.0818  0.0122
  306MOL0     H41255   2.178   0.222   0.656 -2.4360 -1.3451 -0.1935
  306MOL0     H41256   2.132   0.138   0.786 -0.8279 -0.0559 -1.1782
  306MOL0     H41257   2.011   0.335   0.890  4.0632 -2.9651  1.2471
  306MOL0     H41258   2.082   0.432   0.746  2.6535 -1.5041 -2.8954
  306MOL0     H41259   1.907   0.177   0.752 -2.5011  1.3296  0.8186
  306MOL0     H41260   1.968   0.270   0.608 -0.3745 -0.7881  0.2256
  306MOL0     H41261   1.682   0.271   0.842  2.1837 -0.8826 -0.9344
  306MOL0     H41262   1.464   0.491   0.893  0.0725 -2.6618  0.2623
  306MOL0     H41263   1.488   0.624   0.770  1.9226  0.0469  1.0215
  306MOL0     H41264   1.407   0.467   0.604  3.0149 -0.3998  0.0896
  306MOL0     H41265   1.285   0.518   0.717  0.3979 -0.1657 -0.4459
  306MOL0     H41266   1.299   0.324   0.857 -1.0836 -0.2374  0.0680
  306MOL0     H41267   1.416   0.252   0.748  0.2842  1.1385  0.9373
  306MOL0     H41268   1.185   0.167   0.705 -0.9986  0.0601 -0.3168
  306MOL0     H41269   1.246   0.258   0.564 -0.5042  2.8774 -0.6769
  306MOL0     H41270   0.862   0.446   0.759 -0.3082 -0.9819 -0.4247
  306MOL0     H41271   0.617   0.439   0.787 -1.5842 -2.0702  0.4998
  306MOL0     H41272   0.619   0.531   0.636 -1.3224  0.5305  2.6756
  306MOL0     H41273   0.520   0.379   0.656  0.6721 -2.6927  0.6882
  306MOL0     H41274   0.467  -0.083   0.312  1.1441  1.3987 -0.0919
  306MOL0     H41275   0.245  -0.126   0.170 -2.0808  1.7761  0.6612
  306MOL0     H41276   0.035   0.198   0.051  0.5110  0.7119 -1.3238
  306MOL0     H41277   0.124   0.175  -0.113  0.1864 -2.2304 -2.0244
  306MOL0     H41278  -0.056  -0.002  -0.152 -2.0202 -1.6922  1.0297
  306MOL0     H41279  -0.129   0.053  -0.001  2.0665 -1.5730  0.2202
  306MOL0     H41280  -0.095   0.254  -0.222  2.4644 -1.6891  0.8834
  306MOL0     H41281  -0.181   0.273  -0.076  3.1652  1.3208  1.5197
  306MOL0     H41282  -0.317   0.234  -0.297 -1.6584  0.7667  1.2268
  306MOL0     H41283  -0.258   0.068  -0.303 -1.1968 -0.2132 -0.5843
  306MOL0     H41284  -0.378   0.015  -0.093  1.4662 -0.4296 -2.1114
  306MOL0     H41285  -0.494   0.090  -0.207 -2.0115  1.3678  2.6673
  306MOL0     H41286  -0.533   0.164   0.022  1.7472 -1.1288  1.6639
  306MOL0     H41287  -0.364   0.220   0.035 -1.3238 -2.2926  1.3503
  306MOL0     H41288  -0.555   0.334  -0.183 -1.6848 -2.0619  1.1545
  306MOL0     H41289  -0.398   0.401  -0.114 -0.1543  0.7297  1.8238
  306MOL0     H41290  -0.650   0.372   0.040  2.6191 -1.5019  0.8309
  306MOL0     H41291  -0.614   0.523  -0.051 -0.3040 -0.4224 -0.2878
  306MOL0     H41292   0.266   0.268   0.037  0.0207 -1.2230 -1.3823
  306MOL0     H41293   0.452   0.326   0.191  0.6029 -0.7780  0.8423
  306MOL0     H41294   0.837   0.128   0.380 -0.8341 -2.2902  0.8295
  306MOL0     H41295   1.059   0.192   0.488  0.3674 -1.4343  3.2236
  306MOL0     H41296   2.925   0.180   1.182 -3.3421  0.7454 -1.6789
  306MOL0     H41297   3.182   0.204   1.175 -0.1525  0.9938 -0.6040
  306MOL0     H41298   3.637   0.233   0.757 -2.9627 -0.2471  0.8702
  306MOL0     H41299   3.879   0.224   0.845 -0.7850  0.3020 -0.5674
  306MOL0     H41300   4.040   0.446   1.086  1.2614 -2.2495 -0.3731
  306MOL0     H41301   3.924   0.428   1.221  0.4825  1.3444 -0.3983
  306MOL0     H41302   4.099   0.427   1.344  0.8571 -0.8352  0.9240
  306MOL0     H41303   4.206   0.364   1.213  0.8895 -3.3667  0.5348
  306MOL0     H41304   4.207   0.217   1.415 -1.5146  2.5602  1.1256
  306MOL0     H41305   4.161   0.135   1.262  2.4289  0.3300  1.3588
  306MOL0     H41306   4.035   0.058   1.429  4.0842  1.5728  2.1229
  306MOL0     H41307   3.935   0.127   1.309 -1.2186  2.6126 -0.5931
  306MOL0     H41308   3.818   0.377   1.620  0.3362 -1.9609  3.3113
  306MOL0     H41309   3.739   0.299   1.231 -0.5440 -1.8608 -0.1201
  306MOL0     H41310   3.492   0.299   1.143 -2.3983 -1.7375 -2.5953
  307MOL0     O41311   8.750   5.340   5.286 -0.3983 -0.2823 -0.4304
  307MOL0     C41312   8.754   5.410   5.183 -0.1867  0.1916 -0.1148
  307MOL0     O41313   8.656   5.451   5.102  0.5612  0.2347  0.4136
  307MOL0     C41314   8.531   5.400   5.110  0.5665  0.3547  0.1714
  307MOL0     C41315   8.437   5.484   5.049  0.3610  0.6192  0.0497
  307MOL0     C41316   8.309   5.451   5.069 -0.2441 -0.3395 -0.3113
  307MOL0     C41317   8.256   5.337   5.132  0.0733  0.0826 -0.6746
  307MOL0     O41318   8.122   5.336   5.158  0.5162  0.8093  0.2983
  307MOL0     C41319   8.072   5.204   5.187 -0.4378 -0.3390 -0.9217
  307MOL0     C41320   7.920   5.209   5.161  0.4697  0.0054 -0.4639
  307MOL0     C41321   7.869   5.064   5.182  0.0950  0.3408  0.2370
  307MOL0     C41322   7.857   5.020   5.338 -0.2944  0.0745  0.3406
  307MOL0     C41323   7.845   4.873   5.356  0.6488  0.0302 -0.0817
  307MOL0     C41324   7.720   4.818   5.293  0.0007  0.0238  0.8770
  307MOL0     C41325   7.582   4.872   5.354 -0.6266 -1.0030 -0.2029
  307MOL0     C41326   7.561   4.872   5.506  0.3592  0.6205  0.8365
  307MOL0     N41327   7.588   4.749   5.563  0.5481  0.0409 -0.8033
  307MOL0     C41328   7.504   4.642   5.562  0.1505 -0.0225  0.0928
  307MOL0     C41329   7.586   4.545   5.616  0.0613  0.4933  0.2878
  307MOL0     C41330   7.561   4.402   5.651  0.3947  0.8356 -0.4102
  307MOL0     C41331   7.438   4.334   5.582 -0.8471 -0.0347 -0.6638
  307MOL0     C41332   7.430   4.182   5.606 -0.0552  0.4807  0.7210
  307MOL0     C41333   7.309   4.127   5.529 -0.3803 -1.0950  0.0265
  307MOL0     O41334   7.192   4.194   5.578  0.2953 -0.2502 -0.3816
  307MOL0     C41335   7.109   4.263   5.493 -0.0098 -0.1224 -0.2653
  307MOL0     C41336   6.973   4.283   5.539 -0.6807 -0.5682 -0.0916
  307MOL0     C41337   6.873   4.342   5.471  0.5559  1.2661  0.9497
  307MOL0     C41338   6.740   4.365   5.544 -0.2837  0.1562 -0.3722
  307MOL0     C41339   6.906   4.397   5.335  0.4677  0.3321  0.5937
  307MOL0     C41340   6.801   4.458   5.246  0.2356 -0.3779 -0.0625
  307MOL0     O41341   6.673   4.428   5.276 -0.3273  0.0608 -0.1904
  307MOL0     C41342   6.565   4.491   5.218 -0.3288  0.9107  0.6669
  307MOL0     C41343   6.567   4.620   5.149  0.5251  0.0192  0.1018
  307MOL0     C41344   6.445   4.677   5.119  0.6974  0.4675  0.2363
  307MOL0     C41345   6.320   4.606   5.140 -0.3005 -0.6298  0.6572
  307MOL0     O41346   6.202   4.677   5.116  0.3898 -0.2090  0.1501
  307MOL0     C41347   6.067   4.625   5.131  1.1053  0.4402  0.0376
  307MOL0     C41348   6.003   4.633   5.277  0.5885  0.6643 -0.1261
  307MOL0     C41349   5.984   4.777   5.321 -0.3808  0.1139  0.0733
  307MOL0     C41350   5.906   4.778   5.446  0.2509 -0.2892 -0.1653
  307MOL0     C41351   5.917   4.913   5.518  0.0492  0.0994 -0.4826
  307MOL0     C41352   5.791   4.946   5.607 -0.6264  0.7328 -0.0296
  307MOL0     C41353   5.676   4.989   5.512  0.1556 -0.6753 -0.0533
  307MOL0     C41354   5.542   5.007   5.591 -0.2471 -0.5663 -0.5169
  307MOL0    Cl41355   5.423   5.098   5.496 -0.3223 -0.2126  0.1683
  307MOL0     C41356   6.318   4.474   5.199 -0.1018  0.1769 -0.8248
  307MOL0     C41357   6.441   4.430   5.244  0.0611 -0.6331  0.1885
  307MOL0     O41358   6.834   4.503   5.138 -0.8012 -0.2902  0.1707
  307MOL0     C41359   7.040   4.391   5.290  0.2553 -0.0927  0.0238
  307MOL0     C41360   7.131   4.319   5.367 -0.1563 -0.1132  0.2027
  307MOL0     N41361   7.703   4.607   5.666  0.0248 -0.2676 -0.1276
  307MOL0     N41362   7.705   4.726   5.629  1.1209 -0.5399 -0.1754
  307MOL0     C41363   8.353   5.247   5.176  0.2829  0.0713  0.0335
  307MOL0     C41364   8.491   5.276   5.168 -0.1268  0.6671 -0.5796
  307MOL0     C41365   8.891   5.455   5.151 -0.1869  0.6619  0.4929
  307MOL0     C41366   8.990   5.457   5.243 -0.7870  1.0565 -1.1392
  307MOL0     C41367   9.119   5.504   5.216  0.2389  0.8360  0.0041
  307MOL0     C41368   9.136   5.578   5.094 -0.0013 -0.6649  0.0407
  307MOL0     O41369   9.245   5.654   5.064  0.6281  0.0146 -0.0387
  307MOL0     C41370   9.321   5.689   5.185 -1.4739  0.2899  0.1804
  307MOL0     C41371   9.425   5.793   5.140 -0.5911  0.7443 -0.2407
  307MOL0     C41372   9.542   5.733   5.060  0.9757 -0.4809 -0.9458
  307MOL0     C41373   9.621   5.632   5.122 -0.6545 -0.7903 -0.6028
  307MOL0     C41374   9.668   5.666   5.252 -0.6566  0.1189  0.2407
  307MOL0     C41375   9.730   5.704   5.346  0.3200 -0.3060 -0.9523
  307MOL0     C41376   9.036   5.588   5.000  0.0707  0.6818 -0.3954
  307MOL0     C41377   8.913   5.521   5.022  0.1801  0.0565  0.2665
  307MOL0     H41378   8.468   5.575   4.998  1.3475  0.0479 -0.3957
  307MOL0     H41379   8.230   5.518   5.034 -0.8795 -1.7233 -1.6598
  307MOL0     H41380   8.111   5.126   5.121  1.3085  2.4419 -3.4137
  307MOL0     H41381   8.088   5.170   5.290  1.1304 -3.0856 -1.9784
  307MOL0     H41382   7.878   5.274   5.239 -0.7014  2.1037 -2.7176
  307MOL0     H41383   7.893   5.253   5.065 -1.9969  3.1045  1.4225
  307MOL0     H41384   7.776   5.039   5.130  1.6029 -2.9623 -1.2068
  307MOL0     H41385   7.935   4.998   5.125  1.2700  1.2828  0.4774
  307MOL0     H41386   7.951   5.045   5.389 -0.4084 -0.7036  0.9686
  307MOL0     H41387   7.779   5.075   5.391 -0.5401 -0.8390  0.9614
  307MOL0     H41388   7.931   4.822   5.311  0.1419  1.2747 -2.6270
  307MOL0     H41389   7.860   4.862   5.464  1.2326  3.1557  0.2519
  307MOL0     H41390   7.719   4.829   5.184  1.5641  0.4167  0.8815
  307MOL0     H41391   7.718   4.711   5.314 -0.2721 -0.1064  0.2320
  307MOL0     H41392   7.574   4.976   5.324  0.5914 -0.9677 -0.4614
  307MOL0     H41393   7.497   4.819   5.311 -0.8840 -0.5559 -0.2468
  307MOL0     H41394   7.462   4.906   5.539 -0.1636  0.7422 -0.8000
  307MOL0     H41395   7.625   4.947   5.554 -1.3715  2.8434 -0.1330
  307MOL0     H41396   7.410   4.618   5.514  0.8570 -1.7046 -0.5412
  307MOL0     H41397   7.647   4.337   5.633  0.4521  1.1178 -1.1581
  307MOL0     H41398   7.546   4.386   5.759 -0.9134 -0.4805 -0.7536
  307MOL0     H41399   7.442   4.342   5.473  0.7927  1.3296 -0.5450
  307MOL0     H41400   7.349   4.387   5.617 -1.5843 -1.6444 -0.0353
  307MOL0     H41401   7.417   4.159   5.712 -0.4966  2.6901  1.1927
  307MOL0     H41402   7.521   4.140   5.563  0.9414  5.0285 -2.2756
  307MOL0     H41403   7.295   4.023   5.559  0.6552 -0.6345  2.2843
  307MOL0     H41404   7.319   4.137   5.420 -2.3375  1.0729 -0.0399
  307MOL0     H41405   6.963   4.243   5.640 -0.2841 -0.0723  0.1504
  307MOL0     H41406   6.669   4.296   5.498 -2.2087  0.8722  1.3952
  307MOL0     H41407   6.742   4.343   5.651 -0.9719 -0.0253 -0.3924
  307MOL0     H41408   6.712   4.468   5.520  2.1796  0.6173 -1.6044
  307MOL0     H41409   6.651   4.686   5.128 -0.7916  1.6658 -0.2447
  307MOL0     H41410   6.441   4.772   5.068  2.2745  0.0188 -0.7821
  307MOL0     H41411   5.997   4.680   5.067  1.1030 -1.4485 -1.7142
  307MOL0     H41412   6.056   4.518   5.108 -2.8254  0.5015  1.0123
  307MOL0     H41413   5.910   4.576   5.272  0.4207  0.8243  0.9646
  307MOL0     H41414   6.069   4.577   5.343 -0.4503 -0.2654  0.1300
  307MOL0     H41415   5.934   4.838   5.245 -2.1458 -0.1642  0.9480
  307MOL0     H41416   6.086   4.810   5.341 -0.1813  0.2083 -1.0735
  307MOL0     H41417   5.801   4.749   5.437  0.2629 -0.1202 -0.9021
  307MOL0     H41418   5.943   4.694   5.505 -1.7294 -0.6215  0.6691
  307MOL0     H41419   5.935   4.997   5.450 -0.6178  1.4192  0.8861
  307MOL0     H41420   6.000   4.905   5.589 -1.6024  1.2431  1.7168
  307MOL0     H41421   5.754   4.861   5.666  0.2320  0.1737 -0.2759
  307MOL0     H41422   5.809   5.028   5.678 -3.3333 -0.2368  1.9374
  307MOL0     H41423   5.649   4.915   5.437 -2.5792 -0.1749  0.3280
  307MOL0     H41424   5.702   5.083   5.462  1.5461 -1.1515 -0.2847
  307MOL0     H41425   5.570   5.062   5.681  0.3745 -1.5795 -0.0741
  307MOL0     H41426   5.507   4.911   5.630  1.1645  0.0172  2.5457
  307MOL0     H41427   6.223   4.436   5.235  1.3236 -0.6128  2.5869
  307MOL0     H41428   6.435   4.339   5.303 -1.8947 -1.2622 -0.8909
  307MOL0     H41429   7.059   4.422   5.188  1.5663 -0.0935  0.2542
  307MOL0     H41430   7.230   4.310   5.324 -0.6863 -2.8140 -0.6115
  307MOL0     H41431   8.315   5.165   5.237 -0.9198  2.3689  2.5921
  307MOL0     H41432   8.558   5.214   5.227  0.0403  1.3495 -0.0382
  307MOL0     H41433   8.972   5.422   5.344 -1.4559  2.5691 -0.6993
  307MOL0     H41434   9.194   5.477   5.290 -0.4171  0.0566  0.3966
  307MOL0     H41435   9.255   5.737   5.257 -0.7297  0.8415  0.5072
  307MOL0     H41436   9.368   5.599   5.227 -1.6464 -0.5469 -1.3500
  307MOL0     H41437   9.463   5.833   5.234 -3.1162  1.7738  0.4457
  307MOL0     H41438   9.383   5.882   5.092  1.2141  2.1155  0.5886
  307MOL0     H41439   9.607   5.818   5.036 -0.4364  0.5294 -1.3151
  307MOL0     H41440   9.502   5.690   4.967  2.4364  1.3080 -2.4847
  307MOL0     H41441   9.699   5.595   5.056 -0.2985  0.8392 -1.1558
  307MOL0     H41442   9.556   5.545   5.134 -0.3356 -0.9084  0.3841
  307MOL0     H41443   9.778   5.764   5.421  0.9529 -1.6815 -0.2201
  307MOL0     H41444   9.049   5.649   4.911 -2.5365 -1.3219 -2.3334
  307MOL0     H41445   8.832   5.531   4.950 -1.8173  2.3285  2.6197
  308MOL0     O41446  10.246   3.289   9.358 -0.5134  0.1202  0.8689
  308MOL0     C41447  10.269   3.170   9.388 -0.8188  0.0464  0.2557
  308MOL0     O41448  10.187   3.089   9.464 -0.3513 -0.5233 -0.4022
  308MOL0     C41449  10.063   3.130   9.489  1.0884  0.2028 -0.9995
  308MOL0     C41450  10.026   3.246   9.563  0.5750 -0.0977  0.8320
  308MOL0     C41451   9.886   3.267   9.598 -0.5785 -0.0726  0.3060
  308MOL0     C41452   9.783   3.171   9.557 -0.0631  0.1051 -0.2617
  308MOL0     O41453   9.650   3.173   9.598 -0.3647 -0.3689 -0.1305
  308MOL0     C41454   9.608   3.297   9.657  0.2180  0.4701 -0.6336
  308MOL0     C41455   9.463   3.286   9.686  1.0005 -1.0688 -0.4020
  308MOL0     C41456   9.378   3.287   9.568 -0.0791  0.1490 -0.3411
  308MOL0     C41457   9.409   3.403   9.472 -0.2148 -0.8980 -0.2109
  308MOL0     C41458   9.323   3.408   9.349  0.7180 -0.7320  0.5003
  308MOL0     C41459   9.170   3.436   9.370 -0.0759 -0.2082 -0.1821
  308MOL0     C41460   9.082   3.309   9.387  0.2983  0.5200  0.2916
  308MOL0     C41461   8.937   3.357   9.393  0.6614  0.7977  0.6050
  308MOL0     N41462   8.837   3.249   9.402  0.6011 -0.8502 -0.3353
  308MOL0     C41463   8.809   3.147   9.319  0.4098 -0.1809  0.7185
  308MOL0     C41464   8.716   3.076   9.391  0.6905  0.1662 -0.1250
  308MOL0     C41465   8.645   2.960   9.334  0.3892  0.5025  0.1525
  308MOL0     C41466   8.502   2.938   9.380 -0.6862 -0.2034 -0.1360
  308MOL0     C41467   8.466   2.788   9.415  0.7122 -0.1798 -0.5924
  308MOL0     C41468   8.490   2.695   9.296 -0.3207  0.6381 -0.5152
  308MOL0     O41469   8.415   2.724   9.181 -0.0328 -0.2651 -0.1508
  308MOL0     C41470   8.280   2.689   9.178 -0.4276  0.2942  0.4043
  308MOL0     C41471   8.253   2.563   9.148 -0.1576  0.0767 -0.3728
  308MOL0     C41472   8.125   2.516   9.155  0.3544 -0.2082  0.0253
  308MOL0     C41473   8.103   2.383   9.108  0.8087 -0.2479  0.1156
  308MOL0     C41474   8.012   2.608   9.170 -0.0386 -0.2861  0.3166
  308MOL0     C41475   7.868   2.587   9.140 -0.1158  1.1260 -0.1287
  308MOL0     O41476   7.788   2.697   9.163  0.5017 -0.1872  0.2130
  308MOL0     C41477   7.651   2.688   9.154 -0.4730 -0.3292  0.3438
  308MOL0     C41478   7.574   2.662   9.041 -0.0220  0.7752 -0.3670
  308MOL0     C41479   7.437   2.666   9.041  0.3201  0.2091  0.6019
  308MOL0     C41480   7.368   2.719   9.152  0.5683  0.8376  0.3287
  308MOL0     O41481   7.229   2.742   9.144 -0.1418  0.3596  0.1406
  308MOL0     C41482   7.152   2.682   9.249  0.1681 -0.1399 -0.7925
  308MOL0     C41483   7.007   2.714   9.229  0.4079  0.1258  0.8258
  308MOL0     C41484   6.927   2.675   9.348  0.4648  0.8411 -0.0052
  308MOL0     C41485   6.777   2.648   9.324 -1.0449 -0.5278 -0.5984
  308MOL0     C41486   6.706   2.770   9.255  0.4014  0.7448 -0.0232
  308MOL0     C41487   6.559   2.760   9.267 -0.7901  0.0235  0.0080
  308MOL0     C41488   6.495   2.656   9.168 -0.5032  0.3899 -0.9244
  308MOL0     C41489   6.345   2.654   9.175  0.6376  0.0758 -0.3042
  308MOL0    Cl41490   6.295   2.625   9.341  0.1661  0.0696  0.0915
  308MOL0     C41491   7.447   2.737   9.273 -0.0475  0.0299  0.4901
  308MOL0     C41492   7.582   2.720   9.276 -1.0269 -0.0219  0.0852
  308MOL0     O41493   7.818   2.492   9.084 -0.3334  0.7935  1.1557
  308MOL0     C41494   8.048   2.739   9.216 -1.1459 -0.0896 -0.5404
  308MOL0     C41495   8.182   2.774   9.224 -0.0980 -0.0792  0.7818
  308MOL0     N41496   8.690   3.129   9.515  0.3800 -0.2869  0.1639
  308MOL0     N41497   8.757   3.242   9.507  0.6576  0.5389 -0.2930
  308MOL0     C41498   9.830   3.055   9.491 -0.7458  0.4572 -0.2847
  308MOL0     C41499   9.966   3.037   9.460 -1.0295 -0.6314  0.2536
  308MOL0     C41500  10.401   3.113   9.328  0.2668 -0.1617 -0.1455
  308MOL0     C41501  10.483   3.188   9.243 -0.2840  0.5041 -0.2239
  308MOL0     C41502  10.610   3.142   9.217  0.5490  0.0846 -0.2193
  308MOL0     C41503  10.666   3.021   9.274 -0.1448 -0.6565  0.3366
  308MOL0     O41504  10.796   2.984   9.254 -0.0610 -0.1263  0.8206
  308MOL0     C41505  10.881   3.056   9.165  0.2261 -0.7363 -0.0861
  308MOL0     C41506  10.931   3.193   9.230  0.5720 -0.1718 -0.1441
  308MOL0     C41507  11.020   3.278   9.128  0.3325  0.3369  0.1384
  308MOL0     C41508  11.076   3.404   9.195 -0.4529 -0.6134  0.6133
  308MOL0     C41509  11.181   3.469   9.115 -0.7003 -0.7418 -0.5837
  308MOL0     C41510  11.277   3.533   9.068 -0.1433  0.0667 -0.5298
  308MOL0     C41511  10.585   2.951   9.360  0.4488  0.2242  0.1241
  308MOL0     C41512  10.457   3.002   9.397 -0.0001 -0.9505 -0.0165
  308MOL0     H41513  10.093   3.331   9.576 -1.4340  1.6284  0.3819
  308MOL0     H41514   9.869   3.356   9.657  1.1362  0.0041  0.7211
  308MOL0     H41515   9.651   3.303   9.757  0.4219 -0.3986 -0.6619
  308MOL0     H41516   9.629   3.384   9.593  0.4165 -0.8941 -2.4893
  308MOL0     H41517   9.442   3.187   9.728  2.2011 -2.0244 -1.9462
  308MOL0     H41518   9.419   3.355   9.759 -0.2928  0.9454 -2.9271
  308MOL0     H41519   9.400   3.189   9.524 -0.0703 -0.6502  1.3359
  308MOL0     H41520   9.274   3.291   9.603 -0.1081  1.6724 -0.5250
  308MOL0     H41521   9.404   3.499   9.524  1.7149 -0.4341 -0.8137
  308MOL0     H41522   9.501   3.393   9.414 -1.6666 -0.1709 -2.8514
  308MOL0     H41523   9.361   3.492   9.290 -2.2201  0.7754  0.6020
  308MOL0     H41524   9.334   3.316   9.291 -2.4701 -0.3652 -0.8811
  308MOL0     H41525   9.160   3.510   9.449 -1.7046  1.3125 -1.7144
  308MOL0     H41526   9.127   3.482   9.280 -0.2918 -0.0124  0.0210
  308MOL0     H41527   9.084   3.240   9.302 -0.3536 -2.1107  2.2662
  308MOL0     H41528   9.113   3.261   9.481 -0.5960  2.9846  1.9381
  308MOL0     H41529   8.920   3.407   9.297  1.6099 -0.6210 -0.3450
  308MOL0     H41530   8.924   3.430   9.473 -1.6538  1.6951 -0.4905
  308MOL0     H41531   8.845   3.114   9.222  0.7013 -0.2898  0.8651
  308MOL0     H41532   8.632   2.958   9.226 -1.7829 -0.2835  0.3798
  308MOL0     H41533   8.714   2.877   9.352 -0.9871 -0.7303 -0.0964
  308MOL0     H41534   8.424   2.969   9.310  0.0143 -0.2550 -0.9493
  308MOL0     H41535   8.476   2.990   9.473 -1.5984 -0.2732 -0.3368
  308MOL0     H41536   8.361   2.778   9.443  0.6245  0.7873 -0.5392
  308MOL0     H41537   8.515   2.761   9.509 -0.3881  1.5898  0.5551
  308MOL0     H41538   8.486   2.589   9.326  2.7436  0.6564  0.2794
  308MOL0     H41539   8.597   2.703   9.276  0.0924  0.3798  1.3900
  308MOL0     H41540   8.335   2.498   9.118 -1.7784 -1.8445 -0.8937
  308MOL0     H41541   8.107   2.390   8.998  1.8198 -3.3674 -0.1264
  308MOL0     H41542   8.189   2.323   9.138  0.0726 -1.8284 -0.8131
  308MOL0     H41543   8.013   2.338   9.151  0.3675  1.1467  0.7089
  308MOL0     H41544   7.624   2.629   8.951  0.7584  3.2556 -0.9177
  308MOL0     H41545   7.374   2.637   8.957  1.4997 -1.1084  0.1306
  308MOL0     H41546   7.154   2.572   9.248 -1.3615 -0.2275  1.2723
  308MOL0     H41547   7.184   2.716   9.348 -1.6104  1.3799 -0.7039
  308MOL0     H41548   7.014   2.823   9.223  1.8228 -0.0267 -0.9306
  308MOL0     H41549   6.968   2.670   9.137  1.8937  1.2246 -0.3661
  308MOL0     H41550   6.938   2.759   9.416 -2.4214  0.7759  0.6836
  308MOL0     H41551   6.968   2.586   9.396 -0.6113  0.7295  0.7366
  308MOL0     H41552   6.776   2.554   9.267  3.0235 -1.4989  0.5804
  308MOL0     H41553   6.725   2.628   9.418  0.9137 -2.9515  0.0962
  308MOL0     H41554   6.753   2.776   9.156  0.4548 -3.3689 -0.4073
  308MOL0     H41555   6.739   2.863   9.302  0.7922  1.6040 -1.8998
  308MOL0     H41556   6.542   2.732   9.371  0.3849 -0.5595  0.0570
  308MOL0     H41557   6.513   2.858   9.258  1.8722  1.3370 -0.2942
  308MOL0     H41558   6.537   2.557   9.189 -0.9208  0.1175 -1.3437
  308MOL0     H41559   6.520   2.684   9.065 -2.3753 -0.7423 -1.7422
  308MOL0     H41560   6.300   2.586   9.102  0.8463 -0.9506  0.4968
  308MOL0     H41561   6.313   2.755   9.148 -0.7927 -0.2672  0.0384
  308MOL0     H41562   7.399   2.771   9.364  3.7874  3.4541  1.5094
  308MOL0     H41563   7.646   2.742   9.361 -0.7450 -1.7363  0.3478
  308MOL0     H41564   7.978   2.816   9.248 -1.7324  0.0180 -2.0130
  308MOL0     H41565   8.210   2.869   9.267  0.0129 -0.0740  0.6976
  308MOL0     H41566   9.764   2.972   9.469 -0.1144  0.6243 -3.0656
  308MOL0     H41567  10.004   2.944   9.419  1.5958  0.9217 -1.1225
  308MOL0     H41568  10.447   3.281   9.201  0.0410 -0.2605 -2.3024
  308MOL0     H41569  10.664   3.202   9.144 -0.8059 -0.7409 -1.9731
  308MOL0     H41570  10.975   3.001   9.153  1.2877  1.1838 -1.0818
  308MOL0     H41571  10.841   3.088   9.069  3.3605  0.1960 -1.2084
  308MOL0     H41572  10.988   3.158   9.317  0.5980  3.1881  1.3469
  308MOL0     H41573  10.849   3.256   9.267 -0.1072 -0.8708 -0.4473
  308MOL0     H41574  10.950   3.301   9.048 -0.5267 -1.5913  0.2990
  308MOL0     H41575  11.099   3.210   9.095 -0.5690 -0.4487 -0.4197
  308MOL0     H41576  11.124   3.380   9.291  2.4041 -1.1027 -0.8212
  308MOL0     H41577  10.996   3.476   9.215  0.4080  1.0061 -1.4357
  308MOL0     H41578  11.352   3.591   9.019  0.4311  1.4805  1.8651
  308MOL0     H41579  10.632   2.860   9.396  3.0278  1.0173 -1.0005
  308MOL0     H41580  10.393   2.957   9.472 -2.2007  3.2373  0.9564
  309MOL0     O41581  10.859  11.120   1.850 -0.5529  0.2969  0.3178
  309MOL0     C41582  10.817  11.103   1.739 -0.1367  0.1502 -0.3296
  309MOL0     O41583  10.720  11.175   1.673  0.8720  0.0299  0.3494
  309MOL0     C41584  10.671  11.296   1.720  0.1525 -0.3052 -0.5537
  309MOL0     C41585  10.558  11.339   1.653  0.6686 -0.0753  0.2948
  309MOL0     C41586  10.495  11.457   1.686 -0.6689 -0.0988 -0.5045
  309MOL0     C41587  10.541  11.541   1.789  0.2931  1.8923  0.5868
  309MOL0     O41588  10.467  11.651   1.814 -0.0261 -0.8297 -0.6774
  309MOL0     C41589  10.529  11.765   1.761 -0.0704 -0.4201 -0.5160
  309MOL0     C41590  10.456  11.891   1.807 -0.1131 -0.2441  0.5905
  309MOL0     C41591  10.318  11.913   1.744  0.7905 -0.8837 -0.2242
  309MOL0     C41592  10.206  11.929   1.847  0.1789 -0.6358 -0.7262
  309MOL0     C41593  10.063  11.957   1.784 -0.3942 -0.0419 -0.1067
  309MOL0     C41594  10.004  11.847   1.692 -0.3357 -0.2131 -0.4960
  309MOL0     C41595   9.974  11.720   1.783 -0.6666  0.1211  0.6768
  309MOL0     C41596   9.873  11.757   1.894  0.2944  0.3232  0.0759
  309MOL0     N41597   9.784  11.649   1.945  0.5733  0.2420 -0.1495
  309MOL0     C41598   9.821  11.545   2.033  0.2304  0.6616 -0.1742
  309MOL0     C41599   9.722  11.455   2.017 -0.4708  0.4369 -0.1381
  309MOL0     C41600   9.722  11.326   2.097  0.3675 -0.1616  1.1129
  309MOL0     C41601   9.622  11.335   2.214 -0.6560  0.1448  0.4541
  309MOL0     C41602   9.634  11.215   2.312 -0.1286 -0.3088  0.8289
  309MOL0     C41603   9.526  11.227   2.416  0.3867  0.3082 -0.3156
  309MOL0     O41604   9.399  11.190   2.370  0.0532  0.4750  0.0165
  309MOL0     C41605   9.288  11.211   2.450  0.9491 -0.6112  0.2996
  309MOL0     C41606   9.164  11.217   2.394  0.5279 -0.3458  0.6028
  309MOL0     C41607   9.045  11.242   2.467 -0.4886 -1.0001  0.2341
  309MOL0     C41608   8.911  11.253   2.393  0.4678 -0.3460  0.4654
  309MOL0     C41609   9.050  11.244   2.608  0.1199 -0.6693 -0.9460
  309MOL0     C41610   8.940  11.228   2.698 -0.1849  0.0103 -0.4245
  309MOL0     O41611   8.855  11.131   2.658 -0.0419 -0.3028 -0.5681
  309MOL0     C41612   8.745  11.097   2.727 -0.1355  0.5477 -0.4110
  309MOL0     C41613   8.672  11.011   2.650  0.1416  0.5072 -0.5947
  309MOL0     C41614   8.566  10.950   2.695  0.8723 -0.4139 -0.4622
  309MOL0     C41615   8.538  10.952   2.832  0.4074  1.1880  0.6779
  309MOL0     O41616   8.431  10.866   2.865 -0.0458 -0.1671  1.0486
  309MOL0     C41617   8.404  10.834   3.000  0.8797 -0.0551  0.6732
  309MOL0     C41618   8.342  10.692   2.999 -0.1278  0.0487  0.3188
  309MOL0     C41619   8.192  10.699   2.947  0.1551 -0.1625  0.4907
  309MOL0     C41620   8.119  10.566   2.976 -0.1657  0.5602 -0.4147
  309MOL0     C41621   7.974  10.573   2.920  0.0647  0.2682  0.7491
  309MOL0     C41622   7.920  10.431   2.914  0.3327 -0.3628  0.6975
  309MOL0     C41623   7.763  10.433   2.914 -0.6818 -0.3413  0.1537
  309MOL0     C41624   7.714  10.295   2.952  0.6235 -0.2664  0.8675
  309MOL0    Cl41625   7.539  10.309   2.964 -0.4175  0.3041  0.0534
  309MOL0     C41626   8.592  11.055   2.914 -0.4890  0.2144  0.4340
  309MOL0     C41627   8.698  11.132   2.856  0.0918  1.0724 -0.0119
  309MOL0     O41628   8.938  11.287   2.803  0.2849  0.0530  0.0994
  309MOL0     C41629   9.175  11.249   2.662 -0.1833 -0.3511  0.8108
  309MOL0     C41630   9.290  11.244   2.588 -0.8017  0.1615  0.4574
  309MOL0     N41631   9.635  11.487   1.921 -0.1945  0.4263 -0.2554
  309MOL0     N41632   9.674  11.609   1.875 -0.7421  0.4527  0.0262
  309MOL0     C41633  10.646  11.494   1.868  0.2271 -0.2361 -0.2984
  309MOL0     C41634  10.712  11.377   1.829  0.6823 -0.2332 -0.7535
  309MOL0     C41635  10.881  10.992   1.662 -0.5885 -0.0690  1.0996
  309MOL0     C41636  10.806  10.933   1.554  0.1550 -0.3768 -0.6400
  309MOL0     C41637  10.863  10.825   1.474  0.7478  0.5928  0.1577
  309MOL0     C41638  10.995  10.788   1.489 -0.1528  0.3001 -0.5296
  309MOL0     O41639  11.039  10.691   1.402  0.4354 -0.5758  0.4744
  309MOL0     C41640  11.168  10.626   1.413  0.1646 -0.3806 -0.3395
  309MOL0     C41641  11.169  10.533   1.531  0.2622  0.0664 -0.0694
  309MOL0     C41642  11.051  10.425   1.510  0.6696 -0.1709  0.1091
  309MOL0     C41643  11.072  10.302   1.596 -0.2467  1.1327  0.7030
  309MOL0     C41644  10.975  10.192   1.570  0.1433 -0.0117 -0.3945
  309MOL0     C41645  10.906  10.095   1.547 -0.3264  0.0252 -0.5567
  309MOL0     C41646  11.073  10.849   1.590 -0.0042  0.0743 -0.2668
  309MOL0     C41647  11.023  10.954   1.675  0.8958 -0.6199  0.2789
  309MOL0     H41648  10.518  11.273   1.576  1.1139  1.0257 -0.9227
  309MOL0     H41649  10.397  11.478   1.646 -0.3449 -2.9755 -3.1500
  309MOL0     H41650  10.632  11.770   1.799 -0.1249 -3.1387  0.1824
  309MOL0     H41651  10.542  11.755   1.653 -1.6513  0.3483 -0.8086
  309MOL0     H41652  10.451  11.893   1.916 -0.6428  1.1218  0.5481
  309MOL0     H41653  10.521  11.969   1.766 -1.4050 -0.8581 -2.9660
  309MOL0     H41654  10.319  11.997   1.674 -3.0742 -1.7474 -1.5148
  309MOL0     H41655  10.305  11.824   1.682  0.4208 -0.9390 -0.0639
  309MOL0     H41656  10.193  11.843   1.913 -0.1876 -1.3794 -1.7518
  309MOL0     H41657  10.232  12.016   1.909  0.3348  0.3780 -2.1509
  309MOL0     H41658   9.995  11.982   1.865  1.1622  1.8308  0.7256
  309MOL0     H41659  10.069  12.042   1.714  1.0339 -0.2080 -0.2260
  309MOL0     H41660   9.920  11.882   1.631 -0.7784  1.0734  0.8071
  309MOL0     H41661  10.086  11.815   1.627  0.5558  0.0075  0.4862
  309MOL0     H41662   9.938  11.643   1.714 -0.8531  0.3205  0.5516
  309MOL0     H41663  10.065  11.680   1.830  0.4075  1.1644 -0.4506
  309MOL0     H41664   9.802  11.831   1.854  1.5196  1.8605  0.6472
  309MOL0     H41665   9.926  11.805   1.976  0.9209 -1.1079  0.5278
  309MOL0     H41666   9.905  11.527   2.099 -0.8552  0.3129  1.1816
  309MOL0     H41667   9.677  11.248   2.034  0.8616 -1.7160  2.6051
  309MOL0     H41668   9.819  11.286   2.129 -0.7223 -2.9652  1.1959
  309MOL0     H41669   9.516  11.350   2.190 -0.6578 -1.2940 -0.5380
  309MOL0     H41670   9.650  11.421   2.276  1.4252 -0.1413 -0.0189
  309MOL0     H41671   9.731  11.209   2.362 -0.2392 -3.6589  0.8335
  309MOL0     H41672   9.620  11.121   2.258 -0.5970  1.3865 -2.2662
  309MOL0     H41673   9.531  11.323   2.469  0.6281 -1.2225  2.6646
  309MOL0     H41674   9.555  11.157   2.494 -1.2083 -1.5975 -1.3531
  309MOL0     H41675   9.161  11.202   2.286 -0.0986 -1.2560  0.7376
  309MOL0     H41676   8.875  11.151   2.409 -0.2554  0.2091  2.7372
  309MOL0     H41677   8.840  11.326   2.432  2.4949  3.0671 -1.7363
  309MOL0     H41678   8.923  11.263   2.285 -1.3984 -2.1325  0.0238
  309MOL0     H41679   8.707  10.991   2.549 -5.3818 -0.4876 -2.6232
  309MOL0     H41680   8.515  10.886   2.624 -0.5396 -0.4496  0.5377
  309MOL0     H41681   8.499  10.832   3.055  3.2015 -0.5894 -3.0359
  309MOL0     H41682   8.329  10.893   3.054 -2.6735 -4.6331  1.3694
  309MOL0     H41683   8.400  10.633   2.927 -1.4823 -0.7753 -0.1249
  309MOL0     H41684   8.338  10.650   3.100  1.0150 -3.0085 -0.7726
  309MOL0     H41685   8.187  10.710   2.838  3.7961  0.6106  0.2455
  309MOL0     H41686   8.138  10.775   3.002 -0.7583 -0.8456  0.5551
  309MOL0     H41687   8.162  10.477   2.928 -2.5107  0.3390 -2.3225
  309MOL0     H41688   8.118  10.542   3.083 -0.5342  0.8492 -0.3542
  309MOL0     H41689   7.979  10.608   2.817  0.8501 -2.7378 -0.3362
  309MOL0     H41690   7.913  10.635   2.986  2.2632  0.5323  2.6822
  309MOL0     H41691   7.960  10.372   2.831 -2.0908  1.0763 -1.6826
  309MOL0     H41692   7.943  10.377   3.006 -2.4642 -0.5157  1.3933
  309MOL0     H41693   7.717  10.472   2.822 -2.4159  0.9628  1.4981
  309MOL0     H41694   7.729  10.511   2.984 -0.3466  1.2769 -1.4014
  309MOL0     H41695   7.753  10.258   3.047  0.4523 -1.6420  0.4267
  309MOL0     H41696   7.745  10.231   2.869  0.1596 -0.1653  0.6083
  309MOL0     H41697   8.560  11.078   3.015  1.6780  1.9832  0.7866
  309MOL0     H41698   8.752  11.207   2.913 -0.8983 -0.3340  2.9245
  309MOL0     H41699   9.174  11.254   2.771 -1.9730  2.2349  0.7724
  309MOL0     H41700   9.381  11.248   2.646 -2.2309 -0.1429  2.8439
  309MOL0     H41701  10.681  11.562   1.945 -1.4861 -0.1384  0.4365
  309MOL0     H41702  10.797  11.344   1.888  3.4929  1.1344 -3.7545
  309MOL0     H41703  10.708  10.969   1.523  0.1770  0.3867  0.1462
  309MOL0     H41704  10.799  10.782   1.398  1.0120  1.0579 -0.3303
  309MOL0     H41705  11.185  10.566   1.323  2.3769  1.3486 -1.1960
  309MOL0     H41706  11.241  10.708   1.409 -0.8651  0.5036 -2.5286
  309MOL0     H41707  11.158  10.588   1.625  1.1386  1.3142 -0.6699
  309MOL0     H41708  11.265  10.479   1.526  0.0196 -0.4512  0.6884
  309MOL0     H41709  11.041  10.392   1.406 -5.2817 -1.3021  0.7039
  309MOL0     H41710  10.954  10.466   1.538 -0.2627 -0.2044 -2.7690
  309MOL0     H41711  11.077  10.333   1.701 -0.4811  1.5770  0.5851
  309MOL0     H41712  11.170  10.259   1.571 -0.8918 -0.5190  0.8862
  309MOL0     H41713  10.842  10.009   1.544 -3.6029  2.1268  1.9784
  309MOL0     H41714  11.178  10.825   1.602  0.1934  0.1506 -1.7180
  309MOL0     H41715  11.092  11.010   1.737 -0.3905  0.2115  0.9993
  310MOL0     O41716   0.817   0.518   6.314 -0.3007 -0.3519  1.1785
  310MOL0     C41717   0.913   0.568   6.375 -0.3023 -0.8531 -0.7866
  310MOL0     O41718   0.902   0.636   6.500 -0.4904  0.0187  0.5531
  310MOL0     C41719   0.769   0.657   6.534  0.8562  0.1486  0.6049
  310MOL0     C41720   0.694   0.559   6.596  0.0887  0.3968 -0.3644
  310MOL0     C41721   0.565   0.585   6.639 -0.5129  0.6313  1.0602
  310MOL0     C41722   0.515   0.713   6.621  1.0417  0.1726 -0.7746
  310MOL0     O41723   0.376   0.717   6.635  0.3195 -0.5832  0.1506
  310MOL0     C41724   0.303   0.802   6.534 -1.2400 -0.0681 -0.3223
  310MOL0     C41725   0.158   0.820   6.565  0.4627 -0.4334 -0.3521
  310MOL0     C41726   0.090   0.683   6.590  0.2117 -0.3651 -0.5559
  310MOL0     C41727  -0.054   0.683   6.647  0.0948 -1.2217  0.4575
  310MOL0     C41728  -0.157   0.730   6.531 -0.3030 -0.1486  0.6195
  310MOL0     C41729  -0.305   0.756   6.581 -1.0614 -1.1153 -0.1101
  310MOL0     C41730  -0.380   0.840   6.473 -0.3952 -0.5032 -1.1140
  310MOL0     C41731  -0.483   0.915   6.544  0.1961 -0.3125  0.0964
  310MOL0     N41732  -0.602   0.833   6.587 -0.5882 -0.1737  1.0460
  310MOL0     C41733  -0.695   0.773   6.501 -0.7742  0.2696 -0.0936
  310MOL0     C41734  -0.772   0.715   6.603  0.1433 -0.6961 -0.2530
  310MOL0     C41735  -0.901   0.634   6.576 -0.3118 -0.1976 -0.5127
  310MOL0     C41736  -0.985   0.677   6.446  0.1077 -0.5554 -1.2364
  310MOL0     C41737  -1.092   0.571   6.433  0.0251 -0.1233 -0.7577
  310MOL0     C41738  -1.211   0.624   6.504  0.6171  0.1509 -0.0124
  310MOL0     O41739  -1.284   0.505   6.542 -0.0809 -0.4710 -0.2835
  310MOL0     C41740  -1.416   0.538   6.577  0.0897  0.0587 -0.0927
  310MOL0     C41741  -1.481   0.659   6.594 -0.5515 -0.6639  0.3872
  310MOL0     C41742  -1.618   0.668   6.618 -0.7904 -0.3867 -0.3546
  310MOL0     C41743  -1.669   0.808   6.602  0.4099 -0.4634 -0.4301
  310MOL0     C41744  -1.699   0.552   6.638  0.8426 -0.3841  0.5427
  310MOL0     C41745  -1.843   0.563   6.675  0.1087  0.5207 -0.3318
  310MOL0     O41746  -1.925   0.456   6.650  0.5109  0.3235  0.2002
  310MOL0     C41747  -2.047   0.440   6.722 -0.5440 -0.1609  0.1879
  310MOL0     C41748  -2.080   0.498   6.843  1.6743  0.1784 -0.3273
  310MOL0     C41749  -2.208   0.482   6.908 -0.4384  0.8312  0.0918
  310MOL0     C41750  -2.305   0.394   6.835 -0.4733 -0.2160 -0.1503
  310MOL0     O41751  -2.420   0.351   6.892  0.0276 -0.4204  0.2382
  310MOL0     C41752  -2.532   0.373   6.810  0.4285 -0.3869  0.5779
  310MOL0     C41753  -2.663   0.329   6.883  1.0704 -0.4451  0.4260
  310MOL0     C41754  -2.711   0.428   6.988 -0.0166 -0.0539 -0.2754
  310MOL0     C41755  -2.746   0.571   6.937 -0.3202  0.0686  0.5708
  310MOL0     C41756  -2.804   0.657   7.039  0.2321  0.3448  0.0563
  310MOL0     C41757  -2.718   0.693   7.165 -0.7543  0.2289  0.2076
  310MOL0     C41758  -2.784   0.744   7.284  0.0984 -0.4011  0.0775
  310MOL0     C41759  -2.712   0.724   7.418 -0.4003  0.7931 -0.6217
  310MOL0    Cl41760  -2.551   0.806   7.425  0.1224 -0.6755 -0.0471
  310MOL0     C41761  -2.267   0.344   6.709  0.0187  0.3381 -0.3826
  310MOL0     C41762  -2.149   0.373   6.650 -0.0832 -0.3083  0.1678
  310MOL0     O41763  -1.878   0.662   6.737  0.2529 -0.0654 -0.1319
  310MOL0     C41764  -1.631   0.426   6.624  0.0572 -0.0951 -0.2320
  310MOL0     C41765  -1.496   0.424   6.593  0.1929  0.0920 -0.6191
  310MOL0     N41766  -0.731   0.754   6.731  0.1150  0.3911 -0.0822
  310MOL0     N41767  -0.624   0.815   6.716 -0.8483 -0.0119  0.4341
  310MOL0     C41768   0.593   0.818   6.573 -0.1116 -0.1692 -0.1557
  310MOL0     C41769   0.715   0.786   6.522 -0.3084  0.7883  0.0549
  310MOL0     C41770   1.048   0.557   6.316  1.1202 -0.1749 -0.3373
  310MOL0     C41771   1.069   0.488   6.196  0.7450 -0.4628 -0.1150
  310MOL0     C41772   1.189   0.478   6.143  0.3511 -0.4141  0.2870
  310MOL0     C41773   1.299   0.522   6.217 -0.2880 -1.2716  0.0316
  310MOL0     O41774   1.429   0.490   6.162 -0.2211 -0.7358  0.0240
  310MOL0     C41775   1.550   0.523   6.233 -0.4539 -0.7547  0.6634
  310MOL0     C41776   1.586   0.450   6.356  0.3099  0.6803  0.4514
  310MOL0     C41777   1.622   0.296   6.333 -0.5451  0.5319  0.0937
  310MOL0     C41778   1.768   0.265   6.284 -0.1065 -0.0970  0.7679
  310MOL0     C41779   1.863   0.308   6.382  0.2323 -1.3492  0.4515
  310MOL0     C41780   1.949   0.322   6.460  0.3892  0.4193  0.3719
  310MOL0     C41781   1.285   0.591   6.335 -0.4823 -0.4680 -0.5483
  310MOL0     C41782   1.156   0.606   6.392 -0.5037 -0.4553  0.2635
  310MOL0     H41783   0.731   0.457   6.591 -1.9352 -0.4509  0.6817
  310MOL0     H41784   0.498   0.502   6.659  0.8724 -1.1766 -1.1636
  310MOL0     H41785   0.355   0.898   6.535  3.2760 -2.2383 -1.5560
  310MOL0     H41786   0.307   0.755   6.435  0.1213 -1.0798  0.1726
  310MOL0     H41787   0.138   0.893   6.644 -3.8856 -1.8731  0.1559
  310MOL0     H41788   0.120   0.859   6.469 -0.0643 -3.7008 -1.6056
  310MOL0     H41789   0.093   0.615   6.504 -0.9716  1.8122 -2.4331
  310MOL0     H41790   0.157   0.645   6.668  0.2312  2.2095  0.7865
  310MOL0     H41791  -0.070   0.584   6.690  2.4928 -0.5746  3.2451
  310MOL0     H41792  -0.060   0.758   6.727  0.4745  1.0827 -1.5735
  310MOL0     H41793  -0.112   0.822   6.493  2.0449 -0.9675  1.2125
  310MOL0     H41794  -0.163   0.657   6.449 -0.3858  1.3136 -0.7230
  310MOL0     H41795  -0.365   0.669   6.611 -2.2815  0.3807  2.0698
  310MOL0     H41796  -0.293   0.815   6.672  1.0089  1.5670 -1.9537
  310MOL0     H41797  -0.312   0.906   6.419 -0.1426 -0.6076 -0.9271
  310MOL0     H41798  -0.424   0.775   6.397 -1.3349  0.4688 -1.4308
  310MOL0     H41799  -0.522   0.987   6.472 -2.2376  0.1872  1.7772
  310MOL0     H41800  -0.451   0.972   6.632  1.2259  0.1070 -0.5454
  310MOL0     H41801  -0.706   0.751   6.396 -1.1188  1.2389 -0.2682
  310MOL0     H41802  -0.867   0.531   6.571 -1.3853 -0.5710 -0.2650
  310MOL0     H41803  -0.965   0.648   6.664 -0.8187  1.6075 -1.1227
  310MOL0     H41804  -0.919   0.657   6.361 -0.4769 -3.8525 -1.0612
  310MOL0     H41805  -1.022   0.780   6.449 -1.9504 -1.2752 -0.4816
  310MOL0     H41806  -1.056   0.472   6.462 -0.3604 -0.1018 -0.1823
  310MOL0     H41807  -1.116   0.566   6.326  0.2416  3.5861 -1.1280
  310MOL0     H41808  -1.266   0.701   6.450 -2.0058  1.4508  4.0289
  310MOL0     H41809  -1.181   0.660   6.603 -1.9795  1.6102  0.3356
  310MOL0     H41810  -1.419   0.746   6.578 -0.6281 -0.5144  0.8726
  310MOL0     H41811  -1.674   0.843   6.706  0.6558 -2.7787  0.4088
  310MOL0     H41812  -1.606   0.871   6.539 -0.7199  1.2661  0.0863
  310MOL0     H41813  -1.770   0.813   6.560  0.6343 -2.9397 -1.4363
  310MOL0     H41814  -2.004   0.555   6.896  1.5562 -0.6767  0.8089
  310MOL0     H41815  -2.228   0.513   7.010 -1.5463 -0.2964  0.2422
  310MOL0     H41816  -2.535   0.478   6.778  0.5012 -1.0882 -1.9069
  310MOL0     H41817  -2.524   0.307   6.723  1.1174 -2.8237  2.3812
  310MOL0     H41818  -2.744   0.316   6.811 -1.7374 -0.8432  3.4462
  310MOL0     H41819  -2.650   0.233   6.932  1.5220 -1.2463 -1.1700
  310MOL0     H41820  -2.626   0.427   7.058 -1.2835  0.7016  1.3250
  310MOL0     H41821  -2.806   0.399   7.033  0.3539  0.7398  1.0712
  310MOL0     H41822  -2.662   0.633   6.903 -0.9665  0.8703  0.3925
  310MOL0     H41823  -2.815   0.568   6.852 -1.7124  3.6815  1.3710
  310MOL0     H41824  -2.901   0.621   7.074 -0.7229  3.1482  0.5595
  310MOL0     H41825  -2.820   0.750   6.984  2.3954  1.3850  1.0535
  310MOL0     H41826  -2.671   0.602   7.202  0.4226  1.6231  2.4082
  310MOL0     H41827  -2.638   0.761   7.133 -1.0386  0.0590 -0.9044
  310MOL0     H41828  -2.876   0.687   7.300 -1.8550  2.1949 -1.2808
  310MOL0     H41829  -2.822   0.845   7.272  1.9887  0.2227 -1.0210
  310MOL0     H41830  -2.689   0.619   7.437  0.3752  0.8001 -1.4379
  310MOL0     H41831  -2.770   0.770   7.498  1.4572  2.1690  0.0204
  310MOL0     H41832  -2.327   0.281   6.644  2.8832 -0.7416 -2.2056
  310MOL0     H41833  -2.123   0.333   6.553 -0.0395  1.1959 -0.4645
  310MOL0     H41834  -1.683   0.332   6.640 -0.7029  0.0389 -1.8061
  310MOL0     H41835  -1.441   0.331   6.583  1.2650  0.2187  2.9124
  310MOL0     H41836   0.568   0.923   6.560 -0.8978 -0.4662 -1.0797
  310MOL0     H41837   0.782   0.858   6.476 -0.5782  0.7557 -0.3898
  310MOL0     H41838   0.981   0.446   6.148 -0.5977  1.2865  0.7142
  310MOL0     H41839   1.203   0.432   6.046  1.6026 -0.6896  0.5767
  310MOL0     H41840   1.631   0.498   6.164  0.8481  1.7237  1.1543
  310MOL0     H41841   1.556   0.632   6.243 -1.2750 -0.1111 -3.6863
  310MOL0     H41842   1.507   0.457   6.432  0.8251  2.5804  0.8527
  310MOL0     H41843   1.675   0.496   6.400  2.2413 -2.4140  0.0592
  310MOL0     H41844   1.557   0.253   6.256  0.0587 -0.2211 -0.0078
  310MOL0     H41845   1.609   0.237   6.425 -0.2474 -2.2960 -1.5686
  310MOL0     H41846   1.791   0.316   6.189 -2.5627  1.1139  0.7250
  310MOL0     H41847   1.776   0.157   6.269 -0.6887 -0.3555  2.1873
  310MOL0     H41848   2.043   0.311   6.510  0.3646 -0.4119  0.2426
  310MOL0     H41849   1.369   0.617   6.398  0.2785  0.8372 -2.0495
  310MOL0     H41850   1.152   0.654   6.489  3.8377  0.7484  0.0532
  311MOL0     O41851  10.013   4.466   0.237 -0.3944 -0.4173  0.2213
  311MOL0     C41852  10.065   4.355   0.223  0.0202  0.7151  0.4268
  311MOL0     O41853  10.017   4.239   0.294 -0.3289 -0.6122  0.0853
  311MOL0     C41854   9.906   4.270   0.379 -0.6536 -0.1990 -0.0128
  311MOL0     C41855   9.901   4.334   0.507 -0.9043  0.1301  0.1078
  311MOL0     C41856   9.784   4.331   0.587  0.1795 -0.4397  0.2919
  311MOL0     C41857   9.667   4.284   0.536  0.2339 -0.3643  1.5653
  311MOL0     O41858   9.542   4.302   0.598 -0.8584 -0.2298 -0.6901
  311MOL0     C41859   9.424   4.241   0.551 -0.1801  0.6820 -0.0150
  311MOL0     C41860   9.322   4.279   0.653  0.6053  0.6264  0.1626
  311MOL0     C41861   9.182   4.242   0.606  0.7325 -0.1065  0.2111
  311MOL0     C41862   9.083   4.271   0.727 -0.1382  0.0215  0.6851
  311MOL0     C41863   8.933   4.268   0.680 -0.3668 -0.3057  0.2152
  311MOL0     C41864   8.895   4.131   0.627  0.2408 -0.3604 -0.1461
  311MOL0     C41865   8.749   4.114   0.593 -0.1260 -0.8779 -0.1817
  311MOL0     C41866   8.711   4.175   0.447  0.2668 -0.6120 -0.4294
  311MOL0     N41867   8.570   4.179   0.433  0.7040 -0.2491 -0.2476
  311MOL0     C41868   8.488   4.070   0.423  0.5892  0.0036 -0.0058
  311MOL0     C41869   8.363   4.119   0.418 -0.6856 -0.5409 -0.9631
  311MOL0     C41870   8.261   4.020   0.407  0.1127  1.0371 -0.0795
  311MOL0     C41871   8.161   4.068   0.293  1.1022  0.0429 -0.3601
  311MOL0     C41872   8.028   3.991   0.274  0.1563  0.4235  0.6989
  311MOL0     C41873   7.936   4.005   0.393  0.4414 -0.1591  0.2968
  311MOL0     O41874   7.807   3.949   0.348 -0.0700  0.4670  0.2836
  311MOL0     C41875   7.698   3.981   0.422 -0.0738 -0.5699 -0.1586
  311MOL0     C41876   7.578   3.953   0.362 -0.1189  0.1066  0.1963
  311MOL0     C41877   7.459   3.956   0.441  0.1601  0.2802 -0.2393
  311MOL0     C41878   7.336   3.905   0.378 -0.4095  0.2956  0.8842
  311MOL0     C41879   7.456   3.998   0.576  0.2397 -1.0999  0.4323
  311MOL0     C41880   7.340   3.994   0.677 -0.0255  0.2463 -0.0333
  311MOL0     O41881   7.215   3.971   0.630 -0.4015 -0.7474 -0.3078
  311MOL0     C41882   7.103   3.995   0.698 -0.7989  0.5969 -0.1319
  311MOL0     C41883   6.987   4.026   0.634  0.4095  0.0313 -0.0876
  311MOL0     C41884   6.868   4.041   0.704  1.4137 -0.0601 -0.0965
  311MOL0     C41885   6.858   4.024   0.844 -0.2159 -0.1869  0.6304
  311MOL0     O41886   6.742   4.045   0.918 -0.6294  0.5067  0.3823
  311MOL0     C41887   6.618   4.036   0.838  1.1069  0.7324 -0.1535
  311MOL0     C41888   6.497   4.010   0.937  0.1081  0.0805 -0.3973
  311MOL0     C41889   6.514   3.869   0.985  0.4963 -0.1915 -0.7255
  311MOL0     C41890   6.392   3.839   1.076 -0.6080  0.8464  0.1466
  311MOL0     C41891   6.428   3.710   1.153 -0.6088  0.8253  0.6060
  311MOL0     C41892   6.316   3.668   1.257 -0.8227 -0.7451 -0.3069
  311MOL0     C41893   6.186   3.625   1.195 -0.5244 -0.2176  0.5773
  311MOL0     C41894   6.096   3.555   1.301 -0.5068  0.0244  0.1321
  311MOL0    Cl41895   5.948   3.521   1.205  0.2851  0.3533 -0.1553
  311MOL0     C41896   6.964   3.984   0.910 -0.2763 -0.1620 -0.2968
  311MOL0     C41897   7.089   3.968   0.841  0.6373 -0.7106 -0.0458
  311MOL0     O41898   7.379   4.017   0.791  0.4251 -1.0112 -0.2922
  311MOL0     C41899   7.578   4.048   0.627 -0.6229  0.8131  0.8535
  311MOL0     C41900   7.695   4.037   0.550  0.0907 -0.0306  0.1310
  311MOL0     N41901   8.379   4.253   0.385 -0.7909  0.3848  0.4312
  311MOL0     N41902   8.502   4.292   0.412 -0.0715 -0.2175 -0.6793
  311MOL0     C41903   9.670   4.229   0.403  0.7841  0.5061  0.1453
  311MOL0     C41904   9.787   4.219   0.334 -0.3489 -0.3618  0.4585
  311MOL0     C41905  10.187   4.333   0.138 -0.5413 -0.9668 -0.6044
  311MOL0     C41906  10.234   4.419   0.035 -0.7807 -0.0475 -0.1905
  311MOL0     C41907  10.361   4.408  -0.023  0.0485 -0.0306  0.1493
  311MOL0     C41908  10.446   4.305   0.013 -0.0792 -0.4119  0.7507
  311MOL0     O41909  10.557   4.262  -0.052 -0.6674  0.5044 -0.4042
  311MOL0     C41910  10.596   4.334  -0.171  1.0265  0.6031  0.2965
  311MOL0     C41911  10.730   4.287  -0.224 -0.7535 -0.2880 -0.0227
  311MOL0     C41912  10.843   4.340  -0.139  0.6979 -0.4209  0.0605
  311MOL0     C41913  10.982   4.307  -0.204 -0.2212  0.0889 -0.2081
  311MOL0     C41914  10.995   4.379  -0.334 -0.0720  0.4032 -0.0972
  311MOL0     C41915  11.038   4.442  -0.428 -0.3892  0.1395 -0.1356
  311MOL0     C41916  10.394   4.216   0.099  0.3901 -0.6261  0.0844
  311MOL0     C41917  10.271   4.228   0.173 -0.8889  0.2365 -0.4248
  311MOL0     H41918   9.989   4.363   0.563  1.0723 -1.2022 -2.0891
  311MOL0     H41919   9.782   4.387   0.679 -1.4302 -2.3492  1.4975
  311MOL0     H41920   9.395   4.287   0.457 -0.3359  4.0879  1.5333
  311MOL0     H41921   9.436   4.132   0.547  0.1626  0.7665 -2.1650
  311MOL0     H41922   9.346   4.237   0.751  1.7865 -3.1327 -1.5463
  311MOL0     H41923   9.329   4.388   0.661  0.1754  0.9462 -2.6569
  311MOL0     H41924   9.154   4.304   0.521  3.6756 -0.7014 -1.3169
  311MOL0     H41925   9.177   4.138   0.572 -0.5504  0.3145 -0.9849
  311MOL0     H41926   9.089   4.200   0.809 -0.9187 -0.9005 -0.0181
  311MOL0     H41927   9.106   4.373   0.758  1.6233  0.2808 -1.2146
  311MOL0     H41928   8.861   4.289   0.759 -1.2853 -1.6463 -0.2256
  311MOL0     H41929   8.925   4.343   0.601 -2.1409 -0.0627  0.5808
  311MOL0     H41930   8.962   4.094   0.548 -0.0392 -2.8759  0.7097
  311MOL0     H41931   8.910   4.061   0.710 -1.1894 -0.5184  0.0102
  311MOL0     H41932   8.743   4.005   0.584  0.5382 -0.8794 -0.7397
  311MOL0     H41933   8.682   4.160   0.665 -0.2854 -2.2090  0.5527
  311MOL0     H41934   8.758   4.123   0.363  0.5862  1.3438 -1.5291
  311MOL0     H41935   8.743   4.280   0.448 -1.9202  0.0962 -0.2493
  311MOL0     H41936   8.522   3.968   0.437  0.3030  0.0168  0.7867
  311MOL0     H41937   8.296   3.916   0.394 -2.2466  0.1714  0.0570
  311MOL0     H41938   8.211   4.014   0.504  3.4659  1.1529  1.8076
  311MOL0     H41939   8.217   4.061   0.199 -0.4926  0.0708 -1.3431
  311MOL0     H41940   8.139   4.174   0.300 -4.0866 -0.9105  2.3068
  311MOL0     H41941   8.051   3.886   0.253  2.7718  1.5405 -3.3357
  311MOL0     H41942   7.982   4.022   0.179  0.6516  0.0920  0.3457
  311MOL0     H41943   7.927   4.111   0.420 -1.2554  0.4439 -2.2855
  311MOL0     H41944   7.959   3.946   0.482 -1.6981 -2.1373 -0.3636
  311MOL0     H41945   7.568   3.906   0.264  0.0261 -0.4363  0.4355
  311MOL0     H41946   7.279   3.835   0.440 -0.6298 -1.6607 -1.3899
  311MOL0     H41947   7.276   3.994   0.354 -1.8166 -0.5874  0.9813
  311MOL0     H41948   7.359   3.848   0.287 -1.0029 -0.2688  1.0800
  311MOL0     H41949   6.996   4.050   0.529  4.9089  1.1712  0.3600
  311MOL0     H41950   6.782   4.079   0.650  2.9146  1.6331 -1.4326
  311MOL0     H41951   6.588   4.129   0.790 -2.4973  0.4868  1.2629
  311MOL0     H41952   6.613   3.960   0.759  0.9977  1.1636 -0.5607
  311MOL0     H41953   6.503   4.080   1.021  2.3303 -3.5940  2.8533
  311MOL0     H41954   6.400   4.010   0.886  0.3758 -0.0371 -0.9067
  311MOL0     H41955   6.600   3.865   1.052 -0.8999 -1.5669  1.0633
  311MOL0     H41956   6.535   3.801   0.902 -1.9582  0.1912 -1.7342
  311MOL0     H41957   6.376   3.926   1.140  1.0440  1.0513  0.3330
  311MOL0     H41958   6.307   3.827   1.008  0.2077  0.6534 -0.8627
  311MOL0     H41959   6.517   3.735   1.210 -0.9505  3.1958  0.1873
  311MOL0     H41960   6.447   3.636   1.074  3.0387  0.8406  1.2907
  311MOL0     H41961   6.365   3.580   1.299  1.3051 -0.5945 -2.2628
  311MOL0     H41962   6.314   3.752   1.326  0.4730  1.0791 -2.3802
  311MOL0     H41963   6.196   3.549   1.116  0.1202  1.4649 -1.0418
  311MOL0     H41964   6.141   3.708   1.139 -0.4901 -1.1358 -0.8738
  311MOL0     H41965   6.067   3.624   1.380 -0.6135 -0.3387  0.4145
  311MOL0     H41966   6.147   3.469   1.346 -0.6286  1.0433  2.3357
  311MOL0     H41967   6.943   3.964   1.015 -0.5855  0.7994 -0.1646
  311MOL0     H41968   7.177   3.952   0.902 -1.0288  0.3433  2.8470
  311MOL0     H41969   7.596   4.085   0.728  1.2757 -0.3625  0.9835
  311MOL0     H41970   7.783   4.069   0.605 -1.3030 -0.3728  2.7324
  311MOL0     H41971   9.581   4.198   0.349  1.4663  0.3879 -0.9504
  311MOL0     H41972   9.773   4.162   0.243 -3.2037  1.7864 -0.6062
  311MOL0     H41973  10.180   4.508   0.006  1.5072  1.3895 -0.3398
  311MOL0     H41974  10.386   4.478  -0.102 -0.4982 -1.7093 -1.5735
  311MOL0     H41975  10.511   4.312  -0.237  0.7870  1.9847  0.1127
  311MOL0     H41976  10.593   4.440  -0.145 -0.6340  0.8439 -0.6902
  311MOL0     H41977  10.739   4.334  -0.323 -0.4087  1.3421  0.7439
  311MOL0     H41978  10.736   4.178  -0.229  2.0734 -0.1536 -2.2951
  311MOL0     H41979  10.827   4.297  -0.039 -0.6311  0.6461  0.3414
  311MOL0     H41980  10.832   4.448  -0.133 -2.1986 -0.5912 -0.4728
  311MOL0     H41981  10.997   4.200  -0.219 -1.4756 -0.2332  0.6973
  311MOL0     H41982  11.070   4.338  -0.147 -0.9560 -1.5653  1.9267
  311MOL0     H41983  11.088   4.506  -0.497  0.9103  0.1356  0.7581
  311MOL0     H41984  10.454   4.133   0.134 -1.0040 -1.9779 -0.6388
  311MOL0     H41985  10.236   4.157   0.247 -1.5743  1.0280  0.0162
  312MOL0     O41986   9.236  10.776   9.158 -0.5999  0.2977 -0.6012
  312MOL0     C41987   9.241  10.716   9.045  0.0834 -0.2768  0.7955
  312MOL0     O41988   9.140  10.721   8.960  0.2181  0.5599  0.6541
  312MOL0     C41989   9.020  10.782   9.000 -0.0412 -0.0324 -0.3580
  312MOL0     C41990   8.983  10.911   8.958  1.3560  0.6407  0.1221
  312MOL0     C41991   8.864  10.963   9.018 -0.2790 -0.3091  0.2047
  312MOL0     C41992   8.800  10.901   9.120  1.1257  0.0157 -0.4432
  312MOL0     O41993   8.701  10.972   9.184  0.0573  0.1280 -0.5229
  312MOL0     C41994   8.575  10.972   9.126 -0.0661 -0.3521 -0.6359
  312MOL0     C41995   8.458  10.957   9.215 -0.1483  0.0256 -0.4491
  312MOL0     C41996   8.331  10.914   9.133 -0.1496 -0.2516 -0.2541
  312MOL0     C41997   8.215  10.933   9.229 -0.6048 -0.1018 -1.1488
  312MOL0     C41998   8.071  10.903   9.174 -0.1210  0.2247  0.0643
  312MOL0     C41999   7.973  10.952   9.275 -0.8881  0.4666 -0.3695
  312MOL0     C42000   7.821  10.917   9.250 -0.3662  0.6802  0.1166
  312MOL0     C42001   7.764  10.992   9.127  0.6636  0.2317 -0.5167
  312MOL0     N42002   7.614  11.000   9.147 -0.0379  0.0525 -0.8182
  312MOL0     C42003   7.561  11.085   9.241 -0.2459 -0.0281 -0.2611
  312MOL0     C42004   7.427  11.094   9.210 -0.1440 -1.0404  0.0225
  312MOL0     C42005   7.317  11.176   9.284 -0.6944 -0.1279  0.5229
  312MOL0     C42006   7.193  11.085   9.317 -0.5782  0.3109 -0.1967
  312MOL0     C42007   7.225  10.973   9.417 -0.4534  0.6946 -0.6474
  312MOL0     C42008   7.104  10.897   9.470  0.3719 -0.4281 -0.0380
  312MOL0     O42009   7.019  10.978   9.558  0.6739 -0.3589 -0.0781
  312MOL0     C42010   6.925  10.919   9.636  0.0780  0.2497  1.2335
  312MOL0     C42011   6.869  11.000   9.731  0.6003 -0.2772 -0.5276
  312MOL0     C42012   6.759  10.946   9.805  0.2310  0.0140 -0.1536
  312MOL0     C42013   6.722  11.015   9.938  0.3146 -0.5820  0.1570
  312MOL0     C42014   6.697  10.819   9.778 -1.1074  1.5072  1.2288
  312MOL0     C42015   6.586  10.763   9.853  0.6929 -0.0293 -0.8103
  312MOL0     O42016   6.579  10.623   9.863  0.5711  0.0542  0.4069
  312MOL0     C42017   6.453  10.577   9.907 -0.3951  0.6546  0.8934
  312MOL0     C42018   6.402  10.471   9.833  0.0037 -0.1694  0.4280
  312MOL0     C42019   6.274  10.427   9.857  0.4716 -0.0230  0.5946
  312MOL0     C42020   6.213  10.464   9.981  0.1646 -0.1333  0.7824
  312MOL0     O42021   6.095  10.402  10.010 -0.2814  0.1889 -0.2296
  312MOL0     C42022   6.015  10.449  10.119  0.5618  0.4104 -0.8282
  312MOL0     C42023   5.878  10.391  10.114  0.4915 -0.2945  0.0476
  312MOL0     C42024   5.801  10.451  10.003  0.0077 -0.7674  0.6846
  312MOL0     C42025   5.661  10.370   9.977 -0.3816  0.3011  0.4142
  312MOL0     C42026   5.564  10.443   9.886 -0.3660  0.0429  0.3296
  312MOL0     C42027   5.579  10.425   9.739 -0.5284 -0.6084 -0.2976
  312MOL0     C42028   5.467  10.484   9.659  0.2029 -0.2417 -0.7586
  312MOL0     C42029   5.521  10.530   9.524 -0.3848 -0.4672 -0.2841
  312MOL0    Cl42030   5.603  10.384   9.449  0.0911  0.2220 -0.0252
  312MOL0     C42031   6.280  10.555  10.063  0.3224  0.1928 -0.5445
  312MOL0     C42032   6.405  10.602  10.032 -0.3980  1.3929 -0.5138
  312MOL0     O42033   6.498  10.844   9.891 -0.2662  0.1672  0.0149
  312MOL0     C42034   6.747  10.740   9.678  0.8437 -0.4443 -0.4121
  312MOL0     C42035   6.862  10.793   9.608  0.7399  0.2513 -0.1226
  312MOL0     N42036   7.395  11.012   9.102  0.2107 -0.2141 -0.1992
  312MOL0     N42037   7.519  10.961   9.060  0.2906 -0.2290 -0.2140
  312MOL0     C42038   8.838  10.771   9.156 -0.3553  0.6626  0.4310
  312MOL0     C42039   8.943  10.713   9.098  0.8633 -0.4103  0.5433
  312MOL0     C42040   9.358  10.640   9.001 -0.1739  0.8055  0.1112
  312MOL0     C42041   9.382  10.611   8.868  0.0254 -0.6275  0.8156
  312MOL0     C42042   9.503  10.559   8.825  0.2378 -0.0758 -0.0962
  312MOL0     C42043   9.607  10.541   8.912  0.5835  0.6111 -0.1959
  312MOL0     O42044   9.731  10.529   8.860  0.2281  0.1282  0.1409
  312MOL0     C42045   9.853  10.551   8.934  0.1875 -0.5168  0.9978
  312MOL0     C42046   9.950  10.432   8.910  0.0198 -0.0362 -0.2777
  312MOL0     C42047  10.075  10.455   8.995 -0.4521  0.8887  0.0489
  312MOL0     C42048  10.168  10.333   9.008 -0.0691  0.8410  0.5186
  312MOL0     C42049  10.304  10.378   9.050 -0.4871  0.5923  0.6415
  312MOL0     C42050  10.421  10.420   9.078 -0.0993  0.1520 -0.1486
  312MOL0     C42051   9.583  10.553   9.048  0.8023  0.2193 -0.1138
  312MOL0     C42052   9.457  10.596   9.097  0.5469  0.6921 -0.1941
  312MOL0     H42053   9.039  10.972   8.887  0.4206 -0.8839 -2.0391
  312MOL0     H42054   8.833  11.064   8.996  0.1187 -0.5768 -1.7596
  312MOL0     H42055   8.571  11.070   9.077  3.8136  0.5215  0.4863
  312MOL0     H42056   8.562  10.892   9.052  0.7520  0.7129 -1.9829
  312MOL0     H42057   8.483  10.877   9.285 -2.3220 -0.9078 -0.6658
  312MOL0     H42058   8.443  11.050   9.271  0.2699 -0.6812  0.9041
  312MOL0     H42059   8.319  10.980   9.046 -1.1041  0.3417  0.3014
  312MOL0     H42060   8.330  10.811   9.097  0.7144  0.0563 -1.1915
  312MOL0     H42061   8.230  10.862   9.310  2.3252  1.0495 -0.5583
  312MOL0     H42062   8.215  11.031   9.279 -1.2430 -0.1903 -0.9679
  312MOL0     H42063   8.058  10.965   9.085 -1.2457  2.0288  1.4100
  312MOL0     H42064   8.052  10.796   9.160  2.9152 -0.3677 -0.3110
  312MOL0     H42065   8.001  10.897   9.366  0.4593 -0.2611 -1.2027
  312MOL0     H42066   7.990  11.057   9.300 -1.8216  0.3237  1.0032
  312MOL0     H42067   7.813  10.809   9.241 -0.4334  0.7952 -1.5793
  312MOL0     H42068   7.767  10.940   9.343 -0.7090  0.0164  0.0855
  312MOL0     H42069   7.785  10.939   9.034 -4.1302 -1.6815 -0.8052
  312MOL0     H42070   7.813  11.088   9.113 -2.6905  2.5583  2.0516
  312MOL0     H42071   7.615  11.136   9.320  1.6786 -0.1283 -1.4383
  312MOL0     H42072   7.375  11.211   9.369 -1.6291 -0.4794  1.3209
  312MOL0     H42073   7.284  11.256   9.217 -1.4219 -2.6999 -2.4710
  312MOL0     H42074   7.159  11.038   9.225 -1.9446  0.3323  0.2710
  312MOL0     H42075   7.115  11.151   9.358  0.7641 -0.6308  4.5890
  312MOL0     H42076   7.285  11.020   9.495  1.4213  0.1836 -1.7281
  312MOL0     H42077   7.284  10.897   9.366 -0.4116  1.5676 -1.9616
  312MOL0     H42078   7.120  10.802   9.522  0.5252 -1.6411 -2.1767
  312MOL0     H42079   7.040  10.866   9.387 -0.8152  1.3217  0.1616
  312MOL0     H42080   6.911  11.099   9.748 -0.4576  0.0996 -0.0043
  312MOL0     H42081   6.649  11.097   9.933  2.2587  1.2326 -0.0056
  312MOL0     H42082   6.686  10.950  10.018  1.0069  0.4475  1.3469
  312MOL0     H42083   6.819  11.058   9.966  0.8971 -0.3668 -2.0397
  312MOL0     H42084   6.455  10.451   9.740  2.8795  0.5502  1.7801
  312MOL0     H42085   6.229  10.345   9.800  1.1840 -0.3394  0.4836
  312MOL0     H42086   6.062  10.411  10.210 -0.3572 -4.4807 -2.0961
  312MOL0     H42087   6.015  10.559  10.121 -0.9438  0.5174 -3.0573
  312MOL0     H42088   5.876  10.282  10.106  0.6656 -0.2737 -0.3409
  312MOL0     H42089   5.830  10.422  10.207 -0.9164 -0.5949 -0.5522
  312MOL0     H42090   5.861  10.466   9.913  0.4186  0.5363  1.1551
  312MOL0     H42091   5.774  10.552  10.036  1.0607  0.1931 -1.1909
  312MOL0     H42092   5.674  10.269   9.938  1.1467 -0.1232  1.8709
  312MOL0     H42093   5.623  10.360  10.079 -1.1403  1.5262  0.2667
  312MOL0     H42094   5.563  10.551   9.907  3.6366  0.5056 -0.9112
  312MOL0     H42095   5.462  10.409   9.906  0.3178 -1.6501  1.0635
  312MOL0     H42096   5.663  10.492   9.715 -2.1151  1.3330 -0.6562
  312MOL0     H42097   5.600  10.321   9.712  2.1747 -0.3238  0.3509
  312MOL0     H42098   5.415  10.563   9.714  0.4896 -2.2445  2.6288
  312MOL0     H42099   5.390  10.405   9.654 -0.9902  0.7666  0.8103
  312MOL0     H42100   5.582  10.620   9.536  0.4604 -1.0035 -0.4420
  312MOL0     H42101   5.436  10.546   9.458  0.8569  0.7461 -1.6594
  312MOL0     H42102   6.232  10.587  10.155  0.4442  1.1870 -0.8209
  312MOL0     H42103   6.445  10.659  10.115  1.0723 -0.8036  0.3795
  312MOL0     H42104   6.706  10.641   9.661 -1.5385  0.2884  0.6607
  312MOL0     H42105   6.897  10.720   9.535 -2.0060 -1.7123  0.3543
  312MOL0     H42106   8.796  10.728   9.247 -0.7931  1.0132  0.3982
  312MOL0     H42107   8.962  10.609   9.121  0.5757 -0.8823 -1.1774
  312MOL0     H42108   9.312  10.633   8.789  1.4893  1.0720 -0.0852
  312MOL0     H42109   9.518  10.535   8.720  0.1184 -2.0813  0.3156
  312MOL0     H42110   9.900  10.641   8.892 -0.6348 -1.4321 -2.2043
  312MOL0     H42111   9.840  10.580   9.039  0.0585  2.8052  0.1874
  312MOL0     H42112   9.972  10.414   8.804  3.1117 -2.1588  0.5883
  312MOL0     H42113   9.901  10.343   8.951 -1.6976  1.3222  0.7692
  312MOL0     H42114  10.046  10.475   9.098  2.0731  2.5206  0.5126
  312MOL0     H42115  10.128  10.548   8.975  0.9684 -0.0047 -0.4438
  312MOL0     H42116  10.177  10.281   8.912 -0.2249  0.6522  0.6030
  312MOL0     H42117  10.137  10.255   9.078  2.4860  0.1422  0.9969
  312MOL0     H42118  10.516  10.464   9.101  0.2997  0.0409 -1.4908
  312MOL0     H42119   9.658  10.528   9.123  0.0384  0.7289  0.8289
  312MOL0     H42120   9.434  10.604   9.203 -0.4559 -2.2535 -0.0947
  313MOL0     O42121   4.546   4.331   8.971  0.2596  0.4230 -0.1974
  313MOL0     C42122   4.619   4.419   9.024 -0.0270 -0.4801  1.3433
  313MOL0     O42123   4.684   4.517   8.947 -1.0425  0.1020  0.3180
  313MOL0     C42124   4.635   4.548   8.821 -0.6703  0.6768 -1.0528
  313MOL0     C42125   4.714   4.616   8.734 -0.1572  0.3387 -0.1676
  313MOL0     C42126   4.676   4.676   8.617  0.5107 -0.2712  0.3972
  313MOL0     C42127   4.541   4.677   8.581 -1.2636 -0.1104 -0.0278
  313MOL0     O42128   4.505   4.726   8.463 -0.1758 -0.7503 -0.6428
  313MOL0     C42129   4.427   4.647   8.371 -0.1873  0.4287  1.0609
  313MOL0     C42130   4.429   4.709   8.237 -0.4019  0.3908  0.2234
  313MOL0     C42131   4.339   4.823   8.235  0.7733  0.4630 -0.0683
  313MOL0     C42132   4.321   4.843   8.090  0.1369 -0.4670 -0.4522
  313MOL0     C42133   4.210   4.940   8.040 -0.0750 -0.3052 -0.8414
  313MOL0     C42134   4.215   5.082   8.100 -0.2162  0.1936  0.4969
  313MOL0     C42135   4.076   5.145   8.139 -0.8893 -0.5144 -0.0004
  313MOL0     C42136   3.998   5.194   8.017  0.6833 -0.4948  0.2086
  313MOL0     N42137   4.061   5.311   7.958 -0.0760  0.2110 -0.2886
  313MOL0     C42138   4.067   5.440   7.998  0.1249 -0.5728  0.5851
  313MOL0     C42139   4.112   5.512   7.888 -0.2023  0.2336 -1.2510
  313MOL0     C42140   4.108   5.671   7.885 -0.1272  0.4100  0.3098
  313MOL0     C42141   3.970   5.707   7.948 -0.6476 -0.0319  0.4001
  313MOL0     C42142   3.951   5.852   7.921  0.1045  0.2714  0.1048
  313MOL0     C42143   3.815   5.895   7.979 -0.2546 -0.6003 -0.2747
  313MOL0     O42144   3.825   5.908   8.122 -0.5276  0.3798 -0.3234
  313MOL0     C42145   3.710   5.941   8.185  0.2025 -0.2505  0.9188
  313MOL0     C42146   3.724   5.975   8.321 -0.6597 -0.5097 -0.4866
  313MOL0     C42147   3.612   5.994   8.410  0.7689 -0.5820  0.9608
  313MOL0     C42148   3.632   6.019   8.556  0.2559  0.5510  0.1732
  313MOL0     C42149   3.481   5.992   8.349  0.3071  0.4014  0.1539
  313MOL0     C42150   3.354   6.007   8.421  0.1178 -0.9182 -0.7546
  313MOL0     O42151   3.254   6.047   8.346  0.8429  0.3205  0.2640
  313MOL0     C42152   3.144   6.094   8.412  1.0938 -0.4499  0.7997
  313MOL0     C42153   3.021   6.044   8.367  0.3204 -0.3965  0.2763
  313MOL0     C42154   2.898   6.101   8.410 -0.0804 -0.2036  1.0029
  313MOL0     C42155   2.890   6.216   8.492 -0.7015  0.6817  0.5349
  313MOL0     O42156   2.766   6.265   8.536 -0.3098  0.0102 -0.4266
  313MOL0     C42157   2.760   6.368   8.629  0.4560 -0.2701  0.4813
  313MOL0     C42158   2.607   6.398   8.646  0.1329 -0.0647 -0.3144
  313MOL0     C42159   2.528   6.267   8.702 -0.1835  0.6680  0.8672
  313MOL0     C42160   2.577   6.203   8.830  1.0081 -0.3868  0.4927
  313MOL0     C42161   2.497   6.092   8.890 -0.3724 -0.8439  0.4042
  313MOL0     C42162   2.357   6.112   8.938  0.4314 -0.1505  0.3575
  313MOL0     C42163   2.342   6.209   9.057  0.2154  1.0248  0.1206
  313MOL0     C42164   2.211   6.175   9.129 -0.7353 -0.6420  1.0006
  313MOL0    Cl42165   2.194   6.286   9.261 -0.2497  0.2449 -0.3426
  313MOL0     C42166   3.013   6.250   8.555 -0.0502  1.0328 -0.2949
  313MOL0     C42167   3.139   6.194   8.506  0.4753 -0.3029 -0.6588
  313MOL0     O42168   3.346   5.983   8.541  0.0839  0.6489  0.4666
  313MOL0     C42169   3.471   5.967   8.208 -0.6827  0.1507 -1.2823
  313MOL0     C42170   3.584   5.943   8.127  0.9560 -0.4529 -0.4537
  313MOL0     N42171   4.129   5.425   7.788  0.1547 -0.6183 -0.8653
  313MOL0     N42172   4.096   5.309   7.826  0.6415  0.2678 -0.2918
  313MOL0     C42173   4.452   4.620   8.665  0.0837 -0.2510 -0.7050
  313MOL0     C42174   4.498   4.548   8.781  0.1851  0.4276  0.1215
  313MOL0     C42175   4.652   4.412   9.165  0.4258 -0.7499 -0.5028
  313MOL0     C42176   4.753   4.492   9.222  0.2630  0.0415  0.8519
  313MOL0     C42177   4.798   4.473   9.354  0.9132  0.1182 -0.1212
  313MOL0     C42178   4.738   4.377   9.440 -0.2825 -0.5853  0.0283
  313MOL0     O42179   4.767   4.360   9.580  0.3290 -0.6706  0.0456
  313MOL0     C42180   4.891   4.418   9.621 -0.5357 -0.2606 -0.4347
  313MOL0     C42181   4.871   4.557   9.680 -0.0025 -0.3906 -0.2566
  313MOL0     C42182   4.860   4.542   9.830  0.0840 -0.0689 -0.5247
  313MOL0     C42183   4.845   4.673   9.901  0.2993  0.1039 -0.5097
  313MOL0     C42184   4.821   4.660  10.044 -0.2657  0.6536 -0.7186
  313MOL0     C42185   4.805   4.656  10.168  0.1452  0.0019  0.5461
  313MOL0     C42186   4.647   4.294   9.383 -0.5167 -0.7446 -0.1007
  313MOL0     C42187   4.605   4.311   9.252  0.5425 -0.4321  0.7130
  313MOL0     H42188   4.817   4.606   8.768 -0.7826 -1.0968  1.5037
  313MOL0     H42189   4.752   4.721   8.554  0.3527 -2.7344 -1.7523
  313MOL0     H42190   4.486   4.558   8.347  0.9559  1.5283 -0.3292
  313MOL0     H42191   4.328   4.611   8.403 -0.1671 -1.4199 -0.7614
  313MOL0     H42192   4.529   4.746   8.213  0.0319  0.1283  1.5902
  313MOL0     H42193   4.393   4.629   8.172 -1.7218  2.3219 -1.5652
  313MOL0     H42194   4.239   4.795   8.270  0.6537  0.1874 -0.6123
  313MOL0     H42195   4.368   4.909   8.295 -0.6732 -1.3076  3.4440
  313MOL0     H42196   4.418   4.869   8.046  0.1557 -1.9875 -1.3445
  313MOL0     H42197   4.300   4.749   8.039 -0.7286 -0.5740  0.0922
  313MOL0     H42198   4.218   4.944   7.931 -0.6015 -2.6396 -1.0227
  313MOL0     H42199   4.110   4.897   8.057  0.3349 -2.4199 -3.0776
  313MOL0     H42200   4.291   5.084   8.179  0.1749 -1.0536  0.1767
  313MOL0     H42201   4.263   5.135   8.018  1.2685 -2.6850 -0.6314
  313MOL0     H42202   4.018   5.068   8.192 -1.6636  0.7485  1.0316
  313MOL0     H42203   4.078   5.227   8.211  1.4185 -0.8663  0.3943
  313MOL0     H42204   3.895   5.219   8.045 -0.0496 -2.5476 -0.5138
  313MOL0     H42205   3.980   5.110   7.951  1.3324 -2.1652  2.0377
  313MOL0     H42206   4.028   5.487   8.087  0.5851  0.0820  0.4445
  313MOL0     H42207   4.174   5.722   7.956 -0.8069  2.0210 -0.1850
  313MOL0     H42208   4.117   5.709   7.782 -0.0634  1.8608  0.8283
  313MOL0     H42209   3.974   5.700   8.057 -1.3626 -0.9162  0.3855
  313MOL0     H42210   3.891   5.642   7.907  2.9656 -4.4219 -0.3935
  313MOL0     H42211   3.955   5.868   7.813  1.5747 -0.0399  0.1045
  313MOL0     H42212   4.034   5.913   7.958 -1.4144  2.6093 -0.1413
  313MOL0     H42213   3.734   5.832   7.939 -1.5026  0.8495 -0.0932
  313MOL0     H42214   3.807   5.996   7.938  3.9102  0.4546  1.0806
  313MOL0     H42215   3.825   5.969   8.361 -0.9132 -1.2286  0.0627
  313MOL0     H42216   3.615   5.931   8.617 -0.5453  1.6202  1.5403
  313MOL0     H42217   3.735   6.058   8.562  0.4386  0.4123 -1.4037
  313MOL0     H42218   3.564   6.098   8.590  0.7835  1.0140  0.1789
  313MOL0     H42219   3.023   5.959   8.300  0.6425 -0.9542  0.9775
  313MOL0     H42220   2.814   6.047   8.369  1.4268 -1.2208 -0.9328
  313MOL0     H42221   2.807   6.335   8.722  0.1878 -2.3184 -0.0630
  313MOL0     H42222   2.816   6.452   8.589 -1.7727  0.5457 -1.1140
  313MOL0     H42223   2.588   6.487   8.707 -3.1348  0.8018 -2.3341
  313MOL0     H42224   2.557   6.427   8.553 -3.1718  1.1360  1.6468
  313MOL0     H42225   2.533   6.194   8.620  1.6945  1.1377  0.5206
  313MOL0     H42226   2.426   6.301   8.723 -0.5863  0.4748 -0.6040
  313MOL0     H42227   2.678   6.162   8.827  1.6492  1.0934  0.9615
  313MOL0     H42228   2.577   6.282   8.907  1.4711  1.0564 -0.9388
  313MOL0     H42229   2.556   6.054   8.973  0.5414 -2.1602 -0.8127
  313MOL0     H42230   2.494   6.018   8.809 -0.4426  2.0618 -2.4942
  313MOL0     H42231   2.285   6.147   8.863 -1.8171  0.9114  2.8490
  313MOL0     H42232   2.324   6.011   8.966  1.3649 -0.3291  0.8587
  313MOL0     H42233   2.333   6.308   9.012 -4.0206 -0.0213 -1.8993
  313MOL0     H42234   2.429   6.188   9.119  0.0248  0.3200  0.1514
  313MOL0     H42235   2.211   6.069   9.157 -0.4295 -0.5061  1.5313
  313MOL0     H42236   2.127   6.195   9.061  0.2967  1.6321  0.2799
  313MOL0     H42237   3.008   6.326   8.632 -0.8112  0.8079 -0.1184
  313MOL0     H42238   3.226   6.227   8.563  1.8788 -1.4711 -2.0385
  313MOL0     H42239   3.375   5.976   8.158 -1.4891 -1.1407 -0.0444
  313MOL0     H42240   3.563   5.933   8.021 -2.0662 -1.1493  0.1155
  313MOL0     H42241   4.349   4.621   8.632  0.2426 -0.6707 -1.2300
  313MOL0     H42242   4.420   4.510   8.845  0.5428  1.0748  0.9550
  313MOL0     H42243   4.797   4.576   9.168 -1.5022  1.2092  1.1312
  313MOL0     H42244   4.882   4.538   9.376  0.8880  1.0737 -2.4640
  313MOL0     H42245   4.934   4.354   9.699  0.4873 -1.1966 -1.7213
  313MOL0     H42246   4.964   4.431   9.540 -0.4844  0.3176 -0.2958
  313MOL0     H42247   4.775   4.594   9.644 -0.2820 -0.2578  0.6125
  313MOL0     H42248   4.936   4.635   9.639 -1.5201  0.1828 -1.6784
  313MOL0     H42249   4.946   4.492   9.875  1.1379  1.5464 -0.6368
  313MOL0     H42250   4.771   4.485   9.855 -1.4269  2.1662 -0.5029
  313MOL0     H42251   4.755   4.725   9.867  0.8949  0.9152 -0.9019
  313MOL0     H42252   4.935   4.734   9.886 -0.4185  0.8241 -2.0841
  313MOL0     H42253   4.780   4.657  10.273 -0.1604  0.3038  0.4720
  313MOL0     H42254   4.608   4.227   9.460 -2.5060  1.3147  0.8280
  313MOL0     H42255   4.537   4.233   9.219  1.9058 -1.0408 -0.7784
  314MOL0     O42256   4.162   8.077   6.775  0.4268  0.5367 -0.2386
  314MOL0     C42257   4.166   8.009   6.877 -0.0823 -0.0190  0.2917
  314MOL0     O42258   4.057   7.972   6.953 -0.6526 -0.1444 -0.4523
  314MOL0     C42259   3.937   8.029   6.930  0.0315  0.5082 -0.0338
  314MOL0     C42260   3.906   8.155   6.958  0.6940 -0.7272  0.2164
  314MOL0     C42261   3.765   8.203   6.947 -0.0067 -0.7779 -0.3279
  314MOL0     C42262   3.668   8.102   6.912  0.6971  0.0738 -0.1206
  314MOL0     O42263   3.535   8.122   6.921 -0.8474  0.5799  0.0147
  314MOL0     C42264   3.492   8.237   6.853 -0.4261 -0.5978 -0.4797
  314MOL0     C42265   3.341   8.231   6.822 -0.3046 -0.6050 -0.2868
  314MOL0     C42266   3.279   8.322   6.714  1.1365 -0.4054  0.1005
  314MOL0     C42267   3.125   8.310   6.711  0.3584  0.1957 -0.6083
  314MOL0     C42268   3.063   8.242   6.598  0.0745  0.6470  0.0051
  314MOL0     C42269   3.052   8.335   6.476  0.5216  0.1425 -0.1957
  314MOL0     C42270   2.951   8.448   6.506  0.7816  0.7756  0.9851
  314MOL0     C42271   2.869   8.475   6.379  0.1382  0.8126  0.3006
  314MOL0     N42272   2.771   8.378   6.320 -0.1037  0.4154 -0.0311
  314MOL0     C42273   2.768   8.250   6.368  0.8337 -0.5978 -0.4014
  314MOL0     C42274   2.720   8.183   6.266  0.1976  0.1024 -0.4772
  314MOL0     C42275   2.677   8.037   6.283 -0.0777  0.5366 -0.1501
  314MOL0     C42276   2.531   8.032   6.336 -0.4069  0.5621 -0.1721
  314MOL0     C42277   2.499   7.882   6.351 -0.2636 -0.1172  0.2794
  314MOL0     C42278   2.341   7.867   6.367 -0.3972  0.2233  0.6179
  314MOL0     O42279   2.302   7.726   6.391 -0.7761 -0.4853 -0.2030
  314MOL0     C42280   2.176   7.696   6.431  0.7690 -0.0955  0.4201
  314MOL0     C42281   2.138   7.570   6.434 -0.1653  0.7960 -0.4058
  314MOL0     C42282   1.996   7.533   6.442  0.0381  0.3198  0.0278
  314MOL0     C42283   1.975   7.385   6.428 -0.0138 -0.2045 -0.2534
  314MOL0     C42284   1.901   7.632   6.458  0.2606  0.7723  0.1375
  314MOL0     C42285   1.763   7.592   6.469 -0.4827  0.3307  0.2801
  314MOL0     O42286   1.712   7.506   6.370 -0.1225 -0.6951  0.3465
  314MOL0     C42287   1.580   7.485   6.366  0.2108  0.7111 -0.4788
  314MOL0     C42288   1.491   7.592   6.372 -0.3353 -0.2693 -0.5530
  314MOL0     C42289   1.361   7.562   6.341 -0.2414 -0.6933 -1.0542
  314MOL0     C42290   1.314   7.432   6.314  0.4341 -0.0230  0.6371
  314MOL0     O42291   1.185   7.396   6.292  1.4910 -0.2797 -0.3056
  314MOL0     C42292   1.095   7.506   6.262  0.3727  0.8446  0.1253
  314MOL0     C42293   0.964   7.439   6.227 -0.0159  0.3039  0.8889
  314MOL0     C42294   0.846   7.544   6.261  0.3449 -0.1009  0.1450
  314MOL0     C42295   0.713   7.477   6.215 -0.0602 -0.7725  0.0613
  314MOL0     C42296   0.604   7.576   6.219  0.3778 -0.3286  0.1387
  314MOL0     C42297   0.473   7.525   6.154  0.5806  0.0638  0.3355
  314MOL0     C42298   0.365   7.621   6.177  0.0890  0.1830  0.4862
  314MOL0     C42299   0.230   7.558   6.144 -0.8065 -0.1687  0.3190
  314MOL0    Cl42300   0.091   7.683   6.156  0.2389  0.3320  0.1534
  314MOL0     C42301   1.403   7.332   6.309 -0.6676 -0.1918  0.0481
  314MOL0     C42302   1.538   7.354   6.329  1.2489  0.0446  0.0817
  314MOL0     O42303   1.702   7.635   6.572 -0.3948 -0.3315  0.5418
  314MOL0     C42304   1.947   7.757   6.480  0.3230 -0.5190  1.3412
  314MOL0     C42305   2.082   7.787   6.464  0.3948 -0.0055  0.6375
  314MOL0     N42306   2.702   8.256   6.155  0.2489  0.1144  0.1066
  314MOL0     N42307   2.730   8.377   6.193 -1.1109 -0.3537 -0.2109
  314MOL0     C42308   3.706   7.973   6.891 -0.2453 -0.2338 -0.0233
  314MOL0     C42309   3.840   7.937   6.891 -1.0896 -0.0711  0.8271
  314MOL0     C42310   4.294   7.954   6.906 -0.3176 -0.0390  0.4027
  314MOL0     C42311   4.408   8.009   6.849 -0.2625 -0.0541  0.4885
  314MOL0     C42312   4.540   7.973   6.887 -0.5821  0.0458 -0.3644
  314MOL0     C42313   4.548   7.877   6.989  0.2620 -0.6473  0.9824
  314MOL0     O42314   4.677   7.841   7.021  0.3447 -0.2054  0.3768
  314MOL0     C42315   4.704   7.756   7.134  0.0423  0.6457  1.3226
  314MOL0     C42316   4.850   7.747   7.179  0.3540  0.3193  0.6065
  314MOL0     C42317   4.927   7.881   7.187 -0.0072  0.8486 -0.1786
  314MOL0     C42318   5.082   7.859   7.186 -0.3292 -0.7824  0.0635
  314MOL0     C42319   5.122   7.757   7.288  0.5630  0.1071  0.6489
  314MOL0     C42320   5.140   7.669   7.368  0.2922  0.3272 -0.9018
  314MOL0     C42321   4.437   7.820   7.045  0.5846  1.5082  0.3138
  314MOL0     C42322   4.308   7.852   6.999  0.2396 -0.3362 -0.7148
  314MOL0     H42323   3.975   8.220   7.011  1.0294 -0.4626 -0.5320
  314MOL0     H42324   3.743   8.307   6.969 -0.8613 -1.4905  2.5186
  314MOL0     H42325   3.501   8.323   6.920 -3.3717 -0.5324 -0.0426
  314MOL0     H42326   3.546   8.256   6.760 -1.6328  1.2107 -0.8632
  314MOL0     H42327   3.318   8.127   6.799 -0.9287 -0.8050  1.0907
  314MOL0     H42328   3.302   8.248   6.923 -1.4264 -1.9414 -0.4760
  314MOL0     H42329   3.301   8.425   6.742  0.2087 -0.5535  1.4824
  314MOL0     H42330   3.310   8.301   6.611 -1.2357  0.0994 -0.7943
  314MOL0     H42331   3.093   8.268   6.807 -0.4939  2.6778  0.2723
  314MOL0     H42332   3.091   8.414   6.719 -0.3992  0.0610 -1.8498
  314MOL0     H42333   3.124   8.154   6.578  0.9880  1.4986 -1.0368
  314MOL0     H42334   2.963   8.204   6.624 -1.0890  2.4910 -1.5338
  314MOL0     H42335   3.156   8.367   6.464  0.9520 -1.5063 -1.1998
  314MOL0     H42336   3.013   8.267   6.401 -2.1657  0.1598  1.0571
  314MOL0     H42337   2.875   8.413   6.577 -2.6321  1.8323 -1.8593
  314MOL0     H42338   2.986   8.546   6.540  1.1310  1.1038 -0.2963
  314MOL0     H42339   2.942   8.486   6.298 -0.7159 -0.4965 -0.6741
  314MOL0     H42340   2.820   8.573   6.378  0.8860  1.1929 -0.5934
  314MOL0     H42341   2.795   8.216   6.468  0.8613 -3.9242 -1.4233
  314MOL0     H42342   2.672   7.990   6.185 -3.0794  1.4631 -0.5413
  314MOL0     H42343   2.743   7.986   6.354  0.2991 -2.3380 -2.3907
  314MOL0     H42344   2.462   8.095   6.280 -0.8051  0.7814  0.5516
  314MOL0     H42345   2.531   8.090   6.429 -0.6694  4.3178 -2.3179
  314MOL0     H42346   2.541   7.839   6.442  2.2028  1.6360  0.0847
  314MOL0     H42347   2.530   7.828   6.262 -2.6185 -0.8020 -0.2041
  314MOL0     H42348   2.293   7.906   6.277  1.0823  0.0175 -0.3027
  314MOL0     H42349   2.313   7.931   6.451 -2.0686 -0.6720  0.7842
  314MOL0     H42350   2.206   7.486   6.422  1.1528  1.5253  1.4624
  314MOL0     H42351   2.060   7.325   6.462 -1.1179 -0.4890  2.2458
  314MOL0     H42352   1.895   7.350   6.494  0.8382 -3.6033 -0.8490
  314MOL0     H42353   1.945   7.366   6.325 -2.3645  2.1323 -0.0936
  314MOL0     H42354   1.513   7.697   6.383 -4.6302  1.0241 -2.3508
  314MOL0     H42355   1.286   7.641   6.347 -1.2937 -1.7378  0.2020
  314MOL0     H42356   1.078   7.573   6.347  0.6504  1.1165 -0.0352
  314MOL0     H42357   1.122   7.575   6.182  1.3624  0.8627  0.4641
  314MOL0     H42358   0.962   7.410   6.122  0.7584 -1.4206  1.3139
  314MOL0     H42359   0.948   7.346   6.283  2.5012  0.4388  1.9789
  314MOL0     H42360   0.854   7.636   6.204  0.1825 -0.2895 -0.1870
  314MOL0     H42361   0.840   7.556   6.369 -1.0976  1.5148 -0.0788
  314MOL0     H42362   0.726   7.440   6.112  2.0938  0.2476 -0.0968
  314MOL0     H42363   0.690   7.387   6.273 -1.1645 -1.7143 -1.7314
  314MOL0     H42364   0.632   7.654   6.147 -2.6858 -0.2253 -1.0660
  314MOL0     H42365   0.582   7.626   6.314  2.0991  1.8032 -0.4782
  314MOL0     H42366   0.494   7.526   6.047  0.8225  0.3653  0.3846
  314MOL0     H42367   0.452   7.427   6.199  1.5918 -0.4992 -0.3618
  314MOL0     H42368   0.384   7.712   6.118 -2.2486 -0.7112 -1.8267
  314MOL0     H42369   0.343   7.650   6.280 -1.9307  2.3671 -0.4651
  314MOL0     H42370   0.213   7.488   6.226 -0.8170 -0.4612  0.0676
  314MOL0     H42371   0.221   7.499   6.053 -0.3496 -0.9030  0.7368
  314MOL0     H42372   1.365   7.232   6.298 -0.4156 -0.7047  3.0234
  314MOL0     H42373   1.620   7.290   6.301  1.3030  0.5800 -1.0228
  314MOL0     H42374   1.875   7.834   6.505  0.7658  0.8192 -1.1581
  314MOL0     H42375   2.108   7.892   6.477  1.3883 -0.1243 -0.1966
  314MOL0     H42376   3.626   7.901   6.877 -0.8666  0.7444 -1.9994
  314MOL0     H42377   3.860   7.834   6.862  0.9067 -0.0485  1.9266
  314MOL0     H42378   4.414   8.096   6.785  4.4592  1.1338  2.1672
  314MOL0     H42379   4.633   8.014   6.847 -0.0324 -1.9874 -1.2644
  314MOL0     H42380   4.640   7.782   7.219  1.2974  0.6794  2.2913
  314MOL0     H42381   4.673   7.656   7.106 -0.7280  1.0150  0.8183
  314MOL0     H42382   4.910   7.688   7.109  3.2417  3.6231  0.0029
  314MOL0     H42383   4.848   7.684   7.268 -2.1440 -0.3811  0.1422
  314MOL0     H42384   4.891   7.932   7.277 -0.9169 -1.8176  1.0481
  314MOL0     H42385   4.911   7.944   7.099  0.6967  2.0846  0.5375
  314MOL0     H42386   5.127   7.953   7.221 -0.3398  0.4446 -2.9420
  314MOL0     H42387   5.122   7.839   7.087  0.7028  0.7950  0.1248
  314MOL0     H42388   5.154   7.591   7.440 -3.8946  0.6483  0.5138
  314MOL0     H42389   4.450   7.738   7.114 -2.4796  0.7375  0.1470
  314MOL0     H42390   4.223   7.808   7.049  0.0262  2.5977  1.8218
  315MOL0     O42391   8.828   2.042   7.624 -0.1166 -0.4329  0.5257
  315MOL0     C42392   8.921   1.983   7.566 -0.1325 -0.6105 -0.6116
  315MOL0     O42393   8.924   1.842   7.541 -0.0356 -0.2839  0.2222
  315MOL0     C42394   8.815   1.766   7.573  0.0845  0.8819  0.7337
  315MOL0     C42395   8.684   1.792   7.531 -0.8431  0.3760 -0.1900
  315MOL0     C42396   8.586   1.702   7.554  0.8809 -0.5994  0.5640
  315MOL0     C42397   8.609   1.579   7.619 -0.9557 -0.7117  0.3896
  315MOL0     O42398   8.514   1.483   7.619 -0.2647 -0.0071 -0.0135
  315MOL0     C42399   8.560   1.344   7.619  0.3886  0.0176 -0.7808
  315MOL0     C42400   8.448   1.251   7.580 -1.1229  0.2394  0.4944
  315MOL0     C42401   8.303   1.269   7.641 -0.4604  0.1621  0.1778
  315MOL0     C42402   8.219   1.162   7.578 -1.0115 -0.3861 -0.2992
  315MOL0     C42403   8.203   1.050   7.671  0.6508  0.1249 -0.6969
  315MOL0     C42404   8.163   0.914   7.606  0.2465  0.1040  0.2223
  315MOL0     C42405   8.213   0.806   7.707  0.5042 -0.6915 -0.4827
  315MOL0     C42406   8.165   0.660   7.670  0.4007 -0.7600 -0.5755
  315MOL0     N42407   8.205   0.618   7.531 -0.5798 -0.1576 -0.2940
  315MOL0     C42408   8.293   0.522   7.511  0.1294 -0.4725 -0.0098
  315MOL0     C42409   8.284   0.498   7.378 -0.1480 -0.2538 -0.7164
  315MOL0     C42410   8.363   0.405   7.287  0.4265 -0.0857  0.0624
  315MOL0     C42411   8.343   0.260   7.331 -0.1711 -0.2698 -0.6764
  315MOL0     C42412   8.386   0.160   7.219  0.2276 -0.3048  0.0007
  315MOL0     C42413   8.363   0.011   7.244  0.3587  0.6996 -0.8162
  315MOL0     O42414   8.275  -0.032   7.349  0.3096 -0.5080 -0.2769
  315MOL0     C42415   8.136  -0.037   7.334  0.0160  0.7973  0.8937
  315MOL0     C42416   8.059  -0.080   7.444 -0.4016 -0.7514  0.0799
  315MOL0     C42417   7.928  -0.095   7.434 -1.0398  0.1338  0.0912
  315MOL0     C42418   7.847  -0.142   7.551  0.7766  0.2566 -0.3197
  315MOL0     C42419   7.863  -0.044   7.318 -0.4746 -0.2582  1.1166
  315MOL0     C42420   7.718  -0.054   7.292 -0.5112 -0.0063 -0.4629
  315MOL0     O42421   7.681  -0.028   7.167 -1.5457  0.2715 -0.2300
  315MOL0     C42422   7.553  -0.012   7.128 -0.1171  0.3969 -0.1994
  315MOL0     C42423   7.499   0.115   7.134 -0.5121  0.0694 -0.1267
  315MOL0     C42424   7.370   0.134   7.085  0.2471  0.0643 -0.3471
  315MOL0     C42425   7.291   0.024   7.041  0.1602  0.8887 -0.5221
  315MOL0     O42426   7.164   0.058   7.008 -0.5388  0.5044  0.1429
  315MOL0     C42427   7.068  -0.047   7.033  0.4882 -1.2066  0.4188
  315MOL0     C42428   6.919   0.004   7.014  0.0496 -0.4884  0.2758
  315MOL0     C42429   6.876   0.109   7.124  0.8210 -0.5934  0.8022
  315MOL0     C42430   6.728   0.135   7.129  0.2857  0.0293  0.5101
  315MOL0     C42431   6.675   0.204   7.000 -0.2884  0.0996 -0.3143
  315MOL0     C42432   6.518   0.189   6.974 -0.4675  0.4960 -0.3149
  315MOL0     C42433   6.472   0.042   6.970  0.5559  0.0452 -0.0945
  315MOL0     C42434   6.520  -0.022   6.845 -0.3965  0.7583  0.2389
  315MOL0    Cl42435   6.433  -0.181   6.810  0.4276 -0.0703 -0.1441
  315MOL0     C42436   7.347  -0.102   7.035  0.3839  0.2448 -0.1944
  315MOL0     C42437   7.479  -0.119   7.082 -0.0008 -0.9557  0.1996
  315MOL0     O42438   7.643  -0.078   7.382 -0.1431 -0.5166  0.6110
  315MOL0     C42439   7.946   0.013   7.211  0.3519 -0.0904 -0.1962
  315MOL0     C42440   8.078   0.009   7.224 -0.3014 -0.3709 -0.0287
  315MOL0     N42441   8.181   0.575   7.331  0.3961 -0.5880 -0.5708
  315MOL0     N42442   8.129   0.639   7.428 -0.0721  0.5732 -0.6225
  315MOL0     C42443   8.738   1.549   7.662  0.1576  0.1518 -0.0063
  315MOL0     C42444   8.839   1.645   7.643 -0.6026 -0.4011  0.8281
  315MOL0     C42445   9.042   2.066   7.535 -0.2755  0.1044 -0.4315
  315MOL0     C42446   9.118   2.044   7.422  0.5138 -0.4536 -0.5381
  315MOL0     C42447   9.238   2.114   7.391 -0.0901  0.1839 -0.2247
  315MOL0     C42448   9.267   2.230   7.475  0.1657  0.7822 -0.0788
  315MOL0     O42449   9.378   2.299   7.437  0.5883  0.0408  0.3278
  315MOL0     C42450   9.477   2.333   7.537  0.2932 -0.0087  0.3347
  315MOL0     C42451   9.572   2.216   7.562 -1.4872  0.0397 -0.6874
  315MOL0     C42452   9.663   2.249   7.685 -0.2366  0.0950 -0.4518
  315MOL0     C42453   9.644   2.169   7.809  0.2925  0.0869  0.1686
  315MOL0     C42454   9.515   2.184   7.867  0.1660  0.5121  0.2197
  315MOL0     C42455   9.405   2.185   7.920  0.0166  0.1637  0.2804
  315MOL0     C42456   9.184   2.260   7.586 -0.9667  0.9917 -0.3374
  315MOL0     C42457   9.078   2.173   7.622 -0.3189 -0.6296  0.4047
  315MOL0     H42458   8.664   1.891   7.491 -1.6784  1.6056  2.9214
  315MOL0     H42459   8.492   1.729   7.509  2.0140 -1.2723 -2.4281
  315MOL0     H42460   8.647   1.334   7.553  2.8024  4.3640  1.2950
  315MOL0     H42461   8.594   1.312   7.718  0.1616 -4.3224 -1.9316
  315MOL0     H42462   8.465   1.251   7.472  0.7688  0.9689  0.7528
  315MOL0     H42463   8.482   1.151   7.608 -1.8768  0.1729  1.2051
  315MOL0     H42464   8.291   1.268   7.750  0.6079 -0.0191  0.3091
  315MOL0     H42465   8.254   1.364   7.617  0.1827  0.5662  0.4307
  315MOL0     H42466   8.116   1.191   7.554 -1.1103 -1.0570 -0.7207
  315MOL0     H42467   8.265   1.122   7.487 -1.8436 -0.2485 -0.7917
  315MOL0     H42468   8.297   1.030   7.723 -2.0797 -3.1000  3.7539
  315MOL0     H42469   8.133   1.077   7.751 -0.2572  1.3809 -1.8755
  315MOL0     H42470   8.054   0.904   7.595  0.2690  0.2674 -0.1851
  315MOL0     H42471   8.213   0.900   7.509 -0.7448 -2.9880  0.0393
  315MOL0     H42472   8.319   0.817   7.733 -0.1379  1.2716  1.6490
  315MOL0     H42473   8.159   0.814   7.801  0.1821  2.0755 -0.8167
  315MOL0     H42474   8.057   0.674   7.669  0.5760  0.9021 -2.9617
  315MOL0     H42475   8.202   0.589   7.745  3.3222  0.2153 -0.9731
  315MOL0     H42476   8.363   0.481   7.584 -1.5951  0.3119  2.1819
  315MOL0     H42477   8.325   0.413   7.185 -3.2558 -0.9893  1.2185
  315MOL0     H42478   8.470   0.426   7.297 -0.0963  4.4652 -1.5226
  315MOL0     H42479   8.238   0.252   7.360  0.0294  0.2992  0.2208
  315MOL0     H42480   8.398   0.235   7.422  0.5801 -3.3144 -1.8320
  315MOL0     H42481   8.489   0.180   7.186  0.7592 -0.5734  1.4179
  315MOL0     H42482   8.322   0.181   7.133  2.4472 -1.7274 -2.1389
  315MOL0     H42483   8.458  -0.039   7.263 -1.6495 -3.1037  0.4202
  315MOL0     H42484   8.344  -0.038   7.148 -0.1690 -0.8665  0.0495
  315MOL0     H42485   8.101  -0.099   7.542 -1.7646  2.2476  1.3429
  315MOL0     H42486   7.776  -0.063   7.577  1.8663  1.1962 -0.0984
  315MOL0     H42487   7.790  -0.233   7.529  1.9386 -0.2126 -1.5384
  315MOL0     H42488   7.916  -0.158   7.635 -0.1359 -1.6409  0.1284
  315MOL0     H42489   7.554   0.198   7.179 -1.1098  0.0429  0.6696
  315MOL0     H42490   7.342   0.238   7.074 -1.3669 -0.2791  0.1831
  315MOL0     H42491   7.085  -0.126   6.959  2.2256 -2.6179  2.2213
  315MOL0     H42492   7.085  -0.089   7.133  0.2565 -3.1489 -0.3091
  315MOL0     H42493   6.919   0.063   6.922  2.4495 -2.2759 -0.9798
  315MOL0     H42494   6.852  -0.082   7.003 -0.2954 -0.0698 -1.1076
  315MOL0     H42495   6.935   0.197   7.096  0.4073 -1.0763 -1.9552
  315MOL0     H42496   6.907   0.070   7.221  2.5370 -1.1652  0.0782
  315MOL0     H42497   6.679   0.043   7.161  2.0422 -0.6247  1.4255
  315MOL0     H42498   6.702   0.191   7.219 -3.9329 -1.6533  0.5711
  315MOL0     H42499   6.735   0.168   6.916  1.7279  0.7175  0.7924
  315MOL0     H42500   6.699   0.309   7.019 -1.0698 -0.0634  1.7651
  315MOL0     H42501   6.466   0.237   7.057 -2.4624 -1.3093 -0.4548
  315MOL0     H42502   6.498   0.254   6.888  1.2525  0.6496 -0.6432
  315MOL0     H42503   6.363   0.036   6.961  0.2774  2.7720  0.7986
  315MOL0     H42504   6.490  -0.015   7.062 -3.4048  0.1114  0.8830
  315MOL0     H42505   6.627  -0.043   6.848 -0.3902  0.0044 -2.3264
  315MOL0     H42506   6.497   0.036   6.755 -1.0135 -1.0789 -0.8515
  315MOL0     H42507   7.284  -0.183   7.000 -0.4811 -0.1363  2.0755
  315MOL0     H42508   7.511  -0.223   7.077 -2.0984 -1.5853 -2.7438
  315MOL0     H42509   7.899   0.059   7.125 -2.6091  0.2480  1.4974
  315MOL0     H42510   8.134   0.074   7.158 -0.6037 -0.2842 -0.2008
  315MOL0     H42511   8.767   1.458   7.713 -1.7331 -1.6098 -1.9135
  315MOL0     H42512   8.938   1.614   7.673  1.0819  0.8837 -2.8632
  315MOL0     H42513   9.079   1.973   7.350 -1.5950 -0.1681  0.2656
  315MOL0     H42514   9.298   2.101   7.301 -2.0527 -1.3669 -1.3994
  315MOL0     H42515   9.544   2.419   7.520  2.9763 -1.8867  0.7754
  315MOL0     H42516   9.424   2.357   7.630 -1.0436 -0.8424 -0.2017
  315MOL0     H42517   9.632   2.184   7.476 -0.3946 -0.3041  0.1708
  315MOL0     H42518   9.503   2.134   7.585  0.5962 -1.1979  1.7340
  315MOL0     H42519   9.677   2.355   7.705  3.1002 -0.4042  0.6092
  315MOL0     H42520   9.761   2.211   7.653 -1.0451 -0.2355 -2.6478
  315MOL0     H42521   9.726   2.186   7.880 -0.8797  0.3637  1.4962
  315MOL0     H42522   9.665   2.065   7.785  4.2241  0.9409 -0.7786
  315MOL0     H42523   9.314   2.160   7.971 -1.2119 -1.0545 -2.2997
  315MOL0     H42524   9.203   2.353   7.638 -0.6943  1.1380 -0.7008
  315MOL0     H42525   9.023   2.204   7.710  0.9967  3.9962 -0.1510
  316MOL0     O42526   9.311   9.304   2.364  0.7794 -0.0301 -0.0458
  316MOL0     C42527   9.384   9.233   2.297  0.1801 -0.3885 -0.6123
  316MOL0     O42528   9.342   9.129   2.210  0.4909  0.0333 -0.3017
  316MOL0     C42529   9.202   9.110   2.194  0.1927 -0.0926 -0.4571
  316MOL0     C42530   9.146   9.141   2.069  0.3608 -1.0248 -0.4829
  316MOL0     C42531   9.008   9.142   2.050  0.4376 -0.0022 -0.3789
  316MOL0     C42532   8.923   9.100   2.158 -0.3894  0.1645  0.4101
  316MOL0     O42533   8.789   9.083   2.126 -0.1258  0.6880  0.1264
  316MOL0     C42534   8.721   8.984   2.209 -0.2787  0.0913  0.7943
  316MOL0     C42535   8.622   9.030   2.307  0.4441 -0.0714  0.2235
  316MOL0     C42536   8.505   8.933   2.336 -0.7375  0.1305  0.5400
  316MOL0     C42537   8.532   8.826   2.441 -0.4329  0.3358 -0.1965
  316MOL0     C42538   8.436   8.709   2.434  0.1035  0.0185 -0.2160
  316MOL0     C42539   8.298   8.746   2.493  0.2843  0.3378 -0.4695
  316MOL0     C42540   8.201   8.623   2.458  0.5945 -0.0720  0.1706
  316MOL0     C42541   8.080   8.608   2.561  0.1281  0.3671 -0.0597
  316MOL0     N42542   8.000   8.732   2.562  0.1733 -0.4561  0.0808
  316MOL0     C42543   8.002   8.842   2.651 -0.8736  0.4605  0.2758
  316MOL0     C42544   7.901   8.922   2.607 -0.2930 -0.6885 -0.3810
  316MOL0     C42545   7.860   9.051   2.669 -0.4865 -0.4350  0.0040
  316MOL0     C42546   7.742   9.046   2.776  0.2716 -0.0646  0.0591
  316MOL0     C42547   7.614   9.094   2.698 -0.6995  0.1524 -0.2896
  316MOL0     C42548   7.482   9.089   2.779 -0.5387 -0.1902  0.6699
  316MOL0     O42549   7.459   9.222   2.821 -1.0253 -0.5117 -0.1899
  316MOL0     C42550   7.332   9.254   2.865 -0.1813  0.3672 -0.3612
  316MOL0     C42551   7.305   9.392   2.888  0.1740 -0.0595  0.7766
  316MOL0     C42552   7.182   9.435   2.942 -0.4348  0.3798  0.3663
  316MOL0     C42553   7.160   9.584   2.953 -0.5145  0.6125 -1.2513
  316MOL0     C42554   7.086   9.340   2.985  0.0453  0.5199 -0.4753
  316MOL0     C42555   6.951   9.367   3.056 -0.1990  0.3634 -0.7885
  316MOL0     O42556   6.907   9.266   3.132 -0.1732  0.4188  0.5329
  316MOL0     C42557   6.793   9.263   3.208 -0.1646 -0.2051  0.6745
  316MOL0     C42558   6.752   9.138   3.242  0.1466 -0.1088  0.0595
  316MOL0     C42559   6.635   9.116   3.311  0.8016 -0.4671  0.6365
  316MOL0     C42560   6.552   9.214   3.351 -0.3704 -0.0887 -0.1838
  316MOL0     O42561   6.430   9.197   3.421  0.1511  0.4368  0.1269
  316MOL0     C42562   6.395   9.062   3.470 -0.7184 -0.1400  0.3069
  316MOL0     C42563   6.307   9.089   3.589 -0.8202 -0.1993  0.6825
  316MOL0     C42564   6.255   8.971   3.674 -1.4471  0.4684  0.4667
  316MOL0     C42565   6.134   8.997   3.759  0.0317 -0.4318  0.5700
  316MOL0     C42566   6.107   8.870   3.830 -0.4814  0.0199  0.7174
  316MOL0     C42567   5.963   8.870   3.880 -0.2765 -0.9549 -0.8382
  316MOL0     C42568   5.926   8.957   3.997  0.4631  0.6535 -0.6483
  316MOL0     C42569   5.774   8.985   4.017 -0.1718 -0.3898 -0.1159
  316MOL0    Cl42570   5.732   9.084   3.880  0.0222 -0.4685 -0.4752
  316MOL0     C42571   6.588   9.345   3.321  0.0369 -0.1893  0.3922
  316MOL0     C42572   6.710   9.372   3.249 -0.2243 -0.8855 -0.4479
  316MOL0     O42573   6.889   9.474   3.032  0.2308 -0.4315  1.1346
  316MOL0     C42574   7.123   9.206   2.962  0.8267  0.0018  0.4936
  316MOL0     C42575   7.239   9.160   2.910  0.1328 -1.1086  0.1784
  316MOL0     N42576   7.849   8.878   2.483 -0.1174  0.1894 -0.6540
  316MOL0     N42577   7.905   8.763   2.465 -0.3470  0.0635 -0.2062
  316MOL0     C42578   8.980   9.078   2.280  0.5848  0.7820 -0.1670
  316MOL0     C42579   9.117   9.078   2.302 -0.4715 -0.5655  0.2307
  316MOL0     C42580   9.528   9.252   2.342 -0.2727 -1.1884  0.1872
  316MOL0     C42581   9.572   9.349   2.435  0.4782 -0.2248  0.4927
  316MOL0     C42582   9.707   9.353   2.471 -0.5561 -0.9270  0.6011
  316MOL0     C42583   9.800   9.268   2.411 -0.1391  0.1138 -0.8564
  316MOL0     O42584   9.941   9.268   2.433  0.4100  0.2943 -0.4649
  316MOL0     C42585  10.004   9.394   2.410 -0.3106 -0.0438 -0.7819
  316MOL0     C42586  10.153   9.383   2.366 -0.2082  0.5498 -0.3790
  316MOL0     C42587  10.243   9.348   2.490 -0.2297 -0.3061  0.0458
  316MOL0     C42588  10.400   9.319   2.470  0.6243  0.3410  0.2125
  316MOL0     C42589  10.423   9.215   2.374 -0.1014 -0.0526  0.1628
  316MOL0     C42590  10.433   9.117   2.306  0.9535  0.0660 -0.2133
  316MOL0     C42591   9.758   9.182   2.313  0.5689  0.3329 -0.3042
  316MOL0     C42592   9.628   9.178   2.280 -0.1257  0.1357 -0.8230
  316MOL0     H42593   9.210   9.154   1.983 -0.6326  1.7204 -0.9244
  316MOL0     H42594   8.966   9.171   1.954 -3.1624  1.3693  1.4480
  316MOL0     H42595   8.665   8.927   2.134 -1.5325  2.9735 -0.5992
  316MOL0     H42596   8.789   8.912   2.256  0.9001 -0.4613 -1.5731
  316MOL0     H42597   8.670   9.041   2.405  1.6434 -0.3400 -0.3125
  316MOL0     H42598   8.574   9.122   2.272  0.4297 -0.5344 -1.0209
  316MOL0     H42599   8.420   8.992   2.371 -1.4163  0.4793 -1.5757
  316MOL0     H42600   8.470   8.888   2.242 -1.1479 -2.7551  1.9517
  316MOL0     H42601   8.635   8.791   2.442  0.0116  1.5839 -0.9779
  316MOL0     H42602   8.505   8.879   2.533 -0.8453 -0.5148  0.1883
  316MOL0     H42603   8.436   8.668   2.333 -0.2128 -0.6069  0.0353
  316MOL0     H42604   8.469   8.622   2.492  2.1289 -0.2711 -1.7159
  316MOL0     H42605   8.303   8.747   2.602 -1.1582  0.4956 -0.3832
  316MOL0     H42606   8.253   8.838   2.453 -1.5421  0.4310  1.6056
  316MOL0     H42607   8.152   8.646   2.363  2.8375 -0.8045 -1.2478
  316MOL0     H42608   8.251   8.527   2.442 -0.2053 -0.5659  0.5812
  316MOL0     H42609   8.122   8.585   2.660  1.9069 -0.6045 -0.9880
  316MOL0     H42610   8.015   8.525   2.532  1.4861 -0.0191 -2.2640
  316MOL0     H42611   8.064   8.871   2.735  0.2534  2.6123 -1.2141
  316MOL0     H42612   7.949   9.099   2.711 -0.8644  1.2036 -0.9439
  316MOL0     H42613   7.829   9.122   2.591  1.4399  1.3590  0.7739
  316MOL0     H42614   7.772   9.104   2.863  0.6687 -3.0709  2.1071
  316MOL0     H42615   7.725   8.945   2.816 -1.5423 -0.3110 -1.1708
  316MOL0     H42616   7.598   9.025   2.615 -1.8363  0.7953 -0.6124
  316MOL0     H42617   7.638   9.191   2.655 -0.3009 -0.9028 -2.5748
  316MOL0     H42618   7.496   9.025   2.866  0.2054  1.1742  1.5848
  316MOL0     H42619   7.399   9.061   2.714  0.2912  0.8259 -0.9055
  316MOL0     H42620   7.379   9.467   2.861 -0.0562 -0.6886 -1.8549
  316MOL0     H42621   7.245   9.650   2.931  1.8209 -1.5572  0.6470
  316MOL0     H42622   7.067   9.610   2.903 -1.5174 -0.3183  0.0544
  316MOL0     H42623   7.138   9.612   3.056 -3.0917  0.8142 -1.8003
  316MOL0     H42624   6.808   9.051   3.209 -0.1592 -0.6725  0.9737
  316MOL0     H42625   6.624   9.009   3.327  0.2435 -0.6931 -1.0252
  316MOL0     H42626   6.353   8.999   3.391 -0.2650  0.9803 -0.8490
  316MOL0     H42627   6.484   9.011   3.510  1.9033  2.4520 -1.8176
  316MOL0     H42628   6.363   9.152   3.658 -1.0288  0.3329  0.3727
  316MOL0     H42629   6.218   9.144   3.556 -1.4523  0.2432  2.9635
  316MOL0     H42630   6.332   8.941   3.746 -0.4358 -0.0272 -0.7577
  316MOL0     H42631   6.236   8.883   3.611 -0.8628 -2.4460  4.0268
  316MOL0     H42632   6.137   9.080   3.830 -1.3884 -0.2069  0.3949
  316MOL0     H42633   6.059   9.009   3.680  0.0272 -2.0360  0.2838
  316MOL0     H42634   6.180   8.853   3.910  1.6896 -0.0246 -1.1728
  316MOL0     H42635   6.120   8.789   3.757 -1.0749 -0.0334  0.6676
  316MOL0     H42636   5.897   8.904   3.799  0.2914  0.3392 -0.7666
  316MOL0     H42637   5.939   8.767   3.909 -0.7504 -0.4670  0.6054
  316MOL0     H42638   5.959   9.061   3.992 -0.4967  1.1095  1.4338
  316MOL0     H42639   5.974   8.913   4.084  1.5943 -1.0386 -2.0518
  316MOL0     H42640   5.757   9.027   4.117 -1.0770  3.4063 -1.6839
  316MOL0     H42641   5.709   8.897   4.017 -1.0690  0.2514  0.2327
  316MOL0     H42642   6.523   9.427   3.350 -0.9583 -0.8494  0.0942
  316MOL0     H42643   6.730   9.475   3.220 -1.9683 -0.3217  0.1909
  316MOL0     H42644   7.057   9.129   3.000 -2.1903  2.1819  0.0678
  316MOL0     H42645   7.233   9.052   2.898 -2.6680 -0.9350 -0.6998
  316MOL0     H42646   8.915   9.042   2.359 -0.7875 -1.7717 -2.3215
  316MOL0     H42647   9.159   9.071   2.402 -0.2576 -1.7116  0.0695
  316MOL0     H42648   9.504   9.417   2.484  0.3658 -1.2780  1.8563
  316MOL0     H42649   9.748   9.441   2.518 -4.3909  2.1668 -1.2280
  316MOL0     H42650   9.952   9.449   2.331  1.8290 -1.2254 -3.1892
  316MOL0     H42651  10.005   9.453   2.502  2.1862 -2.6003  1.0410
  316MOL0     H42652  10.191   9.480   2.332 -2.3297  1.6360  0.2143
  316MOL0     H42653  10.151   9.305   2.289 -2.6496 -0.9904  1.0998
  316MOL0     H42654  10.205   9.252   2.526  2.8514 -2.9639 -3.0545
  316MOL0     H42655  10.241   9.425   2.567 -1.3402  0.9053 -1.1293
  316MOL0     H42656  10.431   9.284   2.569 -0.1134  0.2849  0.4311
  316MOL0     H42657  10.463   9.402   2.437  1.6981  0.4825  2.4649
  316MOL0     H42658  10.445   9.031   2.243  3.3365 -1.6622  2.3421
  316MOL0     H42659   9.841   9.123   2.275 -1.5636 -3.1574  0.0138
  316MOL0     H42660   9.606   9.107   2.200 -0.3925 -1.0404  0.2467
  317MOL0     O42661   4.168  10.444   7.035 -0.0015  0.3131 -0.5369
  317MOL0     C42662   4.140  10.452   7.154 -0.1342  0.7369  0.2406
  317MOL0     O42663   4.228  10.495   7.261  0.2180  0.3564 -0.1704
  317MOL0     C42664   4.362  10.518   7.228 -0.7602 -0.0964 -0.6598
  317MOL0     C42665   4.439  10.440   7.137  0.6228 -1.1279 -0.4748
  317MOL0     C42666   4.572  10.487   7.113  0.1702 -0.0112 -0.0112
  317MOL0     C42667   4.630  10.597   7.172  0.2690 -0.1957 -0.0402
  317MOL0     O42668   4.761  10.642   7.148 -0.3472 -0.5340  0.2366
  317MOL0     C42669   4.774  10.693   7.013 -0.6065 -0.1323 -1.3629
  317MOL0     C42670   4.891  10.794   7.016 -0.1328  0.3338  1.0433
  317MOL0     C42671   5.023  10.741   7.081  0.2381  0.7677 -0.2570
  317MOL0     C42672   5.142  10.845   7.046  0.3211  0.2970  0.0630
  317MOL0     C42673   5.278  10.785   6.995  0.0467 -0.4351 -0.3962
  317MOL0     C42674   5.375  10.895   6.943 -0.3888  0.5885 -0.7751
  317MOL0     C42675   5.491  10.831   6.865 -0.0784 -0.0915  0.2219
  317MOL0     C42676   5.575  10.740   6.946  0.0670  0.3965  0.0393
  317MOL0     N42677   5.693  10.682   6.875 -0.1194 -0.4641 -0.2808
  317MOL0     C42678   5.807  10.756   6.884 -0.1484  0.1363 -0.4522
  317MOL0     C42679   5.892  10.675   6.812 -0.2384  0.7181  0.3173
  317MOL0     C42680   6.036  10.687   6.773  0.3905  0.7750 -0.0494
  317MOL0     C42681   6.043  10.749   6.627 -0.2907 -0.1951  0.1013
  317MOL0     C42682   6.119  10.885   6.608  0.9190 -0.5808 -0.4435
  317MOL0     C42683   6.265  10.884   6.657 -0.0957  0.7784  0.2783
  317MOL0     O42684   6.334  10.821   6.550  0.6273 -0.0932  0.0025
  317MOL0     C42685   6.470  10.806   6.564 -0.3441  1.0239  0.0452
  317MOL0     C42686   6.531  10.732   6.460  0.1960 -0.4084 -0.2847
  317MOL0     C42687   6.664  10.714   6.453 -0.6547  0.4316 -0.1536
  317MOL0     C42688   6.716  10.625   6.341 -0.1203  0.0094 -0.7789
  317MOL0     C42689   6.749  10.774   6.555 -0.2687  0.1797 -0.5056
  317MOL0     C42690   6.901  10.766   6.564 -0.9350  0.3384 -1.1555
  317MOL0     O42691   6.964  10.794   6.684  0.1443  0.9196 -0.0424
  317MOL0     C42692   7.102  10.794   6.698 -0.6522 -0.3133  0.4793
  317MOL0     C42693   7.160  10.903   6.776  0.3221  0.3476  0.1013
  317MOL0     C42694   7.293  10.913   6.805 -0.0140  0.5333  0.7100
  317MOL0     C42695   7.382  10.812   6.755  0.5945 -0.4917 -0.7737
  317MOL0     O42696   7.518  10.818   6.764  1.5803 -0.1475 -0.1480
  317MOL0     C42697   7.567  10.900   6.870 -0.5175 -0.1997 -0.3460
  317MOL0     C42698   7.714  10.864   6.858  0.1526  0.0615 -0.0110
  317MOL0     C42699   7.786  10.937   6.977  1.1286 -0.3835  0.7200
  317MOL0     C42700   7.831  10.847   7.089  1.1913  0.5320  0.4756
  317MOL0     C42701   7.946  10.889   7.164 -1.0658 -0.1200  0.1547
  317MOL0     C42702   7.964  10.820   7.300  0.3742 -0.7390  0.1196
  317MOL0     C42703   8.084  10.855   7.373 -1.1571 -0.0536 -0.5110
  317MOL0     C42704   8.090  10.790   7.518 -0.1736 -0.3021  0.2045
  317MOL0    Cl42705   8.245  10.833   7.593 -0.0894  0.0783  0.0703
  317MOL0     C42706   7.332  10.704   6.692 -0.4322 -0.1324 -0.2637
  317MOL0     C42707   7.192  10.692   6.666  0.2329  0.3108 -0.0301
  317MOL0     O42708   6.966  10.732   6.467  0.6036 -0.2481  0.0444
  317MOL0     C42709   6.682  10.824   6.672  0.3847 -0.0981  0.2518
  317MOL0     C42710   6.550  10.841   6.681  0.8100 -0.3667 -0.1675
  317MOL0     N42711   5.829  10.557   6.779 -0.0335 -0.0475  0.3306
  317MOL0     N42712   5.701  10.575   6.805  0.1964  0.3295 -0.1600
  317MOL0     C42713   4.551  10.664   7.264 -0.2420 -0.0152 -0.2485
  317MOL0     C42714   4.421  10.624   7.295  0.0402 -0.6697  0.7812
  317MOL0     C42715   4.004  10.407   7.200  0.2056  0.0571 -0.6578
  317MOL0     C42716   3.901  10.398   7.103  0.4624 -0.1365 -0.2914
  317MOL0     C42717   3.778  10.357   7.140  0.2308 -0.0364  0.8077
  317MOL0     C42718   3.743  10.321   7.269 -0.2204 -0.4227 -0.8172
  317MOL0     O42719   3.618  10.271   7.318 -0.3274 -0.1802 -0.0465
  317MOL0     C42720   3.511  10.261   7.219 -0.3426  0.0226  0.7250
  317MOL0     C42721   3.519  10.130   7.137 -0.0851 -0.5761  0.8023
  317MOL0     C42722   3.429  10.131   7.018 -0.3618 -0.0063  0.6589
  317MOL0     C42723   3.291  10.068   7.045 -0.4359 -0.3355 -0.3210
  317MOL0     C42724   3.200  10.163   7.104  0.3282 -0.5271  0.0672
  317MOL0     C42725   3.135  10.243   7.170  0.6590 -0.0808 -0.9641
  317MOL0     C42726   3.842  10.338   7.369 -0.6672 -0.5078 -0.2254
  317MOL0     C42727   3.972  10.379   7.335 -0.1412  1.1736 -0.2989
  317MOL0     H42728   4.403  10.355   7.082 -1.6316 -1.4810  1.4075
  317MOL0     H42729   4.617  10.436   7.028 -1.1921 -0.6952 -0.3512
  317MOL0     H42730   4.789  10.612   6.942  1.3752 -1.0167 -0.0225
  317MOL0     H42731   4.679  10.741   6.988  0.6194  3.6730  0.4198
  317MOL0     H42732   4.917  10.808   6.910 -0.9324 -1.2259  0.6079
  317MOL0     H42733   4.872  10.895   7.053 -3.0438 -1.0303  3.7134
  317MOL0     H42734   4.999  10.731   7.187  0.7850  0.4584 -0.1595
  317MOL0     H42735   5.033  10.637   7.049 -2.9181  0.0436  0.7488
  317MOL0     H42736   5.110  10.920   6.973  3.2164 -0.0010 -1.6991
  317MOL0     H42737   5.169  10.895   7.139 -0.5666  0.3956  0.2684
  317MOL0     H42738   5.321  10.732   7.081 -0.7182 -2.0437 -0.9596
  317MOL0     H42739   5.256  10.710   6.918  2.5646  0.6965 -2.3672
  317MOL0     H42740   5.314  10.964   6.883 -3.4169 -2.3321 -1.3631
  317MOL0     H42741   5.409  10.936   7.038  1.2482 -2.6818  0.2056
  317MOL0     H42742   5.444  10.775   6.784  0.2718  0.8354 -0.6595
  317MOL0     H42743   5.554  10.906   6.816  3.4760 -3.3385 -0.6608
  317MOL0     H42744   5.512  10.657   6.981 -4.0975  2.5437 -1.6990
  317MOL0     H42745   5.606  10.790   7.038  1.5817 -3.2887  1.7243
  317MOL0     H42746   5.833  10.848   6.935  0.5492 -0.6443  0.6470
  317MOL0     H42747   6.097  10.750   6.838  0.5829  1.1546 -0.6042
  317MOL0     H42748   6.086  10.590   6.769  0.2448  0.7228 -0.6161
  317MOL0     H42749   5.945  10.772   6.584  0.3816  0.0085 -1.3919
  317MOL0     H42750   6.088  10.669   6.568 -0.2330 -0.0733 -0.0219
  317MOL0     H42751   6.061  10.959   6.663  0.6975 -0.5800 -0.6760
  317MOL0     H42752   6.122  10.911   6.501 -0.1567 -1.3254 -0.6740
  317MOL0     H42753   6.280  10.834   6.753  1.4970  0.3215 -0.1821
  317MOL0     H42754   6.290  10.990   6.666  0.0576  0.9533 -1.7714
  317MOL0     H42755   6.461  10.706   6.381 -0.1550  0.4454 -0.2615
  317MOL0     H42756   6.731  10.659   6.239  0.2375  0.5876 -0.5386
  317MOL0     H42757   6.803  10.576   6.386 -1.0904 -1.5932 -0.5705
  317MOL0     H42758   6.645  10.542   6.346 -1.1109  0.8386  3.6391
  317MOL0     H42759   7.089  10.977   6.811 -0.8396  1.2210 -3.6089
  317MOL0     H42760   7.334  10.995   6.863  2.9231 -1.8345  2.2656
  317MOL0     H42761   7.559  11.009   6.864  1.7404  0.2535  2.8412
  317MOL0     H42762   7.517  10.879   6.965 -1.2326  0.9615 -0.4472
  317MOL0     H42763   7.736  10.757   6.855 -1.4816 -0.3824  1.5764
  317MOL0     H42764   7.757  10.917   6.772 -0.1863 -0.3054 -0.4143
  317MOL0     H42765   7.727  11.024   7.005  1.3775  0.2461 -0.6056
  317MOL0     H42766   7.882  10.977   6.943  1.2751 -3.2404 -2.8733
  317MOL0     H42767   7.746  10.829   7.155  1.1613  0.8129  0.5154
  317MOL0     H42768   7.861  10.752   7.044 -0.9670  0.3322 -0.6891
  317MOL0     H42769   7.946  10.987   7.213  1.5054 -0.0722  0.1950
  317MOL0     H42770   8.034  10.886   7.101 -2.3633  3.4205 -2.1347
  317MOL0     H42771   7.888  10.858   7.369 -0.1504 -0.3050 -0.6874
  317MOL0     H42772   7.936  10.715   7.288  0.6313 -1.0959  2.2875
  317MOL0     H42773   8.088  10.963   7.393  0.7560 -0.7696  4.2792
  317MOL0     H42774   8.172  10.826   7.315 -1.0786  0.3723 -0.6131
  317MOL0     H42775   8.077  10.682   7.520 -0.3967 -0.3227 -1.1115
  317MOL0     H42776   8.002  10.822   7.575 -0.6716  0.2030 -0.8154
  317MOL0     H42777   7.402  10.627   6.659  0.1526  0.4562 -0.4248
  317MOL0     H42778   7.153  10.607   6.610 -1.3652  1.2442 -0.3895
  317MOL0     H42779   6.742  10.872   6.749  1.8899  1.2530 -1.6884
  317MOL0     H42780   6.509  10.882   6.773  1.2333 -0.6914  0.1702
  317MOL0     H42781   4.595  10.744   7.322  0.8986  1.8840 -3.4589
  317MOL0     H42782   4.368  10.688   7.365  0.1570 -2.0086  2.1518
  317MOL0     H42783   3.917  10.420   6.998 -3.0457 -2.6465 -1.5533
  317MOL0     H42784   3.701  10.357   7.064  0.0459  2.5080  0.9268
  317MOL0     H42785   3.416  10.273   7.271 -1.3198  0.5572 -1.1224
  317MOL0     H42786   3.510  10.351   7.156 -0.4709  0.4540  1.3308
  317MOL0     H42787   3.493  10.049   7.206 -0.1880 -1.7032 -0.5163
  317MOL0     H42788   3.623  10.121   7.103  0.7711 -2.4714  3.5705
  317MOL0     H42789   3.477  10.068   6.942 -0.0719  2.7087 -1.6041
  317MOL0     H42790   3.424  10.231   6.974 -0.2099 -0.7205 -1.0632
  317MOL0     H42791   3.304   9.978   7.106  0.1478  0.7961  1.2818
  317MOL0     H42792   3.238  10.039   6.954 -3.4194  0.8767  0.8855
  317MOL0     H42793   3.067  10.315   7.212  0.3656 -1.3759  0.9152
  317MOL0     H42794   3.820  10.326   7.474  3.0751  0.3756  0.8027
  317MOL0     H42795   4.039  10.389   7.420  0.5715 -1.9819 -0.3501
  318MOL0     O42796   2.670   5.625   6.515  0.5924 -0.3096  0.3711
  318MOL0     C42797   2.689   5.669   6.627  0.0510 -0.4209 -0.2328
  318MOL0     O42798   2.601   5.737   6.701  0.3583  0.5977 -0.1621
  318MOL0     C42799   2.478   5.770   6.643  0.4249 -0.3628 -0.0537
  318MOL0     C42800   2.467   5.887   6.564  0.5550  0.0020 -0.4242
  318MOL0     C42801   2.333   5.917   6.510 -0.3966  0.6232  1.0145
  318MOL0     C42802   2.222   5.839   6.536 -0.8918  0.4763  0.0002
  318MOL0     O42803   2.094   5.883   6.500 -0.2040  0.0299  0.4844
  318MOL0     C42804   2.068   6.021   6.453 -0.5099 -0.4011 -0.1905
  318MOL0     C42805   1.924   6.074   6.463  0.5112  0.0250 -0.0182
  318MOL0     C42806   1.864   6.073   6.605 -0.4500 -0.3876  0.1651
  318MOL0     C42807   1.738   6.154   6.614  0.3952  0.2909 -0.3405
  318MOL0     C42808   1.675   6.138   6.752 -0.1512  0.4287  0.1005
  318MOL0     C42809   1.590   6.012   6.770  0.1905 -0.6507  0.6307
  318MOL0     C42810   1.511   6.020   6.907 -0.3149  0.9030  0.5109
  318MOL0     C42811   1.381   5.930   6.919  0.4922  0.1175 -0.3715
  318MOL0     N42812   1.257   6.001   6.921 -0.8882 -0.4427  0.3187
  318MOL0     C42813   1.131   5.953   6.906  1.1120 -0.3110  0.1899
  318MOL0     C42814   1.047   6.053   6.943 -0.6065  0.1159  0.6680
  318MOL0     C42815   0.897   6.064   6.928 -0.1373  0.4956  0.1698
  318MOL0     C42816   0.866   6.042   6.781 -0.2440  0.0457  0.1323
  318MOL0     C42817   0.721   6.018   6.751 -0.8271  0.3749  0.0015
  318MOL0     C42818   0.656   6.152   6.753 -0.1482  0.1254 -0.0110
  318MOL0     O42819   0.515   6.130   6.730  1.3006  0.0455 -0.0283
  318MOL0     C42820   0.420   6.234   6.705  0.3907  0.0666 -0.2299
  318MOL0     C42821   0.468   6.365   6.674  0.7452 -0.2194  0.0327
  318MOL0     C42822   0.379   6.471   6.660  0.8092 -0.2022  0.0441
  318MOL0     C42823   0.438   6.608   6.643  0.7116  0.1800 -0.2091
  318MOL0     C42824   0.244   6.448   6.666 -0.2091 -0.4613 -0.2870
  318MOL0     C42825   0.143   6.559   6.666  0.9318  1.0819 -0.1810
  318MOL0     O42826   0.174   6.677   6.736 -0.2479  0.3246  0.0750
  318MOL0     C42827   0.121   6.803   6.702 -0.8547  0.9285  0.4893
  318MOL0     C42828   0.195   6.910   6.740  0.5021  0.1876  0.3609
  318MOL0     C42829   0.142   7.043   6.733 -0.8843 -0.3209 -0.2866
  318MOL0     C42830   0.021   7.070   6.678 -0.9757  0.2626 -0.7488
  318MOL0     O42831  -0.032   7.194   6.699  0.0171 -0.0779  0.1103
  318MOL0     C42832  -0.157   7.216   6.630  0.7554 -0.1203 -0.1073
  318MOL0     C42833  -0.280   7.185   6.717 -0.0759  0.1237 -0.1386
  318MOL0     C42834  -0.407   7.227   6.652  0.5028  0.1377 -0.6267
  318MOL0     C42835  -0.539   7.180   6.735  0.1416  0.3999 -0.2207
  318MOL0     C42836  -0.661   7.187   6.651 -0.3160  0.0731  0.6937
  318MOL0     C42837  -0.780   7.132   6.728  0.1586  0.8622 -0.1042
  318MOL0     C42838  -0.901   7.120   6.629 -0.2238 -0.7274  0.4354
  318MOL0     C42839  -1.025   7.069   6.695  0.3037 -0.8117 -0.3467
  318MOL0    Cl42840  -1.114   6.936   6.606 -0.1705  0.0206 -0.0683
  318MOL0     C42841  -0.045   6.960   6.620 -0.0519 -0.2853  0.0446
  318MOL0     C42842   0.004   6.836   6.629  0.8153  0.2385 -0.1869
  318MOL0     O42843   0.056   6.538   6.582 -0.0231  0.1030 -0.3924
  318MOL0     C42844   0.196   6.315   6.673 -0.3646  0.3266  0.0980
  318MOL0     C42845   0.278   6.208   6.693  1.0282 -0.2405  0.1642
  318MOL0     N42846   1.130   6.161   6.978  0.1530 -0.0918  0.4401
  318MOL0     N42847   1.255   6.133   6.958  0.1140  0.1355 -0.2907
  318MOL0     C42848   2.236   5.722   6.610  0.5250 -0.9103 -0.3447
  318MOL0     C42849   2.363   5.686   6.660 -0.6921  0.2455  0.1925
  318MOL0     C42850   2.813   5.633   6.704  0.3454  0.1205  0.8860
  318MOL0     C42851   2.841   5.689   6.831  0.0995 -0.0010  0.3570
  318MOL0     C42852   2.966   5.655   6.890 -0.7177 -0.2835  0.3685
  318MOL0     C42853   3.054   5.568   6.830 -0.0500  0.0694  1.0437
  318MOL0     O42854   3.164   5.523   6.902  0.4702  0.3131  0.2124
  318MOL0     C42855   3.288   5.480   6.842  0.5437 -0.2148  0.5407
  318MOL0     C42856   3.406   5.511   6.932 -0.1713  0.2338 -0.1331
  318MOL0     C42857   3.533   5.548   6.860  0.4913  0.2432  0.9428
  318MOL0     C42858   3.649   5.515   6.958 -0.0394 -0.1238  0.6204
  318MOL0     C42859   3.787   5.554   6.909  0.3777  0.2757  0.0661
  318MOL0     C42860   3.890   5.586   6.861 -0.3845 -0.0853 -0.5651
  318MOL0     C42861   3.031   5.516   6.701 -0.3657 -0.0396  0.1931
  318MOL0     C42862   2.908   5.553   6.639 -0.1119  0.1977  0.2407
  318MOL0     H42863   2.553   5.949   6.542 -0.2280  1.3456  0.1717
  318MOL0     H42864   2.334   6.004   6.446  1.1040  1.4868  2.1316
  318MOL0     H42865   2.136   6.084   6.511 -0.1504 -0.3407 -0.6696
  318MOL0     H42866   2.101   6.036   6.350  2.3544 -0.5493  0.6208
  318MOL0     H42867   1.918   6.168   6.408  2.0569  0.8749  1.1514
  318MOL0     H42868   1.860   6.001   6.412  0.3454  1.7512 -2.4111
  318MOL0     H42869   1.851   5.970   6.638  1.8852 -0.4616  1.0540
  318MOL0     H42870   1.932   6.129   6.671 -2.9572 -0.1242  2.6909
  318MOL0     H42871   1.744   6.258   6.582 -0.9589  0.4162 -0.2347
  318MOL0     H42872   1.669   6.119   6.538 -1.0252  0.3703  0.8619
  318MOL0     H42873   1.749   6.142   6.832  0.1155  1.9356 -0.1945
  318MOL0     H42874   1.609   6.225   6.763  1.8752  2.6384 -3.3068
  318MOL0     H42875   1.520   6.009   6.685  0.6560 -0.0186  0.2181
  318MOL0     H42876   1.663   5.931   6.768  3.3135  1.9787 -1.2838
  318MOL0     H42877   1.570   6.000   6.997 -2.0622  0.7100  1.6530
  318MOL0     H42878   1.484   6.126   6.906  0.8592  1.2206  0.5995
  318MOL0     H42879   1.377   5.878   7.015 -0.4647  0.9790  0.0631
  318MOL0     H42880   1.392   5.861   6.834  0.7477 -0.1431 -0.1321
  318MOL0     H42881   1.112   5.851   6.873  2.3947 -0.7423  0.7100
  318MOL0     H42882   0.849   5.981   6.981 -0.1665  0.4752  0.1108
  318MOL0     H42883   0.862   6.161   6.964 -1.5092 -0.1907  0.7425
  318MOL0     H42884   0.915   5.951   6.745 -0.0573 -0.0055  0.5150
  318MOL0     H42885   0.905   6.125   6.722 -0.5533 -1.4205 -2.2907
  318MOL0     H42886   0.676   5.953   6.827  1.1934 -0.8550  0.2194
  318MOL0     H42887   0.709   5.961   6.659  3.6950 -0.0751 -0.5011
  318MOL0     H42888   0.697   6.210   6.670 -0.5935 -1.3665 -1.3239
  318MOL0     H42889   0.685   6.203   6.846  0.4304 -0.8114  0.3318
  318MOL0     H42890   0.573   6.389   6.669  0.4104  1.8263  1.5239
  318MOL0     H42891   0.543   6.608   6.613  1.6004  0.2108  2.6799
  318MOL0     H42892   0.376   6.666   6.574 -3.0939 -2.4533  0.6525
  318MOL0     H42893   0.432   6.665   6.736 -2.6323  1.0152 -0.7920
  318MOL0     H42894   0.287   6.887   6.792  3.5600  2.9340 -3.3274
  318MOL0     H42895   0.205   7.119   6.778 -1.8022  0.3115 -0.0546
  318MOL0     H42896  -0.165   7.322   6.603 -0.9983  1.1337  4.3519
  318MOL0     H42897  -0.166   7.161   6.536  0.7131  1.9603 -1.3780
  318MOL0     H42898  -0.276   7.077   6.739  0.0932  0.4583  1.6451
  318MOL0     H42899  -0.273   7.236   6.814  0.5159 -1.9290  0.9568
  318MOL0     H42900  -0.416   7.184   6.552  0.3340 -0.5021 -0.3420
  318MOL0     H42901  -0.419   7.336   6.643 -3.3628 -0.3296 -3.7791
  318MOL0     H42902  -0.514   7.076   6.757 -0.5379 -0.1065 -1.6927
  318MOL0     H42903  -0.550   7.247   6.821  0.2851  1.6134 -1.1126
  318MOL0     H42904  -0.644   7.124   6.563 -0.1046 -0.2030  0.9314
  318MOL0     H42905  -0.688   7.289   6.622 -3.1281 -0.2424  1.9051
  318MOL0     H42906  -0.754   7.035   6.773 -1.5469 -0.0217 -0.9202
  318MOL0     H42907  -0.801   7.198   6.813 -2.0271 -2.3783  2.0995
  318MOL0     H42908  -0.872   7.057   6.545  0.4485  0.8222 -0.5266
  318MOL0     H42909  -0.922   7.218   6.584 -1.3564 -0.6668  1.0375
  318MOL0     H42910  -1.093   7.151   6.718 -0.2065 -1.2910 -0.1219
  318MOL0     H42911  -1.008   7.029   6.795 -1.1828  2.4924  1.3900
  318MOL0     H42912  -0.144   6.964   6.576  0.7729 -5.4557 -3.1744
  318MOL0     H42913  -0.058   6.754   6.595  0.9855 -0.0583  0.2044
  318MOL0     H42914   0.088   6.305   6.685 -0.0045 -0.0960  4.6712
  318MOL0     H42915   0.239   6.106   6.691  2.6902 -1.0008  2.6205
  318MOL0     H42916   2.147   5.674   6.650  0.3226  0.6917  1.2443
  318MOL0     H42917   2.373   5.592   6.714 -0.5180  0.3514  0.3488
  318MOL0     H42918   2.766   5.748   6.882 -1.3116 -0.9721 -0.5120
  318MOL0     H42919   2.990   5.698   6.987 -0.9926  1.8703 -0.4476
  318MOL0     H42920   3.280   5.373   6.819 -1.0780 -0.4497  2.0185
  318MOL0     H42921   3.299   5.521   6.741  0.1417  0.1321  0.6359
  318MOL0     H42922   3.409   5.417   6.989 -2.7840  0.3518  0.3132
  318MOL0     H42923   3.369   5.592   6.994  1.4808  0.2057  0.9527
  318MOL0     H42924   3.539   5.653   6.828 -1.3385  0.2126  0.3843
  318MOL0     H42925   3.545   5.481   6.774 -0.4400  1.6936 -0.3874
  318MOL0     H42926   3.644   5.410   6.988 -2.5286 -0.3702 -0.4722
  318MOL0     H42927   3.644   5.580   7.046  1.1526  1.4328 -0.3902
  318MOL0     H42928   3.993   5.591   6.832 -0.8917  2.9605 -2.2852
  318MOL0     H42929   3.105   5.456   6.648 -0.8238  0.5699 -1.1758
  318MOL0     H42930   2.878   5.515   6.542  2.0717 -0.3978 -0.2573
  319MOL0     O42931   9.654   7.481   2.240 -0.2522  0.6028  0.3049
  319MOL0     C42932   9.631   7.597   2.215 -0.6150 -0.8118 -0.5454
  319MOL0     O42933   9.504   7.657   2.232  0.0074 -0.5335  0.1903
  319MOL0     C42934   9.400   7.594   2.285 -0.6681 -1.5147  0.3770
  319MOL0     C42935   9.385   7.462   2.282  0.7242 -0.1009 -0.5589
  319MOL0     C42936   9.267   7.403   2.339  0.4957 -0.4619  0.5811
  319MOL0     C42937   9.180   7.483   2.415  0.2695  0.2882 -0.2697
  319MOL0     O42938   9.084   7.427   2.496 -0.1652 -0.4002  0.5823
  319MOL0     C42939   9.073   7.282   2.514 -0.7735  0.9608  0.6553
  319MOL0     C42940   8.998   7.258   2.641  0.9369 -1.2487  0.2764
  319MOL0     C42941   8.848   7.289   2.625 -0.9370  0.1294 -0.1410
  319MOL0     C42942   8.778   7.301   2.754  0.4485  0.3792  0.1750
  319MOL0     C42943   8.635   7.355   2.737  0.1643 -0.0228  0.2163
  319MOL0     C42944   8.539   7.241   2.686 -0.4353  0.1818 -0.3797
  319MOL0     C42945   8.404   7.290   2.639 -0.4229  0.0092  1.0287
  319MOL0     C42946   8.339   7.362   2.758  0.4097 -0.1978  0.6218
  319MOL0     N42947   8.193   7.383   2.739 -0.4162 -0.2538  0.0037
  319MOL0     C42948   8.121   7.488   2.794 -0.6471  0.0676 -0.8621
  319MOL0     C42949   7.996   7.450   2.790  0.7481  0.5703 -0.1337
  319MOL0     C42950   7.870   7.524   2.825  0.6947  0.1101 -0.3208
  319MOL0     C42951   7.771   7.526   2.711  0.0864  0.2419  0.5809
  319MOL0     C42952   7.815   7.630   2.605 -0.0353  0.2558  0.6980
  319MOL0     C42953   7.725   7.616   2.478 -0.1060 -0.0429 -0.0742
  319MOL0     O42954   7.587   7.645   2.509 -0.1872 -0.0742 -0.1790
  319MOL0     C42955   7.475   7.628   2.424  1.0837  0.3960  0.0831
  319MOL0     C42956   7.351   7.670   2.473 -0.0323 -0.1182  0.6024
  319MOL0     C42957   7.238   7.659   2.388 -0.6630 -1.2261 -0.8309
  319MOL0     C42958   7.105   7.708   2.440  0.4592 -0.8648  0.6805
  319MOL0     C42959   7.248   7.611   2.257  0.5286 -0.7445  0.1132
  319MOL0     C42960   7.129   7.603   2.166 -0.5202 -0.4161  0.0947
  319MOL0     O42961   7.095   7.484   2.119  0.2008 -0.1471 -0.2184
  319MOL0     C42962   6.977   7.458   2.053 -0.0417  0.0931  0.1378
  319MOL0     C42963   6.906   7.547   1.969 -0.0855  0.7377  0.3263
  319MOL0     C42964   6.786   7.504   1.907  0.6524 -0.2820  0.3093
  319MOL0     C42965   6.750   7.369   1.908  0.2744  0.3563 -0.3285
  319MOL0     O42966   6.634   7.342   1.845 -0.2120 -0.0748 -0.4033
  319MOL0     C42967   6.599   7.203   1.831 -0.6954  0.9113 -0.1835
  319MOL0     C42968   6.497   7.177   1.730  0.9321  0.4101 -0.2197
  319MOL0     C42969   6.423   7.037   1.735 -0.1946  0.2110 -0.3367
  319MOL0     C42970   6.344   7.002   1.617  0.0831 -0.3662  0.1368
  319MOL0     C42971   6.216   6.921   1.643  0.9930  0.4581  0.3513
  319MOL0     C42972   6.234   6.782   1.707 -0.0693 -0.9672 -0.4509
  319MOL0     C42973   6.100   6.701   1.705  0.2376 -0.5444  0.7877
  319MOL0     C42974   6.130   6.569   1.760  0.4885  1.0914  0.0246
  319MOL0    Cl42975   5.973   6.470   1.735 -0.0612 -0.6437  0.2504
  319MOL0     C42976   6.828   7.284   1.982  0.1701 -0.6785  0.7850
  319MOL0     C42977   6.942   7.324   2.059  0.1866 -0.4220  0.2609
  319MOL0     O42978   7.068   7.707   2.143 -0.6359 -1.0540  0.1468
  319MOL0     C42979   7.374   7.578   2.210 -0.5952  1.0618  0.0480
  319MOL0     C42980   7.492   7.587   2.292  0.4016 -0.0308  0.4448
  319MOL0     N42981   7.998   7.316   2.751  0.5080 -0.0476  0.1176
  319MOL0     N42982   8.114   7.278   2.714  0.3820 -0.0101 -0.5282
  319MOL0     C42983   9.205   7.618   2.421  0.5090 -0.4127  0.0699
  319MOL0     C42984   9.310   7.675   2.355 -0.4812  0.7263  0.0043
  319MOL0     C42985   9.730   7.681   2.137  0.5446  0.1202 -0.4080
  319MOL0     C42986   9.761   7.814   2.183 -0.1845  0.4323  0.2630
  319MOL0     C42987   9.865   7.886   2.128 -1.3657 -0.8678 -0.1881
  319MOL0     C42988   9.931   7.841   2.012 -0.1859  0.2596 -0.0967
  319MOL0     O42989  10.020   7.912   1.936  0.5704 -0.0433  0.2741
  319MOL0     C42990  10.113   7.841   1.858 -0.2689 -0.3970  0.2489
  319MOL0     C42991  10.240   7.920   1.830  0.0364  0.4535  0.5229
  319MOL0     C42992  10.285   7.996   1.950 -0.4945  0.4592 -0.3127
  319MOL0     C42993  10.405   8.087   1.921 -0.1715 -0.3183  0.6519
  319MOL0     C42994  10.515   8.002   1.874 -0.8127  0.1185 -0.1317
  319MOL0     C42995  10.610   7.948   1.827 -0.1243  0.3264 -0.2522
  319MOL0     C42996   9.895   7.710   1.965 -1.0430  0.2408 -0.3630
  319MOL0     C42997   9.797   7.634   2.030  0.0802 -0.6661  0.1453
  319MOL0     H42998   9.448   7.391   2.228 -0.1530 -2.5161  1.3891
  319MOL0     H42999   9.250   7.297   2.322  1.7010 -0.3985 -1.3248
  319MOL0     H43000   9.030   7.226   2.430  0.0353 -1.1437  1.5974
  319MOL0     H43001   9.172   7.239   2.527 -1.1104 -0.5754 -1.3243
  319MOL0     H43002   9.008   7.154   2.674 -2.0377 -2.4314 -2.1164
  319MOL0     H43003   9.042   7.319   2.720 -1.7622  0.1202  0.8351
  319MOL0     H43004   8.838   7.386   2.576  1.6775  1.6465  2.0072
  319MOL0     H43005   8.797   7.221   2.557 -0.9273  0.5633 -0.5941
  319MOL0     H43006   8.790   7.203   2.799  1.0394  1.0556  1.5418
  319MOL0     H43007   8.827   7.370   2.823 -1.3941  1.3196  0.6310
  319MOL0     H43008   8.593   7.383   2.834 -1.3637  1.8494 -0.9209
  319MOL0     H43009   8.635   7.441   2.669 -3.1527  0.7588  1.0495
  319MOL0     H43010   8.580   7.196   2.595  0.0311  1.1624 -0.6662
  319MOL0     H43011   8.525   7.162   2.760  1.2585  0.3953  0.2029
  319MOL0     H43012   8.419   7.369   2.565 -0.9452 -0.4916  0.3749
  319MOL0     H43013   8.342   7.206   2.606 -0.6173 -0.9855  3.6610
  319MOL0     H43014   8.390   7.459   2.763  3.4569 -1.5076 -1.4274
  319MOL0     H43015   8.355   7.312   2.853  0.3959 -1.7710 -0.1752
  319MOL0     H43016   8.151   7.588   2.826  0.2318  0.1137 -1.7929
  319MOL0     H43017   7.827   7.471   2.910 -0.0228 -1.1727 -1.4359
  319MOL0     H43018   7.890   7.627   2.857  0.7576 -0.5261  1.7831
  319MOL0     H43019   7.679   7.564   2.755  0.6496  1.6581  0.6009
  319MOL0     H43020   7.756   7.423   2.676 -1.6666  0.2102  1.3581
  319MOL0     H43021   7.917   7.613   2.570 -0.3600 -1.3959  0.4493
  319MOL0     H43022   7.809   7.731   2.645  0.5565  0.4333  0.3434
  319MOL0     H43023   7.752   7.517   2.439 -1.4654 -0.6484  0.4833
  319MOL0     H43024   7.758   7.696   2.412  0.2039  0.8174  1.0950
  319MOL0     H43025   7.342   7.716   2.571 -0.5360  3.3100 -0.9196
  319MOL0     H43026   7.120   7.753   2.538  0.9663 -1.7424  1.0133
  319MOL0     H43027   7.064   7.785   2.374  3.1965  1.1539  1.1364
  319MOL0     H43028   7.043   7.618   2.435  0.4375 -0.9299  2.0181
  319MOL0     H43029   6.937   7.651   1.961  1.3467  0.3790  0.9739
  319MOL0     H43030   6.725   7.563   1.840  0.4202 -1.2680 -0.3561
  319MOL0     H43031   6.686   7.142   1.805  1.0618  3.0723  0.3660
  319MOL0     H43032   6.563   7.166   1.928  0.4811  0.0966 -0.0335
  319MOL0     H43033   6.413   7.245   1.743  0.3084 -0.1459 -1.1818
  319MOL0     H43034   6.535   7.194   1.629 -0.9959  0.9453 -0.9059
  319MOL0     H43035   6.346   7.049   1.812 -1.0874  0.2408 -1.2202
  319MOL0     H43036   6.490   6.956   1.764 -0.6296  0.6426  2.1497
  319MOL0     H43037   6.313   7.096   1.569  2.2524  0.6069  0.5115
  319MOL0     H43038   6.395   6.948   1.536  0.1927 -0.2642  0.1373
  319MOL0     H43039   6.158   6.912   1.550  0.9831 -2.2155  0.5333
  319MOL0     H43040   6.145   6.973   1.708 -0.6616 -1.6417  0.3503
  319MOL0     H43041   6.307   6.724   1.650 -1.3920 -2.8461 -0.2865
  319MOL0     H43042   6.265   6.785   1.813 -0.4801  0.1704 -0.3486
  319MOL0     H43043   6.062   6.694   1.603 -1.3487  0.9977  1.2209
  319MOL0     H43044   6.021   6.752   1.761  0.1104 -0.4837  0.5524
  319MOL0     H43045   6.138   6.578   1.868 -0.8709  0.2396  0.2251
  319MOL0     H43046   6.213   6.511   1.718 -1.6955 -1.8051 -0.6393
  319MOL0     H43047   6.799   7.180   1.997 -1.0117 -0.4441  0.2766
  319MOL0     H43048   6.993   7.259   2.130 -0.3764 -0.8941  0.2355
  319MOL0     H43049   7.363   7.549   2.106 -3.4208 -2.3757  1.1049
  319MOL0     H43050   7.585   7.561   2.244 -0.6350 -0.8669 -1.1940
  319MOL0     H43051   9.133   7.669   2.484  0.0252  3.3121 -3.0825
  319MOL0     H43052   9.309   7.782   2.371 -1.8862  0.3870  2.7988
  319MOL0     H43053   9.702   7.857   2.263 -1.2472 -0.4867 -0.0007
  319MOL0     H43054   9.886   7.987   2.160  0.4803 -1.1858 -0.3238
  319MOL0     H43055  10.145   7.748   1.906 -0.2152 -2.0149 -2.6551
  319MOL0     H43056  10.065   7.818   1.762 -2.6485 -3.1820  1.9609
  319MOL0     H43057  10.214   7.976   1.740 -2.5108 -1.6148 -0.1706
  319MOL0     H43058  10.317   7.847   1.803  0.2947  0.7083  0.5679
  319MOL0     H43059  10.311   7.924   2.028  2.8318  1.6216 -0.2059
  319MOL0     H43060  10.195   8.052   1.976 -1.4899 -2.0623  2.2284
  319MOL0     H43061  10.446   8.150   2.000  0.1483  2.7287 -1.7664
  319MOL0     H43062  10.377   8.153   1.839  0.2497 -1.1736 -0.1982
  319MOL0     H43063  10.704   7.914   1.787  1.1575  2.2853  0.8961
  319MOL0     H43064   9.935   7.662   1.876  1.3911 -1.3688  1.4554
  319MOL0     H43065   9.772   7.535   1.991  0.1034 -0.6350  0.0517
  320MOL0     O43066  10.917   9.622   6.386  0.1940  0.0733 -0.9122
  320MOL0     C43067  10.984   9.633   6.492 -0.2208 -0.5901 -0.6257
  320MOL0     O43068  10.941   9.687   6.614  0.4418  0.1919  0.1723
  320MOL0     C43069  10.809   9.699   6.628  0.5301 -0.7710  0.1182
  320MOL0     C43070  10.719   9.593   6.639 -0.0167  0.4400  0.0408
  320MOL0     C43071  10.582   9.620   6.653  0.4232 -0.3581  0.4704
  320MOL0     C43072  10.533   9.754   6.665  0.3495 -0.2094 -0.1381
  320MOL0     O43073  10.399   9.771   6.691  0.0476 -0.4485  0.1761
  320MOL0     C43074  10.349   9.907   6.699  0.7333 -0.0181  0.0628
  320MOL0     C43075  10.201   9.908   6.725  0.7003  0.6557  0.0515
  320MOL0     C43076  10.142  10.044   6.741  1.2850 -0.5506 -0.7793
  320MOL0     C43077  10.198  10.114   6.866  0.3290  0.5433  0.3744
  320MOL0     C43078  10.121  10.247   6.899  0.0351  0.0868 -0.1714
  320MOL0     C43079  10.189  10.341   7.003  0.7624 -0.0664  0.3841
  320MOL0     C43080  10.208  10.277   7.143  0.2164 -0.1643 -0.3797
  320MOL0     C43081  10.102  10.303   7.246  0.9061 -0.6491 -0.5650
  320MOL0     N43082   9.965  10.278   7.195 -0.2246 -0.9725  0.2736
  320MOL0     C43083   9.882  10.372   7.150  0.6661 -0.0007  0.2659
  320MOL0     C43084   9.766  10.311   7.108  0.3718 -0.2505 -0.0236
  320MOL0     C43085   9.659  10.375   7.019 -0.7136  0.2939  0.2347
  320MOL0     C43086   9.509  10.375   7.064  0.0202 -0.6023  0.6002
  320MOL0     C43087   9.464  10.234   7.064 -0.6212  0.1533 -0.1768
  320MOL0     C43088   9.311  10.241   7.069  0.1990 -0.7706  0.0832
  320MOL0     O43089   9.278  10.282   7.202 -0.9269 -0.1995 -0.5461
  320MOL0     C43090   9.152  10.262   7.237  1.2525 -0.1540  0.0198
  320MOL0     C43091   9.098  10.141   7.278  0.4588 -0.7177 -0.1574
  320MOL0     C43092   8.966  10.118   7.298 -0.0380  0.8246  0.5910
  320MOL0     C43093   8.939   9.985   7.365 -0.2833 -0.1634  0.1630
  320MOL0     C43094   8.874  10.226   7.275  0.1845  0.3620 -0.0434
  320MOL0     C43095   8.729  10.215   7.309  0.3500  0.7212 -0.3449
  320MOL0     O43096   8.663  10.337   7.306  0.1557  0.4932  0.2861
  320MOL0     C43097   8.529  10.340   7.344  0.3774  0.1060  0.8123
  320MOL0     C43098   8.478  10.437   7.427 -0.1118  0.2385  0.1264
  320MOL0     C43099   8.340  10.455   7.450  0.4333 -0.0337  0.6403
  320MOL0     C43100   8.250  10.364   7.401  0.2608  0.2083  1.4284
  320MOL0     O43101   8.118  10.384   7.418 -0.0033 -0.3671 -0.0684
  320MOL0     C43102   8.049  10.422   7.293 -0.0312 -0.6177 -0.3351
  320MOL0     C43103   7.902  10.431   7.320  0.3691 -0.8569 -0.6332
  320MOL0     C43104   7.818  10.452   7.196  0.5419 -0.3828 -0.4441
  320MOL0     C43105   7.680  10.468   7.234  0.6587  0.8460 -0.2655
  320MOL0     C43106   7.573  10.529   7.138 -1.0988 -0.1660  0.9496
  320MOL0     C43107   7.439  10.547   7.193 -0.0584 -0.2271  0.2608
  320MOL0     C43108   7.351  10.627   7.108  0.3733  0.4381  0.2372
  320MOL0     C43109   7.202  10.621   7.159 -0.2694  0.2824  0.4422
  320MOL0    Cl43110   7.099  10.708   7.053 -0.0807 -0.4090 -0.1415
  320MOL0     C43111   8.298  10.248   7.336 -0.3154 -0.2604  0.1866
  320MOL0     C43112   8.436  10.240   7.299  0.7559 -0.7449  0.1703
  320MOL0     O43113   8.677  10.107   7.335  0.3846  0.1601  0.5634
  320MOL0     C43114   8.924  10.357   7.235  0.2510 -0.3341  0.0559
  320MOL0     C43115   9.062  10.376   7.227 -0.7442  0.3952  0.1323
  320MOL0     N43116   9.786  10.172   7.124 -0.2202  0.7174 -0.7256
  320MOL0     N43117   9.907  10.160   7.185 -0.7488  0.0095 -0.5412
  320MOL0     C43118  10.624   9.862   6.656 -0.1582  0.7185 -0.5703
  320MOL0     C43119  10.759   9.833   6.641  0.0214 -0.4721 -0.3984
  320MOL0     C43120  11.114   9.553   6.487 -0.0756 -0.9198  0.4681
  320MOL0     C43121  11.184   9.504   6.591  0.5077  0.1861 -0.1041
  320MOL0     C43122  11.312   9.456   6.575  0.1997  0.5793  0.3334
  320MOL0     C43123  11.365   9.436   6.444 -0.5793 -0.1489  0.4507
  320MOL0     O43124  11.482   9.369   6.413  0.3785 -0.0408 -0.2970
  320MOL0     C43125  11.548   9.304   6.528  0.0038 -0.4058  0.9050
  320MOL0     C43126  11.679   9.243   6.480 -0.1278 -0.2869  0.5164
  320MOL0     C43127  11.760   9.212   6.601  0.8639  0.2113 -0.4106
  320MOL0     C43128  11.898   9.146   6.566 -0.3634 -0.2520  0.1752
  320MOL0     C43129  11.977   9.131   6.689  0.6871 -0.1956 -0.1664
  320MOL0     C43130  12.059   9.129   6.777 -0.0999 -0.6551  0.4375
  320MOL0     C43131  11.288   9.481   6.338 -0.8900  0.3177  0.2570
  320MOL0     C43132  11.164   9.543   6.361 -0.7591 -0.2636 -0.2692
  320MOL0     H43133  10.758   9.494   6.620  1.6995  1.5189 -2.5505
  320MOL0     H43134  10.507   9.541   6.657 -0.4703  0.4641  0.2622
  320MOL0     H43135  10.401   9.957   6.782  1.0626 -0.0654 -0.1132
  320MOL0     H43136  10.364   9.969   6.610  0.9233 -0.9925 -0.5994
  320MOL0     H43137  10.160   9.850   6.643 -0.9336 -0.6721  1.7343
  320MOL0     H43138  10.171   9.853   6.814 -2.7737 -0.2290 -1.4981
  320MOL0     H43139  10.148  10.102   6.649 -0.2177  2.3695  0.8355
  320MOL0     H43140  10.034  10.037   6.757  1.3362  2.2845  1.6195
  320MOL0     H43141  10.200  10.057   6.959 -1.5026  1.7114  1.1861
  320MOL0     H43142  10.297  10.148   6.833  0.3407 -0.1089 -0.2908
  320MOL0     H43143  10.114  10.306   6.808 -1.0066  2.5049  1.3748
  320MOL0     H43144  10.016  10.231   6.927  0.6680  0.1870  2.6200
  320MOL0     H43145  10.288  10.361   6.962  1.2665  0.9346  2.0391
  320MOL0     H43146  10.131  10.434   7.008  2.6128  1.2435 -1.1907
  320MOL0     H43147  10.221  10.170   7.122  0.5474 -0.4205  1.0694
  320MOL0     H43148  10.303  10.309   7.187 -1.2057 -0.1315  2.9218
  320MOL0     H43149  10.115  10.407   7.279 -2.1210  0.3026 -2.0380
  320MOL0     H43150  10.109  10.232   7.328 -1.9656 -1.9743 -1.3399
  320MOL0     H43151   9.894  10.480   7.148  2.6480 -0.0218  3.6625
  320MOL0     H43152   9.692  10.479   7.008 -1.4286  0.4806 -0.1755
  320MOL0     H43153   9.657  10.334   6.918 -0.2417  0.4207  0.1727
  320MOL0     H43154   9.446  10.439   7.000  0.5620 -0.5806  0.0806
  320MOL0     H43155   9.503  10.407   7.169  1.3933  1.2156  0.1753
  320MOL0     H43156   9.511  10.183   7.149 -1.3126 -0.4348 -0.1398
  320MOL0     H43157   9.500  10.190   6.971 -1.0755  1.4422 -0.9815
  320MOL0     H43158   9.268  10.142   7.050 -2.4559  0.1835  0.7166
  320MOL0     H43159   9.262  10.296   6.989 -0.4791  0.1580  1.1183
  320MOL0     H43160   9.187  10.080   7.286  2.0844  1.6403  1.3476
  320MOL0     H43161   8.881   9.917   7.301  1.1810 -1.4037  0.1106
  320MOL0     H43162   9.030   9.926   7.374  0.4898  1.1073  0.9151
  320MOL0     H43163   8.896   9.994   7.465  1.2429  0.7715  0.7690
  320MOL0     H43164   8.545  10.513   7.467  1.9054 -0.9287 -0.8657
  320MOL0     H43165   8.313  10.544   7.506 -1.7897 -1.5783  2.2102
  320MOL0     H43166   8.089  10.521   7.270  0.1539 -0.6436 -0.1320
  320MOL0     H43167   8.072  10.338   7.226  1.1147 -0.9186  0.3943
  320MOL0     H43168   7.883  10.342   7.381 -0.3532 -1.1516 -1.2717
  320MOL0     H43169   7.892  10.519   7.385  2.6568 -2.2341  1.8014
  320MOL0     H43170   7.828  10.363   7.133  3.8076 -0.8557  0.5607
  320MOL0     H43171   7.857  10.539   7.141 -0.6436  0.2073 -0.3761
  320MOL0     H43172   7.645  10.372   7.273 -3.2714  3.3324  3.2147
  320MOL0     H43173   7.681  10.530   7.324 -2.0005  0.2636  0.2601
  320MOL0     H43174   7.572  10.459   7.054 -1.2342  0.8463  0.0990
  320MOL0     H43175   7.616  10.624   7.105 -3.1166  1.0073  1.5625
  320MOL0     H43176   7.389  10.451   7.208 -0.7378 -0.8399 -4.3440
  320MOL0     H43177   7.451  10.596   7.290  0.2207  0.9508 -0.3515
  320MOL0     H43178   7.360  10.587   7.006 -1.5925 -1.4644  0.7170
  320MOL0     H43179   7.368  10.734   7.105  0.5058  0.4253 -2.7495
  320MOL0     H43180   7.182  10.657   7.261 -0.4771  0.8270  0.2125
  320MOL0     H43181   7.172  10.516   7.167  0.8133 -0.0559  0.3081
  320MOL0     H43182   8.226  10.171   7.307 -0.7444  0.3370 -0.3676
  320MOL0     H43183   8.466  10.159   7.233 -1.1448 -0.7558 -0.7529
  320MOL0     H43184   8.854  10.434   7.207 -3.0159 -2.3244  2.0813
  320MOL0     H43185   9.106  10.473   7.208 -0.7049  1.2796  3.9215
  320MOL0     H43186  10.592   9.966   6.662  0.9972  1.1127 -0.9209
  320MOL0     H43187  10.841   9.903   6.647 -1.5903  1.4179  1.1888
  320MOL0     H43188  11.132   9.524   6.684  1.7249  1.1851  0.3851
  320MOL0     H43189  11.365   9.419   6.663 -0.0607  2.1765  1.2041
  320MOL0     H43190  11.584   9.395   6.579 -1.3553  1.0521 -0.6069
  320MOL0     H43191  11.473   9.245   6.581 -0.6510  0.5144  1.0490
  320MOL0     H43192  11.731   9.322   6.425  2.8194 -1.8234  0.9026
  320MOL0     H43193  11.667   9.151   6.423  0.0694  0.8229 -1.3808
  320MOL0     H43194  11.702   9.156   6.674  2.7307  2.4098  3.0301
  320MOL0     H43195  11.779   9.311   6.644  0.6544 -0.1516  0.5374
  320MOL0     H43196  11.955   9.200   6.492  1.3067 -1.8517  0.2185
  320MOL0     H43197  11.891   9.050   6.514 -0.0858 -0.0637 -0.2128
  320MOL0     H43198  12.147   9.127   6.839  1.2148 -1.3719 -1.3656
  320MOL0     H43199  11.329   9.469   6.238  2.1280 -0.1276  1.4539
  320MOL0     H43200  11.104   9.584   6.280  0.0961 -0.7458 -1.1743
  321MOL0     O43201   1.688  10.517   7.389  0.1664  0.3706  0.4234
  321MOL0     C43202   1.725  10.622   7.331 -0.2853  0.1269  0.0813
  321MOL0     O43203   1.638  10.721   7.283  0.5348  0.6368 -0.2133
  321MOL0     C43204   1.503  10.718   7.317 -0.2406  0.9750 -0.1839
  321MOL0     C43205   1.458  10.811   7.410 -0.5971 -1.0804 -0.6239
  321MOL0     C43206   1.323  10.805   7.463 -0.6022  0.5341  0.6996
  321MOL0     C43207   1.231  10.719   7.401  0.0033  0.5418 -0.5640
  321MOL0     O43208   1.101  10.702   7.421  0.3411 -0.0343 -0.2575
  321MOL0     C43209   1.033  10.780   7.519  0.1354 -0.4156 -0.3735
  321MOL0     C43210   0.888  10.729   7.539 -0.5395  0.1375 -0.5465
  321MOL0     C43211   0.885  10.594   7.611  0.1114 -0.6475 -0.3331
  321MOL0     C43212   0.764  10.510   7.586 -0.3359 -0.8191  0.1880
  321MOL0     C43213   0.633  10.578   7.646 -0.6340 -0.5634  0.2910
  321MOL0     C43214   0.513  10.488   7.642  0.3438 -0.1697 -0.2261
  321MOL0     C43215   0.380  10.557   7.625 -0.1434  0.4638 -0.0558
  321MOL0     C43216   0.358  10.635   7.742  0.1371  0.1439  0.7039
  321MOL0     N43217   0.218  10.684   7.758  0.4490  0.0761 -0.8927
  321MOL0     C43218   0.176  10.761   7.871 -0.0784  0.4142 -1.0671
  321MOL0     C43219   0.044  10.754   7.865  0.6198 -0.6471 -0.1200
  321MOL0     C43220  -0.043  10.829   7.971 -0.7582 -0.2890  0.5163
  321MOL0     C43221  -0.044  10.749   8.107  0.0774 -0.7319  0.8010
  321MOL0     C43222  -0.126  10.624   8.106  0.5160 -0.0133  1.2050
  321MOL0     C43223  -0.276  10.651   8.099  0.9947  0.4022  1.0881
  321MOL0     O43224  -0.312  10.734   8.213  0.2196 -0.4343 -0.1825
  321MOL0     C43225  -0.443  10.787   8.227 -0.3301  0.3275 -0.2992
  321MOL0     C43226  -0.555  10.747   8.154  0.8824  0.3515 -0.3420
  321MOL0     C43227  -0.686  10.787   8.185  0.5663  0.1129 -0.8179
  321MOL0     C43228  -0.797  10.725   8.101  0.4857 -0.2861 -0.4584
  321MOL0     C43229  -0.705  10.885   8.287  0.4231  0.4879  0.2228
  321MOL0     C43230  -0.833  10.942   8.330  0.4341  0.2941  0.2482
  321MOL0     O43231  -0.833  11.067   8.399  0.3995 -0.2989 -0.2210
  321MOL0     C43232  -0.957  11.134   8.427 -0.0087  0.0851  0.0274
  321MOL0     C43233  -1.063  11.134   8.332 -0.5881  0.1111 -1.2177
  321MOL0     C43234  -1.185  11.193   8.368 -0.1604 -1.7044  0.2925
  321MOL0     C43235  -1.206  11.248   8.494 -0.5305  0.9620 -0.5372
  321MOL0     O43236  -1.324  11.297   8.522  0.0167 -0.3246 -0.9632
  321MOL0     C43237  -1.434  11.207   8.519  0.1717 -0.4452 -0.2641
  321MOL0     C43238  -1.563  11.288   8.552  0.1401 -0.5188 -1.2304
  321MOL0     C43239  -1.575  11.309   8.704 -0.0217 -0.5367 -0.2919
  321MOL0     C43240  -1.682  11.415   8.726 -0.8300 -0.7048 -0.1115
  321MOL0     C43241  -1.828  11.364   8.696 -0.0904  0.3991  0.2464
  321MOL0     C43242  -1.926  11.468   8.754 -0.3132 -1.0594 -0.0659
  321MOL0     C43243  -2.070  11.434   8.712  0.3644  0.2863 -0.6968
  321MOL0     C43244  -2.178  11.523   8.781 -0.7677  0.0555 -0.0145
  321MOL0    Cl43245  -2.341  11.465   8.711  0.1032  0.2036 -0.3568
  321MOL0     C43246  -1.102  11.258   8.587  0.5326  0.0282  0.6671
  321MOL0     C43247  -0.976  11.205   8.544 -0.1968  0.2948 -0.2698
  321MOL0     O43248  -0.931  10.875   8.312 -0.0865 -1.0533 -0.2262
  321MOL0     C43249  -0.596  10.931   8.356 -0.2908 -0.2799 -0.1089
  321MOL0     C43250  -0.468  10.887   8.321  0.4720 -0.4263 -0.3246
  321MOL0     N43251  -0.000  10.675   7.765 -0.2738 -0.0847  0.3584
  321MOL0     N43252   0.105  10.626   7.704 -0.2636  0.7287 -0.6658
  321MOL0     C43253   1.279  10.631   7.306 -0.5393  0.2385  0.0187
  321MOL0     C43254   1.409  10.634   7.260  0.4111 -0.4333 -1.2395
  321MOL0     C43255   1.868  10.634   7.297 -0.3806 -0.0297 -0.5494
  321MOL0     C43256   1.907  10.715   7.195  0.3512 -0.1455  0.6090
  321MOL0     C43257   2.043  10.722   7.157  0.2952 -0.0188 -0.1782
  321MOL0     C43258   2.139  10.639   7.225  0.2966 -0.0291 -0.9787
  321MOL0     O43259   2.267  10.643   7.174 -0.2689 -0.9193  0.7254
  321MOL0     C43260   2.353  10.548   7.239  0.1353  0.1294 -0.5465
  321MOL0     C43261   2.482  10.548   7.163  0.8852  0.1683 -0.0272
  321MOL0     C43262   2.576  10.441   7.223 -1.1080  0.5580  0.1534
  321MOL0     C43263   2.718  10.418   7.158  0.4279 -0.0735 -0.4783
  321MOL0     C43264   2.697  10.373   7.021 -0.1714  0.7490  0.5293
  321MOL0     C43265   2.666  10.333   6.910 -0.5849  0.2335 -0.5347
  321MOL0     C43266   2.099  10.566   7.343  0.3264  1.1418  1.3848
  321MOL0     C43267   1.965  10.567   7.371 -0.1050  0.0169  0.3566
  321MOL0     H43268   1.532  10.884   7.442 -0.0685 -1.1272 -1.7000
  321MOL0     H43269   1.286  10.874   7.538  0.4878  0.9936  0.8340
  321MOL0     H43270   1.091  10.767   7.611 -1.1512  0.2118  0.5510
  321MOL0     H43271   1.036  10.888   7.502 -1.2764 -0.2597  0.2311
  321MOL0     H43272   0.840  10.804   7.604  0.3167 -1.3207  1.9073
  321MOL0     H43273   0.823  10.723   7.452 -2.5270 -0.0916  0.8809
  321MOL0     H43274   0.974  10.537   7.584  0.0216 -0.1833 -1.6792
  321MOL0     H43275   0.880  10.614   7.719  0.9544  0.4381 -0.4817
  321MOL0     H43276   0.741  10.493   7.481 -1.1344 -2.0846  0.5407
  321MOL0     H43277   0.786  10.412   7.630  0.3730 -1.0563 -0.6672
  321MOL0     H43278   0.650  10.632   7.739  2.6983 -0.6865 -0.1210
  321MOL0     H43279   0.618  10.657   7.571  0.2890 -0.1138  0.5726
  321MOL0     H43280   0.518  10.396   7.583  1.3771 -1.5584  1.8917
  321MOL0     H43281   0.503  10.440   7.740  2.1776 -2.2900 -0.9854
  321MOL0     H43282   0.382  10.622   7.537 -1.8725  0.6154 -0.0172
  321MOL0     H43283   0.306  10.479   7.610  0.6108 -0.0413 -1.2380
  321MOL0     H43284   0.422  10.724   7.742 -2.3024  2.0576  1.9986
  321MOL0     H43285   0.395  10.572   7.823  1.0065 -2.5329 -1.6337
  321MOL0     H43286   0.235  10.814   7.945 -1.9250  1.3374 -0.2030
  321MOL0     H43287   0.002  10.928   7.982 -3.2172  0.7570  2.0720
  321MOL0     H43288  -0.146  10.847   7.937 -0.7060 -3.8877 -2.1117
  321MOL0     H43289  -0.079  10.811   8.190 -0.0147  1.1980 -0.6133
  321MOL0     H43290   0.059  10.725   8.133  1.3204  3.6872  0.7467
  321MOL0     H43291  -0.101  10.557   8.189  1.5570 -0.6722  0.3929
  321MOL0     H43292  -0.094  10.560   8.023 -0.8926 -1.1448  1.5110
  321MOL0     H43293  -0.333  10.558   8.096  0.4446  0.7515 -0.2629
  321MOL0     H43294  -0.303  10.700   8.005  0.5883 -0.5328  0.7066
  321MOL0     H43295  -0.557  10.673   8.075 -0.6352  1.2343 -1.1683
  321MOL0     H43296  -0.859  10.807   8.063  0.8995  0.7191  0.9749
  321MOL0     H43297  -0.755  10.664   8.021  1.0462 -1.8462  0.9897
  321MOL0     H43298  -0.862  10.659   8.159 -1.6909  0.4739 -1.9054
  321MOL0     H43299  -1.061  11.083   8.236 -2.5892  0.2198 -1.3567
  321MOL0     H43300  -1.270  11.170   8.306 -2.4363 -2.1455  3.3526
  321MOL0     H43301  -1.453  11.159   8.423  3.0728 -0.0674 -1.1426
  321MOL0     H43302  -1.410  11.132   8.596  0.6765 -0.3147 -0.2895
  321MOL0     H43303  -1.563  11.381   8.494 -2.4322 -0.7774 -1.7678
  321MOL0     H43304  -1.650  11.231   8.519  1.5707 -1.2739 -4.0286
  321MOL0     H43305  -1.485  11.336   8.759 -0.2636 -2.0050  0.8818
  321MOL0     H43306  -1.595  11.218   8.762  0.5869  0.9346  2.4255
  321MOL0     H43307  -1.673  11.429   8.835  1.8033 -1.7380 -0.1385
  321MOL0     H43308  -1.665  11.505   8.667 -0.8135  0.3567  1.4324
  321MOL0     H43309  -1.855  11.270   8.745 -2.5571  0.9448  0.0771
  321MOL0     H43310  -1.838  11.356   8.588  0.5416 -1.7877  0.3036
  321MOL0     H43311  -1.916  11.475   8.863 -2.1530  4.1999  0.0511
  321MOL0     H43312  -1.900  11.568   8.721  0.7078 -0.2558  2.8782
  321MOL0     H43313  -2.112  11.335   8.731 -1.6294  0.4669 -3.5520
  321MOL0     H43314  -2.080  11.458   8.606  0.8459  1.8955 -0.4002
  321MOL0     H43315  -2.159  11.629   8.762  0.2368 -0.0920  0.1540
  321MOL0     H43316  -2.174  11.505   8.889 -1.8765 -1.4221 -0.1938
  321MOL0     H43317  -1.131  11.296   8.684 -1.6955 -4.3895  1.9782
  321MOL0     H43318  -0.891  11.221   8.609 -1.0093  2.4566  0.3473
  321MOL0     H43319  -0.596  10.990   8.448  0.7582  1.0035 -0.8948
  321MOL0     H43320  -0.377  10.915   8.373  1.0129  0.7366 -1.8240
  321MOL0     H43321   1.226  10.550   7.256  0.6065  0.2525 -1.2765
  321MOL0     H43322   1.441  10.558   7.190  1.2182 -0.2172 -1.1110
  321MOL0     H43323   1.833  10.760   7.130  1.3761  1.1156  0.2559
  321MOL0     H43324   2.066  10.779   7.067 -1.7143 -0.1069 -0.7981
  321MOL0     H43325   2.358  10.573   7.346 -4.3114  1.2418 -0.4130
  321MOL0     H43326   2.319  10.446   7.220  3.2285 -1.3166  0.9124
  321MOL0     H43327   2.525  10.647   7.179 -0.4092  0.8507 -0.5552
  321MOL0     H43328   2.461  10.530   7.057 -0.5340  0.1660  0.2296
  321MOL0     H43329   2.525  10.344   7.225  1.4734 -0.8938  1.7031
  321MOL0     H43330   2.589  10.477   7.325  3.2375  1.3884 -0.5135
  321MOL0     H43331   2.764  10.336   7.213 -0.7248 -1.8997 -2.1143
  321MOL0     H43332   2.787  10.502   7.168  1.7213 -1.2230  0.5230
  321MOL0     H43333   2.634  10.301   6.813  0.4002  0.8467 -1.0696
  321MOL0     H43334   2.172  10.506   7.397 -0.8852 -1.2269  0.5443
  321MOL0     H43335   1.948  10.511   7.462  2.1190  0.4266  1.0822
  322MOL0     O43336  10.283   1.433   5.058  0.7182  0.3927  0.2526
  322MOL0     C43337  10.266   1.338   5.130 -0.5603 -0.2530 -0.4540
  322MOL0     O43338  10.148   1.278   5.139 -0.5796 -0.0685 -0.3718
  322MOL0     C43339  10.032   1.341   5.092 -0.0574  0.5183  0.3261
  322MOL0     C43340   9.939   1.362   5.188  0.4205  0.2379 -0.5758
  322MOL0     C43341   9.810   1.407   5.157 -0.4523 -0.5113  0.1929
  322MOL0     C43342   9.767   1.415   5.025 -0.0337  0.2091  0.4206
  322MOL0     O43343   9.639   1.476   5.010 -0.1190 -0.1138 -0.1720
  322MOL0     C43344   9.605   1.518   4.877  0.4769 -0.2834 -0.5951
  322MOL0     C43345   9.451   1.529   4.854  0.2491 -0.3782 -0.2768
  322MOL0     C43346   9.399   1.547   4.702  0.0620  0.0788 -0.7740
  322MOL0     C43347   9.252   1.549   4.687 -0.7789  0.6153 -0.4932
  322MOL0     C43348   9.222   1.562   4.538 -1.2216 -0.0384  0.7842
  322MOL0     C43349   9.078   1.544   4.536 -0.2681  0.1434 -0.0452
  322MOL0     C43350   9.021   1.570   4.398  0.3550 -0.0838  0.1991
  322MOL0     C43351   8.872   1.522   4.376 -0.1343 -0.2992 -0.0166
  322MOL0     N43352   8.781   1.573   4.486  0.1920 -0.3980 -0.1708
  322MOL0     C43353   8.690   1.676   4.480 -0.1938  0.3907  0.6688
  322MOL0     C43354   8.643   1.674   4.607  0.2099  0.6224 -0.2111
  322MOL0     C43355   8.543   1.773   4.665  1.0433  0.1745 -1.0563
  322MOL0     C43356   8.404   1.714   4.649 -0.5877 -0.3515 -0.4662
  322MOL0     C43357   8.306   1.810   4.715  0.2975 -1.0722 -0.0528
  322MOL0     C43358   8.161   1.747   4.709  0.4776 -0.4689 -0.0343
  322MOL0     O43359   8.065   1.852   4.737 -0.1016  0.5302  0.0860
  322MOL0     C43360   7.938   1.821   4.715  0.2308  0.2766 -0.0126
  322MOL0     C43361   7.881   1.809   4.585 -0.4525  1.0192 -1.2404
  322MOL0     C43362   7.754   1.775   4.564  1.0725 -0.2674 -0.2773
  322MOL0     C43363   7.701   1.768   4.422 -0.1446  0.2106 -0.8074
  322MOL0     C43364   7.670   1.755   4.672 -0.0637  0.6386  0.1129
  322MOL0     C43365   7.520   1.729   4.657  0.1913 -0.4799  0.6342
  322MOL0     O43366   7.469   1.659   4.553 -0.5437 -1.1472 -1.0542
  322MOL0     C43367   7.337   1.625   4.563  0.3273 -0.0880 -0.6529
  322MOL0     C43368   7.282   1.554   4.672  0.8328  0.8514  0.5467
  322MOL0     C43369   7.141   1.529   4.663 -0.2959 -0.9881 -0.0886
  322MOL0     C43370   7.067   1.575   4.555  0.2968 -0.1907 -0.6740
  322MOL0     O43371   6.930   1.565   4.550 -0.0157  0.2760 -0.5400
  322MOL0     C43372   6.880   1.435   4.545 -0.6297  0.3111 -0.0907
  322MOL0     C43373   6.735   1.438   4.596  0.4673 -0.2093  0.4542
  322MOL0     C43374   6.668   1.305   4.559  1.5034 -0.5054  0.1703
  322MOL0     C43375   6.531   1.301   4.646 -0.3462 -0.1004 -0.7123
  322MOL0     C43376   6.555   1.311   4.799  0.4080  0.3638  0.0927
  322MOL0     C43377   6.667   1.219   4.862  0.4182 -0.1102 -0.1126
  322MOL0     C43378   6.636   1.070   4.835 -0.4430  0.7889  1.1706
  322MOL0     C43379   6.691   0.982   4.955 -0.7439 -0.0506 -0.1682
  322MOL0    Cl43380   6.585   0.979   5.098 -0.1371 -0.4236 -0.4308
  322MOL0     C43381   7.126   1.647   4.456 -0.5885  0.0754 -0.0756
  322MOL0     C43382   7.265   1.669   4.457  0.0004 -0.5114 -0.7358
  322MOL0     O43383   7.457   1.779   4.743  0.9880 -1.0651  0.0498
  322MOL0     C43384   7.720   1.775   4.802 -0.8146 -0.7122 -0.0845
  322MOL0     C43385   7.863   1.806   4.828  0.5216 -1.0547  0.9871
  322MOL0     N43386   8.711   1.588   4.691 -0.7109 -0.1529  0.0955
  322MOL0     N43387   8.791   1.526   4.617 -0.3604  0.1266 -0.3754
  322MOL0     C43388   9.866   1.382   4.925  0.5801 -0.2387  0.4539
  322MOL0     C43389   9.999   1.348   4.960 -0.1877  0.6192 -0.0550
  322MOL0     C43390  10.376   1.288   5.216  0.6830 -0.3542 -0.2793
  322MOL0     C43391  10.505   1.330   5.186  0.6863 -0.3115 -0.4380
  322MOL0     C43392  10.615   1.267   5.245 -0.3606 -0.7293  0.3839
  322MOL0     C43393  10.606   1.161   5.335  0.3343  0.4062 -0.5856
  322MOL0     O43394  10.714   1.099   5.391  0.3574 -0.0437 -0.7271
  322MOL0     C43395  10.743   1.128   5.529 -0.4820 -0.1100 -0.3650
  322MOL0     C43396  10.814   1.261   5.553  0.3568  0.4639  0.8919
  322MOL0     C43397  10.931   1.292   5.450 -0.5963 -0.3450 -0.0135
  322MOL0     C43398  11.039   1.398   5.494 -0.6313  0.4919  0.2578
  322MOL0     C43399  11.105   1.342   5.615  0.1954 -0.5715  0.8387
  322MOL0     C43400  11.157   1.288   5.715 -0.3768 -0.8721  0.2392
  322MOL0     C43401  10.474   1.113   5.362 -0.3339  0.4243 -0.3387
  322MOL0     C43402  10.361   1.181   5.302 -0.2364  0.5199 -0.0650
  322MOL0     H43403   9.971   1.357   5.291  1.1356  1.3481 -0.7255
  322MOL0     H43404   9.746   1.442   5.237  0.5384  2.0178 -0.0393
  322MOL0     H43405   9.649   1.614   4.847  2.1816 -0.5620  0.8833
  322MOL0     H43406   9.630   1.439   4.806  3.0617 -1.1634  1.1692
  322MOL0     H43407   9.400   1.437   4.883 -0.9117  1.0455  2.6501
  322MOL0     H43408   9.421   1.622   4.904  1.8798 -0.1188  0.2602
  322MOL0     H43409   9.440   1.641   4.662 -0.7898 -0.5567 -3.3463
  322MOL0     H43410   9.450   1.462   4.654  1.3123 -0.6958  1.7352
  322MOL0     H43411   9.210   1.457   4.729  0.0702  0.8194  0.8496
  322MOL0     H43412   9.205   1.632   4.741 -1.1253 -0.2777  0.6153
  322MOL0     H43413   9.268   1.655   4.502  0.4317 -1.2165 -0.3006
  322MOL0     H43414   9.266   1.489   4.470 -2.2948  1.0993 -1.2161
  322MOL0     H43415   9.067   1.442   4.574  0.6344  0.3014  0.6759
  322MOL0     H43416   9.025   1.608   4.607  0.4404 -0.5343  1.1086
  322MOL0     H43417   9.019   1.678   4.381  2.0318 -0.0881 -0.1745
  322MOL0     H43418   9.076   1.512   4.323 -0.1813 -1.2645  0.6900
  322MOL0     H43419   8.875   1.413   4.390 -1.4070 -0.5827 -1.6757
  322MOL0     H43420   8.837   1.544   4.275  0.1125 -2.1743 -0.5585
  322MOL0     H43421   8.670   1.729   4.388 -0.3710 -0.0281  0.4673
  322MOL0     H43422   8.553   1.781   4.773  1.3004 -1.4808 -0.9306
  322MOL0     H43423   8.552   1.872   4.619  0.3964 -0.6068 -2.9617
  322MOL0     H43424   8.414   1.623   4.708 -0.6543  0.6986  1.2186
  322MOL0     H43425   8.386   1.708   4.541  0.2997  1.0289 -0.7310
  322MOL0     H43426   8.306   1.910   4.671  3.4350 -0.7598  0.4743
  322MOL0     H43427   8.328   1.828   4.820 -2.8092 -2.0161  0.8828
  322MOL0     H43428   8.153   1.660   4.775  3.1393 -0.9215 -0.2066
  322MOL0     H43429   8.137   1.704   4.611 -1.8100 -1.0169  0.7082
  322MOL0     H43430   7.941   1.831   4.498 -0.9968 -0.1454 -1.9391
  322MOL0     H43431   7.688   1.662   4.396  1.0336 -0.0769 -0.2894
  322MOL0     H43432   7.605   1.820   4.415  0.8229  2.0831 -0.7187
  322MOL0     H43433   7.770   1.816   4.352  1.3700 -1.1123 -0.2779
  322MOL0     H43434   7.343   1.524   4.756  1.7073 -0.6742 -0.5909
  322MOL0     H43435   7.097   1.477   4.747 -0.3987  0.0146  0.4907
  322MOL0     H43436   6.891   1.390   4.446  2.2541  1.6408 -0.4872
  322MOL0     H43437   6.933   1.374   4.620  1.7479  3.0354  0.6104
  322MOL0     H43438   6.748   1.447   4.704  0.2448  0.6818  0.4088
  322MOL0     H43439   6.685   1.527   4.558  5.4397  2.5367 -0.5680
  322MOL0     H43440   6.722   1.211   4.571 -1.8903 -3.0414 -2.3822
  322MOL0     H43441   6.640   1.296   4.454 -0.1304 -2.3088  0.7072
  322MOL0     H43442   6.455   1.375   4.620 -1.6863 -0.7050  1.2804
  322MOL0     H43443   6.488   1.203   4.622  2.1831 -1.1218 -1.5277
  322MOL0     H43444   6.462   1.290   4.853  0.9073 -1.6871  0.2315
  322MOL0     H43445   6.580   1.415   4.823  0.3899  0.4136 -0.1029
  322MOL0     H43446   6.769   1.237   4.827  0.4706  1.4296  0.7664
  322MOL0     H43447   6.674   1.243   4.968 -1.5019  1.3885 -0.2536
  322MOL0     H43448   6.668   1.039   4.735  0.9024 -0.0810  1.8397
  322MOL0     H43449   6.528   1.055   4.829 -0.4887  1.3506  0.5422
  322MOL0     H43450   6.797   1.004   4.972 -0.4964  0.7047 -2.3731
  322MOL0     H43451   6.692   0.880   4.916 -1.9897  0.1484 -0.7659
  322MOL0     H43452   7.063   1.696   4.382  1.0113 -0.9526 -2.2455
  322MOL0     H43453   7.302   1.737   4.381  0.4753  0.6997  0.5309
  322MOL0     H43454   7.659   1.772   4.892  1.2500  1.8317  1.5600
  322MOL0     H43455   7.899   1.827   4.928  2.2474  2.4512 -0.2040
  322MOL0     H43456   9.847   1.382   4.818 -3.0809  0.0496  0.9897
  322MOL0     H43457  10.063   1.309   4.882 -1.7368  0.3844 -1.2700
  322MOL0     H43458  10.526   1.420   5.128  1.4117  0.3471  0.8124
  322MOL0     H43459  10.719   1.295   5.231 -1.0222  1.6157 -0.3064
  322MOL0     H43460  10.653   1.120   5.590  0.7832 -1.1465  1.4585
  322MOL0     H43461  10.803   1.047   5.572 -1.1206  0.0190  0.7866
  322MOL0     H43462  10.848   1.256   5.657  1.0988  2.5947  0.7992
  322MOL0     H43463  10.740   1.342   5.545  1.7681  1.6687 -0.6146
  322MOL0     H43464  10.887   1.334   5.359  0.7800 -1.9293 -1.4755
  322MOL0     H43465  10.976   1.197   5.419  2.0182 -0.1229  2.6557
  322MOL0     H43466  11.000   1.499   5.508  0.1638  0.7412  0.6800
  322MOL0     H43467  11.115   1.404   5.416 -1.7539 -0.9008 -1.0205
  322MOL0     H43468  11.196   1.235   5.799 -2.3166 -2.9829 -0.0869
  322MOL0     H43469  10.463   1.026   5.426  0.9681  0.1642 -0.4518
  322MOL0     H43470  10.259   1.148   5.320 -0.3265  1.0943  0.5275
  323MOL0     O43471   6.062   1.592   2.566  0.9150  0.2780 -0.2523
  323MOL0     C43472   6.059   1.603   2.684 -0.7695  0.5604 -0.4948
  323MOL0     O43473   5.949   1.635   2.759 -0.3477 -0.1341  0.0274
  323MOL0     C43474   5.821   1.622   2.704  0.0032  0.8384  0.4047
  323MOL0     C43475   5.727   1.694   2.770 -0.0412 -0.2128  0.7655
  323MOL0     C43476   5.597   1.699   2.716 -0.1958 -0.0995  0.0184
  323MOL0     C43477   5.551   1.619   2.608 -0.7844 -0.0672  0.4889
  323MOL0     O43478   5.423   1.629   2.560 -0.0683 -0.0383 -0.2508
  323MOL0     C43479   5.368   1.509   2.497  0.9954 -0.5230 -0.0319
  323MOL0     C43480   5.217   1.528   2.504 -0.3307 -0.2508  0.9222
  323MOL0     C43481   5.140   1.398   2.454 -0.3426  0.2612  0.5679
  323MOL0     C43482   4.993   1.429   2.463 -0.5232  0.0814  0.3184
  323MOL0     C43483   4.895   1.319   2.424 -0.1885  0.0351 -0.4561
  323MOL0     C43484   4.925   1.253   2.284 -0.7767 -0.0236  0.3601
  323MOL0     C43485   4.824   1.137   2.255  0.6148  0.0826 -1.0299
  323MOL0     C43486   4.824   1.098   2.105 -0.7085  0.5919  0.1232
  323MOL0     N43487   4.731   0.987   2.073 -0.1178  0.0659 -0.2813
  323MOL0     C43488   4.642   0.923   2.155 -0.3782  0.0490 -0.7572
  323MOL0     C43489   4.589   0.834   2.077  0.9303  0.4509 -0.0146
  323MOL0     C43490   4.486   0.731   2.124  0.1019  0.8951 -0.0823
  323MOL0     C43491   4.336   0.762   2.099  0.2767  0.1378  0.2917
  323MOL0     C43492   4.266   0.845   2.210 -0.6485  0.3748  0.3188
  323MOL0     C43493   4.112   0.855   2.168 -0.5080  0.5672  0.7276
  323MOL0     O43494   4.043   0.967   2.219  0.7254 -0.5036  0.3469
  323MOL0     C43495   3.902   0.960   2.198 -0.4158 -0.2669 -0.7092
  323MOL0     C43496   3.838   0.878   2.105  0.0499 -0.0531  0.3643
  323MOL0     C43497   3.697   0.870   2.095 -0.1355  1.0043 -0.3729
  323MOL0     C43498   3.646   0.786   1.974  0.3028 -0.6053 -0.3471
  323MOL0     C43499   3.613   0.949   2.186  0.2521  0.0732  0.3174
  323MOL0     C43500   3.477   0.974   2.170  0.4371  1.2661  0.2157
  323MOL0     O43501   3.407   0.900   2.073 -0.0975 -0.5876  0.5321
  323MOL0     C43502   3.272   0.920   2.054 -0.6383  1.2704 -0.3395
  323MOL0     C43503   3.236   1.035   1.983 -0.1616 -0.3629  0.1118
  323MOL0     C43504   3.104   1.071   1.967 -0.0788 -0.6997 -0.0334
  323MOL0     C43505   3.004   0.994   2.025  0.2149  0.3285  0.1418
  323MOL0     O43506   2.867   1.018   2.029 -0.4342 -0.1597 -0.7140
  323MOL0     C43507   2.828   1.157   2.041 -0.6164  0.0940 -0.0149
  323MOL0     C43508   2.785   1.205   1.899 -0.0733  0.4712 -0.6205
  323MOL0     C43509   2.703   1.336   1.901  0.2111  0.2154  0.1205
  323MOL0     C43510   2.548   1.309   1.911 -0.1588 -0.8456  0.1770
  323MOL0     C43511   2.473   1.437   1.873  0.3119 -0.2294  0.1974
  323MOL0     C43512   2.492   1.548   1.976  0.3421  0.2238 -0.1787
  323MOL0     C43513   2.405   1.668   1.938  0.3468  0.0102  0.1480
  323MOL0     C43514   2.437   1.788   2.022 -0.7330 -0.1659 -0.2299
  323MOL0    Cl43515   2.352   1.946   1.963  0.2316  0.2773 -0.1521
  323MOL0     C43516   3.037   0.881   2.092 -0.4235  0.4840  0.6479
  323MOL0     C43517   3.171   0.843   2.105 -0.1757  0.5294  0.8062
  323MOL0     O43518   3.430   1.063   2.240  1.1320  0.0284 -0.6831
  323MOL0     C43519   3.684   1.027   2.275 -0.7195  0.3379 -0.4218
  323MOL0     C43520   3.821   1.027   2.284  0.2327  0.6374 -1.0587
  323MOL0     N43521   4.633   0.844   1.952  0.0109  0.6200 -0.6303
  323MOL0     N43522   4.724   0.929   1.950  0.1528 -0.2813  0.3152
  323MOL0     C43523   5.649   1.542   2.548  0.1682  0.1023  0.6022
  323MOL0     C43524   5.782   1.544   2.586 -0.6667  0.1820 -0.2977
  323MOL0     C43525   6.184   1.607   2.768 -1.0269 -0.0059 -1.0958
  323MOL0     C43526   6.312   1.604   2.709  0.0337 -0.4118  0.3335
  323MOL0     C43527   6.429   1.634   2.781  0.4185 -0.1412  0.1433
  323MOL0     C43528   6.420   1.667   2.919 -0.2052  0.0463 -0.2012
  323MOL0     O43529   6.521   1.693   3.014  0.3161  0.9417  1.0442
  323MOL0     C43530   6.626   1.594   3.007  0.1126  0.5253 -0.7836
  323MOL0     C43531   6.731   1.670   3.100 -0.4538 -0.2113 -0.3042
  323MOL0     C43532   6.860   1.582   3.132 -0.5649  0.2661  0.9314
  323MOL0     C43533   6.942   1.641   3.245 -0.6495 -0.6564  0.1882
  323MOL0     C43534   6.865   1.648   3.368  0.3920 -0.6385  0.1080
  323MOL0     C43535   6.803   1.645   3.478  0.3192  0.8774  0.1126
  323MOL0     C43536   6.289   1.669   2.976 -0.1605 -0.1684  0.0632
  323MOL0     C43537   6.171   1.641   2.901 -0.3210  0.8855  0.9216
  323MOL0     H43538   5.753   1.756   2.856  0.6291 -0.9136  1.0812
  323MOL0     H43539   5.527   1.757   2.775 -0.4592  0.5945 -0.9394
  323MOL0     H43540   5.410   1.511   2.396 -2.0366 -2.8161 -1.5122
  323MOL0     H43541   5.388   1.415   2.547  3.1177  0.4079  0.9847
  323MOL0     H43542   5.190   1.544   2.609  0.7087 -2.4106  1.5777
  323MOL0     H43543   5.185   1.617   2.449  0.2896  0.3414  1.4861
  323MOL0     H43544   5.170   1.371   2.352  2.9273  0.6721  1.3197
  323MOL0     H43545   5.162   1.317   2.524 -1.5853  1.3962  2.3637
  323MOL0     H43546   4.959   1.447   2.566 -0.4584 -4.0493  1.2157
  323MOL0     H43547   4.968   1.513   2.397  2.1351  0.4310 -0.3967
  323MOL0     H43548   4.896   1.233   2.492  0.7845  2.4948  2.9766
  323MOL0     H43549   4.791   1.351   2.431 -0.4002 -0.6479 -0.4762
  323MOL0     H43550   4.932   1.326   2.203 -1.1318  1.8008  1.9015
  323MOL0     H43551   5.025   1.210   2.294 -0.1491  1.5703  1.2857
  323MOL0     H43552   4.844   1.056   2.326 -1.2234  0.6987  0.2410
  323MOL0     H43553   4.726   1.179   2.281  1.3244  0.8449  0.5564
  323MOL0     H43554   4.921   1.056   2.078 -2.0223 -2.1077 -0.7295
  323MOL0     H43555   4.808   1.185   2.041  0.4280  1.2560  0.6978
  323MOL0     H43556   4.635   0.930   2.263  2.2229 -2.2006 -0.3461
  323MOL0     H43557   4.506   0.645   2.059  1.8165  1.5545 -0.4431
  323MOL0     H43558   4.514   0.702   2.226  2.1921  0.9566 -0.6012
  323MOL0     H43559   4.274   0.673   2.086 -2.9506  2.5186 -2.0523
  323MOL0     H43560   4.331   0.822   2.007  0.4554  0.2116  0.3300
  323MOL0     H43561   4.317   0.942   2.207 -1.3720  0.7518 -0.7145
  323MOL0     H43562   4.271   0.792   2.305 -0.9979 -0.0103  0.1276
  323MOL0     H43563   4.056   0.763   2.191 -3.1123  1.4519 -1.4665
  323MOL0     H43564   4.105   0.868   2.060 -2.2290 -3.4941  0.1333
  323MOL0     H43565   3.903   0.824   2.037  1.5553  3.6350 -1.4162
  323MOL0     H43566   3.718   0.710   1.941 -0.0266 -0.5545 -1.2028
  323MOL0     H43567   3.551   0.737   1.995 -1.5167  1.9235 -2.0898
  323MOL0     H43568   3.618   0.858   1.896  0.0533 -1.2741 -0.8822
  323MOL0     H43569   3.307   1.104   1.936 -1.2136  0.0965 -0.8546
  323MOL0     H43570   3.077   1.162   1.914 -0.1588 -0.0716  1.0421
  323MOL0     H43571   2.740   1.171   2.105 -2.1814  2.3655 -2.4060
  323MOL0     H43572   2.896   1.231   2.083 -3.1568  2.3273  0.4751
  323MOL0     H43573   2.877   1.225   1.843  1.9960 -1.8785  1.6782
  323MOL0     H43574   2.733   1.131   1.836 -1.0167  1.1003 -0.6064
  323MOL0     H43575   2.721   1.393   1.809  2.3007 -1.0510 -0.3066
  323MOL0     H43576   2.737   1.387   1.991 -2.6490 -0.2796  1.6245
  323MOL0     H43577   2.516   1.231   1.841 -1.6674 -0.1657  0.0515
  323MOL0     H43578   2.525   1.259   2.006  1.7627 -2.0039  0.0791
  323MOL0     H43579   2.369   1.403   1.875  0.4817 -0.8586 -0.7472
  323MOL0     H43580   2.494   1.481   1.776  1.4105  1.4256  1.1462
  323MOL0     H43581   2.473   1.501   2.073 -0.1647 -0.0003 -0.3847
  323MOL0     H43582   2.599   1.570   1.972  0.5897 -1.1215 -2.0023
  323MOL0     H43583   2.300   1.640   1.954 -0.3284  2.2463 -0.0761
  323MOL0     H43584   2.415   1.689   1.831  0.2542 -0.1187  0.1134
  323MOL0     H43585   2.544   1.808   2.020 -0.6637 -0.5482 -0.5502
  323MOL0     H43586   2.413   1.768   2.127  1.6844 -2.0868  0.0611
  323MOL0     H43587   2.954   0.824   2.134 -0.1026 -1.3165 -1.0469
  323MOL0     H43588   3.187   0.748   2.155 -0.9370  1.0905  2.1901
  323MOL0     H43589   3.642   1.103   2.340  0.9248 -1.1382  2.5718
  323MOL0     H43590   3.864   1.100   2.352 -1.9353  1.4917 -0.5191
  323MOL0     H43591   5.627   1.496   2.452 -3.6718  2.8246 -0.0550
  323MOL0     H43592   5.856   1.487   2.531 -1.5820  0.0330 -1.4214
  323MOL0     H43593   6.315   1.589   2.601 -0.5553  2.2577 -0.1133
  323MOL0     H43594   6.525   1.628   2.730 -0.6051  1.5065 -2.1209
  323MOL0     H43595   6.583   1.508   3.057 -3.5747  2.3561 -0.4938
  323MOL0     H43596   6.666   1.571   2.907  4.2096  1.7785  0.3557
  323MOL0     H43597   6.664   1.691   3.184 -1.4041  1.7923 -1.4955
  323MOL0     H43598   6.761   1.766   3.057 -2.0186 -0.8072 -2.9583
  323MOL0     H43599   6.920   1.568   3.041 -1.2342 -1.2426  0.6994
  323MOL0     H43600   6.814   1.488   3.163 -0.7163  0.7085  2.0957
  323MOL0     H43601   6.991   1.738   3.227  2.2246 -1.9653  0.3288
  323MOL0     H43602   7.032   1.580   3.261 -0.8705 -0.3447  3.0870
  323MOL0     H43603   6.751   1.640   3.571 -1.2390 -2.6700 -0.7831
  323MOL0     H43604   6.281   1.690   3.083 -1.2012 -1.3446  0.2396
  323MOL0     H43605   6.075   1.656   2.949 -3.3800  2.9349 -4.8355
  324MOL0     O43606   1.764   6.441   7.656 -0.2240  0.8629  0.2118
  324MOL0     C43607   1.819   6.513   7.736 -0.4262 -0.1837 -0.7824
  324MOL0     O43608   1.758   6.571   7.845  0.0752  0.0609 -0.6938
  324MOL0     C43609   1.624   6.541   7.845  0.3977 -0.1104  0.1336
  324MOL0     C43610   1.578   6.433   7.929 -0.8065 -0.4112 -0.4159
  324MOL0     C43611   1.448   6.389   7.934  0.2194 -0.2803  0.2351
  324MOL0     C43612   1.351   6.452   7.860 -0.1640 -0.4531 -0.1522
  324MOL0     O43613   1.218   6.436   7.872 -0.1615 -0.2444 -0.5403
  324MOL0     C43614   1.178   6.307   7.900 -0.7397  0.0643  0.5652
  324MOL0     C43615   1.035   6.308   7.932 -0.0238  0.0895  0.4422
  324MOL0     C43616   0.983   6.167   7.951  0.0059  0.4383 -0.6741
  324MOL0     C43617   0.827   6.153   7.989  0.2250  0.4227 -0.5206
  324MOL0     C43618   0.785   6.006   7.995  0.2851  0.7803  0.0781
  324MOL0     C43619   0.652   5.989   8.067  0.5503 -0.5259 -1.0154
  324MOL0     C43620   0.602   5.840   8.085  0.6056  0.2373 -0.2500
  324MOL0     C43621   0.478   5.834   8.179  0.3617 -1.0118 -0.6018
  324MOL0     N43622   0.361   5.893   8.118  0.0760  1.1021 -0.2053
  324MOL0     C43623   0.270   5.817   8.034 -0.2719 -0.2402 -0.1776
  324MOL0     C43624   0.203   5.919   7.976  0.2170 -0.7744  0.2381
  324MOL0     C43625   0.094   5.900   7.881  0.0488 -0.2258  0.1386
  324MOL0     C43626  -0.029   5.847   7.958  0.0369  0.3979  0.4021
  324MOL0     C43627  -0.165   5.871   7.888 -0.0258  0.4397  0.0178
  324MOL0     C43628  -0.238   5.995   7.940 -0.2631  0.8609  0.2076
  324MOL0     O43629  -0.331   5.964   8.050 -0.2761  0.1921 -0.3168
  324MOL0     C43630  -0.465   5.956   8.022 -0.0865 -0.4968  0.6814
  324MOL0     C43631  -0.498   5.898   7.892  0.4836  0.1863  0.4681
  324MOL0     C43632  -0.637   5.892   7.850  0.2179  0.1856 -0.3550
  324MOL0     C43633  -0.659   5.848   7.715  0.5393 -0.2001  0.4570
  324MOL0     C43634  -0.739   5.935   7.940 -0.2148 -0.5508  0.3445
  324MOL0     C43635  -0.884   5.896   7.927  0.9112 -0.6460  0.2839
  324MOL0     O43636  -0.974   5.994   7.968 -0.3539 -0.3029  0.6536
  324MOL0     C43637  -1.105   5.952   7.958 -0.4741  0.1619 -0.9884
  324MOL0     C43638  -1.185   5.943   8.077 -0.1413  0.2229  0.1874
  324MOL0     C43639  -1.322   5.917   8.059  0.2566 -0.3445  0.1158
  324MOL0     C43640  -1.383   5.892   7.944 -1.2495 -0.0058  0.1761
  324MOL0     O43641  -1.514   5.862   7.945 -0.5550 -0.4114  0.4705
  324MOL0     C43642  -1.570   5.804   7.828  0.1027  0.6675 -0.9281
  324MOL0     C43643  -1.692   5.719   7.869 -0.4427  0.6058  0.5204
  324MOL0     C43644  -1.795   5.786   7.959 -0.0422 -0.5942  0.9944
  324MOL0     C43645  -1.896   5.679   8.008  1.0646  0.3152  0.0277
  324MOL0     C43646  -2.000   5.755   8.098 -0.0617 -0.0987 -0.3606
  324MOL0     C43647  -2.087   5.653   8.160  0.8466  0.6198 -0.7439
  324MOL0     C43648  -2.186   5.716   8.258  0.0326 -0.6560 -0.0049
  324MOL0     C43649  -2.244   5.624   8.364  0.7649 -0.3495  0.3575
  324MOL0    Cl43650  -2.234   5.442   8.335 -0.1695  0.2573  0.3513
  324MOL0     C43651  -1.300   5.904   7.829  0.4393 -1.2374  0.6749
  324MOL0     C43652  -1.162   5.936   7.834 -0.4515  0.3397 -0.0028
  324MOL0     O43653  -0.913   5.780   7.894  0.4515 -0.3714 -0.3022
  324MOL0     C43654  -0.698   5.983   8.065  0.0511  0.1122 -0.0816
  324MOL0     C43655  -0.567   5.989   8.103  0.0324  0.5068 -0.2052
  324MOL0     N43656   0.251   6.040   8.018 -0.1689  0.2269  0.3697
  324MOL0     N43657   0.344   6.026   8.104  1.2523 -0.0340 -1.2949
  324MOL0     C43658   1.395   6.560   7.776 -0.0852 -0.7792  0.4194
  324MOL0     C43659   1.528   6.598   7.762  1.0173 -1.2280  0.9280
  324MOL0     C43660   1.952   6.566   7.720  0.1739  0.4580  0.9661
  324MOL0     C43661   1.992   6.682   7.780  0.5588  0.0527 -0.3463
  324MOL0     C43662   2.125   6.724   7.769  0.0126  0.1535  0.6359
  324MOL0     C43663   2.217   6.651   7.702  0.3407  0.6639  0.1734
  324MOL0     O43664   2.340   6.702   7.716 -0.6934 -0.6748 -0.3420
  324MOL0     C43665   2.432   6.644   7.630 -0.5339  0.6513 -0.3866
  324MOL0     C43666   2.568   6.688   7.682 -0.1562  0.4353  0.7852
  324MOL0     C43667   2.685   6.650   7.594 -0.4032 -0.4117 -0.1580
  324MOL0     C43668   2.795   6.572   7.656 -0.2768  0.2160  0.3125
  324MOL0     C43669   2.734   6.452   7.706  0.2725 -0.1413 -0.2400
  324MOL0     C43670   2.701   6.344   7.742  0.8439  0.1623 -0.1218
  324MOL0     C43671   2.176   6.541   7.620  0.7988  0.2162 -0.0520
  324MOL0     C43672   2.043   6.503   7.637  0.6108  0.1819  0.1887
  324MOL0     H43673   1.652   6.393   7.997 -1.9137 -3.0539 -0.6711
  324MOL0     H43674   1.427   6.324   8.018  1.1430  0.5710  1.1508
  324MOL0     H43675   1.197   6.234   7.820 -3.8813 -0.6946  0.3536
  324MOL0     H43676   1.212   6.263   7.994 -1.2918  0.1981  0.8332
  324MOL0     H43677   1.024   6.365   8.025  3.4450 -1.9295  2.3340
  324MOL0     H43678   0.981   6.360   7.853 -1.1918 -1.2782  0.2927
  324MOL0     H43679   1.008   6.102   7.866  3.5775 -2.4668  2.2130
  324MOL0     H43680   1.045   6.116   8.026 -1.2789  1.4708  1.1786
  324MOL0     H43681   0.801   6.200   8.084  0.7943 -0.8653  0.2950
  324MOL0     H43682   0.772   6.209   7.913 -3.1356 -1.6120  0.2347
  324MOL0     H43683   0.780   5.965   7.893 -0.5130  1.4880 -0.1787
  324MOL0     H43684   0.860   5.947   8.049  1.2987  2.6424  0.7960
  324MOL0     H43685   0.661   6.040   8.163  0.8930 -2.4308  0.0131
  324MOL0     H43686   0.579   6.038   8.001  0.4084 -0.0796 -0.5305
  324MOL0     H43687   0.586   5.807   7.982 -0.1801  1.8074 -0.6736
  324MOL0     H43688   0.686   5.784   8.127  2.0611  0.7717 -2.3150
  324MOL0     H43689   0.489   5.888   8.274 -4.7138  0.1627 -0.4301
  324MOL0     H43690   0.457   5.732   8.214 -0.2748 -0.4505  0.7209
  324MOL0     H43691   0.254   5.711   8.020  0.8077 -0.8197  2.4323
  324MOL0     H43692   0.077   6.002   7.846 -0.1383 -0.0970  0.5993
  324MOL0     H43693   0.119   5.839   7.793  1.6653 -0.2110  0.5464
  324MOL0     H43694  -0.034   5.892   8.057  1.5477 -4.1080  2.7933
  324MOL0     H43695  -0.028   5.739   7.973  1.0066  0.5890  1.8644
  324MOL0     H43696  -0.221   5.782   7.916 -2.7095  1.9657 -0.2120
  324MOL0     H43697  -0.156   5.884   7.780 -1.7727  0.8987 -0.0952
  324MOL0     H43698  -0.292   6.044   7.859 -1.7061  1.0483  1.2296
  324MOL0     H43699  -0.164   6.072   7.963  1.6755  0.2493 -3.2954
  324MOL0     H43700  -0.419   5.870   7.824 -0.7536  1.1487 -1.4537
  324MOL0     H43701  -0.731   5.766   7.711 -1.3871  1.4509 -1.2143
  324MOL0     H43702  -0.696   5.928   7.650 -0.6280 -0.0934  1.2419
  324MOL0     H43703  -0.562   5.816   7.675  1.4591  0.7315  1.8831
  324MOL0     H43704  -1.140   5.962   8.174 -1.4642  0.2802  0.8106
  324MOL0     H43705  -1.402   5.918   8.132 -0.0525 -2.0255 -0.1572
  324MOL0     H43706  -1.599   5.882   7.757  0.4123  0.4165 -1.3364
  324MOL0     H43707  -1.498   5.735   7.784  1.9070  1.1906  1.0309
  324MOL0     H43708  -1.745   5.680   7.781 -1.9365  1.2042  1.1203
  324MOL0     H43709  -1.652   5.628   7.914  0.7240 -0.9155 -3.1883
  324MOL0     H43710  -1.853   5.851   7.892  1.7203  0.5264  0.5013
  324MOL0     H43711  -1.758   5.847   8.042  2.2983 -1.9711  1.0371
  324MOL0     H43712  -1.941   5.640   7.917 -0.5657  0.7726  0.5943
  324MOL0     H43713  -1.843   5.604   8.067  0.7026  0.9644  1.2113
  324MOL0     H43714  -2.051   5.836   8.043 -1.2885 -0.8839 -0.4129
  324MOL0     H43715  -1.938   5.803   8.174  1.0610  1.2437 -2.0235
  324MOL0     H43716  -2.149   5.615   8.078 -0.6560  0.0543  0.5785
  324MOL0     H43717  -2.019   5.587   8.213 -0.1772  0.1138 -0.0131
  324MOL0     H43718  -2.264   5.772   8.205  1.6782  1.9084  0.1114
  324MOL0     H43719  -2.141   5.797   8.315 -0.6562  0.0248 -0.3934
  324MOL0     H43720  -2.349   5.650   8.380  0.9947  0.3932  0.7014
  324MOL0     H43721  -2.207   5.641   8.465 -0.0795 -1.5197  0.8899
  324MOL0     H43722  -1.356   5.919   7.737  1.8239 -1.9276 -0.3201
  324MOL0     H43723  -1.101   5.952   7.745  1.8796 -2.1271  1.0142
  324MOL0     H43724  -0.777   6.005   8.137 -1.2064  0.1827 -1.4257
  324MOL0     H43725  -0.543   6.017   8.205 -1.6658 -1.7505  0.9144
  324MOL0     H43726   1.322   6.606   7.709  0.8295 -1.0654 -0.8029
  324MOL0     H43727   1.540   6.674   7.686 -0.8184  1.6250  3.2647
  324MOL0     H43728   1.923   6.749   7.830 -2.7437 -2.8960 -0.5983
  324MOL0     H43729   2.149   6.814   7.825 -3.5251  1.1489  0.8190
  324MOL0     H43730   2.423   6.535   7.634 -3.5952  0.7611 -1.4917
  324MOL0     H43731   2.433   6.674   7.525  3.3093 -1.8413 -1.2857
  324MOL0     H43732   2.587   6.640   7.779  1.3554 -1.7600 -0.4938
  324MOL0     H43733   2.570   6.797   7.682 -1.7508  0.4988 -0.2306
  324MOL0     H43734   2.718   6.742   7.545 -2.9482 -0.8592 -3.0067
  324MOL0     H43735   2.649   6.589   7.510  2.7511  0.7021 -2.5046
  324MOL0     H43736   2.851   6.624   7.733 -2.5483 -0.6608  2.7131
  324MOL0     H43737   2.867   6.529   7.586  0.6918 -1.4496  2.2196
  324MOL0     H43738   2.671   6.254   7.791 -0.1737 -0.3054 -1.5565
  324MOL0     H43739   2.236   6.489   7.547  2.2115  1.2715  0.3068
  324MOL0     H43740   2.018   6.413   7.582  0.4483  1.2300 -1.5419
  325MOL0     O43741  11.220   2.369   6.816  0.7835 -0.5149 -0.3298
  325MOL0     C43742  11.262   2.420   6.916  0.0852  0.5267 -0.5492
  325MOL0     O43743  11.181   2.447   7.029 -0.2284 -0.2954 -0.7962
  325MOL0     C43744  11.045   2.429   7.016 -0.2046 -0.3603  0.5031
  325MOL0     C43745  10.983   2.304   6.999  0.5208  0.3532  0.3259
  325MOL0     C43746  10.847   2.287   6.992 -0.0665  0.1479  0.5706
  325MOL0     C43747  10.756   2.397   6.998  0.3141  0.4869  0.3797
  325MOL0     O43748  10.618   2.395   6.995  0.0606 -0.4246 -0.3012
  325MOL0     C43749  10.555   2.269   6.956 -0.3330 -0.1670 -0.4735
  325MOL0     C43750  10.405   2.314   6.946 -0.3092 -0.5936  0.2118
  325MOL0     C43751  10.326   2.198   6.888  0.1834  0.2113 -0.0460
  325MOL0     C43752  10.177   2.242   6.854 -0.8652 -0.5888  0.7810
  325MOL0     C43753  10.086   2.126   6.870  0.9121  0.0638 -1.0949
  325MOL0     C43754  10.103   2.025   6.760  0.4620  0.6921 -0.5327
  325MOL0     C43755   9.966   1.949   6.730  0.3556 -0.1533  0.2992
  325MOL0     C43756   9.995   1.819   6.658 -0.4290 -0.1672 -0.0397
  325MOL0     N43757   9.864   1.762   6.636 -0.0278 -0.6970 -1.0560
  325MOL0     C43758   9.771   1.809   6.549 -0.0004  1.0594  0.6332
  325MOL0     C43759   9.650   1.765   6.586 -0.1070 -0.8143  0.9522
  325MOL0     C43760   9.513   1.802   6.515 -0.3610  0.2069 -0.1232
  325MOL0     C43761   9.447   1.671   6.470 -0.7278 -0.1475  0.4110
  325MOL0     C43762   9.317   1.718   6.405  0.6322  0.3051  0.4994
  325MOL0     C43763   9.257   1.607   6.321 -0.0889 -0.1987  0.1258
  325MOL0     O43764   9.153   1.663   6.233  0.4138  0.0445 -0.5225
  325MOL0     C43765   9.076   1.568   6.173 -0.1856 -0.4920 -0.5906
  325MOL0     C43766   8.971   1.615   6.087 -0.4654  1.0209  0.2748
  325MOL0     C43767   8.870   1.529   6.037 -0.0741 -0.1656 -0.3028
  325MOL0     C43768   8.751   1.606   5.977  0.7929  0.1325  0.7427
  325MOL0     C43769   8.878   1.389   6.049 -0.2759  0.1374  0.9744
  325MOL0     C43770   8.777   1.292   6.001 -0.0383 -0.6929 -0.0915
  325MOL0     O43771   8.739   1.191   6.084 -0.4029 -0.5238 -0.0929
  325MOL0     C43772   8.667   1.085   6.033  0.0895 -0.4783 -0.9505
  325MOL0     C43773   8.709   1.005   5.925  0.2949 -0.1241 -0.6667
  325MOL0     C43774   8.614   0.911   5.874  1.0381  0.3530 -0.3254
  325MOL0     C43775   8.483   0.904   5.922  0.2676  0.2385 -0.1539
  325MOL0     O43776   8.396   0.837   5.845 -0.1779  0.3021 -0.9400
  325MOL0     C43777   8.259   0.883   5.841  0.5959 -0.8203 -1.3723
  325MOL0     C43778   8.173   0.778   5.916 -0.4803 -0.5530 -0.1919
  325MOL0     C43779   8.099   0.682   5.818  0.5100  0.3430 -1.0275
  325MOL0     C43780   8.087   0.545   5.890 -0.5276 -0.3319 -0.1427
  325MOL0     C43781   7.978   0.544   5.996 -0.0869  0.6859 -0.2647
  325MOL0     C43782   7.948   0.405   6.060 -0.4367 -0.1659  0.2721
  325MOL0     C43783   7.844   0.408   6.167  0.1339  0.2732  0.1153
  325MOL0     C43784   7.816   0.279   6.228 -0.5246  0.1482 -0.1659
  325MOL0    Cl43785   7.960   0.172   6.256 -0.3127  0.0688 -0.2804
  325MOL0     C43786   8.456   0.964   6.044  0.6774  0.0923 -0.7188
  325MOL0     C43787   8.554   1.045   6.106 -0.0169 -0.4251  0.8888
  325MOL0     O43788   8.730   1.315   5.891 -0.4327  0.2224 -0.3380
  325MOL0     C43789   8.983   1.339   6.120  0.0170 -0.6655 -0.9170
  325MOL0     C43790   9.077   1.425   6.187 -0.2695 -0.0268 -0.1987
  325MOL0     N43791   9.683   1.670   6.688 -1.1533  0.5038 -0.0956
  325MOL0     N43792   9.803   1.678   6.728  0.1469  0.1022  0.1283
  325MOL0     C43793  10.817   2.522   7.015 -0.5724  0.3070  0.5866
  325MOL0     C43794  10.966   2.540   7.016  0.6646  0.2125  0.3663
  325MOL0     C43795  11.407   2.446   6.920  0.6180  0.0004 -0.1009
  325MOL0     C43796  11.488   2.422   6.802  0.1796  0.1881 -0.3113
  325MOL0     C43797  11.616   2.463   6.806 -0.1821 -0.0792  0.8300
  325MOL0     C43798  11.674   2.520   6.919 -0.6208 -0.2261  0.7904
  325MOL0     O43799  11.801   2.574   6.901 -0.3715  0.1000  0.6287
  325MOL0     C43800  11.862   2.660   6.995  0.1971 -0.4996  0.3039
  325MOL0     C43801  11.995   2.705   6.921 -0.0544  0.0199  0.5320
  325MOL0     C43802  11.954   2.808   6.819  0.4369  0.5567 -0.9143
  325MOL0     C43803  12.044   2.818   6.699  0.2655 -0.5418  0.2349
  325MOL0     C43804  12.188   2.815   6.728 -0.7826 -1.0329  0.2991
  325MOL0     C43805  12.304   2.800   6.741 -0.1985 -0.1863  0.1959
  325MOL0     C43806  11.594   2.533   7.032 -0.2739  0.3915 -0.0003
  325MOL0     C43807  11.460   2.500   7.036  0.0912 -0.0259  0.2726
  325MOL0     H43808  11.048   2.217   6.991  4.7419  3.2427 -0.8437
  325MOL0     H43809  10.812   2.185   6.980  0.4132 -0.3486  2.8812
  325MOL0     H43810  10.581   2.229   6.857 -0.0955  0.2806 -0.5971
  325MOL0     H43811  10.571   2.192   7.032 -3.2436  1.2285  1.7812
  325MOL0     H43812  10.372   2.333   7.048  1.0215 -1.4525  0.8327
  325MOL0     H43813  10.381   2.404   6.890 -0.9278 -0.5981  0.4601
  325MOL0     H43814  10.374   2.158   6.798 -2.6226  0.9454 -2.0160
  325MOL0     H43815  10.322   2.109   6.950 -2.2890  1.7522  2.2100
  325MOL0     H43816  10.150   2.321   6.924  1.0285 -0.8257  1.8270
  325MOL0     H43817  10.163   2.282   6.753  1.3336 -1.6423  0.0038
  325MOL0     H43818  10.116   2.085   6.967  0.8114  3.9462  0.7607
  325MOL0     H43819   9.980   2.154   6.880  0.2722 -2.7959  1.7965
  325MOL0     H43820  10.135   2.075   6.668  1.5324  3.3558  1.1758
  325MOL0     H43821  10.181   1.956   6.793  0.7972  1.7924  1.0838
  325MOL0     H43822   9.925   1.930   6.830 -2.8062  0.1918 -0.8063
  325MOL0     H43823   9.896   2.007   6.669  2.5076 -0.9252 -3.1595
  325MOL0     H43824  10.069   1.759   6.712 -1.2826  0.2660  1.6773
  325MOL0     H43825  10.050   1.839   6.566 -0.1897  0.6725  0.2803
  325MOL0     H43826   9.798   1.883   6.475  0.4185 -0.0558 -0.3690
  325MOL0     H43827   9.449   1.843   6.593 -1.1448 -3.3096  1.2554
  325MOL0     H43828   9.537   1.868   6.431 -0.4752  0.3977 -0.0062
  325MOL0     H43829   9.437   1.595   6.548 -0.9905 -1.4744 -0.8635
  325MOL0     H43830   9.520   1.629   6.401  0.5364  2.2265  0.2225
  325MOL0     H43831   9.339   1.804   6.339  1.2274  1.0216  1.6043
  325MOL0     H43832   9.249   1.746   6.486 -3.4298  0.6151 -2.6627
  325MOL0     H43833   9.228   1.524   6.386 -3.1564 -0.0547 -0.9268
  325MOL0     H43834   9.343   1.563   6.269 -0.8251 -0.3178 -1.0159
  325MOL0     H43835   8.967   1.721   6.066 -2.3681  0.6866 -1.3755
  325MOL0     H43836   8.771   1.603   5.870 -1.4039 -1.6513  0.2913
  325MOL0     H43837   8.653   1.559   5.988  1.4164 -1.0694  1.3127
  325MOL0     H43838   8.747   1.708   6.016  0.0074 -0.4152  2.1996
  325MOL0     H43839   8.804   1.033   5.880  0.8299 -1.8802 -0.7158
  325MOL0     H43840   8.630   0.850   5.786 -3.8819 -1.7701 -0.1300
  325MOL0     H43841   8.253   0.983   5.885 -1.7107 -1.3305 -0.3717
  325MOL0     H43842   8.210   0.894   5.743 -2.7353 -2.1980 -0.0375
  325MOL0     H43843   8.237   0.723   5.986  0.4783  0.7133 -0.0386
  325MOL0     H43844   8.092   0.828   5.970  0.1863  1.8323 -1.2619
  325MOL0     H43845   8.152   0.652   5.727  2.4842  2.3004 -0.5923
  325MOL0     H43846   7.997   0.717   5.798 -0.3119 -1.3684 -0.0965
  325MOL0     H43847   8.060   0.472   5.812 -1.3204 -0.4153  0.2005
  325MOL0     H43848   8.180   0.511   5.935 -1.0172 -0.8934  0.4754
  325MOL0     H43849   7.884   0.580   5.952 -1.6366 -4.4164 -1.7459
  325MOL0     H43850   8.005   0.615   6.075 -0.9614  1.2970 -0.4943
  325MOL0     H43851   7.909   0.337   5.984  0.8837  0.9011 -1.4397
  325MOL0     H43852   8.044   0.370   6.099  1.5465 -0.8124 -4.5098
  325MOL0     H43853   7.752   0.449   6.126 -1.2012 -3.0410 -0.5328
  325MOL0     H43854   7.872   0.471   6.252  2.6792 -2.1505  1.2409
  325MOL0     H43855   7.759   0.222   6.154 -0.9802 -0.3058  0.5182
  325MOL0     H43856   7.751   0.290   6.315 -1.3663 -1.8362 -0.4700
  325MOL0     H43857   8.362   0.942   6.095  0.3827  3.1535  0.2476
  325MOL0     H43858   8.529   1.096   6.198  2.0062  2.2988  0.0535
  325MOL0     H43859   8.982   1.232   6.138 -2.0739 -0.1217  3.4451
  325MOL0     H43860   9.143   1.368   6.252  0.3156  1.1138  0.2340
  325MOL0     H43861  10.757   2.613   7.015  1.6060  1.8584  2.2438
  325MOL0     H43862  11.012   2.638   7.021 -1.2683  1.1952 -0.1980
  325MOL0     H43863  11.436   2.379   6.716 -0.4523 -0.1675  0.2426
  325MOL0     H43864  11.682   2.456   6.719 -0.2308 -0.3528  0.8143
  325MOL0     H43865  11.793   2.741   7.018  0.8848 -0.0653  0.8885
  325MOL0     H43866  11.900   2.607   7.083  1.6716  1.6869  1.0685
  325MOL0     H43867  12.036   2.617   6.872 -0.1217  1.9130 -3.3029
  325MOL0     H43868  12.072   2.749   6.985  2.1532 -0.0278 -1.9026
  325MOL0     H43869  11.948   2.906   6.866 -1.5928  0.1493 -0.1936
  325MOL0     H43870  11.850   2.796   6.787  0.8227  0.6506 -2.2563
  325MOL0     H43871  12.024   2.919   6.661  2.7775  0.0180  0.1727
  325MOL0     H43872  12.015   2.744   6.625  2.9458  0.0111 -1.5051
  325MOL0     H43873  12.410   2.795   6.758 -0.5663 -0.3553  2.9056
  325MOL0     H43874  11.635   2.575   7.123 -0.0635  0.4396 -0.1175
  325MOL0     H43875  11.402   2.516   7.126  0.1642 -1.1753  0.5389
  326MOL0     O43876   5.941   0.059   9.383 -0.1786 -0.2549  0.4514
  326MOL0     C43877   5.978   0.151   9.451  0.6027  0.2391 -0.2376
  326MOL0     O43878   5.899   0.243   9.508 -0.1469  0.1192 -0.4574
  326MOL0     C43879   5.769   0.210   9.554 -0.4293  0.9824 -0.2999
  326MOL0     C43880   5.692   0.090   9.545 -0.7826 -0.2250 -0.9207
  326MOL0     C43881   5.567   0.081   9.601 -0.1911  0.3425  0.1895
  326MOL0     C43882   5.518   0.188   9.689  0.7972  0.8826 -0.2832
  326MOL0     O43883   5.397   0.186   9.752  0.1064 -1.1501 -0.3512
  326MOL0     C43884   5.295   0.085   9.717 -0.0225 -0.9104  0.3098
  326MOL0     C43885   5.159   0.125   9.787 -0.4365 -0.3332  0.7041
  326MOL0     C43886   5.037   0.035   9.780 -0.7231 -0.4416  0.3284
  326MOL0     C43887   5.065  -0.089   9.868  0.9856  0.3531 -0.5781
  326MOL0     C43888   4.949  -0.193   9.874 -0.6816  0.1184 -0.6383
  326MOL0     C43889   4.993  -0.314   9.954 -0.2504 -0.1147  0.1447
  326MOL0     C43890   4.888  -0.429   9.962 -0.4637 -0.0334  0.1260
  326MOL0     C43891   4.770  -0.371  10.039 -0.4081  0.5852  1.1668
  326MOL0     N43892   4.673  -0.484  10.055  0.7750  0.3750  0.0247
  326MOL0     C43893   4.702  -0.597  10.128 -0.6570  0.3677  0.0710
  326MOL0     C43894   4.615  -0.692  10.082 -0.3751  0.5149 -0.0018
  326MOL0     C43895   4.620  -0.839  10.127  0.8500 -0.7414  0.4784
  326MOL0     C43896   4.554  -0.849  10.270  0.1989 -0.0246  0.3732
  326MOL0     C43897   4.401  -0.847  10.252 -0.9398  0.2831 -0.1685
  326MOL0     C43898   4.350  -0.844  10.391  0.2541  0.5899 -0.1344
  326MOL0     O43899   4.212  -0.877  10.386  0.1770 -0.0679  0.1521
  326MOL0     C43900   4.132  -0.769  10.383  0.4512 -0.0550 -0.2540
  326MOL0     C43901   4.026  -0.777  10.304 -0.5397  0.0913  0.0851
  326MOL0     C43902   3.913  -0.695  10.316 -0.9236 -0.5234  0.2842
  326MOL0     C43903   3.795  -0.717  10.219 -0.7064  0.4420  0.1966
  326MOL0     C43904   3.908  -0.586  10.405  0.5033  0.1692  1.4292
  326MOL0     C43905   3.782  -0.507  10.441 -0.0540 -1.0474  0.0858
  326MOL0     O43906   3.812  -0.387  10.504  0.7225  0.8660  0.2991
  326MOL0     C43907   3.703  -0.297  10.521  0.7590 -0.1060  0.1506
  326MOL0     C43908   3.613  -0.301  10.629  0.3875 -0.6088  0.2073
  326MOL0     C43909   3.517  -0.198  10.657  0.0707  1.5117  0.3508
  326MOL0     C43910   3.510  -0.097  10.563 -1.0817 -0.6528 -0.5229
  326MOL0     O43911   3.421   0.011  10.578 -0.3347 -0.4280 -0.3191
  326MOL0     C43912   3.287  -0.021  10.617  1.0517  0.7454 -0.5022
  326MOL0     C43913   3.214  -0.079  10.505  0.2666  0.1627  0.7639
  326MOL0     C43914   3.063  -0.084  10.528 -0.0455  0.2637  1.1749
  326MOL0     C43915   3.021  -0.199  10.613  0.3414  0.0725  0.2512
  326MOL0     C43916   2.867  -0.223  10.600 -0.0712  0.3116 -0.2005
  326MOL0     C43917   2.770  -0.097  10.617  0.6420  0.3126 -0.2710
  326MOL0     C43918   2.625  -0.150  10.635  0.3843 -0.8132 -0.1914
  326MOL0     C43919   2.525  -0.032  10.660  0.0766  0.5606 -0.1759
  326MOL0    Cl43920   2.382  -0.038  10.541  0.9331  0.0397 -0.0989
  326MOL0     C43921   3.604  -0.092  10.456 -0.1450  0.0698  0.0208
  326MOL0     C43922   3.707  -0.187  10.435  0.1087 -0.0655  0.0272
  326MOL0     O43923   3.673  -0.544  10.408  0.4057 -0.1166 -0.3001
  326MOL0     C43924   4.025  -0.563  10.473  0.3663 -0.1025 -0.4795
  326MOL0     C43925   4.137  -0.650  10.467 -0.0505  0.0803  1.0345
  326MOL0     N43926   4.534  -0.626   9.988  0.5240  0.3779  0.4663
  326MOL0     N43927   4.573  -0.509   9.976  0.1747 -0.1789 -0.2196
  326MOL0     C43928   5.605   0.292   9.720  0.0619  0.0032 -0.0653
  326MOL0     C43929   5.725   0.302   9.651  0.2924 -1.2991  0.7825
  326MOL0     C43930   6.115   0.178   9.456  0.6231  0.6548  0.3434
  326MOL0     C43931   6.204   0.120   9.362 -0.1349 -0.7847 -0.3894
  326MOL0     C43932   6.339   0.152   9.373 -0.8199  0.2581 -0.6177
  326MOL0     C43933   6.388   0.245   9.471 -0.4192 -0.0924 -0.0447
  326MOL0     O43934   6.514   0.280   9.507 -0.0450  0.1372 -0.0736
  326MOL0     C43935   6.580   0.331   9.391 -0.2951 -0.1011  0.1656
  326MOL0     C43936   6.558   0.489   9.406  0.5722 -0.3207  0.0256
  326MOL0     C43937   6.612   0.552   9.530 -0.5070 -0.5090 -0.3085
  326MOL0     C43938   6.587   0.711   9.537 -0.8670 -0.3669 -0.0877
  326MOL0     C43939   6.612   0.763   9.668  0.6490 -0.5778  0.6079
  326MOL0     C43940   6.608   0.815   9.776 -0.0798 -0.6102 -0.0502
  326MOL0     C43941   6.297   0.305   9.554  0.4555 -0.3240 -1.1892
  326MOL0     C43942   6.159   0.277   9.541 -0.7500 -0.4501 -0.9527
  326MOL0     H43943   5.732   0.014   9.479 -2.1778 -0.9045 -1.0320
  326MOL0     H43944   5.523  -0.015   9.576 -0.0087 -0.2027  1.8319
  326MOL0     H43945   5.263   0.078   9.613 -0.8083 -1.8180  0.5942
  326MOL0     H43946   5.315  -0.013   9.762  0.8131 -0.2086  1.5213
  326MOL0     H43947   5.188   0.142   9.891 -0.7724 -1.7813  1.0575
  326MOL0     H43948   5.137   0.227   9.752 -0.5998 -0.1448  1.3418
  326MOL0     H43949   4.940   0.078   9.810 -1.4184  0.5362 -2.9241
  326MOL0     H43950   5.018   0.005   9.677 -3.1647  0.3150  0.4729
  326MOL0     H43951   5.153  -0.139   9.826  0.1122 -3.2933  1.4674
  326MOL0     H43952   5.089  -0.054   9.969 -0.3016 -0.4448  0.0286
  326MOL0     H43953   4.855  -0.161   9.920  0.3117 -0.0126  1.6348
  326MOL0     H43954   4.923  -0.226   9.773 -1.0676  3.4917 -1.7486
  326MOL0     H43955   5.085  -0.358   9.916  0.4226  2.1952 -1.0769
  326MOL0     H43956   5.022  -0.289  10.057  1.2605 -1.1287 -0.0063
  326MOL0     H43957   4.860  -0.453   9.859  4.3615 -0.5042 -1.3322
  326MOL0     H43958   4.932  -0.509  10.021 -2.5795 -3.3267 -2.4112
  326MOL0     H43959   4.719  -0.291   9.984  0.3839  1.7617  2.0782
  326MOL0     H43960   4.786  -0.324  10.136  1.5657  1.7463  0.3521
  326MOL0     H43961   4.773  -0.598  10.209 -1.6529  0.1252  0.9650
  326MOL0     H43962   4.563  -0.888  10.047 -1.4514  4.2452 -1.3845
  326MOL0     H43963   4.726  -0.866  10.128  1.5131  1.6654  0.7500
  326MOL0     H43964   4.588  -0.760  10.326 -2.9468  2.1556 -0.9160
  326MOL0     H43965   4.596  -0.938  10.318 -0.2177 -1.0043 -1.0261
  326MOL0     H43966   4.379  -0.936  10.192 -0.7250 -0.3158  0.6206
  326MOL0     H43967   4.378  -0.757  10.195 -0.5539 -1.1589 -2.7440
  326MOL0     H43968   4.376  -0.747  10.434 -2.1232  1.9723 -1.5675
  326MOL0     H43969   4.395  -0.917  10.459 -1.7301 -0.4498  0.1480
  326MOL0     H43970   4.035  -0.858  10.232  2.6229  0.5206 -0.1546
  326MOL0     H43971   3.821  -0.793  10.145  1.6095  0.4766  0.9027
  326MOL0     H43972   3.712  -0.749  10.283 -0.1061  2.3194  2.0500
  326MOL0     H43973   3.771  -0.625  10.163 -1.5878 -0.2499 -0.6013
  326MOL0     H43974   3.629  -0.387  10.693 -0.9237 -1.9896 -1.2346
  326MOL0     H43975   3.460  -0.219  10.747  0.3784  2.9956  0.9127
  326MOL0     H43976   3.273  -0.093  10.698 -1.8551 -0.6421 -2.0788
  326MOL0     H43977   3.245   0.075  10.649 -0.2935 -0.8292  3.0249
  326MOL0     H43978   3.231  -0.006  10.424  0.9889  1.4815  2.0544
  326MOL0     H43979   3.250  -0.176  10.470 -0.5808  0.8694 -2.4107
  326MOL0     H43980   3.003  -0.083  10.437  0.3618 -0.3890  0.8958
  326MOL0     H43981   3.035   0.011  10.575  1.3618  2.7676 -2.5763
  326MOL0     H43982   3.073  -0.291  10.585 -1.8643 -1.4372  0.8953
  326MOL0     H43983   3.051  -0.176  10.716  0.2611  1.3193  0.0100
  326MOL0     H43984   2.842  -0.311  10.659  0.5889  0.3395  0.1373
  326MOL0     H43985   2.846  -0.257  10.498  1.3815 -1.0432 -0.0982
  326MOL0     H43986   2.785  -0.037  10.707 -0.9586 -0.3837  0.5033
  326MOL0     H43987   2.777  -0.027  10.533 -3.4297 -0.8364 -1.8145
  326MOL0     H43988   2.616  -0.219  10.720  1.8324 -1.0779 -0.2262
  326MOL0     H43989   2.603  -0.209  10.546 -0.2824 -0.1420 -0.4813
  326MOL0     H43990   2.571   0.065  10.639 -1.3615  1.1164 -0.8817
  326MOL0     H43991   2.483  -0.031  10.761  0.4810  0.2431 -0.0034
  326MOL0     H43992   3.586  -0.024  10.374 -0.9657 -0.2196 -0.0483
  326MOL0     H43993   3.778  -0.174  10.354  0.3583  2.7052  0.5846
  326MOL0     H43994   4.022  -0.482  10.545 -1.2854 -1.8097  1.4959
  326MOL0     H43995   4.215  -0.634  10.541 -0.1073  0.0662  1.0965
  326MOL0     H43996   5.582   0.360   9.801  1.6221  0.0517  0.3675
  326MOL0     H43997   5.779   0.394   9.672 -0.3666 -1.5330  4.1866
  326MOL0     H43998   6.172   0.044   9.291 -0.4582 -0.5220 -0.5301
  326MOL0     H43999   6.412   0.112   9.304  2.0824  0.9486  1.8459
  326MOL0     H44000   6.687   0.308   9.398 -0.6214 -1.4842  0.9656
  326MOL0     H44001   6.545   0.295   9.294 -1.5176 -4.5298  1.9904
  326MOL0     H44002   6.454   0.520   9.399 -0.0592 -2.3358 -0.2192
  326MOL0     H44003   6.617   0.536   9.326  1.0842 -0.3631  0.3710
  326MOL0     H44004   6.719   0.532   9.532 -0.4092 -0.0966 -1.0212
  326MOL0     H44005   6.561   0.518   9.620 -0.5411 -0.1708 -0.1970
  326MOL0     H44006   6.481   0.727   9.514 -1.9698 -3.2726  2.2710
  326MOL0     H44007   6.641   0.773   9.465  1.0469 -1.1040  0.6594
  326MOL0     H44008   6.630   0.883   9.856 -1.4565 -0.2486  0.0394
  326MOL0     H44009   6.324   0.381   9.626  0.2135 -1.2644 -0.0709
  326MOL0     H44010   6.092   0.334   9.605 -1.0296 -0.7182 -1.0035
  327MOL0     O44011   5.117   4.776   0.372  0.7182  0.1094 -0.5849
  327MOL0     C44012   5.156   4.892   0.374  0.4547 -0.2903  0.5042
  327MOL0     O44013   5.088   5.006   0.405  0.3142  1.2487 -0.4006
  327MOL0     C44014   4.959   4.996   0.411  0.5093 -0.6055  0.6729
  327MOL0     C44015   4.876   4.945   0.307 -0.5046  0.3607 -0.0136
  327MOL0     C44016   4.738   4.938   0.324  0.1370 -0.2103 -0.5886
  327MOL0     C44017   4.680   4.971   0.450 -0.3048  0.1639  0.2366
  327MOL0     O44018   4.548   4.951   0.453 -0.1854  0.3874  0.2451
  327MOL0     C44019   4.486   5.030   0.552 -0.5641  0.3770 -0.4770
  327MOL0     C44020   4.336   5.017   0.555  0.1062 -0.8110 -0.2277
  327MOL0     C44021   4.280   5.112   0.444 -0.3100  0.8893  0.2413
  327MOL0     C44022   4.164   5.033   0.376  0.4523 -1.1712  0.1901
  327MOL0     C44023   4.088   5.118   0.272  0.3409 -0.3542  0.0382
  327MOL0     C44024   3.980   5.023   0.218 -0.5384  0.0416 -0.2210
  327MOL0     C44025   3.881   5.095   0.112  0.0753 -0.2909 -0.0330
  327MOL0     C44026   3.745   5.121   0.175 -0.3904  0.3251  0.2303
  327MOL0     N44027   3.645   5.174   0.081 -0.2202 -0.2552 -0.2513
  327MOL0     C44028   3.517   5.122   0.060 -0.0709  0.6511  0.4023
  327MOL0     C44029   3.463   5.186  -0.046 -0.3879 -0.1574  0.9499
  327MOL0     C44030   3.333   5.168  -0.101  0.2639  0.3864  0.0858
  327MOL0     C44031   3.342   5.080  -0.228 -0.9916 -0.7787 -0.3886
  327MOL0     C44032   3.388   4.941  -0.186  0.5512 -0.1539 -0.4193
  327MOL0     C44033   3.411   4.860  -0.313  0.9071 -0.3661  0.1297
  327MOL0     O44034   3.299   4.867  -0.395  1.0247  0.3688  1.0667
  327MOL0     C44035   3.308   4.813  -0.525 -0.7705 -0.3297 -0.0366
  327MOL0     C44036   3.417   4.727  -0.568  0.5086 -0.3607 -0.6746
  327MOL0     C44037   3.405   4.681  -0.696  0.4460  0.6961  0.2711
  327MOL0     C44038   3.511   4.572  -0.727  0.3717 -0.3689 -0.1842
  327MOL0     C44039   3.309   4.724  -0.793  0.5463 -0.3638  0.7722
  327MOL0     C44040   3.282   4.666  -0.927 -0.2007  0.6736  0.5163
  327MOL0     O44041   3.154   4.606  -0.953 -0.2758  0.7079 -0.1702
  327MOL0     C44042   3.142   4.543  -1.079  1.0427  0.1507  0.6763
  327MOL0     C44043   3.096   4.621  -1.190 -0.7733 -0.3569  0.9236
  327MOL0     C44044   3.085   4.567  -1.316  1.0902  0.7142 -0.9050
  327MOL0     C44045   3.104   4.430  -1.331 -0.3532 -0.2125  0.4825
  327MOL0     O44046   3.098   4.361  -1.449 -0.5131  0.3367  0.3742
  327MOL0     C44047   2.986   4.268  -1.462  0.7371  0.2084 -0.6116
  327MOL0     C44048   2.849   4.329  -1.446  0.0745  0.6799 -0.0730
  327MOL0     C44049   2.830   4.434  -1.549  0.4331 -0.5224  0.1563
  327MOL0     C44050   2.695   4.517  -1.528 -1.5226  0.0535  0.0160
  327MOL0     C44051   2.560   4.444  -1.515 -0.1541  0.0878  0.3011
  327MOL0     C44052   2.516   4.417  -1.654 -0.6275 -0.0232 -0.4084
  327MOL0     C44053   2.410   4.308  -1.652  0.8607  0.4365  0.5793
  327MOL0     C44054   2.312   4.298  -1.771  0.5830  0.0139  0.1185
  327MOL0    Cl44055   2.178   4.403  -1.735  0.3211 -0.1022 -0.0608
  327MOL0     C44056   3.149   4.359  -1.225 -0.3060 -0.2740  0.3574
  327MOL0     C44057   3.171   4.414  -1.102  0.0309 -0.3346  0.2157
  327MOL0     O44058   3.364   4.689  -1.017  0.1190  0.1513  0.0581
  327MOL0     C44059   3.217   4.816  -0.746  0.4645 -0.5192  0.3930
  327MOL0     C44060   3.207   4.858  -0.616 -0.5452  0.3445 -0.0598
  327MOL0     N44061   3.561   5.285  -0.079  0.0298 -0.2557  0.5522
  327MOL0     N44062   3.663   5.272  -0.010  0.0742  0.5352  0.1649
  327MOL0     C44063   4.764   5.004   0.561 -0.1415 -1.0299  0.3311
  327MOL0     C44064   4.900   5.018   0.536  0.3177  0.9833  0.2936
  327MOL0     C44065   5.291   4.913   0.325  0.2112 -0.8739  0.1992
  327MOL0     C44066   5.360   4.804   0.288  0.3541 -0.1456  0.4394
  327MOL0     C44067   5.484   4.817   0.230  0.4276 -0.2814  1.0211
  327MOL0     C44068   5.539   4.941   0.207 -0.5360  0.4065 -0.3287
  327MOL0     O44069   5.653   4.960   0.139  0.6514  0.0344 -0.3668
  327MOL0     C44070   5.775   4.881   0.167  0.3464 -0.2271 -0.2404
  327MOL0     C44071   5.816   4.893   0.313  0.2968 -0.2187 -0.0285
  327MOL0     C44072   5.840   5.040   0.362  0.9525 -0.6801 -0.7746
  327MOL0     C44073   5.900   5.034   0.501  0.4587 -0.6214 -0.3137
  327MOL0     C44074   5.921   5.169   0.554  0.7953  0.3396  0.1970
  327MOL0     C44075   5.921   5.286   0.585 -0.9186  0.0427  0.0740
  327MOL0     C44076   5.474   5.058   0.250 -0.0881 -0.4972  0.1065
  327MOL0     C44077   5.349   5.039   0.311  0.0780 -0.6840  0.9122
  327MOL0     H44078   4.917   4.928   0.208  0.3369 -1.6384  0.6287
  327MOL0     H44079   4.673   4.906   0.243  0.8660  1.6045 -1.9435
  327MOL0     H44080   4.513   4.989   0.650 -3.3332  3.3058  1.7390
  327MOL0     H44081   4.515   5.136   0.556 -3.3391  1.1817  1.1357
  327MOL0     H44082   4.302   4.915   0.532 -1.4272  0.2611 -3.2193
  327MOL0     H44083   4.292   5.041   0.652 -0.0956  0.8335 -0.7037
  327MOL0     H44084   4.251   5.210   0.481 -1.5098  1.1460 -1.3019
  327MOL0     H44085   4.352   5.125   0.363 -0.0529  0.3902  0.3825
  327MOL0     H44086   4.219   4.962   0.313 -0.1362 -2.0124  0.6212
  327MOL0     H44087   4.103   4.987   0.453  1.8714 -0.5155  1.7651
  327MOL0     H44088   4.043   5.209   0.312  0.9636  0.9903 -2.1550
  327MOL0     H44089   4.156   5.157   0.196 -0.5079  1.8127  0.3204
  327MOL0     H44090   4.035   4.942   0.168 -0.2216  0.3054 -0.3062
  327MOL0     H44091   3.926   4.978   0.302 -0.8955  1.5819  0.4026
  327MOL0     H44092   3.923   5.186   0.068  0.5630  0.1665  1.3361
  327MOL0     H44093   3.865   5.018   0.036 -1.7387  0.4430 -0.4289
  327MOL0     H44094   3.765   5.203   0.244 -1.1796  1.4133 -0.8047
  327MOL0     H44095   3.706   5.033   0.227 -3.8888  1.4734 -0.2243
  327MOL0     H44096   3.475   5.038   0.114  0.3723 -1.3055 -2.1554
  327MOL0     H44097   3.275   5.116  -0.024 -0.6547  0.3227 -0.6362
  327MOL0     H44098   3.286   5.261  -0.133 -3.7368 -0.5569  2.5586
  327MOL0     H44099   3.410   5.128  -0.298 -1.2333  1.4462  0.8197
  327MOL0     H44100   3.250   5.081  -0.286 -1.6676  1.4395  0.6328
  327MOL0     H44101   3.317   4.889  -0.121 -1.4378 -0.0949 -2.4234
  327MOL0     H44102   3.486   4.949  -0.139  1.1865 -0.3361 -1.6649
  327MOL0     H44103   3.421   4.757  -0.276  1.4966  0.5258  2.6318
  327MOL0     H44104   3.505   4.893  -0.357  0.2721  1.2693 -0.0458
  327MOL0     H44105   3.500   4.706  -0.501 -2.2665 -1.0801  2.8970
  327MOL0     H44106   3.580   4.607  -0.804 -3.4792 -0.1646 -3.9064
  327MOL0     H44107   3.558   4.546  -0.632 -0.3930  0.3763  0.4157
  327MOL0     H44108   3.465   4.477  -0.754  0.0458 -0.7883  1.7199
  327MOL0     H44109   3.078   4.727  -1.177 -1.0725  0.0399 -2.1056
  327MOL0     H44110   3.043   4.627  -1.396 -1.3817  0.4902  0.1319
  327MOL0     H44111   2.987   4.197  -1.545 -0.5746 -1.5273  0.7610
  327MOL0     H44112   3.006   4.199  -1.379 -0.7356  0.9190  0.4005
  327MOL0     H44113   2.771   4.253  -1.448 -0.8105  1.4188  2.5531
  327MOL0     H44114   2.833   4.371  -1.346 -5.6109  0.5777 -0.6312
  327MOL0     H44115   2.828   4.389  -1.649 -2.3533  2.1314 -1.1915
  327MOL0     H44116   2.911   4.507  -1.541  0.4444 -0.4779 -0.3339
  327MOL0     H44117   2.716   4.557  -1.429  2.7735  1.1449 -1.1469
  327MOL0     H44118   2.692   4.587  -1.612 -3.1203 -3.3475 -3.0749
  327MOL0     H44119   2.481   4.503  -1.467 -0.7023  0.9130 -1.5211
  327MOL0     H44120   2.561   4.353  -1.455 -2.7306  1.0684  2.0355
  327MOL0     H44121   2.482   4.511  -1.697 -0.7714  1.1817  2.1516
  327MOL0     H44122   2.598   4.383  -1.718 -0.2114  1.1467 -0.5124
  327MOL0     H44123   2.350   4.335  -1.565 -0.6042  1.5244 -0.7207
  327MOL0     H44124   2.455   4.212  -1.625  1.9512  0.1117 -2.0918
  327MOL0     H44125   2.276   4.194  -1.776 -0.7666  0.4355  0.6180
  327MOL0     H44126   2.358   4.333  -1.864  0.8564  0.7067  0.5080
  327MOL0     H44127   3.168   4.252  -1.229  0.0115 -0.2454  0.9160
  327MOL0     H44128   3.211   4.355  -1.021 -0.8514  1.8230  2.3334
  327MOL0     H44129   3.141   4.839  -0.821  2.3782 -1.5854 -2.0187
  327MOL0     H44130   3.129   4.930  -0.596 -0.5749  0.4213 -0.4486
  327MOL0     H44131   4.728   5.033   0.659 -1.5449 -2.0338  0.1388
  327MOL0     H44132   4.951   5.041   0.629  0.3508 -1.8226  1.0719
  327MOL0     H44133   5.332   4.699   0.286  3.0379 -0.9784 -2.9649
  327MOL0     H44134   5.526   4.724   0.193 -2.0139 -1.0306 -0.0577
  327MOL0     H44135   5.770   4.774   0.142  2.6291 -0.4175 -0.0142
  327MOL0     H44136   5.859   4.922   0.111 -0.4572 -0.1476 -1.4194
  327MOL0     H44137   5.905   4.831   0.323  1.2606  0.5953 -2.7314
  327MOL0     H44138   5.729   4.850   0.364  1.4647 -0.4531  1.8647
  327MOL0     H44139   5.748   5.098   0.379  0.0987 -1.6054 -2.0426
  327MOL0     H44140   5.914   5.087   0.296  0.9159 -1.1496 -1.1566
  327MOL0     H44141   5.999   4.988   0.487  1.5042  1.2939  0.4108
  327MOL0     H44142   5.838   4.968   0.562  2.1271 -1.4084  0.6284
  327MOL0     H44143   5.913   5.391   0.607  2.2994  0.2675  0.5990
  327MOL0     H44144   5.511   5.157   0.227  0.4807 -0.9621 -1.0824
  327MOL0     H44145   5.294   5.123   0.352  1.4406 -0.1057  1.6481
  328MOL0     O44146   6.496   3.590   4.707  0.1165  0.5170 -0.2090
  328MOL0     C44147   6.537   3.569   4.591 -0.2549 -0.5604  0.1135
  328MOL0     O44148   6.459   3.556   4.477 -0.0474 -0.1612  0.2758
  328MOL0     C44149   6.323   3.567   4.483  0.4512 -0.5916 -0.0295
  328MOL0     C44150   6.253   3.670   4.558  0.4398  0.1720 -0.2190
  328MOL0     C44151   6.114   3.660   4.577  0.1249 -0.3899 -0.2580
  328MOL0     C44152   6.039   3.554   4.517  0.0484  0.4071 -1.1035
  328MOL0     O44153   5.909   3.566   4.554 -0.0615  0.6182 -1.0702
  328MOL0     C44154   5.840   3.447   4.514 -0.3423  0.6068  0.2864
  328MOL0     C44155   5.694   3.464   4.542 -0.2389  0.8243 -1.2911
  328MOL0     C44156   5.608   3.355   4.487 -0.8489  0.5221 -0.1162
  328MOL0     C44157   5.480   3.353   4.558  1.1088 -0.5109  0.3196
  328MOL0     C44158   5.389   3.242   4.488 -0.7811  0.5979  0.6374
  328MOL0     C44159   5.245   3.230   4.540  1.0271  0.2624  0.1926
  328MOL0     C44160   5.154   3.356   4.502 -0.6788  0.4519  0.5689
  328MOL0     C44161   5.008   3.331   4.537  0.1602  0.6088  0.0643
  328MOL0     N44162   4.985   3.308   4.686  0.1653  0.4237  1.0826
  328MOL0     C44163   4.939   3.197   4.747  0.7238 -0.4992 -0.4235
  328MOL0     C44164   4.939   3.230   4.883  0.8490 -0.5605 -0.1349
  328MOL0     C44165   4.898   3.160   5.004 -0.2570 -0.2254 -0.4613
  328MOL0     C44166   4.887   3.009   4.981 -0.1284 -0.0257  0.2593
  328MOL0     C44167   5.021   2.940   4.950  0.0731 -0.6484 -0.0423
  328MOL0     C44168   5.117   2.935   5.069  0.1712  0.0488 -0.9433
  328MOL0     O44169   5.235   2.874   5.010 -0.3588 -0.0817 -0.3108
  328MOL0     C44170   5.347   2.873   5.093  0.1217  0.0821  0.2513
  328MOL0     C44171   5.468   2.818   5.038  0.0632  0.0518  0.3487
  328MOL0     C44172   5.595   2.819   5.100  0.3969 -0.0950 -0.0146
  328MOL0     C44173   5.702   2.739   5.025  0.2603 -0.3587  0.2866
  328MOL0     C44174   5.598   2.881   5.221  0.3482 -1.1583  0.2455
  328MOL0     C44175   5.721   2.888   5.299 -0.3821  0.1912  0.3116
  328MOL0     O44176   5.802   2.787   5.303 -0.3522  0.6359 -0.4355
  328MOL0     C44177   5.917   2.788   5.381 -1.1491 -0.9875 -0.2813
  328MOL0     C44178   6.012   2.878   5.338 -0.3323  0.6831 -0.0349
  328MOL0     C44179   6.131   2.911   5.412 -0.3798 -0.3187 -0.5329
  328MOL0     C44180   6.158   2.842   5.530  0.1209  0.1326 -0.3055
  328MOL0     O44181   6.274   2.889   5.596  0.0091  0.1988 -0.3845
  328MOL0     C44182   6.318   2.817   5.710 -0.2112 -0.1968  0.1770
  328MOL0     C44183   6.464   2.829   5.733  0.3321 -0.1183 -0.3527
  328MOL0     C44184   6.559   2.777   5.615  0.3413 -0.5097  0.1823
  328MOL0     C44185   6.707   2.808   5.640 -0.0891  0.4467  0.4241
  328MOL0     C44186   6.792   2.810   5.507  1.3271 -0.1708  0.1590
  328MOL0     C44187   6.759   2.929   5.423 -0.4898 -0.5655  0.5217
  328MOL0     C44188   6.843   2.932   5.285 -0.7802 -0.5354 -0.1030
  328MOL0     C44189   6.801   3.058   5.203 -0.1222 -0.3291 -0.2627
  328MOL0    Cl44190   6.912   3.189   5.259  0.0312  0.3997  0.1159
  328MOL0     C44191   6.065   2.744   5.577  0.4143 -0.3956 -0.4460
  328MOL0     C44192   5.939   2.716   5.504  0.3548 -0.1696  0.0388
  328MOL0     O44193   5.745   2.986   5.366  0.3044  0.4740 -0.7185
  328MOL0     C44194   5.482   2.936   5.283  0.7426 -1.1419  0.7380
  328MOL0     C44195   5.362   2.931   5.220  0.9451 -0.0810 -0.1199
  328MOL0     N44196   4.982   3.365   4.892 -0.4327 -0.1793  0.7181
  328MOL0     N44197   5.002   3.412   4.771  0.1711 -0.1275  0.7040
  328MOL0     C44198   6.107   3.461   4.435  0.1387  0.1631  1.0113
  328MOL0     C44199   6.248   3.471   4.417  0.0920  0.0840 -0.4253
  328MOL0     C44200   6.686   3.568   4.579  0.1782  0.7969  0.7356
  328MOL0     C44201   6.766   3.634   4.668 -0.6090 -0.0094 -0.4129
  328MOL0     C44202   6.913   3.611   4.660 -0.4708 -0.4489  0.5373
  328MOL0     C44203   6.968   3.535   4.556  0.1180  0.9490 -0.0483
  328MOL0     O44204   7.107   3.517   4.562  0.1395  0.4827  0.6167
  328MOL0     C44205   7.182   3.451   4.466  0.1943 -0.7298 -0.8722
  328MOL0     C44206   7.325   3.490   4.478 -0.9402 -0.6710  0.1427
  328MOL0     C44207   7.398   3.470   4.609  0.1479  0.3640  0.6738
  328MOL0     C44208   7.438   3.325   4.620  0.2413 -0.0250 -0.5551
  328MOL0     C44209   7.554   3.287   4.544  0.1004 -1.0883  0.2845
  328MOL0     C44210   7.659   3.252   4.490  0.1581 -0.4927  0.6277
  328MOL0     C44211   6.882   3.473   4.463 -0.9141 -0.2294 -1.1300
  328MOL0     C44212   6.747   3.492   4.481 -0.0140 -0.1066 -0.1267
  328MOL0     H44213   6.325   3.737   4.603 -1.3404  1.7726  0.4025
  328MOL0     H44214   6.053   3.725   4.640 -1.0334 -2.4449  0.8529
  328MOL0     H44215   5.842   3.430   4.406 -1.2842  0.8854  0.2174
  328MOL0     H44216   5.882   3.359   4.563 -1.6307 -1.9694 -2.8380
  328MOL0     H44217   5.689   3.457   4.651 -0.4005 -0.3331 -1.3618
  328MOL0     H44218   5.661   3.563   4.507  2.6995  2.3637 -0.0111
  328MOL0     H44219   5.587   3.377   4.382 -2.5337 -0.4208 -0.0130
  328MOL0     H44220   5.660   3.262   4.507  0.6685  1.3737  0.0606
  328MOL0     H44221   5.492   3.323   4.662 -0.1885  0.8742  0.9188
  328MOL0     H44222   5.429   3.450   4.562  1.3770 -0.3786  0.5287
  328MOL0     H44223   5.384   3.262   4.381 -0.5104  1.0271  0.7011
  328MOL0     H44224   5.441   3.147   4.502  0.1222  0.7790 -1.2172
  328MOL0     H44225   5.202   3.142   4.491  1.8121  1.0322 -2.0009
  328MOL0     H44226   5.231   3.210   4.647 -0.3005 -0.7169 -0.1416
  328MOL0     H44227   5.191   3.438   4.564  1.6493 -0.6862  0.8281
  328MOL0     H44228   5.162   3.388   4.398 -3.8795  0.8114  0.3414
  328MOL0     H44229   4.974   3.245   4.479  0.6069 -1.1638  2.2732
  328MOL0     H44230   4.951   3.418   4.504 -0.3653 -0.5446 -2.2766
  328MOL0     H44231   4.891   3.109   4.703  0.5588 -0.8939  0.5163
  328MOL0     H44232   4.960   3.188   5.089  0.9528 -0.9041 -1.0720
  328MOL0     H44233   4.795   3.190   5.024 -0.5539 -1.6734  0.3527
  328MOL0     H44234   4.825   2.992   4.892  0.4585  1.6382 -0.5136
  328MOL0     H44235   4.839   2.964   5.068  0.1724  0.3787  0.6374
  328MOL0     H44236   5.071   2.989   4.867 -0.6817 -1.1455 -0.8134
  328MOL0     H44237   4.992   2.838   4.920  1.9974 -1.2183 -0.0981
  328MOL0     H44238   5.077   2.877   5.153 -0.0282 -0.5773 -1.4609
  328MOL0     H44239   5.135   3.035   5.108  0.7247  0.1858 -1.5269
  328MOL0     H44240   5.474   2.769   4.941  2.5101 -1.7818  1.3441
  328MOL0     H44241   5.668   2.637   5.003  0.3579 -0.3783  0.2274
  328MOL0     H44242   5.720   2.793   4.932  2.2024 -0.5515  0.5160
  328MOL0     H44243   5.801   2.731   5.071  0.3950 -2.8284 -0.2849
  328MOL0     H44244   5.980   2.926   5.247  0.0180  1.2018  0.1121
  328MOL0     H44245   6.204   2.987   5.388  0.4102 -0.3389  1.6138
  328MOL0     H44246   6.263   2.853   5.797 -1.4430 -3.7227  1.0073
  328MOL0     H44247   6.292   2.712   5.701  0.3957 -0.3573  0.2427
  328MOL0     H44248   6.480   2.935   5.755  0.8943  0.0542 -1.5472
  328MOL0     H44249   6.483   2.764   5.818  0.7144 -0.8211 -0.9693
  328MOL0     H44250   6.519   2.814   5.520 -1.4469  0.7469  1.3549
  328MOL0     H44251   6.550   2.669   5.597 -1.4657 -0.1870 -1.0154
  328MOL0     H44252   6.716   2.912   5.672 -2.1868  0.9673 -0.5122
  328MOL0     H44253   6.743   2.746   5.723 -0.5825 -3.5758 -2.0961
  328MOL0     H44254   6.775   2.717   5.453 -2.4693  1.8297 -2.4981
  328MOL0     H44255   6.898   2.802   5.535  1.5173  0.1046 -0.4593
  328MOL0     H44256   6.651   2.933   5.412 -0.1957 -0.3649 -4.7354
  328MOL0     H44257   6.794   3.022   5.469 -0.9509 -0.6512  1.0640
  328MOL0     H44258   6.819   2.841   5.228  2.2052 -0.6339 -1.3905
  328MOL0     H44259   6.950   2.940   5.303 -1.0786  1.2133  1.1240
  328MOL0     H44260   6.694   3.069   5.218 -0.4371 -3.0324  0.0892
  328MOL0     H44261   6.832   3.035   5.100  3.1707  1.7892  0.1171
  328MOL0     H44262   6.075   2.684   5.667 -1.1795 -2.1602 -1.3757
  328MOL0     H44263   5.883   2.627   5.531  2.4839 -1.9184 -0.9255
  328MOL0     H44264   5.492   2.992   5.376 -0.8536  2.7427 -1.2070
  328MOL0     H44265   5.277   2.971   5.276  1.2380 -0.1466  0.3794
  328MOL0     H44266   6.056   3.377   4.388  0.7858 -0.4643  1.4150
  328MOL0     H44267   6.299   3.416   4.339  1.7681  3.5557 -1.9784
  328MOL0     H44268   6.715   3.693   4.744  0.1411 -0.4620  0.4558
  328MOL0     H44269   6.988   3.667   4.715  1.0087 -0.0415 -1.7923
  328MOL0     H44270   7.170   3.343   4.475  1.8605 -0.9359 -0.8531
  328MOL0     H44271   7.164   3.478   4.361  2.3011 -0.4829 -1.2140
  328MOL0     H44272   7.322   3.596   4.451 -0.0727 -0.2234  1.6718
  328MOL0     H44273   7.377   3.433   4.400 -3.8407 -1.6539 -1.1973
  328MOL0     H44274   7.333   3.497   4.693  1.9182  2.2283  1.5551
  328MOL0     H44275   7.482   3.539   4.619  0.0350  0.2474  3.3302
  328MOL0     H44276   7.364   3.253   4.583 -0.4938  0.1706  0.4968
  328MOL0     H44277   7.462   3.305   4.725  0.0178 -0.4310 -0.5786
  328MOL0     H44278   7.752   3.215   4.451  0.3333 -0.8025  1.3202
  328MOL0     H44279   6.910   3.411   4.379 -0.4264  0.3192 -1.3788
  328MOL0     H44280   6.689   3.445   4.402 -0.7118  0.3614  0.0918
  329MOL0     O44281   2.236   2.150   5.304  0.1481  0.1357  0.6812
  329MOL0     C44282   2.329   2.175   5.235  0.0551  0.1872  0.4333
  329MOL0     O44283   2.327   2.235   5.115  0.1101 -0.1079 -0.4274
  329MOL0     C44284   2.201   2.256   5.059  0.3300  0.8305 -0.0082
  329MOL0     C44285   2.136   2.382   5.060 -0.4194  0.6080 -0.7151
  329MOL0     C44286   2.019   2.407   4.992  0.2531 -0.3038 -0.1391
  329MOL0     C44287   1.946   2.299   4.944  0.3688  0.2942 -0.0382
  329MOL0     O44288   1.818   2.297   4.899 -0.1791 -0.3841  0.2470
  329MOL0     C44289   1.744   2.422   4.916 -0.2491  0.1930  0.0931
  329MOL0     C44290   1.588   2.403   4.889 -0.3163 -0.9342  0.2851
  329MOL0     C44291   1.512   2.537   4.921 -0.1817  0.0574 -0.0912
  329MOL0     C44292   1.378   2.502   4.994  0.3562 -0.2203 -0.0153
  329MOL0     C44293   1.282   2.608   4.986  0.7502 -0.7382 -0.0972
  329MOL0     C44294   1.153   2.593   5.069  0.0806  0.1760 -0.0900
  329MOL0     C44295   1.055   2.707   5.054  0.1675  0.5267 -0.7826
  329MOL0     C44296   1.030   2.742   4.909 -0.1614 -0.5152  0.9135
  329MOL0     N44297   0.897   2.808   4.892 -0.8631  0.4767  0.2699
  329MOL0     C44298   0.854   2.929   4.940 -1.3683  0.4281  0.0139
  329MOL0     C44299   0.735   2.951   4.883  0.3602  0.0788  0.7599
  329MOL0     C44300   0.644   3.074   4.911  0.6306  0.3020 -0.1224
  329MOL0     C44301   0.695   3.212   4.851 -0.5136  0.6838 -0.6325
  329MOL0     C44302   0.610   3.340   4.894  0.3762  0.0080  0.1750
  329MOL0     C44303   0.549   3.327   5.044 -0.4025  0.3773 -0.3862
  329MOL0     O44304   0.439   3.240   5.060  0.2144  0.1547  0.2958
  329MOL0     C44305   0.322   3.312   5.085  0.1777 -1.5396  0.4008
  329MOL0     C44306   0.290   3.345   5.217  0.5028 -0.9471 -0.7658
  329MOL0     C44307   0.170   3.417   5.254 -0.7980  0.0603 -0.0577
  329MOL0     C44308   0.144   3.430   5.399 -0.0830 -0.3095 -0.0716
  329MOL0     C44309   0.079   3.449   5.145 -0.5829 -0.2119  0.2515
  329MOL0     C44310  -0.056   3.512   5.166 -1.0512 -0.6299 -0.9333
  329MOL0     O44311  -0.123   3.550   5.056 -0.2298  0.0285  0.6505
  329MOL0     C44312  -0.250   3.595   5.061  0.2807  0.5927 -1.0203
  329MOL0     C44313  -0.353   3.500   5.059 -0.4624 -1.0835 -0.2421
  329MOL0     C44314  -0.485   3.549   5.071 -0.2112 -0.1911  0.0226
  329MOL0     C44315  -0.518   3.680   5.103  0.7293 -0.9586  0.3504
  329MOL0     O44316  -0.650   3.711   5.122  0.4443  0.6084 -0.2325
  329MOL0     C44317  -0.689   3.809   5.216  0.0691 -0.2475 -0.0030
  329MOL0     C44318  -0.830   3.778   5.244  0.3284 -0.1062  0.3597
  329MOL0     C44319  -0.941   3.809   5.143  0.1038 -0.2958 -0.5362
  329MOL0     C44320  -1.086   3.828   5.206 -0.4571 -0.6679 -0.0741
  329MOL0     C44321  -1.188   3.836   5.091  0.3289  0.6726 -0.3221
  329MOL0     C44322  -1.328   3.840   5.154  0.1518 -0.2030 -0.0505
  329MOL0     C44323  -1.431   3.888   5.047 -0.2588 -0.7653  0.3713
  329MOL0     C44324  -1.573   3.905   5.098 -0.2396 -0.1411  0.5444
  329MOL0    Cl44325  -1.633   3.743   5.158  0.0312 -0.1130  0.1952
  329MOL0     C44326  -0.413   3.772   5.107  0.0756  0.7147  1.4180
  329MOL0     C44327  -0.281   3.733   5.093 -0.0722 -0.1350 -0.0200
  329MOL0     O44328  -0.092   3.535   5.283 -0.0882 -0.0122 -0.4820
  329MOL0     C44329   0.111   3.405   5.009 -0.1126  0.4414 -1.0587
  329MOL0     C44330   0.235   3.342   4.982  0.1242  0.1110 -0.1582
  329MOL0     N44331   0.694   2.839   4.816  0.2762  0.5029  0.3655
  329MOL0     N44332   0.790   2.758   4.827 -0.5146  0.4666  0.4435
  329MOL0     C44333   2.012   2.171   4.944  0.6465 -0.1773 -0.2170
  329MOL0     C44334   2.141   2.151   4.995  0.3899  0.0829  0.5385
  329MOL0     C44335   2.462   2.147   5.285 -0.7073 -0.0939 -0.5266
  329MOL0     C44336   2.586   2.191   5.223  0.5854 -0.1011 -0.3038
  329MOL0     C44337   2.708   2.150   5.280  0.0225 -0.3528  0.5299
  329MOL0     C44338   2.718   2.090   5.401 -0.2368 -0.0484 -0.6557
  329MOL0     O44339   2.845   2.064   5.452 -0.0792 -0.4575  0.8420
  329MOL0     C44340   2.861   1.998   5.579  0.0505  0.1300 -0.4727
  329MOL0     C44341   3.004   1.993   5.621 -0.2424 -0.7809 -0.1377
  329MOL0     C44342   3.068   1.896   5.527  0.0039  0.6392  0.9763
  329MOL0     C44343   3.209   1.876   5.580 -0.2132  0.4740  1.2345
  329MOL0     C44344   3.301   1.875   5.468 -0.5452 -0.4199 -0.2955
  329MOL0     C44345   3.377   1.893   5.370  0.4602  0.9355  0.1395
  329MOL0     C44346   2.604   2.046   5.465 -0.1798  0.4099 -0.5975
  329MOL0     C44347   2.479   2.077   5.408 -0.1200 -1.0515  0.9604
  329MOL0     H44348   2.181   2.465   5.114 -1.2410  0.6998 -0.1570
  329MOL0     H44349   1.997   2.513   4.991  1.1500 -0.0898  1.1041
  329MOL0     H44350   1.754   2.433   5.024  3.6499 -1.3071  0.0235
  329MOL0     H44351   1.791   2.501   4.856  1.1836 -1.2070 -0.6963
  329MOL0     H44352   1.580   2.384   4.782 -0.3879  1.2195 -0.1201
  329MOL0     H44353   1.544   2.321   4.948 -0.9219 -0.1505  0.9466
  329MOL0     H44354   1.569   2.611   4.978 -1.2158 -1.3258  2.9429
  329MOL0     H44355   1.496   2.591   4.828  0.6700  1.5156  0.5633
  329MOL0     H44356   1.337   2.412   4.947  3.1098 -1.7736  0.3482
  329MOL0     H44357   1.394   2.472   5.098  5.8035  2.0888  0.1428
  329MOL0     H44358   1.316   2.706   5.021 -1.5871 -0.1779  0.7808
  329MOL0     H44359   1.260   2.622   4.879  2.6743 -0.7118 -0.5289
  329MOL0     H44360   1.093   2.505   5.042  0.7061 -0.4787  0.6107
  329MOL0     H44361   1.173   2.585   5.177  0.7914 -1.5282 -0.3145
  329MOL0     H44362   0.958   2.683   5.098  1.5115 -1.5509  1.2600
  329MOL0     H44363   1.092   2.797   5.104  0.0479 -0.8708  2.0031
  329MOL0     H44364   1.039   2.649   4.852 -1.6485  0.9834 -2.0405
  329MOL0     H44365   1.098   2.823   4.879 -1.4983  1.4685  2.9497
  329MOL0     H44366   0.911   2.999   5.001  0.3693 -0.1491 -0.8741
  329MOL0     H44367   0.545   3.048   4.874 -0.2942  0.0373  2.3159
  329MOL0     H44368   0.637   3.083   5.020 -0.8365  0.7907 -0.2370
  329MOL0     H44369   0.697   3.191   4.743 -1.3204 -0.3532 -0.4544
  329MOL0     H44370   0.798   3.233   4.880 -1.2087  1.6135  1.3109
  329MOL0     H44371   0.526   3.360   4.827 -1.6655  0.1920  2.6620
  329MOL0     H44372   0.668   3.434   4.893 -0.9158  0.8198 -0.4489
  329MOL0     H44373   0.533   3.427   5.085 -0.4626  0.4707 -0.6350
  329MOL0     H44374   0.624   3.280   5.109 -2.0722 -1.6416  0.1701
  329MOL0     H44375   0.358   3.324   5.299 -1.2774  1.0585  1.3407
  329MOL0     H44376   0.087   3.519   5.427  1.2456  0.0955  1.5125
  329MOL0     H44377   0.100   3.341   5.447  2.0555 -0.2623  2.1589
  329MOL0     H44378   0.245   3.456   5.431 -0.2017  2.5423 -1.6806
  329MOL0     H44379  -0.318   3.402   5.028  0.4923 -0.4663 -1.1930
  329MOL0     H44380  -0.579   3.496   5.062 -1.2724  1.9663 -2.8859
  329MOL0     H44381  -0.634   3.799   5.310 -3.6913 -3.0218  2.1758
  329MOL0     H44382  -0.678   3.904   5.163 -0.0623  0.2413  0.8409
  329MOL0     H44383  -0.848   3.674   5.271  0.1474 -0.1168  0.1957
  329MOL0     H44384  -0.853   3.836   5.334 -1.0110  0.2566 -0.2020
  329MOL0     H44385  -0.943   3.730   5.068  0.8772  1.9919 -3.1276
  329MOL0     H44386  -0.916   3.899   5.086  0.6052 -1.2249 -1.8154
  329MOL0     H44387  -1.116   3.747   5.273 -4.4297  1.8635  1.5909
  329MOL0     H44388  -1.088   3.920   5.265 -1.6549 -0.2603 -0.7104
  329MOL0     H44389  -1.172   3.756   5.018  1.3381  2.0438 -1.6688
  329MOL0     H44390  -1.183   3.934   5.042 -0.9674  1.5152  1.1600
  329MOL0     H44391  -1.346   3.735   5.179  1.2925 -0.7977 -1.5958
  329MOL0     H44392  -1.335   3.901   5.244  0.8209 -0.5717  0.2576
  329MOL0     H44393  -1.427   3.818   4.963 -1.3437  1.0557 -1.2824
  329MOL0     H44394  -1.398   3.987   5.013 -2.0750 -0.3429 -0.2574
  329MOL0     H44395  -1.642   3.945   5.023 -0.4496  0.0947  0.8619
  329MOL0     H44396  -1.585   3.975   5.181 -1.7887  0.0637  0.1826
  329MOL0     H44397  -0.436   3.877   5.119  0.4465  0.5944  3.5596
  329MOL0     H44398  -0.196   3.799   5.102  0.9045 -1.4527  0.7547
  329MOL0     H44399   0.053   3.433   4.922  1.5158  2.5168 -1.5615
  329MOL0     H44400   0.274   3.320   4.884  2.2249  0.5494  0.5248
  329MOL0     H44401   1.956   2.087   4.904  2.9014 -0.9738 -1.8935
  329MOL0     H44402   2.188   2.053   4.990 -0.0909 -0.1512  0.4842
  329MOL0     H44403   2.580   2.248   5.131 -0.9723  0.9383  0.3909
  329MOL0     H44404   2.796   2.168   5.220  0.1517  0.4899  0.9652
  329MOL0     H44405   2.808   2.050   5.659  0.3450  1.1067 -0.9003
  329MOL0     H44406   2.815   1.899   5.578  1.6139 -0.7377  2.3738
  329MOL0     H44407   2.991   1.949   5.720  0.0292 -1.8077 -0.5419
  329MOL0     H44408   3.058   2.087   5.628 -1.8619  0.0643  1.9603
  329MOL0     H44409   3.070   1.933   5.424 -2.8922  0.1513  0.6799
  329MOL0     H44410   3.012   1.802   5.525  0.8948  0.0672  1.6192
  329MOL0     H44411   3.224   1.783   5.635 -1.7712 -1.6944 -1.7288
  329MOL0     H44412   3.234   1.962   5.643  4.3601  3.2808 -3.5583
  329MOL0     H44413   3.463   1.899   5.306  0.5651 -0.5002  0.1180
  329MOL0     H44414   2.611   1.996   5.561  0.2245  1.6389  0.0289
  329MOL0     H44415   2.390   2.033   5.450 -2.5681 -0.6156 -3.2587
  330MOL0     O44416   8.907  10.673   1.800  0.4398  0.5008 -0.8611
  330MOL0     C44417   8.917  10.762   1.721  0.3316 -0.3270 -0.0761
  330MOL0     O44418   8.816  10.846   1.684 -0.0677  0.5419  0.1289
  330MOL0     C44419   8.698  10.858   1.744 -0.1677  1.2953 -1.1173
  330MOL0     C44420   8.654  10.795   1.859 -0.3706 -0.0758 -0.3677
  330MOL0     C44421   8.534  10.835   1.918 -0.4998  0.3245  0.3157
  330MOL0     C44422   8.450  10.938   1.859 -0.0963  1.2454  0.6830
  330MOL0     O44423   8.327  10.972   1.913 -0.2781 -0.4202 -0.5629
  330MOL0     C44424   8.290  10.928   2.051 -0.6014 -0.3072  0.7304
  330MOL0     C44425   8.168  11.003   2.091  0.4397  0.6080  0.1524
  330MOL0     C44426   8.041  10.986   2.013 -0.4040  0.1164  0.1153
  330MOL0     C44427   7.934  11.089   2.044  1.1852  0.0555  0.0657
  330MOL0     C44428   7.814  11.075   1.949 -1.3507 -0.5585 -0.2159
  330MOL0     C44429   7.731  10.954   1.993  0.3948 -0.2276 -0.3953
  330MOL0     C44430   7.610  10.936   1.904  0.3422 -0.4901  0.3149
  330MOL0     C44431   7.474  10.995   1.954  0.2123 -0.0074 -0.2206
  330MOL0     N44432   7.410  10.908   2.059  0.3613 -0.2743 -0.0166
  330MOL0     C44433   7.344  10.789   2.028 -0.5005 -0.0390 -0.7212
  330MOL0     C44434   7.272  10.762   2.134 -0.3770  0.2483 -0.9153
  330MOL0     C44435   7.197  10.631   2.144  0.4912  0.5284 -0.6485
  330MOL0     C44436   7.268  10.509   2.202 -0.1182  0.3197  0.2816
  330MOL0     C44437   7.349  10.547   2.331 -0.7004 -0.4020  0.0628
  330MOL0     C44438   7.369  10.414   2.406  1.5214  0.4056 -0.8658
  330MOL0     O44439   7.377  10.438   2.548 -0.3608 -0.0552  0.2822
  330MOL0     C44440   7.253  10.440   2.619 -0.6355  0.1303  0.5112
  330MOL0     C44441   7.133  10.463   2.555  1.4769  0.0588  0.2757
  330MOL0     C44442   7.010  10.455   2.630 -0.3563  0.1906  0.0268
  330MOL0     C44443   6.880  10.483   2.549 -0.4589  1.5438  0.2781
  330MOL0     C44444   7.007  10.436   2.773 -0.4721 -0.4718 -0.3631
  330MOL0     C44445   6.882  10.443   2.857  0.1375  0.4210  0.3011
  330MOL0     O44446   6.910  10.450   2.991 -0.6291  0.2073 -0.3093
  330MOL0     C44447   6.815  10.453   3.089  0.6328 -0.3859 -0.0032
  330MOL0     C44448   6.694  10.390   3.081 -0.2208  0.7793  0.1969
  330MOL0     C44449   6.600  10.389   3.187 -0.0956  0.0009  0.2181
  330MOL0     C44450   6.633  10.444   3.312 -0.1342 -0.7182 -0.3236
  330MOL0     O44451   6.552  10.437   3.424 -0.1727 -0.1710  0.2504
  330MOL0     C44452   6.504  10.303   3.457 -0.8745 -0.6921  0.1704
  330MOL0     C44453   6.415  10.327   3.579  0.5912 -0.3197  0.6214
  330MOL0     C44454   6.484  10.297   3.715  0.9517 -0.6415  0.4446
  330MOL0     C44455   6.417  10.342   3.844 -0.2238  0.3587  0.4018
  330MOL0     C44456   6.317  10.236   3.885  0.0457  0.3084  0.3180
  330MOL0     C44457   6.250  10.266   4.023 -0.0535 -0.2889 -0.1981
  330MOL0     C44458   6.157  10.155   4.067  0.0951 -0.9288 -0.0171
  330MOL0     C44459   6.086  10.191   4.196 -0.1164  0.0526  0.8103
  330MOL0    Cl44460   5.970  10.059   4.242  0.1624  0.3467  0.1828
  330MOL0     C44461   6.763  10.508   3.328  0.5454 -0.4093  0.7622
  330MOL0     C44462   6.842  10.520   3.209 -0.2155  0.2044 -0.2569
  330MOL0     O44463   6.769  10.455   2.806 -0.0915  0.3527  0.0790
  330MOL0     C44464   7.134  10.408   2.833  0.0963 -0.4182  0.2031
  330MOL0     C44465   7.250  10.409   2.761 -0.6750  0.7489 -0.2160
  330MOL0     N44466   7.292  10.861   2.233 -0.7174  0.0434 -0.1594
  330MOL0     N44467   7.374  10.953   2.185  0.5749 -0.0127 -0.0335
  330MOL0     C44468   8.491  10.982   1.736  0.2798 -0.3058  0.3504
  330MOL0     C44469   8.614  10.944   1.685 -0.9813 -0.3213 -0.0153
  330MOL0     C44470   9.037  10.774   1.638  0.0484 -0.5636  0.0714
  330MOL0     C44471   9.152  10.693   1.670 -0.5691  0.0903 -0.3511
  330MOL0     C44472   9.273  10.720   1.599  0.4961 -0.2965 -0.0380
  330MOL0     C44473   9.276  10.821   1.500  0.2203  0.8728 -0.7953
  330MOL0     O44474   9.389  10.853   1.429 -0.1280 -0.4257  0.1892
  330MOL0     C44475   9.513  10.820   1.492 -0.6918  0.0972 -0.2813
  330MOL0     C44476   9.642  10.869   1.417  0.4047 -0.2878  0.7962
  330MOL0     C44477   9.765  10.869   1.510 -0.3180 -0.0279  0.1535
  330MOL0     C44478   9.816  10.729   1.546 -0.5116  0.8678 -0.1217
  330MOL0     C44479   9.938  10.737   1.631  0.3196  0.2098 -0.7346
  330MOL0     C44480  10.039  10.739   1.704  0.2339  0.3523  0.3924
  330MOL0     C44481   9.158  10.883   1.458 -0.0954 -0.1266 -0.1621
  330MOL0     C44482   9.047  10.861   1.533 -0.2170 -0.0198 -0.3642
  330MOL0     H44483   8.716  10.725   1.914  1.0475  0.9897 -0.5738
  330MOL0     H44484   8.494  10.787   2.007 -3.4410  1.3193 -0.3674
  330MOL0     H44485   8.269  10.821   2.043  0.2961 -0.3808 -1.5356
  330MOL0     H44486   8.377  10.950   2.112  1.9016  0.1113 -2.6934
  330MOL0     H44487   8.141  10.973   2.193  1.9369 -0.2812  0.3069
  330MOL0     H44488   8.201  11.107   2.088 -0.3399  0.8709  0.4186
  330MOL0     H44489   8.071  10.994   1.908  1.0574  0.2722  0.5218
  330MOL0     H44490   8.002  10.886   2.033  1.5212 -0.5768  0.5978
  330MOL0     H44491   7.890  11.110   2.141 -2.7108  0.7145 -1.6705
  330MOL0     H44492   7.977  11.182   2.007  1.1794  0.0578  0.0680
  330MOL0     H44493   7.760  11.170   1.949 -1.8919 -0.8414 -1.2064
  330MOL0     H44494   7.854  11.070   1.847 -0.6412 -1.0659  0.0784
  330MOL0     H44495   7.790  10.862   1.984 -0.2861 -0.6217 -1.0461
  330MOL0     H44496   7.704  10.967   2.098 -1.0240  2.8236 -1.0384
  330MOL0     H44497   7.631  10.983   1.807  2.6840  0.6461  1.2924
  330MOL0     H44498   7.594  10.831   1.877  2.3488 -0.8455  0.2956
  330MOL0     H44499   7.419  11.023   1.864 -0.5502  0.2817  0.3316
  330MOL0     H44500   7.492  11.092   1.999  0.1413  0.9512 -2.1533
  330MOL0     H44501   7.350  10.734   1.934 -1.4463  0.9476 -1.3802
  330MOL0     H44502   7.097  10.644   2.187 -1.0567 -0.0288 -3.7469
  330MOL0     H44503   7.165  10.607   2.042 -1.8762  3.1526 -0.6542
  330MOL0     H44504   7.345  10.481   2.130 -0.5746  2.3367 -1.0991
  330MOL0     H44505   7.199  10.425   2.216 -0.8048  0.2692 -2.7134
  330MOL0     H44506   7.300  10.629   2.383  1.3637  1.5711 -0.9244
  330MOL0     H44507   7.446  10.593   2.309 -0.3178 -1.0462  0.3690
  330MOL0     H44508   7.458  10.365   2.368 -0.2616 -0.6362 -4.1172
  330MOL0     H44509   7.293  10.336   2.392 -0.0944  1.3380  1.8914
  330MOL0     H44510   7.125  10.485   2.449  2.4923 -0.1183  0.1518
  330MOL0     H44511   6.813  10.399   2.572 -1.5896  1.7608 -1.9252
  330MOL0     H44512   6.831  10.576   2.579 -1.4245  1.3491 -0.6211
  330MOL0     H44513   6.918  10.490   2.446  0.0525 -0.4645  0.2735
  330MOL0     H44514   6.664  10.337   2.991  1.3314 -1.8043  1.1116
  330MOL0     H44515   6.506  10.336   3.170  0.4121 -0.7886 -0.2388
  330MOL0     H44516   6.438  10.269   3.377 -1.3957  2.4995 -0.8988
  330MOL0     H44517   6.591  10.238   3.470 -0.0016  0.4377  0.2201
  330MOL0     H44518   6.375  10.429   3.571 -3.7528 -1.9599 -2.8827
  330MOL0     H44519   6.322  10.270   3.571 -0.1930  1.1690 -3.3386
  330MOL0     H44520   6.585  10.339   3.712  0.7475 -0.1394  0.6387
  330MOL0     H44521   6.496  10.188   3.713  0.2861 -0.7387 -2.1732
  330MOL0     H44522   6.487  10.371   3.922 -1.0273  0.1983  1.1994
  330MOL0     H44523   6.364  10.436   3.822  1.3568  0.6800 -2.6787
  330MOL0     H44524   6.371  10.141   3.894 -0.4450  0.1435  1.8696
  330MOL0     H44525   6.231  10.223   3.820 -1.8198  0.2384  2.6607
  330MOL0     H44526   6.329  10.269   4.099  0.6934 -1.1111 -0.9123
  330MOL0     H44527   6.194  10.359   4.016  1.1056  0.3943 -0.7935
  330MOL0     H44528   6.214  10.062   4.069  0.9233 -0.4291  1.0537
  330MOL0     H44529   6.070  10.147   4.002  1.4969  1.5363 -2.3924
  330MOL0     H44530   6.037  10.286   4.174  2.6345  0.8354 -2.8381
  330MOL0     H44531   6.166  10.201   4.270  0.3208  1.0646  0.2173
  330MOL0     H44532   6.788  10.550   3.425  0.8769 -1.2630  1.0604
  330MOL0     H44533   6.934  10.576   3.219  0.5578 -1.3907  2.8552
  330MOL0     H44534   7.146  10.389   2.939  2.0488  1.9290  0.4992
  330MOL0     H44535   7.348  10.392   2.803 -0.1726 -1.5247 -2.0870
  330MOL0     H44536   8.423  11.042   1.676  0.2123 -0.4448  0.2890
  330MOL0     H44537   8.667  11.005   1.612  0.1767  0.8265  1.7255
  330MOL0     H44538   9.149  10.605   1.733  3.0963 -0.2971 -0.5007
  330MOL0     H44539   9.367  10.671   1.622  1.9871  1.1612 -2.5516
  330MOL0     H44540   9.512  10.850   1.598 -2.4797  1.0411 -0.5319
  330MOL0     H44541   9.521  10.711   1.497 -1.4309 -0.0633 -2.0136
  330MOL0     H44542   9.615  10.973   1.397  0.1659 -0.6555 -0.9175
  330MOL0     H44543   9.653  10.822   1.320 -0.8084  2.2540 -0.6755
  330MOL0     H44544   9.750  10.919   1.606  2.0762  0.1459  0.4974
  330MOL0     H44545   9.844  10.919   1.454  0.4448 -0.7097  0.5952
  330MOL0     H44546   9.850  10.671   1.459  0.8332 -0.4950  1.2440
  330MOL0     H44547   9.736  10.667   1.587 -2.9555  1.6082 -3.3302
  330MOL0     H44548  10.120  10.747   1.773  1.2458  1.1791 -0.8463
  330MOL0     H44549   9.154  10.950   1.373 -1.4683 -1.4646 -1.2212
  330MOL0     H44550   8.955  10.904   1.495 -0.8851 -1.3906 -0.3579
  331MOL0     O44551   2.514   3.294   2.005  0.1103  0.2312 -0.1733
  331MOL0     C44552   2.579   3.319   1.903 -0.8149  0.3485 -1.6064
  331MOL0     O44553   2.604   3.230   1.805 -0.4432  0.2558 -0.0845
  331MOL0     C44554   2.511   3.130   1.775  0.0286 -0.7095  1.2854
  331MOL0     C44555   2.554   3.030   1.688 -0.4820 -0.3480  0.1042
  331MOL0     C44556   2.461   2.922   1.654 -0.2664 -0.1117 -0.0991
  331MOL0     C44557   2.330   2.918   1.699  0.6302 -0.7395  0.1578
  331MOL0     O44558   2.260   2.805   1.679  1.2835  0.0144  0.8585
  331MOL0     C44559   2.118   2.807   1.719 -0.4425  0.2712  1.0076
  331MOL0     C44560   2.048   2.668   1.703 -0.4366 -1.0632 -0.3578
  331MOL0     C44561   1.897   2.680   1.680  0.8007  0.8615 -0.1025
  331MOL0     C44562   1.840   2.540   1.706  0.0356  0.1548  0.8239
  331MOL0     C44563   1.690   2.528   1.675 -0.9791  0.3395  0.3600
  331MOL0     C44564   1.629   2.394   1.724 -0.3897  1.2655  0.4872
  331MOL0     C44565   1.480   2.374   1.685 -0.1883  0.4397  0.5887
  331MOL0     C44566   1.390   2.469   1.758  0.0943 -0.1208 -0.4587
  331MOL0     N44567   1.244   2.454   1.718  0.0172 -0.1199  0.5708
  331MOL0     C44568   1.150   2.558   1.727 -0.1207 -0.2938 -0.7662
  331MOL0     C44569   1.028   2.494   1.719  0.2553  0.0002  0.1563
  331MOL0     C44570   0.902   2.583   1.728  0.2454 -0.4747 -0.2108
  331MOL0     C44571   0.883   2.641   1.871  0.3198 -0.0797 -0.9633
  331MOL0     C44572   0.821   2.545   1.971  0.3930  0.1422 -0.7770
  331MOL0     C44573   0.662   2.528   1.969 -0.3353  0.5436  0.9613
  331MOL0     O44574   0.589   2.642   1.926  0.2752 -0.0261 -0.2072
  331MOL0     C44575   0.451   2.625   1.916 -0.3031  0.8728 -1.2797
  331MOL0     C44576   0.371   2.546   1.997 -0.6450  0.2821 -0.0782
  331MOL0     C44577   0.235   2.530   1.968  0.4701 -0.1751  0.4098
  331MOL0     C44578   0.153   2.443   2.065  0.0946 -0.1168 -0.6829
  331MOL0     C44579   0.168   2.612   1.874 -0.1952 -0.1758 -0.1005
  331MOL0     C44580   0.021   2.610   1.847 -0.5634 -0.2573 -0.7075
  331MOL0     O44581  -0.058   2.521   1.919  0.9659 -0.3780  0.0804
  331MOL0     C44582  -0.187   2.494   1.889 -0.1756 -0.1876 -0.6219
  331MOL0     C44583  -0.282   2.598   1.891  0.3180  0.6174  0.2811
  331MOL0     C44584  -0.411   2.566   1.847  0.4110 -0.0654 -0.0479
  331MOL0     C44585  -0.452   2.439   1.821  0.0116  0.2060 -0.1773
  331MOL0     O44586  -0.582   2.417   1.796  0.1436  0.4861 -0.3254
  331MOL0     C44587  -0.615   2.394   1.663 -0.4814  0.4920  0.9112
  331MOL0     C44588  -0.761   2.382   1.644 -1.3401 -0.1587  0.9806
  331MOL0     C44589  -0.848   2.467   1.738  0.1923 -0.4494  0.0766
  331MOL0     C44590  -0.995   2.469   1.699  0.2327 -0.6496  0.2490
  331MOL0     C44591  -1.076   2.592   1.742  0.0430 -0.0141 -0.3340
  331MOL0     C44592  -1.231   2.564   1.758 -0.0544  0.2347  0.2910
  331MOL0     C44593  -1.299   2.693   1.780 -0.5548 -0.2467 -0.1631
  331MOL0     C44594  -1.450   2.674   1.796  0.2249 -0.6998  1.0175
  331MOL0    Cl44595  -1.490   2.555   1.925 -0.4425 -0.0077 -0.1945
  331MOL0     C44596  -0.358   2.338   1.839 -0.3760  0.2608 -0.1260
  331MOL0     C44597  -0.226   2.362   1.867 -1.2054  0.2813 -0.0661
  331MOL0     O44598  -0.020   2.686   1.766  0.3797  0.1795  0.5695
  331MOL0     C44599   0.251   2.700   1.805  0.2663  1.4438 -0.6228
  331MOL0     C44600   0.384   2.714   1.832  0.1641 -1.0779  0.7966
  331MOL0     N44601   1.050   2.365   1.707 -0.5698 -0.1737 -0.8634
  331MOL0     N44602   1.176   2.338   1.693  0.3852 -0.4287 -0.3907
  331MOL0     C44603   2.293   3.030   1.771  0.6077  0.1669 -0.2149
  331MOL0     C44604   2.375   3.133   1.807  0.0826  0.3482 -0.8400
  331MOL0     C44605   2.648   3.438   1.904 -0.1689  0.0040 -0.2375
  331MOL0     C44606   2.759   3.468   1.819  1.4423  0.1049  0.0733
  331MOL0     C44607   2.811   3.601   1.807 -0.5609 -0.2967  0.3100
  331MOL0     C44608   2.768   3.712   1.878  0.3706 -0.2905  0.5249
  331MOL0     O44609   2.823   3.837   1.886 -0.2562 -0.5934  0.1989
  331MOL0     C44610   2.941   3.852   1.808  0.5626 -0.7822  0.0915
  331MOL0     C44611   3.015   3.982   1.841 -0.2127 -0.4251  0.2955
  331MOL0     C44612   3.057   3.995   1.985 -0.7155 -0.9925 -0.5016
  331MOL0     C44613   3.157   4.118   2.003  0.2711 -0.1243 -0.2818
  331MOL0     C44614   3.274   4.119   1.918 -0.2424  0.0716  0.4887
  331MOL0     C44615   3.366   4.137   1.836  1.0259  0.3298  0.9515
  331MOL0     C44616   2.665   3.681   1.964 -0.8778  0.4148  0.3054
  331MOL0     C44617   2.613   3.548   1.977  0.0366  0.3311 -0.7113
  331MOL0     H44618   2.659   3.026   1.661 -0.7088  1.0584 -1.1345
  331MOL0     H44619   2.501   2.848   1.585 -0.0316 -0.4612  0.4072
  331MOL0     H44620   2.103   2.833   1.824  1.2826 -0.3821  1.4575
  331MOL0     H44621   2.070   2.877   1.650  2.7999  1.7045 -0.0281
  331MOL0     H44622   2.105   2.614   1.627 -1.2285 -1.4176 -0.7073
  331MOL0     H44623   2.066   2.611   1.794  0.6271  0.7190  0.6239
  331MOL0     H44624   1.851   2.752   1.747  1.7910  1.3458  0.0701
  331MOL0     H44625   1.884   2.709   1.575  0.9150 -2.8912 -1.3367
  331MOL0     H44626   1.889   2.472   1.636 -1.2723  1.4213 -1.4554
  331MOL0     H44627   1.861   2.507   1.808  2.0139 -0.5114  0.2412
  331MOL0     H44628   1.645   2.620   1.713  0.5969  0.6652  1.5205
  331MOL0     H44629   1.670   2.534   1.567 -2.5910  0.1601  0.6304
  331MOL0     H44630   1.683   2.303   1.695  0.3252  3.0154 -4.8245
  331MOL0     H44631   1.630   2.400   1.833  1.1666 -1.5987  0.7402
  331MOL0     H44632   1.468   2.394   1.578  1.9364  4.7696  0.9387
  331MOL0     H44633   1.442   2.275   1.713  0.1344 -0.1068 -0.8087
  331MOL0     H44634   1.430   2.570   1.760  2.5356 -0.9231  3.9780
  331MOL0     H44635   1.401   2.425   1.858  2.2736 -1.9552 -1.4052
  331MOL0     H44636   1.162   2.663   1.753  3.7714 -1.2008  1.9467
  331MOL0     H44637   0.924   2.675   1.673  2.5415 -0.2498  0.9494
  331MOL0     H44638   0.815   2.535   1.682 -0.9629 -0.3544  1.8328
  331MOL0     H44639   0.824   2.734   1.872 -0.4364 -0.4583  2.4450
  331MOL0     H44640   0.982   2.664   1.912 -0.0733 -1.5385  0.9383
  331MOL0     H44641   0.853   2.574   2.071 -0.2703  0.3296 -0.6179
  331MOL0     H44642   0.859   2.444   1.948 -1.4817 -0.6963 -0.3776
  331MOL0     H44643   0.631   2.484   2.064  0.6423 -1.3033  0.4691
  331MOL0     H44644   0.635   2.444   1.905 -0.2991 -0.6878  2.5217
  331MOL0     H44645   0.407   2.485   2.079 -0.1603  0.2512 -0.3096
  331MOL0     H44646   0.104   2.506   2.139  1.4524 -0.2461  0.3852
  331MOL0     H44647   0.077   2.375   2.026 -1.9173 -0.5220  3.4395
  331MOL0     H44648   0.205   2.370   2.128 -1.2031  0.0257  0.6020
  331MOL0     H44649  -0.256   2.700   1.919  0.8249  0.1992  1.4301
  331MOL0     H44650  -0.489   2.642   1.850 -1.0288 -1.5061  1.2609
  331MOL0     H44651  -0.559   2.466   1.603 -1.9312 -0.9163 -2.3775
  331MOL0     H44652  -0.561   2.302   1.640  1.9824  1.8110  1.0090
  331MOL0     H44653  -0.782   2.418   1.543 -1.8050  1.3778  1.6044
  331MOL0     H44654  -0.777   2.274   1.646 -0.3890 -0.4025 -1.4087
  331MOL0     H44655  -0.812   2.570   1.746 -1.4066 -0.0029  2.3011
  331MOL0     H44656  -0.851   2.426   1.839 -1.4912  2.2377  1.2338
  331MOL0     H44657  -0.999   2.455   1.591  1.1661 -1.2288  0.2771
  331MOL0     H44658  -1.034   2.384   1.756  1.9620 -2.4992 -1.1741
  331MOL0     H44659  -1.051   2.686   1.692 -1.5442  0.7372  0.2039
  331MOL0     H44660  -1.047   2.611   1.846 -1.2950 -0.0523  0.0644
  331MOL0     H44661  -1.258   2.525   1.660  1.9470  1.2464 -0.7378
  331MOL0     H44662  -1.241   2.493   1.841  2.8490  0.3414  0.8384
  331MOL0     H44663  -1.283   2.764   1.698  1.6670  2.6610  2.5074
  331MOL0     H44664  -1.259   2.747   1.867 -0.1461  0.5460 -0.8347
  331MOL0     H44665  -1.484   2.624   1.705 -1.8114  0.3825  1.1209
  331MOL0     H44666  -1.508   2.766   1.808 -2.2380 -2.1166  0.6559
  331MOL0     H44667  -0.389   2.234   1.834  0.7579 -0.0512 -1.0991
  331MOL0     H44668  -0.152   2.282   1.866 -1.1924  0.1802  2.4544
  331MOL0     H44669   0.215   2.765   1.726  0.1923  1.2688 -0.7360
  331MOL0     H44670   0.442   2.791   1.783 -1.1018 -0.9618 -0.5840
  331MOL0     H44671   2.195   3.033   1.819  0.8786  2.4511  0.3017
  331MOL0     H44672   2.332   3.216   1.863 -0.5425  1.8763 -3.4235
  331MOL0     H44673   2.798   3.387   1.758  0.1183 -0.8152  0.4171
  331MOL0     H44674   2.888   3.597   1.730  0.3126  0.8565  1.0885
  331MOL0     H44675   3.009   3.768   1.829  0.8760 -0.7557 -0.7578
  331MOL0     H44676   2.920   3.853   1.701  1.0017  1.0747 -0.0131
  331MOL0     H44677   2.954   4.066   1.807  0.5094 -0.7531 -1.9413
  331MOL0     H44678   3.103   3.986   1.777  0.7010 -1.6930  1.4213
  331MOL0     H44679   3.114   3.908   2.019  0.4765  0.4955  1.4757
  331MOL0     H44680   2.966   4.009   2.044  1.1214  0.8335  2.0970
  331MOL0     H44681   3.192   4.116   2.106 -0.7480  2.3134  0.2060
  331MOL0     H44682   3.104   4.214   2.001  0.3357 -0.0329  1.0850
  331MOL0     H44683   3.457   4.153   1.782  0.1913 -0.1257 -0.6572
  331MOL0     H44684   2.627   3.765   2.022  0.8745  0.9531  0.7082
  331MOL0     H44685   2.528   3.534   2.043 -0.7491 -0.7881 -1.9229
  332MOL0     O44686   6.368   8.675  10.192  0.5328  1.2048 -0.3717
  332MOL0     C44687   6.437   8.755  10.120  0.0234  0.4892 -0.1544
  332MOL0     O44688   6.399   8.793   9.992 -0.0677  0.1820 -0.0350
  332MOL0     C44689   6.270   8.756   9.944  0.5992  0.0441 -0.1171
  332MOL0     C44690   6.158   8.755  10.027 -0.4122 -0.1763  0.1635
  332MOL0     C44691   6.030   8.719   9.975  0.8100  0.0915  1.0203
  332MOL0     C44692   6.016   8.673   9.845 -0.3154 -0.4276  0.5533
  332MOL0     O44693   5.901   8.617   9.792  0.2936 -0.4763 -0.4421
  332MOL0     C44694   5.787   8.619   9.877  0.2907  0.3339 -0.7624
  332MOL0     C44695   5.682   8.557   9.782  0.6677  1.0810 -0.0953
  332MOL0     C44696   5.693   8.403   9.748 -0.3128  0.7178  0.6157
  332MOL0     C44697   5.785   8.391   9.620 -0.0993 -0.3332  0.5803
  332MOL0     C44698   5.827   8.245   9.607 -0.1885 -0.7436  0.5199
  332MOL0     C44699   5.720   8.140   9.581  0.7405  0.1083 -0.6931
  332MOL0     C44700   5.646   8.157   9.443 -0.3963  0.1330  0.3059
  332MOL0     C44701   5.529   8.072   9.418 -0.9214  0.6333  0.3550
  332MOL0     N44702   5.420   8.077   9.520 -0.6203 -0.1464  0.0287
  332MOL0     C44703   5.359   8.192   9.570  0.0797 -0.3066 -0.9234
  332MOL0     C44704   5.284   8.152   9.673  0.0243 -1.1851 -0.2384
  332MOL0     C44705   5.194   8.249   9.753 -0.1631  0.2236 -0.2231
  332MOL0     C44706   5.274   8.345   9.842  0.4914 -0.1846 -0.4746
  332MOL0     C44707   5.353   8.287   9.960 -0.6884  0.4515  0.4927
  332MOL0     C44708   5.395   8.377  10.079  0.1299  1.2720  0.1602
  332MOL0     O44709   5.440   8.302  10.196  0.5271  0.2980 -0.7315
  332MOL0     C44710   5.559   8.347  10.255  0.8760  0.7863  0.4654
  332MOL0     C44711   5.679   8.350  10.190 -0.2532  0.5009  0.5403
  332MOL0     C44712   5.802   8.383  10.242  0.4877 -0.3497  0.8344
  332MOL0     C44713   5.921   8.396  10.155 -0.2082  0.2721  0.2883
  332MOL0     C44714   5.808   8.425  10.377  1.5760 -0.3152  0.3913
  332MOL0     C44715   5.928   8.477  10.449 -0.2463  0.2474 -0.1248
  332MOL0     O44716   6.056   8.437  10.408 -0.6463 -0.4417  0.0573
  332MOL0     C44717   6.164   8.451  10.489 -1.2218  0.2938  0.8760
  332MOL0     C44718   6.297   8.451  10.432  0.1862 -0.2869 -0.3103
  332MOL0     C44719   6.412   8.493  10.508 -0.3910  0.1867 -0.0232
  332MOL0     C44720   6.402   8.521  10.648  0.9466  0.2326 -0.2754
  332MOL0     O44721   6.503   8.570  10.728  0.5938  0.0912  0.8688
  332MOL0     C44722   6.622   8.603  10.648  0.0966  0.2770  0.0088
  332MOL0     C44723   6.741   8.649  10.744  0.1551  0.3856  0.0937
  332MOL0     C44724   6.854   8.715  10.664  0.7096 -0.2174 -0.2019
  332MOL0     C44725   6.994   8.726  10.735 -0.7954 -0.4773  0.3681
  332MOL0     C44726   7.096   8.809  10.657 -0.2689 -0.1776  0.0448
  332MOL0     C44727   7.171   8.730  10.545 -0.4661  0.3057  1.0665
  332MOL0     C44728   7.264   8.830  10.480 -0.7667  0.3787  0.0677
  332MOL0     C44729   7.332   8.775  10.349  1.0967  0.4332 -0.5846
  332MOL0    Cl44730   7.406   8.920  10.273  0.2390 -0.0161 -0.3860
  332MOL0     C44731   6.275   8.478  10.710  0.1606  0.4206 -0.2067
  332MOL0     C44732   6.164   8.463  10.629 -0.0517 -0.5821  0.3851
  332MOL0     O44733   5.901   8.536  10.553 -0.0615  0.0835 -0.1434
  332MOL0     C44734   5.684   8.428  10.442 -0.0351  0.4367 -0.1049
  332MOL0     C44735   5.568   8.383  10.387  0.0916 -0.7598 -0.3464
  332MOL0     N44736   5.312   8.019   9.693  0.4300  0.0508 -0.0933
  332MOL0     N44737   5.396   7.977   9.609 -0.1653 -1.1611  0.3277
  332MOL0     C44738   6.125   8.692   9.758  0.5007 -0.1227 -0.1957
  332MOL0     C44739   6.248   8.737   9.807  0.2446  0.0729  0.4085
  332MOL0     C44740   6.568   8.798  10.162 -0.0923 -0.1993  0.3508
  332MOL0     C44741   6.640   8.740  10.268  0.2849  0.1631 -0.1055
  332MOL0     C44742   6.765   8.788  10.300  0.1054  0.7687  0.1662
  332MOL0     C44743   6.822   8.893  10.238 -0.0170 -0.1728  0.8268
  332MOL0     O44744   6.942   8.922  10.293  0.2054  0.2152  0.0716
  332MOL0     C44745   7.033   9.009  10.221  0.0778 -0.6785 -0.2264
  332MOL0     C44746   7.016   9.156  10.254  0.0142 -0.2373 -0.1170
  332MOL0     C44747   7.075   9.189  10.395  0.5833  0.8252  0.0049
  332MOL0     C44748   7.054   9.340  10.422 -0.2441 -0.0680  0.3504
  332MOL0     C44749   7.162   9.404  10.491  0.5376  0.2233 -0.8465
  332MOL0     C44750   7.250   9.456  10.548 -1.1018  0.5083 -0.7765
  332MOL0     C44751   6.758   8.950  10.124  0.7800  0.9197  0.7035
  332MOL0     C44752   6.632   8.904  10.084 -0.1415  1.1428 -0.4740
  332MOL0     H44753   6.158   8.797  10.127  2.0661  1.5444 -0.4785
  332MOL0     H44754   5.940   8.733  10.034 -2.0362  0.6620 -3.0085
  332MOL0     H44755   5.799   8.567   9.972  0.3420 -1.3329 -1.6477
  332MOL0     H44756   5.767   8.726   9.890 -1.2620 -0.2011  1.9749
  332MOL0     H44757   5.579   8.579   9.811  0.6216 -0.6714  1.2665
  332MOL0     H44758   5.684   8.605   9.684 -0.9953 -1.2786 -1.3956
  332MOL0     H44759   5.737   8.352   9.835 -3.4489 -0.9382  1.3971
  332MOL0     H44760   5.606   8.339   9.728 -0.2405  1.1668 -1.3064
  332MOL0     H44761   5.740   8.433   9.530 -0.0873 -0.1397  0.6651
  332MOL0     H44762   5.883   8.439   9.631  0.5008 -0.7835 -1.9964
  332MOL0     H44763   5.894   8.235   9.521 -1.5548 -0.6142 -0.6075
  332MOL0     H44764   5.863   8.216   9.706 -0.9058 -0.5474  0.8408
  332MOL0     H44765   5.775   8.047   9.596  2.7450  0.8826 -2.7605
  332MOL0     H44766   5.637   8.141   9.653  1.6013  1.5650  0.3287
  332MOL0     H44767   5.608   8.260   9.440 -0.1604  0.2143  0.1338
  332MOL0     H44768   5.717   8.153   9.361 -1.6922 -1.4407 -0.7951
  332MOL0     H44769   5.567   7.970   9.425  1.2982  1.2023 -1.8940
  332MOL0     H44770   5.489   8.094   9.319  2.0878  1.4756 -0.7920
  332MOL0     H44771   5.373   8.296   9.541  0.8632  0.5480  2.1527
  332MOL0     H44772   5.137   8.303   9.677  0.3750  0.5993 -0.3680
  332MOL0     H44773   5.128   8.195   9.821 -0.1469  1.0390  0.4557
  332MOL0     H44774   5.197   8.405   9.891 -0.8853 -2.2415 -0.0044
  332MOL0     H44775   5.342   8.407   9.783  1.9674  0.5176  1.8044
  332MOL0     H44776   5.443   8.246   9.914  0.4422  3.3476 -0.0353
  332MOL0     H44777   5.296   8.199   9.994 -0.8980 -0.0541 -1.0742
  332MOL0     H44778   5.302   8.424  10.112 -1.2887 -1.6182  0.6134
  332MOL0     H44779   5.466   8.456  10.051 -1.1194  2.1215 -0.7162
  332MOL0     H44780   5.683   8.322  10.085 -0.6524  1.9014  0.1423
  332MOL0     H44781   5.995   8.317  10.173  0.2727 -0.0293 -2.5377
  332MOL0     H44782   5.903   8.381  10.048 -0.3919  2.9709 -0.1174
  332MOL0     H44783   5.961   8.498  10.162  1.2536 -0.2591  0.1856
  332MOL0     H44784   6.306   8.433  10.325  0.2502 -1.2374 -0.1577
  332MOL0     H44785   6.497   8.515  10.444 -0.3997  1.6480  0.4488
  332MOL0     H44786   6.661   8.513  10.600  3.0084  1.2669  0.3226
  332MOL0     H44787   6.603   8.681  10.574 -1.0319  0.0171  0.0154
  332MOL0     H44788   6.698   8.713  10.822 -1.3188 -2.5827  1.9113
  332MOL0     H44789   6.771   8.555  10.792 -2.1461 -0.4263  0.0847
  332MOL0     H44790   6.811   8.812  10.635  0.4306 -0.3172 -0.1272
  332MOL0     H44791   6.873   8.645  10.583 -0.0041  1.3666 -1.8030
  332MOL0     H44792   6.984   8.770  10.835 -4.5949  0.1599 -0.1153
  332MOL0     H44793   7.024   8.621  10.739 -1.0363 -0.5846 -0.4130
  332MOL0     H44794   7.166   8.845  10.733 -0.1501 -0.8650  0.2716
  332MOL0     H44795   7.045   8.895  10.613 -3.3091 -2.0251 -0.3607
  332MOL0     H44796   7.232   8.646  10.579  2.4904  1.8287 -0.1000
  332MOL0     H44797   7.099   8.693  10.471 -0.1548 -0.2549  1.0362
  332MOL0     H44798   7.339   8.864  10.552 -0.7179 -1.6236  1.0333
  332MOL0     H44799   7.203   8.918  10.459  0.0438  0.6934 -1.0809
  332MOL0     H44800   7.249   8.740  10.287  0.7269  1.8577 -0.9140
  332MOL0     H44801   7.400   8.690  10.367  0.1157 -0.4513 -0.9552
  332MOL0     H44802   6.284   8.475  10.818  1.9751 -1.5999 -0.3567
  332MOL0     H44803   6.066   8.458  10.676  0.0413 -0.7881  0.5619
  332MOL0     H44804   5.685   8.459  10.546  0.3812 -1.6353  0.5425
  332MOL0     H44805   5.481   8.364  10.448 -0.2258 -3.5977 -1.5490
  332MOL0     H44806   6.098   8.664   9.657 -4.8190  1.7749  0.3651
  332MOL0     H44807   6.329   8.745   9.736 -0.4436  0.7597 -0.3168
  332MOL0     H44808   6.588   8.662  10.323  1.0788 -0.7657 -0.6168
  332MOL0     H44809   6.828   8.740  10.374 -0.6166  2.0465  1.6500
  332MOL0     H44810   7.135   8.969  10.228  0.8684  0.0321 -4.8878
  332MOL0     H44811   7.009   8.998  10.115  1.9516 -1.4741 -0.6102
  332MOL0     H44812   6.909   9.177  10.246  0.5294  1.8577 -3.9063
  332MOL0     H44813   7.066   9.219  10.180  2.4764 -0.6753  1.0598
  332MOL0     H44814   7.177   9.153  10.408  1.0891  2.1983 -0.0419
  332MOL0     H44815   7.013   9.122  10.456 -1.1889  2.5622  0.2192
  332MOL0     H44816   6.954   9.357  10.464 -0.6988 -2.0427  0.1710
  332MOL0     H44817   7.067   9.395  10.328  1.6633  1.5740  1.4965
  332MOL0     H44818   7.325   9.488  10.618 -2.9528  1.2640  0.9301
  332MOL0     H44819   6.799   9.024  10.056 -0.8159  1.4212  0.2486
  332MOL0     H44820   6.589   8.936   9.989 -3.2881 -0.5919  0.2057
  333MOL0     O44821   7.110   9.411   8.480 -0.2959 -0.8418 -0.3063
  333MOL0     C44822   7.170   9.390   8.586  0.0614 -0.2512  0.0743
  333MOL0     O44823   7.104   9.389   8.713 -0.5804  0.2527  0.6158
  333MOL0     C44824   6.973   9.427   8.730 -0.1502  0.1417  1.0788
  333MOL0     C44825   6.886   9.338   8.807  0.4614 -1.0244 -1.2292
  333MOL0     C44826   6.752   9.359   8.806 -0.0642  0.7882 -0.3365
  333MOL0     C44827   6.697   9.460   8.727  0.1920 -0.2081 -0.2538
  333MOL0     O44828   6.565   9.486   8.729  0.2378 -0.2174 -1.2438
  333MOL0     C44829   6.506   9.533   8.612 -0.2213  0.6048  0.0415
  333MOL0     C44830   6.360   9.475   8.593 -0.5586  0.5570 -0.4559
  333MOL0     C44831   6.269   9.498   8.710  0.2009 -0.0434 -0.8176
  333MOL0     C44832   6.264   9.638   8.759 -0.5804 -0.1710 -0.8567
  333MOL0     C44833   6.144   9.671   8.847 -0.2336  0.3577 -0.0695
  333MOL0     C44834   6.010   9.652   8.778  0.6357  0.0471  0.4749
  333MOL0     C44835   5.898   9.710   8.869 -0.6684 -0.2038  0.1787
  333MOL0     C44836   5.873   9.859   8.851 -0.4166  0.0340 -0.2893
  333MOL0     N44837   5.784   9.888   8.738  0.4786  0.1128  0.5042
  333MOL0     C44838   5.651   9.936   8.754 -0.8135  0.6262 -0.1599
  333MOL0     C44839   5.609   9.968   8.633 -0.0790  0.6929  0.4837
  333MOL0     C44840   5.475  10.036   8.607  0.8866 -0.1018 -0.3730
  333MOL0     C44841   5.446  10.065   8.462 -0.2028 -0.4874 -0.6674
  333MOL0     C44842   5.336  10.158   8.426  0.1485 -0.0757  0.3961
  333MOL0     C44843   5.209  10.144   8.506  0.3898  0.7100  0.0435
  333MOL0     O44844   5.143  10.021   8.485  0.3781  1.3111 -0.5958
  333MOL0     C44845   5.009  10.005   8.498 -1.1572  0.2923 -0.5077
  333MOL0     C44846   4.952   9.904   8.434  0.4641 -0.3044  0.4287
  333MOL0     C44847   4.812   9.871   8.443  0.9019  0.0991  0.3156
  333MOL0     C44848   4.768   9.735   8.392  0.2159  0.4555 -0.2855
  333MOL0     C44849   4.736   9.949   8.520 -0.6114  0.4206  0.7301
  333MOL0     C44850   4.589   9.931   8.542  0.7469  0.2728 -0.3245
  333MOL0     O44851   4.540   9.974   8.663 -0.1090  0.4027  0.1302
  333MOL0     C44852   4.411   9.957   8.710  0.8580  0.1299  0.6822
  333MOL0     C44853   4.393  10.005   8.838 -0.1454 -0.0711  0.2501
  333MOL0     C44854   4.276   9.972   8.905  0.5343 -0.5409 -0.2630
  333MOL0     C44855   4.172   9.899   8.843  0.0319 -1.4717  0.3685
  333MOL0     O44856   4.055   9.849   8.905 -0.0634 -0.6027 -0.5743
  333MOL0     C44857   4.039   9.857   9.047 -0.3349  0.0875 -0.0345
  333MOL0     C44858   3.920   9.768   9.074  0.8487 -0.5719  0.2151
  333MOL0     C44859   3.894   9.750   9.224 -0.9945 -0.5377 -0.7628
  333MOL0     C44860   4.001   9.660   9.295  0.0054 -0.3858  0.0637
  333MOL0     C44861   4.051   9.713   9.431  0.4763 -1.0065  0.4324
  333MOL0     C44862   4.130   9.852   9.419 -0.1076  0.0867  0.3927
  333MOL0     C44863   4.187   9.891   9.547 -1.3002  0.0237  0.0583
  333MOL0     C44864   4.335   9.851   9.555  0.5213  0.4661 -0.1629
  333MOL0    Cl44865   4.359   9.866   9.733  0.0463  0.2487  0.3778
  333MOL0     C44866   4.188   9.878   8.710  0.6883 -0.5884 -0.3147
  333MOL0     C44867   4.303   9.903   8.643  0.9173  0.2007 -0.3087
  333MOL0     O44868   4.521   9.875   8.452  0.3525  0.1391 -0.2894
  333MOL0     C44869   4.792  10.056   8.584 -0.4365 -0.7842  0.0869
  333MOL0     C44870   4.932  10.083   8.580  0.5650  0.1129 -0.3178
  333MOL0     N44871   5.704   9.933   8.538 -0.2497 -0.3771 -0.4477
  333MOL0     N44872   5.799   9.871   8.604 -0.8919 -0.2993 -0.0664
  333MOL0     C44873   6.781   9.549   8.667 -0.3059 -0.1838  0.0290
  333MOL0     C44874   6.916   9.528   8.657  0.0462  0.4387  0.9884
  333MOL0     C44875   7.316   9.361   8.586 -0.9598 -0.2551  0.4804
  333MOL0     C44876   7.394   9.344   8.698 -0.1082 -0.3401  0.1505
  333MOL0     C44877   7.530   9.310   8.693 -0.3545  0.2936  0.3101
  333MOL0     C44878   7.593   9.308   8.568 -0.0281  0.0825  0.4835
  333MOL0     O44879   7.725   9.261   8.570 -0.9165 -0.6206  0.3000
  333MOL0     C44880   7.787   9.249   8.452  0.6432  0.6057  0.1586
  333MOL0     C44881   7.922   9.178   8.457  0.0447  0.0078 -0.1828
  333MOL0     C44882   8.031   9.277   8.515  0.4701 -0.1550  0.2419
  333MOL0     C44883   8.169   9.220   8.485 -0.1484 -0.0689 -0.3935
  333MOL0     C44884   8.202   9.106   8.567  0.0817 -0.3301 -0.6753
  333MOL0     C44885   8.232   9.022   8.653  0.2918  0.4766  0.3484
  333MOL0     C44886   7.518   9.334   8.453  0.2920  1.0933  0.4919
  333MOL0     C44887   7.383   9.350   8.457 -0.2443  0.3872 -0.9185
  333MOL0     H44888   6.931   9.260   8.868  2.8511  0.5269 -0.8567
  333MOL0     H44889   6.683   9.297   8.862 -0.1447  0.2610 -0.9982
  333MOL0     H44890   6.490   9.641   8.619 -1.0369  0.5599 -0.8926
  333MOL0     H44891   6.574   9.523   8.526  0.1434  1.2875  0.2438
  333MOL0     H44892   6.319   9.522   8.504 -0.4120 -0.3068 -0.9874
  333MOL0     H44893   6.371   9.367   8.581  0.2696  0.6799 -0.8425
  333MOL0     H44894   6.173   9.460   8.676  0.2679 -0.2644 -0.7624
  333MOL0     H44895   6.298   9.430   8.791  1.0328  1.2024 -0.0339
  333MOL0     H44896   6.355   9.651   8.818 -0.0814 -0.0238 -1.6398
  333MOL0     H44897   6.263   9.716   8.682  0.9982 -0.7887 -1.5315
  333MOL0     H44898   6.148   9.606   8.935  0.1123 -0.7329 -0.8651
  333MOL0     H44899   6.151   9.777   8.871  3.6107  0.5126 -1.1631
  333MOL0     H44900   6.008   9.702   8.681  2.1160 -0.6820  0.0425
  333MOL0     H44901   5.986   9.548   8.757 -1.0826 -0.2712  3.4317
  333MOL0     H44902   5.802   9.673   8.835 -0.0082 -0.3987 -1.5407
  333MOL0     H44903   5.909   9.684   8.975 -2.6831  1.4462  0.8540
  333MOL0     H44904   5.971   9.903   8.829 -0.8677  0.9517 -0.4733
  333MOL0     H44905   5.841   9.913   8.940  1.2485 -0.2183  0.5081
  333MOL0     H44906   5.603   9.954   8.850 -0.3331 -1.6621  0.5631
  333MOL0     H44907   5.404   9.965   8.651 -0.0175 -0.1153 -1.7936
  333MOL0     H44908   5.475  10.123   8.673  4.0714 -1.2873  1.4485
  333MOL0     H44909   5.434   9.969   8.412  1.3803 -2.0750  1.7592
  333MOL0     H44910   5.540  10.102   8.420  0.7329 -2.5865 -0.5358
  333MOL0     H44911   5.319  10.152   8.318 -1.9176 -0.4804  0.7113
  333MOL0     H44912   5.366  10.261   8.445 -0.7194  0.8517 -2.6662
  333MOL0     H44913   5.141  10.222   8.470 -1.2633 -0.8124 -0.2277
  333MOL0     H44914   5.236  10.166   8.610  0.7077  1.2190 -0.1431
  333MOL0     H44915   5.013   9.839   8.373  0.5007 -1.2155  1.3981
  333MOL0     H44916   4.691   9.695   8.459 -1.2595  1.8413 -1.0899
  333MOL0     H44917   4.716   9.760   8.300 -0.6149 -0.9065 -0.2138
  333MOL0     H44918   4.846   9.659   8.386  1.1483  0.7174  4.5133
  333MOL0     H44919   4.490  10.041   8.872  0.8528 -0.8149 -1.6899
  333MOL0     H44920   4.257   9.982   9.011 -3.4407 -2.5146 -0.5791
  333MOL0     H44921   4.124   9.828   9.110 -2.0573  0.1202  2.4638
  333MOL0     H44922   4.027   9.962   9.074 -0.8647 -0.7227  3.3322
  333MOL0     H44923   3.832   9.822   9.039 -0.8173 -3.9119 -1.1687
  333MOL0     H44924   3.931   9.670   9.026 -0.6615  0.5853 -2.7273
  333MOL0     H44925   3.794   9.712   9.247  0.0427 -1.7809  2.2265
  333MOL0     H44926   3.893   9.849   9.272 -1.6177 -1.4260  1.1632
  333MOL0     H44927   3.946   9.568   9.317  1.9246 -1.5940  0.0096
  333MOL0     H44928   4.085   9.647   9.226  0.7672 -1.6965  1.1966
  333MOL0     H44929   4.127   9.649   9.477  1.8365 -0.3524 -0.8084
  333MOL0     H44930   3.962   9.725   9.494 -0.1460  1.2247 -0.7676
  333MOL0     H44931   4.205   9.856   9.339 -0.5839  1.1334 -0.0174
  333MOL0     H44932   4.061   9.928   9.382 -1.5042 -2.1146 -1.7944
  333MOL0     H44933   4.129   9.847   9.628  0.7690  0.3815  1.8240
  333MOL0     H44934   4.181  10.000   9.556  1.4953  0.0851  2.9837
  333MOL0     H44935   4.392   9.914   9.486 -0.2067  1.4516  0.1173
  333MOL0     H44936   4.354   9.745   9.535  1.4178  0.7512 -0.9033
  333MOL0     H44937   4.096   9.841   8.666 -0.4103 -0.7677  1.9512
  333MOL0     H44938   4.305   9.879   8.537 -3.0378 -1.6850 -0.1458
  333MOL0     H44939   4.728  10.119   8.644 -0.9139 -2.1073  1.0235
  333MOL0     H44940   4.967  10.166   8.641 -0.1346  0.8822 -0.9531
  333MOL0     H44941   6.729   9.637   8.630 -0.1141  0.6448  1.6151
  333MOL0     H44942   6.972   9.598   8.597 -1.6819  1.0187 -0.0154
  333MOL0     H44943   7.342   9.354   8.793  1.6146 -1.0464  1.2093
  333MOL0     H44944   7.585   9.279   8.782 -0.5171 -0.7873  0.0444
  333MOL0     H44945   7.722   9.185   8.392  1.7364  1.2375 -1.7978
  333MOL0     H44946   7.805   9.341   8.397  2.7595 -0.1050 -0.4440
  333MOL0     H44947   7.942   9.137   8.358  0.2462  0.4567 -0.3329
  333MOL0     H44948   7.917   9.092   8.525  0.1236  0.2281  0.1075
  333MOL0     H44949   8.016   9.305   8.620  0.5454  0.7339  0.0206
  333MOL0     H44950   8.027   9.375   8.467 -2.7980  1.2751  3.0103
  333MOL0     H44951   8.243   9.300   8.495 -1.2891  1.2465 -1.9305
  333MOL0     H44952   8.172   9.183   8.382 -2.2169  0.0530 -0.5337
  333MOL0     H44953   8.262   8.936   8.711  1.7908 -0.0274 -1.0807
  333MOL0     H44954   7.576   9.328   8.362  2.2117 -2.8001  1.7431
  333MOL0     H44955   7.333   9.357   8.361 -0.3294 -2.1357 -1.1331
  334MOL0     O44956  10.934   3.450   7.911 -0.6124 -0.4736  0.4119
  334MOL0     C44957  10.946   3.495   7.792  0.7174  1.0678  0.7161
  334MOL0     O44958  10.841   3.528   7.718 -1.3960 -1.0791 -0.3284
  334MOL0     C44959  10.716   3.530   7.764  0.0814  0.0610  0.0545
  334MOL0     C44960  10.624   3.461   7.692 -0.0206  0.4526 -0.2560
  334MOL0     C44961  10.492   3.451   7.738  0.4336  0.3951 -0.2404
  334MOL0     C44962  10.446   3.506   7.855 -0.1916  0.0894  0.0668
  334MOL0     O44963  10.314   3.517   7.901  0.2163 -0.1680 -0.7398
  334MOL0     C44964  10.259   3.649   7.902 -0.9518 -0.2508  0.6219
  334MOL0     C44965  10.110   3.643   7.883 -0.8389  0.4802  0.5952
  334MOL0     C44966  10.083   3.606   7.737 -0.4555  0.3299  0.4760
  334MOL0     C44967   9.937   3.633   7.712  0.6002 -0.7376  0.4569
  334MOL0     C44968   9.886   3.619   7.574 -0.0535  0.4122  1.5499
  334MOL0     C44969   9.925   3.733   7.481 -0.2061  0.2163 -0.8024
  334MOL0     C44970   9.854   3.723   7.341 -0.1915 -0.1438 -0.0563
  334MOL0     C44971   9.708   3.765   7.328  1.2888 -0.8588  0.0393
  334MOL0     N44972   9.613   3.649   7.323  0.9545 -0.7049  0.0546
  334MOL0     C44973   9.507   3.630   7.419 -0.9916 -0.5931  0.5954
  334MOL0     C44974   9.427   3.533   7.369 -0.0686 -0.1253  0.0655
  334MOL0     C44975   9.294   3.495   7.434 -0.7438  0.3236 -0.1877
  334MOL0     C44976   9.200   3.408   7.344 -0.6865  0.1834  0.1917
  334MOL0     C44977   9.159   3.486   7.219  0.2440 -0.1921 -0.0421
  334MOL0     C44978   9.024   3.430   7.179 -0.5308  0.0454  0.6385
  334MOL0     O44979   8.930   3.479   7.275 -0.6046 -0.3020  0.4192
  334MOL0     C44980   8.803   3.445   7.289  0.5348  0.7370 -0.2399
  334MOL0     C44981   8.764   3.396   7.414  0.7710  0.2545 -0.2033
  334MOL0     C44982   8.634   3.365   7.448  0.5187  0.3953 -0.2005
  334MOL0     C44983   8.606   3.319   7.586 -0.4769 -0.4248 -0.4282
  334MOL0     C44984   8.535   3.366   7.347 -0.1724  0.1575  0.8950
  334MOL0     C44985   8.392   3.320   7.357 -0.1731 -0.4299 -0.4920
  334MOL0     O44986   8.317   3.340   7.239 -0.2527  0.5262  0.0540
  334MOL0     C44987   8.196   3.263   7.236  0.2541 -0.3946  1.0690
  334MOL0     C44988   8.183   3.129   7.263  0.6849 -0.2098 -0.2421
  334MOL0     C44989   8.060   3.059   7.246 -0.2167 -0.6598  0.7748
  334MOL0     C44990   7.948   3.126   7.184 -0.1618 -0.8348  0.1065
  334MOL0     O44991   7.834   3.076   7.147  0.4163 -0.1501 -0.3979
  334MOL0     C44992   7.814   2.934   7.111 -0.7617  0.1447  0.2227
  334MOL0     C44993   7.682   2.901   7.050 -0.7222  0.0148 -0.6040
  334MOL0     C44994   7.645   2.761   7.036  0.0401 -0.5708 -0.3826
  334MOL0     C44995   7.500   2.755   7.005  0.5244 -0.3062 -0.2470
  334MOL0     C44996   7.433   2.615   6.994 -0.0160  0.3144 -0.2508
  334MOL0     C44997   7.290   2.632   6.945 -0.1918  0.3501 -0.6770
  334MOL0     C44998   7.221   2.500   6.921 -0.3589  0.8160  0.8254
  334MOL0     C44999   7.229   2.405   7.042 -0.7391  0.6478 -0.2318
  334MOL0    Cl45000   7.139   2.253   7.030  0.0309 -0.5113 -0.2438
  334MOL0     C45001   7.966   3.261   7.153 -0.1501  0.0771  0.0090
  334MOL0     C45002   8.088   3.326   7.175  0.6196 -0.2632 -0.2296
  334MOL0     O45003   8.347   3.290   7.466  0.5270 -0.7305  0.3726
  334MOL0     C45004   8.571   3.404   7.219  0.1990 -0.0498  0.9507
  334MOL0     C45005   8.700   3.452   7.198 -0.8070 -0.5750  0.1884
  334MOL0     N45006   9.477   3.492   7.248 -0.5392  0.6835 -1.0038
  334MOL0     N45007   9.598   3.544   7.236  0.3751 -0.8570  0.1498
  334MOL0     C45008  10.548   3.561   7.938  0.0645 -0.9318  0.2217
  334MOL0     C45009  10.676   3.574   7.891 -0.5672 -0.7361 -0.5998
  334MOL0     C45010  11.077   3.531   7.736 -0.9225  1.6028 -1.6357
  334MOL0     C45011  11.196   3.516   7.823 -0.5710  0.8684  0.0859
  334MOL0     C45012  11.324   3.562   7.775  0.2692  0.0396 -0.0048
  334MOL0     C45013  11.329   3.634   7.656 -0.2134  0.3372  0.4927
  334MOL0     O45014  11.444   3.692   7.609 -0.1304  0.4958 -0.0380
  334MOL0     C45015  11.569   3.635   7.643  0.4178  0.5027  0.4362
  334MOL0     C45016  11.652   3.734   7.719 -0.3441 -0.0259 -0.3536
  334MOL0     C45017  11.677   3.873   7.646  0.2768  0.6150 -0.6826
  334MOL0     C45018  11.727   3.867   7.503 -0.0385  0.4164 -0.6846
  334MOL0     C45019  11.852   3.806   7.504  0.3923 -0.0797  1.1008
  334MOL0     C45020  11.960   3.748   7.502  1.0088 -0.0575  0.1705
  334MOL0     C45021  11.213   3.652   7.580  0.4034  0.6178  0.3148
  334MOL0     C45022  11.091   3.596   7.617 -0.4273  0.0008  0.0239
  334MOL0     H45023  10.659   3.413   7.601  2.5062 -0.3583  1.0634
  334MOL0     H45024  10.416   3.403   7.676 -0.7275  1.4774  0.3018
  334MOL0     H45025  10.291   3.691   7.997  1.9576  2.3747 -1.3292
  334MOL0     H45026  10.305   3.700   7.817 -0.6632 -2.8884 -0.9386
  334MOL0     H45027  10.076   3.565   7.952  0.8089 -1.9871 -1.1871
  334MOL0     H45028  10.059   3.735   7.913 -0.8646  1.2083 -1.5150
  334MOL0     H45029  10.155   3.658   7.673  0.2655 -1.1781  0.0179
  334MOL0     H45030  10.092   3.501   7.709 -1.7988  0.7857 -1.9224
  334MOL0     H45031   9.871   3.578   7.779 -0.6887 -0.5843 -0.6390
  334MOL0     H45032   9.922   3.739   7.734  0.9498 -0.7228  0.6227
  334MOL0     H45033   9.921   3.526   7.529 -2.3263 -0.1492  0.7880
  334MOL0     H45034   9.777   3.614   7.585 -0.4447 -3.8617 -1.6887
  334MOL0     H45035   9.892   3.827   7.525 -0.0683 -0.3084  0.4608
  334MOL0     H45036  10.034   3.732   7.476 -0.1261  0.3855  0.4587
  334MOL0     H45037   9.915   3.787   7.276  0.6805 -1.1870 -0.2991
  334MOL0     H45038   9.851   3.624   7.296 -1.9322  0.6740 -1.8683
  334MOL0     H45039   9.690   3.812   7.232  0.7913 -0.1128  0.4931
  334MOL0     H45040   9.687   3.833   7.411  1.6334 -1.7096  0.8470
  334MOL0     H45041   9.480   3.686   7.508  0.0385  1.4945 -0.3298
  334MOL0     H45042   9.319   3.436   7.523  0.9697  1.6871  0.2951
  334MOL0     H45043   9.254   3.592   7.461 -0.0113  1.2975 -2.3412
  334MOL0     H45044   9.113   3.385   7.406 -1.0331 -0.7403 -0.6067
  334MOL0     H45045   9.248   3.313   7.317  1.3884  0.7210  1.7565
  334MOL0     H45046   9.232   3.476   7.138  0.0111  1.2842 -0.4600
  334MOL0     H45047   9.144   3.593   7.233 -1.9747  0.4710 -5.2659
  334MOL0     H45048   9.022   3.320   7.180 -0.7097  0.0478  2.3121
  334MOL0     H45049   9.000   3.467   7.079 -2.4748  0.3032  1.1587
  334MOL0     H45050   8.845   3.394   7.486 -0.2761 -2.6203  1.0542
  334MOL0     H45051   8.666   3.373   7.660  1.9070  0.3960 -2.7932
  334MOL0     H45052   8.503   3.349   7.607 -1.7560 -2.8598 -2.6760
  334MOL0     H45053   8.615   3.215   7.616 -1.5693  0.0433  1.7251
  334MOL0     H45054   8.268   3.078   7.308  1.8479  2.3758  0.6843
  334MOL0     H45055   8.064   2.953   7.268  0.0461 -0.8619 -0.1972
  334MOL0     H45056   7.877   2.909   7.025 -1.3491 -0.2484 -0.0905
  334MOL0     H45057   7.838   2.874   7.199  1.7821  0.6326 -0.0326
  334MOL0     H45058   7.609   2.945   7.118  0.0861 -0.8130  0.8560
  334MOL0     H45059   7.670   2.953   6.954 -0.9450  1.1801  0.0331
  334MOL0     H45060   7.654   2.719   7.137 -0.2496 -1.1920 -0.6116
  334MOL0     H45061   7.695   2.694   6.966 -1.0146 -0.7077 -1.0120
  334MOL0     H45062   7.451   2.807   7.088  0.7017 -0.3850 -0.0925
  334MOL0     H45063   7.483   2.817   6.916 -0.9037 -2.1029 -1.3117
  334MOL0     H45064   7.440   2.557   7.086  0.0736  0.9867  0.1775
  334MOL0     H45065   7.481   2.570   6.907 -0.0045  0.9865 -0.5986
  334MOL0     H45066   7.235   2.689   7.021  1.9133 -1.8201  2.7603
  334MOL0     H45067   7.297   2.695   6.856 -0.1021 -0.0382 -0.9482
  334MOL0     H45068   7.264   2.453   6.832  3.5189 -1.2226  3.4790
  334MOL0     H45069   7.114   2.515   6.907 -0.0630  1.5349 -0.9402
  334MOL0     H45070   7.187   2.453   7.132 -3.5793  0.6411 -1.4528
  334MOL0     H45071   7.333   2.375   7.055 -0.4883  1.8903  0.9529
  334MOL0     H45072   7.892   3.320   7.100 -0.1719 -1.5910 -1.9498
  334MOL0     H45073   8.083   3.431   7.149  0.9878 -0.5157 -1.3478
  334MOL0     H45074   8.505   3.395   7.133 -0.2472 -1.8068  1.4339
  334MOL0     H45075   8.713   3.485   7.096 -0.2570  4.4240  1.6076
  334MOL0     H45076  10.520   3.597   8.037  1.8763 -0.2821  0.5339
  334MOL0     H45077  10.745   3.626   7.956 -3.5240  3.5029 -0.4134
  334MOL0     H45078  11.186   3.479   7.924 -0.4946 -0.3291 -0.3246
  334MOL0     H45079  11.413   3.545   7.836  2.2730 -2.7993 -3.3368
  334MOL0     H45080  11.560   3.541   7.699 -1.8788 -0.5623 -1.5162
  334MOL0     H45081  11.604   3.608   7.544 -0.0218 -0.6291  0.5644
  334MOL0     H45082  11.749   3.691   7.747 -0.8040 -1.9632 -1.5675
  334MOL0     H45083  11.604   3.759   7.814 -1.6222 -1.6120 -0.5458
  334MOL0     H45084  11.754   3.930   7.699 -0.5572  1.8325 -0.7461
  334MOL0     H45085  11.590   3.938   7.647  0.6204  1.0819 -0.7581
  334MOL0     H45086  11.726   3.960   7.445  1.0928 -1.3793 -3.7877
  334MOL0     H45087  11.664   3.798   7.446 -2.0097  1.7983 -0.3285
  334MOL0     H45088  12.063   3.720   7.509  1.5441  1.5963 -0.3983
  334MOL0     H45089  11.215   3.704   7.485  1.3751  2.0403  1.0818
  334MOL0     H45090  11.007   3.611   7.550 -1.4018  0.7422  1.3625
  335MOL0     O45091   7.952   7.063  10.180 -0.0027  0.0352  0.3857
  335MOL0     C45092   8.031   7.032  10.097 -0.5082 -0.7441 -0.4763
  335MOL0     O45093   8.004   7.020   9.958 -0.2962 -0.1821 -0.3382
  335MOL0     C45094   7.883   7.036   9.892  0.6228 -1.0461  0.2388
  335MOL0     C45095   7.760   7.047   9.960 -0.5322  0.3289 -0.8354
  335MOL0     C45096   7.632   7.069   9.898 -0.4385  1.3367 -0.7331
  335MOL0     C45097   7.628   7.079   9.757 -0.2879 -0.3809  0.4622
  335MOL0     O45098   7.518   7.097   9.682 -0.2707 -0.2131 -0.0490
  335MOL0     C45099   7.392   7.045   9.720  0.2719  0.6211  0.0878
  335MOL0     C45100   7.403   6.894   9.754 -0.1098  0.1083  0.5331
  335MOL0     C45101   7.266   6.842   9.776  0.6735  0.4639  0.3635
  335MOL0     C45102   7.191   6.909   9.893 -0.7325  0.1310  0.6272
  335MOL0     C45103   7.070   6.829   9.943  0.6791 -0.6754 -0.4250
  335MOL0     C45104   6.978   6.763   9.842  0.0269  0.3001 -0.6076
  335MOL0     C45105   6.924   6.869   9.741  0.6199 -0.1818 -0.0862
  335MOL0     C45106   6.842   6.983   9.802  0.4331  0.4760 -0.7153
  335MOL0     N45107   6.735   6.932   9.896  0.2903  0.7185 -0.4495
  335MOL0     C45108   6.650   6.825   9.860  0.8351 -0.2366  0.5777
  335MOL0     C45109   6.573   6.803   9.972  0.0118  0.4296 -0.5026
  335MOL0     C45110   6.472   6.696   9.979 -0.9449  0.8658 -0.1880
  335MOL0     C45111   6.330   6.743  10.030 -0.6263 -0.3949  0.2751
  335MOL0     C45112   6.335   6.785  10.177  0.2209 -0.1562  0.1619
  335MOL0     C45113   6.194   6.828  10.209 -0.2587 -0.4068  0.3446
  335MOL0     O45114   6.102   6.733  10.153 -0.2985  0.3003  0.4177
  335MOL0     C45115   5.959   6.754  10.154 -0.3167 -0.4998  0.0049
  335MOL0     C45116   5.904   6.875  10.208 -0.0606 -0.1678 -1.0168
  335MOL0     C45117   5.769   6.895  10.221 -1.4073  0.6061 -0.0245
  335MOL0     C45118   5.720   7.015  10.287 -0.2243  0.2015  0.4803
  335MOL0     C45119   5.681   6.792  10.186 -0.3511  0.1285  0.4973
  335MOL0     C45120   5.528   6.801  10.197  0.2891 -0.0766  0.9369
  335MOL0     O45121   5.456   6.720  10.113 -0.1605  0.4837 -0.1939
  335MOL0     C45122   5.324   6.706  10.147  0.4569  0.3195  0.9799
  335MOL0     C45123   5.289   6.661  10.266 -0.0497 -0.0049  0.2760
  335MOL0     C45124   5.153   6.627  10.286  0.1786 -0.2687 -0.1537
  335MOL0     C45125   5.054   6.643  10.185  0.3342  0.7584 -0.1474
  335MOL0     O45126   4.931   6.578  10.205  0.1640  0.0122  0.0850
  335MOL0     C45127   4.884   6.543  10.341 -0.8929  0.5123  0.1218
  335MOL0     C45128   4.736   6.563  10.351 -0.1078  0.7412 -0.1226
  335MOL0     C45129   4.659   6.476  10.255 -0.6158 -0.6389  0.0411
  335MOL0     C45130   4.512   6.450  10.307 -0.4017  0.1866  0.5931
  335MOL0     C45131   4.417   6.363  10.224 -0.1086  0.7471 -0.0899
  335MOL0     C45132   4.272   6.349  10.282  1.0715 -0.2213 -0.0094
  335MOL0     C45133   4.256   6.318  10.429  0.3400  0.5131  0.1761
  335MOL0     C45134   4.108   6.288  10.463 -0.1330 -0.9885 -0.8928
  335MOL0    Cl45135   4.027   6.441  10.474  0.4229 -0.7884  0.0147
  335MOL0     C45136   5.093   6.704  10.066 -0.6049  0.5225 -0.3280
  335MOL0     C45137   5.234   6.734  10.042 -0.0194 -0.3054 -0.9491
  335MOL0     O45138   5.475   6.888  10.271 -0.1348  0.0977  0.1587
  335MOL0     C45139   5.733   6.677  10.140 -0.2453 -0.1731 -0.2170
  335MOL0     C45140   5.868   6.654  10.133 -0.4431  0.3963  0.5479
  335MOL0     N45141   6.621   6.877  10.075  0.0124 -0.1247 -0.1221
  335MOL0     N45142   6.714   6.957  10.034  0.4590  0.2705  0.4764
  335MOL0     C45143   7.742   7.056   9.687 -0.1090 -0.2895 -0.3914
  335MOL0     C45144   7.867   7.033   9.752 -0.1568 -0.7493 -0.2163
  335MOL0     C45145   8.174   7.028  10.136 -0.2927 -0.0358 -0.9844
  335MOL0     C45146   8.218   7.059  10.267 -0.2273 -0.5424  0.8726
  335MOL0     C45147   8.350   7.040  10.302  0.1746  0.4391 -0.1300
  335MOL0     C45148   8.440   6.991  10.206  0.4090 -0.1863 -0.1497
  335MOL0     O45149   8.572   6.992  10.243 -0.9301  0.1313 -0.0038
  335MOL0     C45150   8.658   7.077  10.173  0.1806 -0.2097 -0.0051
  335MOL0     C45151   8.777   7.011  10.107 -0.5604 -0.3481  1.1190
  335MOL0     C45152   8.837   7.094   9.989  0.2924 -0.6700  0.2844
  335MOL0     C45153   8.889   7.228  10.041 -0.0243 -0.1738  0.2943
  335MOL0     C45154   8.957   7.307   9.946  0.6223  0.5886  0.1000
  335MOL0     C45155   9.026   7.371   9.876 -0.9081  0.0184  0.3026
  335MOL0     C45156   8.399   6.950  10.080  0.3296 -0.4345  0.8679
  335MOL0     C45157   8.265   6.970  10.048  0.0834  0.1592 -0.9043
  335MOL0     H45158   7.740   7.070  10.064  0.6737  0.6705 -0.6711
  335MOL0     H45159   7.539   7.074   9.953 -0.0749 -0.6874  0.1528
  335MOL0     H45160   7.353   7.093   9.811  1.9141  0.7906  0.7303
  335MOL0     H45161   7.328   7.076   9.637  3.0502  4.0148 -1.0432
  335MOL0     H45162   7.452   6.854   9.665  1.7610  2.6357  0.3055
  335MOL0     H45163   7.466   6.866   9.839 -1.2805 -2.6224  0.5700
  335MOL0     H45164   7.206   6.819   9.688  0.3581  0.2457  0.6346
  335MOL0     H45165   7.276   6.738   9.809  2.4725  0.7292  0.7618
  335MOL0     H45166   7.261   6.924   9.976 -0.3154 -2.3981  0.7917
  335MOL0     H45167   7.142   6.999   9.853 -1.6677 -0.8962 -0.6084
  335MOL0     H45168   7.103   6.751  10.013 -0.3783 -0.7807 -0.0237
  335MOL0     H45169   7.012   6.904   9.996 -0.2244 -0.0569 -2.2062
  335MOL0     H45170   7.029   6.680   9.792  2.1231  1.1876 -0.0792
  335MOL0     H45171   6.895   6.717   9.895 -1.4144  2.4784 -0.8433
  335MOL0     H45172   7.014   6.912   9.695 -0.6247  2.2240 -0.3801
  335MOL0     H45173   6.869   6.816   9.663  3.3456 -1.4014 -1.3079
  335MOL0     H45174   6.803   7.032   9.712  0.4282 -1.3687 -1.7702
  335MOL0     H45175   6.904   7.050   9.862 -0.0598  0.2974  0.0142
  335MOL0     H45176   6.645   6.778   9.762 -0.1819  1.7628 -0.3795
  335MOL0     H45177   6.449   6.676   9.874 -1.0737  0.8630 -0.1595
  335MOL0     H45178   6.504   6.605  10.031 -0.0817  0.0287 -2.0971
  335MOL0     H45179   6.266   6.659  10.002 -0.9847 -0.0605  0.0940
  335MOL0     H45180   6.300   6.833   9.975  0.0313  0.4457  1.2582
  335MOL0     H45181   6.410   6.864  10.189  0.8832 -0.5778 -1.0599
  335MOL0     H45182   6.371   6.704  10.241  0.6167  1.5183  2.1871
  335MOL0     H45183   6.170   6.927  10.170  0.0645  0.2951  1.8550
  335MOL0     H45184   6.176   6.832  10.316  1.5879  1.1661  0.6525
  335MOL0     H45185   5.968   6.956  10.241 -0.9450 -0.5316  1.9355
  335MOL0     H45186   5.805   7.083  10.301  1.8962 -1.0374 -4.4475
  335MOL0     H45187   5.646   7.071  10.229 -0.9257 -2.5210 -1.4580
  335MOL0     H45188   5.678   6.974  10.379 -1.7731 -2.9023 -1.4613
  335MOL0     H45189   5.361   6.648  10.346 -0.9847  1.2214  1.3717
  335MOL0     H45190   5.131   6.589  10.386  0.2853  1.3626  0.5115
  335MOL0     H45191   4.915   6.440  10.363 -1.2881 -0.4619 -3.3566
  335MOL0     H45192   4.936   6.607  10.414  1.1014 -1.0116  0.1136
  335MOL0     H45193   4.712   6.537  10.455 -1.3875  2.6359  0.0995
  335MOL0     H45194   4.703   6.666  10.338  0.4578  0.6862 -2.5508
  335MOL0     H45195   4.708   6.380  10.234 -0.5938 -0.4942 -0.5999
  335MOL0     H45196   4.654   6.528  10.159  0.5500  2.1946  1.3965
  335MOL0     H45197   4.520   6.415  10.410 -0.1019  3.9927  2.0508
  335MOL0     H45198   4.466   6.550  10.313 -0.4782  0.1480  0.6431
  335MOL0     H45199   4.461   6.263  10.215 -0.0060  0.7205  0.5796
  335MOL0     H45200   4.399   6.395  10.121 -1.6010 -0.6960 -0.3144
  335MOL0     H45201   4.213   6.441  10.273 -1.3883 -1.8359 -1.9607
  335MOL0     H45202   4.215   6.279  10.220  2.0898 -0.3712 -0.8006
  335MOL0     H45203   4.294   6.393  10.499  2.4122 -0.9263  0.6818
  335MOL0     H45204   4.296   6.219  10.449 -3.2428 -0.8849  1.3738
  335MOL0     H45205   4.095   6.245  10.563  0.4732  2.4192  0.8099
  335MOL0     H45206   4.051   6.228  10.392 -2.6169 -1.6633  1.5011
  335MOL0     H45207   5.025   6.709   9.982 -1.1077 -0.4750  0.0036
  335MOL0     H45208   5.263   6.772   9.944  1.4837  3.4167  0.7600
  335MOL0     H45209   5.667   6.591  10.126 -1.3678  0.2146  2.1501
  335MOL0     H45210   5.908   6.558  10.102 -2.2681 -0.6957  1.4345
  335MOL0     H45211   7.742   7.069   9.580 -1.7989  4.9908 -0.0777
  335MOL0     H45212   7.956   7.028   9.690  0.9668  1.8016  1.0254
  335MOL0     H45213   8.156   7.103  10.344 -0.6453  1.9921 -0.7865
  335MOL0     H45214   8.380   7.060  10.404  0.8351  1.4558 -0.5061
  335MOL0     H45215   8.600   7.134  10.099  1.5845  0.5688 -0.5568
  335MOL0     H45216   8.691   7.151  10.247 -1.5865 -0.5254  1.1329
  335MOL0     H45217   8.732   6.922  10.064 -1.2992  1.1709 -1.4684
  335MOL0     H45218   8.857   6.965  10.166 -0.6686 -1.6069  0.3269
  335MOL0     H45219   8.756   7.105   9.916 -0.1519 -2.9589  0.3411
  335MOL0     H45220   8.911   7.037   9.933 -1.3700 -3.9846  1.2013
  335MOL0     H45221   8.967   7.223  10.118  1.4229  2.4859 -0.8701
  335MOL0     H45222   8.810   7.288  10.086 -0.2413 -1.1831  1.3072
  335MOL0     H45223   9.092   7.434   9.820 -1.5232 -1.2901 -1.9905
  335MOL0     H45224   8.473   6.906  10.013 -0.1328 -0.4920  0.3942
  335MOL0     H45225   8.233   6.956   9.946 -1.9472  4.6623 -1.1260
  336MOL0     O45226   4.729   9.506   0.028 -0.5258  0.1313 -0.6780
  336MOL0     C45227   4.837   9.516  -0.027  0.4589  0.4478  0.6987
  336MOL0     O45228   4.867   9.443  -0.146 -0.3715 -0.3994  0.0275
  336MOL0     C45229   4.975   9.486  -0.225 -0.0336  0.4324  0.1010
  336MOL0     C45230   5.006   9.616  -0.259 -1.3370  0.7061  0.6024
  336MOL0     C45231   5.133   9.637  -0.323 -0.0288  0.2709  0.1402
  336MOL0     C45232   5.220   9.535  -0.359  0.2258 -0.1729  0.1009
  336MOL0     O45233   5.332   9.545  -0.431  0.1516  0.1622 -0.4850
  336MOL0     C45234   5.336   9.624  -0.547 -0.0340  0.3589  0.6361
  336MOL0     C45235   5.476   9.682  -0.561 -0.2323 -0.2285 -0.0203
  336MOL0     C45236   5.506   9.748  -0.690  0.1592  0.1450 -0.7044
  336MOL0     C45237   5.565   9.652  -0.795  0.0467 -0.4263  0.2138
  336MOL0     C45238   5.566   9.720  -0.930 -0.2248 -0.3754  0.6522
  336MOL0     C45239   5.637   9.860  -0.948 -0.0983  0.0176  0.8485
  336MOL0     C45240   5.632   9.926  -1.088  0.3532  0.0580 -1.4702
  336MOL0     C45241   5.705   9.834  -1.194  0.3328 -0.1796 -1.1317
  336MOL0     N45242   5.847   9.845  -1.183  0.3459 -1.0129 -0.3187
  336MOL0     C45243   5.937   9.745  -1.174  0.2356 -0.6869 -0.1353
  336MOL0     C45244   6.055   9.810  -1.200 -0.5097 -0.0232  0.1193
  336MOL0     C45245   6.193   9.746  -1.203  1.0838 -0.4304 -0.3776
  336MOL0     C45246   6.263   9.693  -1.081 -0.0288 -0.0824 -0.2491
  336MOL0     C45247   6.402   9.632  -1.123 -0.8598 -0.3927 -0.7471
  336MOL0     C45248   6.516   9.736  -1.169  1.0067 -0.3051 -0.1703
  336MOL0     O45249   6.650   9.676  -1.167  0.2629  0.3434  0.0566
  336MOL0     C45250   6.758   9.760  -1.172  0.2706 -0.5408 -0.1666
  336MOL0     C45251   6.744   9.900  -1.184  0.9750 -0.2375  0.4589
  336MOL0     C45252   6.852   9.989  -1.190  0.0164  0.4422 -0.0142
  336MOL0     C45253   6.825  10.142  -1.195 -0.8875  0.4769 -0.7438
  336MOL0     C45254   6.984   9.933  -1.183  0.5830  0.0299 -0.4739
  336MOL0     C45255   7.107  10.012  -1.188 -0.1538 -0.1523 -0.3772
  336MOL0     O45256   7.211   9.946  -1.230  0.0420 -0.0551 -0.5567
  336MOL0     C45257   7.332   9.993  -1.271  0.0821 -0.2129  0.5811
  336MOL0     C45258   7.429   9.898  -1.304 -0.5549 -0.2810 -0.8295
  336MOL0     C45259   7.555   9.931  -1.342 -0.2517  0.3691 -0.1108
  336MOL0     C45260   7.595  10.061  -1.338 -0.8979  0.3738 -0.6264
  336MOL0     O45261   7.727  10.086  -1.367 -0.4704  0.7271  0.1492
  336MOL0     C45262   7.810  10.123  -1.253 -1.0444 -0.3694  0.2186
  336MOL0     C45263   7.863   9.994  -1.184  1.1294  0.7134 -0.1144
  336MOL0     C45264   7.971  10.019  -1.071 -0.6112  0.4686 -0.3753
  336MOL0     C45265   7.997   9.898  -0.981 -0.6083  0.3492 -0.6157
  336MOL0     C45266   8.106   9.922  -0.878  0.3364 -0.1952  0.6029
  336MOL0     C45267   8.102   9.820  -0.769 -0.0119  0.0388  0.5634
  336MOL0     C45268   8.206   9.861  -0.658 -0.6320  0.5725  0.1045
  336MOL0     C45269   8.343   9.820  -0.699 -0.1161  0.7368  0.2936
  336MOL0    Cl45270   8.356   9.639  -0.691  0.3347 -0.3217 -0.1411
  336MOL0     C45271   7.508  10.164  -1.311 -0.1321  0.5676 -0.3890
  336MOL0     C45272   7.371  10.131  -1.278 -0.5582 -0.0254  1.0200
  336MOL0     O45273   7.107  10.129  -1.148 -0.7729 -0.3228 -0.2412
  336MOL0     C45274   6.991   9.788  -1.168 -0.1663  0.3672 -0.6456
  336MOL0     C45275   6.883   9.708  -1.169  0.1653  0.5616  0.0534
  336MOL0     N45276   6.034   9.941  -1.225  0.0208  0.4189  0.6870
  336MOL0     N45277   5.911   9.964  -1.208  1.0963 -0.8979 -0.9168
  336MOL0     C45278   5.188   9.406  -0.337  0.3201 -1.0994  0.2033
  336MOL0     C45279   5.068   9.386  -0.263  0.1227  0.3519  0.2852
  336MOL0     C45280   4.937   9.592   0.050  0.3399 -0.5954  0.0744
  336MOL0     C45281   4.894   9.706   0.119 -0.2326  0.2668  0.2545
  336MOL0     C45282   4.974   9.794   0.196  0.0145  0.9836 -0.0424
  336MOL0     C45283   5.113   9.754   0.211  0.4360  0.2463 -0.3743
  336MOL0     O45284   5.214   9.819   0.282  0.1159 -0.4609  0.2150
  336MOL0     C45285   5.187   9.958   0.315 -0.5885  0.6768 -0.1598
  336MOL0     C45286   5.287  10.008   0.412 -0.6379 -0.3330  0.3875
  336MOL0     C45287   5.423   9.958   0.392  0.0975 -1.5560  0.1962
  336MOL0     C45288   5.479   9.968   0.249 -0.8729 -0.2653  0.5366
  336MOL0     C45289   5.629   9.996   0.243  0.9262  0.1271 -0.2057
  336MOL0     C45290   5.745   9.987   0.223 -0.2452 -0.5808 -0.2621
  336MOL0     C45291   5.151   9.627   0.160  0.3241 -0.0546 -0.3221
  336MOL0     C45292   5.066   9.555   0.084  0.9267  0.4862  0.2656
  336MOL0     H45293   4.933   9.694  -0.243  1.0374  2.7372  2.2711
  336MOL0     H45294   5.157   9.741  -0.340 -1.1858  0.9213  2.1167
  336MOL0     H45295   5.309   9.565  -0.635  1.2261  2.9000 -1.5698
  336MOL0     H45296   5.264   9.706  -0.539  0.0231  0.7033 -1.6748
  336MOL0     H45297   5.475   9.761  -0.486  1.8960  0.5460 -0.7415
  336MOL0     H45298   5.561   9.620  -0.532  1.1461  2.1697  1.4019
  336MOL0     H45299   5.416   9.798  -0.727 -1.0225 -0.1357  1.6018
  336MOL0     H45300   5.565   9.837  -0.669 -0.0512  0.0247  0.4662
  336MOL0     H45301   5.668   9.621  -0.776  0.3365 -0.5582 -1.4679
  336MOL0     H45302   5.508   9.558  -0.798  0.0442 -0.5372  2.2227
  336MOL0     H45303   5.615   9.652  -1.000  0.2287  1.7880 -1.2354
  336MOL0     H45304   5.465   9.749  -0.963  1.1482  2.9788 -1.1169
  336MOL0     H45305   5.583   9.929  -0.882  0.4731  0.2309  1.0895
  336MOL0     H45306   5.737   9.837  -0.913  0.7383 -2.7078 -2.7029
  336MOL0     H45307   5.530   9.951  -1.115  0.3928  2.4235  0.2421
  336MOL0     H45308   5.682  10.023  -1.079  0.2160  0.0797 -0.8874
  336MOL0     H45309   5.660   9.856  -1.291 -3.4046 -3.4019 -0.4404
  336MOL0     H45310   5.686   9.726  -1.188  0.9582 -0.2237  0.9842
  336MOL0     H45311   5.927   9.644  -1.137 -0.6681 -0.0316  1.5375
  336MOL0     H45312   6.187   9.663  -1.274 -1.0045  0.8340 -1.8319
  336MOL0     H45313   6.255   9.826  -1.244  0.6047  0.8872  1.3762
  336MOL0     H45314   6.207   9.610  -1.036 -2.8698  1.6505 -0.3080
  336MOL0     H45315   6.272   9.772  -1.005 -0.9856 -0.6318  0.4562
  336MOL0     H45316   6.386   9.551  -1.194  0.2509 -2.2919  1.0622
  336MOL0     H45317   6.435   9.578  -1.034  0.3459  1.2579 -0.1352
  336MOL0     H45318   6.504   9.816  -1.095  2.0406  0.6865 -1.0458
  336MOL0     H45319   6.490   9.779  -1.266 -0.2180  1.1585  0.7659
  336MOL0     H45320   6.646   9.946  -1.196  1.2554 -0.1485 -1.7636
  336MOL0     H45321   6.831  10.201  -1.103 -3.9724 -0.4435  0.1921
  336MOL0     H45322   6.888  10.180  -1.275  1.0451 -0.9121  0.0429
  336MOL0     H45323   6.719  10.147  -1.223  0.0682  2.3843 -4.5918
  336MOL0     H45324   7.398   9.795  -1.296 -0.6314 -0.1903  0.1398
  336MOL0     H45325   7.626   9.855  -1.375  0.1341  1.7156 -2.6305
  336MOL0     H45326   7.895  10.174  -1.298 -3.5701  3.9019 -0.2245
  336MOL0     H45327   7.758  10.196  -1.190 -0.4195  0.3523 -0.1004
  336MOL0     H45328   7.773   9.949  -1.139  1.5575 -2.9464 -2.4623
  336MOL0     H45329   7.894   9.918  -1.256 -1.9821  0.4420 -1.3537
  336MOL0     H45330   7.948  10.102  -1.003 -3.1453  0.0298 -0.5815
  336MOL0     H45331   8.062  10.045  -1.126 -0.9491 -1.1455 -1.7783
  336MOL0     H45332   7.909   9.857  -0.931 -2.5388  1.6253 -2.8471
  336MOL0     H45333   8.036   9.824  -1.052  1.3505 -1.3145  1.9902
  336MOL0     H45334   8.089  10.019  -0.831 -2.1142  0.1852 -0.8567
  336MOL0     H45335   8.204   9.930  -0.926  0.3247 -0.4358  0.5357
  336MOL0     H45336   8.001   9.815  -0.727 -0.5697  4.3040  0.1879
  336MOL0     H45337   8.137   9.728  -0.817 -1.2496  0.5036 -1.3589
  336MOL0     H45338   8.186   9.793  -0.574 -0.1354  0.9323  0.5239
  336MOL0     H45339   8.198   9.966  -0.629 -1.2457  0.0735  1.8323
  336MOL0     H45340   8.412   9.865  -0.627  0.2345 -0.1018  0.4970
  336MOL0     H45341   8.369   9.857  -0.798 -2.0914 -2.1182 -1.4478
  336MOL0     H45342   7.534  10.269  -1.320 -4.5316  2.0115  0.8796
  336MOL0     H45343   7.302  10.210  -1.255 -1.6504 -1.0505  1.3498
  336MOL0     H45344   7.091   9.746  -1.165 -0.6075 -0.7797 -1.3131
  336MOL0     H45345   6.911   9.606  -1.145  1.0699  0.5268 -1.0524
  336MOL0     H45346   5.244   9.323  -0.379  3.1088  0.5390  0.4407
  336MOL0     H45347   5.047   9.282  -0.240  0.2601 -0.0669 -1.3552
  336MOL0     H45348   4.790   9.735   0.112 -0.2190  0.4337  0.7399
  336MOL0     H45349   4.941   9.893   0.225 -0.3709  1.1629 -1.0440
  336MOL0     H45350   5.193  10.014   0.222  0.5626 -0.1208 -0.5902
  336MOL0     H45351   5.091   9.953   0.366 -0.9060  1.2592 -0.6905
  336MOL0     H45352   5.244   9.974   0.506 -2.3499  0.7715  0.0594
  336MOL0     H45353   5.299  10.117   0.421 -1.4920 -0.4081  5.6474
  336MOL0     H45354   5.422   9.853   0.423 -0.5941 -2.0548 -1.4279
  336MOL0     H45355   5.478  10.022   0.462 -3.2978 -0.3019  1.9844
  336MOL0     H45356   5.433  10.052   0.197 -2.0110  0.3775  2.5018
  336MOL0     H45357   5.461   9.872   0.199 -1.2849 -0.4843  1.1012
  336MOL0     H45358   5.846   9.960   0.203  0.2830  1.0631  0.0508
  336MOL0     H45359   5.255   9.595   0.161  0.6027  0.4263  4.2818
  336MOL0     H45360   5.092   9.459   0.040 -0.4613 -0.2578  1.0041
  337MOL0     O45361   5.674   7.657  10.444  0.7106  0.4170  0.3038
  337MOL0     C45362   5.778   7.647  10.510  0.3227 -0.1100  0.3348
  337MOL0     O45363   5.901   7.619  10.452  0.3650  0.2582 -0.2325
  337MOL0     C45364   5.910   7.604  10.313 -1.2955  1.0282  0.0014
  337MOL0     C45365   6.025   7.530  10.275  0.2152  0.8452  0.2441
  337MOL0     C45366   6.055   7.495  10.142  0.7923 -0.1090  0.0810
  337MOL0     C45367   5.983   7.559  10.036 -0.0902 -0.7501  0.4035
  337MOL0     O45368   6.039   7.537   9.905 -0.0646  0.5723 -0.5451
  337MOL0     C45369   6.013   7.626   9.796 -0.5337 -0.4465 -0.1715
  337MOL0     C45370   5.883   7.570   9.730 -0.2183 -0.5497  0.8585
  337MOL0     C45371   5.838   7.676   9.624 -0.6299  0.6416  0.0096
  337MOL0     C45372   5.719   7.621   9.540 -1.1353 -0.3880  0.5044
  337MOL0     C45373   5.589   7.624   9.619 -0.1767 -0.4753 -0.3695
  337MOL0     C45374   5.547   7.493   9.678  0.3146  0.1393 -0.0221
  337MOL0     C45375   5.402   7.510   9.744  0.0711 -0.5793  0.0987
  337MOL0     C45376   5.299   7.530   9.633  0.8344 -0.0713  0.5315
  337MOL0     N45377   5.164   7.520   9.696 -0.3437  0.1131 -0.1874
  337MOL0     C45378   5.114   7.426   9.779  0.2690 -0.4575 -0.3701
  337MOL0     C45379   4.992   7.471   9.824  0.5764  0.6652  0.9489
  337MOL0     C45380   4.877   7.411   9.904  0.8017  0.4173  0.3923
  337MOL0     C45381   4.919   7.384  10.049 -0.5345 -0.2344  0.2367
  337MOL0     C45382   4.824   7.290  10.122 -0.1282  1.2124 -0.0061
  337MOL0     C45383   4.683   7.351  10.143 -0.9834  0.1799  0.2659
  337MOL0     O45384   4.602   7.257  10.213  0.1491 -0.6027  0.1257
  337MOL0     C45385   4.470   7.295  10.217  0.3859 -0.1224  1.0305
  337MOL0     C45386   4.375   7.193  10.187  0.9244  0.4577 -0.3169
  337MOL0     C45387   4.235   7.207  10.192 -0.1138 -0.4957  0.7344
  337MOL0     C45388   4.152   7.085  10.155 -1.2459 -0.4348 -0.6327
  337MOL0     C45389   4.186   7.332  10.231  0.3020  0.1290  0.9456
  337MOL0     C45390   4.043   7.367  10.226  0.0907 -0.6370 -0.1721
  337MOL0     O45391   3.946   7.273  10.223  0.4574 -0.4653 -1.1514
  337MOL0     C45392   3.814   7.301  10.211 -0.2716  0.2886 -0.2340
  337MOL0     C45393   3.720   7.203  10.258  0.0807 -0.4491  0.8398
  337MOL0     C45394   3.578   7.226  10.237 -0.8241 -0.6838 -0.7758
  337MOL0     C45395   3.534   7.344  10.179  0.0607 -0.5205 -0.1094
  337MOL0     O45396   3.404   7.367  10.148  0.7107 -0.0390 -0.0491
  337MOL0     C45397   3.312   7.261  10.134  0.4789  0.5814  1.3097
  337MOL0     C45398   3.183   7.318  10.072 -0.1381 -0.9745 -0.7682
  337MOL0     C45399   3.077   7.324  10.185  0.6878  0.4099 -0.5458
  337MOL0     C45400   2.933   7.377  10.135  1.0046 -0.2321 -0.7990
  337MOL0     C45401   2.817   7.310  10.220 -0.6083 -0.5182  0.3195
  337MOL0     C45402   2.829   7.368  10.360  0.0817  0.1860 -0.4118
  337MOL0     C45403   2.700   7.362  10.433 -0.3790  0.3717  0.9475
  337MOL0     C45404   2.719   7.424  10.568  0.0465 -0.6457 -0.0757
  337MOL0    Cl45405   2.751   7.595  10.562  0.2646 -0.2679  0.4052
  337MOL0     C45406   3.628   7.433  10.124 -0.0357 -0.5503 -0.9877
  337MOL0     C45407   3.768   7.401  10.144  0.0585 -1.1087  0.6598
  337MOL0     O45408   4.021   7.484  10.221  0.3220  0.6608  0.0818
  337MOL0     C45409   4.276   7.439  10.271 -1.2317 -0.1325  0.3535
  337MOL0     C45410   4.423   7.416  10.261  0.5167 -0.2698  0.3403
  337MOL0     N45411   4.973   7.596   9.762 -0.0172  0.3131  0.4563
  337MOL0     N45412   5.078   7.621   9.689  0.3716 -0.3704  0.0340
  337MOL0     C45413   5.867   7.636  10.070 -0.2256 -0.9756  0.1049
  337MOL0     C45414   5.832   7.659  10.201 -0.5504  0.4502 -1.5457
  337MOL0     C45415   5.769   7.660  10.656 -0.5677 -0.0214 -0.7762
  337MOL0     C45416   5.884   7.675  10.734  0.3349  0.1830  0.2658
  337MOL0     C45417   5.870   7.676  10.873  0.3246 -0.1614  0.3788
  337MOL0     C45418   5.744   7.684  10.932 -0.6046 -1.6165 -0.2705
  337MOL0     O45419   5.754   7.689  11.065  0.2647  0.1463  0.3818
  337MOL0     C45420   5.635   7.667  11.146 -0.4551  1.2009  0.2023
  337MOL0     C45421   5.561   7.800  11.154 -0.2387 -0.1662  0.1752
  337MOL0     C45422   5.454   7.784  11.260 -0.5275 -0.0327  0.0211
  337MOL0     C45423   5.404   7.921  11.300  0.1541 -0.1459 -0.1642
  337MOL0     C45424   5.280   7.921  11.369  0.0947 -0.4355 -0.1352
  337MOL0     C45425   5.175   7.906  11.433 -0.0374 -0.3447 -0.7090
  337MOL0     C45426   5.633   7.664  10.860 -0.7587  0.1133  0.7607
  337MOL0     C45427   5.652   7.659  10.722 -0.1136  0.1749  0.3742
  337MOL0     H45428   6.090   7.482  10.347  0.9393  1.0223 -0.2749
  337MOL0     H45429   6.138   7.425  10.133 -0.3713 -1.5802  0.4320
  337MOL0     H45430   5.978   7.724   9.829 -2.1618  0.6585 -4.4654
  337MOL0     H45431   6.099   7.643   9.730 -0.5677  1.3600  0.2075
  337MOL0     H45432   5.924   7.483   9.678  0.0462  1.4107 -2.4216
  337MOL0     H45433   5.805   7.549   9.803 -0.2452 -1.9990  0.4328
  337MOL0     H45434   5.812   7.763   9.685  3.4469  0.3110  2.5846
  337MOL0     H45435   5.925   7.707   9.566 -0.7772 -0.6105 -0.9149
  337MOL0     H45436   5.714   7.686   9.452  3.0646 -3.7859 -2.7278
  337MOL0     H45437   5.749   7.523   9.501 -0.6018 -0.4277  1.0028
  337MOL0     H45438   5.596   7.701   9.697 -1.6536  1.0273 -1.6510
  337MOL0     H45439   5.504   7.653   9.557 -0.6157 -1.3331 -0.1801
  337MOL0     H45440   5.549   7.416   9.600  1.0338  0.6699 -0.5424
  337MOL0     H45441   5.618   7.458   9.753 -1.7247 -0.2497  1.8180
  337MOL0     H45442   5.385   7.414   9.794  0.5122  0.3339  2.0685
  337MOL0     H45443   5.400   7.578   9.829 -0.3392 -1.3691  0.7335
  337MOL0     H45444   5.309   7.465   9.546  0.2108 -0.4514  0.7346
  337MOL0     H45445   5.308   7.634   9.601  1.0924  0.9249  3.5375
  337MOL0     H45446   5.162   7.329   9.789 -1.7174 -1.4049  0.4298
  337MOL0     H45447   4.797   7.485   9.890 -0.9589 -1.2912  0.8808
  337MOL0     H45448   4.835   7.320   9.858 -1.6270  2.1872 -1.1346
  337MOL0     H45449   4.915   7.481  10.099  0.2476  1.2376 -2.3447
  337MOL0     H45450   5.026   7.361  10.042 -0.3740  0.3840  0.5395
  337MOL0     H45451   4.864   7.281  10.223 -1.0148 -0.0959  0.2639
  337MOL0     H45452   4.816   7.186  10.086  1.6161  0.4442  1.6681
  337MOL0     H45453   4.645   7.365  10.042  1.7589 -0.8557 -1.0109
  337MOL0     H45454   4.687   7.448  10.193  1.1376  0.6775 -0.7474
  337MOL0     H45455   4.414   7.094  10.164 -0.5882  0.2330 -2.1541
  337MOL0     H45456   4.114   7.034  10.244 -0.4520 -3.2016 -1.7949
  337MOL0     H45457   4.068   7.117  10.093 -1.7640  1.8781  1.1270
  337MOL0     H45458   4.213   7.017  10.095  0.9719 -0.0285  1.0122
  337MOL0     H45459   3.751   7.108  10.300  3.0260  0.1211  0.1859
  337MOL0     H45460   3.505   7.151  10.266 -0.7938 -1.4311 -2.4856
  337MOL0     H45461   3.354   7.184  10.069 -0.9378  0.9004 -0.0614
  337MOL0     H45462   3.284   7.212  10.228 -1.5439 -0.2689  0.3228
  337MOL0     H45463   3.191   7.410  10.014 -0.0369 -0.2074  0.4138
  337MOL0     H45464   3.143   7.244  10.002  0.5731 -1.9825 -0.1396
  337MOL0     H45465   3.101   7.384  10.273  2.4291 -3.8047  2.0925
  337MOL0     H45466   3.071   7.221  10.219  1.5089 -0.1283 -1.9571
  337MOL0     H45467   2.925   7.486  10.132 -0.2927 -0.1491  2.0693
  337MOL0     H45468   2.920   7.337  10.034 -2.8771 -0.9688 -0.1788
  337MOL0     H45469   2.809   7.201  10.214 -3.9259 -0.3096 -0.6905
  337MOL0     H45470   2.718   7.340  10.186 -1.4268 -1.4292  1.7981
  337MOL0     H45471   2.900   7.314  10.422 -0.4829 -1.5638 -1.2234
  337MOL0     H45472   2.865   7.472  10.359  1.6607 -0.1457  3.6526
  337MOL0     H45473   2.685   7.255  10.453  3.2656 -0.0988  1.8233
  337MOL0     H45474   2.620   7.402  10.370  0.6563  0.5038 -0.3177
  337MOL0     H45475   2.806   7.383  10.619 -0.1455  1.0382  1.7260
  337MOL0     H45476   2.628   7.404  10.626 -0.7378 -2.8779 -1.8880
  337MOL0     H45477   3.602   7.523  10.069  4.1408  0.0476 -2.3560
  337MOL0     H45478   3.834   7.470  10.092 -0.6165  0.2679  1.5563
  337MOL0     H45479   4.244   7.533  10.313 -1.4146 -0.6772  1.4577
  337MOL0     H45480   4.487   7.499  10.287  0.4413  0.2463 -1.0170
  337MOL0     H45481   5.809   7.684   9.992  0.3732  0.4566  0.5068
  337MOL0     H45482   5.742   7.718  10.214 -2.1350 -2.0117 -0.7423
  337MOL0     H45483   5.984   7.691  10.694  0.2721  1.1009  0.4485
  337MOL0     H45484   5.958   7.686  10.935 -0.3404 -3.3103  2.0098
  337MOL0     H45485   5.569   7.588  11.107 -1.5307  1.0269  2.2395
  337MOL0     H45486   5.654   7.632  11.248 -2.1153  3.8382  1.5368
  337MOL0     H45487   5.520   7.842  11.061  1.8477  1.3884 -0.1287
  337MOL0     H45488   5.621   7.880  11.198 -2.8840  3.1740 -1.7858
  337MOL0     H45489   5.495   7.735  11.349  1.7413 -0.6258 -1.2590
  337MOL0     H45490   5.371   7.723  11.224 -1.1781 -0.1347  1.5929
  337MOL0     H45491   5.382   7.993  11.220  0.0835  3.2625  2.6970
  337MOL0     H45492   5.483   7.957  11.367  0.1826  1.6803 -1.1086
  337MOL0     H45493   5.083   7.888  11.486 -0.1588 -1.3269 -1.2290
  337MOL0     H45494   5.533   7.651  10.899 -1.5016  2.2170 -0.2594
  337MOL0     H45495   5.561   7.639  10.667  0.0400 -0.7346  0.4293
  338MOL0     O45496   9.597   2.971  10.503  0.2367  0.9461 -0.3990
  338MOL0     C45497   9.683   3.054  10.500  0.8886 -0.0352 -0.2457
  338MOL0     O45498   9.705   3.138  10.399  0.0448 -0.4989  0.1604
  338MOL0     C45499   9.603   3.182  10.315 -0.5519  0.0687  0.6204
  338MOL0     C45500   9.632   3.235  10.190  0.1849  0.6864  0.7857
  338MOL0     C45501   9.541   3.298  10.110 -0.3008  0.0873  0.9862
  338MOL0     C45502   9.404   3.310  10.141 -1.0468 -0.4807 -0.1262
  338MOL0     O45503   9.316   3.351  10.044  0.2284 -0.5654  0.2966
  338MOL0     C45504   9.192   3.399  10.096 -0.0486  0.0954 -0.2918
  338MOL0     C45505   9.142   3.519  10.019  0.0236 -0.3026 -0.3629
  338MOL0     C45506   9.008   3.568  10.071  0.3638 -0.6148  0.0085
  338MOL0     C45507   8.894   3.513   9.967 -0.3477  0.1826 -0.7149
  338MOL0     C45508   8.860   3.615   9.867  0.1749 -0.4812 -0.1817
  338MOL0     C45509   8.758   3.726   9.911  0.2032 -0.1613  0.1043
  338MOL0     C45510   8.612   3.662   9.948  0.3226 -0.5880  0.3629
  338MOL0     C45511   8.519   3.779   9.973  0.1335 -0.6368 -0.1762
  338MOL0     N45512   8.469   3.837   9.843  0.7986  0.4154  0.0541
  338MOL0     C45513   8.375   3.773   9.772 -0.2192  0.3231  0.6829
  338MOL0     C45514   8.332   3.860   9.671 -0.2164  0.0752 -0.2663
  338MOL0     C45515   8.233   3.839   9.551 -0.8149 -1.2765  0.0028
  338MOL0     C45516   8.091   3.885   9.573 -0.2576  0.7482 -0.1163
  338MOL0     C45517   8.011   3.769   9.635 -0.2443 -0.4871  1.6889
  338MOL0     C45518   7.879   3.826   9.684  0.1587 -0.1828 -0.1325
  338MOL0     O45519   7.807   3.885   9.580  0.1159 -0.1534 -0.0992
  338MOL0     C45520   7.667   3.898   9.577 -0.6812  0.0216  0.3904
  338MOL0     C45521   7.612   3.935   9.453  0.4653 -0.4441 -0.1126
  338MOL0     C45522   7.477   3.962   9.434  0.4477  0.4775  1.0944
  338MOL0     C45523   7.440   4.013   9.297 -0.6062 -0.9725  0.5760
  338MOL0     C45524   7.388   3.930   9.540 -0.2031 -0.2699  0.0532
  338MOL0     C45525   7.242   3.942   9.529  0.3160  0.0399  0.5322
  338MOL0     O45526   7.191   3.974   9.407  0.6113 -0.0963  0.6078
  338MOL0     C45527   7.058   4.000   9.406 -0.3409  0.2443 -0.0558
  338MOL0     C45528   6.975   3.896   9.361  0.5453 -0.0231 -0.4274
  338MOL0     C45529   6.827   3.910   9.367 -0.0951  1.5598 -0.5138
  338MOL0     C45530   6.768   4.023   9.406  0.0664 -0.3381 -0.3587
  338MOL0     O45531   6.635   4.050   9.405  0.4100  0.7629 -0.0607
  338MOL0     C45532   6.558   3.957   9.337  0.2990 -0.2591  0.7294
  338MOL0     C45533   6.419   4.018   9.303  0.0395  0.7554  0.1625
  338MOL0     C45534   6.324   3.891   9.284 -0.5313 -0.9524 -0.1979
  338MOL0     C45535   6.180   3.918   9.320 -0.5233  0.0192  0.3141
  338MOL0     C45536   6.096   3.793   9.365 -0.1157 -1.2341  0.0566
  338MOL0     C45537   5.952   3.815   9.399  0.7814  0.8500 -0.7909
  338MOL0     C45538   5.870   3.906   9.298 -0.3573  0.1685 -1.4673
  338MOL0     C45539   5.721   3.936   9.332  0.1583  0.8712 -0.2789
  338MOL0    Cl45540   5.705   4.051   9.469  0.5629  0.2465 -0.5705
  338MOL0     C45541   6.856   4.132   9.437 -0.0229  0.8669 -0.3497
  338MOL0     C45542   6.992   4.124   9.432 -0.3845 -0.1557  0.4504
  338MOL0     O45543   7.179   3.949   9.630  0.2972  0.4605  0.6283
  338MOL0     C45544   7.447   3.900   9.668  0.1386 -0.3163 -0.0201
  338MOL0     C45545   7.586   3.898   9.691  0.1742  0.2874 -0.2023
  338MOL0     N45546   8.408   3.974   9.685 -0.3301  0.5096  0.2987
  338MOL0     N45547   8.490   3.964   9.785  0.8415 -0.7210 -0.3247
  338MOL0     C45548   9.363   3.255  10.269  0.1747  0.0313  0.3797
  338MOL0     C45549   9.465   3.200  10.357  0.6201  0.4554  0.1977
  338MOL0     C45550   9.769   3.070  10.618 -0.3806  1.0930  0.4413
  338MOL0     C45551   9.739   3.020  10.738 -0.7805  0.2817  0.1527
  338MOL0     C45552   9.828   3.029  10.843  0.7273 -0.1839  0.6482
  338MOL0     C45553   9.952   3.096  10.831  0.0990 -0.4981  0.5216
  338MOL0     O45554  10.038   3.111  10.939  0.2082  0.3010  0.0882
  338MOL0     C45555  10.142   3.208  10.932  0.0192  0.4559 -0.4558
  338MOL0     C45556  10.179   3.236  11.082 -0.2513 -0.2477 -0.1453
  338MOL0     C45557  10.299   3.334  11.085 -0.1919  0.2852 -0.3689
  338MOL0     C45558  10.315   3.395  11.225 -0.6333  0.7999  0.9027
  338MOL0     C45559  10.378   3.309  11.321 -1.5542 -0.0565  0.2415
  338MOL0     C45560  10.442   3.233  11.388  0.2071  0.7201 -0.0155
  338MOL0     C45561   9.985   3.148  10.702  1.1132  0.2902  0.5762
  338MOL0     C45562   9.894   3.135  10.594 -0.3395  0.1990  0.2601
  338MOL0     H45563   9.730   3.221  10.143  0.3222  0.3280  1.1762
  338MOL0     H45564   9.562   3.336  10.010 -0.7346  0.2426  0.9543
  338MOL0     H45565   9.114   3.323  10.091 -1.2921  1.3679 -1.0934
  338MOL0     H45566   9.202   3.434  10.199  0.9651 -1.7349  0.2844
  338MOL0     H45567   9.217   3.597  10.036  0.1995 -0.7606  1.1346
  338MOL0     H45568   9.139   3.508   9.910 -1.3768  3.8918 -0.9389
  338MOL0     H45569   8.983   3.529  10.171 -2.1174 -1.6491 -0.9555
  338MOL0     H45570   9.006   3.676  10.088  0.5750 -0.5638 -0.2765
  338MOL0     H45571   8.921   3.419   9.918 -3.6583 -1.3073  0.0185
  338MOL0     H45572   8.803   3.501  10.026 -0.3970 -0.2137 -0.8689
  338MOL0     H45573   8.955   3.657   9.830  1.3960  1.9517  4.7894
  338MOL0     H45574   8.803   3.563   9.790 -2.7042  1.2220  0.6387
  338MOL0     H45575   8.794   3.790   9.992  0.3215 -1.1526  0.8534
  338MOL0     H45576   8.748   3.783   9.818 -0.0180  0.3012  0.4100
  338MOL0     H45577   8.568   3.598   9.871  0.6295  0.3982 -0.6483
  338MOL0     H45578   8.626   3.605  10.041  2.7386 -0.6905  0.0021
  338MOL0     H45579   8.559   3.855  10.040 -0.9318 -0.3016  0.1054
  338MOL0     H45580   8.430   3.736  10.021  0.1558 -1.2964 -0.7061
  338MOL0     H45581   8.339   3.674   9.798 -0.2538  0.3480  0.7303
  338MOL0     H45582   8.269   3.890   9.461 -0.9679  0.7728  1.0440
  338MOL0     H45583   8.229   3.735   9.517 -4.5602 -1.3494  0.2676
  338MOL0     H45584   8.050   3.911   9.475  2.0642  2.2979 -0.7369
  338MOL0     H45585   8.092   3.975   9.635  1.2755  1.0719 -0.5858
  338MOL0     H45586   8.058   3.718   9.719  3.7031 -0.4597 -0.3042
  338MOL0     H45587   8.006   3.699   9.551  0.9180  0.3881  0.8526
  338MOL0     H45588   7.901   3.908   9.754  2.7087 -1.2857  0.4464
  338MOL0     H45589   7.820   3.746   9.730 -0.2363  1.1635  1.8847
  338MOL0     H45590   7.688   3.941   9.376  1.6900 -0.2987  1.0600
  338MOL0     H45591   7.382   4.105   9.302  0.8310 -0.0375  0.9628
  338MOL0     H45592   7.536   4.022   9.245  1.1659 -3.8188  2.9820
  338MOL0     H45593   7.389   3.935   9.240 -3.1857  1.2853 -0.3949
  338MOL0     H45594   7.019   3.803   9.328 -0.2403 -0.1545 -1.1315
  338MOL0     H45595   6.769   3.825   9.333  1.5888 -0.1216  0.5838
  338MOL0     H45596   6.605   3.931   9.242 -0.6523  1.2282 -0.1838
  338MOL0     H45597   6.553   3.872   9.406  0.4617  0.2263  1.3508
  338MOL0     H45598   6.381   4.079   9.385 -1.8965  1.1686 -1.0046
  338MOL0     H45599   6.420   4.085   9.217  1.5549  0.0380 -0.4254
  338MOL0     H45600   6.351   3.816   9.358 -2.1074 -2.3270 -0.9529
  338MOL0     H45601   6.341   3.840   9.189  0.1762  2.1516 -1.8746
  338MOL0     H45602   6.185   3.993   9.400  1.2232 -0.9885  1.2071
  338MOL0     H45603   6.143   3.971   9.231  1.5555 -0.2574 -0.7695
  338MOL0     H45604   6.144   3.736   9.444  0.5092 -0.7544  0.0310
  338MOL0     H45605   6.102   3.734   9.273 -0.6742  0.1311 -0.9059
  338MOL0     H45606   5.896   3.720   9.407 -0.7255  1.6555 -1.3081
  338MOL0     H45607   5.945   3.845   9.504 -1.4971 -0.6458 -0.4258
  338MOL0     H45608   5.870   3.858   9.200  1.1686  0.4792 -1.6402
  338MOL0     H45609   5.934   3.994   9.287  1.8024 -1.0390  0.5862
  338MOL0     H45610   5.671   3.839   9.339  1.0542  0.4470  0.4244
  338MOL0     H45611   5.675   3.990   9.249 -1.2063  0.4627  0.1765
  338MOL0     H45612   6.816   4.229   9.467 -0.4716  0.8441 -0.8597
  338MOL0     H45613   7.062   4.205   9.447 -1.9192  1.2618  0.2387
  338MOL0     H45614   7.387   3.906   9.759  0.0713  3.3915 -0.1262
  338MOL0     H45615   7.614   3.886   9.795  0.1270 -1.7335 -0.3839
  338MOL0     H45616   9.256   3.262  10.287  0.0725  1.7153 -0.7320
  338MOL0     H45617   9.432   3.189  10.459 -2.0950  0.5865 -0.5967
  338MOL0     H45618   9.644   2.968  10.749 -2.1535  2.4348 -0.7327
  338MOL0     H45619   9.773   3.013  10.936 -2.0720 -1.7807 -1.1088
  338MOL0     H45620  10.231   3.177  10.877  1.1222  0.2802  1.3492
  338MOL0     H45621  10.102   3.300  10.888 -3.4704  0.5841  2.4597
  338MOL0     H45622  10.201   3.141  11.131  0.0861 -0.8418 -1.4176
  338MOL0     H45623  10.091   3.288  11.122  0.4321  1.9245 -1.3147
  338MOL0     H45624  10.274   3.417  11.018  0.2013  0.4501 -0.3117
  338MOL0     H45625  10.392   3.283  11.063 -1.1712 -1.9637  0.3833
  338MOL0     H45626  10.220   3.436  11.260 -1.4157  1.3214 -1.6120
  338MOL0     H45627  10.382   3.482  11.223 -0.9419  1.0311  0.6100
  338MOL0     H45628  10.495   3.155  11.439 -1.7825 -0.9660 -0.4027
  338MOL0     H45629  10.068   3.211  10.672 -0.5588  2.0416 -0.6227
  338MOL0     H45630   9.919   3.165  10.493 -1.2162 -0.7683 -0.2656
  339MOL0     O45631   8.387   9.533   8.400  0.2633 -0.8445  0.5340
  339MOL0     C45632   8.501   9.568   8.415  0.1524  0.5785 -0.3573
  339MOL0     O45633   8.550   9.690   8.423  0.1566  0.2046 -0.4165
  339MOL0     C45634   8.484   9.804   8.423 -0.0565 -0.3534  0.4629
  339MOL0     C45635   8.346   9.816   8.417  0.4280 -0.1938 -0.3743
  339MOL0     C45636   8.284   9.944   8.411 -0.5555 -0.7568  0.1822
  339MOL0     C45637   8.362  10.064   8.416  0.8391 -0.3453 -0.1579
  339MOL0     O45638   8.307  10.187   8.414  0.1469  0.2051 -0.0779
  339MOL0     C45639   8.163  10.203   8.379 -1.2614  0.5088 -0.4210
  339MOL0     C45640   8.123  10.322   8.300  0.7990 -1.0273  0.2547
  339MOL0     C45641   7.964  10.349   8.299 -0.1016 -0.0822  0.6426
  339MOL0     C45642   7.907  10.424   8.425 -0.9792  0.2318 -0.2889
  339MOL0     C45643   7.768  10.487   8.393  0.0113  0.0985  0.1106
  339MOL0     C45644   7.728  10.595   8.495 -0.5088  0.2011 -0.5444
  339MOL0     C45645   7.582  10.635   8.485  0.1216  0.0702 -0.8849
  339MOL0     C45646   7.552  10.742   8.376  1.2789 -0.4732 -0.6675
  339MOL0     N45647   7.409  10.778   8.368  0.3200 -0.4837 -0.7833
  339MOL0     C45648   7.313  10.691   8.412  0.3386  0.3174  0.0555
  339MOL0     C45649   7.202  10.752   8.364 -1.4187 -0.2525 -0.1885
  339MOL0     C45650   7.069  10.714   8.417  0.1296 -0.5231 -0.2775
  339MOL0     C45651   7.014  10.587   8.359  0.2833 -0.4336  0.5831
  339MOL0     C45652   6.859  10.567   8.387  0.6026  1.0112 -0.8489
  339MOL0     C45653   6.784  10.665   8.290  0.2098 -0.1727 -0.5337
  339MOL0     O45654   6.641  10.645   8.307 -0.1121 -0.1592 -0.0982
  339MOL0     C45655   6.562  10.707   8.396 -0.0130  0.0008 -0.5856
  339MOL0     C45656   6.621  10.795   8.493  0.2196 -0.1208  0.5540
  339MOL0     C45657   6.543  10.866   8.585 -0.3650  0.2246 -0.8307
  339MOL0     C45658   6.615  10.959   8.674  0.6334  0.4960  0.1629
  339MOL0     C45659   6.401  10.845   8.589  0.2636  0.1874  0.3481
  339MOL0     C45660   6.308  10.903   8.677 -0.4695 -0.4162  0.1450
  339MOL0     O45661   6.176  10.858   8.669 -0.2513 -0.4960 -0.0440
  339MOL0     C45662   6.083  10.874   8.765 -0.0181 -0.2209 -0.2712
  339MOL0     C45663   5.971  10.787   8.760 -0.6942  0.0652  0.6061
  339MOL0     C45664   5.860  10.807   8.843 -0.0138 -0.1298 -0.0848
  339MOL0     C45665   5.855  10.919   8.924 -0.1061  0.3494 -0.2298
  339MOL0     O45666   5.739  10.963   8.989  0.4248  0.0209 -0.0542
  339MOL0     C45667   5.645  10.865   9.050  0.6011  0.7506 -0.2161
  339MOL0     C45668   5.523  10.937   9.100 -0.8088  0.3401 -0.4850
  339MOL0     C45669   5.420  10.847   9.160 -0.8489 -0.2923  0.4988
  339MOL0     C45670   5.361  10.746   9.070  0.0400  0.3625  0.0089
  339MOL0     C45671   5.244  10.667   9.139 -0.4879 -0.2625 -0.4828
  339MOL0     C45672   5.115  10.743   9.122  0.1091 -0.0204 -1.2538
  339MOL0     C45673   4.996  10.666   9.191  0.2827  0.5700 -0.2230
  339MOL0     C45674   4.863  10.740   9.147  0.0093  0.0195 -0.3964
  339MOL0    Cl45675   4.727  10.618   9.166  0.3124  0.5157  0.3152
  339MOL0     C45676   5.961  11.008   8.938  0.1341  0.9256 -1.3121
  339MOL0     C45677   6.078  10.982   8.859  0.1014  0.2461 -0.2559
  339MOL0     O45678   6.343  10.997   8.749 -0.0295 -0.6001  0.0212
  339MOL0     C45679   6.353  10.761   8.490  0.3850  0.1247  0.2870
  339MOL0     C45680   6.429  10.695   8.396 -0.4568  0.5475 -0.3178
  339MOL0     N45681   7.233  10.870   8.304 -0.1955 -0.4226 -0.2929
  339MOL0     N45682   7.358  10.886   8.310  0.1201 -0.2970  0.5384
  339MOL0     C45683   8.498  10.048   8.412 -0.6520 -0.6791 -0.2943
  339MOL0     C45684   8.557   9.922   8.425 -0.2035  0.4506 -0.3252
  339MOL0     C45685   8.615   9.462   8.394 -0.1947 -0.0950 -0.1582
  339MOL0     C45686   8.589   9.334   8.352  0.2217 -0.6801 -0.1874
  339MOL0     C45687   8.686   9.238   8.335  0.2044 -0.4597 -1.0635
  339MOL0     C45688   8.819   9.271   8.365  0.6851 -0.3760 -0.3972
  339MOL0     O45689   8.899   9.165   8.366 -0.3768  0.3308  0.2561
  339MOL0     C45690   9.038   9.191   8.332 -0.5065  0.1365 -0.2222
  339MOL0     C45691   9.112   9.068   8.265 -0.0334  0.1496 -0.1816
  339MOL0     C45692   9.062   9.044   8.125 -0.0317  0.3983 -1.0986
  339MOL0     C45693   8.922   8.979   8.114  0.1366 -0.1245  0.2113
  339MOL0     C45694   8.900   8.850   8.173 -0.4506  0.0160 -0.8951
  339MOL0     C45695   8.872   8.749   8.226  0.4053 -0.6131  0.2618
  339MOL0     C45696   8.848   9.401   8.415  0.5274 -0.5857 -1.1730
  339MOL0     C45697   8.750   9.497   8.426  0.8753 -0.2547 -0.8261
  339MOL0     H45698   8.279   9.731   8.410  1.5165 -1.1222  0.2014
  339MOL0     H45699   8.177   9.952   8.394 -0.5388  0.8600  0.6015
  339MOL0     H45700   8.140  10.127   8.304  0.4388 -1.9441  1.4201
  339MOL0     H45701   8.093  10.185   8.461 -1.7505  0.0115 -0.9358
  339MOL0     H45702   8.182  10.408   8.332 -1.2121  1.3276 -1.9715
  339MOL0     H45703   8.156  10.289   8.201  0.9183 -0.9137  0.2562
  339MOL0     H45704   7.937  10.404   8.208 -0.9648 -0.2939  0.7594
  339MOL0     H45705   7.914  10.252   8.290  0.2531 -0.3313  1.2833
  339MOL0     H45706   7.910  10.365   8.517 -1.8118 -1.3838 -1.2619
  339MOL0     H45707   7.979  10.503   8.449  0.4684 -1.2286  0.3905
  339MOL0     H45708   7.763  10.535   8.295 -1.6098  0.9048  0.5514
  339MOL0     H45709   7.691  10.410   8.394 -0.8456  0.9476  0.6120
  339MOL0     H45710   7.734  10.563   8.599 -3.9578  1.0755  0.0683
  339MOL0     H45711   7.796  10.679   8.479  1.2866 -1.4311 -2.0773
  339MOL0     H45712   7.524  10.546   8.459 -1.5237  1.3064 -1.6430
  339MOL0     H45713   7.549  10.655   8.587 -5.3006 -2.7138 -1.7170
  339MOL0     H45714   7.580  10.692   8.283 -0.4960  1.2231 -2.2232
  339MOL0     H45715   7.605  10.838   8.384  1.0398 -0.3370 -0.6889
  339MOL0     H45716   7.314  10.610   8.484  1.0790  2.7358  2.9962
  339MOL0     H45717   7.081  10.707   8.526 -1.1335  0.5508 -0.0477
  339MOL0     H45718   7.005  10.800   8.396  1.6326  0.4922 -0.8707
  339MOL0     H45719   7.061  10.502   8.409 -0.0269 -0.3147  1.0807
  339MOL0     H45720   7.038  10.586   8.252  1.2089  0.8935  0.7483
  339MOL0     H45721   6.840  10.594   8.491  2.5774 -0.2135 -0.1055
  339MOL0     H45722   6.823  10.467   8.363  0.1878  1.2731 -1.3448
  339MOL0     H45723   6.823  10.636   8.192  2.5051 -1.3743  0.6646
  339MOL0     H45724   6.801  10.773   8.297  0.2490 -0.2214  0.2585
  339MOL0     H45725   6.724  10.827   8.480  0.3147 -1.3269 -2.4079
  339MOL0     H45726   6.722  10.971   8.655  0.7219  2.6540  1.6664
  339MOL0     H45727   6.568  11.056   8.659 -0.1351 -0.0723 -1.2056
  339MOL0     H45728   6.598  10.945   8.782  1.5520  2.6856  0.6427
  339MOL0     H45729   5.971  10.719   8.675 -0.4762  0.1685  0.5187
  339MOL0     H45730   5.778  10.736   8.833  1.9920 -2.6114  0.1187
  339MOL0     H45731   5.617  10.783   8.982 -0.5074  1.8540 -1.1302
  339MOL0     H45732   5.703  10.825   9.133  1.0142  3.1496  0.7153
  339MOL0     H45733   5.548  11.012   9.175 -1.2415  0.0958 -0.0902
  339MOL0     H45734   5.492  10.989   9.009 -4.2990 -0.6746 -0.0259
  339MOL0     H45735   5.342  10.917   9.192 -3.6598 -1.8651 -2.2763
  339MOL0     H45736   5.459  10.798   9.249 -1.3274  1.0584  1.4790
  339MOL0     H45737   5.326  10.776   8.971 -2.1801 -3.5469 -0.6173
  339MOL0     H45738   5.434  10.665   9.061 -0.7174 -0.3577  0.2048
  339MOL0     H45739   5.262  10.655   9.247  1.1553  1.7588 -0.4669
  339MOL0     H45740   5.234  10.570   9.089 -0.0964  1.8769 -5.2435
  339MOL0     H45741   5.117  10.848   9.153  0.0927  0.0262 -1.4119
  339MOL0     H45742   5.087  10.736   9.017 -0.3476  0.3988 -1.1654
  339MOL0     H45743   5.018  10.660   9.298 -1.5670 -0.3034  0.1486
  339MOL0     H45744   4.991  10.563   9.155  2.0366 -0.0965  1.2594
  339MOL0     H45745   4.863  10.764   9.040  0.8763 -0.9543 -0.6320
  339MOL0     H45746   4.837  10.824   9.212 -3.1343  2.0545 -3.8927
  339MOL0     H45747   5.953  11.093   9.005 -0.5158  2.4585 -3.2422
  339MOL0     H45748   6.164  11.046   8.877  1.8684 -2.6400  2.8664
  339MOL0     H45749   6.249  10.730   8.482  0.7729 -1.1948  0.0310
  339MOL0     H45750   6.390  10.617   8.333 -0.0157 -1.0417  1.2914
  339MOL0     H45751   8.563  10.135   8.400 -0.1665 -1.0833 -0.6423
  339MOL0     H45752   8.664   9.905   8.438 -0.5439  0.1193  3.2246
  339MOL0     H45753   8.485   9.312   8.329 -0.2942 -0.2137  1.5404
  339MOL0     H45754   8.654   9.139   8.304 -0.0807 -1.0461  0.9971
  339MOL0     H45755   9.049   9.281   8.271 -4.3356  1.3948  0.7175
  339MOL0     H45756   9.087   9.212   8.428 -1.1855 -1.5412  0.5290
  339MOL0     H45757   9.087   8.981   8.327  1.1453 -1.3475 -1.7132
  339MOL0     H45758   9.220   9.082   8.265  0.6014 -3.5899  0.7787
  339MOL0     H45759   9.138   8.979   8.082 -0.2390  0.8504 -2.1652
  339MOL0     H45760   9.068   9.134   8.063 -0.9191  0.1558 -1.5611
  339MOL0     H45761   8.911   8.967   8.006  2.8055  0.1337 -0.1607
  339MOL0     H45762   8.839   9.044   8.144 -0.4875 -1.6612  2.0223
  339MOL0     H45763   8.858   8.652   8.270  3.0484 -0.6962  1.1172
  339MOL0     H45764   8.945   9.422   8.458  0.3532 -0.1616 -0.9809
  339MOL0     H45765   8.775   9.599   8.454  0.1169 -0.4113  0.4993
  340MOL0     O45766   2.575   1.024   2.619 -0.2936 -0.6187 -0.4899
  340MOL0     C45767   2.647   0.990   2.523  0.5299  0.4432 -0.2456
  340MOL0     O45768   2.610   0.968   2.391 -0.8023 -0.2035 -1.0745
  340MOL0     C45769   2.479   1.005   2.363 -0.1241 -0.1324 -0.0479
  340MOL0     C45770   2.435   1.123   2.304  0.0559  0.3982  0.7695
  340MOL0     C45771   2.301   1.155   2.271 -0.8104  0.4258  0.8011
  340MOL0     C45772   2.205   1.056   2.304  0.0840  0.1949  0.5162
  340MOL0     O45773   2.073   1.074   2.255 -0.3704  0.1709  0.0272
  340MOL0     C45774   1.966   0.975   2.269  0.4970  0.2217  0.6566
  340MOL0     C45775   1.835   1.044   2.246  0.0716 -1.0135  0.1607
  340MOL0     C45776   1.801   1.035   2.095  0.2634  1.0061  0.4817
  340MOL0     C45777   1.678   1.122   2.049 -0.1839 -0.4719  0.2478
  340MOL0     C45778   1.541   1.069   2.092  0.0074 -0.0663  0.6645
  340MOL0     C45779   1.428   1.161   2.036  0.5956  0.3984 -0.5444
  340MOL0     C45780   1.293   1.083   2.038  0.2551  0.3729  0.5126
  340MOL0     C45781   1.180   1.139   1.954  0.5668  0.7778 -0.2043
  340MOL0     N45782   1.056   1.059   1.971  0.8792  0.1207 -0.6822
  340MOL0     C45783   0.971   1.073   2.077  0.5958 -0.1364  0.4497
  340MOL0     C45784   0.859   0.999   2.041  0.4177 -0.3628  0.1085
  340MOL0     C45785   0.733   0.993   2.123 -0.6997 -0.8197  0.2403
  340MOL0     C45786   0.730   0.870   2.207  0.2608  0.3545  0.7309
  340MOL0     C45787   0.604   0.832   2.283  0.8340  0.0253 -0.1034
  340MOL0     C45788   0.537   0.716   2.227  0.1897 -0.0098  0.0616
  340MOL0     O45789   0.401   0.715   2.274 -0.3219 -0.4671  0.2256
  340MOL0     C45790   0.332   0.593   2.258 -0.7291 -0.1912 -0.1970
  340MOL0     C45791   0.198   0.601   2.270  0.2028  0.5936 -0.3200
  340MOL0     C45792   0.118   0.486   2.270  0.1344 -0.5167 -0.2274
  340MOL0     C45793  -0.024   0.512   2.302  0.6165  0.1027  0.8154
  340MOL0     C45794   0.178   0.364   2.248  0.3627  0.1008  0.9295
  340MOL0     C45795   0.097   0.240   2.252  0.3099 -0.3626 -0.1684
  340MOL0     O45796   0.164   0.127   2.290  0.6880 -0.6137 -0.4808
  340MOL0     C45797   0.100   0.008   2.278 -0.2267  0.2348 -0.9476
  340MOL0     C45798   0.160  -0.096   2.205 -0.0858 -0.3726  0.0156
  340MOL0     C45799   0.108  -0.225   2.197 -0.4275  0.5135 -0.0901
  340MOL0     C45800  -0.016  -0.257   2.257 -0.6393  0.4866 -0.0864
  340MOL0     O45801  -0.063  -0.385   2.245  0.1782 -0.0395 -0.3685
  340MOL0     C45802  -0.199  -0.390   2.198  0.0643 -0.9336 -0.0564
  340MOL0     C45803  -0.212  -0.522   2.118 -0.1313  0.6349 -0.2654
  340MOL0     C45804  -0.350  -0.547   2.064 -0.3230  0.7279 -0.3460
  340MOL0     C45805  -0.345  -0.657   1.951  0.2518  0.0329 -0.5361
  340MOL0     C45806  -0.488  -0.678   1.896 -0.4228 -1.2506 -0.0499
  340MOL0     C45807  -0.499  -0.767   1.773 -0.4496  0.3701  0.5913
  340MOL0     C45808  -0.634  -0.828   1.757  0.6384  0.1114  0.0119
  340MOL0     C45809  -0.743  -0.721   1.725  0.6253 -0.3502  0.2524
  340MOL0    Cl45810  -0.889  -0.803   1.674 -0.0761  0.2461  0.1072
  340MOL0     C45811  -0.076  -0.155   2.326 -0.3163 -0.4787 -0.1243
  340MOL0     C45812  -0.023  -0.023   2.342  0.6718 -0.5939  0.1228
  340MOL0     O45813  -0.016   0.240   2.204 -0.3732 -0.5748 -0.3428
  340MOL0     C45814   0.318   0.358   2.220 -0.3922  0.5257 -0.6268
  340MOL0     C45815   0.399   0.475   2.226  0.4658 -0.1903  0.0647
  340MOL0     N45816   0.884   0.954   1.914 -0.7291  0.0349  0.1998
  340MOL0     N45817   1.002   0.986   1.875 -0.2286  0.5391 -0.2781
  340MOL0     C45818   2.246   0.933   2.343 -0.2607  0.5282  0.1572
  340MOL0     C45819   2.385   0.904   2.376  0.2269  0.1175 -0.3504
  340MOL0     C45820   2.792   0.969   2.547 -0.4312 -0.3681  0.2779
  340MOL0     C45821   2.879   0.937   2.441  0.3856 -0.4560 -0.0742
  340MOL0     C45822   3.020   0.913   2.450  1.2118  0.3320  0.3570
  340MOL0     C45823   3.070   0.925   2.576 -0.6957  0.7705 -0.1880
  340MOL0     O45824   3.204   0.905   2.613  0.4484  0.0488 -0.0186
  340MOL0     C45825   3.299   0.881   2.507  0.0065  0.6914 -0.3847
  340MOL0     C45826   3.437   0.888   2.563 -0.7995  0.1015  0.3598
  340MOL0     C45827   3.461   0.813   2.691 -0.3946 -0.8606  0.0817
  340MOL0     C45828   3.591   0.841   2.756 -0.3184  0.0085 -0.2155
  340MOL0     C45829   3.604   0.767   2.878 -0.1570  0.8188  0.3383
  340MOL0     C45830   3.616   0.693   2.970  0.5598 -0.3527 -0.1951
  340MOL0     C45831   2.990   0.955   2.685  0.4587  0.2524  0.1615
  340MOL0     C45832   2.850   0.975   2.673  0.9456 -0.1948 -0.4095
  340MOL0     H45833   2.516   1.194   2.291  1.5069 -1.2037  0.7569
  340MOL0     H45834   2.279   1.246   2.216  1.8485  0.3891 -0.4835
  340MOL0     H45835   1.977   0.881   2.214  0.7528 -0.1778  1.3806
  340MOL0     H45836   1.962   0.942   2.373  3.1187  0.1115  0.7762
  340MOL0     H45837   1.755   0.996   2.302 -0.3913 -1.4168 -0.8278
  340MOL0     H45838   1.847   1.150   2.272 -2.3223 -0.4612 -0.7681
  340MOL0     H45839   1.889   1.071   2.042 -0.3786  0.9532 -0.6447
  340MOL0     H45840   1.782   0.930   2.071  2.0514  0.4057  1.5144
  340MOL0     H45841   1.690   1.226   2.080 -1.0782 -0.0277 -0.8456
  340MOL0     H45842   1.686   1.126   1.940  2.7285  1.7809  0.4357
  340MOL0     H45843   1.518   0.964   2.073  0.5403  0.0764 -0.8390
  340MOL0     H45844   1.538   1.074   2.202  0.0219 -1.1857  0.7282
  340MOL0     H45845   1.422   1.254   2.092  0.9855 -1.3484  2.6420
  340MOL0     H45846   1.450   1.183   1.931  2.3083  0.4576 -0.1992
  340MOL0     H45847   1.304   0.976   2.016 -2.2386 -0.4457  2.7939
  340MOL0     H45848   1.258   1.079   2.141 -2.1763  3.7648 -0.0421
  340MOL0     H45849   1.197   1.132   1.846  0.5326 -3.2644 -0.1202
  340MOL0     H45850   1.172   1.240   1.994 -1.9467  0.3166  0.6195
  340MOL0     H45851   0.980   1.141   2.161  1.8423  1.2287 -0.7236
  340MOL0     H45852   0.733   1.088   2.177 -2.0709 -1.5229  1.5244
  340MOL0     H45853   0.649   0.982   2.054 -0.1135  0.1774 -0.6808
  340MOL0     H45854   0.809   0.890   2.280  0.4616  4.2375 -0.3214
  340MOL0     H45855   0.754   0.782   2.146 -6.0424 -1.4618  0.1598
  340MOL0     H45856   0.536   0.917   2.272  0.9054 -0.0555 -1.2976
  340MOL0     H45857   0.619   0.835   2.391  1.3124  2.2728 -0.1824
  340MOL0     H45858   0.594   0.629   2.261  0.6862  1.4391  3.2506
  340MOL0     H45859   0.541   0.719   2.118 -0.4621  0.7064  0.0494
  340MOL0     H45860   0.152   0.699   2.270 -0.1076  0.5137 -3.1560
  340MOL0     H45861  -0.038   0.621   2.307  5.4105  0.9656 -0.1899
  340MOL0     H45862  -0.098   0.477   2.230  3.4475 -0.1146 -2.1788
  340MOL0     H45863  -0.046   0.470   2.401 -0.4175 -1.6499 -0.1082
  340MOL0     H45864   0.261  -0.068   2.176  1.5189  0.4145  5.2170
  340MOL0     H45865   0.172  -0.300   2.153  1.5717  1.2772  1.3482
  340MOL0     H45866  -0.280  -0.379   2.271  0.3842  2.0461 -0.0392
  340MOL0     H45867  -0.226  -0.310   2.129 -2.4233 -2.6837 -1.2948
  340MOL0     H45868  -0.141  -0.525   2.034  0.2807 -0.8213  0.0911
  340MOL0     H45869  -0.185  -0.612   2.175 -2.3500  1.3560  2.0943
  340MOL0     H45870  -0.390  -0.455   2.019  2.6271  2.9740  1.2408
  340MOL0     H45871  -0.419  -0.575   2.144  0.7740 -0.9328  0.0716
  340MOL0     H45872  -0.285  -0.627   1.865 -0.3702 -1.3279 -1.4954
  340MOL0     H45873  -0.308  -0.754   1.986 -1.3435 -0.3822  0.0787
  340MOL0     H45874  -0.543  -0.587   1.871 -2.2144 -2.1194  0.5528
  340MOL0     H45875  -0.542  -0.740   1.969 -0.2419 -3.0714 -1.4057
  340MOL0     H45876  -0.469  -0.721   1.679 -2.9875 -0.3127 -0.6446
  340MOL0     H45877  -0.424  -0.845   1.790  1.0305  1.9020  1.3771
  340MOL0     H45878  -0.664  -0.869   1.854  2.6154 -1.5616 -0.0156
  340MOL0     H45879  -0.641  -0.906   1.681  0.2022 -1.4801  1.5890
  340MOL0     H45880  -0.718  -0.652   1.644 -0.3503  0.1631  0.3756
  340MOL0     H45881  -0.760  -0.659   1.814  2.4390 -1.0027  1.1120
  340MOL0     H45882  -0.175  -0.155   2.371  0.7640 -3.0102  2.6286
  340MOL0     H45883  -0.084   0.057   2.382 -1.0956 -0.4777 -2.5130
  340MOL0     H45884   0.368   0.264   2.201  1.1720  1.1696  0.0811
  340MOL0     H45885   0.503   0.463   2.198 -0.5902 -1.5317 -3.9229
  340MOL0     H45886   2.182   0.845   2.348  1.3861 -0.6525  2.0073
  340MOL0     H45887   2.414   0.803   2.404 -3.0286 -0.4219  1.5097
  340MOL0     H45888   2.829   0.937   2.344  0.3596 -0.0015 -0.0666
  340MOL0     H45889   3.074   0.875   2.364 -0.1836 -1.4652  0.2187
  340MOL0     H45890   3.278   0.789   2.452  3.5427 -1.1468  0.9619
  340MOL0     H45891   3.302   0.968   2.441 -1.0856  0.4729 -0.7345
  340MOL0     H45892   3.447   0.995   2.583  1.8958 -0.4035  2.2697
  340MOL0     H45893   3.515   0.865   2.490 -0.0275 -0.5503  1.3558
  340MOL0     H45894   3.463   0.706   2.669 -0.5172 -0.3925 -2.5989
  340MOL0     H45895   3.379   0.821   2.763 -2.7269 -1.9949 -2.2854
  340MOL0     H45896   3.582   0.944   2.792 -2.6431 -0.2567  0.1257
  340MOL0     H45897   3.672   0.832   2.683 -1.2435 -0.7776 -1.1789
  340MOL0     H45898   3.620   0.638   3.061 -0.6030  3.6760  2.5512
  340MOL0     H45899   3.035   0.974   2.782 -0.2626  2.0608  0.1876
  340MOL0     H45900   2.790   0.983   2.763 -1.0215 -1.0998 -1.5874
  341MOL0     O45901   5.100   5.806   2.145  0.1868 -0.1081 -0.1807
  341MOL0     C45902   5.143   5.788   2.030  0.3437 -0.0129  0.3787
  341MOL0     O45903   5.083   5.751   1.915 -0.7692 -0.2419 -0.0134
  341MOL0     C45904   4.945   5.755   1.929 -0.9035  0.3734 -0.4884
  341MOL0     C45905   4.875   5.854   1.867  0.4671 -0.1607  0.1354
  341MOL0     C45906   4.739   5.868   1.886  0.3674 -0.3362 -0.6557
  341MOL0     C45907   4.671   5.780   1.977  0.3400 -0.1200  0.1180
  341MOL0     O45908   4.537   5.791   2.012 -0.5861  0.4899 -0.8215
  341MOL0     C45909   4.465   5.912   1.979  0.4647 -0.7408  0.5393
  341MOL0     C45910   4.325   5.899   2.043 -0.1961  0.5901 -0.3555
  341MOL0     C45911   4.223   5.982   1.965 -0.2632 -0.1081  0.1650
  341MOL0     C45912   4.070   5.935   1.991 -0.8028  0.0642 -0.9044
  341MOL0     C45913   3.967   6.036   1.939  0.3674  0.1438  0.8405
  341MOL0     C45914   3.971   6.075   1.787 -0.8039 -0.0296  0.6891
  341MOL0     C45915   3.880   6.187   1.742  0.4907  0.1026  0.6120
  341MOL0     C45916   3.833   6.140   1.607 -0.3389 -0.3853  1.0929
  341MOL0     N45917   3.795   6.257   1.526 -0.2391  0.7472  0.7583
  341MOL0     C45918   3.864   6.326   1.435 -0.1432  0.2010 -0.0756
  341MOL0     C45919   3.776   6.379   1.348 -0.6903 -1.9803 -0.0040
  341MOL0     C45920   3.805   6.456   1.218  0.2604 -0.4994 -0.1577
  341MOL0     C45921   3.798   6.613   1.231  0.5337  0.6820  0.2205
  341MOL0     C45922   3.658   6.671   1.176  0.0680 -0.0658  0.5774
  341MOL0     C45923   3.544   6.599   1.233 -0.3813 -0.4196  0.0819
  341MOL0     O45924   3.434   6.679   1.204 -0.4149 -0.4310 -0.5408
  341MOL0     C45925   3.327   6.643   1.285 -0.9196 -0.1180  1.4359
  341MOL0     C45926   3.231   6.742   1.288  0.1949 -0.8162 -0.2030
  341MOL0     C45927   3.109   6.723   1.363 -0.6181 -0.4848  0.4196
  341MOL0     C45928   2.996   6.828   1.347 -0.2883  0.0640  0.7597
  341MOL0     C45929   3.083   6.609   1.442  0.3845 -1.1131 -0.3435
  341MOL0     C45930   2.958   6.580   1.518 -0.7828  0.3379  0.7351
  341MOL0     O45931   2.960   6.461   1.594  0.2619  0.2045  1.0726
  341MOL0     C45932   2.841   6.417   1.651 -0.0191  0.0136  0.8675
  341MOL0     C45933   2.725   6.396   1.580 -0.1902  0.2428  0.6264
  341MOL0     C45934   2.608   6.352   1.645 -0.0230 -0.0321  0.0082
  341MOL0     C45935   2.604   6.337   1.785 -0.1065  0.4626 -0.7498
  341MOL0     O45936   2.494   6.295   1.862 -0.6850 -0.7672 -0.3648
  341MOL0     C45937   2.366   6.347   1.824 -0.5541 -0.2476  0.3150
  341MOL0     C45938   2.258   6.264   1.894 -0.1547 -0.3000  0.1761
  341MOL0     C45939   2.239   6.118   1.830 -0.8431  0.7028 -0.9135
  341MOL0     C45940   2.108   6.054   1.871 -0.1716 -0.5139  0.5464
  341MOL0     C45941   2.043   5.948   1.769  0.0497  0.2476 -0.3473
  341MOL0     C45942   1.933   5.858   1.840  0.9628  0.4206 -0.5890
  341MOL0     C45943   1.816   5.924   1.903  0.0970 -0.9821 -0.4032
  341MOL0     C45944   1.811   5.925   2.056 -0.6553 -0.5241 -0.3628
  341MOL0    Cl45945   1.813   5.763   2.114 -0.2103  0.0901  0.0306
  341MOL0     C45946   2.725   6.374   1.850 -0.6225  0.9277 -0.0051
  341MOL0     C45947   2.849   6.406   1.786  0.3875 -0.4961 -1.2334
  341MOL0     O45948   2.861   6.660   1.507  0.1178  0.5553 -0.2404
  341MOL0     C45949   3.199   6.521   1.454  0.6420 -0.3392 -0.6446
  341MOL0     C45950   3.306   6.531   1.369 -0.6913  0.0566  0.7352
  341MOL0     N45951   3.650   6.361   1.406 -0.3886 -0.4698  0.1024
  341MOL0     N45952   3.664   6.291   1.507 -0.3452 -0.0507 -0.4633
  341MOL0     C45953   4.730   5.674   2.039 -0.1796 -0.1078 -0.4820
  341MOL0     C45954   4.870   5.657   2.000  0.0488  0.3469 -0.6984
  341MOL0     C45955   5.288   5.806   2.007 -0.2659  0.6225  0.7296
  341MOL0     C45956   5.356   5.805   1.882  0.1116 -0.2104 -0.4506
  341MOL0     C45957   5.488   5.841   1.864 -0.2528  0.0566 -0.0614
  341MOL0     C45958   5.575   5.860   1.966  0.4814 -0.2437  0.6184
  341MOL0     O45959   5.714   5.863   1.940 -0.4014  0.4604 -0.2479
  341MOL0     C45960   5.797   5.884   2.050  0.1899  0.3083 -0.1763
  341MOL0     C45961   5.937   5.925   2.005  0.5234 -0.1148  0.6838
  341MOL0     C45962   6.036   5.941   2.114  0.4139  0.2903  0.2837
  341MOL0     C45963   6.179   5.947   2.042 -0.3082 -0.0070 -0.3873
  341MOL0     C45964   6.288   6.011   2.120  0.5140  1.0812  0.0090
  341MOL0     C45965   6.371   6.081   2.177  0.7892 -0.3509  0.3327
  341MOL0     C45966   5.508   5.872   2.092  0.6100  0.2271 -0.0599
  341MOL0     C45967   5.370   5.841   2.117 -0.0497 -0.2667 -0.5782
  341MOL0     H45968   4.929   5.925   1.804 -1.2202  0.5967 -0.5073
  341MOL0     H45969   4.691   5.958   1.849 -1.2328 -0.8264  0.1269
  341MOL0     H45970   4.502   6.009   2.013  1.1678  0.7803 -3.9351
  341MOL0     H45971   4.457   5.914   1.870 -2.7671 -1.3725  0.6591
  341MOL0     H45972   4.295   5.794   2.040 -2.2407  1.0396  1.5031
  341MOL0     H45973   4.323   5.930   2.148  1.9007 -0.3346  0.0089
  341MOL0     H45974   4.229   6.088   1.988 -1.6758  0.1849 -0.6813
  341MOL0     H45975   4.237   5.981   1.856 -1.7408  1.0499 -0.0624
  341MOL0     H45976   4.054   5.833   1.956  1.6911 -1.2766  1.5067
  341MOL0     H45977   4.069   5.933   2.101 -2.8533  2.2246 -0.8142
  341MOL0     H45978   3.867   5.993   1.954  0.7194 -1.8669 -1.8984
  341MOL0     H45979   3.979   6.132   1.990  1.4657  1.1132 -1.1250
  341MOL0     H45980   4.073   6.106   1.762 -1.0672 -0.5742 -1.1400
  341MOL0     H45981   3.946   5.984   1.733 -1.3938 -0.1325  1.1335
  341MOL0     H45982   3.795   6.205   1.809  0.8953 -0.9971  1.4539
  341MOL0     H45983   3.943   6.275   1.732 -0.8436  0.8970 -1.5131
  341MOL0     H45984   3.753   6.070   1.636  0.2396 -0.5900  2.2677
  341MOL0     H45985   3.902   6.087   1.541 -4.3418 -0.1957 -3.8089
  341MOL0     H45986   3.972   6.335   1.435 -0.0034 -1.1617  0.7312
  341MOL0     H45987   3.909   6.433   1.195  0.9552  1.7419  0.5642
  341MOL0     H45988   3.733   6.416   1.146  0.0807 -1.4532  0.5249
  341MOL0     H45989   3.882   6.647   1.170  1.1220 -0.5537  0.2978
  341MOL0     H45990   3.820   6.632   1.336  2.0677 -1.0272  0.2578
  341MOL0     H45991   3.655   6.676   1.066  0.2250  0.3310  0.5896
  341MOL0     H45992   3.657   6.776   1.205  2.6786 -0.3853  2.0671
  341MOL0     H45993   3.554   6.592   1.341 -1.0485  0.5846  0.2250
  341MOL0     H45994   3.529   6.502   1.184  1.0261  0.1076 -1.4750
  341MOL0     H45995   3.242   6.834   1.231  0.3780  0.4801  1.8423
  341MOL0     H45996   3.023   6.880   1.255 -0.6085  0.4214  0.8651
  341MOL0     H45997   2.902   6.778   1.323 -0.5635 -0.6821  3.1216
  341MOL0     H45998   2.984   6.880   1.443  2.2490 -0.5028  1.4501
  341MOL0     H45999   2.731   6.405   1.472 -1.1166 -1.4944  0.3960
  341MOL0     H46000   2.527   6.310   1.587  0.8177 -3.0625  0.8829
  341MOL0     H46001   2.363   6.451   1.858 -0.4540  1.3032 -3.8265
  341MOL0     H46002   2.357   6.350   1.715  4.0044  1.0771 -0.2137
  341MOL0     H46003   2.277   6.261   2.002 -2.4480 -1.2183  0.6043
  341MOL0     H46004   2.159   6.310   1.890 -0.3394 -0.7624 -0.6973
  341MOL0     H46005   2.313   6.054   1.879 -2.9258 -0.4287  0.9805
  341MOL0     H46006   2.243   6.114   1.721  0.2576 -0.0592 -0.8578
  341MOL0     H46007   2.129   5.999   1.964  0.1885 -0.8016  0.2991
  341MOL0     H46008   2.027   6.126   1.888 -0.4510 -0.1071 -2.1378
  341MOL0     H46009   2.122   5.878   1.742 -1.5815 -0.8250 -2.6712
  341MOL0     H46010   2.011   6.002   1.680  0.8718  0.9363 -0.2351
  341MOL0     H46011   1.894   5.785   1.769  0.3283 -1.9313  2.0055
  341MOL0     H46012   1.984   5.797   1.916 -1.3317  1.1494  1.6915
  341MOL0     H46013   1.726   5.866   1.879 -0.3055 -0.9478  0.9297
  341MOL0     H46014   1.819   6.029   1.872 -0.6552 -0.7867  0.1466
  341MOL0     H46015   1.726   5.973   2.106 -1.9935 -2.6100 -0.5312
  341MOL0     H46016   1.897   5.980   2.096 -0.2927 -0.5153 -1.1404
  341MOL0     H46017   2.724   6.361   1.958 -1.1686  4.9247  0.6235
  341MOL0     H46018   2.942   6.439   1.831 -0.2933  0.3869 -0.4407
  341MOL0     H46019   3.196   6.445   1.532 -0.6187  1.8975  1.6529
  341MOL0     H46020   3.375   6.448   1.371  0.7160  1.1788  0.3069
  341MOL0     H46021   4.687   5.601   2.106  2.8873 -0.1613  1.6254
  341MOL0     H46022   4.943   5.589   2.042  0.3638  2.9322  3.5535
  341MOL0     H46023   5.315   5.768   1.789 -1.2583  0.5087 -0.1454
  341MOL0     H46024   5.545   5.836   1.772  2.2450 -0.1832  1.4136
  341MOL0     H46025   5.742   5.969   2.092 -2.7609 -1.8649  0.7255
  341MOL0     H46026   5.796   5.806   2.128 -2.3512  1.3208  0.9272
  341MOL0     H46027   5.925   6.022   1.954  2.2090 -0.2537 -0.0696
  341MOL0     H46028   5.973   5.860   1.925  1.1994  0.5908  0.3982
  341MOL0     H46029   6.036   5.857   2.184  2.7929  0.0841  0.1049
  341MOL0     H46030   6.011   6.032   2.169 -0.4456 -0.2729  0.8577
  341MOL0     H46031   6.175   5.991   1.943  1.9269  1.5502  0.1521
  341MOL0     H46032   6.204   5.841   2.029 -0.5071  0.0462 -1.2672
  341MOL0     H46033   6.443   6.145   2.223  2.4925 -2.5030  0.8348
  341MOL0     H46034   5.575   5.896   2.174  1.4868 -1.1435 -0.3431
  341MOL0     H46035   5.333   5.853   2.218  1.7334 -1.2919  0.2408
  342MOL0     O46036   6.416   5.939   3.000  0.2885  0.2173  0.4599
  342MOL0     C46037   6.519   5.994   3.052  0.4526  0.2148  1.1229
  342MOL0     O46038   6.534   6.124   3.058  0.7064 -0.0423  0.5929
  342MOL0     C46039   6.450   6.215   2.992  0.3441  0.1060 -0.0056
  342MOL0     C46040   6.312   6.211   2.962 -0.1821 -0.2687  0.3499
  342MOL0     C46041   6.244   6.321   2.902 -0.3715  0.2919  0.0466
  342MOL0     C46042   6.316   6.437   2.864 -1.0624 -0.4118  0.1452
  342MOL0     O46043   6.261   6.539   2.792 -0.1724 -0.3356 -0.5964
  342MOL0     C46044   6.125   6.540   2.763 -0.9311 -0.2468  0.2433
  342MOL0     C46045   6.113   6.672   2.695  0.3771  0.1933  0.4115
  342MOL0     C46046   5.966   6.721   2.653  0.6531 -0.6643  0.1414
  342MOL0     C46047   5.925   6.645   2.522 -0.1375  0.7344  0.6384
  342MOL0     C46048   5.774   6.681   2.491 -0.3505  0.4773  0.1491
  342MOL0     C46049   5.662   6.672   2.596  1.0313  0.1589  1.0521
  342MOL0     C46050   5.625   6.530   2.613  0.2337  0.1653  0.3371
  342MOL0     C46051   5.521   6.521   2.727 -0.2040  0.7029 -0.6348
  342MOL0     N46052   5.389   6.540   2.670 -0.1281 -0.2063  0.5760
  342MOL0     C46053   5.313   6.440   2.610 -0.3139 -0.6390  0.6515
  342MOL0     C46054   5.199   6.504   2.569 -0.2373  0.7433 -0.1947
  342MOL0     C46055   5.081   6.429   2.503 -0.1203 -0.2425 -0.1729
  342MOL0     C46056   5.015   6.540   2.420 -0.5290 -0.3292 -0.0980
  342MOL0     C46057   4.880   6.491   2.379 -0.5191  0.5089  0.1953
  342MOL0     C46058   4.802   6.602   2.305  0.3981  0.6095  1.3957
  342MOL0     O46059   4.693   6.537   2.240  0.0111  0.0561  0.1437
  342MOL0     C46060   4.608   6.613   2.167 -0.3364  0.5972  0.1676
  342MOL0     C46061   4.616   6.753   2.147 -0.0080  0.4941 -0.1065
  342MOL0     C46062   4.523   6.825   2.078  0.7632 -0.7664 -0.1615
  342MOL0     C46063   4.549   6.970   2.052 -0.0730  0.0719  0.1227
  342MOL0     C46064   4.413   6.754   2.012 -0.2766  0.7369  0.6555
  342MOL0     C46065   4.312   6.826   1.925  0.1683 -0.0387  0.4839
  342MOL0     O46066   4.222   6.739   1.878  0.2759 -0.6170 -1.0148
  342MOL0     C46067   4.110   6.790   1.807 -0.6073  0.0642 -0.0436
  342MOL0     C46068   4.063   6.695   1.715 -0.0371  0.6849 -0.0774
  342MOL0     C46069   3.946   6.725   1.643 -0.1280 -0.2421  0.1090
  342MOL0     C46070   3.865   6.834   1.677 -0.4639 -0.2399  0.4827
  342MOL0     O46071   3.737   6.858   1.641 -0.2710 -0.5936  0.0640
  342MOL0     C46072   3.658   6.755   1.572 -0.2619 -0.0119  0.2895
  342MOL0     C46073   3.514   6.801   1.580 -0.2540  0.3698 -1.2098
  342MOL0     C46074   3.497   6.933   1.510  0.4059 -0.6480  1.0554
  342MOL0     C46075   3.345   6.979   1.519  0.6500 -0.2429  0.2211
  342MOL0     C46076   3.312   7.138   1.531  0.3113  0.4020 -0.5457
  342MOL0     C46077   3.204   7.179   1.438  0.3873 -0.7851 -0.0036
  342MOL0     C46078   3.249   7.176   1.288 -1.0198  0.5680 -0.4435
  342MOL0     C46079   3.134   7.214   1.198  0.6712  0.0058 -0.2125
  342MOL0    Cl46080   3.184   7.349   1.103  0.6341 -0.4413 -0.3886
  342MOL0     C46081   3.914   6.924   1.771 -0.0091  0.0002  0.4491
  342MOL0     C46082   4.037   6.902   1.845 -0.3869  0.2472  0.8055
  342MOL0     O46083   4.316   6.945   1.903  0.0716  0.3442  0.9423
  342MOL0     C46084   4.400   6.615   2.031  0.9190 -0.0469 -0.5738
  342MOL0     C46085   4.496   6.553   2.116  0.4858  0.3638  0.7111
  342MOL0     N46086   5.210   6.635   2.605 -0.6795  0.1451 -0.4063
  342MOL0     N46087   5.321   6.650   2.672  0.2299 -0.7342  0.3964
  342MOL0     C46088   6.451   6.442   2.897  0.5259  0.7589  0.4602
  342MOL0     C46089   6.517   6.333   2.954  1.0298  0.3482  0.3546
  342MOL0     C46090   6.617   5.902   3.113 -0.1359  0.5085  0.5477
  342MOL0     C46091   6.624   5.762   3.083 -0.6011 -0.2018 -0.2379
  342MOL0     C46092   6.725   5.692   3.145  0.0113  0.1677 -0.5415
  342MOL0     C46093   6.815   5.755   3.232  0.4892  0.2798  0.6640
  342MOL0     O46094   6.927   5.696   3.283 -0.1649 -0.0966  0.1358
  342MOL0     C46095   6.953   5.553   3.279  0.1608 -0.3886 -0.3298
  342MOL0     C46096   7.072   5.511   3.363  0.2941 -0.5013  0.4810
  342MOL0     C46097   7.058   5.550   3.509 -0.9585  0.0388  0.3736
  342MOL0     C46098   7.173   5.488   3.583 -0.0048  0.7094 -0.8744
  342MOL0     C46099   7.164   5.336   3.607  0.1833 -0.8446 -0.2151
  342MOL0     C46100   7.127   5.232   3.648  0.6699  0.5950 -0.0023
  342MOL0     C46101   6.802   5.889   3.262 -0.2398 -1.1024  0.4231
  342MOL0     C46102   6.701   5.969   3.204 -0.8728  0.2657  0.3070
  342MOL0     H46103   6.260   6.117   2.975 -1.1684  0.0610 -1.0192
  342MOL0     H46104   6.139   6.318   2.875 -0.1945 -4.0036 -0.9072
  342MOL0     H46105   6.103   6.458   2.695 -0.8505 -0.4598  0.4727
  342MOL0     H46106   6.064   6.528   2.854 -0.8450 -1.2290  0.1751
  342MOL0     H46107   6.164   6.742   2.762  0.1149  0.5764  0.2135
  342MOL0     H46108   6.172   6.661   2.603  0.0853 -1.3024  0.3664
  342MOL0     H46109   5.903   6.702   2.740  1.7466 -2.0710  0.6672
  342MOL0     H46110   5.968   6.829   2.637 -0.2170 -0.6863 -0.1914
  342MOL0     H46111   5.990   6.669   2.438  0.1663 -1.8370  0.0436
  342MOL0     H46112   5.935   6.538   2.542 -1.1744  0.9244  2.4357
  342MOL0     H46113   5.771   6.783   2.452 -0.7152  0.1818 -0.6235
  342MOL0     H46114   5.743   6.620   2.405 -2.3689  0.7355  0.6335
  342MOL0     H46115   5.699   6.712   2.691  0.2531 -1.8319  2.2345
  342MOL0     H46116   5.574   6.730   2.566  0.6540 -1.2910 -0.8660
  342MOL0     H46117   5.581   6.477   2.528 -0.8402  1.0752  0.3075
  342MOL0     H46118   5.722   6.486   2.638  2.0754  3.3659 -0.5013
  342MOL0     H46119   5.539   6.594   2.807 -2.0179 -1.5874  2.0782
  342MOL0     H46120   5.529   6.421   2.772 -0.5776  0.0147 -2.0208
  342MOL0     H46121   5.351   6.340   2.596  1.1887  0.2397 -2.3992
  342MOL0     H46122   5.125   6.356   2.435  1.8924  2.1965 -1.6746
  342MOL0     H46123   5.018   6.385   2.581  0.8574 -2.3074 -0.5062
  342MOL0     H46124   5.073   6.575   2.334 -0.2527 -3.6283 -1.3898
  342MOL0     H46125   4.990   6.633   2.473 -2.3766  1.1347 -3.2641
  342MOL0     H46126   4.834   6.452   2.471  3.2511 -0.2549  1.9807
  342MOL0     H46127   4.896   6.413   2.304  0.5478  1.6191 -0.7682
  342MOL0     H46128   4.869   6.643   2.230  3.9126 -2.5034  2.5364
  342MOL0     H46129   4.777   6.688   2.367 -1.6902 -0.7276  2.5584
  342MOL0     H46130   4.702   6.804   2.189  0.3612  0.3162 -0.6314
  342MOL0     H46131   4.567   6.989   1.945 -1.0106  1.4968  0.1905
  342MOL0     H46132   4.469   7.035   2.088 -0.1900  0.9791 -1.6552
  342MOL0     H46133   4.640   7.004   2.102 -1.5726  0.7043  2.5792
  342MOL0     H46134   4.125   6.608   1.697  0.3794  0.9604  0.0164
  342MOL0     H46135   3.909   6.653   1.571  0.7047 -0.2130 -0.3530
  342MOL0     H46136   3.692   6.754   1.468 -0.1721  0.5711  0.3079
  342MOL0     H46137   3.681   6.661   1.623 -1.0519  0.9754  2.6066
  342MOL0     H46138   3.450   6.724   1.535  0.1493 -1.1559  0.7051
  342MOL0     H46139   3.483   6.807   1.684  1.5471  1.8676 -0.7028
  342MOL0     H46140   3.532   6.948   1.407 -2.8993 -0.0470 -0.1268
  342MOL0     H46141   3.555   6.999   1.575  2.0063 -0.6889 -0.2569
  342MOL0     H46142   3.302   6.941   1.426  0.0697 -1.0012  0.7849
  342MOL0     H46143   3.288   6.935   1.601  0.8069  0.7970  0.9071
  342MOL0     H46144   3.395   7.206   1.511  0.9709 -0.8815 -2.4238
  342MOL0     H46145   3.283   7.153   1.635  1.4408 -1.5026  0.0974
  342MOL0     H46146   3.113   7.120   1.448 -1.3999  2.0601  1.8875
  342MOL0     H46147   3.180   7.283   1.459  0.1112 -0.7290 -0.5740
  342MOL0     H46148   3.294   7.078   1.270  2.8849  1.2671  3.8311
  342MOL0     H46149   3.331   7.245   1.270  1.8072 -1.9966  1.5732
  342MOL0     H46150   3.039   7.229   1.251  1.3128  0.4309  0.8394
  342MOL0     H46151   3.119   7.139   1.120  0.5020  0.2195 -0.3875
  342MOL0     H46152   3.852   7.006   1.806 -0.5504  0.2286 -0.9776
  342MOL0     H46153   4.068   6.965   1.927  2.3880 -0.7437  0.6275
  342MOL0     H46154   4.320   6.557   1.986 -0.2429 -1.4061  2.8888
  342MOL0     H46155   4.490   6.446   2.133  0.6011 -0.0190 -1.3434
  342MOL0     H46156   6.505   6.536   2.889 -0.0829  1.0159 -0.7934
  342MOL0     H46157   6.623   6.342   2.973  1.5715 -1.7720 -1.2548
  342MOL0     H46158   6.539   5.714   3.036 -0.2497 -1.0322 -0.0439
  342MOL0     H46159   6.737   5.584   3.143  3.6724  0.4385 -0.2237
  342MOL0     H46160   6.869   5.504   3.328  1.4846 -0.8183  1.6264
  342MOL0     H46161   6.972   5.524   3.176  3.4946 -0.3909  0.1822
  342MOL0     H46162   7.164   5.550   3.320 -0.9580  0.0150 -1.9139
  342MOL0     H46163   7.077   5.402   3.362 -0.8070 -0.6249  2.6335
  342MOL0     H46164   6.965   5.535   3.563  0.6203 -1.5947  2.8318
  342MOL0     H46165   7.086   5.656   3.510  1.7084 -0.5675 -0.5068
  342MOL0     H46166   7.175   5.524   3.686 -0.3146 -0.5645 -0.3990
  342MOL0     H46167   7.267   5.498   3.528 -0.0031 -3.1512 -1.8767
  342MOL0     H46168   7.087   5.138   3.679 -2.6768  2.3698  1.5584
  342MOL0     H46169   6.856   5.929   3.348 -3.0525  1.4601  1.1766
  342MOL0     H46170   6.691   6.070   3.241 -0.2287  0.4266  0.0530
  343MOL0     O46171   3.038   2.665   1.124 -0.1494  0.2379  0.2393
  343MOL0     C46172   3.142   2.733   1.100  0.1636  0.0688 -0.1545
  343MOL0     O46173   3.151   2.836   1.017  0.0845  0.3123  0.0916
  343MOL0     C46174   3.042   2.871   0.934 -0.2827  0.1817  1.0762
  343MOL0     C46175   3.000   3.004   0.928  0.2641  0.6853 -0.6746
  343MOL0     C46176   2.886   3.036   0.862 -1.1916 -0.1888  0.0431
  343MOL0     C46177   2.826   2.952   0.773 -0.3660 -0.0488 -0.9744
  343MOL0     O46178   2.720   2.993   0.706 -0.0412  0.2773  0.4836
  343MOL0     C46179   2.613   2.896   0.683 -0.1430 -0.2068 -0.3970
  343MOL0     C46180   2.484   2.966   0.665  1.1300 -0.5894  0.4730
  343MOL0     C46181   2.448   3.043   0.788  0.2891 -0.1917  0.4091
  343MOL0     C46182   2.297   3.073   0.764  0.4300 -0.3085  0.6803
  343MOL0     C46183   2.253   3.168   0.870  0.0862  0.4826 -1.0082
  343MOL0     C46184   2.103   3.166   0.881  0.3147  0.4788  0.3049
  343MOL0     C46185   2.041   3.259   0.981 -0.4405 -0.1931  0.3130
  343MOL0     C46186   2.044   3.398   0.914  0.1656 -0.1356  0.0167
  343MOL0     N46187   1.940   3.429   0.805 -0.2128 -0.5051 -0.8944
  343MOL0     C46188   1.807   3.452   0.823 -0.0135  0.3917  0.8364
  343MOL0     C46189   1.767   3.465   0.696 -0.7270 -0.6966  0.7602
  343MOL0     C46190   1.635   3.508   0.647 -0.5709  0.5201 -0.3608
  343MOL0     C46191   1.518   3.475   0.743  0.4419 -0.6026 -0.3565
  343MOL0     C46192   1.497   3.328   0.765 -0.6596 -0.8739  1.0394
  343MOL0     C46193   1.362   3.290   0.790 -0.6823 -0.7229  0.2060
  343MOL0     O46194   1.304   3.369   0.890  0.3598  0.1651 -0.3917
  343MOL0     C46195   1.180   3.332   0.941  0.0943  0.0660 -0.3565
  343MOL0     C46196   1.120   3.409   1.041  0.1348 -0.0432 -0.3359
  343MOL0     C46197   0.994   3.383   1.097 -0.2430 -0.7971  0.5696
  343MOL0     C46198   0.927   3.481   1.189  0.0831  0.4757  0.2536
  343MOL0     C46199   0.914   3.277   1.038 -0.1077  0.2307 -0.8251
  343MOL0     C46200   0.783   3.238   1.086  0.8194  0.4760  0.0099
  343MOL0     O46201   0.702   3.169   0.998  0.6861  0.2874  0.2000
  343MOL0     C46202   0.576   3.136   1.046 -0.1251  0.0908 -0.4432
  343MOL0     C46203   0.525   3.006   1.004 -0.6676 -0.8461 -0.4735
  343MOL0     C46204   0.405   2.959   1.048  0.8649 -0.2004  0.2221
  343MOL0     C46205   0.315   3.045   1.114  0.1621 -0.0084 -0.8143
  343MOL0     O46206   0.187   3.007   1.148  0.1211 -0.2230  0.1373
  343MOL0     C46207   0.161   2.867   1.154  0.2688  0.3854  0.1233
  343MOL0     C46208   0.059   2.831   1.268 -0.2126 -0.7974 -0.7140
  343MOL0     C46209  -0.062   2.919   1.240  0.6714  0.1463  0.3945
  343MOL0     C46210  -0.179   2.834   1.182 -0.4585  0.1363 -0.0322
  343MOL0     C46211  -0.319   2.889   1.201 -0.6004  0.5338  0.3895
  343MOL0     C46212  -0.334   3.001   1.088 -0.3580  0.1308 -0.0269
  343MOL0     C46213  -0.450   3.098   1.131  0.3379  0.1467 -0.6736
  343MOL0     C46214  -0.397   3.188   1.237  0.1781 -0.4600 -0.5109
  343MOL0    Cl46215  -0.533   3.298   1.289  0.0444  0.1996  0.1221
  343MOL0     C46216   0.358   3.169   1.149 -0.1073 -0.1567  0.0892
  343MOL0     C46217   0.482   3.221   1.112 -0.5876  0.1526  0.6060
  343MOL0     O46218   0.751   3.276   1.202  0.6355  0.4987  1.0996
  343MOL0     C46219   0.966   3.207   0.933 -0.2659  1.1324 -0.1689
  343MOL0     C46220   1.099   3.232   0.888  0.1896 -0.3432 -0.6618
  343MOL0     N46221   1.872   3.460   0.606 -0.2721  1.1681  0.3479
  343MOL0     N46222   1.978   3.438   0.673  0.2093  0.7879  0.1781
  343MOL0     C46223   2.889   2.830   0.754  0.0641 -0.2795  0.4337
  343MOL0     C46224   2.995   2.784   0.827 -0.5662 -0.4570 -0.6802
  343MOL0     C46225   3.258   2.690   1.164 -0.5479 -0.1926  0.0723
  343MOL0     C46226   3.388   2.746   1.148  0.1643  0.0101 -0.3457
  343MOL0     C46227   3.501   2.664   1.174  0.6507 -0.2645  0.0442
  343MOL0     C46228   3.490   2.559   1.268 -0.2209 -0.3455  0.6275
  343MOL0     O46229   3.598   2.493   1.320 -0.0663  0.7375 -0.0842
  343MOL0     C46230   3.720   2.566   1.336  0.5987 -0.2065  0.9847
  343MOL0     C46231   3.813   2.515   1.442  0.2302 -0.0993 -0.0068
  343MOL0     C46232   3.763   2.543   1.581 -0.5789 -0.1717  0.2919
  343MOL0     C46233   3.842   2.477   1.686  1.0268  0.2219 -0.0042
  343MOL0     C46234   3.978   2.529   1.698 -0.1968  0.2172 -0.6230
  343MOL0     C46235   4.093   2.563   1.727 -0.4571  0.7033  0.2867
  343MOL0     C46236   3.368   2.524   1.311  0.1746 -0.1630 -0.5618
  343MOL0     C46237   3.250   2.577   1.250 -0.1754  0.5932  0.2493
  343MOL0     H46238   3.035   3.061   1.014 -2.9007 -2.0691  2.7444
  343MOL0     H46239   2.844   3.132   0.888  1.5694  1.7438 -2.0389
  343MOL0     H46240   2.628   2.836   0.593  0.8324 -3.0226  1.5083
  343MOL0     H46241   2.614   2.817   0.759 -0.8963 -0.3502 -0.5220
  343MOL0     H46242   2.499   3.031   0.579  0.9039 -2.4872 -1.0661
  343MOL0     H46243   2.403   2.896   0.644  0.6312  0.3056 -0.6546
  343MOL0     H46244   2.461   2.992   0.884 -1.2718  1.9208  1.8612
  343MOL0     H46245   2.509   3.134   0.792  2.3059 -1.4980  0.7014
  343MOL0     H46246   2.272   3.116   0.666 -0.1034 -0.1229  0.8960
  343MOL0     H46247   2.239   2.981   0.759  2.2401 -1.4386 -1.9741
  343MOL0     H46248   2.294   3.137   0.966  0.9064  2.0307 -0.8196
  343MOL0     H46249   2.286   3.269   0.841 -0.6579  0.4402 -2.0577
  343MOL0     H46250   2.058   3.183   0.783 -4.6103 -0.8092  2.0610
  343MOL0     H46251   2.074   3.065   0.912  1.6683 -0.2396 -0.6907
  343MOL0     H46252   1.940   3.227   1.010 -0.9243  1.5624  0.6405
  343MOL0     H46253   2.109   3.262   1.067 -1.1906 -1.5543  1.0026
  343MOL0     H46254   2.140   3.418   0.865  0.7575  1.2329  1.6359
  343MOL0     H46255   2.023   3.466   0.997  0.3216 -1.2902  1.0154
  343MOL0     H46256   1.748   3.449   0.914 -0.8329 -0.0746  0.2978
  343MOL0     H46257   1.629   3.615   0.624 -0.0363  0.5064 -0.5812
  343MOL0     H46258   1.611   3.460   0.551 -1.6229 -0.3032  0.2830
  343MOL0     H46259   1.426   3.500   0.689 -0.3882 -1.0853  0.8047
  343MOL0     H46260   1.525   3.523   0.841 -0.3886 -2.9293  0.9071
  343MOL0     H46261   1.559   3.304   0.852  2.5126  0.9120 -0.5287
  343MOL0     H46262   1.536   3.264   0.686 -3.8079 -0.6550 -0.8789
  343MOL0     H46263   1.371   3.191   0.834  2.9479 -0.4846  0.2847
  343MOL0     H46264   1.308   3.291   0.695  0.4146 -1.6325 -0.4426
  343MOL0     H46265   1.173   3.494   1.084 -0.6794 -0.6560  2.0697
  343MOL0     H46266   0.830   3.511   1.149 -1.1688 -4.4845 -1.1610
  343MOL0     H46267   0.911   3.434   1.286 -1.6833  1.1980  0.3488
  343MOL0     H46268   0.992   3.568   1.206  2.2696 -1.0029 -0.1043
  343MOL0     H46269   0.596   2.940   0.957 -0.7164 -0.8949 -0.4782
  343MOL0     H46270   0.378   2.859   1.018  3.1737 -0.3383 -1.6758
  343MOL0     H46271   0.123   2.822   1.062 -1.4411 -1.1245  1.4835
  343MOL0     H46272   0.252   2.824   1.195 -0.2712  0.2080  1.1727
  343MOL0     H46273   0.035   2.725   1.272 -1.1552 -0.6519 -1.8299
  343MOL0     H46274   0.106   2.879   1.354  1.9916  0.4138 -2.4850
  343MOL0     H46275  -0.043   3.006   1.177  3.2601 -1.9397 -1.9609
  343MOL0     H46276  -0.094   2.950   1.340  0.5720 -1.1602  0.7858
  343MOL0     H46277  -0.157   2.820   1.075  0.7536  1.3883  0.0239
  343MOL0     H46278  -0.172   2.738   1.234 -1.2886 -0.4655 -0.9903
  343MOL0     H46279  -0.316   2.930   1.303  1.3796  1.6612 -0.0778
  343MOL0     H46280  -0.400   2.816   1.195 -1.8345  1.8198  0.8119
  343MOL0     H46281  -0.242   3.058   1.078 -1.4845  1.9804 -0.3891
  343MOL0     H46282  -0.352   2.948   0.994  0.5377  0.2327 -0.2649
  343MOL0     H46283  -0.528   3.039   1.180  1.9749 -3.4375 -2.0214
  343MOL0     H46284  -0.490   3.155   1.047 -2.0764  0.8423  0.8524
  343MOL0     H46285  -0.323   3.259   1.199  1.0009 -1.3804 -0.6686
  343MOL0     H46286  -0.344   3.142   1.321 -1.0475 -0.2094  0.4285
  343MOL0     H46287   0.291   3.227   1.213 -0.0618 -0.2424  0.2154
  343MOL0     H46288   0.516   3.320   1.141  2.6488 -1.2136  1.8367
  343MOL0     H46289   0.918   3.122   0.886 -0.9646  1.5696 -0.2594
  343MOL0     H46290   1.146   3.177   0.807  3.1802  1.1151 -0.0579
  343MOL0     H46291   2.839   2.763   0.684 -1.2490  0.5875  0.5051
  343MOL0     H46292   3.050   2.691   0.819  0.9380  0.3958 -0.5264
  343MOL0     H46293   3.408   2.820   1.071 -1.7419 -2.2058 -3.1882
  343MOL0     H46294   3.604   2.684   1.148  0.5766 -1.0260 -0.8972
  343MOL0     H46295   3.789   2.563   1.251  4.6215 -1.4585  3.9722
  343MOL0     H46296   3.690   2.670   1.354  0.3532 -0.0432 -0.3229
  343MOL0     H46297   3.916   2.551   1.437 -0.0504  0.8205  0.6442
  343MOL0     H46298   3.818   2.406   1.430 -0.7762 -0.7819  4.1738
  343MOL0     H46299   3.659   2.513   1.596 -0.6794 -0.1467 -0.3054
  343MOL0     H46300   3.775   2.650   1.602  0.3215 -0.3672  0.7875
  343MOL0     H46301   3.831   2.369   1.668  0.3484  0.2062  0.4830
  343MOL0     H46302   3.789   2.501   1.778 -0.7861 -0.4644 -0.8224
  343MOL0     H46303   4.191   2.584   1.765 -0.8022  0.8266  1.1378
  343MOL0     H46304   3.372   2.438   1.376  0.3590  0.9455  0.9321
  343MOL0     H46305   3.164   2.518   1.281  0.0703  0.6321  1.0435
  344MOL0     O46306   2.017  10.433   8.935 -0.2762  0.5094  0.1241
  344MOL0     C46307   2.062  10.538   8.981  0.1055  0.3786  0.2401
  344MOL0     O46308   2.002  10.661   8.964  0.1705 -0.1915  0.1509
  344MOL0     C46309   1.884  10.683   8.886 -0.0776 -0.6410 -0.2877
  344MOL0     C46310   1.774  10.599   8.859 -0.1142  0.2239  0.2617
  344MOL0     C46311   1.673  10.640   8.763 -1.1414 -0.0544  0.1101
  344MOL0     C46312   1.686  10.768   8.704 -0.2998 -0.1443  0.0071
  344MOL0     O46313   1.596  10.822   8.616  0.4827 -0.4371 -0.0305
  344MOL0     C46314   1.481  10.739   8.583 -0.1151 -0.3049  0.1382
  344MOL0     C46315   1.388  10.811   8.485 -0.0680  0.4356 -0.2176
  344MOL0     C46316   1.272  10.724   8.435 -0.6313  0.9107 -1.2555
  344MOL0     C46317   1.163  10.818   8.394 -0.4718 -0.3980  0.2900
  344MOL0     C46318   1.026  10.741   8.382 -0.5744  0.5283  0.4752
  344MOL0     C46319   0.921  10.830   8.321  0.0570 -0.2059  0.7593
  344MOL0     C46320   0.791  10.758   8.302  0.5007 -0.3227  0.7560
  344MOL0     C46321   0.667  10.851   8.253  0.3706  0.3714 -0.8229
  344MOL0     N46322   0.634  10.950   8.355  1.1470 -0.7355 -1.0222
  344MOL0     C46323   0.671  11.082   8.367 -0.1783  0.6642 -0.1111
  344MOL0     C46324   0.616  11.135   8.477 -0.0861 -0.0507 -0.4793
  344MOL0     C46325   0.638  11.268   8.538 -0.1574 -0.4978 -0.2615
  344MOL0     C46326   0.755  11.267   8.643 -0.2892  0.1388 -0.3811
  344MOL0     C46327   0.883  11.208   8.575 -0.4625  0.1658 -1.0190
  344MOL0     C46328   1.003  11.237   8.671 -0.7029  0.0733  0.2867
  344MOL0     O46329   1.116  11.166   8.616 -0.1778 -0.6482 -0.3985
  344MOL0     C46330   1.239  11.205   8.676 -0.6097 -0.6779  0.0288
  344MOL0     C46331   1.346  11.247   8.602  0.4517  0.3408 -1.0369
  344MOL0     C46332   1.468  11.289   8.657 -0.6615  0.4266  0.0648
  344MOL0     C46333   1.570  11.351   8.554 -0.6452  0.5748 -0.0939
  344MOL0     C46334   1.487  11.283   8.797  0.2743 -0.3047 -0.1618
  344MOL0     C46335   1.621  11.321   8.866  0.3465 -0.6084  0.0329
  344MOL0     O46336   1.618  11.330   9.006 -0.7091 -0.7905  0.1296
  344MOL0     C46337   1.732  11.338   9.086 -0.5278 -0.6444  0.4563
  344MOL0     C46338   1.854  11.274   9.048  0.6259 -0.1912 -0.1947
  344MOL0     C46339   1.975  11.283   9.121 -0.2851 -0.3344  0.1304
  344MOL0     C46340   1.974  11.364   9.234  0.4221  0.0222  0.2404
  344MOL0     O46341   2.093  11.381   9.302 -0.3496 -0.3337  0.0986
  344MOL0     C46342   2.147  11.520   9.309  0.9094  0.3030 -0.7178
  344MOL0     C46343   2.225  11.534   9.437 -0.3408  1.3320 -1.0218
  344MOL0     C46344   2.307  11.664   9.433 -0.4483 -0.3939 -0.2068
  344MOL0     C46345   2.408  11.683   9.538 -0.2113 -0.2620  0.6276
  344MOL0     C46346   2.526  11.589   9.532  0.4768  0.9100  0.1932
  344MOL0     C46347   2.622  11.604   9.646 -0.3567  0.7327 -0.3670
  344MOL0     C46348   2.714  11.483   9.666 -0.6001  0.1771 -0.8262
  344MOL0     C46349   2.847  11.521   9.727  0.2778 -0.6763  0.7161
  344MOL0    Cl46350   2.948  11.379   9.704 -0.1612 -0.1737 -0.0933
  344MOL0     C46351   1.853  11.414   9.276 -0.1225 -1.0370  0.7105
  344MOL0     C46352   1.736  11.401   9.208  0.2023 -0.1600 -0.6011
  344MOL0     O46353   1.725  11.319   8.797 -0.1079 -0.4673  0.0836
  344MOL0     C46354   1.382  11.225   8.877  0.2946 -0.1982  1.0418
  344MOL0     C46355   1.258  11.192   8.815 -0.1764  0.0323 -0.3533
  344MOL0     N46356   0.543  11.035   8.531  0.0561  0.6023 -0.2769
  344MOL0     N46357   0.551  10.926   8.460  0.0737 -0.8578  0.4520
  344MOL0     C46358   1.788  10.853   8.742  0.4189  0.7727 -0.6333
  344MOL0     C46359   1.877  10.815   8.840 -0.6862  0.5362 -0.4722
  344MOL0     C46360   2.184  10.522   9.061 -1.2723  0.6967  0.6011
  344MOL0     C46361   2.241  10.630   9.132 -0.2646  0.5144 -0.2731
  344MOL0     C46362   2.348  10.609   9.225 -0.7200 -0.3925  0.7132
  344MOL0     C46363   2.418  10.487   9.243  0.5541 -0.9971  1.1080
  344MOL0     O46364   2.512  10.471   9.336 -0.5053 -0.3741 -0.4320
  344MOL0     C46365   2.589  10.578   9.395  0.0722 -1.5270  0.1301
  344MOL0     C46366   2.673  10.676   9.301 -0.8776  0.3980 -0.6130
  344MOL0     C46367   2.710  10.616   9.171  0.0767 -0.3178  0.3838
  344MOL0     C46368   2.807  10.707   9.085 -0.1995 -0.4309 -0.4455
  344MOL0     C46369   2.860  10.634   8.972 -0.3473  0.7973  0.4887
  344MOL0     C46370   2.922  10.588   8.875  0.5203  0.4160 -0.9330
  344MOL0     C46371   2.365  10.388   9.160  0.1363  0.9796 -0.0779
  344MOL0     C46372   2.256  10.397   9.072  0.3678 -0.2418  0.4635
  344MOL0     H46373   1.777  10.499   8.900  3.3295 -0.2260 -0.7375
  344MOL0     H46374   1.593  10.569   8.749 -1.9904 -0.2322  4.5337
  344MOL0     H46375   1.508  10.646   8.533  2.2305 -0.8007  2.0899
  344MOL0     H46376   1.433  10.712   8.678 -1.7728  2.6737  0.2614
  344MOL0     H46377   1.345  10.905   8.522 -2.2896  0.9508 -3.7190
  344MOL0     H46378   1.448  10.846   8.401  1.6621  1.1086  1.2173
  344MOL0     H46379   1.302  10.656   8.355 -1.5782 -1.9363  0.6502
  344MOL0     H46380   1.230  10.671   8.521  2.7688  4.0675  2.8351
  344MOL0     H46381   1.147  10.907   8.455 -0.0841  0.7029 -1.1467
  344MOL0     H46382   1.193  10.852   8.294  3.8067  0.0479  1.5215
  344MOL0     H46383   1.030  10.651   8.319 -0.4906  0.0973  1.0915
  344MOL0     H46384   0.995  10.716   8.484 -3.1070  2.0808  0.1739
  344MOL0     H46385   0.908  10.918   8.385  0.0632 -1.0365  1.9417
  344MOL0     H46386   0.958  10.860   8.223 -0.0040 -1.2001  0.4172
  344MOL0     H46387   0.802  10.684   8.223  0.5079 -0.7707  1.1686
  344MOL0     H46388   0.757  10.708   8.394  0.7794  2.4550  2.5092
  344MOL0     H46389   0.584  10.782   8.237  1.8956 -2.3150  1.7400
  344MOL0     H46390   0.700  10.906   8.164  1.5362 -1.7284 -1.7744
  344MOL0     H46391   0.719  11.138   8.287 -2.9188  2.1239 -0.8513
  344MOL0     H46392   0.652  11.338   8.456  1.7428 -0.8567 -0.2715
  344MOL0     H46393   0.546  11.299   8.589  0.6183 -0.4176  1.1407
  344MOL0     H46394   0.722  11.215   8.733  0.5234 -1.7058 -1.0887
  344MOL0     H46395   0.763  11.367   8.687 -0.0708 -0.6707  1.4961
  344MOL0     H46396   0.903  11.243   8.474 -0.2353  1.3688 -0.5821
  344MOL0     H46397   0.871  11.100   8.576 -1.4464  0.2722 -0.7216
  344MOL0     H46398   0.971  11.202   8.770 -2.0048 -0.6404 -0.3617
  344MOL0     H46399   1.030  11.343   8.679  0.5154 -0.2298  0.2535
  344MOL0     H46400   1.329  11.249   8.495 -0.2670 -0.0279 -0.9320
  344MOL0     H46401   1.559  11.326   8.448 -2.7580  2.3874 -0.3812
  344MOL0     H46402   1.560  11.460   8.562  0.7911  0.9167 -2.2486
  344MOL0     H46403   1.671  11.322   8.584 -1.3722 -0.8075  1.1360
  344MOL0     H46404   1.857  11.217   8.955 -2.8797 -2.9033  1.1381
  344MOL0     H46405   2.066  11.234   9.086 -0.0630 -0.9098  1.4736
  344MOL0     H46406   2.209  11.525   9.218  2.7216 -0.6343  0.3936
  344MOL0     H46407   2.065  11.590   9.293  1.8669  1.8461  0.8395
  344MOL0     H46408   2.152  11.538   9.519  1.9986 -4.3592  1.8700
  344MOL0     H46409   2.295  11.451   9.438 -0.2968  1.3386  1.0600
  344MOL0     H46410   2.235  11.745   9.424 -0.2045  0.0777  1.5836
  344MOL0     H46411   2.362  11.674   9.339  0.6587  5.6661  0.6671
  344MOL0     H46412   2.456  11.780   9.522 -0.8397 -0.3238 -1.9934
  344MOL0     H46413   2.365  11.667   9.637 -1.5894 -2.5280 -0.2747
  344MOL0     H46414   2.577  11.586   9.435 -1.0288  1.5670 -0.6581
  344MOL0     H46415   2.483  11.489   9.544  0.2943  0.6888 -1.9005
  344MOL0     H46416   2.685  11.691   9.627  1.9345 -0.6362  0.5184
  344MOL0     H46417   2.567  11.610   9.740 -1.5190  1.9392 -1.0982
  344MOL0     H46418   2.743  11.441   9.570  0.1909  0.1148 -0.5720
  344MOL0     H46419   2.667  11.411   9.733  0.9895  0.5338  0.7732
  344MOL0     H46420   2.841  11.553   9.831  0.8316  2.4117 -0.0999
  344MOL0     H46421   2.888  11.604   9.669  0.7455 -1.7627 -0.5517
  344MOL0     H46422   1.838  11.475   9.364 -0.8740  2.1304 -1.4475
  344MOL0     H46423   1.640  11.439   9.243 -0.1122 -1.1498 -0.3436
  344MOL0     H46424   1.396  11.222   8.985 -1.9957 -0.0633  1.4010
  344MOL0     H46425   1.181  11.147   8.877 -0.0323  1.5686  1.0010
  344MOL0     H46426   1.791  10.957   8.711 -0.0897  0.9737 -0.0231
  344MOL0     H46427   1.962  10.879   8.859 -0.9391 -0.0907  3.6833
  344MOL0     H46428   2.194  10.725   9.110 -1.6588 -0.0708  0.0969
  344MOL0     H46429   2.376  10.699   9.279  0.4650  0.0171 -0.5135
  344MOL0     H46430   2.513  10.638   9.446 -0.2450 -2.1387  0.3982
  344MOL0     H46431   2.658  10.528   9.464  0.4065 -1.3657 -0.0844
  344MOL0     H46432   2.757  10.709   9.362 -0.4619  0.8367 -1.3994
  344MOL0     H46433   2.621  10.770   9.278  1.8957  2.3094  0.3414
  344MOL0     H46434   2.623  10.602   9.106  0.2961 -1.9636  0.4071
  344MOL0     H46435   2.755  10.522   9.204 -0.7708  0.0414  2.7895
  344MOL0     H46436   2.886  10.757   9.142  0.3675 -0.5042 -1.1650
  344MOL0     H46437   2.746  10.793   9.057  0.9602  0.4598 -0.3246
  344MOL0     H46438   2.995  10.577   8.798  1.4497  1.4116 -0.2308
  344MOL0     H46439   2.404  10.287   9.171  0.1600  1.1512  1.7994
  344MOL0     H46440   2.220  10.312   9.015  2.7968 -1.7373  1.0030
  345MOL0     O46441  10.126   5.311   0.810 -0.3161 -0.6766  0.2670
  345MOL0     C46442  10.118   5.417   0.873 -0.7522  0.3600 -0.9377
  345MOL0     O46443  10.011   5.468   0.930 -0.3913  0.3190 -0.6873
  345MOL0     C46444   9.888   5.403   0.933  0.2539 -0.3329 -0.2316
  345MOL0     C46445   9.831   5.343   0.821 -0.9710 -0.3909  0.2502
  345MOL0     C46446   9.701   5.293   0.821 -0.3213 -1.0668  0.7493
  345MOL0     C46447   9.624   5.301   0.936  0.2834  0.5976  0.4423
  345MOL0     O46448   9.500   5.233   0.939 -0.4726 -0.0296 -0.6423
  345MOL0     C46449   9.509   5.112   1.023  0.2216  0.1497  0.3555
  345MOL0     C46450   9.365   5.075   1.059 -0.2146  0.0887 -0.3024
  345MOL0     C46451   9.310   5.176   1.163  0.6146  0.8433 -0.0386
  345MOL0     C46452   9.152   5.171   1.150  1.0364 -1.1736 -0.0183
  345MOL0     C46453   9.088   5.278   1.234 -0.1953 -0.2064  0.3219
  345MOL0     C46454   8.940   5.259   1.257  0.0417  0.1199  0.9607
  345MOL0     C46455   8.873   5.356   1.353  0.6443 -0.5371 -0.7407
  345MOL0     C46456   8.722   5.356   1.355 -0.1794  0.0611 -0.1011
  345MOL0     N46457   8.669   5.440   1.252 -0.0740 -0.0556  0.6703
  345MOL0     C46458   8.572   5.537   1.262  0.6830 -0.8671  0.1164
  345MOL0     C46459   8.534   5.562   1.130  0.2120  0.2104  0.1899
  345MOL0     C46460   8.438   5.662   1.063 -0.8540  0.7957 -0.0296
  345MOL0     C46461   8.295   5.607   1.008 -0.5002  0.8911  0.5357
  345MOL0     C46462   8.220   5.722   0.945 -0.2078 -1.6251 -1.1593
  345MOL0     C46463   8.091   5.683   0.871  0.2548  0.2596 -0.2872
  345MOL0     O46464   8.002   5.594   0.951 -0.3755 -0.3173  0.3248
  345MOL0     C46465   7.911   5.638   1.041 -0.7972 -1.6248  0.1232
  345MOL0     C46466   7.862   5.768   1.042  0.3086  0.1021 -0.7949
  345MOL0     C46467   7.785   5.813   1.152  0.8411 -0.6752  0.3259
  345MOL0     C46468   7.729   5.962   1.161  0.1042  0.5504 -0.0979
  345MOL0     C46469   7.754   5.727   1.260 -0.9035  0.2461  0.1386
  345MOL0     C46470   7.679   5.764   1.382 -0.0876  0.2774 -0.6333
  345MOL0     O46471   7.699   5.691   1.483  0.0072 -0.9340 -0.3609
  345MOL0     C46472   7.704   5.741   1.609 -0.0573 -0.4435 -0.6709
  345MOL0     C46473   7.744   5.644   1.700  1.3005  0.1080  0.3508
  345MOL0     C46474   7.735   5.669   1.835  0.6167  0.2045  0.5253
  345MOL0     C46475   7.695   5.789   1.886  0.1299 -0.9034 -0.6771
  345MOL0     O46476   7.667   5.811   2.019  0.3675  0.5842 -0.3216
  345MOL0     C46477   7.763   5.897   2.075 -0.4198 -0.2101 -0.8262
  345MOL0     C46478   7.843   5.837   2.200 -0.1214 -0.1813  0.0844
  345MOL0     C46479   7.945   5.944   2.259 -0.1812  0.4617 -0.1254
  345MOL0     C46480   8.018   5.907   2.385  0.0804 -0.0219 -0.3802
  345MOL0     C46481   8.126   5.808   2.380 -1.0698  0.0289 -0.2157
  345MOL0     C46482   8.226   5.833   2.266 -0.4427 -0.0913 -0.2711
  345MOL0     C46483   8.302   5.967   2.269  0.4791  0.0151 -0.5101
  345MOL0     C46484   8.393   5.977   2.389  0.0467  0.1956  0.3933
  345MOL0    Cl46485   8.511   5.855   2.391  0.2600  0.1385 -0.6672
  345MOL0     C46486   7.651   5.889   1.798  0.5883 -0.0532  1.1556
  345MOL0     C46487   7.657   5.864   1.657  0.1802 -0.5008 -1.0205
  345MOL0     O46488   7.579   5.841   1.372  0.1944  0.0990 -0.0874
  345MOL0     C46489   7.811   5.593   1.257 -0.3633 -0.3508  0.0265
  345MOL0     C46490   7.883   5.555   1.149 -0.8688 -0.2523  0.5476
  345MOL0     N46491   8.608   5.483   1.044  0.2152  0.1984 -0.9804
  345MOL0     N46492   8.690   5.411   1.118 -0.2975 -0.5681  0.6091
  345MOL0     C46493   9.679   5.361   1.046  0.1140  0.8975  0.1367
  345MOL0     C46494   9.799   5.416   1.046  0.5644  0.1300  0.1857
  345MOL0     C46495  10.249   5.489   0.901  0.3322 -0.4636  0.2148
  345MOL0     C46496  10.244   5.602   0.986  0.6218 -0.6754  0.2326
  345MOL0     C46497  10.361   5.671   1.018 -0.3476 -0.3183 -0.9296
  345MOL0     C46498  10.484   5.634   0.970 -0.3253  1.1686  0.1369
  345MOL0     O46499  10.597   5.698   0.999 -0.8809 -0.7931 -0.0244
  345MOL0     C46500  10.598   5.822   1.073 -0.2996 -0.1071 -0.8081
  345MOL0     C46501  10.737   5.869   1.077 -1.2284  0.4419 -0.3472
  345MOL0     C46502  10.842   5.769   1.135 -0.4585 -0.4410  0.3140
  345MOL0     C46503  10.840   5.772   1.293  0.2071  1.2440 -0.1373
  345MOL0     C46504  10.731   5.687   1.347  0.2287 -0.2824 -0.1589
  345MOL0     C46505  10.635   5.638   1.400  0.6780  0.2819  0.5725
  345MOL0     C46506  10.489   5.514   0.899  0.3058 -0.4105  0.6985
  345MOL0     C46507  10.370   5.447   0.849 -0.6312  0.7195 -0.8155
  345MOL0     H46508   9.895   5.330   0.733 -1.2023  1.0390 -0.1580
  345MOL0     H46509   9.675   5.233   0.735  1.8026 -3.4893  1.6572
  345MOL0     H46510   9.561   5.031   0.971 -0.4547  1.2285 -2.1518
  345MOL0     H46511   9.571   5.139   1.109 -0.3747 -0.2096  0.9062
  345MOL0     H46512   9.307   5.081   0.967  0.2638  0.5840 -0.5815
  345MOL0     H46513   9.360   4.972   1.097 -2.0164  0.0865 -0.4931
  345MOL0     H46514   9.329   5.147   1.266  1.0828 -2.1797 -0.8530
  345MOL0     H46515   9.333   5.281   1.143  1.8349  0.5143 -0.4197
  345MOL0     H46516   9.128   5.200   1.048 -1.3539 -0.6937  0.6315
  345MOL0     H46517   9.111   5.074   1.179 -0.6453 -0.1783  1.1171
  345MOL0     H46518   9.132   5.282   1.335 -0.1049 -0.2177  0.2835
  345MOL0     H46519   9.097   5.371   1.178 -0.3775 -1.3394 -1.6649
  345MOL0     H46520   8.891   5.263   1.159 -0.3907  1.9912  1.2185
  345MOL0     H46521   8.910   5.162   1.298 -1.2656  0.9109  1.9497
  345MOL0     H46522   8.909   5.332   1.453  1.0892 -0.4256 -0.8694
  345MOL0     H46523   8.907   5.460   1.342  0.9603 -0.0082  3.5374
  345MOL0     H46524   8.687   5.401   1.449 -0.2819 -0.3777  0.0757
  345MOL0     H46525   8.678   5.255   1.351  0.1594 -0.4109  3.6662
  345MOL0     H46526   8.536   5.601   1.342 -0.5167  4.1656 -3.8962
  345MOL0     H46527   8.430   5.749   1.128  3.2422  2.3437 -1.2757
  345MOL0     H46528   8.489   5.714   0.981  0.1043  0.7960  0.5517
  345MOL0     H46529   8.238   5.562   1.090  0.0570 -3.4564 -1.2370
  345MOL0     H46530   8.324   5.539   0.928  1.6515  3.4912 -1.0866
  345MOL0     H46531   8.283   5.761   0.864  0.1700  1.0979  0.3116
  345MOL0     H46532   8.211   5.803   1.018  1.8679 -1.9015 -0.5380
  345MOL0     H46533   8.126   5.628   0.784  0.2003  1.9767 -1.4323
  345MOL0     H46534   8.032   5.770   0.842 -1.2983 -0.2958  0.9970
  345MOL0     H46535   7.869   5.835   0.957  0.7446 -1.2191 -1.8350
  345MOL0     H46536   7.766   6.008   1.253 -0.4209 -4.2891  2.9237
  345MOL0     H46537   7.752   6.033   1.082  0.4663 -0.3314 -0.7976
  345MOL0     H46538   7.621   5.950   1.146  0.0195  2.7274 -1.7497
  345MOL0     H46539   7.774   5.546   1.664 -1.2815 -0.5945 -0.1325
  345MOL0     H46540   7.770   5.580   1.885 -0.8214 -2.2735 -2.5567
  345MOL0     H46541   7.842   5.925   2.004  0.2415 -1.3248 -0.5725
  345MOL0     H46542   7.708   5.983   2.112 -0.4830  0.7319 -2.9786
  345MOL0     H46543   7.776   5.807   2.280 -1.9859 -1.3521 -1.8182
  345MOL0     H46544   7.902   5.747   2.181 -0.2864 -0.6202  1.5764
  345MOL0     H46545   7.882   6.030   2.285 -0.7540  0.4123 -1.3191
  345MOL0     H46546   8.020   5.964   2.182 -1.3345 -0.4545 -1.5246
  345MOL0     H46547   8.067   5.997   2.422  3.4926 -1.3248 -1.3991
  345MOL0     H46548   7.951   5.864   2.460 -0.8800 -0.2166 -1.3244
  345MOL0     H46549   8.088   5.707   2.362 -0.0713 -0.1941 -1.1713
  345MOL0     H46550   8.182   5.809   2.475 -2.9780  0.5282  0.9584
  345MOL0     H46551   8.290   5.745   2.258  0.5846  0.7833 -3.4937
  345MOL0     H46552   8.168   5.826   2.173 -1.4855  0.9092  0.2789
  345MOL0     H46553   8.237   6.055   2.261  0.3875  0.1992  1.6815
  345MOL0     H46554   8.376   5.965   2.189  2.6158  1.9892  1.2377
  345MOL0     H46555   8.321   5.980   2.470 -1.9142 -3.5687 -0.9653
  345MOL0     H46556   8.450   6.068   2.371  1.5646 -0.1390  3.0507
  345MOL0     H46557   7.606   5.979   1.838 -0.1628 -0.8391  2.1189
  345MOL0     H46558   7.622   5.944   1.594 -1.2156  0.9506  1.4451
  345MOL0     H46559   7.815   5.525   1.342  0.3480 -0.8198 -0.3753
  345MOL0     H46560   7.923   5.454   1.143  0.3721  0.2068  0.8232
  345MOL0     H46561   9.616   5.378   1.132  1.8128  1.7147  1.2894
  345MOL0     H46562   9.853   5.463   1.128 -1.8958 -0.4226  2.2414
  345MOL0     H46563  10.149   5.644   1.014 -0.9516 -0.9627 -3.9397
  345MOL0     H46564  10.351   5.758   1.083  0.9533  0.0185 -1.1514
  345MOL0     H46565  10.531   5.887   1.016  2.5099  3.1374 -0.7760
  345MOL0     H46566  10.563   5.815   1.176  3.6835  3.4641  1.1090
  345MOL0     H46567  10.743   5.961   1.136  0.0709 -1.2152  2.3223
  345MOL0     H46568  10.781   5.897   0.981  0.4814  3.0049  1.0629
  345MOL0     H46569  10.940   5.816   1.121 -1.3329  1.8970  1.5863
  345MOL0     H46570  10.832   5.667   1.097  3.9987 -0.2451 -2.1876
  345MOL0     H46571  10.827   5.875   1.328  0.8152  0.5328  2.4049
  345MOL0     H46572  10.935   5.730   1.327  0.7814  1.2610 -1.6374
  345MOL0     H46573  10.545   5.605   1.448  0.2644  1.1374  0.4026
  345MOL0     H46574  10.591   5.481   0.882  0.8733  0.0598  2.8670
  345MOL0     H46575  10.365   5.362   0.782 -1.7154  2.0595 -2.5120
  346MOL0     O46576   7.574   5.195   4.555 -0.2732  0.0758 -1.0015
  346MOL0     C46577   7.622   5.230   4.666  0.0240  0.1323 -0.9372
  346MOL0     O46578   7.547   5.278   4.770 -0.2837 -0.2342  0.1148
  346MOL0     C46579   7.414   5.303   4.755 -0.1580  0.7256  0.6988
  346MOL0     C46580   7.319   5.251   4.837  0.3132  0.0820  0.2310
  346MOL0     C46581   7.185   5.268   4.811  0.5249  0.0154  0.0592
  346MOL0     C46582   7.145   5.356   4.711  0.8664 -0.7144 -0.0214
  346MOL0     O46583   7.013   5.393   4.707  0.5799  0.1615  0.0862
  346MOL0     C46584   6.948   5.382   4.580 -0.3261 -0.4075  0.2719
  346MOL0     C46585   6.809   5.444   4.590 -0.3065  0.2826  0.6537
  346MOL0     C46586   6.741   5.419   4.458 -0.2938  0.0510  0.2779
  346MOL0     C46587   6.600   5.448   4.457  0.4935  0.1819 -0.0944
  346MOL0     C46588   6.508   5.323   4.438  0.2931 -0.2885 -0.9630
  346MOL0     C46589   6.361   5.362   4.437  0.2259  1.1634 -0.2589
  346MOL0     C46590   6.278   5.264   4.352 -0.1074 -0.6668  0.2434
  346MOL0     C46591   6.130   5.307   4.354  0.5332 -0.4433 -0.6128
  346MOL0     N46592   6.055   5.235   4.255 -0.4075  0.2872 -0.0109
  346MOL0     C46593   6.063   5.245   4.117  0.0762  0.3818 -0.3265
  346MOL0     C46594   5.966   5.181   4.061  0.7155  0.2387 -0.0622
  346MOL0     C46595   5.966   5.148   3.913  0.2502 -0.5248  0.0410
  346MOL0     C46596   5.829   5.118   3.851 -0.0246  0.1508  0.9184
  346MOL0     C46597   5.840   5.082   3.698  0.1624 -0.8219 -0.5469
  346MOL0     C46598   5.913   4.953   3.666 -1.0393 -0.3181  0.3678
  346MOL0     O46599   5.833   4.840   3.687 -0.9182 -0.2783 -0.4279
  346MOL0     C46600   5.874   4.723   3.627  0.5021 -1.3529  0.2612
  346MOL0     C46601   6.000   4.673   3.610 -0.5312 -0.9440  0.3121
  346MOL0     C46602   6.035   4.551   3.549  0.5116 -0.8114 -0.7799
  346MOL0     C46603   6.185   4.524   3.541 -0.9189 -0.1031 -0.1646
  346MOL0     C46604   5.937   4.466   3.505  0.4708 -0.8920 -0.2543
  346MOL0     C46605   5.961   4.329   3.449 -0.2433  0.2986 -0.4912
  346MOL0     O46606   5.862   4.234   3.459 -0.0467 -0.1452 -0.0166
  346MOL0     C46607   5.916   4.110   3.466  0.9897 -0.0383 -0.5320
  346MOL0     C46608   5.919   4.029   3.585 -0.7642  0.2865  0.8202
  346MOL0     C46609   5.988   3.909   3.585 -0.1023 -0.7497 -0.2483
  346MOL0     C46610   6.051   3.864   3.474 -1.0755 -1.0795 -0.9993
  346MOL0     O46611   6.121   3.747   3.489 -0.5607 -0.0953  0.6807
  346MOL0     C46612   6.263   3.790   3.480  0.2677  0.0744 -0.2160
  346MOL0     C46613   6.336   3.740   3.357  0.3719  0.0837 -0.0219
  346MOL0     C46614   6.344   3.587   3.359  0.3742 -0.3214 -0.3004
  346MOL0     C46615   6.483   3.538   3.388 -0.1276 -0.0882  0.1021
  346MOL0     C46616   6.489   3.383   3.364 -0.0972 -1.1913 -0.8220
  346MOL0     C46617   6.631   3.348   3.337  1.1110 -0.8715 -0.0015
  346MOL0     C46618   6.638   3.190   3.351  0.0779 -0.3528 -0.6759
  346MOL0     C46619   6.780   3.138   3.313 -0.1619  0.0227 -0.1931
  346MOL0    Cl46620   6.795   2.971   3.355 -0.3364 -0.1619 -0.2208
  346MOL0     C46621   6.050   3.937   3.358 -0.0522 -0.0987  0.3871
  346MOL0     C46622   5.970   4.052   3.355  0.1796 -0.0945  0.3699
  346MOL0     O46623   6.073   4.316   3.397 -0.1287 -0.7791 -0.3275
  346MOL0     C46624   5.804   4.514   3.526 -0.4306 -0.7565  0.4853
  346MOL0     C46625   5.766   4.634   3.585  0.2235  0.1632 -0.3405
  346MOL0     N46626   5.908   5.117   4.163  0.4159 -0.1753  0.6568
  346MOL0     N46627   5.958   5.149   4.274  0.1480 -0.2450  0.0670
  346MOL0     C46628   7.230   5.425   4.637 -0.1255 -0.6020  0.4674
  346MOL0     C46629   7.367   5.396   4.655 -0.4356  0.2938 -0.0438
  346MOL0     C46630   7.769   5.234   4.668 -0.5845 -0.7378 -0.8489
  346MOL0     C46631   7.836   5.270   4.787 -0.1388 -0.0054 -0.1964
  346MOL0     C46632   7.979   5.269   4.795 -0.9741 -0.1793  0.4850
  346MOL0     C46633   8.053   5.225   4.682 -0.1632  1.0801 -0.5414
  346MOL0     O46634   8.185   5.195   4.692 -0.9222  0.3511  0.0264
  346MOL0     C46635   8.239   5.160   4.819 -0.1933  0.0297 -0.0492
  346MOL0     C46636   8.390   5.121   4.802 -0.2255 -0.2943 -0.9285
  346MOL0     C46637   8.417   4.998   4.717 -0.5690 -0.9465  0.1312
  346MOL0     C46638   8.408   4.867   4.799 -0.8064  0.2632 -0.0349
  346MOL0     C46639   8.450   4.753   4.717 -0.8692 -0.2506  0.2961
  346MOL0     C46640   8.496   4.665   4.648 -0.2256  0.3192 -0.7986
  346MOL0     C46641   7.990   5.197   4.560 -0.2074  0.5537 -0.5359
  346MOL0     C46642   7.850   5.209   4.553 -0.3132  0.5402 -0.3500
  346MOL0     H46643   7.356   5.187   4.916  0.6749  0.7126  0.5795
  346MOL0     H46644   7.108   5.230   4.878  1.2519 -0.9995  0.3584
  346MOL0     H46645   7.000   5.437   4.501  0.7811 -1.9696 -0.1240
  346MOL0     H46646   6.957   5.276   4.554  3.3120 -0.7752  2.3441
  346MOL0     H46647   6.764   5.398   4.679  2.3324 -1.2534  1.3230
  346MOL0     H46648   6.819   5.552   4.607 -1.5882  0.8277 -1.7091
  346MOL0     H46649   6.788   5.484   4.384  3.6221 -2.5928  0.1406
  346MOL0     H46650   6.752   5.320   4.412  4.1837  1.1942 -1.6177
  346MOL0     H46651   6.568   5.487   4.555 -2.7065  3.0491 -2.0439
  346MOL0     H46652   6.576   5.527   4.386  1.2060  1.0597  0.6067
  346MOL0     H46653   6.532   5.274   4.344  2.0965 -2.2969  0.4637
  346MOL0     H46654   6.527   5.257   4.523  0.1718 -0.7785 -1.3153
  346MOL0     H46655   6.330   5.343   4.541 -1.9930 -1.9192 -1.3532
  346MOL0     H46656   6.353   5.469   4.416  1.4602  1.3245 -0.0362
  346MOL0     H46657   6.312   5.273   4.249  0.2289 -0.2737  0.3870
  346MOL0     H46658   6.287   5.158   4.380  2.1713 -0.3435  0.9419
  346MOL0     H46659   6.113   5.415   4.347 -0.2334 -0.6566 -2.9556
  346MOL0     H46660   6.089   5.276   4.450  1.8673 -1.1375 -0.2298
  346MOL0     H46661   6.133   5.307   4.061 -1.4658  2.0810 -0.4533
  346MOL0     H46662   6.020   5.219   3.849  0.0792  1.6994  2.2365
  346MOL0     H46663   6.022   5.054   3.909  0.0366 -0.6780  0.6157
  346MOL0     H46664   5.756   5.198   3.863 -0.2670 -0.0535  0.8167
  346MOL0     H46665   5.778   5.036   3.903  2.0062  0.1889  3.1941
  346MOL0     H46666   5.885   5.163   3.639 -2.0403 -0.1773 -1.4881
  346MOL0     H46667   5.739   5.070   3.656 -0.5518 -2.6205  1.5187
  346MOL0     H46668   6.006   4.941   3.723 -1.1536  0.7567  0.7900
  346MOL0     H46669   5.936   4.956   3.559 -0.7682  1.0259  0.4466
  346MOL0     H46670   6.082   4.738   3.639  2.1247 -3.1827 -1.6222
  346MOL0     H46671   6.236   4.545   3.447  2.4159  2.0764  1.8942
  346MOL0     H46672   6.227   4.597   3.612 -2.3395  3.5572 -2.7671
  346MOL0     H46673   6.220   4.423   3.565 -0.9126  0.2963  1.6632
  346MOL0     H46674   5.876   4.057   3.680 -2.7236  2.1160 -0.5250
  346MOL0     H46675   5.993   3.841   3.670 -3.1007 -1.0554 -0.2027
  346MOL0     H46676   6.278   3.897   3.501  1.0614 -0.1276  0.2995
  346MOL0     H46677   6.314   3.748   3.567  3.4735  2.4918 -0.7246
  346MOL0     H46678   6.281   3.767   3.267  0.5773  0.2461 -0.0982
  346MOL0     H46679   6.439   3.778   3.356  0.6621 -0.6465 -2.3854
  346MOL0     H46680   6.313   3.538   3.266  1.6195 -0.4082 -0.6796
  346MOL0     H46681   6.279   3.545   3.437 -1.7753 -1.7668 -2.7042
  346MOL0     H46682   6.553   3.591   3.322 -0.4532  0.5080  0.2326
  346MOL0     H46683   6.514   3.558   3.491 -0.6106 -0.7705  0.3926
  346MOL0     H46684   6.453   3.354   3.265  0.5557  2.0350 -2.1262
  346MOL0     H46685   6.448   3.331   3.451 -0.7917 -0.5957 -0.7780
  346MOL0     H46686   6.656   3.380   3.236  0.4081  2.4087  0.7641
  346MOL0     H46687   6.705   3.397   3.401 -2.7531  1.8883  2.8218
  346MOL0     H46688   6.563   3.130   3.298 -1.1518  0.0570  0.5629
  346MOL0     H46689   6.618   3.172   3.456 -2.6908  1.7892 -0.7198
  346MOL0     H46690   6.858   3.199   3.359  0.3295 -1.0514  0.4423
  346MOL0     H46691   6.801   3.138   3.205 -0.0476  2.4628 -0.2268
  346MOL0     H46692   6.100   3.902   3.269 -1.6711  0.0073 -0.5889
  346MOL0     H46693   5.969   4.110   3.264  2.5921  2.2635  1.7119
  346MOL0     H46694   5.730   4.442   3.495 -0.0520 -1.4410  1.1295
  346MOL0     H46695   5.662   4.662   3.594  0.5103  1.6895 -1.3663
  346MOL0     H46696   7.204   5.489   4.554 -0.6161 -1.4752 -0.0743
  346MOL0     H46697   7.437   5.446   4.589 -1.9795  0.0718 -1.9365
  346MOL0     H46698   7.790   5.300   4.881  1.9308 -0.9509  1.1915
  346MOL0     H46699   8.021   5.306   4.887 -2.3144 -1.0187  1.4678
  346MOL0     H46700   8.234   5.251   4.880 -0.0872  2.1328 -3.0059
  346MOL0     H46701   8.182   5.079   4.867  0.2626 -2.7252 -3.7157
  346MOL0     H46702   8.440   5.117   4.899  1.3814 -1.9465 -1.7659
  346MOL0     H46703   8.432   5.210   4.755 -3.0794  2.9242  1.9779
  346MOL0     H46704   8.523   4.992   4.688  0.5323 -1.6757  3.7140
  346MOL0     H46705   8.347   5.003   4.634  0.0210 -1.0655 -0.3797
  346MOL0     H46706   8.304   4.859   4.832 -0.9000 -1.9074 -0.6749
  346MOL0     H46707   8.474   4.873   4.886  0.6975 -0.3388 -1.1069
  346MOL0     H46708   8.537   4.585   4.589 -3.0337 -1.9988  0.1882
  346MOL0     H46709   8.051   5.163   4.477 -1.1855 -1.1387 -0.6074
  346MOL0     H46710   7.804   5.180   4.459  1.7974 -0.6455 -1.0909
  347MOL0     O46711   7.152   9.011   0.249  0.2711  0.3952 -0.7228
  347MOL0     C46712   7.207   9.069   0.158  0.2617 -0.3610 -0.3516
  347MOL0     O46713   7.145   9.173   0.085  0.0564 -0.3986  0.0278
  347MOL0     C46714   7.006   9.188   0.092 -0.3374  0.4182 -0.9867
  347MOL0     C46715   6.923   9.175   0.206 -0.7926  0.0947  0.5473
  347MOL0     C46716   6.780   9.188   0.180 -0.1295  0.2826  0.0613
  347MOL0     C46717   6.724   9.238   0.062 -0.2740 -0.1588 -0.4102
  347MOL0     O46718   6.590   9.252   0.058  1.1583 -0.1915 -0.4143
  347MOL0     C46719   6.546   9.381   0.057 -0.0140 -0.2062 -0.0610
  347MOL0     C46720   6.557   9.442   0.200  0.0004  0.7854 -0.1844
  347MOL0     C46721   6.516   9.589   0.204 -0.1745 -0.0664  0.9093
  347MOL0     C46722   6.499   9.640   0.345  0.2294 -0.4202 -0.3723
  347MOL0     C46723   6.511   9.788   0.368  0.4565  0.3076  0.0676
  347MOL0     C46724   6.421   9.861   0.259 -1.6855  0.1059  0.1512
  347MOL0     C46725   6.413  10.010   0.290 -1.1771  0.7033 -0.3607
  347MOL0     C46726   6.330  10.038   0.422 -0.0429  0.6064 -0.5151
  347MOL0     N46727   6.211   9.962   0.438  0.1664  0.4719 -0.5705
  347MOL0     C46728   6.199   9.845   0.513  0.4336 -1.0156 -0.1065
  347MOL0     C46729   6.075   9.797   0.486  0.4861  0.3861 -0.5482
  347MOL0     C46730   6.014   9.666   0.540 -0.7368  0.1805 -0.2276
  347MOL0     C46731   5.935   9.597   0.424  0.2037  0.3301  0.4618
  347MOL0     C46732   5.785   9.650   0.409 -0.1406  0.2440 -0.8360
  347MOL0     C46733   5.751   9.636   0.267 -0.2420  0.2363  0.0719
  347MOL0     O46734   5.737   9.496   0.236 -0.5158  0.6399 -0.2606
  347MOL0     C46735   5.607   9.442   0.264 -1.1997  0.9696  1.1095
  347MOL0     C46736   5.500   9.501   0.330  1.2496 -0.6550  0.2460
  347MOL0     C46737   5.375   9.432   0.351 -0.2265 -0.0444  0.6149
  347MOL0     C46738   5.271   9.502   0.442 -0.8145 -0.1334  0.8568
  347MOL0     C46739   5.349   9.314   0.277  0.1893  0.0940 -0.5924
  347MOL0     C46740   5.215   9.239   0.278 -1.2220 -0.2005 -0.4516
  347MOL0     O46741   5.125   9.268   0.373  0.1909  0.0906 -0.1363
  347MOL0     C46742   5.013   9.201   0.356 -0.5628 -0.0342 -0.3298
  347MOL0     C46743   4.987   9.065   0.400  0.1027  0.3853 -0.1042
  347MOL0     C46744   4.852   9.028   0.387  0.2453  1.0719  0.0410
  347MOL0     C46745   4.751   9.107   0.327 -0.2536 -0.0101 -0.8854
  347MOL0     O46746   4.626   9.054   0.316  0.4478 -0.0300 -0.2658
  347MOL0     C46747   4.516   9.142   0.280 -0.5535 -0.5346  0.4096
  347MOL0     C46748   4.384   9.081   0.306  0.4330 -0.3438 -0.3311
  347MOL0     C46749   4.352   8.977   0.197 -0.1762  0.0880 -0.0206
  347MOL0     C46750   4.211   8.911   0.225 -0.1481  0.0767  0.3719
  347MOL0     C46751   4.166   8.809   0.120 -0.1385  0.2502  0.4516
  347MOL0     C46752   4.028   8.750   0.137  0.2831  0.4305 -0.1976
  347MOL0     C46753   3.984   8.664   0.019  0.5181 -0.7716  0.1393
  347MOL0     C46754   3.844   8.606   0.035  0.6718  0.9349 -1.1935
  347MOL0    Cl46755   3.737   8.747   0.013 -0.2501 -0.1022  0.0356
  347MOL0     C46756   4.783   9.237   0.302  0.0292 -0.3606 -1.3869
  347MOL0     C46757   4.911   9.286   0.309  0.8099 -0.1746 -0.4308
  347MOL0     O46758   5.221   9.145   0.201  0.3058 -0.0998 -0.4438
  347MOL0     C46759   5.451   9.262   0.199 -0.1590 -0.1085 -0.2187
  347MOL0     C46760   5.583   9.319   0.201 -0.1243  0.0372  0.3365
  347MOL0     N46761   6.010   9.888   0.406 -0.5035  0.4270 -0.9537
  347MOL0     N46762   6.093   9.979   0.372  0.1071 -0.1343  0.0786
  347MOL0     C46763   6.809   9.256  -0.042 -0.1821 -0.5398 -0.0168
  347MOL0     C46764   6.949   9.247  -0.027 -0.6090  0.2411  0.3933
  347MOL0     C46765   7.346   9.021   0.114 -0.2721  0.4415 -0.3216
  347MOL0     C46766   7.419   8.926   0.181 -0.4792 -0.4416 -0.4504
  347MOL0     C46767   7.554   8.900   0.144 -0.6100 -0.0249 -0.1120
  347MOL0     C46768   7.607   8.948   0.024  0.1255 -0.2567  0.7599
  347MOL0     O46769   7.725   8.927  -0.035 -0.3700 -0.3246 -0.3223
  347MOL0     C46770   7.835   8.873   0.046  0.1790  0.6710  0.9942
  347MOL0     C46771   7.887   8.969   0.148 -0.2450 -0.2671 -0.2087
  347MOL0     C46772   8.033   8.937   0.189  0.4132  0.5022 -0.8954
  347MOL0     C46773   8.056   9.001   0.330 -0.1149  0.0693 -0.4085
  347MOL0     C46774   8.200   8.983   0.364  0.3638  0.6658 -0.2043
  347MOL0     C46775   8.322   8.953   0.382 -0.3113 -0.0467  0.0835
  347MOL0     C46776   7.516   9.033  -0.058  1.0008  0.3934 -0.0159
  347MOL0     C46777   7.390   9.072  -0.014  0.4441  0.3813 -0.0371
  347MOL0     H46778   6.961   9.125   0.295 -0.4137 -1.0731 -0.2357
  347MOL0     H46779   6.708   9.179   0.260  2.2728 -1.7481  2.1759
  347MOL0     H46780   6.606   9.442  -0.011 -0.3319 -0.1713 -0.3093
  347MOL0     H46781   6.441   9.387   0.029  0.6301 -1.0798 -3.1020
  347MOL0     H46782   6.488   9.382   0.260  1.3373 -1.1039 -0.4455
  347MOL0     H46783   6.655   9.432   0.249 -0.3802  0.7386  0.5830
  347MOL0     H46784   6.594   9.644   0.150 -2.1310  0.8151 -1.1536
  347MOL0     H46785   6.426   9.593   0.142 -0.4029 -0.8572  1.1777
  347MOL0     H46786   6.398   9.613   0.380 -0.8930  1.2632 -2.0799
  347MOL0     H46787   6.566   9.584   0.409  1.2883 -2.4754 -3.1111
  347MOL0     H46788   6.473   9.805   0.469  1.2486  0.0368  0.4196
  347MOL0     H46789   6.618   9.812   0.363  0.3640  0.5896 -0.7726
  347MOL0     H46790   6.468   9.854   0.161 -0.0669  0.3232  0.8630
  347MOL0     H46791   6.324   9.813   0.244 -0.8645 -0.8262 -2.8468
  347MOL0     H46792   6.512  10.054   0.299 -0.2179 -1.6986  2.4533
  347MOL0     H46793   6.358  10.060   0.210 -2.4190 -0.5504 -0.3249
  347MOL0     H46794   6.315  10.146   0.412 -2.5156  0.2497 -1.1179
  347MOL0     H46795   6.397  10.021   0.507  2.9132  2.0617 -2.3853
  347MOL0     H46796   6.272   9.789   0.570  1.6494  0.0636 -0.5801
  347MOL0     H46797   6.095   9.598   0.564  2.1064  1.7328 -4.3398
  347MOL0     H46798   5.942   9.673   0.623 -0.9627 -2.3190 -0.1569
  347MOL0     H46799   5.921   9.488   0.429  0.6545  0.0451 -2.4116
  347MOL0     H46800   5.994   9.607   0.332 -3.7142 -0.5738 -2.4048
  347MOL0     H46801   5.765   9.748   0.453 -1.5391 -0.2584 -0.2794
  347MOL0     H46802   5.727   9.582   0.472  2.4024 -0.0826  1.3153
  347MOL0     H46803   5.821   9.687   0.201  0.3857  0.2703  0.7460
  347MOL0     H46804   5.662   9.695   0.244  0.7512  2.6707  1.9898
  347MOL0     H46805   5.517   9.586   0.394  0.5180 -1.0298  0.9483
  347MOL0     H46806   5.173   9.519   0.397 -3.0499 -3.7214  3.7089
  347MOL0     H46807   5.254   9.431   0.524  3.0845 -0.2476  1.7638
  347MOL0     H46808   5.315   9.593   0.483 -0.7035  0.6176 -0.8554
  347MOL0     H46809   5.067   9.013   0.451  1.5324  1.3554 -1.2995
  347MOL0     H46810   4.820   8.930   0.423 -0.7191  1.6327  0.7278
  347MOL0     H46811   4.529   9.229   0.346 -0.8976 -0.4690  0.3920
  347MOL0     H46812   4.522   9.172   0.175 -0.7607  0.3986  0.6535
  347MOL0     H46813   4.385   9.032   0.403  0.6535 -1.0115 -0.6660
  347MOL0     H46814   4.311   9.161   0.323  0.5244  0.1500 -2.0082
  347MOL0     H46815   4.425   8.896   0.193 -1.6210 -1.2049 -0.8110
  347MOL0     H46816   4.340   9.026   0.100  1.2100  0.2070 -0.1643
  347MOL0     H46817   4.221   8.853   0.317  3.1329 -0.5800 -0.2581
  347MOL0     H46818   4.135   8.990   0.222  1.2306  1.4319 -0.8581
  347MOL0     H46819   4.244   8.732   0.118  0.3002  0.6450  1.4907
  347MOL0     H46820   4.163   8.863   0.025 -1.2660 -2.2948 -1.0568
  347MOL0     H46821   4.041   8.689   0.227 -0.2014  0.7920  0.1206
  347MOL0     H46822   3.954   8.828   0.156  0.4636  1.2366 -2.4513
  347MOL0     H46823   4.054   8.581   0.003 -0.2852 -1.3609 -0.3825
  347MOL0     H46824   3.993   8.726  -0.071  2.1815  2.0081  2.0856
  347MOL0     H46825   3.825   8.567   0.135 -2.6118  0.9361 -1.6841
  347MOL0     H46826   3.825   8.525  -0.037 -1.9168 -0.3188  0.7448
  347MOL0     H46827   4.715   9.313   0.266  0.2801  0.2781 -0.5309
  347MOL0     H46828   4.926   9.391   0.290 -0.4965 -0.2399 -2.0877
  347MOL0     H46829   5.433   9.169   0.147 -1.4233 -0.8216  1.4018
  347MOL0     H46830   5.658   9.284   0.131 -1.6431  0.4341 -1.5909
  347MOL0     H46831   6.777   9.295  -0.139  2.8896 -0.0946 -0.9588
  347MOL0     H46832   7.017   9.258  -0.110 -0.7890 -0.0772  0.2041
  347MOL0     H46833   7.380   8.891   0.276  0.0562 -1.0236 -0.4377
  347MOL0     H46834   7.610   8.847   0.220 -0.2677  4.0255  2.8208
  347MOL0     H46835   7.798   8.781   0.093 -5.1610  1.0100 -1.8069
  347MOL0     H46836   7.913   8.835  -0.020 -1.6768 -2.0355  0.1917
  347MOL0     H46837   7.809   8.975   0.224  1.7634  1.5964  1.8437
  347MOL0     H46838   7.888   9.073   0.114  0.7406 -0.5445 -1.0793
  347MOL0     H46839   8.103   8.981   0.117  0.5673  0.5119 -0.7430
  347MOL0     H46840   8.057   8.830   0.192  0.2343  0.4490 -1.3376
  347MOL0     H46841   7.996   8.949   0.405 -0.3252  2.2975  1.0476
  347MOL0     H46842   8.035   9.108   0.332  0.9795  0.3591 -2.0167
  347MOL0     H46843   8.425   8.929   0.400 -0.7379 -3.3810 -1.3268
  347MOL0     H46844   7.547   9.076  -0.153  2.3985 -0.4291  0.0373
  347MOL0     H46845   7.334   9.144  -0.073 -0.4908 -1.6920 -1.7930
  348MOL0     O46846   5.939   0.047   3.929 -0.3107  0.2899  0.3424
  348MOL0     C46847   6.011   0.107   4.013  0.2659  1.2708  0.9348
  348MOL0     O46848   5.969   0.135   4.147  0.7984  0.3228 -0.2512
  348MOL0     C46849   5.836   0.114   4.178 -0.7626 -0.5828 -0.5111
  348MOL0     C46850   5.818   0.068   4.307  0.5110  0.8630 -0.1370
  348MOL0     C46851   5.685   0.049   4.366 -0.1418 -0.5115  0.4317
  348MOL0     C46852   5.576   0.076   4.281 -0.0377 -0.2305  0.2257
  348MOL0     O46853   5.455   0.027   4.326 -0.2724  0.1340  0.2660
  348MOL0     C46854   5.344   0.042   4.242  0.5996 -0.2400 -0.4982
  348MOL0     C46855   5.223   0.054   4.329 -0.8058  0.2605 -0.5814
  348MOL0     C46856   5.113   0.117   4.261 -0.7787 -1.0429 -0.2874
  348MOL0     C46857   5.010   0.137   4.369 -0.6892 -0.9115  0.5507
  348MOL0     C46858   4.885   0.194   4.301  0.4794  1.0131 -0.0320
  348MOL0     C46859   4.803   0.078   4.237 -0.0345  0.2625 -0.3197
  348MOL0     C46860   4.651   0.112   4.242  0.4346  0.2337  1.0226
  348MOL0     C46861   4.572   0.019   4.142  0.0687 -0.1150 -0.1536
  348MOL0     N46862   4.517  -0.105   4.201  0.6318  0.2864  0.3533
  348MOL0     C46863   4.411  -0.167   4.145  0.5376  0.3965 -0.4263
  348MOL0     C46864   4.447  -0.294   4.149  0.2594  0.5532  0.1591
  348MOL0     C46865   4.388  -0.429   4.105  1.1546 -0.5778 -0.0197
  348MOL0     C46866   4.357  -0.512   4.229  0.2289 -0.1515  0.8986
  348MOL0     C46867   4.281  -0.624   4.162 -0.8402  0.0492 -0.4655
  348MOL0     C46868   4.241  -0.732   4.259 -0.4061  0.1093  0.7019
  348MOL0     O46869   4.352  -0.793   4.328 -0.2362 -0.1172 -0.3243
  348MOL0     C46870   4.330  -0.834   4.461  0.0129  0.5516  0.0323
  348MOL0     C46871   4.214  -0.906   4.501  0.1823 -0.2061 -0.0547
  348MOL0     C46872   4.192  -0.939   4.640  0.1540 -0.5833  0.9030
  348MOL0     C46873   4.056  -1.008   4.680 -0.9723  0.1359 -0.3417
  348MOL0     C46874   4.283  -0.893   4.735  0.7227  0.4081 -0.0733
  348MOL0     C46875   4.284  -0.922   4.881  0.0089  1.0045 -0.2852
  348MOL0     O46876   4.352  -0.845   4.969 -0.1883 -0.2719 -0.0568
  348MOL0     C46877   4.376  -0.891   5.092 -0.2253  1.1780 -0.4608
  348MOL0     C46878   4.446  -1.008   5.116  0.2803 -0.2585  0.7746
  348MOL0     C46879   4.487  -1.031   5.244 -0.7658  0.7150  0.1821
  348MOL0     C46880   4.464  -0.944   5.350  0.1920 -0.4062 -0.0348
  348MOL0     O46881   4.507  -0.951   5.478 -0.0691  0.4632  0.1517
  348MOL0     C46882   4.621  -1.039   5.511  0.0336 -0.5310 -0.0695
  348MOL0     C46883   4.688  -1.023   5.644 -0.5941 -0.4205 -0.2750
  348MOL0     C46884   4.828  -1.095   5.673 -1.7275 -0.1738 -0.1884
  348MOL0     C46885   4.903  -1.008   5.769  0.0220  0.3713 -0.4770
  348MOL0     C46886   5.040  -1.074   5.821  0.5039 -0.1178  0.2388
  348MOL0     C46887   5.142  -1.067   5.708 -0.8272 -0.3183  0.2252
  348MOL0     C46888   5.280  -1.127   5.733  1.0149 -0.2714 -0.4680
  348MOL0     C46889   5.285  -1.277   5.761 -0.1131  0.7881 -0.3008
  348MOL0    Cl46890   5.253  -1.317   5.935 -0.1392 -0.0552 -0.3853
  348MOL0     C46891   4.397  -0.830   5.316 -0.6929  0.2299 -0.2049
  348MOL0     C46892   4.355  -0.798   5.192 -0.2952 -0.2378 -0.0923
  348MOL0     O46893   4.231  -1.025   4.912  0.3027 -0.1387  0.7750
  348MOL0     C46894   4.389  -0.811   4.697 -0.0109 -0.2676  0.6416
  348MOL0     C46895   4.423  -0.793   4.563  0.0653  0.4554 -0.0917
  348MOL0     N46896   4.567  -0.311   4.218 -0.6987 -0.6876  0.7035
  348MOL0     N46897   4.605  -0.198   4.255  0.1946 -0.4611  0.0458
  348MOL0     C46898   5.598   0.140   4.158  0.3999 -0.2314 -0.0815
  348MOL0     C46899   5.733   0.163   4.103 -0.3173 -0.1312 -0.0850
  348MOL0     C46900   6.144   0.153   3.974 -0.3213 -0.4347 -0.0828
  348MOL0     C46901   6.157   0.200   3.844  0.2830  0.3468 -0.1367
  348MOL0     C46902   6.286   0.233   3.795  1.3299  0.2810 -0.1885
  348MOL0     C46903   6.397   0.240   3.878  0.6452 -0.4328 -0.1042
  348MOL0     O46904   6.523   0.285   3.843 -0.5676 -0.7211  0.4131
  348MOL0     C46905   6.562   0.270   3.706  0.1313  0.6482 -0.1306
  348MOL0     C46906   6.714   0.273   3.681  0.6173  0.3861 -0.3711
  348MOL0     C46907   6.767   0.411   3.706 -0.3419  0.4235  0.3233
  348MOL0     C46908   6.913   0.425   3.641  0.0062  0.4962 -0.5017
  348MOL0     C46909   7.015   0.351   3.714 -0.5567 -0.3301 -0.8499
  348MOL0     C46910   7.099   0.288   3.782  0.3987 -0.0449  0.0548
  348MOL0     C46911   6.379   0.200   4.013 -0.2225 -0.6425  0.7279
  348MOL0     C46912   6.258   0.155   4.058  0.2675 -0.3947 -0.2374
  348MOL0     H46913   5.910   0.037   4.356  0.7688 -2.0877 -2.1836
  348MOL0     H46914   5.673   0.012   4.467 -3.0567  1.0383  0.7674
  348MOL0     H46915   5.349   0.136   4.186 -0.4469 -0.0058 -0.2278
  348MOL0     H46916   5.340  -0.032   4.162  1.3198 -0.6941 -0.1252
  348MOL0     H46917   5.199  -0.046   4.366  1.9543  0.0981  1.0020
  348MOL0     H46918   5.251   0.111   4.418 -1.4228 -0.9444  0.4097
  348MOL0     H46919   5.139   0.214   4.218  2.5841 -1.7008 -0.0615
  348MOL0     H46920   5.065   0.052   4.187 -3.0129  0.1197  0.0652
  348MOL0     H46921   4.991   0.043   4.422  0.4746 -3.2204 -2.8255
  348MOL0     H46922   5.054   0.200   4.447 -1.0144 -1.4399  1.1659
  348MOL0     H46923   4.821   0.241   4.377 -0.6673 -0.6331  0.0743
  348MOL0     H46924   4.904   0.270   4.225 -0.6005 -0.1077 -1.4844
  348MOL0     H46925   4.839   0.061   4.135  2.3696 -0.9358  0.6182
  348MOL0     H46926   4.825  -0.014   4.294  0.3373  0.5510  0.0121
  348MOL0     H46927   4.610   0.113   4.344  2.1586 -0.5667  1.7739
  348MOL0     H46928   4.638   0.212   4.200  0.2341 -0.2982 -0.2337
  348MOL0     H46929   4.634  -0.013   4.058  1.0502 -3.9409  1.7798
  348MOL0     H46930   4.486   0.074   4.102  1.0461  1.5106 -0.0731
  348MOL0     H46931   4.325  -0.120   4.098  0.0219 -1.3880 -1.3692
  348MOL0     H46932   4.310  -0.404   4.033 -1.4382 -1.6965  2.2299
  348MOL0     H46933   4.471  -0.467   4.044  3.2728  2.1031  0.9888
  348MOL0     H46934   4.301  -0.449   4.299 -3.6575 -1.1777 -0.9872
  348MOL0     H46935   4.446  -0.552   4.278 -0.1433 -0.4395  1.3551
  348MOL0     H46936   4.344  -0.668   4.085  0.5880 -2.2045  1.8122
  348MOL0     H46937   4.191  -0.594   4.108 -1.7875 -1.7011  0.0377
  348MOL0     H46938   4.194  -0.816   4.207  2.5790 -1.3159  0.1017
  348MOL0     H46939   4.174  -0.688   4.333 -1.1594  0.7404 -0.3287
  348MOL0     H46940   4.146  -0.953   4.431  1.0953 -0.8504 -0.5211
  348MOL0     H46941   4.083  -1.108   4.717  1.8706  1.0766  0.4144
  348MOL0     H46942   3.995  -0.947   4.747 -0.8818  1.3920 -1.3664
  348MOL0     H46943   3.995  -1.026   4.591  1.5108  1.2971 -2.4136
  348MOL0     H46944   4.469  -1.074   5.033 -1.9189 -0.3549  0.1622
  348MOL0     H46945   4.545  -1.119   5.269  0.5127  1.4008 -0.2689
  348MOL0     H46946   4.596  -1.146   5.513 -0.1575 -0.4896 -0.1912
  348MOL0     H46947   4.696  -1.032   5.432  1.2051  0.8229  1.1181
  348MOL0     H46948   4.703  -0.916   5.660 -2.7378 -0.2739  1.2189
  348MOL0     H46949   4.623  -1.044   5.730  0.6812 -0.7739  0.6373
  348MOL0     H46950   4.892  -1.100   5.585 -0.5656 -0.5529  0.6603
  348MOL0     H46951   4.825  -1.192   5.722  0.3863  1.3168  3.2779
  348MOL0     H46952   4.916  -0.914   5.714 -4.4190  2.2450  1.1949
  348MOL0     H46953   4.834  -0.984   5.850  0.1528  1.1232 -0.5844
  348MOL0     H46954   5.027  -1.175   5.861 -1.9144 -0.7932 -1.9798
  348MOL0     H46955   5.079  -1.027   5.911  1.3080  0.4371 -0.3864
  348MOL0     H46956   5.112  -1.117   5.615  5.2520 -0.8925 -1.8807
  348MOL0     H46957   5.149  -0.963   5.677  2.2695 -0.6640 -0.5106
  348MOL0     H46958   5.322  -1.073   5.818  3.1230 -2.2901 -0.1192
  348MOL0     H46959   5.342  -1.116   5.643  1.9422 -0.2294  0.1634
  348MOL0     H46960   5.375  -1.321   5.717  0.1281 -0.0790  1.0231
  348MOL0     H46961   5.208  -1.320   5.697 -0.2515 -3.4272  2.3640
  348MOL0     H46962   4.369  -0.769   5.401 -0.6204 -0.0133 -0.0033
  348MOL0     H46963   4.297  -0.706   5.187  0.3756  0.2247  0.3800
  348MOL0     H46964   4.455  -0.775   4.776  0.0535 -0.2523  0.5810
  348MOL0     H46965   4.517  -0.744   4.543  1.5476 -0.6100  3.4813
  348MOL0     H46966   5.528   0.189   4.092  0.9789  1.5638  0.5548
  348MOL0     H46967   5.761   0.208   4.008  1.8735 -0.5522  0.3013
  348MOL0     H46968   6.073   0.201   3.776  0.6702 -1.8786 -0.7271
  348MOL0     H46969   6.298   0.280   3.698  1.9736  0.1326 -0.1794
  348MOL0     H46970   6.545   0.166   3.677 -1.5684  1.4173 -2.0948
  348MOL0     H46971   6.513   0.341   3.640  1.1107 -0.7013 -2.4190
  348MOL0     H46972   6.719   0.224   3.584  0.0744 -0.1522 -0.1337
  348MOL0     H46973   6.756   0.195   3.745 -2.4362 -1.1099  0.0073
  348MOL0     H46974   6.761   0.441   3.811  1.6768  1.4623  0.1957
  348MOL0     H46975   6.697   0.479   3.656  1.5191  3.0544  1.0748
  348MOL0     H46976   6.937   0.531   3.633 -3.7692  1.3483 -3.8825
  348MOL0     H46977   6.899   0.381   3.542 -0.1480 -3.2121  0.9976
  348MOL0     H46978   7.163   0.223   3.838 -1.6989 -3.0636 -0.7857
  348MOL0     H46979   6.469   0.207   4.073  1.2510 -0.7569 -1.3272
  348MOL0     H46980   6.258   0.116   4.160 -0.3168 -0.6882 -0.3442
  349MOL0     O46981   0.203   3.200   4.698 -0.4210  0.2195  0.2282
  349MOL0     C46982   0.131   3.111   4.664  0.1963 -0.1816  0.9345
  349MOL0     O46983   0.002   3.122   4.610 -0.4283 -0.4331 -0.4356
  349MOL0     C46984  -0.062   3.238   4.611  0.5475 -0.1610  0.5608
  349MOL0     C46985  -0.152   3.262   4.716  0.5207  0.2440 -0.2486
  349MOL0     C46986  -0.239   3.370   4.719  0.5673  0.2163 -0.4329
  349MOL0     C46987  -0.246   3.448   4.607  0.1165  0.9713  0.0679
  349MOL0     O46988  -0.330   3.553   4.589  0.2804  0.2701 -1.1527
  349MOL0     C46989  -0.413   3.596   4.696 -0.0451  0.1264 -0.5078
  349MOL0     C46990  -0.522   3.690   4.649  0.7233 -0.1248 -0.0148
  349MOL0     C46991  -0.611   3.741   4.760  0.0474  0.0850 -0.3816
  349MOL0     C46992  -0.710   3.849   4.731  0.5251  0.0917  0.3135
  349MOL0     C46993  -0.813   3.861   4.839 -0.5145  0.1223  0.3008
  349MOL0     C46994  -0.910   3.975   4.799 -0.0528  0.3769  0.3101
  349MOL0     C46995  -1.012   3.943   4.685  0.2830 -0.6363 -0.1924
  349MOL0     C46996  -1.127   3.863   4.751 -0.1673 -0.0824 -0.7407
  349MOL0     N46997  -1.207   3.775   4.670 -0.1656 -0.0949  0.6913
  349MOL0     C46998  -1.227   3.784   4.538  0.3273 -0.6730  0.4550
  349MOL0     C46999  -1.336   3.705   4.512 -0.5408 -0.8875 -0.3647
  349MOL0     C47000  -1.396   3.662   4.384  0.3049 -0.3558  0.3757
  349MOL0     C47001  -1.535   3.734   4.376 -0.5846 -0.2044  0.0327
  349MOL0     C47002  -1.607   3.690   4.246 -0.9242 -0.0152 -0.5910
  349MOL0     C47003  -1.748   3.754   4.250  0.1405  0.4667 -0.6707
  349MOL0     O47004  -1.839   3.678   4.167  0.0283 -0.1729  0.1762
  349MOL0     C47005  -1.971   3.717   4.172  0.1060  0.7925  0.1802
  349MOL0     C47006  -2.027   3.832   4.224  0.4435 -0.2778 -0.1285
  349MOL0     C47007  -2.168   3.847   4.236 -0.0409 -0.1024  1.0593
  349MOL0     C47008  -2.231   3.967   4.315  0.0104  0.3561 -0.1980
  349MOL0     C47009  -2.265   3.753   4.177 -0.5582  0.1741 -0.3908
  349MOL0     C47010  -2.411   3.766   4.172 -0.5598 -0.1906  0.5576
  349MOL0     O47011  -2.489   3.657   4.189  0.4760  0.4390 -0.0812
  349MOL0     C47012  -2.626   3.670   4.156 -0.3095 -0.2177 -1.0488
  349MOL0     C47013  -2.657   3.694   4.023 -0.5093  0.2303  0.6219
  349MOL0     C47014  -2.792   3.703   3.976 -0.2183  1.3000 -0.2937
  349MOL0     C47015  -2.897   3.702   4.073  0.0252 -0.1747  0.2967
  349MOL0     O47016  -3.030   3.733   4.050 -0.6915 -0.3665 -0.4571
  349MOL0     C47017  -3.078   3.693   3.919 -0.6348 -0.3489  0.2469
  349MOL0     C47018  -3.234   3.700   3.931  0.4903 -0.0576 -0.5315
  349MOL0     C47019  -3.310   3.647   3.810  0.2911 -0.3276 -0.0728
  349MOL0     C47020  -3.324   3.750   3.696 -0.4368  0.5830 -0.5826
  349MOL0     C47021  -3.416   3.693   3.592 -0.4561  0.1586 -0.2383
  349MOL0     C47022  -3.373   3.730   3.448  0.1726  0.5615  0.0170
  349MOL0     C47023  -3.244   3.668   3.396  0.2751  0.0305  0.2459
  349MOL0     C47024  -3.161   3.768   3.325  0.0332 -0.7172  1.0899
  349MOL0    Cl47025  -3.035   3.684   3.244  0.0326 -0.1922  0.1196
  349MOL0     C47026  -2.866   3.693   4.212  0.9392  0.4886  0.6288
  349MOL0     C47027  -2.730   3.675   4.248 -0.0465 -0.8196  0.0621
  349MOL0     O47028  -2.443   3.887   4.156  0.2506  0.7466 -0.3268
  349MOL0     C47029  -2.204   3.641   4.115  0.5987 -0.4432 -0.2398
  349MOL0     C47030  -2.059   3.626   4.114  0.7761 -0.2505  0.5002
  349MOL0     N47031  -1.376   3.652   4.637 -0.0750  0.5037 -0.6386
  349MOL0     N47032  -1.295   3.695   4.730  0.0231  0.1120  0.7613
  349MOL0     C47033  -0.151   3.437   4.507  0.2068 -0.2465 -0.2172
  349MOL0     C47034  -0.058   3.328   4.507 -0.9632 -0.1275 -0.7193
  349MOL0     C47035   0.161   2.968   4.693  0.3012  0.6801  0.3260
  349MOL0     C47036   0.079   2.856   4.683  0.2429  0.5385  0.0049
  349MOL0     C47037   0.126   2.726   4.719  0.8520 -1.1064 -0.3207
  349MOL0     C47038   0.257   2.702   4.768  0.2726  0.2296  0.3891
  349MOL0     O47039   0.289   2.574   4.795  0.2383  0.5057 -0.0806
  349MOL0     C47040   0.413   2.526   4.851  0.6361  0.2022 -0.6140
  349MOL0     C47041   0.521   2.492   4.750 -0.7958  0.5666  0.7954
  349MOL0     C47042   0.641   2.430   4.806  0.2855 -0.9852 -0.1680
  349MOL0     C47043   0.759   2.434   4.711  1.0151  0.3044  0.3642
  349MOL0     C47044   0.861   2.359   4.778 -0.0450 -0.4562 -0.4822
  349MOL0     C47045   0.923   2.279   4.842 -0.1908  0.2533  0.1179
  349MOL0     C47046   0.338   2.818   4.782 -0.1632  0.0264 -0.0509
  349MOL0     C47047   0.294   2.937   4.740 -0.0582 -0.5319  0.5201
  349MOL0     H47048  -0.134   3.203   4.806  5.0767 -2.0104 -2.3108
  349MOL0     H47049  -0.311   3.368   4.801  1.0061 -0.9473 -0.0505
  349MOL0     H47050  -0.464   3.511   4.742  0.5736  0.1245  0.1841
  349MOL0     H47051  -0.359   3.647   4.776  1.3207 -1.2022 -0.5419
  349MOL0     H47052  -0.487   3.777   4.594  1.4405  0.6215  1.5613
  349MOL0     H47053  -0.582   3.628   4.581 -0.5634  2.0421 -0.9546
  349MOL0     H47054  -0.673   3.655   4.788 -0.1992  0.8875  1.7299
  349MOL0     H47055  -0.547   3.763   4.846 -0.0429  0.6715 -0.4635
  349MOL0     H47056  -0.659   3.946   4.724  1.0621 -0.2401 -0.6013
  349MOL0     H47057  -0.754   3.818   4.635 -1.0217 -0.0562  1.0427
  349MOL0     H47058  -0.865   3.767   4.857 -1.5454  0.8603  1.3164
  349MOL0     H47059  -0.753   3.883   4.927  0.9445 -0.0673 -0.6042
  349MOL0     H47060  -0.955   4.002   4.895 -1.2829  4.6061 -1.2664
  349MOL0     H47061  -0.860   4.067   4.769  2.1593 -1.2015 -1.1698
  349MOL0     H47062  -1.050   4.034   4.637 -0.7080 -2.8389 -3.9747
  349MOL0     H47063  -0.957   3.882   4.612  0.8481  0.0797 -0.3849
  349MOL0     H47064  -1.188   3.939   4.801  0.2843  1.1093 -1.9434
  349MOL0     H47065  -1.082   3.799   4.827 -0.3304 -2.0224 -2.1761
  349MOL0     H47066  -1.184   3.861   4.474 -1.3651  1.6433  1.9357
  349MOL0     H47067  -1.332   3.698   4.303 -2.4463  1.8299 -0.9599
  349MOL0     H47068  -1.403   3.553   4.378 -2.5160 -0.1580 -1.5822
  349MOL0     H47069  -1.524   3.843   4.377  2.6930 -0.2435 -3.8522
  349MOL0     H47070  -1.595   3.710   4.464 -0.4977 -0.5245  0.0060
  349MOL0     H47071  -1.607   3.583   4.226  2.0660 -0.1846 -0.0428
  349MOL0     H47072  -1.554   3.732   4.160  0.7946 -1.9513 -0.5416
  349MOL0     H47073  -1.739   3.854   4.208 -0.5132  0.3121 -1.2010
  349MOL0     H47074  -1.799   3.748   4.346  0.5619  2.2891 -0.3111
  349MOL0     H47075  -1.965   3.913   4.261 -1.6213  2.3799 -2.0857
  349MOL0     H47076  -2.256   4.048   4.246  0.5365  1.0041  0.3506
  349MOL0     H47077  -2.316   3.935   4.375  1.8487 -1.4491  1.5730
  349MOL0     H47078  -2.162   4.017   4.384  2.0853 -1.4748 -0.8412
  349MOL0     H47079  -2.582   3.695   3.945  1.7908 -3.5736  2.4728
  349MOL0     H47080  -2.806   3.710   3.868  2.0281  0.5250 -0.6887
  349MOL0     H47081  -3.042   3.768   3.847 -1.0288  0.8860  1.2865
  349MOL0     H47082  -3.048   3.591   3.895 -3.5410 -1.2152 -0.1999
  349MOL0     H47083  -3.263   3.647   4.022  1.5679  0.3972  0.0885
  349MOL0     H47084  -3.264   3.803   3.948 -3.5951 -1.4247  2.0529
  349MOL0     H47085  -3.410   3.625   3.847  0.9962 -0.4190  1.9163
  349MOL0     H47086  -3.266   3.555   3.771  0.4153 -0.9145  1.3764
  349MOL0     H47087  -3.362   3.844   3.739 -2.8812 -0.9973  0.9609
  349MOL0     H47088  -3.224   3.775   3.661 -0.4877 -1.7059 -2.6333
  349MOL0     H47089  -3.515   3.737   3.610 -1.0070 -1.3113  0.4814
  349MOL0     H47090  -3.425   3.585   3.601 -1.6578  0.3069  0.5704
  349MOL0     H47091  -3.449   3.712   3.371  0.8944  0.0955 -0.5860
  349MOL0     H47092  -3.363   3.839   3.448 -1.4644  0.7371 -0.4643
  349MOL0     H47093  -3.261   3.580   3.333  0.9910  1.4106 -1.9979
  349MOL0     H47094  -3.179   3.632   3.476  0.9243  0.5081 -0.0487
  349MOL0     H47095  -3.124   3.836   3.403 -0.4622 -1.1126  1.6784
  349MOL0     H47096  -3.227   3.810   3.249  1.6735 -3.8889 -2.4116
  349MOL0     H47097  -2.949   3.688   4.281 -1.1483 -0.6050 -1.7858
  349MOL0     H47098  -2.705   3.668   4.353  2.3178 -0.8334 -0.4321
  349MOL0     H47099  -2.258   3.551   4.090 -0.9215  0.4210 -0.2322
  349MOL0     H47100  -2.027   3.533   4.066 -0.5500  0.5226 -2.0938
  349MOL0     H47101  -0.148   3.497   4.417  1.0328 -0.6747 -0.4749
  349MOL0     H47102   0.002   3.299   4.421 -3.9501 -0.8351 -2.7241
  349MOL0     H47103  -0.026   2.871   4.658  0.0336  3.1376  1.9701
  349MOL0     H47104   0.059   2.642   4.708  0.6542 -0.8780 -0.9450
  349MOL0     H47105   0.437   2.590   4.936 -2.6600 -0.6952  1.1665
  349MOL0     H47106   0.406   2.422   4.884 -1.4991 -0.6790 -3.4432
  349MOL0     H47107   0.541   2.590   4.704 -1.0933  0.4986  0.5153
  349MOL0     H47108   0.483   2.431   4.668  1.6199  0.4573 -0.3518
  349MOL0     H47109   0.618   2.332   4.847 -0.6540 -0.6454  0.1296
  349MOL0     H47110   0.680   2.484   4.893 -0.3290  0.2073 -0.6131
  349MOL0     H47111   0.809   2.530   4.691  1.8716 -0.2044  0.0081
  349MOL0     H47112   0.741   2.382   4.617  2.7339  0.6074 -0.1543
  349MOL0     H47113   0.968   2.214   4.914  0.9228 -0.9692 -1.6256
  349MOL0     H47114   0.441   2.817   4.816 -0.3802  2.1259  0.8625
  349MOL0     H47115   0.366   3.019   4.742  0.4785 -0.9795  0.0184
  350MOL0     O47116   1.700   5.903   4.845 -0.6040  0.9187  0.4540
  350MOL0     C47117   1.708   5.781   4.815  0.2434 -0.4792  1.2891
  350MOL0     O47118   1.611   5.696   4.780  0.4903  0.3264  0.6045
  350MOL0     C47119   1.491   5.740   4.802  0.3532  0.1334 -0.3945
  350MOL0     C47120   1.394   5.740   4.705 -0.6764 -0.1815 -0.0701
  350MOL0     C47121   1.259   5.749   4.735  0.4240  0.0160 -0.3159
  350MOL0     C47122   1.225   5.766   4.869  0.3779  0.0591  0.8777
  350MOL0     O47123   1.087   5.775   4.891 -1.1339 -0.4115 -0.3463
  350MOL0     C47124   1.042   5.714   5.013  0.2625  0.0624  0.5302
  350MOL0     C47125   0.899   5.671   5.005  0.2664 -0.1150 -0.4847
  350MOL0     C47126   0.796   5.791   4.993 -1.1589 -0.1059 -0.0991
  350MOL0     C47127   0.787   5.846   4.856 -0.1716  0.2247  0.5381
  350MOL0     C47128   0.660   5.932   4.844 -0.5551 -0.6305  0.4974
  350MOL0     C47129   0.637   5.992   4.711  0.4602  1.5414 -0.2684
  350MOL0     C47130   0.497   6.061   4.707  0.5843 -0.1068  0.0025
  350MOL0     C47131   0.451   6.092   4.564 -0.3712  0.2354  0.0062
  350MOL0     N47132   0.319   6.164   4.563  0.2018  0.2190  0.1334
  350MOL0     C47133   0.203   6.120   4.618 -0.4489  0.5737 -0.1947
  350MOL0     C47134   0.110   6.212   4.583  0.1044 -0.0557 -0.1459
  350MOL0     C47135  -0.033   6.195   4.630  1.2326  0.3993  0.7153
  350MOL0     C47136  -0.101   6.059   4.593 -0.0828  0.0900  0.2877
  350MOL0     C47137  -0.128   6.045   4.439 -0.3520  0.1280  0.3733
  350MOL0     C47138  -0.190   5.899   4.410 -0.9614  0.6199  0.4621
  350MOL0     O47139  -0.177   5.880   4.268  0.1895  0.7377 -0.3287
  350MOL0     C47140  -0.055   5.831   4.223 -0.2029 -0.0624 -0.0117
  350MOL0     C47141   0.060   5.825   4.303 -0.0583  1.2452 -0.4094
  350MOL0     C47142   0.175   5.757   4.252  0.5834 -0.6650  0.6506
  350MOL0     C47143   0.296   5.733   4.344  0.3196 -0.0496 -0.4964
  350MOL0     C47144   0.176   5.701   4.120 -0.8406 -0.8674  0.0598
  350MOL0     C47145   0.293   5.638   4.049 -0.1303 -0.7755 -0.0439
  350MOL0     O47146   0.420   5.652   4.103 -0.7588 -0.0465 -0.0023
  350MOL0     C47147   0.539   5.597   4.050  0.2912  0.0885 -0.2396
  350MOL0     C47148   0.555   5.491   3.957  0.8102  0.5947 -0.3887
  350MOL0     C47149   0.673   5.445   3.908  0.4231 -0.2535  0.9612
  350MOL0     C47150   0.789   5.498   3.953 -0.6241  0.6028 -0.0817
  350MOL0     O47151   0.904   5.447   3.906 -0.4493  0.1422  0.7244
  350MOL0     C47152   1.029   5.504   3.946  0.9344  0.2051  0.4741
  350MOL0     C47153   1.137   5.417   3.881  0.7108 -1.1158 -0.0932
  350MOL0     C47154   1.275   5.423   3.941  0.8382 -0.2462  0.4069
  350MOL0     C47155   1.367   5.326   3.864  0.1659 -0.2875 -0.0517
  350MOL0     C47156   1.406   5.402   3.728 -0.2939 -0.2927  0.1050
  350MOL0     C47157   1.536   5.342   3.664  0.4563  1.1882  0.1196
  350MOL0     C47158   1.601   5.430   3.549 -0.9771 -0.7101  0.5639
  350MOL0     C47159   1.721   5.361   3.488 -0.5486 -0.5348  0.0947
  350MOL0    Cl47160   1.855   5.348   3.591 -0.3441  0.0106  0.2606
  350MOL0     C47161   0.777   5.594   4.063 -0.5012 -0.1735 -0.0237
  350MOL0     C47162   0.655   5.644   4.102  0.3717 -0.4129 -0.3836
  350MOL0     O47163   0.271   5.576   3.943 -0.3355 -0.1962  0.4375
  350MOL0     C47164   0.058   5.709   4.049 -0.0472  0.3279 -0.3690
  350MOL0     C47165  -0.055   5.773   4.102  0.1024 -0.1858 -0.5151
  350MOL0     N47166   0.174   6.316   4.517  0.0376  0.0397  0.9390
  350MOL0     N47167   0.299   6.288   4.502 -0.0288 -0.2217 -0.7243
  350MOL0     C47168   1.317   5.769   4.963 -0.0907  0.1444 -0.2091
  350MOL0     C47169   1.453   5.751   4.934 -0.7734 -0.8041 -0.3714
  350MOL0     C47170   1.842   5.729   4.798  0.5889 -0.3047  0.2999
  350MOL0     C47171   1.958   5.806   4.830 -0.2604 -0.2317 -0.4258
  350MOL0     C47172   2.084   5.764   4.801  0.1626  0.3103  0.2109
  350MOL0     C47173   2.094   5.657   4.713 -0.4350 -0.6616  0.5647
  350MOL0     O47174   2.216   5.642   4.654 -0.5773  0.0528 -0.0031
  350MOL0     C47175   2.310   5.569   4.732  0.8872 -0.0065  0.8795
  350MOL0     C47176   2.433   5.664   4.757  0.0102 -0.0188 -0.1325
  350MOL0     C47177   2.553   5.620   4.835  0.4355  0.0269  0.5402
  350MOL0     C47178   2.625   5.505   4.765  0.1601 -0.1260 -0.3735
  350MOL0     C47179   2.764   5.490   4.792 -0.3766 -0.2829  0.3559
  350MOL0     C47180   2.883   5.488   4.805  0.0731 -0.3101  0.1239
  350MOL0     C47181   1.987   5.580   4.683 -1.5070 -0.4687  0.7345
  350MOL0     C47182   1.859   5.608   4.725 -0.0822  0.5367  0.1396
  350MOL0     H47183   1.443   5.726   4.608 -1.2790 -0.0643 -0.3970
  350MOL0     H47184   1.178   5.749   4.662 -2.1613  0.9729  2.3572
  350MOL0     H47185   1.098   5.624   5.042 -0.7478 -0.3146  1.3834
  350MOL0     H47186   1.052   5.790   5.092  2.1952  0.9199 -0.4704
  350MOL0     H47187   0.882   5.603   4.921  3.4973 -2.6188  0.6755
  350MOL0     H47188   0.864   5.614   5.091 -3.3291  1.7644 -0.5138
  350MOL0     H47189   0.706   5.761   5.049  0.2233 -1.1162  1.7251
  350MOL0     H47190   0.835   5.872   5.055  0.3084 -2.4629  2.3208
  350MOL0     H47191   0.874   5.907   4.830 -2.1376  2.4317 -1.3943
  350MOL0     H47192   0.784   5.758   4.791  0.0908  1.4781 -1.2496
  350MOL0     H47193   0.575   5.870   4.876  1.0524 -2.2784  1.7922
  350MOL0     H47194   0.678   6.014   4.914  0.8080 -1.2907  0.9558
  350MOL0     H47195   0.717   6.060   4.680  2.4863 -1.9777 -3.7268
  350MOL0     H47196   0.636   5.907   4.643  0.9086  0.3538  1.1624
  350MOL0     H47197   0.418   5.998   4.748  0.0878  1.2765  1.2135
  350MOL0     H47198   0.512   6.156   4.758  1.6306 -0.4069  0.2744
  350MOL0     H47199   0.445   5.990   4.526  1.8524  0.0700 -0.0524
  350MOL0     H47200   0.532   6.146   4.512 -0.5192  3.9702  3.1468
  350MOL0     H47201   0.188   6.024   4.668 -0.9444  0.6034 -0.2837
  350MOL0     H47202  -0.029   6.207   4.739  1.1695  3.1860  0.4848
  350MOL0     H47203  -0.104   6.270   4.594  2.6444  0.0394 -3.3090
  350MOL0     H47204  -0.186   6.040   4.659 -0.6528 -1.7320 -0.8911
  350MOL0     H47205  -0.036   5.975   4.618 -3.4080 -2.6711  0.3511
  350MOL0     H47206  -0.034   6.055   4.383 -0.8247 -1.2398 -0.7215
  350MOL0     H47207  -0.192   6.122   4.395 -0.0646 -0.9760 -2.1655
  350MOL0     H47208  -0.294   5.911   4.440 -0.9652  4.3706 -0.5439
  350MOL0     H47209  -0.142   5.827   4.477  2.8992  2.3230 -0.2171
  350MOL0     H47210   0.071   5.858   4.406 -0.0023 -2.3299  0.8945
  350MOL0     H47211   0.381   5.784   4.296  1.1274 -1.1658 -0.2674
  350MOL0     H47212   0.285   5.772   4.445  0.1894  0.0927 -0.5633
  350MOL0     H47213   0.315   5.626   4.347 -1.1577 -0.3484 -0.7995
  350MOL0     H47214   0.467   5.438   3.921  0.7266  1.2704 -1.2276
  350MOL0     H47215   0.682   5.373   3.828  0.9658  1.0405 -0.1891
  350MOL0     H47216   1.039   5.611   3.927 -0.3670  0.5487  1.5078
  350MOL0     H47217   1.047   5.490   4.053  1.6175  0.5705  0.4093
  350MOL0     H47218   1.094   5.316   3.882  1.2961 -1.3963  2.3042
  350MOL0     H47219   1.143   5.446   3.776 -0.2580  2.7561  0.7928
  350MOL0     H47220   1.268   5.402   4.048  1.5296  3.2990  1.2669
  350MOL0     H47221   1.319   5.522   3.924  1.0805 -0.0348  2.1635
  350MOL0     H47222   1.455   5.305   3.927  0.3218  1.0820  0.2210
  350MOL0     H47223   1.314   5.232   3.847  0.6952 -0.2377 -2.2383
  350MOL0     H47224   1.428   5.507   3.747  0.1690 -0.2002 -0.8450
  350MOL0     H47225   1.330   5.388   3.651  0.0872  0.6264 -0.4512
  350MOL0     H47226   1.614   5.312   3.735 -0.1800 -2.4373 -0.4842
  350MOL0     H47227   1.504   5.253   3.608 -0.3689  1.6333 -0.1226
  350MOL0     H47228   1.625   5.529   3.587 -1.9817  0.1853 -1.0233
  350MOL0     H47229   1.529   5.451   3.470  0.3703  0.2190 -0.4498
  350MOL0     H47230   1.761   5.410   3.399  0.4269 -2.4348 -0.5811
  350MOL0     H47231   1.696   5.258   3.458  2.3721 -1.0215 -1.0506
  350MOL0     H47232   0.870   5.629   4.106 -0.9484  0.4115  0.4928
  350MOL0     H47233   0.656   5.728   4.172  2.6135 -0.4188 -0.3230
  350MOL0     H47234   0.044   5.664   3.952 -0.0149  0.5366 -0.4715
  350MOL0     H47235  -0.148   5.774   4.046 -1.6546  0.3417  2.2220
  350MOL0     H47236   1.291   5.782   5.067 -2.6752 -1.5615 -0.5586
  350MOL0     H47237   1.526   5.747   5.015 -0.1380 -1.7806 -0.9775
  350MOL0     H47238   1.944   5.901   4.879 -1.2154 -0.3109 -0.5127
  350MOL0     H47239   2.167   5.830   4.820  0.0456  1.1285 -1.9409
  350MOL0     H47240   2.265   5.519   4.818  2.1688 -2.6740  0.1104
  350MOL0     H47241   2.347   5.482   4.675 -0.2199 -0.5065  0.9114
  350MOL0     H47242   2.387   5.742   4.819 -0.8879 -1.5057  1.1577
  350MOL0     H47243   2.469   5.707   4.663 -3.1388  0.4748 -1.2408
  350MOL0     H47244   2.524   5.573   4.929  4.8077 -4.3214  0.1492
  350MOL0     H47245   2.619   5.704   4.858 -2.2954  2.4554  0.0549
  350MOL0     H47246   2.606   5.519   4.659  0.9813  1.0955 -0.3794
  350MOL0     H47247   2.585   5.411   4.806 -1.3115  0.1773 -1.0596
  350MOL0     H47248   2.990   5.492   4.817  0.1759  1.4971 -0.9204
  350MOL0     H47249   1.995   5.502   4.609  1.6711  0.5189 -0.1303
  350MOL0     H47250   1.777   5.547   4.688  0.9233 -0.3617 -0.6494
  351MOL0     O47251   9.646   1.316  10.985  0.0571 -0.0138 -1.1868
  351MOL0     C47252   9.647   1.349  10.866 -0.8158 -0.3083 -0.4635
  351MOL0     O47253   9.537   1.351  10.792  0.3057  0.2379  0.3301
  351MOL0     C47254   9.415   1.359  10.855 -0.5265  0.2882  0.3335
  351MOL0     C47255   9.324   1.263  10.810  0.9573  0.1875 -0.6242
  351MOL0     C47256   9.190   1.252  10.860 -0.1520 -0.7885 -0.4034
  351MOL0     C47257   9.153   1.339  10.964 -0.4415 -0.6690  0.3844
  351MOL0     O47258   9.023   1.346  11.010  0.2749 -0.1451  0.1816
  351MOL0     C47259   8.992   1.424  11.125  0.8248  0.1165  0.2289
  351MOL0     C47260   8.842   1.440  11.121  0.3550 -0.2342  0.3839
  351MOL0     C47261   8.798   1.482  11.262  0.6657 -0.2743  0.2187
  351MOL0     C47262   8.646   1.491  11.286 -0.6150  0.5810  0.1196
  351MOL0     C47263   8.603   1.563  11.412 -0.2217 -0.0048  0.2838
  351MOL0     C47264   8.456   1.603  11.398 -0.0793 -0.5622 -0.6707
  351MOL0     C47265   8.402   1.648  11.526  0.7751  0.0326  0.5319
  351MOL0     C47266   8.262   1.696  11.494 -0.4066 -0.2648 -1.0075
  351MOL0     N47267   8.180   1.721  11.623 -0.0713  0.2944  0.4082
  351MOL0     C47268   8.048   1.681  11.651 -0.2825 -0.0148  0.1208
  351MOL0     C47269   8.040   1.727  11.781  0.4203  0.2053 -0.3497
  351MOL0     C47270   7.919   1.709  11.869  0.0724  0.2472 -0.2351
  351MOL0     C47271   7.787   1.748  11.810  0.4610  0.2559  0.7558
  351MOL0     C47272   7.781   1.904  11.795  0.7614  0.2213  0.0001
  351MOL0     C47273   7.637   1.940  11.765 -0.2092  0.1278 -0.7866
  351MOL0     O47274   7.555   1.914  11.878  0.5664  0.3376 -0.4591
  351MOL0     C47275   7.418   1.939  11.869  0.2947  0.2759 -0.1937
  351MOL0     C47276   7.371   2.049  11.805 -0.0275 -0.2188 -0.2004
  351MOL0     C47277   7.235   2.083  11.822 -0.6274  1.2697  0.5002
  351MOL0     C47278   7.201   2.209  11.750 -0.2084  0.4751 -0.1812
  351MOL0     C47279   7.144   1.998  11.886 -0.8682 -0.1048  0.6482
  351MOL0     C47280   6.999   2.005  11.874  0.0139  0.2707 -0.0508
  351MOL0     O47281   6.930   2.010  11.994 -0.1870  0.5926  0.1126
  351MOL0     C47282   6.791   2.003  11.979 -0.4060 -0.0705 -0.7314
  351MOL0     C47283   6.712   2.103  11.935 -0.5157 -0.5282 -0.6882
  351MOL0     C47284   6.569   2.103  11.918  0.2519  0.5272  0.7671
  351MOL0     C47285   6.503   1.981  11.949 -0.2081 -0.9251  0.8908
  351MOL0     O47286   6.370   1.970  11.910 -0.1248  0.2911  0.0410
  351MOL0     C47287   6.288   2.067  11.969 -0.5972 -0.2067  0.4535
  351MOL0     C47288   6.173   2.001  12.041 -0.8937  1.0841  1.0752
  351MOL0     C47289   6.113   2.090  12.149 -0.3046  0.4595  0.5731
  351MOL0     C47290   5.981   2.154  12.111  0.3931 -0.1180  0.9115
  351MOL0     C47291   5.910   2.194  12.240 -0.9768 -0.5048  0.0187
  351MOL0     C47292   5.787   2.281  12.222  0.8402 -0.3984  0.8468
  351MOL0     C47293   5.720   2.294  12.362 -0.0377  0.3136  1.0159
  351MOL0     C47294   5.594   2.379  12.358  0.1431  0.2392  0.5315
  351MOL0    Cl47295   5.461   2.286  12.273 -0.2684 -0.7720 -0.0989
  351MOL0     C47296   6.581   1.875  11.997 -0.5132  0.8264  0.0224
  351MOL0     C47297   6.719   1.894  12.014  0.1810  0.2474 -0.0848
  351MOL0     O47298   6.950   2.012  11.762  0.3806 -0.8198  0.0565
  351MOL0     C47299   7.196   1.889  11.954 -0.3738  0.0018  0.1694
  351MOL0     C47300   7.332   1.858  11.944 -0.8459  0.3520  0.9232
  351MOL0     N47301   8.149   1.805  11.817  0.7643  0.0672 -0.2390
  351MOL0     N47302   8.226   1.813  11.717 -0.1754  0.1355  0.6826
  351MOL0     C47303   9.252   1.423  11.022 -0.1073 -0.2647 -0.1818
  351MOL0     C47304   9.379   1.441  10.967  0.2531 -0.2277  0.2887
  351MOL0     C47305   9.779   1.372  10.803 -0.2402 -0.3489 -0.2146
  351MOL0     C47306   9.897   1.396  10.876  0.0630 -0.2348  0.3723
  351MOL0     C47307  10.016   1.412  10.812 -0.2046 -0.1317 -0.4782
  351MOL0     C47308  10.025   1.409  10.674 -0.5587 -0.2608  0.1983
  351MOL0     O47309  10.148   1.429  10.629 -0.1285  0.3436  0.3155
  351MOL0     C47310  10.150   1.519  10.520  0.2346  0.3749  0.1463
  351MOL0     C47311  10.297   1.551  10.495 -0.8462  0.4639  0.1971
  351MOL0     C47312  10.348   1.641  10.607 -0.1093  0.4574 -0.1058
  351MOL0     C47313  10.498   1.683  10.593  0.7435  0.2692 -0.1153
  351MOL0     C47314  10.524   1.760  10.474 -0.9767  0.7041  0.9974
  351MOL0     C47315  10.528   1.820  10.364 -0.0958  0.6821  0.7877
  351MOL0     C47316   9.905   1.408  10.598  0.6112  0.7808  0.2353
  351MOL0     C47317   9.783   1.397  10.659 -0.0604  0.3805  0.3320
  351MOL0     H47318   9.357   1.192  10.734 -2.2788  0.7649 -2.7605
  351MOL0     H47319   9.140   1.166  10.818  0.1366 -1.3393  0.3412
  351MOL0     H47320   9.016   1.369  11.216 -2.1009 -2.4640 -0.3770
  351MOL0     H47321   9.021   1.529  11.125 -0.5109  0.5251  1.6179
  351MOL0     H47322   8.813   1.520  11.052  0.0829 -0.2280  0.5017
  351MOL0     H47323   8.800   1.342  11.095  1.5277 -0.3502 -1.1917
  351MOL0     H47324   8.832   1.402  11.329 -1.8088 -1.1336  0.5330
  351MOL0     H47325   8.845   1.578  11.286 -1.0671  0.8473 -0.7004
  351MOL0     H47326   8.617   1.560  11.207  2.2490 -0.3345 -1.8681
  351MOL0     H47327   8.599   1.393  11.272 -0.7612  0.8276 -1.2167
  351MOL0     H47328   8.618   1.495  11.497  2.2522  1.3382  1.0360
  351MOL0     H47329   8.668   1.649  11.429  0.5886 -0.7247  0.9616
  351MOL0     H47330   8.456   1.694  11.337  0.4468 -0.3887 -0.4193
  351MOL0     H47331   8.401   1.524  11.346 -1.5148 -0.3119  0.4296
  351MOL0     H47332   8.405   1.570  11.601 -0.8943 -2.2941 -1.6485
  351MOL0     H47333   8.462   1.728  11.570  0.1679 -0.2267  1.8774
  351MOL0     H47334   8.206   1.615  11.446 -1.5295  0.3045 -0.6985
  351MOL0     H47335   8.261   1.782  11.427  0.4181  0.4791 -0.0907
  351MOL0     H47336   7.986   1.620  11.586 -1.0424 -0.3023  1.0939
  351MOL0     H47337   7.925   1.606  11.905  2.2620 -0.0370 -1.2659
  351MOL0     H47338   7.928   1.778  11.954  0.0026  0.5764 -0.4948
  351MOL0     H47339   7.711   1.716  11.881  0.6552 -1.4850  0.2292
  351MOL0     H47340   7.774   1.707  11.709 -0.1597 -0.3672  1.0828
  351MOL0     H47341   7.834   1.945  11.709 -1.5029 -0.2433 -1.6884
  351MOL0     H47342   7.803   1.949  11.893 -1.2155  0.9286  0.1553
  351MOL0     H47343   7.619   1.874  11.680  1.0225  0.6675 -1.4823
  351MOL0     H47344   7.623   2.042  11.726 -0.9817  0.4653  0.3042
  351MOL0     H47345   7.427   2.126  11.754 -2.1345  1.1983 -0.5230
  351MOL0     H47346   7.109   2.257  11.786  0.5916  3.2287 -1.5197
  351MOL0     H47347   7.279   2.284  11.766  3.1035 -2.4752 -1.3855
  351MOL0     H47348   7.186   2.192  11.643  0.0070  0.8388 -0.2728
  351MOL0     H47349   6.764   2.196  11.916  0.0933 -0.0000  2.8262
  351MOL0     H47350   6.519   2.179  11.858  0.6550 -1.9732 -3.1654
  351MOL0     H47351   6.346   2.119  12.046 -0.4615  0.4528 -0.0843
  351MOL0     H47352   6.253   2.138  11.894  0.0118 -0.6703 -0.2915
  351MOL0     H47353   6.096   1.961  11.974 -0.1211 -3.0529  2.3694
  351MOL0     H47354   6.214   1.917  12.096 -0.3848 -0.2802 -1.2406
  351MOL0     H47355   6.180   2.175  12.168 -0.1220  0.7717 -1.3481
  351MOL0     H47356   6.084   2.032  12.238 -2.1270 -0.1936 -0.4070
  351MOL0     H47357   6.008   2.253  12.072 -0.2091 -0.7574 -1.2628
  351MOL0     H47358   5.924   2.083  12.053 -0.9953  1.1571  0.6541
  351MOL0     H47359   5.981   2.247  12.304 -1.8971 -0.7562  1.3106
  351MOL0     H47360   5.882   2.099  12.287  1.3765 -0.3844  1.8244
  351MOL0     H47361   5.816   2.380  12.186 -0.6199 -0.9039 -1.9262
  351MOL0     H47362   5.723   2.240  12.144  2.7672  0.5829 -1.3992
  351MOL0     H47363   5.789   2.340  12.433  0.3990  3.0032 -0.9935
  351MOL0     H47364   5.695   2.192  12.391  1.2190 -0.1127  0.6887
  351MOL0     H47365   5.625   2.471  12.308 -1.3389 -0.1919 -1.3047
  351MOL0     H47366   5.555   2.403  12.457 -1.8606 -1.3592  0.1962
  351MOL0     H47367   6.532   1.781  12.022  0.3486  1.0600  2.9940
  351MOL0     H47368   6.780   1.813  12.052  2.2637  0.8458 -1.9552
  351MOL0     H47369   7.134   1.827  12.018  0.3823 -0.6045  0.3369
  351MOL0     H47370   7.368   1.786  12.017 -0.4054 -1.9608 -1.4073
  351MOL0     H47371   9.227   1.502  11.092  2.1568  4.1169 -3.7954
  351MOL0     H47372   9.448   1.513  11.010 -1.4196  2.7029 -1.5608
  351MOL0     H47373   9.913   1.394  10.984 -1.4083  1.6680  0.6828
  351MOL0     H47374  10.105   1.433  10.871 -1.5289  2.2508  0.7914
  351MOL0     H47375  10.104   1.479  10.430  0.6607  1.4924 -0.5831
  351MOL0     H47376  10.095   1.608  10.552 -0.6840 -0.5481  1.2089
  351MOL0     H47377  10.303   1.600  10.397 -2.3313  0.3697  0.0430
  351MOL0     H47378  10.363   1.463  10.500  0.2751  1.2601 -0.0975
  351MOL0     H47379  10.349   1.585  10.701 -0.1106  1.3831  0.4581
  351MOL0     H47380  10.286   1.731  10.612 -1.0831 -0.1501 -0.8068
  351MOL0     H47381  10.556   1.590  10.598  0.1344 -0.1993 -1.3313
  351MOL0     H47382  10.513   1.742  10.684 -0.4680  0.6767 -0.1573
  351MOL0     H47383  10.546   1.870  10.272  1.4657 -0.7097  0.2857
  351MOL0     H47384   9.893   1.405  10.490 -2.9485  0.3753  0.5407
  351MOL0     H47385   9.698   1.403  10.592  1.0335  2.4622 -0.9818
  352MOL0     O47386   9.176   3.664   6.381 -0.9185 -0.1564 -0.1023
  352MOL0     C47387   9.244   3.716   6.471  0.3050 -0.7585  0.4869
  352MOL0     O47388   9.194   3.779   6.581  0.1094  0.8961 -0.1912
  352MOL0     C47389   9.056   3.803   6.595  0.9603 -0.2468  0.1381
  352MOL0     C47390   8.954   3.716   6.546  0.4722 -0.3681 -0.5357
  352MOL0     C47391   8.820   3.751   6.556  0.6715 -1.6392  0.1594
  352MOL0     C47392   8.783   3.882   6.603  0.0528  0.3503  0.5305
  352MOL0     O47393   8.660   3.934   6.619  0.3763 -0.4473 -0.7475
  352MOL0     C47394   8.560   3.849   6.683  0.1825  0.7611 -0.1450
  352MOL0     C47395   8.428   3.916   6.702  0.0725 -0.1484 -0.1799
  352MOL0     C47396   8.337   3.930   6.576 -0.4965 -0.6126  0.0608
  352MOL0     C47397   8.225   4.022   6.608  1.1475  0.6538  0.4362
  352MOL0     C47398   8.140   4.035   6.476 -1.3107  0.0126  0.5959
  352MOL0     C47399   8.011   4.121   6.499  0.8160  0.6129 -0.4369
  352MOL0     C47400   7.936   4.152   6.377  0.0313  0.8916  0.6984
  352MOL0     C47401   7.804   4.226   6.406 -0.2913 -0.0594 -0.3361
  352MOL0     N47402   7.702   4.138   6.452 -0.0190 -0.2635 -0.6511
  352MOL0     C47403   7.641   4.042   6.384 -1.3653 -0.0622 -0.4269
  352MOL0     C47404   7.567   3.977   6.472 -0.0528 -0.7310  0.5341
  352MOL0     C47405   7.473   3.859   6.448 -0.0406  0.1428  0.3922
  352MOL0     C47406   7.397   3.879   6.325  0.1094 -0.8376 -0.3250
  352MOL0     C47407   7.266   3.789   6.316 -1.2875 -0.6836  0.6191
  352MOL0     C47408   7.142   3.864   6.375  0.2350 -0.0347  0.4655
  352MOL0     O47409   7.031   3.774   6.346  0.6331 -0.5821 -0.3432
  352MOL0     C47410   6.901   3.828   6.353 -0.1261 -0.9118 -0.1525
  352MOL0     C47411   6.869   3.943   6.435  0.2193 -0.0028  0.1692
  352MOL0     C47412   6.743   4.002   6.431  0.1738 -0.9123  0.0933
  352MOL0     C47413   6.729   4.129   6.509  0.6209  1.2801 -0.4371
  352MOL0     C47414   6.639   3.944   6.347 -0.3698 -0.4404  0.1290
  352MOL0     C47415   6.507   4.005   6.319  0.0595 -0.2417  0.1865
  352MOL0     O47416   6.431   3.942   6.224 -0.0757 -0.1119 -1.2351
  352MOL0     C47417   6.302   3.967   6.178 -0.4653 -0.0989 -0.2451
  352MOL0     C47418   6.255   3.909   6.063  0.1997 -0.6060  0.7566
  352MOL0     C47419   6.131   3.937   6.008 -0.6239  0.5937 -1.0469
  352MOL0     C47420   6.040   4.003   6.094  0.4518  0.6624 -0.1347
  352MOL0     O47421   5.919   4.023   6.038  0.3678  1.4578 -1.1402
  352MOL0     C47422   5.819   4.069   6.132  0.4031  1.3102 -0.2595
  352MOL0     C47423   5.687   4.051   6.068  0.5784 -0.5830 -0.1011
  352MOL0     C47424   5.651   4.157   5.958  0.4890 -0.3031  0.1265
  352MOL0     C47425   5.503   4.147   5.916  0.1174 -0.0886 -0.1577
  352MOL0     C47426   5.492   4.042   5.811 -0.2496 -0.1494 -0.2651
  352MOL0     C47427   5.339   4.022   5.783 -1.0773  0.5777  0.8969
  352MOL0     C47428   5.289   4.144   5.714  0.6194  0.7738 -0.2872
  352MOL0     C47429   5.159   4.113   5.635  0.5549  0.8457  0.7995
  352MOL0    Cl47430   5.177   4.061   5.463 -0.1262  0.4777  0.0824
  352MOL0     C47431   6.078   4.046   6.224 -0.2651  1.2991  0.4170
  352MOL0     C47432   6.214   4.029   6.266  0.2407 -0.0844  0.2065
  352MOL0     O47433   6.475   4.110   6.378 -0.4853  0.2153  0.3871
  352MOL0     C47434   6.668   3.833   6.280 -0.2726  0.6328  0.2317
  352MOL0     C47435   6.799   3.776   6.276  0.8576 -0.3481  0.0453
  352MOL0     N47436   7.569   4.050   6.592  0.1543  0.7608  0.3058
  352MOL0     N47437   7.651   4.137   6.575 -0.0837  0.3466  0.7056
  352MOL0     C47438   8.889   3.963   6.650 -0.0861 -0.5983  0.6947
  352MOL0     C47439   9.017   3.926   6.659  0.1178 -0.0286  0.1747
  352MOL0     C47440   9.394   3.703   6.465  0.7862 -0.7001  0.0018
  352MOL0     C47441   9.434   3.592   6.387  0.2659 -0.0286 -0.1150
  352MOL0     C47442   9.571   3.559   6.397 -0.6532  0.1352  0.4495
  352MOL0     C47443   9.670   3.625   6.475  0.1136  0.2844 -0.6329
  352MOL0     O47444   9.801   3.598   6.500 -0.1796  0.4663 -0.0832
  352MOL0     C47445   9.866   3.494   6.423  1.1258 -0.0319  1.0194
  352MOL0     C47446  10.017   3.539   6.415 -0.3088  0.1653 -0.3557
  352MOL0     C47447  10.092   3.449   6.316 -0.0825  0.5935 -0.3298
  352MOL0     C47448  10.242   3.489   6.309  0.2705 -0.0476  0.0144
  352MOL0     C47449  10.326   3.434   6.416 -0.4222  0.2278  0.0154
  352MOL0     C47450  10.401   3.398   6.506 -0.1174  0.4844  0.6331
  352MOL0     C47451   9.623   3.737   6.547  0.2391 -0.1230  0.7868
  352MOL0     C47452   9.486   3.771   6.550 -0.7771  0.1100  0.9050
  352MOL0     H47453   8.986   3.623   6.501  0.6808 -2.7336  3.9479
  352MOL0     H47454   8.742   3.685   6.520 -0.0436 -0.6977 -0.0613
  352MOL0     H47455   8.553   3.760   6.619 -0.0191 -0.6830  1.7835
  352MOL0     H47456   8.591   3.816   6.783  1.5251 -3.5825 -1.7406
  352MOL0     H47457   8.372   3.842   6.760 -1.6818 -2.1112 -4.0164
  352MOL0     H47458   8.442   4.007   6.761  0.3722 -3.2507  5.1589
  352MOL0     H47459   8.390   3.966   6.488 -2.9672 -1.8544 -2.0607
  352MOL0     H47460   8.308   3.827   6.550  0.7320 -1.6202  2.3020
  352MOL0     H47461   8.175   3.971   6.692  2.1355 -2.0533 -0.5099
  352MOL0     H47462   8.278   4.112   6.639  4.1922 -0.4759 -1.1141
  352MOL0     H47463   8.212   4.064   6.399 -0.0422 -1.1388  1.2986
  352MOL0     H47464   8.112   3.935   6.441  0.0495 -0.2052  0.0907
  352MOL0     H47465   7.949   4.073   6.576  0.1709  2.6980  0.4268
  352MOL0     H47466   8.042   4.212   6.550  3.0642 -0.3054 -0.0674
  352MOL0     H47467   8.006   4.202   6.309 -0.0645  2.5340  1.7533
  352MOL0     H47468   7.903   4.063   6.322 -0.6002 -0.4374  3.1165
  352MOL0     H47469   7.770   4.256   6.307  1.5263  0.2748 -0.8972
  352MOL0     H47470   7.827   4.311   6.470  0.3509  0.3834 -1.1497
  352MOL0     H47471   7.661   4.023   6.279 -0.1383 -1.7249  0.0489
  352MOL0     H47472   7.518   3.761   6.430 -1.3120 -0.8245  2.1478
  352MOL0     H47473   7.403   3.856   6.532  0.9402 -1.0775  1.2069
  352MOL0     H47474   7.456   3.866   6.234 -0.8567 -0.7190 -0.9848
  352MOL0     H47475   7.363   3.983   6.335 -0.5237 -1.0982  0.3374
  352MOL0     H47476   7.280   3.691   6.363  2.5346 -0.8157 -0.4444
  352MOL0     H47477   7.251   3.783   6.208  1.1769  1.8950  0.0378
  352MOL0     H47478   7.121   3.962   6.333 -0.2850 -0.0493  0.6782
  352MOL0     H47479   7.160   3.870   6.483 -1.3605  2.0929  0.6763
  352MOL0     H47480   6.948   3.984   6.497  0.2953 -1.9556  1.4604
  352MOL0     H47481   6.828   4.152   6.552 -0.4816  0.7453  2.6227
  352MOL0     H47482   6.700   4.219   6.453 -2.3981 -0.5141 -1.9820
  352MOL0     H47483   6.667   4.111   6.597  3.4938 -2.8120  1.0663
  352MOL0     H47484   6.312   3.842   5.999 -0.1084 -0.6720  0.5491
  352MOL0     H47485   6.106   3.895   5.911  1.8428  1.2165 -2.0315
  352MOL0     H47486   5.827   4.019   6.229  1.6889  1.4385 -0.2799
  352MOL0     H47487   5.830   4.175   6.153 -2.0811  1.5904 -0.1699
  352MOL0     H47488   5.673   3.949   6.029 -0.9302 -0.6198  0.4602
  352MOL0     H47489   5.621   4.060   6.155  0.9740 -0.0548  0.1485
  352MOL0     H47490   5.709   4.154   5.865  0.0450  3.1939 -0.4275
  352MOL0     H47491   5.675   4.254   6.003  1.8392  0.0291 -1.2241
  352MOL0     H47492   5.427   4.127   5.992  1.9498 -0.6536  1.6210
  352MOL0     H47493   5.482   4.249   5.882  3.1579  0.6774 -0.0281
  352MOL0     H47494   5.536   3.949   5.850 -0.7739 -0.6035 -0.7371
  352MOL0     H47495   5.536   4.067   5.714  0.2983 -1.8815 -0.5060
  352MOL0     H47496   5.334   3.934   5.717  1.6574  1.3450 -0.4987
  352MOL0     H47497   5.287   4.009   5.878 -0.5043 -1.2593  1.0126
  352MOL0     H47498   5.361   4.178   5.638  0.1692  2.0043 -0.1773
  352MOL0     H47499   5.267   4.218   5.790  2.2608  2.7217 -1.5943
  352MOL0     H47500   5.097   4.202   5.643  1.0522  1.1765  1.0084
  352MOL0     H47501   5.100   4.032   5.680 -3.5783  3.4196  0.4785
  352MOL0     H47502   6.011   4.091   6.296 -1.4990  0.1422  0.0100
  352MOL0     H47503   6.248   4.070   6.361  1.5281 -0.1659 -0.2005
  352MOL0     H47504   6.591   3.773   6.233  1.2216 -0.8284 -0.4734
  352MOL0     H47505   6.819   3.694   6.208  2.3272  0.6103 -0.7417
  352MOL0     H47506   8.861   4.057   6.697  0.8206  0.7064 -1.2436
  352MOL0     H47507   9.086   3.994   6.708 -1.1585  1.7326 -0.3963
  352MOL0     H47508   9.376   3.528   6.322 -0.7412  1.1110 -0.3689
  352MOL0     H47509   9.594   3.474   6.333 -0.9534  1.0888 -0.9758
  352MOL0     H47510   9.858   3.398   6.475  0.0910 -0.5873 -0.1178
  352MOL0     H47511   9.828   3.502   6.321  0.1337 -1.9025  1.1946
  352MOL0     H47512  10.057   3.532   6.516  3.2660  0.1569 -1.6433
  352MOL0     H47513  10.024   3.641   6.376 -0.1198  0.4037  0.2930
  352MOL0     H47514  10.049   3.462   6.217 -0.5499 -0.7200 -0.3153
  352MOL0     H47515  10.085   3.343   6.343  0.7798  0.4768 -0.5443
  352MOL0     H47516  10.246   3.598   6.301  0.3080 -0.1563 -1.9639
  352MOL0     H47517  10.275   3.448   6.213 -1.6538 -0.0435 -0.6910
  352MOL0     H47518  10.474   3.378   6.583  0.5510  0.9308  0.1246
  352MOL0     H47519   9.696   3.786   6.610  1.7965  0.8153 -1.6400
  352MOL0     H47520   9.442   3.851   6.608  0.1609  0.5158  1.0602
  353MOL0     O47521   2.897   6.501  11.086  0.2072 -0.6414 -0.5403
  353MOL0     C47522   2.936   6.505  10.970 -0.9834 -1.3551  1.3335
  353MOL0     O47523   2.863   6.521  10.857 -0.0581 -0.0379  0.6157
  353MOL0     C47524   2.730   6.564  10.874 -0.5793 -0.0947  0.2202
  353MOL0     C47525   2.627   6.495  10.809  0.1846  0.1967  0.3290
  353MOL0     C47526   2.495   6.540  10.810  0.2769  0.1654  1.5483
  353MOL0     C47527   2.466   6.650  10.887  0.7394 -0.2801 -0.5270
  353MOL0     O47528   2.333   6.694  10.902 -0.3972  0.0576  0.4142
  353MOL0     C47529   2.296   6.763  11.025 -0.7246  0.5442 -0.1577
  353MOL0     C47530   2.145   6.723  11.038  0.3585 -0.0077 -0.4037
  353MOL0     C47531   2.113   6.580  11.058 -0.7115 -0.0596 -1.2291
  353MOL0     C47532   2.124   6.533  11.207 -0.1157 -0.1376  0.5360
  353MOL0     C47533   2.118   6.385  11.212  0.9175 -0.4471  0.5311
  353MOL0     C47534   2.228   6.307  11.143  0.1679  0.9669 -0.2924
  353MOL0     C47535   2.225   6.154  11.158 -0.6676 -0.1673 -0.5189
  353MOL0     C47536   2.088   6.092  11.146 -0.7262  0.6876  0.4206
  353MOL0     N47537   2.100   5.953  11.108 -0.0675 -0.0403  0.2325
  353MOL0     C47538   2.072   5.906  10.985 -0.4277 -0.1987  0.6668
  353MOL0     C47539   2.072   5.770  10.997  0.1172 -0.2843  0.2470
  353MOL0     C47540   2.045   5.663  10.902  0.1330 -0.3415  0.3360
  353MOL0     C47541   2.087   5.524  10.958  0.4811  0.0344 -0.2111
  353MOL0     C47542   2.061   5.413  10.859 -0.0095  0.8434  0.0419
  353MOL0     C47543   1.916   5.371  10.830 -0.5172  0.3288  0.4013
  353MOL0     O47544   1.863   5.283  10.930  0.7915  0.5602 -0.0290
  353MOL0     C47545   1.726   5.238  10.918 -0.4060 -0.2345  1.6570
  353MOL0     C47546   1.642   5.262  10.809 -0.7310  0.7825  0.0769
  353MOL0     C47547   1.511   5.219  10.807 -0.1070  0.7596 -0.5188
  353MOL0     C47548   1.437   5.245  10.678  0.2738  0.1630  0.0035
  353MOL0     C47549   1.457   5.139  10.914  0.7169 -0.6284 -0.2151
  353MOL0     C47550   1.317   5.084  10.921 -0.6638  0.1983  0.2120
  353MOL0     O47551   1.298   5.014  11.026 -0.4563  0.5524 -0.0027
  353MOL0     C47552   1.169   4.976  11.061 -0.3417  0.6670  0.7197
  353MOL0     C47553   1.126   5.025  11.180  0.4053 -0.2904 -0.3005
  353MOL0     C47554   0.993   5.001  11.221 -1.1233  1.2803  0.1473
  353MOL0     C47555   0.904   4.929  11.141  0.5260 -0.0416  0.2313
  353MOL0     O47556   0.777   4.925  11.183  0.2957  0.7008 -0.7645
  353MOL0     C47557   0.688   4.838  11.123  0.1586  0.1957  0.2520
  353MOL0     C47558   0.618   4.761  11.235 -0.7633 -0.1820 -0.6448
  353MOL0     C47559   0.464   4.750  11.205  0.1839 -0.9281 -0.5625
  353MOL0     C47560   0.400   4.662  11.319 -0.1307  0.0114  0.3441
  353MOL0     C47561   0.254   4.616  11.293 -0.0536  0.2616 -0.0620
  353MOL0     C47562   0.265   4.490  11.207  0.6260 -0.2684  0.1752
  353MOL0     C47563   0.121   4.441  11.173  0.6959 -0.6383 -0.1344
  353MOL0     C47564   0.079   4.464  11.030  0.1176 -0.6622 -0.5600
  353MOL0    Cl47565   0.046   4.636  10.999 -0.0274  0.1466  0.0331
  353MOL0     C47566   0.955   4.877  11.017 -0.4388  0.6551  1.1827
  353MOL0     C47567   1.085   4.902  10.976 -0.3380 -0.2936 -0.6062
  353MOL0     O47568   1.234   5.116  10.842 -0.1399  0.0379  0.1709
  353MOL0     C47569   1.547   5.122  11.026 -0.4595  0.6518  0.3989
  353MOL0     C47570   1.675   5.170  11.027 -0.0606 -0.2151 -0.3460
  353MOL0     N47571   2.087   5.743  11.130  0.2104  1.2239 -0.2821
  353MOL0     N47572   2.091   5.848  11.204  0.3701 -0.6205  0.4715
  353MOL0     C47573   2.572   6.726  10.950  0.4758  0.9727 -0.3175
  353MOL0     C47574   2.704   6.680  10.948 -0.0959  0.2479 -0.4577
  353MOL0     C47575   3.069   6.453  10.937  0.1267  0.9115 -0.1172
  353MOL0     C47576   3.118   6.444  10.799 -0.6693  0.3932 -0.5283
  353MOL0     C47577   3.249   6.399  10.777  0.6857  0.7304  0.6210
  353MOL0     C47578   3.328   6.341  10.875  0.0906 -0.5208  0.1814
  353MOL0     O47579   3.443   6.282  10.834 -0.1154  1.1531 -0.3118
  353MOL0     C47580   3.532   6.231  10.932  1.1552 -0.0035  0.3543
  353MOL0     C47581   3.679   6.209  10.890 -0.0405  0.3073  0.3582
  353MOL0     C47582   3.735   6.331  10.819  0.0775  0.2271 -0.4784
  353MOL0     C47583   3.888   6.326  10.776 -0.3568  0.8308  0.1327
  353MOL0     C47584   3.974   6.287  10.892  1.1250  0.6562  0.6108
  353MOL0     C47585   4.054   6.252  10.981  0.3968 -0.4301 -0.4130
  353MOL0     C47586   3.278   6.351  11.006 -0.8789 -0.4419 -0.3058
  353MOL0     C47587   3.153   6.401  11.044 -0.1105 -0.4669 -0.0340
  353MOL0     H47588   2.659   6.408  10.753 -1.6307  0.5329 -1.3376
  353MOL0     H47589   2.409   6.500  10.758 -0.4178 -0.5524  3.1920
  353MOL0     H47590   2.359   6.734  11.110 -0.5117  1.0281 -0.1520
  353MOL0     H47591   2.296   6.872  11.016 -1.0789  0.5079 -0.6533
  353MOL0     H47592   2.108   6.786  11.119 -3.8246  1.6906 -3.2865
  353MOL0     H47593   2.090   6.756  10.949  0.2797  3.7112  0.8312
  353MOL0     H47594   2.013   6.559  11.019 -0.5805 -0.1814 -1.4988
  353MOL0     H47595   2.179   6.525  10.991  3.4740  0.4512  2.0648
  353MOL0     H47596   2.216   6.567  11.255  0.9142 -0.9978 -0.7739
  353MOL0     H47597   2.042   6.579  11.264  0.7468  0.5055  1.2973
  353MOL0     H47598   2.113   6.352  11.316  0.4641  1.4548  1.1620
  353MOL0     H47599   2.022   6.363  11.163  1.3097 -1.7439  0.3079
  353MOL0     H47600   2.214   6.320  11.035  1.8901 -0.9587 -0.8102
  353MOL0     H47601   2.331   6.335  11.166  0.1844 -0.2342  1.2974
  353MOL0     H47602   2.292   6.123  11.077  2.8386 -0.8788  2.3701
  353MOL0     H47603   2.274   6.124  11.251  0.1196 -0.0898 -0.8984
  353MOL0     H47604   2.026   6.141  11.071 -0.3805  1.1645  0.4393
  353MOL0     H47605   2.030   6.105  11.238  0.5122  3.0512  0.9568
  353MOL0     H47606   2.057   5.964  10.895 -2.8638 -0.5779  0.7452
  353MOL0     H47607   1.936   5.666  10.887  0.4355  0.2640 -2.3835
  353MOL0     H47608   2.094   5.688  10.807  0.7010  0.3479  0.8070
  353MOL0     H47609   2.027   5.498  11.046 -0.3953 -1.2094 -1.1315
  353MOL0     H47610   2.191   5.522  10.991  0.3570  0.4379  0.2037
  353MOL0     H47611   2.116   5.324  10.892 -0.2381  0.3043 -0.9794
  353MOL0     H47612   2.106   5.439  10.762  0.8633 -2.7282 -0.6673
  353MOL0     H47613   1.903   5.323  10.733 -3.5050 -0.4338  1.1000
  353MOL0     H47614   1.846   5.454  10.838 -0.7577 -0.0313  3.2274
  353MOL0     H47615   1.677   5.318  10.723 -2.5572  2.9206  0.6489
  353MOL0     H47616   1.384   5.341  10.681 -0.9061 -0.3817 -1.7117
  353MOL0     H47617   1.510   5.239  10.597 -0.8698 -0.1417 -1.0394
  353MOL0     H47618   1.363   5.166  10.659  0.3865  0.9760 -5.0588
  353MOL0     H47619   1.193   5.089  11.238  0.6567 -0.0369 -0.8606
  353MOL0     H47620   0.968   5.048  11.316  1.5392  1.3453  0.8941
  353MOL0     H47621   0.622   4.906  11.068  0.5064 -0.0285 -0.4639
  353MOL0     H47622   0.718   4.761  11.051 -2.4002 -1.2506  0.5999
  353MOL0     H47623   0.663   4.662  11.226 -1.2611 -0.6043  1.1449
  353MOL0     H47624   0.648   4.809  11.328 -0.0258  0.1998 -1.0727
  353MOL0     H47625   0.437   4.711  11.106  0.8406  0.7085 -1.4334
  353MOL0     H47626   0.416   4.847  11.214  0.2358 -0.9574  0.0969
  353MOL0     H47627   0.467   4.583  11.353  0.1820 -0.2440 -0.8253
  353MOL0     H47628   0.381   4.725  11.406 -1.3286  1.6645 -1.0469
  353MOL0     H47629   0.196   4.693  11.241  1.0063 -0.2582 -2.0738
  353MOL0     H47630   0.201   4.587  11.384 -2.8781 -1.6569 -2.1526
  353MOL0     H47631   0.320   4.514  11.116  1.1278  0.9775  0.7759
  353MOL0     H47632   0.317   4.413  11.264  0.8154  0.9675  1.7392
  353MOL0     H47633   0.051   4.482  11.246 -0.0500 -2.8298  0.4421
  353MOL0     H47634   0.115   4.333  11.188  0.2451 -0.5304  0.5030
  353MOL0     H47635  -0.006   4.405  10.995  0.1708 -0.5072 -0.9625
  353MOL0     H47636   0.155   4.429  10.960 -1.2299 -3.6956 -0.6578
  353MOL0     H47637   0.905   4.819  10.940  2.7990 -0.5789 -0.1567
  353MOL0     H47638   1.132   4.873  10.882 -0.4668 -0.9173 -0.4816
  353MOL0     H47639   1.502   5.075  11.113 -0.6649 -0.1367 -0.1171
  353MOL0     H47640   1.743   5.150  11.110  5.1321  1.6033 -3.6455
  353MOL0     H47641   2.554   6.809  11.017 -0.9637 -1.5160  2.6503
  353MOL0     H47642   2.780   6.734  11.004  2.4305 -4.0033  0.6230
  353MOL0     H47643   3.068   6.477  10.708 -2.1728 -0.3693 -0.0026
  353MOL0     H47644   3.288   6.389  10.677 -1.3824 -2.1543 -0.0362
  353MOL0     H47645   3.535   6.314  11.003  0.9100  0.0988  0.2457
  353MOL0     H47646   3.497   6.142  10.985 -1.5610  1.1967  0.7373
  353MOL0     H47647   3.696   6.116  10.834  2.5018 -1.2391  3.4181
  353MOL0     H47648   3.736   6.186  10.980 -1.4913 -2.4873  0.6715
  353MOL0     H47649   3.726   6.412  10.892 -2.2494  0.9939 -1.5193
  353MOL0     H47650   3.663   6.348  10.739  0.4457  0.3007 -0.7967
  353MOL0     H47651   3.914   6.427  10.744 -0.9984  0.0292 -3.4009
  353MOL0     H47652   3.904   6.258  10.691 -0.2385  1.3196 -0.2398
  353MOL0     H47653   4.117   6.207  11.055 -0.9793  0.8237  1.6357
  353MOL0     H47654   3.325   6.319  11.098 -0.9066  3.3467  1.2016
  353MOL0     H47655   3.128   6.398  11.149 -0.2446 -2.0067 -0.0824
  354MOL0     O47656   6.081   2.263   7.992 -0.0376  0.4154  0.0430
  354MOL0     C47657   6.076   2.155   7.932 -0.1197 -0.8516 -1.0501
  354MOL0     O47658   5.963   2.085   7.919  0.5247 -0.0484 -0.5190
  354MOL0     C47659   5.843   2.151   7.942  0.4401 -0.5576 -0.8246
  354MOL0     C47660   5.811   2.281   7.903  0.7056 -0.2307  0.2204
  354MOL0     C47661   5.695   2.345   7.931  0.4224  0.8423 -0.2642
  354MOL0     C47662   5.602   2.277   8.020 -0.7894 -0.1186 -0.2909
  354MOL0     O47663   5.498   2.349   8.061  0.2007  0.2050  0.5440
  354MOL0     C47664   5.371   2.281   8.049 -0.8350  0.2867  0.4377
  354MOL0     C47665   5.246   2.362   8.035 -0.2872 -0.7185  0.6225
  354MOL0     C47666   5.133   2.276   7.985  0.6923 -0.7934 -0.2541
  354MOL0     C47667   5.010   2.368   7.965 -0.2419  0.0580  0.8806
  354MOL0     C47668   4.932   2.394   8.093  0.7694  0.5975 -0.1974
  354MOL0     C47669   4.799   2.454   8.064  0.7662  0.0852  0.9514
  354MOL0     C47670   4.703   2.427   8.181  0.7582  1.0099  0.1088
  354MOL0     C47671   4.561   2.493   8.155  0.5551 -0.1516 -0.8331
  354MOL0     N47672   4.461   2.418   8.242 -1.1015 -0.2736 -0.2873
  354MOL0     C47673   4.406   2.443   8.359 -1.1315 -0.1607  0.0980
  354MOL0     C47674   4.301   2.368   8.370 -0.9745  0.4304  0.2158
  354MOL0     C47675   4.197   2.383   8.474  0.7709  0.8069 -0.2193
  354MOL0     C47676   4.184   2.264   8.580  1.0390 -0.0487 -0.4295
  354MOL0     C47677   4.089   2.161   8.512 -0.3665 -0.0801  0.6063
  354MOL0     C47678   4.042   2.055   8.608 -0.3351 -0.1070 -0.1397
  354MOL0     O47679   3.967   1.949   8.545 -0.1744  0.1807 -0.2013
  354MOL0     C47680   3.839   1.959   8.502 -0.6177 -0.3655  0.4402
  354MOL0     C47681   3.779   1.859   8.426 -0.4033 -0.6346 -0.2865
  354MOL0     C47682   3.647   1.873   8.371  0.2644 -0.3868 -0.3313
  354MOL0     C47683   3.597   1.752   8.297 -0.6213  0.9398 -0.6632
  354MOL0     C47684   3.574   1.987   8.379  0.6549  0.1778  0.0928
  354MOL0     C47685   3.437   2.006   8.321 -0.0377 -0.3609 -0.7367
  354MOL0     O47686   3.426   1.967   8.190 -0.2274  0.1858 -0.1827
  354MOL0     C47687   3.307   1.994   8.132  0.0637  0.1778 -0.3468
  354MOL0     C47688   3.188   1.925   8.138  0.7139  0.3385  0.0253
  354MOL0     C47689   3.067   1.957   8.077  0.0359 -0.5557 -0.9212
  354MOL0     C47690   3.059   2.071   7.997  0.5768 -0.6562 -0.0513
  354MOL0     O47691   2.936   2.103   7.942  0.0294 -0.5728 -0.5448
  354MOL0     C47692   2.936   2.197   7.834 -0.2701 -0.8570 -0.1620
  354MOL0     C47693   2.802   2.208   7.769  0.4513  1.1121 -0.5578
  354MOL0     C47694   2.704   2.259   7.879 -0.3263  0.7662 -0.0841
  354MOL0     C47695   2.566   2.298   7.829 -0.0242 -0.4917 -0.0439
  354MOL0     C47696   2.451   2.305   7.942 -0.9990 -0.8737  0.1701
  354MOL0     C47697   2.321   2.369   7.910  0.2369  0.2561  0.3168
  354MOL0     C47698   2.225   2.388   8.032 -0.6088 -0.2667  0.8645
  354MOL0     C47699   2.263   2.512   8.107  0.4990  1.0128  0.1062
  354MOL0    Cl47700   2.245   2.658   8.012  0.3056 -0.3810 -0.0495
  354MOL0     C47701   3.183   2.142   7.980  0.4028 -0.2124  0.1926
  354MOL0     C47702   3.304   2.105   8.043  0.0523 -1.0043 -0.0730
  354MOL0     O47703   3.346   2.056   8.390 -0.1149  0.3587  0.2040
  354MOL0     C47704   3.625   2.088   8.455 -0.1147 -0.5934  0.2124
  354MOL0     C47705   3.751   2.069   8.518 -0.0311  0.0074  0.5243
  354MOL0     N47706   4.298   2.276   8.269  0.1437 -0.5441  0.9262
  354MOL0     N47707   4.395   2.317   8.190  0.3709  0.3258  0.2496
  354MOL0     C47708   5.633   2.147   8.056 -0.2552 -0.5564  0.0080
  354MOL0     C47709   5.744   2.083   8.012 -0.0869  0.3121 -0.0182
  354MOL0     C47710   6.206   2.095   7.888 -0.8190  0.8176 -0.2503
  354MOL0     C47711   6.204   1.993   7.797  0.2725 -0.2338  0.3370
  354MOL0     C47712   6.317   1.932   7.746  0.3607  0.5583 -0.3830
  354MOL0     C47713   6.437   1.963   7.800 -1.1096 -0.1132  0.1930
  354MOL0     O47714   6.558   1.892   7.767  0.1316 -0.3252 -1.0112
  354MOL0     C47715   6.572   1.819   7.643  0.4964 -0.0901 -0.9180
  354MOL0     C47716   6.709   1.836   7.598 -0.3899  0.8286 -0.2785
  354MOL0     C47717   6.763   1.985   7.594  0.7508 -0.2345 -0.2101
  354MOL0     C47718   6.899   1.992   7.512  0.3716  0.9615  0.0132
  354MOL0     C47719   6.920   2.126   7.461 -0.1808 -0.4919  0.5428
  354MOL0     C47720   6.947   2.237   7.418 -0.2596 -0.5303 -0.0570
  354MOL0     C47721   6.444   2.063   7.897 -0.1432  0.6352  0.2490
  354MOL0     C47722   6.330   2.126   7.942 -0.6153 -0.9184  0.0541
  354MOL0     H47723   5.888   2.335   7.850 -1.8318  1.9403 -1.5265
  354MOL0     H47724   5.666   2.445   7.901  1.6862  2.0353  2.2028
  354MOL0     H47725   5.382   2.222   7.957  0.2717 -0.7440  1.1946
  354MOL0     H47726   5.355   2.220   8.139 -0.2628 -0.6964 -0.1125
  354MOL0     H47727   5.210   2.396   8.133 -2.3929 -1.5352  0.1873
  354MOL0     H47728   5.252   2.446   7.965 -1.9996  0.0884  1.3853
  354MOL0     H47729   5.153   2.234   7.886 -1.1524  0.2804 -1.1482
  354MOL0     H47730   5.115   2.205   8.066 -0.7361  0.2528  0.4065
  354MOL0     H47731   5.032   2.462   7.915 -1.4926  0.5003  1.1288
  354MOL0     H47732   4.939   2.309   7.906  0.4667  0.3911 -0.3412
  354MOL0     H47733   4.921   2.294   8.136  0.9348  1.4208  1.9019
  354MOL0     H47734   4.985   2.459   8.164 -0.5489  1.4972  0.0026
  354MOL0     H47735   4.803   2.559   8.034 -1.1899 -0.5380 -1.8829
  354MOL0     H47736   4.749   2.410   7.978 -2.2476  3.4214  0.7479
  354MOL0     H47737   4.692   2.320   8.201 -1.7422  1.5605  2.1120
  354MOL0     H47738   4.746   2.470   8.272  1.6671  0.9014 -0.2600
  354MOL0     H47739   4.524   2.486   8.052  1.2299  1.2010 -1.1975
  354MOL0     H47740   4.575   2.596   8.188  2.0576 -1.4354  3.0543
  354MOL0     H47741   4.432   2.520   8.431 -1.9627 -0.0416  0.2706
  354MOL0     H47742   4.225   2.467   8.537  0.5326 -0.6283  1.9048
  354MOL0     H47743   4.096   2.402   8.436  0.1620  2.6291  2.0891
  354MOL0     H47744   4.137   2.306   8.670 -1.2885 -1.4076 -0.9474
  354MOL0     H47745   4.275   2.204   8.597 -0.7785 -2.7699  0.3692
  354MOL0     H47746   4.136   2.116   8.424 -3.6188 -3.2417  0.2453
  354MOL0     H47747   3.994   2.214   8.498 -0.2236  0.9977  3.2839
  354MOL0     H47748   3.987   2.104   8.688  0.6591 -1.1909  1.2719
  354MOL0     H47749   4.124   2.006   8.662 -0.7814 -0.5164  0.1804
  354MOL0     H47750   3.836   1.768   8.406  0.8484 -0.0325  0.3962
  354MOL0     H47751   3.490   1.758   8.274 -0.4036  2.2074 -1.4597
  354MOL0     H47752   3.656   1.734   8.207  0.8711  0.4644  0.3788
  354MOL0     H47753   3.609   1.663   8.359  0.4287 -0.3776 -2.6749
  354MOL0     H47754   3.181   1.840   8.206 -2.0186  0.0868 -0.4647
  354MOL0     H47755   2.978   1.898   8.097 -0.3208  0.5798  1.3177
  354MOL0     H47756   2.956   2.299   7.867  0.5426 -1.0105 -0.1573
  354MOL0     H47757   3.012   2.172   7.760 -2.0792  0.2937 -2.5469
  354MOL0     H47758   2.820   2.281   7.689  0.6454  0.1518 -1.4063
  354MOL0     H47759   2.769   2.118   7.717 -0.7138  1.7262 -0.8976
  354MOL0     H47760   2.739   2.356   7.915 -0.7106  1.3527 -1.2543
  354MOL0     H47761   2.690   2.191   7.964 -1.4725 -2.0906 -2.3873
  354MOL0     H47762   2.565   2.401   7.793  1.0881  0.1470  1.6119
  354MOL0     H47763   2.528   2.227   7.756 -0.4049 -0.9765  0.6118
  354MOL0     H47764   2.482   2.357   8.034  0.7440 -0.8444 -0.3859
  354MOL0     H47765   2.444   2.200   7.973  3.7720 -0.9676  1.8415
  354MOL0     H47766   2.344   2.459   7.852 -0.2584 -0.1264 -0.4905
  354MOL0     H47767   2.278   2.307   7.831  3.5255 -0.5325 -1.0256
  354MOL0     H47768   2.228   2.304   8.103 -0.9162 -0.7954  0.2693
  354MOL0     H47769   2.120   2.394   8.001 -0.6874 -1.4597  0.8367
  354MOL0     H47770   2.360   2.497   8.156  1.3474 -1.0237 -1.9946
  354MOL0     H47771   2.189   2.510   8.187 -0.8675 -1.9832 -1.0996
  354MOL0     H47772   3.194   2.226   7.912  1.8890 -1.0538 -0.6760
  354MOL0     H47773   3.392   2.168   8.035 -0.8682  0.2309 -0.7636
  354MOL0     H47774   3.577   2.184   8.442  1.6708  0.4812  1.1889
  354MOL0     H47775   3.788   2.156   8.570  1.2159  2.3369 -3.7459
  354MOL0     H47776   5.572   2.089   8.123  0.2084  1.0838  1.9582
  354MOL0     H47777   5.752   1.978   8.039 -0.4018 -0.5126 -2.8586
  354MOL0     H47778   6.109   1.953   7.762  0.7170 -1.9066  0.9785
  354MOL0     H47779   6.304   1.857   7.668 -2.7839 -0.0260  0.5480
  354MOL0     H47780   6.531   1.717   7.653  1.5326 -0.3587  1.0805
  354MOL0     H47781   6.516   1.872   7.566  0.5781  1.6629  0.1883
  354MOL0     H47782   6.720   1.795   7.497 -0.7081  0.6156 -0.2281
  354MOL0     H47783   6.773   1.776   7.664 -1.2619 -1.9510 -1.8158
  354MOL0     H47784   6.782   2.021   7.696  0.4085 -0.6557  0.0080
  354MOL0     H47785   6.692   2.057   7.554  0.0990 -0.1376  1.0784
  354MOL0     H47786   6.890   1.930   7.422  2.3067 -0.1168  0.5059
  354MOL0     H47787   6.981   1.952   7.572  0.1606  1.4091  0.6128
  354MOL0     H47788   6.961   2.337   7.384 -0.3377 -0.3564  0.4172
  354MOL0     H47789   6.537   2.088   7.947  0.1728  1.4252 -0.6850
  354MOL0     H47790   6.346   2.201   8.019 -0.2527 -0.5173 -0.4092
  355MOL0     O47791   5.969  11.135   7.601 -0.2414  0.0720  0.1298
  355MOL0     C47792   6.011  11.053   7.686  0.5987 -0.3892 -0.2627
  355MOL0     O47793   5.936  10.997   7.781 -0.4746 -0.6971 -0.2844
  355MOL0     C47794   5.797  11.001   7.770 -0.5377 -1.2586 -0.0078
  355MOL0     C47795   5.723  11.018   7.646  0.5116  0.8420 -1.0503
  355MOL0     C47796   5.588  11.040   7.653 -0.2871 -0.0172  0.8309
  355MOL0     C47797   5.520  11.055   7.771  0.1670  1.0325  0.5975
  355MOL0     O47798   5.389  11.084   7.765  0.2246  0.1953  0.2934
  355MOL0     C47799   5.347  11.201   7.833  0.1965 -0.6237  0.2218
  355MOL0     C47800   5.202  11.182   7.872  0.4036  0.3571 -0.4144
  355MOL0     C47801   5.123  11.313   7.895  0.5648 -0.0555 -0.8527
  355MOL0     C47802   5.046  11.295   8.026  0.6391  0.4474 -0.1744
  355MOL0     C47803   4.947  11.413   8.050 -0.4632  0.3179 -0.6167
  355MOL0     C47804   4.835  11.419   7.935 -0.2030 -0.9269 -0.0099
  355MOL0     C47805   4.747  11.302   7.888 -0.4960  0.3186 -0.8839
  355MOL0     C47806   4.679  11.246   8.015  0.7532 -0.0935 -0.7951
  355MOL0     N47807   4.562  11.161   7.979 -0.3295  0.4382  0.5087
  355MOL0     C47808   4.433  11.207   7.982  0.4315  0.4200  0.3706
  355MOL0     C47809   4.363  11.100   7.935  0.1063  0.1415  0.1268
  355MOL0     C47810   4.212  11.094   7.943 -0.5000  0.5094 -0.8481
  355MOL0     C47811   4.148  11.132   7.814  0.2311  0.2073 -0.0244
  355MOL0     C47812   3.998  11.151   7.826 -0.6095  0.1410 -0.1838
  355MOL0     C47813   3.933  11.014   7.869  0.0413  0.5465 -0.5312
  355MOL0     O47814   3.791  11.013   7.852 -0.8834  0.4360 -0.5747
  355MOL0     C47815   3.745  11.001   7.729  0.2269  0.1201  0.5836
  355MOL0     C47816   3.816  10.970   7.609 -0.2507  0.2089  0.0413
  355MOL0     C47817   3.742  10.960   7.485 -0.0766 -0.6855 -0.5279
  355MOL0     C47818   3.801  10.903   7.358  0.3761  0.9662 -0.0871
  355MOL0     C47819   3.613  11.011   7.475 -0.2530  0.8684 -0.2698
  355MOL0     C47820   3.533  11.013   7.355  0.4653 -0.4517  0.2048
  355MOL0     O47821   3.443  11.107   7.347 -1.0425 -0.6894 -0.0334
  355MOL0     C47822   3.357  11.095   7.245 -0.0462  0.2051  0.8425
  355MOL0     C47823   3.228  11.059   7.254  0.5852 -0.5059 -0.4471
  355MOL0     C47824   3.145  11.060   7.147  0.0974 -0.2995 -0.2089
  355MOL0     C47825   3.185  11.089   7.021  0.5582 -0.3270  0.2362
  355MOL0     O47826   3.121  11.076   6.900  0.2689  0.1682  0.6037
  355MOL0     C47827   2.983  11.111   6.886 -0.1063 -0.6234 -0.4386
  355MOL0     C47828   2.965  11.264   6.888  0.0325  0.4614 -0.0093
  355MOL0     C47829   3.016  11.331   6.760 -0.2009  0.2396  0.2103
  355MOL0     C47830   2.955  11.478   6.758 -0.2104  0.4068  0.1513
  355MOL0     C47831   2.994  11.563   6.879  0.1044 -0.5385  0.2417
  355MOL0     C47832   3.145  11.587   6.860 -0.2991  0.2945 -0.1431
  355MOL0     C47833   3.189  11.709   6.941  1.3174  0.2186 -0.5638
  355MOL0     C47834   3.304  11.783   6.868 -0.4151 -0.2943  0.5446
  355MOL0    Cl47835   3.247  11.870   6.719 -0.1115 -0.1862  0.2767
  355MOL0     C47836   3.314  11.142   7.007  0.1372  0.5621 -0.3143
  355MOL0     C47837   3.401  11.144   7.120  0.1961  0.2195  0.0462
  355MOL0     O47838   3.549  10.923   7.273  0.2285 -0.2835 -0.4648
  355MOL0     C47839   3.544  11.040   7.600  0.4343  0.3731  0.4497
  355MOL0     C47840   3.609  11.032   7.721 -0.6776 -0.6657  0.0519
  355MOL0     N47841   4.444  10.995   7.899 -0.4570 -0.2782 -0.1510
  355MOL0     N47842   4.569  11.029   7.931 -0.4084  0.2694 -0.2593
  355MOL0     C47843   5.592  11.037   7.893  0.5558  0.5326 -0.4373
  355MOL0     C47844   5.734  11.017   7.897  0.0807  0.2109  0.3391
  355MOL0     C47845   6.135  10.987   7.646 -0.7001 -0.1253  0.1008
  355MOL0     C47846   6.183  10.992   7.516  0.0701  0.2766  0.7106
  355MOL0     C47847   6.290  10.904   7.471  0.7211 -0.5876  0.4097
  355MOL0     C47848   6.349  10.814   7.560  0.1129 -0.4530  0.1275
  355MOL0     O47849   6.452  10.733   7.528 -0.2079 -0.0965  0.3585
  355MOL0     C47850   6.573  10.808   7.535 -0.3032 -0.8221  0.1204
  355MOL0     C47851   6.619  10.820   7.679  0.0930  0.4160  0.3213
  355MOL0     C47852   6.625  10.684   7.743 -0.2649  0.3978 -0.0751
  355MOL0     C47853   6.676  10.681   7.882 -0.0931 -0.0515 -0.2797
  355MOL0     C47854   6.569  10.727   7.968  0.4063 -0.6817 -0.0857
  355MOL0     C47855   6.493  10.782   8.044 -0.5329 -0.2041 -0.0188
  355MOL0     C47856   6.299  10.811   7.692 -0.6021 -0.5480 -0.0448
  355MOL0     C47857   6.195  10.893   7.738 -0.2336  0.3236 -0.1880
  355MOL0     H47858   5.769  10.988   7.552  2.6945 -1.0519  0.4940
  355MOL0     H47859   5.530  11.061   7.564 -0.5706 -1.8581  0.5434
  355MOL0     H47860   5.406  11.233   7.920  0.1638  0.4457 -0.1333
  355MOL0     H47861   5.342  11.283   7.761 -1.9947  0.0876  1.1097
  355MOL0     H47862   5.153  11.132   7.788 -0.8415  0.3858  0.2749
  355MOL0     H47863   5.218  11.114   7.956  0.1175  1.5216  0.6137
  355MOL0     H47864   5.179  11.407   7.897  0.8829 -0.2494 -0.7383
  355MOL0     H47865   5.043  11.322   7.820  0.3048  0.2009 -0.5489
  355MOL0     H47866   4.997  11.199   8.008  3.7459 -1.1401 -0.8333
  355MOL0     H47867   5.104  11.286   8.119 -1.4514  2.5580  1.4514
  355MOL0     H47868   4.903  11.408   8.150  3.7921  0.1916  1.4690
  355MOL0     H47869   5.015  11.499   8.051  2.7138 -1.9906  1.1589
  355MOL0     H47870   4.762  11.486   7.980 -0.6333 -1.9858  0.9307
  355MOL0     H47871   4.877  11.471   7.848  1.7256 -0.4156  1.1654
  355MOL0     H47872   4.659  11.322   7.825 -1.4838  0.9305  0.6253
  355MOL0     H47873   4.806  11.226   7.836  0.5139 -0.1558  0.8756
  355MOL0     H47874   4.643  11.323   8.083  3.2431  0.1039  0.3946
  355MOL0     H47875   4.746  11.181   8.072 -0.1492 -0.2736  0.0768
  355MOL0     H47876   4.392  11.299   8.021 -2.4897 -1.2944  1.6394
  355MOL0     H47877   4.187  11.006   8.003 -1.1428  0.8796 -0.5664
  355MOL0     H47878   4.170  11.166   8.014  0.0406  0.0999 -0.1042
  355MOL0     H47879   4.162  11.056   7.736  1.0227  1.4080 -1.0826
  355MOL0     H47880   4.176  11.229   7.772 -0.4703 -0.0038 -1.0045
  355MOL0     H47881   3.973  11.163   7.720  1.2089 -0.6463 -0.7435
  355MOL0     H47882   3.979  11.232   7.896  0.1143  1.9750 -1.9803
  355MOL0     H47883   3.958  11.002   7.975  0.1152  0.1718 -0.5895
  355MOL0     H47884   3.984  10.934   7.815  0.1987  0.5487 -0.3859
  355MOL0     H47885   3.919  10.935   7.614 -1.0549 -2.1661  2.2230
  355MOL0     H47886   3.792  10.967   7.269  2.6069 -0.1029 -1.1544
  355MOL0     H47887   3.902  10.868   7.384 -0.5503 -2.0337 -0.2579
  355MOL0     H47888   3.744  10.815   7.328  2.2515  0.8211 -3.8160
  355MOL0     H47889   3.178  11.028   7.345  0.5967  0.5819 -0.0481
  355MOL0     H47890   3.042  11.030   7.159 -0.2930  0.6282 -1.1738
  355MOL0     H47891   2.931  11.071   6.798 -0.5003 -1.5338  0.1882
  355MOL0     H47892   2.929  11.074   6.974  0.1651  0.4864  0.2145
  355MOL0     H47893   2.856  11.264   6.900  0.2792 -1.0906  3.1639
  355MOL0     H47894   3.012  11.305   6.977  2.5424 -0.0279 -1.0322
  355MOL0     H47895   2.977  11.285   6.669  1.6906  2.2300 -1.7452
  355MOL0     H47896   3.125  11.330   6.746 -0.3155 -0.2439 -0.6813
  355MOL0     H47897   2.989  11.529   6.668  0.0157  0.2446  0.1412
  355MOL0     H47898   2.846  11.476   6.753 -0.2579  1.1352  0.7258
  355MOL0     H47899   2.977  11.530   6.982 -1.4712 -0.1234  0.1454
  355MOL0     H47900   2.940  11.659   6.872  0.6994 -0.2995 -1.4639
  355MOL0     H47901   3.214  11.504   6.881 -2.1923 -1.4273 -0.3353
  355MOL0     H47902   3.157  11.599   6.752  0.1256 -1.5788 -0.3521
  355MOL0     H47903   3.207  11.690   7.047  1.1329 -1.9125 -0.8756
  355MOL0     H47904   3.104  11.777   6.946  1.8327  0.8430 -0.1047
  355MOL0     H47905   3.372  11.706   6.831  0.4307  0.0970  1.2466
  355MOL0     H47906   3.359  11.854   6.931  0.2632 -0.8595  0.5970
  355MOL0     H47907   3.343  11.201   6.921 -1.0128  1.6650  0.0181
  355MOL0     H47908   3.497  11.193   7.109 -0.0975  0.3875 -2.1654
  355MOL0     H47909   3.440  11.072   7.599  1.4606  4.2079 -0.4849
  355MOL0     H47910   3.559  11.059   7.813  0.4091  0.9083  0.2124
  355MOL0     H47911   5.531  11.058   7.980 -1.0138 -0.8330 -1.1630
  355MOL0     H47912   5.793  11.018   7.988 -0.7941  2.1370  0.9447
  355MOL0     H47913   6.121  11.049   7.447 -0.5327 -2.5868 -1.2518
  355MOL0     H47914   6.312  10.894   7.365 -0.4574 -1.3521  0.2146
  355MOL0     H47915   6.657  10.771   7.475  0.8080  0.0083  1.1276
  355MOL0     H47916   6.555  10.910   7.501 -0.5895 -0.3984  1.4976
  355MOL0     H47917   6.558  10.890   7.737  0.6244  2.8138 -1.8723
  355MOL0     H47918   6.720  10.862   7.680  1.5491 -2.2408 -4.4814
  355MOL0     H47919   6.691  10.631   7.674 -0.4061 -0.7521  0.6443
  355MOL0     H47920   6.531  10.628   7.735 -0.0134  0.1047 -1.1672
  355MOL0     H47921   6.753  10.756   7.900 -0.2689 -0.3537  1.9474
  355MOL0     H47922   6.713  10.585   7.918  1.8334 -0.3386 -2.7231
  355MOL0     H47923   6.427  10.841   8.104 -1.3192 -2.0514  1.0372
  355MOL0     H47924   6.342  10.745   7.767 -0.4318 -0.6375 -0.2228
  355MOL0     H47925   6.158  10.872   7.838  1.5167 -1.5888  0.1230
  356MOL0     O47926   3.179   6.860   7.235 -0.8259  0.4405  0.5932
  356MOL0     C47927   3.251   6.854   7.133 -0.8671 -0.1064  0.6777
  356MOL0     O47928   3.198   6.868   7.002 -0.1107 -0.3136 -0.4831
  356MOL0     C47929   3.066   6.899   6.975  0.3514 -1.0984 -0.0083
  356MOL0     C47930   2.960   6.825   7.028 -0.2294 -0.5900 -0.5269
  356MOL0     C47931   2.829   6.860   6.990  0.1861  0.3520 -0.5784
  356MOL0     C47932   2.799   6.963   6.899 -0.0003  0.3831 -0.0511
  356MOL0     O47933   2.662   6.982   6.866 -0.1035  0.0654 -0.6130
  356MOL0     C47934   2.630   7.101   6.789  0.0285 -0.3358 -0.8665
  356MOL0     C47935   2.490   7.160   6.800 -0.2141  0.1064 -0.2003
  356MOL0     C47936   2.475   7.284   6.718  0.0151  0.1528  0.2930
  356MOL0     C47937   2.330   7.355   6.715 -0.3903 -0.4297  0.2760
  356MOL0     C47938   2.247   7.324   6.838  0.8849  0.1362 -0.5259
  356MOL0     C47939   2.116   7.401   6.845 -0.0091  0.0160 -0.6687
  356MOL0     C47940   2.006   7.317   6.789  0.3999  0.5001 -0.2263
  356MOL0     C47941   1.874   7.406   6.780  0.0916 -0.2503  0.0870
  356MOL0     N47942   1.752   7.324   6.748  0.4037  0.8936  0.4643
  356MOL0     C47943   1.619   7.358   6.765 -0.2708  0.0805 -0.5933
  356MOL0     C47944   1.540   7.269   6.700  0.4927  0.2051 -0.4181
  356MOL0     C47945   1.386   7.287   6.686 -0.4188  0.3999  0.6563
  356MOL0     C47946   1.315   7.159   6.656  0.0664  1.0407  0.2165
  356MOL0     C47947   1.291   7.079   6.786  0.8457 -0.4819 -0.2311
  356MOL0     C47948   1.244   6.932   6.773 -0.4534  0.0978 -0.9674
  356MOL0     O47949   1.118   6.904   6.700 -0.2926  0.1435 -0.0708
  356MOL0     C47950   0.995   6.931   6.760  0.4258  0.6045  0.6450
  356MOL0     C47951   0.876   6.909   6.685  0.2115 -0.0206  0.4628
  356MOL0     C47952   0.748   6.925   6.736  0.3588 -0.6834 -0.3460
  356MOL0     C47953   0.626   6.909   6.640 -0.7192 -0.0520 -0.4540
  356MOL0     C47954   0.734   6.955   6.880 -0.4599  0.6111  0.0006
  356MOL0     C47955   0.612   6.973   6.949 -0.3761  0.4790  1.1725
  356MOL0     O47956   0.602   6.938   7.082 -0.4145 -0.1456 -0.6985
  356MOL0     C47957   0.472   6.944   7.140 -0.1429 -0.1693  0.0794
  356MOL0     C47958   0.380   6.855   7.097  0.3540  0.6766  0.0505
  356MOL0     C47959   0.248   6.854   7.155  0.2033  0.2006 -0.1297
  356MOL0     C47960   0.209   6.951   7.239 -0.1986  0.3567  0.4337
  356MOL0     O47961   0.087   6.972   7.291  0.8204  0.2163  0.4177
  356MOL0     C47962  -0.016   6.968   7.184 -0.5507 -0.5447 -0.1486
  356MOL0     C47963  -0.155   7.009   7.231 -0.1112 -0.1939  0.3944
  356MOL0     C47964  -0.242   7.050   7.108 -0.4324 -0.0215 -0.3382
  356MOL0     C47965  -0.383   7.104   7.148 -0.0940  0.0233  1.0322
  356MOL0     C47966  -0.486   6.990   7.152 -1.1028 -0.5814  0.2062
  356MOL0     C47967  -0.631   7.034   7.168 -0.0081 -0.9937 -0.2268
  356MOL0     C47968  -0.732   6.923   7.142  0.3848  0.1143 -0.3593
  356MOL0     C47969  -0.865   6.937   7.225  0.0340 -0.4710  0.1149
  356MOL0    Cl47970  -0.828   6.924   7.405  0.1300  0.3554 -0.4088
  356MOL0     C47971   0.300   7.042   7.285 -0.4400  0.6295 -0.1536
  356MOL0     C47972   0.434   7.035   7.241  0.2834  0.5403  0.5407
  356MOL0     O47973   0.527   7.021   6.882 -0.1374  0.2315  0.4832
  356MOL0     C47974   0.852   6.966   6.958  0.1707  0.1349  0.1084
  356MOL0     C47975   0.978   6.966   6.896 -0.3570 -0.5051 -0.2869
  356MOL0     N47976   1.626   7.179   6.643  0.0412 -0.3184 -0.6854
  356MOL0     N47977   1.752   7.212   6.673 -0.3344  0.1210 -0.1343
  356MOL0     C47978   2.905   7.033   6.848 -0.6690 -0.0801 -0.2216
  356MOL0     C47979   3.037   7.005   6.892  0.3587  1.3758 -0.1521
  356MOL0     C47980   3.400   6.840   7.140  0.8449 -0.2188 -0.6154
  356MOL0     C47981   3.471   6.816   7.025  0.2388  0.7564  0.1373
  356MOL0     C47982   3.609   6.828   7.028 -0.3959  1.0967 -0.5488
  356MOL0     C47983   3.676   6.834   7.155 -0.0163  0.4222  0.5702
  356MOL0     O47984   3.812   6.836   7.156 -0.3728 -0.7881 -0.2062
  356MOL0     C47985   3.874   6.736   7.241 -0.3090  0.9823  0.1729
  356MOL0     C47986   3.848   6.588   7.201 -0.5058 -0.3468  0.4133
  356MOL0     C47987   3.940   6.539   7.087 -0.3364 -0.1121 -0.3958
  356MOL0     C47988   3.987   6.397   7.105  0.0361 -0.2034 -0.4254
  356MOL0     C47989   4.096   6.385   7.009  0.3308  1.0847 -0.3701
  356MOL0     C47990   4.196   6.362   6.943  0.8090  0.2959 -0.5532
  356MOL0     C47991   3.600   6.856   7.277 -0.5843  0.3649  0.0940
  356MOL0     C47992   3.467   6.848   7.263  0.1438 -1.0211 -0.2333
  356MOL0     H47993   2.983   6.746   7.100 -0.4183 -0.9327 -0.8350
  356MOL0     H47994   2.750   6.797   7.029  0.9245  0.7238  1.6986
  356MOL0     H47995   2.693   7.185   6.821  2.2707 -2.1139 -0.3091
  356MOL0     H47996   2.651   7.088   6.683 -0.4815 -2.3020 -0.7593
  356MOL0     H47997   2.424   7.082   6.763 -1.0559  2.1286 -3.3570
  356MOL0     H47998   2.465   7.181   6.905  0.0189  0.0838 -0.1402
  356MOL0     H47999   2.548   7.356   6.755  1.1934  0.3338 -2.1990
  356MOL0     H48000   2.514   7.278   6.617 -1.5689 -0.5499 -0.3102
  356MOL0     H48001   2.361   7.459   6.699 -1.5820 -0.2173 -0.7372
  356MOL0     H48002   2.272   7.344   6.623  2.0388 -0.4822 -1.3672
  356MOL0     H48003   2.240   7.215   6.844 -0.8527  0.2879  0.8374
  356MOL0     H48004   2.298   7.351   6.930  0.3169 -2.1820  0.5593
  356MOL0     H48005   2.106   7.439   6.947  2.4992 -0.0316 -0.3471
  356MOL0     H48006   2.128   7.485   6.776 -1.1438 -0.7503 -1.8495
  356MOL0     H48007   2.041   7.286   6.690 -1.0918  0.5282 -0.7856
  356MOL0     H48008   1.983   7.234   6.856  3.6923  0.6085  1.2400
  356MOL0     H48009   1.885   7.491   6.712  1.4506 -0.4711  0.0171
  356MOL0     H48010   1.857   7.461   6.874  0.2459  0.8935 -0.5356
  356MOL0     H48011   1.603   7.454   6.814  3.0758  0.9626 -0.9303
  356MOL0     H48012   1.351   7.335   6.777  0.3662  1.7154  0.2970
  356MOL0     H48013   1.366   7.361   6.607 -0.7692 -1.5670 -1.1966
  356MOL0     H48014   1.371   7.091   6.591  0.0605  1.7090 -0.4998
  356MOL0     H48015   1.221   7.184   6.607  0.9026 -1.4078 -3.0388
  356MOL0     H48016   1.219   7.133   6.848  1.0052  0.4205 -0.8118
  356MOL0     H48017   1.384   7.085   6.843 -0.1076  2.0769  1.1928
  356MOL0     H48018   1.251   6.887   6.873  0.4411  1.9142 -0.1522
  356MOL0     H48019   1.318   6.875   6.716  1.2091  1.5502 -0.3648
  356MOL0     H48020   0.881   6.870   6.584  0.5928  0.6083  0.2363
  356MOL0     H48021   0.650   6.851   6.550  1.5649  0.6154 -0.3256
  356MOL0     H48022   0.551   6.846   6.689  0.6647  0.3049  2.3265
  356MOL0     H48023   0.596   7.011   6.615 -0.0183 -0.4048 -3.0652
  356MOL0     H48024   0.413   6.771   7.038 -0.3119  0.8525 -0.5919
  356MOL0     H48025   0.172   6.779   7.133 -1.5906  0.6173  3.7529
  356MOL0     H48026   0.003   7.043   7.107  1.4070 -0.0011  0.7968
  356MOL0     H48027  -0.017   6.872   7.132  1.7779 -1.4778  1.3865
  356MOL0     H48028  -0.197   6.927   7.289 -0.5421  1.4120  2.4901
  356MOL0     H48029  -0.144   7.096   7.296 -0.2939  2.5309 -2.9187
  356MOL0     H48030  -0.236   6.974   7.029  0.8369  1.8008 -2.0917
  356MOL0     H48031  -0.194   7.138   7.065  1.0073 -1.3144 -1.4824
  356MOL0     H48032  -0.380   7.151   7.247 -0.1275 -0.7337  1.4060
  356MOL0     H48033  -0.406   7.171   7.065  0.8766 -0.6539  0.1935
  356MOL0     H48034  -0.454   6.936   7.242  1.0961  0.4735  0.1120
  356MOL0     H48035  -0.476   6.926   7.064  0.3078  0.8363 -0.7086
  356MOL0     H48036  -0.647   7.089   7.261 -2.8043 -0.0234 -1.1889
  356MOL0     H48037  -0.656   7.102   7.087 -2.0076 -0.0839  1.0695
  356MOL0     H48038  -0.685   6.826   7.160  1.4595  0.7630  0.4513
  356MOL0     H48039  -0.763   6.932   7.038  0.5896 -1.0874 -0.5344
  356MOL0     H48040  -0.943   6.862   7.209  0.9455 -1.4335  0.0349
  356MOL0     H48041  -0.908   7.032   7.192 -1.7409 -1.7204 -1.3964
  356MOL0     H48042   0.263   7.118   7.353 -0.4419 -0.3209  0.9302
  356MOL0     H48043   0.506   7.108   7.275  2.0251  0.1179 -1.9354
  356MOL0     H48044   0.843   6.994   7.063 -2.8204  3.9918 -0.9089
  356MOL0     H48045   1.056   6.964   6.971 -1.6480  0.6152  1.1369
  356MOL0     H48046   2.895   7.108   6.770 -0.4108  0.6074  0.3944
  356MOL0     H48047   3.127   7.044   6.846  0.5898  1.7867  0.6388
  356MOL0     H48048   3.422   6.812   6.928  0.0340 -1.0526  0.2935
  356MOL0     H48049   3.672   6.831   6.940  0.9270 -0.5035  0.2826
  356MOL0     H48050   3.978   6.757   7.265 -0.7936  2.9023  0.7099
  356MOL0     H48051   3.823   6.758   7.335 -0.8082  1.4398 -0.1985
  356MOL0     H48052   3.748   6.561   7.165 -0.2571 -0.7734  0.0344
  356MOL0     H48053   3.857   6.525   7.290 -1.1247 -1.0924 -0.0329
  356MOL0     H48054   4.030   6.601   7.084 -1.0788  1.0927  1.0952
  356MOL0     H48055   3.895   6.552   6.988  1.8622 -0.0044 -1.4594
  356MOL0     H48056   3.904   6.327   7.090 -0.5898  0.0115  1.7330
  356MOL0     H48057   4.026   6.391   7.207  2.5567  1.6402 -1.1898
  356MOL0     H48058   4.272   6.330   6.874 -0.0324  0.1187 -1.4087
  356MOL0     H48059   3.647   6.890   7.368 -1.0934 -0.3882  0.6432
  356MOL0     H48060   3.399   6.862   7.346 -0.9484  1.3580 -1.4126
  357MOL0     O48061   1.194   1.657   3.800  0.8631 -0.4485  0.3990
  357MOL0     C48062   1.173   1.555   3.865 -0.4160 -0.4130  0.6518
  357MOL0     O48063   1.053   1.498   3.893 -0.3653  0.4223 -0.1557
  357MOL0     C48064   0.942   1.542   3.836  0.3507 -0.3895 -0.2844
  357MOL0     C48065   0.899   1.678   3.861 -0.1419  0.4629 -0.6073
  357MOL0     C48066   0.775   1.721   3.813 -0.6910 -0.3683  0.1137
  357MOL0     C48067   0.699   1.636   3.727 -0.6806  0.0555 -0.2523
  357MOL0     O48068   0.574   1.663   3.674 -0.4720 -0.5388  0.3205
  357MOL0     C48069   0.501   1.783   3.709 -0.6009  0.0770  0.7037
  357MOL0     C48070   0.362   1.758   3.669 -0.3863  0.5979  0.3073
  357MOL0     C48071   0.280   1.875   3.723  0.3238 -0.3823  0.2756
  357MOL0     C48072   0.133   1.863   3.708  0.3605 -0.3028  0.0636
  357MOL0     C48073   0.055   1.992   3.738 -0.0361 -0.6969  0.1056
  357MOL0     C48074  -0.098   1.965   3.726 -0.5911  0.0375  1.6193
  357MOL0     C48075  -0.180   2.099   3.722 -0.1702 -0.1539  0.5428
  357MOL0     C48076  -0.333   2.070   3.699 -0.0870 -0.4983 -0.1433
  357MOL0     N48077  -0.403   2.201   3.675  0.4673  0.0865  0.3897
  357MOL0     C48078  -0.404   2.270   3.558 -1.2922 -0.7718 -0.0190
  357MOL0     C48079  -0.491   2.367   3.575 -0.1582 -1.2749 -0.3047
  357MOL0     C48080  -0.550   2.462   3.470 -0.0518  0.2524 -0.5096
  357MOL0     C48081  -0.474   2.597   3.452 -0.1156 -0.2601  0.5513
  357MOL0     C48082  -0.562   2.692   3.367 -0.7476 -0.3399  0.2539
  357MOL0     C48083  -0.502   2.836   3.337 -0.3464  0.3471  0.0441
  357MOL0     O48084  -0.414   2.821   3.221 -0.3925 -0.4984 -0.2008
  357MOL0     C48085  -0.278   2.800   3.245 -0.1098  0.4219 -0.1851
  357MOL0     C48086  -0.188   2.805   3.131  0.5608  0.0974 -1.2311
  357MOL0     C48087  -0.053   2.789   3.141  0.2354  0.1646  0.2442
  357MOL0     C48088   0.024   2.803   3.011  0.1777 -0.1978  0.5556
  357MOL0     C48089   0.003   2.781   3.275 -0.4624 -0.6326  0.3550
  357MOL0     C48090   0.146   2.755   3.295  0.3087 -0.4143 -0.2819
  357MOL0     O48091   0.183   2.618   3.293  0.2675 -0.9718  0.4727
  357MOL0     C48092   0.321   2.605   3.306  0.1791  0.5249  0.0769
  357MOL0     C48093   0.394   2.535   3.211  0.6224 -0.5678  0.0126
  357MOL0     C48094   0.532   2.519   3.215 -0.1044 -0.8441 -0.2055
  357MOL0     C48095   0.607   2.560   3.330  1.0395 -0.1137 -0.6089
  357MOL0     O48096   0.747   2.541   3.346  0.3711 -0.1235 -0.6836
  357MOL0     C48097   0.819   2.554   3.212  0.9482 -0.8210  0.1992
  357MOL0     C48098   0.804   2.697   3.152 -0.1530  0.3425  0.1926
  357MOL0     C48099   0.857   2.726   3.009 -0.5059  0.1382  1.4301
  357MOL0     C48100   0.767   2.671   2.898 -0.2700  0.0545  0.4044
  357MOL0     C48101   0.640   2.756   2.875 -0.5031 -0.6147 -0.0739
  357MOL0     C48102   0.557   2.711   2.757 -0.5948  0.2410  0.1768
  357MOL0     C48103   0.443   2.794   2.710  0.8201  0.1671  0.6731
  357MOL0     C48104   0.335   2.830   2.816  0.4309  0.3018  0.0786
  357MOL0    Cl48105   0.206   2.937   2.745  0.2085 -0.2448  0.1314
  357MOL0     C48106   0.531   2.616   3.437 -0.5114  0.2604 -0.1545
  357MOL0     C48107   0.394   2.642   3.420  0.4682  0.3378  0.3836
  357MOL0     O48108   0.216   2.848   3.324  0.3946 -0.1829 -0.4549
  357MOL0     C48109  -0.078   2.781   3.388  0.2720  0.0237  0.4261
  357MOL0     C48110  -0.216   2.781   3.372  0.0054  1.3664 -0.5975
  357MOL0     N48111  -0.545   2.352   3.697  0.1247  0.1166 -0.2573
  357MOL0     N48112  -0.495   2.256   3.762  0.2060 -0.0524  0.9830
  357MOL0     C48113   0.735   1.498   3.706 -0.1989 -0.4061 -0.6578
  357MOL0     C48114   0.858   1.455   3.760 -0.7894 -0.4129  0.9751
  357MOL0     C48115   1.284   1.495   3.937  0.6713  0.0976 -0.1203
  357MOL0     C48116   1.268   1.392   4.033  0.5795 -0.1519 -0.3688
  357MOL0     C48117   1.376   1.360   4.118  0.2255  0.5254  0.6933
  357MOL0     C48118   1.497   1.421   4.106  0.8370  0.2375 -0.2400
  357MOL0     O48119   1.614   1.387   4.171  0.1194 -0.2911 -0.5569
  357MOL0     C48120   1.609   1.291   4.280 -0.3892 -0.0997  0.0157
  357MOL0     C48121   1.690   1.164   4.256  0.0416 -0.6859  0.2017
  357MOL0     C48122   1.836   1.203   4.229  0.6190 -0.2795 -0.0297
  357MOL0     C48123   1.926   1.079   4.218 -0.2237 -0.0665 -0.1898
  357MOL0     C48124   1.894   0.996   4.102  0.1699  0.0917 -0.3897
  357MOL0     C48125   1.859   0.912   4.017  0.9786  0.8982 -0.8361
  357MOL0     C48126   1.521   1.514   4.013 -0.4615 -0.4797  0.5512
  357MOL0     C48127   1.417   1.550   3.922 -0.5456 -0.2336  0.1588
  357MOL0     H48128   0.969   1.743   3.911  0.7937  0.2907 -1.6356
  357MOL0     H48129   0.754   1.828   3.819  3.3270  0.5169  2.1791
  357MOL0     H48130   0.512   1.792   3.817 -1.0692 -2.1975  0.9732
  357MOL0     H48131   0.546   1.868   3.655 -0.2058 -1.0118 -0.7420
  357MOL0     H48132   0.348   1.729   3.564 -1.7529  0.7011  0.4315
  357MOL0     H48133   0.338   1.663   3.717  2.6642 -1.1658 -1.3808
  357MOL0     H48134   0.311   1.892   3.827  1.8871  0.4378 -0.3026
  357MOL0     H48135   0.311   1.970   3.679  0.7574 -0.5410  0.2371
  357MOL0     H48136   0.116   1.826   3.606  2.4847 -2.9012  0.5376
  357MOL0     H48137   0.100   1.786   3.778  0.2205 -1.4441 -1.2102
  357MOL0     H48138   0.072   2.030   3.839 -2.6823 -1.8621  1.1025
  357MOL0     H48139   0.069   2.071   3.664  1.5200 -2.0666 -1.1445
  357MOL0     H48140  -0.112   1.898   3.641 -4.7864  0.1071  2.0711
  357MOL0     H48141  -0.117   1.915   3.822 -0.0298 -1.8374  0.8121
  357MOL0     H48142  -0.162   2.178   3.796  3.6304  0.9152 -1.2635
  357MOL0     H48143  -0.141   2.145   3.631 -1.3076  0.4147  0.3296
  357MOL0     H48144  -0.377   2.028   3.790  0.8410  0.0656  0.5725
  357MOL0     H48145  -0.360   1.991   3.628 -0.9509 -1.3585  1.1045
  357MOL0     H48146  -0.344   2.246   3.470 -0.2584 -1.9216  0.9677
  357MOL0     H48147  -0.556   2.415   3.371  1.3595 -0.0018 -0.4999
  357MOL0     H48148  -0.650   2.491   3.503  1.1233  2.8152  1.0766
  357MOL0     H48149  -0.382   2.556   3.409 -2.6142 -2.3947 -3.2519
  357MOL0     H48150  -0.462   2.643   3.551  1.9545 -2.9945  1.7060
  357MOL0     H48151  -0.650   2.716   3.427  0.5862  0.4046  1.9938
  357MOL0     H48152  -0.599   2.645   3.274  2.4915 -0.0816 -1.2976
  357MOL0     H48153  -0.457   2.873   3.430  4.1306 -0.2130 -1.6765
  357MOL0     H48154  -0.592   2.896   3.316  0.2487  0.4831 -2.3447
  357MOL0     H48155  -0.240   2.826   3.039 -2.6548 -2.1055 -0.0838
  357MOL0     H48156  -0.035   2.839   2.927  1.6516  0.1521 -0.3629
  357MOL0     H48157   0.105   2.874   3.028 -0.3794  0.9053 -1.1887
  357MOL0     H48158   0.069   2.708   2.980 -1.2459 -0.2566 -1.5357
  357MOL0     H48159   0.335   2.502   3.126 -0.2578  0.7911  0.0822
  357MOL0     H48160   0.580   2.474   3.129 -0.2950 -2.9039  0.7202
  357MOL0     H48161   0.926   2.535   3.227  1.4243  2.2349  1.4387
  357MOL0     H48162   0.772   2.492   3.135 -2.4884  2.8176 -1.0237
  357MOL0     H48163   0.697   2.720   3.153 -0.5878 -1.0988 -2.7175
  357MOL0     H48164   0.856   2.758   3.226  4.0024 -3.1062  0.5539
  357MOL0     H48165   0.955   2.678   2.996  0.3050  2.2049 -0.8394
  357MOL0     H48166   0.875   2.833   2.993  1.3022 -0.1598  1.2474
  357MOL0     H48167   0.819   2.678   2.802 -1.7335 -0.1802 -0.4235
  357MOL0     H48168   0.735   2.568   2.918 -0.8654  0.1108 -0.2171
  357MOL0     H48169   0.662   2.862   2.864 -0.9652 -0.4998  0.1106
  357MOL0     H48170   0.584   2.747   2.968  0.3919  1.2188  0.6942
  357MOL0     H48171   0.618   2.698   2.667 -0.8597 -0.4157  0.0883
  357MOL0     H48172   0.533   2.606   2.775  0.0662  0.0018 -0.2804
  357MOL0     H48173   0.385   2.742   2.633 -1.8329  1.2923  1.7775
  357MOL0     H48174   0.491   2.875   2.656  2.8001 -1.9983 -0.9965
  357MOL0     H48175   0.392   2.883   2.893 -2.2888  1.8177  1.1977
  357MOL0     H48176   0.298   2.732   2.847  2.4745 -0.0230  1.7685
  357MOL0     H48177   0.573   2.644   3.533  0.0118  2.1933 -0.8976
  357MOL0     H48178   0.348   2.689   3.506 -0.6040  0.8777 -0.4552
  357MOL0     H48179  -0.029   2.772   3.484  0.8979  2.6526  0.4294
  357MOL0     H48180  -0.279   2.785   3.461 -0.1759 -1.0402 -0.5739
  357MOL0     H48181   0.665   1.432   3.657 -1.2345  0.6349 -0.6407
  357MOL0     H48182   0.889   1.353   3.742 -0.3399 -0.1505  0.2006
  357MOL0     H48183   1.181   1.327   4.039  0.9841 -0.7373 -0.7531
  357MOL0     H48184   1.364   1.282   4.192 -1.1217 -1.1096 -1.1842
  357MOL0     H48185   1.660   1.347   4.359  1.2118 -1.0280 -0.3348
  357MOL0     H48186   1.514   1.257   4.322 -0.2462 -1.1488 -0.4901
  357MOL0     H48187   1.643   1.114   4.170 -0.3727 -1.1187  0.6693
  357MOL0     H48188   1.689   1.103   4.347 -1.2944  1.5288  1.7703
  357MOL0     H48189   1.860   1.271   4.311  2.1299  0.4841 -1.0554
  357MOL0     H48190   1.845   1.252   4.132  0.1308 -1.6206 -0.7849
  357MOL0     H48191   1.927   1.017   4.308  3.0926  0.2097  0.0650
  357MOL0     H48192   2.026   1.123   4.212 -0.2201  0.0414  0.5528
  357MOL0     H48193   1.818   0.859   3.934 -0.0897  1.7357 -0.8613
  357MOL0     H48194   1.618   1.563   4.017 -0.3383 -0.8110  2.3985
  357MOL0     H48195   1.443   1.627   3.851  1.6404  1.4017  2.5298
  358MOL0     O48196   2.328   1.114   6.891  0.5718 -0.2091 -0.4021
  358MOL0     C48197   2.376   1.072   6.992 -0.2986  1.0945  1.0281
  358MOL0     O48198   2.327   0.971   7.062  0.8539  0.7031 -0.5260
  358MOL0     C48199   2.208   0.912   7.034  0.4677  0.4822  0.3667
  358MOL0     C48200   2.088   0.987   7.016 -0.8284  0.7335  0.4642
  358MOL0     C48201   1.969   0.916   6.989 -0.1053 -0.2704 -0.5275
  358MOL0     C48202   1.946   0.784   6.995  0.8141 -0.5822 -0.3305
  358MOL0     O48203   1.829   0.723   6.973 -0.0892 -0.2394  0.4452
  358MOL0     C48204   1.713   0.766   7.050 -0.5239  0.6922  0.0494
  358MOL0     C48205   1.596   0.681   7.001 -0.2248 -0.6051 -0.2795
  358MOL0     C48206   1.462   0.762   7.020  0.0658 -0.4284 -0.9980
  358MOL0     C48207   1.345   0.676   7.023 -0.0294  0.4013  0.5732
  358MOL0     C48208   1.217   0.750   7.048 -0.3781 -0.7858  0.6361
  358MOL0     C48209   1.091   0.661   7.028  0.2132 -0.1680 -0.2874
  358MOL0     C48210   0.960   0.738   7.039  0.2308 -0.5738 -0.0681
  358MOL0     C48211   0.835   0.653   7.010 -0.0756 -0.1874 -0.1397
  358MOL0     N48212   0.708   0.707   7.050 -0.1505 -0.3610  1.0363
  358MOL0     C48213   0.599   0.659   6.974  0.7025 -0.3416 -0.6104
  358MOL0     C48214   0.491   0.667   7.050  0.5935 -0.2350  0.1027
  358MOL0     C48215   0.352   0.625   7.003 -0.3716  0.3678 -0.2595
  358MOL0     C48216   0.254   0.740   7.033  0.7114 -0.4877 -0.5140
  358MOL0     C48217   0.112   0.688   7.007  0.3057 -0.1512 -0.9755
  358MOL0     C48218   0.011   0.792   7.045 -0.2911  0.1995  1.2916
  358MOL0     O48219  -0.114   0.733   7.079  0.3556  0.1033 -0.0520
  358MOL0     C48220  -0.227   0.807   7.054 -1.0565 -0.0386 -0.4077
  358MOL0     C48221  -0.233   0.944   7.084  0.2532  0.3766 -0.7149
  358MOL0     C48222  -0.350   1.018   7.073  0.3852  0.0034 -0.2603
  358MOL0     C48223  -0.352   1.157   7.130  0.5179 -0.1337 -0.2333
  358MOL0     C48224  -0.471   0.951   7.034 -0.0697  0.3062  0.1604
  358MOL0     C48225  -0.602   1.018   7.014 -0.4215 -0.2196 -0.0675
  358MOL0     O48226  -0.721   0.949   7.033  0.2220 -0.4653  0.6440
  358MOL0     C48227  -0.839   1.021   7.001  0.0748  0.1968 -0.0436
  358MOL0     C48228  -0.867   1.158   7.035  0.7933 -0.1970 -0.3219
  358MOL0     C48229  -0.991   1.217   7.017 -0.7459  0.5914 -0.5205
  358MOL0     C48230  -1.099   1.140   6.956  0.8556 -0.1418 -0.2474
  358MOL0     O48231  -1.230   1.181   6.934 -0.2950 -0.0544 -0.3188
  358MOL0     C48232  -1.275   1.298   7.010  0.2444  0.1320 -0.0699
  358MOL0     C48233  -1.427   1.291   7.004 -0.2138  0.0593  1.0275
  358MOL0     C48234  -1.499   1.340   6.873  0.7407 -0.5723 -0.2735
  358MOL0     C48235  -1.544   1.231   6.775  0.6482  0.4362 -0.5548
  358MOL0     C48236  -1.651   1.290   6.676 -0.0209  0.0401 -0.1616
  358MOL0     C48237  -1.715   1.177   6.599  0.2449  0.0105 -0.2904
  358MOL0     C48238  -1.815   1.236   6.503  0.3915  0.1599  0.5595
  358MOL0     C48239  -1.927   1.141   6.485 -0.3446  0.8136 -1.0946
  358MOL0    Cl48240  -2.033   1.187   6.371 -0.3220  0.0558  0.3959
  358MOL0     C48241  -1.066   1.015   6.910  0.9687 -0.2767  0.1072
  358MOL0     C48242  -0.941   0.963   6.924 -0.1103  0.0309  0.3410
  358MOL0     O48243  -0.591   1.127   6.966 -0.3520 -0.1214 -0.3602
  358MOL0     C48244  -0.460   0.809   7.018  0.4624 -0.2133 -0.5505
  358MOL0     C48245  -0.343   0.747   7.030 -0.3101  0.1631 -0.3595
  358MOL0     N48246   0.531   0.720   7.172  0.4641  0.2033  0.0931
  358MOL0     N48247   0.663   0.750   7.172 -0.2046  0.0777 -0.2125
  358MOL0     C48248   2.060   0.707   7.033  0.0504  0.4767  0.2748
  358MOL0     C48249   2.187   0.772   7.045  0.4397 -0.4962 -0.1122
  358MOL0     C48250   2.500   1.137   7.028  0.2560 -0.6602  0.1395
  358MOL0     C48251   2.565   1.085   7.136 -0.8977  1.2091  0.0811
  358MOL0     C48252   2.687   1.142   7.173  0.0621  0.4281 -0.7391
  358MOL0     C48253   2.751   1.245   7.102 -0.4046  0.1819  0.3745
  358MOL0     O48254   2.874   1.309   7.109 -0.5107  0.2375 -0.2747
  358MOL0     C48255   2.984   1.241   7.186 -0.5828 -0.7168  0.1426
  358MOL0     C48256   3.027   1.107   7.123  0.2512  0.0468 -0.1238
  358MOL0     C48257   3.129   1.023   7.210  0.9804  0.1790 -0.0705
  358MOL0     C48258   3.275   1.041   7.172 -0.7147  0.0522 -0.7630
  358MOL0     C48259   3.324   0.972   7.054  0.2550 -0.5401  0.0487
  358MOL0     C48260   3.379   0.906   6.966 -0.2131  0.4431 -0.4075
  358MOL0     C48261   2.676   1.293   6.994 -0.0924 -0.3133  0.4533
  358MOL0     C48262   2.553   1.244   6.959  1.1965  0.4068 -1.6310
  358MOL0     H48263   2.090   1.096   7.010 -3.6506  0.9127  0.9769
  358MOL0     H48264   1.887   0.985   6.972 -0.2368  0.2003  1.7125
  358MOL0     H48265   1.726   0.752   7.158  1.8041  0.4126 -0.2304
  358MOL0     H48266   1.687   0.872   7.037  0.3889  0.6982 -2.1273
  358MOL0     H48267   1.604   0.668   6.893 -2.7578  0.7016 -0.7141
  358MOL0     H48268   1.596   0.585   7.054 -0.4193  0.0221  0.9039
  358MOL0     H48269   1.467   0.817   7.115  2.3267  0.3794 -1.5136
  358MOL0     H48270   1.446   0.834   6.939 -0.1395  2.3385  1.3365
  358MOL0     H48271   1.340   0.632   6.922 -2.5979 -1.2494  1.3372
  358MOL0     H48272   1.365   0.598   7.096  1.5413  1.7394  1.6501
  358MOL0     H48273   1.225   0.791   7.150  0.0504  2.3767 -0.5395
  358MOL0     H48274   1.217   0.840   6.986 -0.4797  0.0220  1.7616
  358MOL0     H48275   1.102   0.611   6.931  1.8942  1.5354 -1.0584
  358MOL0     H48276   1.094   0.583   7.105 -0.6760 -0.6610 -0.7372
  358MOL0     H48277   0.942   0.787   7.136 -0.2116 -2.5623  0.8992
  358MOL0     H48278   0.963   0.815   6.961 -0.6019 -1.3678 -0.9028
  358MOL0     H48279   0.854   0.556   7.056 -0.9492 -1.6648 -2.6514
  358MOL0     H48280   0.848   0.636   6.902 -0.9771  2.6152 -0.7826
  358MOL0     H48281   0.596   0.615   6.875  0.7798 -2.9620  0.4652
  358MOL0     H48282   0.352   0.605   6.896  1.1686 -3.2729  0.2467
  358MOL0     H48283   0.325   0.535   7.060  1.5926 -0.5663 -0.7255
  358MOL0     H48284   0.276   0.831   6.975  1.4998 -0.7789 -0.6857
  358MOL0     H48285   0.262   0.761   7.140 -0.7004 -0.9952 -0.2846
  358MOL0     H48286   0.101   0.604   7.077  2.3783 -3.2937 -4.0564
  358MOL0     H48287   0.113   0.655   6.903 -2.1659 -0.9618 -0.8038
  358MOL0     H48288   0.010   0.860   6.959  0.8958 -2.1413 -0.7048
  358MOL0     H48289   0.059   0.842   7.130  3.4929 -1.7978  0.5573
  358MOL0     H48290  -0.152   0.991   7.138  0.0222 -0.4795  0.4120
  358MOL0     H48291  -0.274   1.176   7.205 -1.4249 -1.4872  2.3029
  358MOL0     H48292  -0.347   1.230   7.049 -0.7410  0.4516  0.1847
  358MOL0     H48293  -0.447   1.190   7.173 -1.9310 -3.2671 -2.7446
  358MOL0     H48294  -0.793   1.222   7.082 -2.6677  0.7977  4.4311
  358MOL0     H48295  -0.994   1.323   7.040 -0.4260  0.7026 -0.9780
  358MOL0     H48296  -1.242   1.281   7.113 -0.5828 -3.0467 -0.2187
  358MOL0     H48297  -1.237   1.389   6.962  0.0775  0.9027  1.2094
  358MOL0     H48298  -1.462   1.189   7.023 -0.5297 -0.1217 -0.4208
  358MOL0     H48299  -1.462   1.358   7.083 -0.3285  0.7224  0.4267
  358MOL0     H48300  -1.440   1.416   6.821 -0.2299 -0.4850 -1.2788
  358MOL0     H48301  -1.583   1.396   6.916 -0.2140 -1.1534 -1.3383
  358MOL0     H48302  -1.461   1.180   6.726  2.2620  1.1217  1.3577
  358MOL0     H48303  -1.595   1.154   6.833  2.4656  0.2860  0.9196
  358MOL0     H48304  -1.602   1.358   6.606 -0.8260 -3.5874 -4.6856
  358MOL0     H48305  -1.732   1.343   6.727  1.6023  2.6817 -0.1347
  358MOL0     H48306  -1.654   1.116   6.532 -1.4507  1.0791 -2.9423
  358MOL0     H48307  -1.768   1.117   6.673 -0.0038  1.8424  1.0970
  358MOL0     H48308  -1.768   1.260   6.407  1.4575  0.9420  1.2470
  358MOL0     H48309  -1.864   1.330   6.530 -0.1910  1.1427 -3.3002
  358MOL0     H48310  -1.983   1.124   6.577 -3.8131 -4.8185 -3.6722
  358MOL0     H48311  -1.886   1.044   6.457  1.7338  1.9490 -2.2703
  358MOL0     H48312  -1.132   0.963   6.840  0.5201 -0.4925  0.6732
  358MOL0     H48313  -0.915   0.871   6.873 -0.9566  1.5149 -3.0605
  358MOL0     H48314  -0.557   0.762   7.001  1.1256 -1.1168 -2.0172
  358MOL0     H48315  -0.332   0.640   7.015  4.4811  0.3829 -0.0190
  358MOL0     H48316   2.049   0.602   7.061 -0.4758  0.7639  1.2257
  358MOL0     H48317   2.272   0.712   7.076 -0.1313 -0.3167  1.9896
  358MOL0     H48318   2.533   0.994   7.185  4.0771 -2.7278 -2.9123
  358MOL0     H48319   2.728   1.100   7.265  0.8900  0.0930 -1.2490
  358MOL0     H48320   3.065   1.313   7.199 -0.4631 -0.5788 -1.2263
  358MOL0     H48321   2.946   1.220   7.286  1.0028  1.2626  1.2175
  358MOL0     H48322   3.066   1.117   7.022 -0.5207 -1.2993 -0.5808
  358MOL0     H48323   2.934   1.051   7.112  1.3323 -1.4151 -2.4593
  358MOL0     H48324   3.098   0.918   7.200  2.2879 -0.1108 -1.3886
  358MOL0     H48325   3.110   1.048   7.315  1.0433 -0.0782  0.0045
  358MOL0     H48326   3.325   0.992   7.255 -0.1647  2.7580  0.6112
  358MOL0     H48327   3.284   1.150   7.166 -3.0037  0.4720  1.5309
  358MOL0     H48328   3.422   0.833   6.901 -1.2180 -0.4402 -0.1254
  358MOL0     H48329   2.713   1.381   6.942  0.6513 -1.0503 -0.2874
  358MOL0     H48330   2.502   1.293   6.876 -1.7525  0.1845 -0.0586
  359MOL0     O48331   3.896   5.639   0.459  0.3109  0.3561 -0.4741
  359MOL0     C48332   3.987   5.619   0.376 -0.0459 -0.0150 -0.5638
  359MOL0     O48333   3.991   5.676   0.252  0.5355 -0.4467  1.7411
  359MOL0     C48334   3.885   5.750   0.210 -0.1432 -1.3721  0.1787
  359MOL0     C48335   3.776   5.690   0.141  0.7379  0.1073  0.6222
  359MOL0     C48336   3.673   5.772   0.095  0.6759  0.3168 -0.6348
  359MOL0     C48337   3.661   5.903   0.132 -0.9488  0.2610  0.1529
  359MOL0     O48338   3.540   5.960   0.099 -0.0551  0.8350  0.7708
  359MOL0     C48339   3.533   6.098   0.123 -0.4133 -0.0903 -0.2373
  359MOL0     C48340   3.408   6.157   0.064 -0.3854  0.7299 -0.2567
  359MOL0     C48341   3.275   6.095   0.117  0.8697  0.2453 -0.2781
  359MOL0     C48342   3.177   6.193   0.055  0.2969  0.1316  0.2312
  359MOL0     C48343   3.029   6.149   0.078 -0.0814  0.6102 -0.7270
  359MOL0     C48344   2.928   6.241  -0.003 -0.2757 -0.1115 -0.6036
  359MOL0     C48345   2.786   6.197   0.006  0.0132  0.6912 -0.9480
  359MOL0     C48346   2.732   6.223   0.148  0.1426 -0.2400 -0.2862
  359MOL0     N48347   2.586   6.216   0.155 -0.4413  0.2788 -0.3710
  359MOL0     C48348   2.522   6.113   0.209  0.5891  0.2876 -0.3099
  359MOL0     C48349   2.394   6.151   0.210 -0.5252  1.0407 -0.2749
  359MOL0     C48350   2.277   6.086   0.277 -0.0411  0.3474  0.0646
  359MOL0     C48351   2.168   6.026   0.190 -0.1930 -0.0513  0.4821
  359MOL0     C48352   2.044   6.000   0.272 -0.8369 -0.1124 -0.1665
  359MOL0     C48353   1.981   5.865   0.268  1.0877  0.4796 -0.6661
  359MOL0     O48354   1.943   5.818   0.137 -1.3611  0.1698 -0.1480
  359MOL0     C48355   1.894   5.694   0.132 -0.2810  0.4575  0.1363
  359MOL0     C48356   1.848   5.656   0.005  0.0264  0.4653  0.0583
  359MOL0     C48357   1.762   5.539  -0.016  0.2282  0.6243  0.5840
  359MOL0     C48358   1.726   5.509  -0.160  0.1771  0.0797  0.7619
  359MOL0     C48359   1.738   5.446   0.093  0.0850 -0.1774  0.1607
  359MOL0     C48360   1.646   5.329   0.088  0.4062  0.1936 -0.0912
  359MOL0     O48361   1.591   5.289   0.211 -0.3896 -0.7976 -1.0331
  359MOL0     C48362   1.534   5.166   0.214  0.3670 -0.2029 -0.6804
  359MOL0     C48363   1.603   5.056   0.248 -0.0645  0.2862 -0.1860
  359MOL0     C48364   1.539   4.930   0.253  0.6718  0.6944  0.1041
  359MOL0     C48365   1.391   4.922   0.227  0.0939 -0.5559 -0.6739
  359MOL0     O48366   1.339   4.790   0.232 -0.7598 -0.5067 -0.5328
  359MOL0     C48367   1.197   4.775   0.256  0.4308  0.9654 -0.2402
  359MOL0     C48368   1.109   4.793   0.128  0.1738  0.1181  1.0507
  359MOL0     C48369   0.966   4.743   0.146 -0.3343  0.0030 -0.2291
  359MOL0     C48370   0.875   4.837   0.234  0.9643 -0.2316 -0.3490
  359MOL0     C48371   0.767   4.748   0.300  0.4084 -1.2453 -0.3708
  359MOL0     C48372   0.643   4.819   0.348  0.9706  0.5046  0.4772
  359MOL0     C48373   0.578   4.912   0.240  0.3697 -0.0751 -0.0715
  359MOL0     C48374   0.454   4.976   0.306 -0.0322 -0.2942  0.6973
  359MOL0    Cl48375   0.512   5.096   0.430  0.6443 -0.3176  0.2065
  359MOL0     C48376   1.326   5.045   0.199  0.1541  0.3855  0.6846
  359MOL0     C48377   1.399   5.162   0.182  0.2511 -0.0052  0.7943
  359MOL0     O48378   1.640   5.268  -0.021  0.2822  0.6138 -0.4270
  359MOL0     C48379   1.790   5.486   0.217  0.6439  0.1062 -0.4186
  359MOL0     C48380   1.861   5.611   0.237  0.3474  0.4420  0.7028
  359MOL0     N48381   2.389   6.283   0.158  0.3776 -0.2085 -0.0122
  359MOL0     N48382   2.500   6.311   0.112  0.4066 -0.2747 -0.3406
  359MOL0     C48383   3.770   5.961   0.195 -0.5501  0.3385  0.1826
  359MOL0     C48384   3.890   5.889   0.227  0.1847  0.9435 -0.4115
  359MOL0     C48385   4.110   5.552   0.418  0.8775 -0.0762 -0.8078
  359MOL0     C48386   4.216   5.545   0.331  0.1731 -0.2008  0.0591
  359MOL0     C48387   4.338   5.489   0.374  0.8956 -0.6121 -0.4477
  359MOL0     C48388   4.349   5.446   0.508 -0.0071 -0.3408  0.2147
  359MOL0     O48389   4.468   5.388   0.546  0.0841 -0.1285 -0.0272
  359MOL0     C48390   4.583   5.478   0.565  0.2024 -0.4410 -0.4506
  359MOL0     C48391   4.658   5.433   0.693 -0.8898  0.3337  0.6256
  359MOL0     C48392   4.579   5.408   0.821 -0.6051  0.4020  0.3361
  359MOL0     C48393   4.655   5.430   0.951 -0.0378 -0.1996 -0.1075
  359MOL0     C48394   4.734   5.310   0.975  0.3657 -0.3683 -0.2080
  359MOL0     C48395   4.794   5.214   1.012 -1.2664  0.3679  1.3087
  359MOL0     C48396   4.243   5.462   0.596  0.0775 -0.2966 -0.5317
  359MOL0     C48397   4.121   5.513   0.553 -0.7680 -0.5942 -0.6334
  359MOL0     H48398   3.769   5.586   0.109 -1.7602  0.5462 -0.4388
  359MOL0     H48399   3.596   5.731   0.030  0.7993  1.1328 -1.3120
  359MOL0     H48400   3.537   6.104   0.232  2.2855  2.0462 -0.3498
  359MOL0     H48401   3.621   6.137   0.071 -0.4367  0.1777 -0.0719
  359MOL0     H48402   3.409   6.264   0.084 -2.5113  1.0674 -1.6204
  359MOL0     H48403   3.416   6.152  -0.045 -1.9340 -0.6896 -0.3481
  359MOL0     H48404   3.261   5.993   0.080  0.1193 -0.4547  1.8002
  359MOL0     H48405   3.245   6.093   0.222 -0.3464 -3.5430 -0.5266
  359MOL0     H48406   3.198   6.295   0.089  1.8740  1.9506 -5.2043
  359MOL0     H48407   3.190   6.203  -0.053  2.0820  0.6100  0.4644
  359MOL0     H48408   2.998   6.049   0.046 -0.8655  1.1178 -1.5971
  359MOL0     H48409   3.005   6.151   0.185  0.8678 -0.8055 -0.4513
  359MOL0     H48410   2.943   6.345   0.029  1.5780  0.5844 -3.3477
  359MOL0     H48411   2.954   6.249  -0.109 -0.3642 -3.4247 -0.9735
  359MOL0     H48412   2.729   6.260  -0.064 -1.1706 -0.4730 -1.0913
  359MOL0     H48413   2.782   6.090  -0.016  1.9322  0.5700 -0.8170
  359MOL0     H48414   2.749   6.330   0.164 -1.8085 -0.1932  2.0723
  359MOL0     H48415   2.769   6.150   0.220 -0.8362 -1.8294 -1.3235
  359MOL0     H48416   2.559   6.027   0.263  0.8387  1.7252  1.9526
  359MOL0     H48417   2.314   6.012   0.349 -0.5128 -1.0270 -1.0397
  359MOL0     H48418   2.235   6.165   0.340  0.4660 -0.9570  2.1611
  359MOL0     H48419   2.214   5.940   0.142  0.5810  0.5364  0.1590
  359MOL0     H48420   2.142   6.095   0.110 -0.4772 -0.9244 -0.1905
  359MOL0     H48421   1.967   6.068   0.232 -0.6411  1.8067  2.4471
  359MOL0     H48422   2.055   6.019   0.379 -1.7501  1.2525 -0.2898
  359MOL0     H48423   1.895   5.863   0.335  1.2737 -1.7450 -0.4327
  359MOL0     H48424   2.046   5.794   0.319 -1.3738 -2.9219 -1.8977
  359MOL0     H48425   1.891   5.713  -0.077  2.4323 -1.0653  0.1476
  359MOL0     H48426   1.622   5.496  -0.189  0.0491 -0.0491  1.2783
  359MOL0     H48427   1.773   5.591  -0.215 -1.2698 -1.7012 -3.5967
  359MOL0     H48428   1.781   5.419  -0.190 -1.2754 -0.5890  0.0341
  359MOL0     H48429   1.711   5.055   0.260 -0.2496 -1.4896  2.0692
  359MOL0     H48430   1.580   4.832   0.278 -0.6976 -0.5305 -2.1021
  359MOL0     H48431   1.196   4.671   0.290 -2.6419  1.2231  0.6802
  359MOL0     H48432   1.159   4.832   0.341  0.4101 -0.9111  1.0836
  359MOL0     H48433   1.102   4.898   0.099 -0.3420 -1.2113 -4.8402
  359MOL0     H48434   1.149   4.733   0.046 -2.0252 -1.7490  1.2535
  359MOL0     H48435   0.967   4.637   0.172 -0.3809  0.1730  0.4739
  359MOL0     H48436   0.923   4.731   0.046  0.9262  2.3152 -1.1084
  359MOL0     H48437   0.929   4.906   0.300 -1.8658  1.0682  0.7519
  359MOL0     H48438   0.825   4.893   0.155 -3.5022 -2.5492  0.5454
  359MOL0     H48439   0.820   4.689   0.376  1.5796  1.6567  1.2198
  359MOL0     H48440   0.726   4.669   0.235 -1.5343 -2.9769  2.7342
  359MOL0     H48441   0.565   4.750   0.379  0.7707  0.2985 -0.4554
  359MOL0     H48442   0.663   4.883   0.435 -1.3758  1.7339  0.2029
  359MOL0     H48443   0.545   4.849   0.157 -0.2821 -0.9929  0.8634
  359MOL0     H48444   0.651   4.987   0.207  2.0038 -1.2530  0.7782
  359MOL0     H48445   0.386   4.897   0.338 -2.1133  0.6791 -1.0141
  359MOL0     H48446   0.396   5.043   0.241  1.4323  0.6572  0.3098
  359MOL0     H48447   1.218   5.041   0.188  0.1500 -1.5396  1.1810
  359MOL0     H48448   1.342   5.254   0.174  0.0954 -0.0502  1.3226
  359MOL0     H48449   1.769   5.415   0.296 -3.0999 -0.1201 -1.4278
  359MOL0     H48450   1.877   5.639   0.341  0.7350  2.1532  0.2212
  359MOL0     H48451   3.765   6.066   0.221  0.9911 -0.1350  2.7909
  359MOL0     H48452   3.968   5.937   0.285  0.1251 -0.0002  0.4923
  359MOL0     H48453   4.214   5.587   0.231  0.3804  1.3837  0.6871
  359MOL0     H48454   4.423   5.495   0.306  0.1290 -0.4804 -1.4118
  359MOL0     H48455   4.648   5.469   0.477  2.2406 -0.3775  0.9993
  359MOL0     H48456   4.561   5.585   0.560  0.7561 -0.3689 -3.7772
  359MOL0     H48457   4.740   5.505   0.695 -2.0294  1.7607 -1.2402
  359MOL0     H48458   4.698   5.334   0.667 -1.8109 -0.3195  1.6202
  359MOL0     H48459   4.533   5.310   0.808  0.8344 -0.2936  0.2052
  359MOL0     H48460   4.497   5.479   0.831 -1.7691 -1.0730  1.8017
  359MOL0     H48461   4.593   5.453   1.038 -1.5256 -0.4596 -1.0809
  359MOL0     H48462   4.727   5.510   0.933 -2.7153  2.2456 -0.5889
  359MOL0     H48463   4.821   5.118   1.049  2.7291  0.1814 -1.4612
  359MOL0     H48464   4.250   5.420   0.696  0.7631 -0.4732 -0.6526
  359MOL0     H48465   4.042   5.519   0.628 -1.9636  2.9125 -1.9640
  360MOL0     O48466   6.087   7.940   9.888  0.4096 -0.1400 -0.0062
  360MOL0     C48467   6.089   8.044   9.961  0.3459 -1.0065  0.5358
  360MOL0     O48468   5.973   8.110  10.015 -0.3972  0.0603  0.4343
  360MOL0     C48469   5.862   8.039  10.027  0.3697  0.3502 -0.0402
  360MOL0     C48470   5.809   8.041  10.153 -0.0882  0.1175 -0.3148
  360MOL0     C48471   5.680   7.980  10.176 -0.1579 -0.0516  0.1469
  360MOL0     C48472   5.610   7.919  10.074  1.3496  0.1459  0.6668
  360MOL0     O48473   5.485   7.859  10.099 -0.7301 -0.1642 -0.0716
  360MOL0     C48474   5.392   7.863   9.996  0.0901 -0.2430  0.1346
  360MOL0     C48475   5.254   7.853  10.057 -0.0182  0.7937 -0.0838
  360MOL0     C48476   5.134   7.895   9.963 -0.0900  0.8206  0.3901
  360MOL0     C48477   4.999   7.838  10.003 -0.3685  0.2890 -0.0152
  360MOL0     C48478   4.889   7.886   9.912 -0.3904  0.1866 -0.0901
  360MOL0     C48479   4.752   7.834   9.940 -0.3698  0.7347 -0.3752
  360MOL0     C48480   4.699   7.892  10.073  0.7100 -0.2812 -0.2500
  360MOL0     C48481   4.566   7.827  10.102  1.1147 -0.5657 -0.7448
  360MOL0     N48482   4.482   7.905  10.189  0.1112 -0.4449  0.1467
  360MOL0     C48483   4.457   7.860  10.316  0.1041  0.1476 -1.0812
  360MOL0     C48484   4.371   7.948  10.360  0.5572  0.0216  0.6007
  360MOL0     C48485   4.328   7.954  10.504 -0.6884  0.4365  0.2906
  360MOL0     C48486   4.210   7.859  10.526 -0.3636  0.6505  0.0825
  360MOL0     C48487   4.074   7.925  10.487  0.1537 -0.4750 -0.4284
  360MOL0     C48488   3.961   7.827  10.474  0.0556 -0.1104 -0.9563
  360MOL0     O48489   3.954   7.733  10.586 -0.6684  0.3800  0.1175
  360MOL0     C48490   3.863   7.631  10.592  1.0035  0.3282  0.7401
  360MOL0     C48491   3.806   7.612  10.722  0.1225  0.3591 -0.0430
  360MOL0     C48492   3.697   7.524  10.748 -0.0457 -0.6878  0.2398
  360MOL0     C48493   3.642   7.523  10.890  1.1536  0.3097 -0.2168
  360MOL0     C48494   3.648   7.457  10.631 -0.1280  1.2757 -0.5275
  360MOL0     C48495   3.530   7.376  10.641 -0.3024  0.7017  0.1601
  360MOL0     O48496   3.454   7.365  10.528  0.2295  0.3447 -0.2441
  360MOL0     C48497   3.350   7.282  10.544  1.0691 -0.8026  0.0463
  360MOL0     C48498   3.226   7.339  10.565 -0.6982  0.8141 -0.1212
  360MOL0     C48499   3.112   7.253  10.591 -0.1126 -0.2983  0.5404
  360MOL0     C48500   3.121   7.115  10.569 -0.8267  0.9787 -0.4469
  360MOL0     O48501   3.003   7.042  10.576  0.4169  0.1598 -0.1033
  360MOL0     C48502   3.012   6.897  10.581 -0.5496 -0.1954  0.5949
  360MOL0     C48503   2.875   6.834  10.620 -1.1604 -0.3843 -0.7154
  360MOL0     C48504   2.760   6.887  10.528  0.6095 -0.6950 -0.4127
  360MOL0     C48505   2.616   6.857  10.599 -0.1424  0.2123 -0.0057
  360MOL0     C48506   2.497   6.859  10.507 -0.0978  0.3446 -0.2929
  360MOL0     C48507   2.384   6.784  10.582  0.1928 -0.2357  1.2194
  360MOL0     C48508   2.242   6.824  10.521 -0.1967  0.0410  0.3081
  360MOL0     C48509   2.124   6.779  10.604 -0.0961 -0.1927 -0.2305
  360MOL0    Cl48510   2.029   6.910  10.693 -0.4174  0.1034  0.4453
  360MOL0     C48511   3.252   7.053  10.541 -0.3400 -1.4730  0.6493
  360MOL0     C48512   3.365   7.142  10.539  0.2411  0.1125  0.4515
  360MOL0     O48513   3.521   7.301  10.737  0.5873  0.1814 -0.0799
  360MOL0     C48514   3.704   7.478  10.501 -0.7502 -0.2320  0.1774
  360MOL0     C48515   3.807   7.563  10.481  0.0752  0.3623 -0.4134
  360MOL0     N48516   4.338   8.036  10.259  0.7799 -0.1553  0.2002
  360MOL0     N48517   4.420   8.026  10.167 -0.0695  0.2974 -0.0118
  360MOL0     C48518   5.668   7.919   9.942  0.3701  0.4217 -0.3351
  360MOL0     C48519   5.793   7.981   9.928  1.0589  0.1811  0.1887
  360MOL0     C48520   6.216   8.125   9.967 -0.4959  0.7891  0.3370
  360MOL0     C48521   6.208   8.253  10.021  0.2140  0.6361  0.6608
  360MOL0     C48522   6.316   8.323  10.056  0.1525 -0.7070 -0.4307
  360MOL0     C48523   6.448   8.268  10.050  0.7676 -0.2983 -0.8265
  360MOL0     O48524   6.547   8.337  10.113 -0.8107 -0.1328  0.1110
  360MOL0     C48525   6.677   8.270  10.122  0.4018  0.0878  0.6483
  360MOL0     C48526   6.760   8.334  10.228 -0.7655  0.1073  0.7135
  360MOL0     C48527   6.906   8.278  10.229 -0.4076  0.3273  0.0279
  360MOL0     C48528   7.007   8.373  10.289  0.9141 -0.0061 -0.5495
  360MOL0     C48529   6.975   8.393  10.429 -0.2857  1.2003 -0.1557
  360MOL0     C48530   6.953   8.403  10.544 -0.5172 -0.2232  0.1513
  360MOL0     C48531   6.461   8.144   9.985  0.5672 -0.1429 -0.2349
  360MOL0     C48532   6.347   8.077   9.947  0.7216  0.8383 -0.8383
  360MOL0     H48533   5.871   8.095  10.223  0.0471 -1.3937  0.7569
  360MOL0     H48534   5.644   7.980  10.278  1.8547 -0.5778  0.9060
  360MOL0     H48535   5.393   7.957   9.940  0.8989 -2.3153 -3.7473
  360MOL0     H48536   5.407   7.778   9.929 -1.9653 -0.5951  0.0569
  360MOL0     H48537   5.229   7.750  10.086  1.9062 -0.4077 -2.3367
  360MOL0     H48538   5.252   7.906  10.153  2.7166  0.0288  0.4779
  360MOL0     H48539   5.132   8.004   9.978 -0.1666  0.5832  2.3652
  360MOL0     H48540   5.163   7.868   9.861  2.5691  0.0675  1.2693
  360MOL0     H48541   4.998   7.729  10.005  0.3115  0.2524 -0.9485
  360MOL0     H48542   4.982   7.879  10.103  0.3019  1.0119 -0.1899
  360MOL0     H48543   4.886   7.994   9.894 -2.3658  0.2405  0.2924
  360MOL0     H48544   4.918   7.858   9.810 -1.9145  1.2236 -0.8694
  360MOL0     H48545   4.677   7.856   9.863 -2.2036  0.6080  1.2975
  360MOL0     H48546   4.761   7.727   9.962  0.9845  0.8726 -0.1613
  360MOL0     H48547   4.764   7.886  10.162  2.6310  2.0066 -1.3527
  360MOL0     H48548   4.694   8.001  10.058 -1.7980 -0.3739 -0.4519
  360MOL0     H48549   4.593   7.731  10.148  2.1862  0.0569 -0.0453
  360MOL0     H48550   4.511   7.809  10.009  1.0168 -0.0931 -0.7793
  360MOL0     H48551   4.497   7.774  10.368 -4.1169 -0.0370  2.3140
  360MOL0     H48552   4.417   7.914  10.554 -1.6508 -3.6039 -0.7897
  360MOL0     H48553   4.305   8.056  10.536 -1.1308  0.7088 -0.8362
  360MOL0     H48554   4.207   7.829  10.631 -1.4716  0.1247 -0.0887
  360MOL0     H48555   4.225   7.761  10.479  2.1654  0.2940  1.4664
  360MOL0     H48556   4.089   7.979  10.394 -1.5035  0.0383 -0.4402
  360MOL0     H48557   4.046   8.002  10.560  3.2802  0.9490 -0.5824
  360MOL0     H48558   3.980   7.774  10.380  0.8540 -0.0144 -0.8593
  360MOL0     H48559   3.860   7.868  10.466  0.0741  0.1106 -0.1232
  360MOL0     H48560   3.841   7.666  10.808 -1.6714  1.1748  0.2321
  360MOL0     H48561   3.624   7.622  10.934  0.9693 -0.4602  1.4919
  360MOL0     H48562   3.541   7.482  10.893  2.3088 -2.7639 -0.4519
  360MOL0     H48563   3.705   7.459  10.953  0.9727  0.3880  0.0454
  360MOL0     H48564   3.217   7.447  10.559 -1.7609  0.6578 -3.2996
  360MOL0     H48565   3.016   7.298  10.615 -0.1964 -0.2138  0.0512
  360MOL0     H48566   3.042   6.870  10.479  0.7349  0.4750  0.7650
  360MOL0     H48567   3.081   6.859  10.656 -0.5091 -1.1578  0.0837
  360MOL0     H48568   2.867   6.726  10.601 -4.5053 -0.0528 -1.9027
  360MOL0     H48569   2.851   6.862  10.723 -1.1917 -3.6543  0.2698
  360MOL0     H48570   2.773   6.859  10.423  0.7585  0.6850 -0.7789
  360MOL0     H48571   2.770   6.995  10.515 -0.5421 -0.8965 -4.2406
  360MOL0     H48572   2.629   6.759  10.647 -2.5483 -0.7501 -1.1600
  360MOL0     H48573   2.606   6.922  10.687  0.6715  0.3139  0.0208
  360MOL0     H48574   2.525   6.828  10.406  0.8105  3.2077 -1.0138
  360MOL0     H48575   2.468   6.965  10.504  1.7517  1.1233  3.2014
  360MOL0     H48576   2.398   6.676  10.570 -2.1834 -0.4387 -0.3476
  360MOL0     H48577   2.380   6.818  10.685  1.8091 -1.1333  1.6275
  360MOL0     H48578   2.223   6.776  10.425  1.4661 -0.7263  0.3252
  360MOL0     H48579   2.232   6.932  10.504 -0.2566  0.0534  0.4208
  360MOL0     H48580   2.150   6.694  10.667  0.8935  0.4632  0.2751
  360MOL0     H48581   2.054   6.739  10.530 -0.3923 -0.3980  0.1533
  360MOL0     H48582   3.261   6.945  10.542  1.2942 -1.3607 -0.0192
  360MOL0     H48583   3.465   7.102  10.533  1.2703  2.6797 -0.9630
  360MOL0     H48584   3.657   7.429  10.416 -0.6192 -0.6745  0.3538
  360MOL0     H48585   3.849   7.579  10.382  0.1198 -2.3767 -0.9143
  360MOL0     H48586   5.621   7.883   9.851 -0.9470  1.1701  0.0271
  360MOL0     H48587   5.831   7.985   9.826 -0.0318  3.2186 -0.2086
  360MOL0     H48588   6.111   8.301  10.019 -1.1464 -1.9060 -1.5554
  360MOL0     H48589   6.293   8.418  10.103 -0.5855 -1.4677  0.8136
  360MOL0     H48590   6.664   8.163  10.141 -0.6098  0.0342 -0.2048
  360MOL0     H48591   6.720   8.280  10.021 -0.2684 -2.7930 -0.0090
  360MOL0     H48592   6.716   8.328  10.328 -0.5624  1.0824  0.8779
  360MOL0     H48593   6.766   8.440  10.202 -0.8156 -0.3912 -1.5849
  360MOL0     H48594   6.945   8.250  10.131 -1.4810  0.1788 -0.3707
  360MOL0     H48595   6.903   8.182  10.281  0.6094 -0.1174 -0.6889
  360MOL0     H48596   6.999   8.467  10.233 -2.9595 -1.7538 -3.4244
  360MOL0     H48597   7.102   8.327  10.263  1.4210  2.1070 -2.8731
  360MOL0     H48598   6.946   8.397  10.650 -1.1260 -4.3398  0.0484
  360MOL0     H48599   6.554   8.093   9.965  0.1370 -0.9828 -0.1340
  360MOL0     H48600   6.353   7.981   9.897  1.3807 -0.0006  0.7686
  361MOL0     O48601   9.319   3.392   5.274 -0.5196  0.0861  0.2027
  361MOL0     C48602   9.398   3.467   5.334  0.0608  0.3271 -0.6297
  361MOL0     O48603   9.526   3.439   5.361 -0.2140  0.5702 -1.0081
  361MOL0     C48604   9.582   3.327   5.304  0.1825  0.2337 -0.3513
  361MOL0     C48605   9.687   3.343   5.213 -0.6348 -0.5210 -0.3077
  361MOL0     C48606   9.725   3.241   5.122  0.4085  0.7276  0.2290
  361MOL0     C48607   9.661   3.117   5.132  0.6304  0.8744  0.4369
  361MOL0     O48608   9.695   3.021   5.033 -0.2276  0.0063 -0.2674
  361MOL0     C48609   9.644   2.886   5.045 -0.2345  0.9631 -0.1360
  361MOL0     C48610   9.694   2.800   4.930 -0.2022 -0.9649 -0.6589
  361MOL0     C48611   9.657   2.860   4.791  0.3414  0.1109 -0.1245
  361MOL0     C48612   9.723   2.785   4.677 -0.6584 -0.4823  0.2356
  361MOL0     C48613   9.692   2.846   4.545  0.4511  0.3770  0.5905
  361MOL0     C48614   9.769   2.809   4.424  0.2105 -0.2169 -0.0181
  361MOL0     C48615   9.731   2.671   4.375  0.3505  0.1979 -0.4898
  361MOL0     C48616   9.821   2.647   4.252  0.9498 -0.8173 -0.3299
  361MOL0     N48617   9.755   2.548   4.171  0.8513  0.4846  0.1809
  361MOL0     C48618   9.715   2.419   4.217  0.2421 -0.6853  0.5378
  361MOL0     C48619   9.648   2.371   4.105 -0.0454  0.0698  0.4006
  361MOL0     C48620   9.566   2.243   4.100 -0.1494 -0.3046 -0.1690
  361MOL0     C48621   9.412   2.248   4.109  0.2855  0.0643  0.1504
  361MOL0     C48622   9.367   2.302   4.248  1.0215 -0.4893  0.2830
  361MOL0     C48623   9.213   2.329   4.253 -0.3369 -0.0160  0.8058
  361MOL0     O48624   9.171   2.359   4.388 -0.3664  0.0261  0.9276
  361MOL0     C48625   9.037   2.379   4.414 -0.1004  0.7112  0.0767
  361MOL0     C48626   8.936   2.357   4.322  0.2544  0.0715  0.1720
  361MOL0     C48627   8.799   2.373   4.346  0.7336 -0.0025 -0.4031
  361MOL0     C48628   8.702   2.347   4.237  0.7406 -0.1284 -0.2200
  361MOL0     C48629   8.769   2.408   4.482 -0.1566 -0.7946  0.4262
  361MOL0     C48630   8.633   2.423   4.543 -1.4385  0.7623  0.8812
  361MOL0     O48631   8.519   2.401   4.458 -0.1676 -0.3129  0.2000
  361MOL0     C48632   8.404   2.466   4.482 -0.0764  0.0716  0.8766
  361MOL0     C48633   8.379   2.581   4.409 -1.1763  0.4750 -0.0855
  361MOL0     C48634   8.271   2.660   4.435  0.2167  0.3687 -0.4809
  361MOL0     C48635   8.167   2.622   4.527 -0.0027  0.6828 -0.2974
  361MOL0     O48636   8.046   2.685   4.548 -0.0855 -0.0791  0.3588
  361MOL0     C48637   8.031   2.821   4.505 -0.2374  0.2764  0.0225
  361MOL0     C48638   7.896   2.872   4.556 -0.3156 -0.4104  0.6206
  361MOL0     C48639   7.893   2.876   4.711 -0.2088  0.4043 -0.4338
  361MOL0     C48640   7.754   2.933   4.755 -0.2086  0.3909 -0.1207
  361MOL0     C48641   7.765   2.979   4.903  0.9811  0.0911 -0.3313
  361MOL0     C48642   7.639   3.055   4.961  0.2448  0.0558  0.1471
  361MOL0     C48643   7.527   2.956   4.998  0.3602 -0.5370 -0.7439
  361MOL0     C48644   7.392   3.032   5.038 -0.7745 -0.2103  0.3900
  361MOL0    Cl48645   7.240   2.935   5.027  0.6425 -0.1283  0.0174
  361MOL0     C48646   8.186   2.498   4.598  0.3077 -0.0531  0.3310
  361MOL0     C48647   8.308   2.424   4.576 -0.1129 -0.6463 -0.0289
  361MOL0     O48648   8.627   2.459   4.656  0.6830  0.7462 -0.2223
  361MOL0     C48649   8.871   2.439   4.568 -0.2815 -1.1596 -0.1933
  361MOL0     C48650   9.004   2.430   4.540  0.4488  0.8012 -0.6025
  361MOL0     N48651   9.662   2.460   4.006 -0.7311  0.1791  0.2225
  361MOL0     N48652   9.723   2.567   4.046 -0.6136 -0.2730  0.1301
  361MOL0     C48653   9.561   3.097   5.232  0.3094  0.0899  0.5306
  361MOL0     C48654   9.527   3.203   5.324 -0.5188  0.8111  0.3550
  361MOL0     C48655   9.353   3.604   5.371  0.3580 -0.0173  0.3602
  361MOL0     C48656   9.426   3.709   5.427 -0.5425 -0.2679 -0.0107
  361MOL0     C48657   9.368   3.824   5.476 -0.1951 -0.3342 -0.0531
  361MOL0     C48658   9.233   3.848   5.459  0.8764  1.1020  0.2380
  361MOL0     O48659   9.163   3.951   5.512  0.4294 -0.5736  0.0721
  361MOL0     C48660   9.229   4.032   5.606  0.6076 -0.0766  0.1557
  361MOL0     C48661   9.137   4.134   5.657 -0.3270 -0.6513  1.5128
  361MOL0     C48662   9.020   4.083   5.731  0.0591 -0.0491  0.5382
  361MOL0     C48663   8.893   4.052   5.649 -1.0004 -0.4163 -1.0504
  361MOL0     C48664   8.789   3.980   5.727 -0.3053  0.1951 -0.1476
  361MOL0     C48665   8.712   3.927   5.806  0.6442 -0.6360 -0.0468
  361MOL0     C48666   9.158   3.741   5.409  0.0861 -0.2226  0.8121
  361MOL0     C48667   9.213   3.629   5.358 -0.0251 -0.2144  0.2214
  361MOL0     H48668   9.730   3.441   5.200  0.4777 -1.1203 -1.3205
  361MOL0     H48669   9.792   3.259   5.039 -2.5868  4.0557 -1.8070
  361MOL0     H48670   9.686   2.825   5.126  0.5387 -0.5286 -1.5994
  361MOL0     H48671   9.535   2.888   5.032 -0.3582 -1.0778  0.3102
  361MOL0     H48672   9.802   2.789   4.934 -0.0209  0.6898  3.2698
  361MOL0     H48673   9.666   2.694   4.929  2.2881 -1.6866 -1.3480
  361MOL0     H48674   9.548   2.855   4.787  0.2371  0.3785  1.5564
  361MOL0     H48675   9.690   2.964   4.795  5.3036 -1.2394  3.0928
  361MOL0     H48676   9.830   2.764   4.683 -0.4986 -0.2328 -1.3242
  361MOL0     H48677   9.661   2.695   4.678 -2.6550  0.8082  1.9938
  361MOL0     H48678   9.587   2.819   4.531  0.3706  0.7578  0.4492
  361MOL0     H48679   9.707   2.954   4.552  2.1298  0.1025  1.7525
  361MOL0     H48680   9.751   2.887   4.349  2.2888 -0.5464 -0.9436
  361MOL0     H48681   9.876   2.809   4.447  0.3610 -2.6717 -0.4309
  361MOL0     H48682   9.752   2.607   4.461 -2.2429  2.3010  1.8858
  361MOL0     H48683   9.627   2.672   4.342 -0.0190  2.0237  0.5966
  361MOL0     H48684   9.924   2.615   4.273  1.3438  0.9398  0.5872
  361MOL0     H48685   9.832   2.738   4.193  0.6675 -0.0531  0.7784
  361MOL0     H48686   9.736   2.373   4.313  0.8017  1.2778  1.4034
  361MOL0     H48687   9.593   2.195   4.006 -1.5165  0.0842 -0.7880
  361MOL0     H48688   9.597   2.179   4.184 -1.9459 -0.8655  0.1222
  361MOL0     H48689   9.364   2.152   4.089  0.3168 -0.0107  0.4398
  361MOL0     H48690   9.386   2.318   4.029  1.3373 -1.3855 -1.5389
  361MOL0     H48691   9.413   2.394   4.287  1.2541 -1.2227  1.7818
  361MOL0     H48692   9.388   2.225   4.323  0.9813 -0.2924  0.4986
  361MOL0     H48693   9.159   2.244   4.210  1.5504 -0.6555 -0.4167
  361MOL0     H48694   9.197   2.402   4.173  3.6712 -1.2356 -1.3606
  361MOL0     H48695   8.952   2.332   4.217 -1.0662  0.3889 -0.1295
  361MOL0     H48696   8.661   2.443   4.203 -2.0866 -0.0943  2.7985
  361MOL0     H48697   8.743   2.288   4.155  0.8633  1.6662 -1.5173
  361MOL0     H48698   8.615   2.290   4.272 -0.4710  0.4855 -2.0707
  361MOL0     H48699   8.452   2.621   4.339 -3.8242  0.6434 -2.9850
  361MOL0     H48700   8.259   2.753   4.380  1.9309  1.2589  0.5673
  361MOL0     H48701   8.120   2.869   4.546 -0.0501  0.2261 -0.3213
  361MOL0     H48702   8.023   2.824   4.396  3.8895 -1.8594 -0.5410
  361MOL0     H48703   7.870   2.967   4.510  0.7312  0.5026  1.8447
  361MOL0     H48704   7.823   2.801   4.516  1.0010 -0.0723 -2.6635
  361MOL0     H48705   7.976   2.933   4.754 -0.1912 -0.2555  0.4472
  361MOL0     H48706   7.905   2.781   4.764  0.6626  0.9703  0.4332
  361MOL0     H48707   7.717   3.012   4.690  1.4178  0.6873 -0.7389
  361MOL0     H48708   7.673   2.862   4.770 -1.3811  1.3354 -1.7262
  361MOL0     H48709   7.848   3.049   4.917  2.0697 -1.2380  0.1286
  361MOL0     H48710   7.803   2.900   4.969  0.3270  0.7636  0.8701
  361MOL0     H48711   7.655   3.112   5.053 -0.1791  1.6500 -0.7359
  361MOL0     H48712   7.597   3.119   4.882 -0.9116  0.9248  1.4240
  361MOL0     H48713   7.554   2.894   5.084 -1.9183  1.6018  1.7057
  361MOL0     H48714   7.496   2.904   4.907 -1.0059 -0.4915 -0.3295
  361MOL0     H48715   7.372   3.118   4.974 -1.1328  0.6984  1.7009
  361MOL0     H48716   7.403   3.070   5.140 -0.9417  1.1894 -0.1042
  361MOL0     H48717   8.114   2.464   4.672  0.0300 -2.1398 -0.8136
  361MOL0     H48718   8.317   2.332   4.633  2.4383  0.2442  1.1760
  361MOL0     H48719   8.857   2.476   4.669  2.3049 -4.3792  1.5357
  361MOL0     H48720   9.085   2.456   4.608 -1.3471 -0.4140  2.1833
  361MOL0     H48721   9.508   3.004   5.250 -2.1129  1.4031  0.5025
  361MOL0     H48722   9.445   3.182   5.392  0.1415 -4.3323 -0.0455
  361MOL0     H48723   9.535   3.711   5.429 -0.4136  1.5459 -2.9207
  361MOL0     H48724   9.431   3.898   5.525  1.4760 -1.9445  0.3532
  361MOL0     H48725   9.271   3.971   5.686 -0.5693 -0.3468  0.5796
  361MOL0     H48726   9.313   4.077   5.551  0.8253 -0.2956  0.3091
  361MOL0     H48727   9.095   4.191   5.573 -1.4184 -0.9672  1.8338
  361MOL0     H48728   9.195   4.200   5.722  0.1672  0.1845  0.2726
  361MOL0     H48729   8.988   4.160   5.801 -1.9529  1.3503 -1.7430
  361MOL0     H48730   9.067   3.999   5.784  1.3200 -1.7017 -2.8465
  361MOL0     H48731   8.914   3.985   5.565 -1.6804  0.0874 -1.6385
  361MOL0     H48732   8.856   4.149   5.614  1.5322  1.9785  2.2559
  361MOL0     H48733   8.657   3.882   5.887  0.4083  1.6392  1.1517
  361MOL0     H48734   9.053   3.761   5.389  0.1759 -1.4840 -1.1221
  361MOL0     H48735   9.135   3.574   5.307 -3.2852  3.0421  1.2804
  362MOL0     O48736   5.791   1.655   4.666  0.3463  0.4120  0.4097
  362MOL0     C48737   5.761   1.767   4.628  0.2757 -0.1042  0.3883
  362MOL0     O48738   5.632   1.813   4.608 -0.0820  1.0331  0.0032
  362MOL0     C48739   5.531   1.720   4.601 -1.3762 -0.1080 -1.3188
  362MOL0     C48740   5.490   1.650   4.715 -0.0037  0.4726  0.5463
  362MOL0     C48741   5.373   1.570   4.717 -0.2476 -0.4649 -0.3346
  362MOL0     C48742   5.308   1.547   4.595  0.1196 -0.1731 -0.1226
  362MOL0     O48743   5.186   1.480   4.568 -0.1842  0.6290  0.5939
  362MOL0     C48744   5.151   1.399   4.679  0.7450 -0.1857  0.3379
  362MOL0     C48745   5.034   1.314   4.635  0.0296  0.4800  0.4231
  362MOL0     C48746   4.927   1.383   4.544 -0.4050 -0.0057 -1.1102
  362MOL0     C48747   4.836   1.489   4.614  0.7803 -1.0113 -0.6983
  362MOL0     C48748   4.695   1.520   4.563 -0.3347 -0.4222 -0.2425
  362MOL0     C48749   4.700   1.557   4.408  0.6255  0.2105 -0.2083
  362MOL0     C48750   4.555   1.558   4.355  0.4497 -0.2561  0.0261
  362MOL0     C48751   4.469   1.655   4.429  0.0856 -0.9334 -0.4644
  362MOL0     N48752   4.349   1.686   4.353 -0.1341  0.0447 -0.0112
  362MOL0     C48753   4.334   1.794   4.267 -0.6119 -0.1360  0.5728
  362MOL0     C48754   4.197   1.803   4.263 -0.0395 -1.0319  0.2502
  362MOL0     C48755   4.119   1.893   4.169  0.1202 -0.0998  0.7965
  362MOL0     C48756   4.000   1.972   4.221 -0.0474 -0.0937 -0.5119
  362MOL0     C48757   3.874   1.894   4.267 -0.5948 -0.2910 -0.1561
  362MOL0     C48758   3.833   1.787   4.174  0.1630 -0.1017 -0.0576
  362MOL0     O48759   3.810   1.857   4.048 -0.7526  0.0421  0.2955
  362MOL0     C48760   3.692   1.927   4.022  0.1243 -0.1645  0.5333
  362MOL0     C48761   3.698   1.985   3.897  0.3055  0.1857  0.3531
  362MOL0     C48762   3.599   2.065   3.847  0.3125 -0.3711 -0.1342
  362MOL0     C48763   3.598   2.117   3.704  0.4069  0.4554  0.3893
  362MOL0     C48764   3.499   2.105   3.937  1.0088  0.4305 -0.1441
  362MOL0     C48765   3.390   2.201   3.912  0.1075 -0.4240  0.1158
  362MOL0     O48766   3.271   2.177   3.980 -0.2169 -0.1203 -0.0373
  362MOL0     C48767   3.153   2.242   3.958 -0.8132 -1.1995 -0.2005
  362MOL0     C48768   3.057   2.239   4.054 -0.1044 -0.8373  0.0533
  362MOL0     C48769   2.935   2.301   4.038  0.0108  0.6453 -0.1007
  362MOL0     C48770   2.897   2.359   3.918 -0.3911 -0.3402  0.0741
  362MOL0     O48771   2.766   2.398   3.898 -0.4498  0.4701  0.5674
  362MOL0     C48772   2.704   2.300   3.809 -0.0029  0.0865  0.5087
  362MOL0     C48773   2.649   2.387   3.688 -0.5924  0.5791  0.4411
  362MOL0     C48774   2.511   2.435   3.731 -0.6085 -0.4308 -0.1531
  362MOL0     C48775   2.441   2.514   3.614 -0.1481  0.3194  0.4625
  362MOL0     C48776   2.286   2.531   3.636 -0.7310  0.2556 -0.4163
  362MOL0     C48777   2.199   2.532   3.511 -0.7617 -0.3630  0.4073
  362MOL0     C48778   2.222   2.663   3.434  0.0629 -0.1739 -0.0658
  362MOL0     C48779   2.130   2.672   3.313  0.2071 -0.0731  0.6530
  362MOL0    Cl48780   2.116   2.839   3.238 -0.2325  0.1937 -0.0333
  362MOL0     C48781   2.996   2.371   3.818  0.4017  1.2725 -0.4321
  362MOL0     C48782   3.121   2.316   3.840 -0.3611 -0.8139 -0.1315
  362MOL0     O48783   3.416   2.306   3.854  0.0261  0.1671 -0.0579
  362MOL0     C48784   3.478   2.035   4.057 -0.3072  0.2367  0.1099
  362MOL0     C48785   3.583   1.962   4.102 -0.0738  0.3841 -0.1696
  362MOL0     N48786   4.140   1.696   4.327 -0.4867  0.1328 -0.3785
  362MOL0     N48787   4.229   1.628   4.384 -0.6501  0.8030 -0.0593
  362MOL0     C48788   5.360   1.619   4.477 -0.0408  0.2139 -0.2094
  362MOL0     C48789   5.465   1.707   4.480 -0.8381  0.8101 -0.1835
  362MOL0     C48790   5.868   1.856   4.607  0.1994 -0.4390  1.8698
  362MOL0     C48791   5.832   1.993   4.582 -0.2584 -0.2608 -0.1565
  362MOL0     C48792   5.934   2.090   4.569  0.3007 -0.4346 -0.0256
  362MOL0     C48793   6.073   2.057   4.576 -0.2474 -0.6957 -0.1835
  362MOL0     O48794   6.169   2.158   4.572  0.6307  0.0498 -0.3704
  362MOL0     C48795   6.312   2.121   4.560  0.1532 -0.4502 -0.4473
  362MOL0     C48796   6.393   2.249   4.533  0.9721 -0.1878 -0.2636
  362MOL0     C48797   6.547   2.237   4.558  0.3670  1.1110 -0.7561
  362MOL0     C48798   6.587   2.377   4.605 -0.6416  1.0692 -0.1894
  362MOL0     C48799   6.731   2.407   4.579  0.8860 -0.2186  0.1034
  362MOL0     C48800   6.841   2.450   4.551 -0.6646 -0.1524 -0.9784
  362MOL0     C48801   6.098   1.919   4.586 -1.0632 -0.1430 -0.0236
  362MOL0     C48802   6.000   1.826   4.601 -0.4912 -0.4508  0.2932
  362MOL0     H48803   5.547   1.668   4.806 -0.7117  3.1564  0.5661
  362MOL0     H48804   5.348   1.527   4.813 -2.3554 -1.5116 -1.2881
  362MOL0     H48805   5.236   1.339   4.714  0.0368  0.4630  3.4959
  362MOL0     H48806   5.122   1.472   4.755  0.4121  0.8419 -0.7374
  362MOL0     H48807   5.071   1.219   4.595 -0.3974 -0.0667  1.2902
  362MOL0     H48808   4.981   1.267   4.718  0.8565  1.2659  1.4434
  362MOL0     H48809   4.972   1.431   4.457 -0.7486 -0.6593 -1.6604
  362MOL0     H48810   4.861   1.303   4.506  1.3016 -2.9434  1.6023
  362MOL0     H48811   4.826   1.447   4.715 -1.7575 -3.2320 -1.7535
  362MOL0     H48812   4.886   1.585   4.631  0.5846 -1.3914  2.7872
  362MOL0     H48813   4.634   1.434   4.592  0.3299 -0.2646  1.8286
  362MOL0     H48814   4.657   1.608   4.617 -0.7434 -1.6229  1.5177
  362MOL0     H48815   4.739   1.657   4.390  1.2674  0.0282  0.1466
  362MOL0     H48816   4.755   1.488   4.344  0.8629 -2.2236  2.4209
  362MOL0     H48817   4.553   1.588   4.250  1.3082 -2.1617 -0.5802
  362MOL0     H48818   4.504   1.461   4.356  0.2724 -0.1740 -0.7342
  362MOL0     H48819   4.512   1.755   4.441 -2.1232  0.4808 -3.2704
  362MOL0     H48820   4.444   1.622   4.530  2.0486  2.0779  1.1607
  362MOL0     H48821   4.405   1.859   4.218 -3.1799  1.1088 -1.8136
  362MOL0     H48822   4.178   1.978   4.134 -1.9214  0.3779 -1.8581
  362MOL0     H48823   4.094   1.832   4.081 -0.6657  0.3506  0.7047
  362MOL0     H48824   3.968   2.041   4.142  1.7833 -0.2975 -1.4910
  362MOL0     H48825   4.035   2.032   4.305  1.8374 -1.2757 -0.3972
  362MOL0     H48826   3.783   1.955   4.272 -1.3735 -1.4404  0.1758
  362MOL0     H48827   3.895   1.853   4.366 -1.2604 -0.1421  0.0546
  362MOL0     H48828   3.737   1.742   4.203  0.2937 -0.0363  0.4732
  362MOL0     H48829   3.909   1.711   4.158  0.8668  1.1603 -3.5874
  362MOL0     H48830   3.783   1.956   3.835  1.7465  3.6998  0.4469
  362MOL0     H48831   3.496   2.113   3.663  1.0281  3.6160 -1.7895
  362MOL0     H48832   3.630   2.222   3.714 -1.9525  1.7743 -3.6843
  362MOL0     H48833   3.666   2.058   3.643  0.2280 -0.0393  0.6584
  362MOL0     H48834   3.062   2.183   4.146  0.8849 -1.2945 -0.2712
  362MOL0     H48835   2.855   2.293   4.112  2.1938  2.5961  2.7015
  362MOL0     H48836   2.780   2.230   3.772  0.0561  0.2275  0.3645
  362MOL0     H48837   2.631   2.241   3.866  1.2488  1.5458  3.8784
  362MOL0     H48838   2.719   2.466   3.662  1.0352 -1.5574 -2.2155
  362MOL0     H48839   2.640   2.327   3.597  1.0332 -2.3194  2.0296
  362MOL0     H48840   2.520   2.500   3.819 -1.7637 -1.5448  0.8315
  362MOL0     H48841   2.459   2.341   3.752  0.4580 -1.3912 -1.6182
  362MOL0     H48842   2.495   2.608   3.608  0.1288  0.0732 -4.0994
  362MOL0     H48843   2.438   2.464   3.517 -1.8861  1.8330 -0.3122
  362MOL0     H48844   2.276   2.610   3.711  3.8458 -0.4300  1.2657
  362MOL0     H48845   2.246   2.437   3.675 -2.3966  1.5793  1.2631
  362MOL0     H48846   2.221   2.452   3.439  2.3310  1.1624 -0.5239
  362MOL0     H48847   2.095   2.514   3.537 -0.3612 -3.1824  0.3825
  362MOL0     H48848   2.328   2.674   3.408  0.2044 -0.7505  0.2562
  362MOL0     H48849   2.187   2.751   3.489  2.0329  1.7684 -1.7026
  362MOL0     H48850   2.024   2.653   3.332 -1.3618  3.8388 -2.7593
  362MOL0     H48851   2.155   2.590   3.245 -0.4265 -0.5462  0.9796
  362MOL0     H48852   2.979   2.418   3.721  0.1503  1.4388 -0.3076
  362MOL0     H48853   3.182   2.324   3.751 -2.3118  0.8542 -1.3836
  362MOL0     H48854   3.393   2.048   4.124  0.3792  0.4706  0.9658
  362MOL0     H48855   3.583   1.905   4.195  1.2152 -1.6258 -1.3384
  362MOL0     H48856   5.300   1.609   4.387 -2.8471 -0.8648  1.6352
  362MOL0     H48857   5.498   1.761   4.392  0.4601  2.2444  1.1073
  362MOL0     H48858   5.728   2.024   4.571 -0.4726 -1.6670 -2.7126
  362MOL0     H48859   5.900   2.190   4.543  1.0045  0.5368  2.5339
  362MOL0     H48860   6.344   2.067   4.650  2.3346  0.9782 -0.2978
  362MOL0     H48861   6.331   2.059   4.472 -0.2740 -0.7207 -0.3527
  362MOL0     H48862   6.353   2.328   4.598 -0.0292 -1.4100  0.6544
  362MOL0     H48863   6.373   2.270   4.427 -1.0148 -1.7665 -0.2500
  362MOL0     H48864   6.599   2.205   4.467 -0.5346 -3.0116 -0.0159
  362MOL0     H48865   6.557   2.156   4.630 -1.9943  0.7799 -0.7204
  362MOL0     H48866   6.573   2.382   4.714  2.4248  2.5385  0.2317
  362MOL0     H48867   6.531   2.459   4.560 -2.4886 -0.1475 -0.2466
  362MOL0     H48868   6.940   2.490   4.543 -0.5398 -0.3150 -0.2921
  362MOL0     H48869   6.203   1.897   4.603 -0.6234  1.4217 -0.6341
  362MOL0     H48870   6.038   1.726   4.620  0.3184  0.3541  3.5709
  363MOL0     O48871  10.050  11.000   3.969 -0.6043 -0.2697  0.0096
  363MOL0     C48872  10.041  10.897   3.901 -0.4009  0.3109  0.1350
  363MOL0     O48873   9.926  10.844   3.857 -0.3513  0.1280 -0.1139
  363MOL0     C48874   9.823  10.926   3.835  0.8348 -0.4623  0.3598
  363MOL0     C48875   9.838  11.048   3.775 -0.2325 -0.0596 -0.1019
  363MOL0     C48876   9.734  11.118   3.728 -0.5281 -0.1802 -0.2785
  363MOL0     C48877   9.603  11.076   3.742  1.0381  0.2341  0.1138
  363MOL0     O48878   9.490  11.139   3.707  1.0005 -0.7028  0.5073
  363MOL0     C48879   9.519  11.250   3.617 -0.4910  0.2346  0.9403
  363MOL0     C48880   9.403  11.322   3.547 -0.6538  0.2921  0.3462
  363MOL0     C48881   9.281  11.349   3.640 -0.4556 -0.1383 -0.3591
  363MOL0     C48882   9.300  11.476   3.724 -0.0337 -0.1173  0.0251
  363MOL0     C48883   9.186  11.492   3.815 -0.4187  0.6448 -0.2124
  363MOL0     C48884   9.156  11.635   3.835  0.2657 -0.0285 -0.3287
  363MOL0     C48885   9.088  11.706   3.718 -0.0224 -0.0255  0.0334
  363MOL0     C48886   9.009  11.834   3.749  0.5412 -0.2921  0.2020
  363MOL0     N48887   8.867  11.807   3.788 -1.2096  0.0582 -0.3447
  363MOL0     C48888   8.763  11.767   3.708  0.2965  0.6944 -0.8397
  363MOL0     C48889   8.655  11.751   3.788  0.2467  0.4942  0.2463
  363MOL0     C48890   8.529  11.677   3.742  0.5283 -0.0882 -0.8653
  363MOL0     C48891   8.557  11.566   3.639  0.1973 -0.7616  0.6280
  363MOL0     C48892   8.654  11.465   3.688  0.6498 -0.0757 -0.4522
  363MOL0     C48893   8.591  11.353   3.774 -0.0446 -0.1518 -0.2821
  363MOL0     O48894   8.502  11.269   3.694  0.1574 -0.2354 -0.4924
  363MOL0     C48895   8.437  11.167   3.759  0.1534 -0.5154  0.1008
  363MOL0     C48896   8.322  11.117   3.683  0.8353  0.3581  0.5103
  363MOL0     C48897   8.240  11.023   3.748  0.2195 -0.0726  0.3899
  363MOL0     C48898   8.119  10.961   3.681  0.3271 -0.0941  0.4688
  363MOL0     C48899   8.271  10.980   3.880  0.3733 -0.3187  0.0942
  363MOL0     C48900   8.180  10.886   3.956 -0.7895 -0.2488 -0.0306
  363MOL0     O48901   8.050  10.920   3.962 -0.9221 -0.7061  0.2319
  363MOL0     C48902   7.954  10.863   4.044 -1.0007  0.5493  0.1508
  363MOL0     C48903   7.833  10.849   4.000  0.3398 -0.1296 -0.5077
  363MOL0     C48904   7.720  10.796   4.061 -1.0282  0.3185  0.5568
  363MOL0     C48905   7.746  10.746   4.192  0.1557  0.7578  0.7840
  363MOL0     O48906   7.644  10.661   4.233  0.1033  0.0462  0.0987
  363MOL0     C48907   7.649  10.578   4.353  1.0309 -0.0260  0.5844
  363MOL0     C48908   7.569  10.449   4.329  0.8151  1.0297  0.0897
  363MOL0     C48909   7.418  10.473   4.321 -0.3159  0.1346 -0.2705
  363MOL0     C48910   7.332  10.376   4.400  0.0580  0.5468  0.6629
  363MOL0     C48911   7.190  10.355   4.355 -0.3242 -0.1343 -0.0892
  363MOL0     C48912   7.110  10.251   4.439 -0.5053 -0.5614 -0.2460
  363MOL0     C48913   7.078  10.296   4.584 -0.1375  0.4638 -0.0556
  363MOL0     C48914   7.018  10.194   4.671 -0.5260  0.1036  0.6798
  363MOL0    Cl48915   6.855  10.158   4.598 -0.0935  0.5323 -0.2207
  363MOL0     C48916   7.875  10.750   4.248  0.6180 -0.7433 -0.4749
  363MOL0     C48917   7.977  10.811   4.177 -0.5855 -0.5786 -0.2145
  363MOL0     O48918   8.232  10.785   4.003  0.1886 -0.3978 -0.2941
  363MOL0     C48919   8.384  11.036   3.947 -0.2039  1.0154 -0.2201
  363MOL0     C48920   8.469  11.125   3.885  0.5351 -0.6984  0.2544
  363MOL0     N48921   8.681  11.802   3.915 -1.0591  0.7845  0.3265
  363MOL0     N48922   8.811  11.825   3.913  1.1941  0.2264 -0.4597
  363MOL0     C48923   9.579  10.950   3.801 -0.5027 -0.2440 -0.3953
  363MOL0     C48924   9.690  10.877   3.840 -0.4638  0.7185  0.0920
  363MOL0     C48925  10.155  10.822   3.866 -0.5415 -0.5132 -0.4635
  363MOL0     C48926  10.141  10.688   3.852 -0.0725 -0.3770  0.9427
  363MOL0     C48927  10.260  10.613   3.823  0.9777 -0.8269 -0.3850
  363MOL0     C48928  10.383  10.660   3.811 -0.6231 -0.0773  0.0902
  363MOL0     O48929  10.494  10.580   3.769 -0.0955  0.2929 -0.6313
  363MOL0     C48930  10.567  10.519   3.876 -0.4813 -0.6232  0.2082
  363MOL0     C48931  10.714  10.505   3.835  0.0708 -0.5411  0.4550
  363MOL0     C48932  10.743  10.370   3.768 -1.1947 -0.8358 -0.1791
  363MOL0     C48933  10.903  10.338   3.760  0.0652  0.8925 -0.8563
  363MOL0     C48934  10.917  10.196   3.722 -1.0300 -0.4472 -0.4791
  363MOL0     C48935  10.936  10.079   3.713  0.1837  0.1850 -0.3793
  363MOL0     C48936  10.396  10.802   3.819 -0.7461  0.6231 -0.8675
  363MOL0     C48937  10.287  10.880   3.856 -0.7565 -0.6148 -0.0907
  363MOL0     H48938   9.942  11.072   3.758 -0.1532 -1.5220 -1.9860
  363MOL0     H48939   9.766  11.197   3.661 -0.4226 -1.0694 -1.3150
  363MOL0     H48940   9.566  11.326   3.681 -0.9313 -0.6190  2.3236
  363MOL0     H48941   9.593  11.221   3.542  1.5023  0.1017  2.8495
  363MOL0     H48942   9.448  11.413   3.506  2.7416 -2.3949 -2.5565
  363MOL0     H48943   9.362  11.264   3.463  1.2315 -0.0991 -0.3495
  363MOL0     H48944   9.193  11.365   3.576 -1.0762 -1.3799  0.1521
  363MOL0     H48945   9.264  11.272   3.716  1.6232 -0.1488  0.1621
  363MOL0     H48946   9.398  11.487   3.770  0.0135  0.1276 -0.1321
  363MOL0     H48947   9.302  11.558   3.651 -0.2266 -1.1891 -1.2245
  363MOL0     H48948   9.097  11.442   3.777 -1.3039  2.3015 -0.4018
  363MOL0     H48949   9.216  11.439   3.906  1.5900  0.4845 -0.9247
  363MOL0     H48950   9.079  11.626   3.913  0.4064 -1.8441 -0.3582
  363MOL0     H48951   9.243  11.691   3.871 -0.4439  0.3768  0.8181
  363MOL0     H48952   9.165  11.724   3.642  1.6152 -1.8849  1.1828
  363MOL0     H48953   9.017  11.636   3.673  1.7479 -1.5646 -0.4710
  363MOL0     H48954   9.018  11.911   3.673  0.6523  2.6405  2.9724
  363MOL0     H48955   9.047  11.871   3.845 -1.3862  1.3464  0.3846
  363MOL0     H48956   8.760  11.750   3.601 -0.9887 -1.8939 -0.4545
  363MOL0     H48957   8.488  11.622   3.828  3.7560 -3.7810 -1.4045
  363MOL0     H48958   8.464  11.753   3.699 -0.8759 -1.7937 -1.9070
  363MOL0     H48959   8.603  11.625   3.558 -0.0106 -0.6746  0.5732
  363MOL0     H48960   8.468  11.532   3.586 -0.0186  1.8403 -0.8402
  363MOL0     H48961   8.736  11.518   3.737 -0.9820  0.5492  1.8036
  363MOL0     H48962   8.702  11.416   3.603  0.1416 -0.5921 -0.4529
  363MOL0     H48963   8.556  11.401   3.866  0.0575 -0.6408  0.0122
  363MOL0     H48964   8.672  11.294   3.819 -1.1095 -3.5825 -2.4477
  363MOL0     H48965   8.293  11.153   3.585  0.0656 -0.4657  0.4224
  363MOL0     H48966   8.119  10.852   3.691  1.4223 -0.2683 -1.1213
  363MOL0     H48967   8.022  11.003   3.711 -0.1649 -1.2415  0.5380
  363MOL0     H48968   8.128  10.997   3.578  2.6039  2.5359  1.4702
  363MOL0     H48969   7.813  10.891   3.902  0.5532  1.4556  0.1019
  363MOL0     H48970   7.621  10.799   4.017 -1.8771 -2.6721  2.0418
  363MOL0     H48971   7.755  10.562   4.373  0.8505 -0.3882  1.2942
  363MOL0     H48972   7.610  10.646   4.429  2.3528  2.3387 -0.7364
  363MOL0     H48973   7.599  10.394   4.240 -2.4436  1.8699 -1.6749
  363MOL0     H48974   7.592  10.385   4.415  0.9994  1.7208  0.5665
  363MOL0     H48975   7.393  10.469   4.215  1.3344  1.7169 -0.7665
  363MOL0     H48976   7.396  10.574   4.359  0.2774 -0.1016  0.7373
  363MOL0     H48977   7.381  10.279   4.385 -1.1498  0.3062 -2.3009
  363MOL0     H48978   7.343  10.390   4.508 -0.6897 -0.8884  0.9524
  363MOL0     H48979   7.193  10.315   4.254 -2.5576  2.5814 -1.3852
  363MOL0     H48980   7.129  10.446   4.347 -0.2331 -0.0355  0.3141
  363MOL0     H48981   7.027  10.203   4.386 -0.4536 -2.8630  1.5887
  363MOL0     H48982   7.173  10.162   4.451 -1.2947 -1.1807 -0.5173
  363MOL0     H48983   7.004  10.376   4.576  1.5816  2.0360 -0.7872
  363MOL0     H48984   7.173  10.321   4.631 -0.4347  1.0304  0.2503
  363MOL0     H48985   6.999  10.236   4.770 -0.8276  0.7160  0.3689
  363MOL0     H48986   7.084  10.108   4.686 -1.2672 -0.2293  2.2395
  363MOL0     H48987   7.914  10.690   4.330  2.3484 -2.0111 -2.1308
  363MOL0     H48988   8.078  10.831   4.213 -1.5561  1.7908  1.4261
  363MOL0     H48989   8.419  11.013   4.048  0.0435 -1.0617 -0.7353
  363MOL0     H48990   8.558  11.169   3.929 -0.1480  1.3270 -0.2743
  363MOL0     H48991   9.477  10.921   3.822 -1.5854  3.4308  0.0694
  363MOL0     H48992   9.671  10.781   3.888 -1.4100  0.3106 -1.0377
  363MOL0     H48993  10.053  10.629   3.871 -0.1893 -0.3263  0.5753
  363MOL0     H48994  10.240  10.508   3.803  0.5119 -0.7716 -0.2309
  363MOL0     H48995  10.571  10.589   3.959  0.4203  1.0876 -1.2101
  363MOL0     H48996  10.534  10.420   3.909 -0.0875 -0.5651  0.7782
  363MOL0     H48997  10.772  10.497   3.927  0.9967 -1.7160 -0.1982
  363MOL0     H48998  10.763  10.584   3.778 -0.7358 -0.6211 -0.3727
  363MOL0     H48999  10.701  10.379   3.667 -2.2048 -0.0045  0.3000
  363MOL0     H49000  10.700  10.290   3.829  0.5731 -1.3668  0.4171
  363MOL0     H49001  10.947  10.345   3.860 -1.2933  3.0877 -0.3413
  363MOL0     H49002  10.957  10.398   3.686 -2.1891  2.4365 -1.3662
  363MOL0     H49003  10.938   9.972   3.707  0.0361  0.1768 -0.2965
  363MOL0     H49004  10.496  10.841   3.804 -0.9150  0.3382 -3.1547
  363MOL0     H49005  10.303  10.986   3.868 -3.1252 -0.3931  1.7808
  364MOL0     O49006   6.369   5.806   7.641  0.3319 -0.4739  0.6415
  364MOL0     C49007   6.378   5.779   7.761 -0.5037  0.9917  0.8183
  364MOL0     O49008   6.267   5.739   7.838  0.1661 -0.3229 -0.6742
  364MOL0     C49009   6.159   5.680   7.773 -0.3554 -0.2355 -0.6859
  364MOL0     C49010   6.054   5.748   7.717  0.3207 -1.1260 -0.1074
  364MOL0     C49011   5.959   5.691   7.637  0.0208 -0.1038 -1.0369
  364MOL0     C49012   5.967   5.558   7.608 -0.9496  0.4971  0.0770
  364MOL0     O49013   5.874   5.500   7.526 -0.0039 -0.2778  0.0210
  364MOL0     C49014   5.737   5.522   7.561 -0.1219 -0.0556  0.2045
  364MOL0     C49015   5.698   5.449   7.690  0.2134  0.6041  0.5990
  364MOL0     C49016   5.548   5.436   7.718  0.3774  0.3598  0.5379
  364MOL0     C49017   5.479   5.334   7.629 -0.6398  0.0473 -0.3666
  364MOL0     C49018   5.326   5.346   7.645  0.2090 -0.3983  0.0347
  364MOL0     C49019   5.259   5.283   7.518 -0.8412  0.5613 -0.2012
  364MOL0     C49020   5.109   5.265   7.521 -0.3489 -0.5321 -0.6326
  364MOL0     C49021   5.058   5.212   7.401  0.5711  0.3719  0.5756
  364MOL0     N49022   4.914   5.240   7.377 -0.0318 -0.5149 -0.7911
  364MOL0     C49023   4.853   5.364   7.380  0.3835  0.2374 -0.1949
  364MOL0     C49024   4.730   5.337   7.333  0.3811  0.1498 -1.1050
  364MOL0     C49025   4.619   5.431   7.342 -0.1424 -0.2286 -0.3576
  364MOL0     C49026   4.655   5.573   7.304  0.0335  0.8966  0.1609
  364MOL0     C49027   4.708   5.605   7.166  0.1395 -0.1080 -0.1703
  364MOL0     C49028   4.619   5.580   7.050  0.0225  0.4862  0.9278
  364MOL0     O49029   4.508   5.668   7.066 -0.7882  0.7372  0.1253
  364MOL0     C49030   4.433   5.692   6.955 -0.4800  0.4824  0.3538
  364MOL0     C49031   4.329   5.786   6.975 -0.7101  0.2619 -0.1289
  364MOL0     C49032   4.230   5.821   6.886 -0.6845 -0.0507  0.9577
  364MOL0     C49033   4.131   5.932   6.911  0.9377 -0.0559 -0.2046
  364MOL0     C49034   4.237   5.763   6.755 -0.1667  0.1118  0.2115
  364MOL0     C49035   4.151   5.797   6.635  0.3993  0.0826 -0.0170
  364MOL0     O49036   4.172   5.729   6.518 -0.1153 -0.0854 -0.3987
  364MOL0     C49037   4.097   5.753   6.404 -0.0308  0.7703 -0.6419
  364MOL0     C49038   4.163   5.733   6.291  0.3416 -0.4695  0.2024
  364MOL0     C49039   4.099   5.755   6.177  0.0020 -0.0754  0.5497
  364MOL0     C49040   3.966   5.784   6.158 -0.3234 -0.3020  0.1725
  364MOL0     O49041   3.906   5.812   6.035 -0.2440  0.4218 -0.5692
  364MOL0     C49042   3.984   5.876   5.938 -0.2096 -0.1579  0.4042
  364MOL0     C49043   3.880   5.945   5.844  0.0144  0.7825 -0.0951
  364MOL0     C49044   3.829   6.076   5.913  0.1132 -0.4863  0.6977
  364MOL0     C49045   3.690   6.049   5.987  0.3179 -0.3783 -0.4064
  364MOL0     C49046   3.602   6.172   5.985  1.2437  1.1706  1.1763
  364MOL0     C49047   3.669   6.301   6.037 -0.0395 -0.3572 -0.3221
  364MOL0     C49048   3.572   6.411   6.067 -0.1770  0.3119 -1.4092
  364MOL0     C49049   3.639   6.516   6.159 -1.3729 -0.5256 -0.6770
  364MOL0    Cl49050   3.661   6.453   6.324  0.0444  0.4958 -0.2110
  364MOL0     C49051   3.890   5.804   6.275  0.3838  0.7738 -0.9890
  364MOL0     C49052   3.961   5.787   6.400 -0.4278  0.3253 -0.3996
  364MOL0     O49053   4.079   5.893   6.645  0.3764 -0.7069 -0.2572
  364MOL0     C49054   4.340   5.666   6.733 -0.0810  0.0168  0.8723
  364MOL0     C49055   4.436   5.627   6.830 -0.3882 -0.2817 -0.8489
  364MOL0     N49056   4.717   5.205   7.301 -0.4037 -0.5028  0.1596
  364MOL0     N49057   4.832   5.150   7.318 -0.1386 -0.3388 -0.1730
  364MOL0     C49058   6.071   5.486   7.660 -0.1025 -0.2273 -0.4857
  364MOL0     C49059   6.177   5.546   7.726  0.1124  0.6693  0.1333
  364MOL0     C49060   6.518   5.784   7.812  0.0412 -0.2822  0.7591
  364MOL0     C49061   6.538   5.769   7.954 -0.6062 -0.2295 -0.5045
  364MOL0     C49062   6.663   5.771   8.009  0.2850 -0.0748  0.1649
  364MOL0     C49063   6.780   5.786   7.937  0.6314  0.1930 -0.1705
  364MOL0     O49064   6.901   5.788   8.007 -0.4692 -0.2083  0.1984
  364MOL0     C49065   7.017   5.808   7.930 -0.5323 -0.4487  0.2850
  364MOL0     C49066   7.046   5.957   7.899  0.2867  0.5190 -1.3231
  364MOL0     C49067   7.194   5.982   7.854  0.5407 -0.1887  0.3449
  364MOL0     C49068   7.254   6.099   7.935 -0.0399  0.1311  0.2121
  364MOL0     C49069   7.205   6.234   7.896  0.0880 -0.2444 -0.4738
  364MOL0     C49070   7.173   6.352   7.883  0.4869 -0.4787 -0.2701
  364MOL0     C49071   6.758   5.799   7.796 -0.5325  1.0994  0.6785
  364MOL0     C49072   6.630   5.799   7.734 -0.4811 -0.6577  0.8027
  364MOL0     H49073   6.047   5.854   7.741 -1.4790 -1.1330 -0.4153
  364MOL0     H49074   5.886   5.765   7.604  0.1033  0.9790  1.0339
  364MOL0     H49075   5.703   5.626   7.567 -3.8827 -1.1111 -0.2403
  364MOL0     H49076   5.683   5.474   7.478  0.3610  2.3344 -1.6188
  364MOL0     H49077   5.742   5.349   7.685 -1.3612 -0.2113  1.9751
  364MOL0     H49078   5.758   5.492   7.771  2.1243 -3.2306  1.4881
  364MOL0     H49079   5.538   5.410   7.824 -0.0002  1.8014  0.8741
  364MOL0     H49080   5.496   5.530   7.698 -1.7643 -0.5511  1.5034
  364MOL0     H49081   5.514   5.350   7.526  2.8634 -1.1292  0.4926
  364MOL0     H49082   5.513   5.240   7.673  3.0106  0.4887 -1.8569
  364MOL0     H49083   5.294   5.287   7.732  0.2310 -3.6870 -1.9840
  364MOL0     H49084   5.289   5.448   7.650  0.7505 -0.1969 -0.0536
  364MOL0     H49085   5.294   5.351   7.440  0.0280  0.8282  0.4001
  364MOL0     H49086   5.298   5.183   7.497  2.3579  1.8884 -1.2886
  364MOL0     H49087   5.075   5.203   7.605 -1.1479  0.6086 -0.0937
  364MOL0     H49088   5.070   5.361   7.556  0.9708 -0.9774  2.4283
  364MOL0     H49089   5.069   5.104   7.405  0.3530  0.3476  0.5047
  364MOL0     H49090   5.123   5.250   7.320  3.0891 -1.7279  1.4686
  364MOL0     H49091   4.872   5.461   7.425 -1.1592  1.0610 -1.2297
  364MOL0     H49092   4.537   5.404   7.275  1.3260 -1.0938 -1.8704
  364MOL0     H49093   4.579   5.438   7.444  1.5571  1.9532  0.2362
  364MOL0     H49094   4.733   5.599   7.376 -1.6192  0.9780  2.0036
  364MOL0     H49095   4.571   5.638   7.327  0.9457  2.4165 -0.6761
  364MOL0     H49096   4.808   5.562   7.158  2.6443  4.6711  1.5514
  364MOL0     H49097   4.742   5.708   7.151 -1.4700  0.6640  1.2102
  364MOL0     H49098   4.587   5.476   7.053 -0.8274  0.6679 -0.5763
  364MOL0     H49099   4.679   5.581   6.958 -2.9839 -2.7506 -1.3573
  364MOL0     H49100   4.323   5.829   7.075  0.9811  2.5979 -0.9455
  364MOL0     H49101   4.164   6.018   6.851  1.4904 -0.1214  0.0017
  364MOL0     H49102   4.027   5.914   6.882  1.0246  0.9731 -1.2556
  364MOL0     H49103   4.125   5.963   7.015 -0.5103 -1.5622  0.1965
  364MOL0     H49104   4.268   5.708   6.292  0.4057 -0.5232 -2.0760
  364MOL0     H49105   4.157   5.736   6.087 -0.0946 -0.8403  0.6467
  364MOL0     H49106   4.051   5.957   5.966 -1.1873  0.9862 -0.4841
  364MOL0     H49107   4.055   5.807   5.892  2.5723  1.5234  1.9140
  364MOL0     H49108   3.927   5.967   5.748  0.5891 -2.5154 -0.6823
  364MOL0     H49109   3.805   5.866   5.831  1.1206  0.1021 -2.9716
  364MOL0     H49110   3.806   6.147   5.832 -0.0262 -2.0594 -0.7134
  364MOL0     H49111   3.912   6.108   5.975 -0.1032 -0.6984  1.0992
  364MOL0     H49112   3.635   5.966   5.942 -2.7802  0.9756  0.5829
  364MOL0     H49113   3.706   6.031   6.094  2.6963  0.1700 -0.6077
  364MOL0     H49114   3.519   6.136   6.047  1.9822  1.1229  2.1783
  364MOL0     H49115   3.565   6.187   5.883  1.8256 -0.1408  0.7533
  364MOL0     H49116   3.719   6.284   6.133 -1.4090 -0.2621  0.4442
  364MOL0     H49117   3.741   6.341   5.966  0.5944 -0.2256  0.3776
  364MOL0     H49118   3.481   6.373   6.114 -1.0651  2.9916 -0.8137
  364MOL0     H49119   3.535   6.452   5.973 -1.1066 -0.5283 -1.4283
  364MOL0     H49120   3.573   6.603   6.165 -0.6639 -0.0721  3.0562
  364MOL0     H49121   3.733   6.544   6.111 -1.7564  0.6313 -0.7833
  364MOL0     H49122   3.785   5.833   6.277  0.3389  1.2263  3.9455
  364MOL0     H49123   3.909   5.810   6.493  2.1917  0.9819  0.9960
  364MOL0     H49124   4.344   5.609   6.641  1.1230 -2.6482  2.4742
  364MOL0     H49125   4.519   5.562   6.802 -1.4973 -2.8080  1.2370
  364MOL0     H49126   6.081   5.381   7.634  2.6637  0.1341 -1.1956
  364MOL0     H49127   6.264   5.490   7.757 -2.1470 -2.1700  1.9163
  364MOL0     H49128   6.454   5.751   8.019 -0.8120  0.1177 -0.6708
  364MOL0     H49129   6.672   5.759   8.116 -2.3330  1.9667  0.7430
  364MOL0     H49130   7.107   5.768   7.978 -1.3167 -2.3309  0.2636
  364MOL0     H49131   7.010   5.760   7.832 -1.3049  2.3488 -1.1507
  364MOL0     H49132   7.031   6.009   7.994  1.7394  0.8031 -1.2286
  364MOL0     H49133   6.975   5.992   7.823 -0.3821 -1.2144 -1.5455
  364MOL0     H49134   7.200   6.009   7.748  2.5565 -2.9066 -0.3690
  364MOL0     H49135   7.246   5.888   7.873  0.3165 -0.1734  1.0397
  364MOL0     H49136   7.362   6.087   7.936 -0.0559  0.0044  0.3850
  364MOL0     H49137   7.218   6.081   8.037 -0.8291  0.2971 -0.0307
  364MOL0     H49138   7.160   6.458   7.873  0.4348 -0.1553  2.5535
  364MOL0     H49139   6.843   5.808   7.730 -0.3078  0.2065  0.8430
  364MOL0     H49140   6.632   5.823   7.628 -0.4523  1.8473  1.2964
  365MOL0     O49141   8.191   9.968   3.610 -0.3499  0.1418  0.2119
  365MOL0     C49142   8.237   9.929   3.503 -0.6537  1.2316 -0.5335
  365MOL0     O49143   8.176   9.846   3.408  0.5506 -0.0329 -0.0153
  365MOL0     C49144   8.045   9.812   3.429  1.3669 -0.1262  0.2540
  365MOL0     C49145   7.941   9.867   3.354  0.9760 -0.3207  0.5124
  365MOL0     C49146   7.808   9.828   3.379 -0.4855  0.6996  0.4056
  365MOL0     C49147   7.782   9.742   3.481  0.5541 -1.0189  0.7776
  365MOL0     O49148   7.648   9.728   3.499 -0.0235  0.8142 -0.2418
  365MOL0     C49149   7.608   9.606   3.564  0.4506 -0.1126 -1.0251
  365MOL0     C49150   7.456   9.600   3.544  0.4154  0.0188 -0.0615
  365MOL0     C49151   7.410   9.552   3.411 -0.0391 -0.0690 -0.3324
  365MOL0     C49152   7.260   9.587   3.384 -0.4005 -0.5456  0.0932
  365MOL0     C49153   7.172   9.512   3.480  0.0437 -0.3537  0.0279
  365MOL0     C49154   7.035   9.507   3.421  0.1088 -0.5166  0.0451
  365MOL0     C49155   6.924   9.486   3.525 -0.0521  0.6554  0.6222
  365MOL0     C49156   6.920   9.335   3.581 -0.8666 -0.3553 -0.6798
  365MOL0     N49157   6.810   9.308   3.672  0.7732  0.3474 -0.1370
  365MOL0     C49158   6.683   9.355   3.661 -0.1582  0.3388 -0.1872
  365MOL0     C49159   6.620   9.319   3.777 -0.4310 -0.0249  0.2517
  365MOL0     C49160   6.479   9.363   3.809 -0.0485  0.2833 -0.6776
  365MOL0     C49161   6.442   9.491   3.879 -0.3596 -0.3669 -0.0630
  365MOL0     C49162   6.529   9.517   4.003 -0.4369  0.2185 -0.2040
  365MOL0     C49163   6.457   9.610   4.095  0.2195 -0.0405  0.9307
  365MOL0     O49164   6.453   9.744   4.053  0.3040 -0.5342  0.0210
  365MOL0     C49165   6.337   9.776   3.980 -0.2039 -0.1694  0.5818
  365MOL0     C49166   6.360   9.833   3.861 -0.2916 -0.2895 -0.0454
  365MOL0     C49167   6.259   9.883   3.776 -0.7575  0.4030 -0.2320
  365MOL0     C49168   6.295   9.952   3.647  0.0037 -0.2872 -0.2097
  365MOL0     C49169   6.126   9.874   3.835  0.5364 -0.7052  0.5914
  365MOL0     C49170   6.004   9.921   3.770 -0.1239  0.0990  0.2595
  365MOL0     O49171   6.033  10.010   3.672  0.2253  0.4526 -0.0534
  365MOL0     C49172   5.929  10.071   3.594  0.6551 -0.4110 -1.1107
  365MOL0     C49173   5.848   9.986   3.519 -0.8520 -0.9357  0.1157
  365MOL0     C49174   5.735  10.039   3.453 -0.1536 -0.1949 -0.5773
  365MOL0     C49175   5.716  10.173   3.458  0.4717 -0.0745 -0.5704
  365MOL0     O49176   5.620  10.222   3.370 -0.0488 -0.1002  0.3918
  365MOL0     C49177   5.593  10.366   3.385 -0.0403  0.3430  0.0875
  365MOL0     C49178   5.446  10.370   3.339  0.2795 -0.6133 -0.9289
  365MOL0     C49179   5.394  10.514   3.346  0.8009 -0.4722 -0.7985
  365MOL0     C49180   5.249  10.539   3.285 -0.3351  0.0825  0.5353
  365MOL0     C49181   5.241  10.563   3.135 -0.4054 -0.1335 -0.6812
  365MOL0     C49182   5.095  10.565   3.095  0.6518  0.2069 -0.1265
  365MOL0     C49183   5.069  10.609   2.949 -0.1464 -0.1653  0.1536
  365MOL0     C49184   4.944  10.536   2.895 -0.3103  0.0058 -0.6617
  365MOL0    Cl49185   4.794  10.622   2.960 -0.0931  0.6428  0.0462
  365MOL0     C49186   5.810  10.260   3.528  0.3217 -0.1972 -1.0426
  365MOL0     C49187   5.914  10.206   3.600  0.5344 -0.4117  0.1225
  365MOL0     O49188   5.890   9.883   3.804 -0.2235  0.3205 -0.1470
  365MOL0     C49189   6.106   9.817   3.957  0.0003 -0.5213 -0.9584
  365MOL0     C49190   6.216   9.764   4.026  1.1555 -1.1139  0.3199
  365MOL0     N49191   6.710   9.240   3.859 -0.2907  0.5988 -1.2558
  365MOL0     N49192   6.820   9.246   3.793 -0.4490  0.2465  0.6912
  365MOL0     C49193   7.889   9.686   3.556  0.3979 -0.7778  0.5335
  365MOL0     C49194   8.021   9.722   3.534  0.6969  0.1523 -1.1500
  365MOL0     C49195   8.356   9.995   3.454  0.0606  0.0601 -0.6404
  365MOL0     C49196   8.463  10.014   3.546 -0.0633 -0.2083 -0.2797
  365MOL0     C49197   8.583  10.075   3.511 -0.1112 -0.6826 -0.6992
  365MOL0     C49198   8.590  10.121   3.376  0.3366  0.0291  0.5935
  365MOL0     O49199   8.699  10.192   3.330  0.0164 -0.4351 -0.1099
  365MOL0     C49200   8.825  10.143   3.365 -0.4553 -0.2926 -0.2310
  365MOL0     C49201   8.944  10.212   3.297 -1.4107 -0.3503  0.2338
  365MOL0     C49202   8.947  10.199   3.135  0.0236 -0.2691 -0.3902
  365MOL0     C49203   9.066  10.273   3.066 -0.4899 -0.3962 -0.2127
  365MOL0     C49204   9.195  10.204   3.099  0.4783 -0.7308  0.1429
  365MOL0     C49205   9.301  10.155   3.136 -0.3811 -0.3156 -0.7635
  365MOL0     C49206   8.486  10.101   3.281 -0.0016  0.4010 -0.2062
  365MOL0     C49207   8.375  10.024   3.321 -0.3375  0.8088 -0.7427
  365MOL0     H49208   7.957   9.933   3.269 -2.5657  2.0720  1.4391
  365MOL0     H49209   7.732   9.863   3.310  0.4149 -2.6612 -2.5627
  365MOL0     H49210   7.652   9.516   3.520  2.5695  0.2166  0.3001
  365MOL0     H49211   7.634   9.615   3.670 -1.4519 -0.4128 -0.5025
  365MOL0     H49212   7.424   9.531   3.623  0.5575  2.2114  2.0225
  365MOL0     H49213   7.423   9.702   3.566  1.4671  0.0836  1.3686
  365MOL0     H49214   7.470   9.602   3.335 -0.0038  4.3649  2.2989
  365MOL0     H49215   7.424   9.444   3.402 -2.5791 -0.6655  1.6693
  365MOL0     H49216   7.239   9.693   3.397 -0.6982 -0.8103  2.1698
  365MOL0     H49217   7.230   9.567   3.281  2.3665  0.2141 -0.9618
  365MOL0     H49218   7.205   9.409   3.495 -1.2913 -0.7153  0.6040
  365MOL0     H49219   7.172   9.571   3.572  0.5047 -1.4531  0.7568
  365MOL0     H49220   7.009   9.593   3.359 -2.5681  1.0606  3.0523
  365MOL0     H49221   7.047   9.424   3.351  4.0201  1.7746 -2.3511
  365MOL0     H49222   6.932   9.558   3.607 -1.2064 -1.4693  2.7437
  365MOL0     H49223   6.825   9.506   3.485  0.1687  2.2119  0.7803
  365MOL0     H49224   7.008   9.310   3.642 -1.3955 -2.8330 -0.8252
  365MOL0     H49225   6.914   9.258   3.504  0.3659  2.1060 -3.4626
  365MOL0     H49226   6.631   9.403   3.578 -1.7769 -0.1504  0.5110
  365MOL0     H49227   6.407   9.345   3.729  1.2117 -1.4594 -1.4867
  365MOL0     H49228   6.458   9.284   3.881 -1.3218  1.2660  0.0720
  365MOL0     H49229   6.336   9.487   3.905 -0.5174  1.7919 -0.2076
  365MOL0     H49230   6.449   9.576   3.811 -1.1792  1.2608  1.7751
  365MOL0     H49231   6.618   9.558   3.957  0.0969  0.4483  0.9893
  365MOL0     H49232   6.555   9.429   4.063  2.0191  1.5582  0.8465
  365MOL0     H49233   6.510   9.605   4.190 -0.3784 -0.4822  1.2473
  365MOL0     H49234   6.359   9.576   4.128  0.2113  2.2225  3.4983
  365MOL0     H49235   6.466   9.853   3.851 -0.7780  2.5302 -0.3679
  365MOL0     H49236   6.246   9.894   3.567 -0.8474 -0.1306  0.1892
  365MOL0     H49237   6.263  10.056   3.644  0.5071 -0.0160  2.0974
  365MOL0     H49238   6.403   9.949   3.629 -0.1510 -1.9471 -1.1195
  365MOL0     H49239   5.874   9.882   3.508  4.1039  0.1627 -1.0573
  365MOL0     H49240   5.662   9.981   3.398  1.6680 -0.3309 -2.9925
  365MOL0     H49241   5.596  10.395   3.491  1.1811  0.2715  0.0882
  365MOL0     H49242   5.671  10.421   3.332 -0.1910  0.4314 -0.0424
  365MOL0     H49243   5.433  10.337   3.236  1.8063  0.4836 -1.5183
  365MOL0     H49244   5.387  10.303   3.401  2.9681 -0.0762  2.5353
  365MOL0     H49245   5.467  10.579   3.297 -0.7226  1.7796 -0.2341
  365MOL0     H49246   5.387  10.536   3.453 -1.3010 -2.3040 -0.4714
  365MOL0     H49247   5.187  10.452   3.307  0.0751  0.5263  4.0379
  365MOL0     H49248   5.194  10.617   3.338 -2.2248 -2.2304  2.1329
  365MOL0     H49249   5.288  10.473   3.094  1.1368 -0.3635  1.4077
  365MOL0     H49250   5.286  10.657   3.102  1.6912 -1.8746 -3.1886
  365MOL0     H49251   5.047  10.467   3.109  0.5766  0.0533 -1.3591
  365MOL0     H49252   5.030  10.619   3.165 -3.5731 -2.9188 -1.2330
  365MOL0     H49253   5.155  10.588   2.885 -2.9849 -2.1585 -3.3460
  365MOL0     H49254   5.049  10.716   2.952  0.4438 -0.0584  0.4096
  365MOL0     H49255   4.942  10.429   2.919 -0.1593 -0.1104 -1.1464
  365MOL0     H49256   4.949  10.552   2.787 -0.6153  1.3347 -0.4916
  365MOL0     H49257   5.809  10.367   3.511 -2.5961  0.1784  0.7870
  365MOL0     H49258   5.981  10.260   3.666 -2.2682  1.8526  1.3011
  365MOL0     H49259   6.012   9.803   4.009 -0.0666  0.2231 -0.8672
  365MOL0     H49260   6.195   9.717   4.121 -0.2645 -2.6507 -0.7049
  365MOL0     H49261   7.860   9.631   3.645 -3.9311  0.5513  0.1983
  365MOL0     H49262   8.094   9.680   3.602 -2.5898 -0.6533  2.2323
  365MOL0     H49263   8.456   9.980   3.649 -1.0419  0.6946 -0.0341
  365MOL0     H49264   8.670  10.106   3.568  0.5778 -0.2202 -1.9538
  365MOL0     H49265   8.842  10.157   3.472  3.7817 -3.8564 -0.1333
  365MOL0     H49266   8.830  10.038   3.334 -1.0566  0.0197 -1.4427
  365MOL0     H49267   9.038  10.170   3.335 -0.1747  2.2874  0.2903
  365MOL0     H49268   8.944  10.314   3.335  1.0636 -0.6928  1.3800
  365MOL0     H49269   8.860  10.250   3.092 -1.0265  0.3485  2.2578
  365MOL0     H49270   8.955  10.094   3.105  1.0719  0.0731 -1.3719
  365MOL0     H49271   9.076  10.379   3.093 -1.1905  0.5416 -3.2457
  365MOL0     H49272   9.039  10.275   2.961 -3.7907 -4.4456  0.3137
  365MOL0     H49273   9.395  10.119   3.173 -1.3240  0.7612  3.0888
  365MOL0     H49274   8.495  10.129   3.177 -0.1101  1.4466  0.0626
  365MOL0     H49275   8.294  10.017   3.249 -2.6191  1.7458  1.5946
  366MOL0     O49276   7.799   2.119   0.120  0.3694  0.4467 -0.1972
  366MOL0     C49277   7.812   2.243   0.116 -0.0207 -0.3777 -0.5430
  366MOL0     O49278   7.725   2.335   0.071 -0.6218  0.3570  0.2865
  366MOL0     C49279   7.597   2.293   0.027  0.1271 -0.1123 -0.3344
  366MOL0     C49280   7.487   2.337   0.104 -0.2984  0.4927  0.9928
  366MOL0     C49281   7.354   2.327   0.060  0.4937 -0.3339  0.0454
  366MOL0     C49282   7.336   2.256  -0.058  0.1252 -0.4705  0.4608
  366MOL0     O49283   7.215   2.254  -0.112  0.9203  0.3460  0.0024
  366MOL0     C49284   7.213   2.339  -0.228 -0.3880 -0.3412 -0.7290
  366MOL0     C49285   7.180   2.246  -0.353  0.4305  0.6136 -0.1209
  366MOL0     C49286   7.045   2.166  -0.349  0.6634  0.1593  0.2040
  366MOL0     C49287   6.922   2.257  -0.330 -0.5598 -0.6684  0.4676
  366MOL0     C49288   6.796   2.166  -0.323  0.6510  0.4337  0.3460
  366MOL0     C49289   6.674   2.252  -0.290 -0.1270 -0.8529  0.5760
  366MOL0     C49290   6.539   2.185  -0.326  0.4504  0.0918  0.0030
  366MOL0     C49291   6.415   2.228  -0.234 -0.1204  0.8253  0.0030
  366MOL0     N49292   6.292   2.143  -0.263 -0.1069 -0.1027  0.3561
  366MOL0     C49293   6.230   2.140  -0.386  0.3012  0.6181 -0.1823
  366MOL0     C49294   6.096   2.113  -0.358  0.6833 -0.7150 -0.5051
  366MOL0     C49295   5.988   2.120  -0.469  0.0092 -0.3717  0.1611
  366MOL0     C49296   5.856   2.044  -0.434 -0.8972  0.3221 -1.1041
  366MOL0     C49297   5.881   1.899  -0.405 -0.2004 -0.1614  0.3073
  366MOL0     C49298   5.744   1.831  -0.389 -0.0338 -0.7672 -0.0658
  366MOL0     O49299   5.669   1.836  -0.505  0.4965 -0.1426  0.4264
  366MOL0     C49300   5.536   1.800  -0.487 -0.6239 -0.1203  0.9593
  366MOL0     C49301   5.477   1.741  -0.377  0.1614 -0.8559 -0.1065
  366MOL0     C49302   5.329   1.720  -0.368 -0.1001  0.3627 -0.8307
  366MOL0     C49303   5.271   1.654  -0.237  0.5104  0.0326  0.1074
  366MOL0     C49304   5.254   1.757  -0.482 -0.1578  0.3741 -0.1999
  366MOL0     C49305   5.118   1.737  -0.504  0.3234 -0.2754 -0.8357
  366MOL0     O49306   5.051   1.825  -0.592 -0.0678  0.6823  0.7034
  366MOL0     C49307   4.922   1.811  -0.602  0.3866 -0.3473 -0.1873
  366MOL0     C49308   4.849   1.930  -0.572 -0.7673  0.6789  0.9316
  366MOL0     C49309   4.708   1.927  -0.587  0.1120  0.1021  0.4683
  366MOL0     C49310   4.639   1.818  -0.641 -0.5737 -0.5531  0.0096
  366MOL0     O49311   4.509   1.815  -0.668 -0.7003  0.6261  0.1012
  366MOL0     C49312   4.445   1.934  -0.617  0.3310 -0.5253 -0.3062
  366MOL0     C49313   4.293   1.918  -0.643 -0.4622 -0.4122 -1.5438
  366MOL0     C49314   4.229   2.045  -0.600  0.0884  0.1234 -0.5163
  366MOL0     C49315   4.083   2.051  -0.625 -0.1250 -0.2953  0.3458
  366MOL0     C49316   4.001   1.998  -0.511 -0.0516  0.6270  0.0093
  366MOL0     C49317   3.844   2.006  -0.534  1.0520  0.3903  0.1406
  366MOL0     C49318   3.784   1.959  -0.405  0.0344  0.3421 -0.9683
  366MOL0     C49319   3.636   1.988  -0.404 -0.4867 -0.0801  0.1526
  366MOL0    Cl49320   3.546   1.860  -0.486  0.1164  0.6800 -0.2044
  366MOL0     C49321   4.721   1.714  -0.670  0.5041  0.0852  0.1270
  366MOL0     C49322   4.857   1.702  -0.651  0.0318  0.0268 -0.5655
  366MOL0     O49323   5.062   1.653  -0.429 -0.5741 -0.6728  0.2338
  366MOL0     C49324   5.321   1.809  -0.600 -0.2715  1.7477  0.4681
  366MOL0     C49325   5.455   1.824  -0.592  0.0360  0.0571  1.2661
  366MOL0     N49326   6.079   2.105  -0.219 -0.2120  0.1713 -0.1275
  366MOL0     N49327   6.194   2.121  -0.170 -0.5211  0.0708 -0.2336
  366MOL0     C49328   7.435   2.200  -0.123 -0.6820  0.3171  0.1020
  366MOL0     C49329   7.570   2.214  -0.084  0.7123  0.2904  0.1184
  366MOL0     C49330   7.951   2.294   0.146  0.4670  0.8613  0.4027
  366MOL0     C49331   7.996   2.417   0.108 -0.5924 -0.3873  0.3450
  366MOL0     C49332   8.123   2.453   0.149  0.3633  0.0462  0.3886
  366MOL0     C49333   8.220   2.374   0.214  0.8498  0.5222 -0.5402
  366MOL0     O49334   8.341   2.438   0.254  0.1814 -0.6465 -0.2887
  366MOL0     C49335   8.439   2.365   0.316 -0.4193  0.4824  0.0729
  366MOL0     C49336   8.550   2.450   0.379 -0.3839  0.3845 -0.5327
  366MOL0     C49337   8.635   2.509   0.270 -0.3285  0.6260  0.6116
  366MOL0     C49338   8.725   2.402   0.201  0.2647  0.0209 -0.2691
  366MOL0     C49339   8.811   2.463   0.097  0.5075 -0.4639 -1.0298
  366MOL0     C49340   8.890   2.503   0.015  0.4061 -0.7653 -0.0612
  366MOL0     C49341   8.175   2.243   0.239 -0.1274 -0.4406 -0.5602
  366MOL0     C49342   8.041   2.200   0.216  0.1717 -0.8144  0.0255
  366MOL0     H49343   7.507   2.401   0.190 -0.0919  3.3413 -1.0163
  366MOL0     H49344   7.268   2.370   0.110  0.2172 -1.8271  0.9462
  366MOL0     H49345   7.131   2.410  -0.214  1.6659  1.8588  0.9028
  366MOL0     H49346   7.297   2.408  -0.235 -0.2410  0.0205  2.7640
  366MOL0     H49347   7.182   2.315  -0.438  2.1988  0.8168  0.0488
  366MOL0     H49348   7.254   2.168  -0.376 -1.2564 -0.8301 -0.8695
  366MOL0     H49349   7.045   2.104  -0.439  0.5892 -1.7018  1.4351
  366MOL0     H49350   7.039   2.096  -0.265  0.0950  2.4014  2.1505
  366MOL0     H49351   6.932   2.321  -0.243  0.2445 -0.8388  0.5063
  366MOL0     H49352   6.902   2.318  -0.419  1.7412  0.3277  0.5803
  366MOL0     H49353   6.772   2.111  -0.414 -2.6001  0.1805  1.2366
  366MOL0     H49354   6.805   2.093  -0.242  1.9257 -1.0096 -1.0208
  366MOL0     H49355   6.676   2.264  -0.181 -2.3949  0.5240  0.5445
  366MOL0     H49356   6.677   2.352  -0.334 -2.3407 -1.2557 -0.6755
  366MOL0     H49357   6.529   2.203  -0.433  0.9536 -0.1792 -0.0923
  366MOL0     H49358   6.540   2.077  -0.308 -0.5954  0.0543 -0.1310
  366MOL0     H49359   6.389   2.333  -0.253 -1.2311  0.8461  1.4546
  366MOL0     H49360   6.444   2.222  -0.129 -1.0358 -0.3849  0.2071
  366MOL0     H49361   6.268   2.169  -0.483 -1.8192 -0.7104 -1.4971
  366MOL0     H49362   5.969   2.228  -0.477  1.7995 -0.1043 -1.4340
  366MOL0     H49363   6.018   2.089  -0.570  0.0539 -0.1461  0.1045
  366MOL0     H49364   5.790   2.050  -0.522  0.3832 -1.6768 -2.2744
  366MOL0     H49365   5.809   2.085  -0.344 -0.5511 -2.5594  0.5125
  366MOL0     H49366   5.919   1.897  -0.303  0.2361  1.9021  0.2130
  366MOL0     H49367   5.951   1.862  -0.481  0.8644 -0.1584  1.2660
  366MOL0     H49368   5.710   1.896  -0.308  1.5295  0.3950 -0.2980
  366MOL0     H49369   5.764   1.730  -0.351 -1.0659 -0.5005  1.2463
  366MOL0     H49370   5.541   1.709  -0.295 -1.5394 -0.2007  1.5344
  366MOL0     H49371   5.174   1.689  -0.200  1.1235  0.8311  1.0199
  366MOL0     H49372   5.256   1.547  -0.255  2.1521  0.3768 -4.8577
  366MOL0     H49373   5.346   1.682  -0.163  2.0157  1.3343 -1.8375
  366MOL0     H49374   4.905   2.014  -0.533 -0.3217  0.4842  0.7199
  366MOL0     H49375   4.658   2.021  -0.567 -1.3960 -0.5977  0.1085
  366MOL0     H49376   4.448   1.936  -0.508 -1.1057  0.0722 -0.2562
  366MOL0     H49377   4.479   2.027  -0.664 -0.1051 -0.9145 -1.4203
  366MOL0     H49378   4.288   1.909  -0.752  0.4375  1.8937 -1.8383
  366MOL0     H49379   4.266   1.827  -0.589  2.6306 -1.9410 -2.3726
  366MOL0     H49380   4.289   2.120  -0.653  3.9126 -0.0985  3.0512
  366MOL0     H49381   4.250   2.076  -0.497  1.1929 -1.0603 -0.3767
  366MOL0     H49382   4.061   2.155  -0.652 -3.7730 -1.0479 -0.0350
  366MOL0     H49383   4.054   1.996  -0.715  2.1144  1.1032 -1.3348
  366MOL0     H49384   4.028   2.060  -0.426  4.7534 -0.3456 -0.5499
  366MOL0     H49385   4.021   1.891  -0.502 -3.1961  0.0344  1.4240
  366MOL0     H49386   3.802   2.102  -0.566 -0.4648  0.8512  3.2010
  366MOL0     H49387   3.820   1.931  -0.610 -1.6761  0.1570  1.1224
  366MOL0     H49388   3.827   2.004  -0.316 -1.5816 -0.6408  0.3690
  366MOL0     H49389   3.792   1.851  -0.392 -2.2530  0.3813  2.0335
  366MOL0     H49390   3.624   2.090  -0.440  2.4525 -0.0900 -1.2118
  366MOL0     H49391   3.592   1.981  -0.305 -0.3949 -2.3326  0.0845
  366MOL0     H49392   4.667   1.627  -0.707 -1.2824  1.1071  0.2138
  366MOL0     H49393   4.912   1.611  -0.672 -0.5737 -0.3279 -0.6285
  366MOL0     H49394   5.275   1.820  -0.697 -1.6875  0.9124  1.0086
  366MOL0     H49395   5.499   1.868  -0.681  0.4151 -1.5157  0.6394
  366MOL0     H49396   7.415   2.156  -0.220 -2.2583  0.3686  0.3690
  366MOL0     H49397   7.647   2.173  -0.149  1.5837 -0.3745  1.5139
  366MOL0     H49398   7.936   2.484   0.047  4.4965  3.0430 -1.5595
  366MOL0     H49399   8.130   2.557   0.119 -0.3083 -0.1169 -0.3660
  366MOL0     H49400   8.394   2.301   0.392  0.0464  0.2412  0.1477
  366MOL0     H49401   8.483   2.298   0.242  2.4179  1.8640  0.3865
  366MOL0     H49402   8.614   2.391   0.445  0.0424 -0.5554 -1.7593
  366MOL0     H49403   8.508   2.532   0.438  1.8172  0.5379  0.9540
  366MOL0     H49404   8.704   2.589   0.301  1.6638 -2.2099  4.3663
  366MOL0     H49405   8.567   2.548   0.194 -0.1776 -2.6216 -1.3423
  366MOL0     H49406   8.657   2.333   0.150 -1.4807  0.6991  1.0270
  366MOL0     H49407   8.779   2.342   0.274  0.0680 -1.2665 -1.1335
  366MOL0     H49408   8.971   2.532  -0.049  0.2973 -2.2824 -0.9168
  366MOL0     H49409   8.250   2.172   0.273 -1.8231 -2.8089 -1.4443
  366MOL0     H49410   8.018   2.098   0.246 -0.9714 -1.0290 -1.4771
  367MOL0     O49411   2.002   8.391  10.330 -0.2344  0.0710  0.2724
  367MOL0     C49412   2.061   8.488  10.378 -0.2861 -0.3514  0.1556
  367MOL0     O49413   2.003   8.586  10.450 -0.2160 -0.7702 -0.2128
  367MOL0     C49414   1.865   8.583  10.457  0.3553 -0.2459 -0.3862
  367MOL0     C49415   1.794   8.496  10.536  1.1931  0.4124  0.1572
  367MOL0     C49416   1.649   8.498  10.548  0.6275  0.4765  0.3451
  367MOL0     C49417   1.581   8.589  10.461  0.6435 -0.0959 -0.5159
  367MOL0     O49418   1.445   8.591  10.469  0.1277  0.0470  1.2470
  367MOL0     C49419   1.365   8.638  10.360 -0.5591  0.2802  0.9952
  367MOL0     C49420   1.362   8.543  10.239 -0.0116  0.2760  0.3347
  367MOL0     C49421   1.260   8.605  10.142  0.3765  1.4812  1.3203
  367MOL0     C49422   1.114   8.562  10.152 -0.3402  0.6283 -0.1182
  367MOL0     C49423   1.016   8.652  10.085 -0.3698 -0.5033 -0.1656
  367MOL0     C49424   0.883   8.573  10.091 -0.9275 -0.0746  0.3403
  367MOL0     C49425   0.774   8.660  10.033  0.1760 -0.1323 -0.5749
  367MOL0     C49426   0.644   8.574  10.023  0.3717 -0.3620  0.5568
  367MOL0     N49427   0.520   8.646  10.007 -0.3028  0.3993 -0.1078
  367MOL0     C49428   0.505   8.729   9.907  0.2429 -0.4728 -0.0074
  367MOL0     C49429   0.428   8.832   9.952 -0.2551  0.1280  0.9955
  367MOL0     C49430   0.389   8.944   9.870  0.9157 -1.1217 -0.8310
  367MOL0     C49431   0.469   9.075   9.898 -0.0617 -0.6809 -0.2990
  367MOL0     C49432   0.444   9.193   9.796 -0.4565 -1.2418 -1.0419
  367MOL0     C49433   0.308   9.268   9.820  0.4392  0.6442  0.4817
  367MOL0     O49434   0.279   9.354   9.710 -0.5763  0.8809  0.5730
  367MOL0     C49435   0.184   9.449   9.727 -0.0983 -0.3606 -0.4903
  367MOL0     C49436   0.172   9.537   9.624 -0.6336  0.4398 -0.1533
  367MOL0     C49437   0.060   9.628   9.606 -0.3291  0.3650 -1.1201
  367MOL0     C49438   0.055   9.715   9.480 -0.7377  0.0612  0.3959
  367MOL0     C49439  -0.040   9.628   9.702 -0.0207  0.2317  0.3135
  367MOL0     C49440  -0.158   9.718   9.702  0.2017  0.0256  0.5990
  367MOL0     O49441  -0.233   9.712   9.821 -0.1472 -0.1634 -0.7208
  367MOL0     C49442  -0.353   9.774   9.810 -1.0903  0.3436 -0.3524
  367MOL0     C49443  -0.373   9.913   9.848 -0.0906  0.5005  0.1761
  367MOL0     C49444  -0.501   9.967   9.848 -0.7644 -0.0483 -0.0719
  367MOL0     C49445  -0.612   9.896   9.821  0.0697 -0.4206 -0.2630
  367MOL0     O49446  -0.736   9.957   9.827 -0.1203 -0.0542  0.7603
  367MOL0     C49447  -0.854   9.876   9.813 -0.1396 -0.8464 -0.4361
  367MOL0     C49448  -0.985   9.937   9.865  0.0754  0.6522 -0.3376
  367MOL0     C49449  -1.095   9.833   9.853 -0.4394 -0.5334  0.2350
  367MOL0     C49450  -1.142   9.825   9.705  0.5949 -0.1683  0.4625
  367MOL0     C49451  -1.278   9.759   9.683 -0.1174  0.0060  0.2330
  367MOL0     C49452  -1.387   9.816   9.770 -0.0714 -1.2730 -1.2788
  367MOL0     C49453  -1.515   9.762   9.721  0.8370 -0.2937  0.6692
  367MOL0     C49454  -1.644   9.803   9.794  0.3140 -0.6119  0.6474
  367MOL0    Cl49455  -1.673   9.968   9.734 -0.2855  0.0952  0.7642
  367MOL0     C49456  -0.589   9.764   9.781 -0.1242 -0.2805  0.7554
  367MOL0     C49457  -0.466   9.698   9.779 -0.6324  0.0446 -0.1739
  367MOL0     O49458  -0.177   9.793   9.609 -0.0721 -0.6270  0.5458
  367MOL0     C49459  -0.035   9.539   9.813  0.4700  0.2635  1.0602
  367MOL0     C49460   0.079   9.459   9.821 -0.3010  0.4311  0.4123
  367MOL0     N49461   0.395   8.806  10.083  0.3650  0.4357  0.9018
  367MOL0     N49462   0.454   8.700  10.112  0.1343  0.7164 -0.3398
  367MOL0     C49463   1.656   8.680  10.384 -0.3208  0.7436  0.0115
  367MOL0     C49464   1.795   8.673  10.382 -0.2040  0.3827  0.7247
  367MOL0     C49465   2.213   8.506  10.358 -0.0523 -0.2559 -0.0286
  367MOL0     C49466   2.288   8.401  10.312 -0.2258 -0.2912  0.2058
  367MOL0     C49467   2.421   8.413  10.291  0.7745 -0.7118 -0.1418
  367MOL0     C49468   2.488   8.531  10.332  0.0064 -0.4564 -0.2809
  367MOL0     O49469   2.622   8.552  10.321 -0.2770 -0.3065 -0.1861
  367MOL0     C49470   2.700   8.488  10.227 -0.4223  0.7174  0.6244
  367MOL0     C49471   2.850   8.522  10.237 -0.8154 -0.3096  0.6639
  367MOL0     C49472   2.862   8.678  10.243 -0.6519 -0.3706 -0.1594
  367MOL0     C49473   3.013   8.706  10.243 -0.6248 -0.2678 -0.6509
  367MOL0     C49474   3.029   8.846  10.195 -0.5242  0.3477 -1.0743
  367MOL0     C49475   3.037   8.963  10.190  0.1954 -0.0985 -0.4735
  367MOL0     C49476   2.417   8.647  10.373  0.2599 -0.5232 -0.2728
  367MOL0     C49477   2.276   8.629  10.381  0.3362 -0.3078  0.3907
  367MOL0     H49478   1.854   8.424  10.592 -0.5762 -0.9299  0.4574
  367MOL0     H49479   1.595   8.425  10.607 -3.0873 -0.5683 -3.7572
  367MOL0     H49480   1.268   8.658  10.407 -0.4311  1.4610  0.7850
  367MOL0     H49481   1.407   8.735  10.334  5.4185 -1.5802  2.1976
  367MOL0     H49482   1.461   8.530  10.194 -0.3828  0.0047 -0.4161
  367MOL0     H49483   1.323   8.444  10.265 -1.2671  0.5475 -0.4104
  367MOL0     H49484   1.259   8.715  10.137 -4.2885  1.5583 -0.6553
  367MOL0     H49485   1.302   8.570  10.048 -1.4615 -1.6354  1.5232
  367MOL0     H49486   1.111   8.459  10.115  2.0546 -0.6348  2.8260
  367MOL0     H49487   1.087   8.560  10.258 -0.9352  1.6331 -0.2324
  367MOL0     H49488   1.014   8.747  10.138  3.4431 -0.7889  0.8001
  367MOL0     H49489   1.044   8.665   9.980  1.1969  0.1614  0.3031
  367MOL0     H49490   0.888   8.478  10.038 -3.0689  0.2221 -0.5010
  367MOL0     H49491   0.853   8.541  10.191 -0.4382 -1.5262  0.0436
  367MOL0     H49492   0.765   8.748  10.097 -2.7463 -1.2512  0.7605
  367MOL0     H49493   0.798   8.708   9.937  0.0701  1.1233  0.0113
  367MOL0     H49494   0.637   8.518  10.117 -2.1578  0.9128  1.1955
  367MOL0     H49495   0.677   8.511   9.939  1.0990  0.5673  0.1322
  367MOL0     H49496   0.556   8.726   9.812  2.1656 -3.1181  0.9882
  367MOL0     H49497   0.391   8.917   9.764 -1.1591  1.0508 -1.5234
  367MOL0     H49498   0.286   8.962   9.902  1.1377  1.3643 -1.3327
  367MOL0     H49499   0.575   9.059   9.921 -0.6185 -2.9764  0.8597
  367MOL0     H49500   0.441   9.123   9.992  0.8893  1.8572 -1.2054
  367MOL0     H49501   0.439   9.147   9.697 -1.5051 -0.9840 -1.1202
  367MOL0     H49502   0.528   9.263   9.797 -1.1382 -0.2574 -3.8165
  367MOL0     H49503   0.317   9.326   9.911  1.7978  2.3159 -0.6593
  367MOL0     H49504   0.224   9.198   9.819  0.9490  0.0180 -0.3252
  367MOL0     H49505   0.239   9.529   9.539 -0.1339  1.0449  0.1754
  367MOL0     H49506   0.140   9.682   9.419 -0.6807 -0.5509  0.7975
  367MOL0     H49507  -0.042   9.696   9.433 -2.7978  0.2882  4.2040
  367MOL0     H49508   0.070   9.820   9.507  0.7324 -0.3218  1.1962
  367MOL0     H49509  -0.289   9.971   9.887 -1.4883  1.2794  2.1852
  367MOL0     H49510  -0.501  10.071   9.880  1.1732  0.7856 -2.4603
  367MOL0     H49511  -0.851   9.839   9.711 -0.9081 -3.3323  0.3634
  367MOL0     H49512  -0.837   9.783   9.868  2.3781  1.0841  2.4565
  367MOL0     H49513  -0.978   9.974   9.968  2.8025 -0.2518 -0.1274
  367MOL0     H49514  -1.000  10.029   9.808 -2.7715 -0.5773 -1.8028
  367MOL0     H49515  -1.178   9.871   9.913  1.6179  0.7160  2.4395
  367MOL0     H49516  -1.070   9.739   9.903 -3.8476 -2.3445 -1.1277
  367MOL0     H49517  -1.141   9.921   9.654 -3.9211  0.8523  1.8423
  367MOL0     H49518  -1.064   9.776   9.646 -1.3678  1.0548 -3.4326
  367MOL0     H49519  -1.260   9.651   9.687 -0.7563 -0.2807 -2.5561
  367MOL0     H49520  -1.306   9.777   9.578 -1.2540  2.1936  0.8359
  367MOL0     H49521  -1.367   9.773   9.869  1.8437 -2.4140 -2.1151
  367MOL0     H49522  -1.381   9.925   9.777 -2.7046 -1.0788 -1.2743
  367MOL0     H49523  -1.516   9.653   9.709 -3.1716 -0.1180 -2.8689
  367MOL0     H49524  -1.524   9.798   9.618 -2.0129  0.8411  1.2256
  367MOL0     H49525  -1.635   9.801   9.903 -1.6106 -1.3099  0.8438
  367MOL0     H49526  -1.726   9.739   9.758 -1.0571  2.5423 -2.5130
  367MOL0     H49527  -0.677   9.705   9.757  0.6984 -0.7820 -1.1951
  367MOL0     H49528  -0.459   9.596   9.743  0.6251 -0.2530  0.8204
  367MOL0     H49529  -0.114   9.536   9.887 -2.1806 -0.4145 -1.5967
  367MOL0     H49530   0.076   9.399   9.912  2.1339  0.4920  0.6006
  367MOL0     H49531   1.609   8.752  10.317  2.5751  2.1119 -0.7139
  367MOL0     H49532   1.856   8.737  10.318  0.8378 -1.9129 -0.7188
  367MOL0     H49533   2.254   8.301  10.289 -0.1102 -0.1723 -0.4781
  367MOL0     H49534   2.477   8.329  10.251  1.1871 -1.3146  1.6217
  367MOL0     H49535   2.693   8.380  10.242 -0.6278  0.5840 -0.3347
  367MOL0     H49536   2.658   8.500  10.126  0.5082 -1.6510 -0.1175
  367MOL0     H49537   2.907   8.474  10.157 -0.7168 -0.5417  0.8747
  367MOL0     H49538   2.876   8.476  10.333  0.0633 -1.0995  0.0636
  367MOL0     H49539   2.817   8.723  10.331 -0.7774 -0.6054 -0.1034
  367MOL0     H49540   2.813   8.723  10.156 -0.7240 -1.0210 -0.4612
  367MOL0     H49541   3.065   8.644  10.170 -0.1388 -0.0962 -0.4544
  367MOL0     H49542   3.059   8.699  10.342  0.2018 -0.6685 -1.0533
  367MOL0     H49543   3.056   9.068  10.178  2.2027 -0.3549  0.0244
  367MOL0     H49544   2.459   8.746  10.392  0.4107 -1.0085  2.2349
  367MOL0     H49545   2.214   8.711  10.416  0.6268  0.2291 -0.3361
  368MOL0     O49546   8.088   5.536   0.406 -0.8493  0.0264 -0.5538
  368MOL0     C49547   8.109   5.640   0.470 -0.9553 -0.9405  0.2938
  368MOL0     O49548   8.008   5.725   0.525 -0.4191  0.5155 -0.0213
  368MOL0     C49549   7.878   5.728   0.472 -0.8885 -0.2520 -0.4431
  368MOL0     C49550   7.787   5.616   0.460 -0.8005  0.2600 -0.2808
  368MOL0     C49551   7.668   5.632   0.397  0.6228 -0.1241 -0.7385
  368MOL0     C49552   7.616   5.758   0.355 -0.1979 -0.5295  0.6397
  368MOL0     O49553   7.504   5.782   0.273  0.6303  0.8258  0.1527
  368MOL0     C49554   7.400   5.676   0.271  0.2253 -0.0829  0.5881
  368MOL0     C49555   7.279   5.719   0.200 -0.0340  0.4090 -0.0953
  368MOL0     C49556   7.178   5.614   0.209  0.4986  0.0033  0.0231
  368MOL0     C49557   7.043   5.670   0.164  0.4341 -0.8195  0.5006
  368MOL0     C49558   6.933   5.566   0.168 -0.1283  0.1238 -0.1890
  368MOL0     C49559   6.789   5.609   0.142  1.1225 -0.1004 -0.0047
  368MOL0     C49560   6.740   5.739   0.196  0.4049 -0.8584  0.9547
  368MOL0     C49561   6.593   5.748   0.177 -0.8082  0.5420 -0.4641
  368MOL0     N49562   6.554   5.872   0.254  0.0180 -0.8343 -0.4230
  368MOL0     C49563   6.555   6.006   0.227 -1.2019  0.2765 -0.0337
  368MOL0     C49564   6.534   6.069   0.341 -0.9273 -0.9783  0.0670
  368MOL0     C49565   6.534   6.221   0.365 -0.0874  0.1644  0.3597
  368MOL0     C49566   6.397   6.259   0.427 -0.4685  0.4015  0.6275
  368MOL0     C49567   6.267   6.243   0.341  0.8271  0.8236 -0.2238
  368MOL0     C49568   6.148   6.216   0.435 -0.4280 -0.3547  0.7109
  368MOL0     O49569   6.126   6.348   0.504  0.3515 -0.0455 -0.4428
  368MOL0     C49570   6.052   6.450   0.445 -0.2461 -0.9189  0.4894
  368MOL0     C49571   6.098   6.577   0.461  0.0720  0.3432 -0.1588
  368MOL0     C49572   6.020   6.689   0.422 -0.5010 -0.0268 -0.5330
  368MOL0     C49573   6.096   6.819   0.458  1.6087  0.1578  0.1910
  368MOL0     C49574   5.889   6.671   0.365 -0.1667 -0.6947  0.0021
  368MOL0     C49575   5.792   6.774   0.329  0.5243  0.6019  1.1478
  368MOL0     O49576   5.674   6.720   0.286  0.1205 -0.5794  0.5687
  368MOL0     C49577   5.565   6.804   0.266 -0.4974 -0.6020 -0.7133
  368MOL0     C49578   5.553   6.873   0.146  0.3973  0.2577 -0.5871
  368MOL0     C49579   5.444   6.956   0.133 -0.2297  0.0839  0.6066
  368MOL0     C49580   5.353   6.977   0.240 -0.5553  0.1779  0.6542
  368MOL0     O49581   5.261   7.070   0.228 -0.8838 -0.4421 -0.4825
  368MOL0     C49582   5.124   7.049   0.272 -1.5649 -0.0232  0.0700
  368MOL0     C49583   5.031   7.151   0.207 -0.0163 -0.6589  0.4802
  368MOL0     C49584   4.888   7.094   0.220  0.6383  0.1975  0.0536
  368MOL0     C49585   4.791   7.174   0.133  0.4557 -0.3326  0.1917
  368MOL0     C49586   4.656   7.098   0.103  0.0683  0.0111  0.3650
  368MOL0     C49587   4.592   7.051   0.237  0.7523  0.0655  0.1389
  368MOL0     C49588   4.444   7.047   0.242  1.3115 -0.0909  0.5001
  368MOL0     C49589   4.389   7.029   0.380 -0.0239 -0.1277  0.1580
  368MOL0    Cl49590   4.410   7.174   0.484 -0.1971 -0.2131 -0.1887
  368MOL0     C49591   5.365   6.906   0.355  0.2166  0.1052 -0.1494
  368MOL0     C49592   5.477   6.825   0.372  0.3030 -0.0095 -0.9151
  368MOL0     O49593   5.825   6.894   0.329  0.7703  0.3660  0.1159
  368MOL0     C49594   5.855   6.533   0.346  0.2257  0.8778 -0.0424
  368MOL0     C49595   5.936   6.423   0.378  0.4796 -0.6590  0.2482
  368MOL0     N49596   6.496   5.979   0.438  0.7338 -1.5365  0.1400
  368MOL0     N49597   6.507   5.861   0.381  0.4242 -0.4444  0.1488
  368MOL0     C49598   7.693   5.864   0.374  0.5376  1.0896 -0.1189
  368MOL0     C49599   7.816   5.852   0.434 -0.8565 -0.8675  0.0837
  368MOL0     C49600   8.251   5.671   0.498 -0.7423  0.5060 -0.3873
  368MOL0     C49601   8.287   5.804   0.534 -0.3196  0.4393 -0.9408
  368MOL0     C49602   8.416   5.837   0.579 -0.1303  0.0935 -0.4812
  368MOL0     C49603   8.514   5.738   0.582 -0.6935 -0.6250 -0.1248
  368MOL0     O49604   8.640   5.791   0.613  0.6341  0.5694 -0.0082
  368MOL0     C49605   8.755   5.706   0.621  1.6605  0.1791 -0.0989
  368MOL0     C49606   8.741   5.612   0.746  0.5613 -0.2772  0.5675
  368MOL0     C49607   8.864   5.551   0.795  0.5531  0.0285 -0.2846
  368MOL0     C49608   8.929   5.449   0.694  0.2556 -0.7303  0.1948
  368MOL0     C49609   9.049   5.397   0.755 -0.0701 -0.6026 -0.5071
  368MOL0     C49610   9.144   5.345   0.806  0.2105  0.1287  0.1025
  368MOL0     C49611   8.483   5.610   0.537 -0.0737  0.6214  0.6407
  368MOL0     C49612   8.353   5.575   0.497 -0.4602 -0.0573  0.1355
  368MOL0     H49613   7.832   5.526   0.501 -2.6155 -0.4392  0.3044
  368MOL0     H49614   7.618   5.537   0.382  2.7033 -1.0645 -2.0674
  368MOL0     H49615   7.423   5.583   0.220 -0.9472 -1.1210  1.8717
  368MOL0     H49616   7.383   5.652   0.377  1.0085 -0.8366  0.5538
  368MOL0     H49617   7.240   5.813   0.239  0.2186 -0.0236  1.2423
  368MOL0     H49618   7.297   5.736   0.093 -1.3706 -0.0525 -0.4123
  368MOL0     H49619   7.204   5.523   0.156  0.6797  0.8190 -1.3214
  368MOL0     H49620   7.168   5.585   0.314 -1.1818  1.2860  0.2772
  368MOL0     H49621   7.012   5.749   0.233 -1.2549 -1.2573  0.2909
  368MOL0     H49622   7.053   5.723   0.069  5.5971  1.8740  2.1459
  368MOL0     H49623   6.971   5.483   0.107  0.6455  0.1825  0.1911
  368MOL0     H49624   6.917   5.536   0.272 -3.7840 -1.3192 -1.0175
  368MOL0     H49625   6.769   5.610   0.035 -0.8360 -5.0228  0.0492
  368MOL0     H49626   6.716   5.533   0.171 -0.1361  0.7654 -0.7895
  368MOL0     H49627   6.766   5.744   0.302  0.6929 -0.8153  0.8841
  368MOL0     H49628   6.784   5.824   0.142 -1.3958 -1.0776 -1.0239
  368MOL0     H49629   6.540   5.662   0.218 -0.2165  0.5020  0.2489
  368MOL0     H49630   6.569   5.754   0.071  1.8693 -0.3745 -1.2099
  368MOL0     H49631   6.588   6.052   0.134  2.5870 -1.0594  0.4747
  368MOL0     H49632   6.611   6.236   0.441 -0.3208 -3.1450  1.3953
  368MOL0     H49633   6.559   6.282   0.277  1.9992 -1.5234 -0.2892
  368MOL0     H49634   6.393   6.366   0.451 -2.1958  1.1043 -2.2836
  368MOL0     H49635   6.386   6.196   0.516  1.3066 -0.1020  0.5328
  368MOL0     H49636   6.287   6.157   0.276  2.4196  2.1559 -1.5642
  368MOL0     H49637   6.252   6.322   0.267 -2.6291  1.4616  0.9949
  368MOL0     H49638   6.179   6.143   0.510  0.9270 -1.4421 -0.8676
  368MOL0     H49639   6.068   6.171   0.376  0.1427 -0.0913 -0.2700
  368MOL0     H49640   6.192   6.599   0.510 -0.5328 -1.1747  1.7915
  368MOL0     H49641   6.118   6.816   0.565  1.8485 -0.6118  0.1281
  368MOL0     H49642   6.186   6.811   0.397  1.4184 -1.5428  0.0763
  368MOL0     H49643   6.035   6.905   0.429 -1.5629 -1.8383  0.4707
  368MOL0     H49644   5.629   6.867   0.068  1.5400 -0.2321  0.5319
  368MOL0     H49645   5.439   6.999   0.034  0.7819 -3.4014 -1.1407
  368MOL0     H49646   5.093   6.948   0.244 -2.0711  0.5162 -1.4212
  368MOL0     H49647   5.121   7.071   0.379 -0.1657  2.2046 -0.2700
  368MOL0     H49648   5.043   7.246   0.259  2.2492  0.4273 -1.7970
  368MOL0     H49649   5.052   7.173   0.102 -1.7766 -0.8439  0.0557
  368MOL0     H49650   4.852   7.077   0.322 -2.1052  1.5144 -0.5863
  368MOL0     H49651   4.899   6.997   0.172 -2.0347  1.2167 -2.9685
  368MOL0     H49652   4.774   7.275   0.172  0.8552 -0.1253 -0.1624
  368MOL0     H49653   4.828   7.191   0.032 -3.2347  0.1149 -1.2071
  368MOL0     H49654   4.676   7.006   0.048  1.4182  0.2871  0.3567
  368MOL0     H49655   4.591   7.165   0.045  0.2305 -0.5463 -0.4774
  368MOL0     H49656   4.639   6.960   0.275 -0.2901 -0.5692 -0.0349
  368MOL0     H49657   4.605   7.127   0.314  0.2733 -2.6076  3.0916
  368MOL0     H49658   4.412   6.972   0.168 -0.0529  2.9330 -2.1912
  368MOL0     H49659   4.407   7.142   0.203 -0.3830 -0.7079  0.5131
  368MOL0     H49660   4.429   6.939   0.428  3.0056  1.2543  0.4868
  368MOL0     H49661   4.282   7.010   0.368 -0.1646  1.2562 -1.1903
  368MOL0     H49662   5.305   6.925   0.443 -1.5857 -1.7784 -0.8941
  368MOL0     H49663   5.480   6.775   0.469  0.7288 -1.2417 -1.5516
  368MOL0     H49664   5.759   6.502   0.307  1.9639 -0.8934 -3.4043
  368MOL0     H49665   5.893   6.324   0.365 -2.2480  0.5346 -0.6775
  368MOL0     H49666   7.651   5.963   0.359 -1.6787  0.3041  0.5970
  368MOL0     H49667   7.876   5.942   0.444 -1.6436 -0.2671 -0.5491
  368MOL0     H49668   8.213   5.883   0.527 -0.7829 -0.1121 -2.6298
  368MOL0     H49669   8.431   5.944   0.577  0.1492  0.0436 -1.9302
  368MOL0     H49670   8.757   5.649   0.527  1.7577  0.4280 -0.2485
  368MOL0     H49671   8.841   5.773   0.633 -0.1446  2.7304 -0.5040
  368MOL0     H49672   8.666   5.535   0.727  1.1496 -1.0725  1.3510
  368MOL0     H49673   8.704   5.678   0.825  2.2313  1.1687  0.2199
  368MOL0     H49674   8.837   5.495   0.885  1.1226  1.0087  0.5245
  368MOL0     H49675   8.932   5.632   0.823 -2.7389  3.7033 -1.8762
  368MOL0     H49676   8.956   5.505   0.604  1.1945 -0.3237  0.7064
  368MOL0     H49677   8.856   5.369   0.677 -0.9736 -0.4327  3.3419
  368MOL0     H49678   9.229   5.292   0.843 -0.1498  0.1696  1.0167
  368MOL0     H49679   8.556   5.532   0.522 -0.6541  0.3287 -0.8503
  368MOL0     H49680   8.336   5.483   0.442  0.7607  0.8293 -1.8363
  369MOL0     O49681  10.748   8.427   5.513 -0.1623 -0.5173  0.0664
  369MOL0     C49682  10.799   8.332   5.463 -0.5957 -0.8339  0.3842
  369MOL0     O49683  10.767   8.292   5.342 -0.0741  0.2743  0.3550
  369MOL0     C49684  10.656   8.337   5.273  0.8448  0.3332 -0.5286
  369MOL0     C49685  10.523   8.372   5.330  0.0881 -0.0068 -0.2292
  369MOL0     C49686  10.415   8.400   5.243  0.8347  0.4608  0.0140
  369MOL0     C49687  10.441   8.414   5.104 -0.5192  0.0483  0.2323
  369MOL0     O49688  10.336   8.432   5.018 -0.4731  0.3276 -0.1928
  369MOL0     C49689  10.254   8.550   5.042  0.5474  1.1086 -1.5331
  369MOL0     C49690  10.137   8.584   4.942 -0.6167 -0.1303 -0.3227
  369MOL0     C49691  10.098   8.733   4.930  0.3901  0.1159 -0.5270
  369MOL0     C49692  10.001   8.761   4.812 -0.6543  0.1515  0.2972
  369MOL0     C49693   9.919   8.883   4.840  0.2330 -0.4005 -0.1249
  369MOL0     C49694  10.003   9.014   4.878  0.3196  1.1272 -0.2313
  369MOL0     C49695   9.924   9.144   4.882  0.0606  0.1092 -0.5011
  369MOL0     C49696   9.998   9.265   4.943 -0.0533  0.0243 -0.5375
  369MOL0     N49697  10.107   9.308   4.856 -0.8501  0.2435  0.8290
  369MOL0     C49698  10.245   9.287   4.879 -0.1103  0.2030 -0.7583
  369MOL0     C49699  10.298   9.372   4.786  0.0100  0.5820 -0.3303
  369MOL0     C49700  10.439   9.404   4.799  0.6437  1.4144  0.4020
  369MOL0     C49701  10.534   9.297   4.742 -0.4395 -0.4397 -0.6928
  369MOL0     C49702  10.550   9.287   4.586 -0.4872 -0.4574 -1.2895
  369MOL0     C49703  10.411   9.270   4.507  0.3539  0.1767  0.2873
  369MOL0     O49704  10.411   9.244   4.365  0.0721  0.1072 -0.4012
  369MOL0     C49705  10.288   9.250   4.299  0.1451 -0.2738  0.1699
  369MOL0     C49706  10.175   9.323   4.335  0.0007  0.3248 -0.2593
  369MOL0     C49707  10.065   9.321   4.261  0.5285  0.2641 -1.2829
  369MOL0     C49708   9.937   9.380   4.331 -0.3492  0.7226 -0.4026
  369MOL0     C49709  10.065   9.262   4.131 -0.8265  1.1107  0.0717
  369MOL0     C49710   9.950   9.269   4.039 -0.8364 -0.1919  0.4809
  369MOL0     O49711   9.902   9.149   3.987  0.1040 -0.2342  0.0150
  369MOL0     C49712   9.813   9.166   3.895  0.8102  0.3300 -0.6813
  369MOL0     C49713   9.691   9.175   3.939  0.3233 -0.6799 -0.1278
  369MOL0     C49714   9.584   9.158   3.845  0.0374 -0.1501  0.1499
  369MOL0     C49715   9.611   9.160   3.709  0.5594 -0.1885  0.5157
  369MOL0     O49716   9.516   9.161   3.606 -0.1217 -0.1629  0.4279
  369MOL0     C49717   9.379   9.190   3.625  0.2996  0.8235 -0.9316
  369MOL0     C49718   9.358   9.343   3.613 -0.3560  0.4519 -0.6430
  369MOL0     C49719   9.357   9.409   3.749  0.4106  0.1441 -0.3021
  369MOL0     C49720   9.445   9.535   3.771  0.5379  0.3029  0.7672
  369MOL0     C49721   9.514   9.537   3.911  0.9534 -0.1346  0.1799
  369MOL0     C49722   9.422   9.493   4.024  0.5942 -0.2285 -0.0246
  369MOL0     C49723   9.470   9.528   4.166  2.0363 -0.2536 -0.3582
  369MOL0     C49724   9.593   9.461   4.215 -0.2718  0.7879 -0.6549
  369MOL0    Cl49725   9.608   9.505   4.392  0.1552 -0.3344 -0.0649
  369MOL0     C49726   9.741   9.165   3.665 -0.0487 -0.1823 -0.4829
  369MOL0     C49727   9.846   9.155   3.760 -1.3516  0.1496  0.0209
  369MOL0     O49728   9.909   9.385   4.012  0.4289 -0.1653  0.0173
  369MOL0     C49729  10.180   9.195   4.089  0.1451  0.1515  0.3332
  369MOL0     C49730  10.292   9.181   4.177 -0.5053  0.4107 -0.2570
  369MOL0     N49731  10.198   9.427   4.700  0.5887 -0.1185  0.1249
  369MOL0     N49732  10.087   9.369   4.733 -0.3446  1.5040 -0.8186
  369MOL0     C49733  10.568   8.392   5.052 -0.0008 -0.5605 -0.4835
  369MOL0     C49734  10.679   8.364   5.137 -1.1756 -0.1812 -0.1741
  369MOL0     C49735  10.906   8.258   5.534 -0.0470 -0.4576 -0.7602
  369MOL0     C49736  10.971   8.336   5.631  1.2860 -0.4918  0.1401
  369MOL0     C49737  11.078   8.278   5.704  0.1883  0.4340 -0.4030
  369MOL0     C49738  11.130   8.147   5.676  0.8138 -0.4506 -0.4717
  369MOL0     O49739  11.220   8.098   5.763  0.0712  0.7306  0.2958
  369MOL0     C49740  11.273   7.961   5.740 -0.8250 -0.6239 -0.0860
  369MOL0     C49741  11.389   7.973   5.642 -0.4141 -0.1725  0.2105
  369MOL0     C49742  11.485   8.080   5.687 -0.2005  0.6536 -0.5745
  369MOL0     C49743  11.574   8.038   5.793 -0.1407  0.0912 -0.8848
  369MOL0     C49744  11.653   7.923   5.761 -0.1533  0.3058 -0.0886
  369MOL0     C49745  11.717   7.817   5.748  0.9433  0.0787 -0.4657
  369MOL0     C49746  11.063   8.071   5.578  0.0978  0.1295 -0.2745
  369MOL0     C49747  10.951   8.126   5.506  0.4688 -0.2914 -0.4368
  369MOL0     H49748  10.519   8.374   5.438  4.4829  0.8622  0.0952
  369MOL0     H49749  10.315   8.425   5.277  1.1899  0.1040  1.3706
  369MOL0     H49750  10.206   8.537   5.140  0.9056  2.5869 -1.1275
  369MOL0     H49751  10.320   8.637   5.050  1.7018  0.1853 -0.7729
  369MOL0     H49752  10.182   8.555   4.846  0.0891  0.8186 -0.2887
  369MOL0     H49753  10.044   8.532   4.969 -0.0929 -1.7155 -1.3695
  369MOL0     H49754  10.045   8.765   5.021  1.5255  4.6940 -1.2315
  369MOL0     H49755  10.177   8.807   4.912 -2.0330  3.4083  1.2052
  369MOL0     H49756  10.060   8.772   4.720  0.9690  1.3946  1.4244
  369MOL0     H49757   9.929   8.680   4.803 -0.3648 -0.1107  0.3407
  369MOL0     H49758   9.857   8.909   4.754  0.6283  1.2120  0.0404
  369MOL0     H49759   9.850   8.859   4.922  1.3361 -7.3282 -0.6318
  369MOL0     H49760  10.052   9.002   4.975 -0.6415 -0.1480  0.1336
  369MOL0     H49761  10.081   9.023   4.802 -1.6169  1.0761 -2.3362
  369MOL0     H49762   9.891   9.178   4.784  0.0073 -1.2944 -0.9853
  369MOL0     H49763   9.833   9.125   4.939  0.4736  0.3746  0.2741
  369MOL0     H49764  10.033   9.239   5.044 -2.0943 -2.8962 -0.4541
  369MOL0     H49765   9.930   9.349   4.963  0.1541  0.1749 -0.4631
  369MOL0     H49766  10.294   9.229   4.956 -0.8158  1.0808  0.3764
  369MOL0     H49767  10.459   9.497   4.745  0.0340  1.7279  0.7122
  369MOL0     H49768  10.456   9.434   4.903  2.2515 -0.4404  0.7342
  369MOL0     H49769  10.502   9.197   4.774  0.3198 -1.1377 -2.0466
  369MOL0     H49770  10.630   9.305   4.792 -0.6811  0.7496 -0.3979
  369MOL0     H49771  10.616   9.203   4.563  0.7530 -0.6956  2.3934
  369MOL0     H49772  10.610   9.366   4.543  0.5504 -1.3964 -1.6094
  369MOL0     H49773  10.360   9.363   4.536 -0.3310 -0.4893  1.2918
  369MOL0     H49774  10.353   9.191   4.555 -0.2615 -0.3721 -1.2850
  369MOL0     H49775  10.158   9.383   4.424 -1.7191  1.1103 -1.0661
  369MOL0     H49776   9.963   9.472   4.385 -0.6592 -0.5561  2.0581
  369MOL0     H49777   9.866   9.414   4.255  1.7494 -0.2181 -2.9374
  369MOL0     H49778   9.883   9.311   4.396 -0.6755  1.0381 -0.3303
  369MOL0     H49779   9.672   9.175   4.046  2.2587 -1.0760  0.2456
  369MOL0     H49780   9.480   9.143   3.874 -0.1290  0.9135  0.1640
  369MOL0     H49781   9.325   9.149   3.540 -0.8631 -0.6762  0.4597
  369MOL0     H49782   9.340   9.139   3.714 -2.2984  1.4194 -1.6399
  369MOL0     H49783   9.432   9.396   3.554 -0.7402  3.4598  1.3281
  369MOL0     H49784   9.257   9.345   3.570 -1.2394 -1.3526  1.1727
  369MOL0     H49785   9.380   9.335   3.825 -0.6929  0.3025  0.1987
  369MOL0     H49786   9.255   9.446   3.764  1.2403  1.9522  1.3473
  369MOL0     H49787   9.518   9.533   3.690  2.3421 -0.9518  2.3304
  369MOL0     H49788   9.377   9.620   3.765  1.8416  1.2482 -2.7632
  369MOL0     H49789   9.539   9.643   3.915  2.1827 -0.3096 -1.5277
  369MOL0     H49790   9.603   9.472   3.912  1.1877  0.1472 -0.9085
  369MOL0     H49791   9.325   9.542   4.017  0.1740 -1.0206  0.0935
  369MOL0     H49792   9.403   9.385   4.022  2.3060 -0.5957  1.2057
  369MOL0     H49793   9.388   9.512   4.236 -0.0510  1.3418 -2.2748
  369MOL0     H49794   9.490   9.636   4.165  3.8076 -0.4671 -3.6837
  369MOL0     H49795   9.687   9.479   4.163  0.1968 -3.1605 -1.5373
  369MOL0     H49796   9.589   9.354   4.191  2.1907  0.9707 -2.2066
  369MOL0     H49797   9.763   9.168   3.559 -0.6033 -1.4194 -0.6421
  369MOL0     H49798   9.948   9.142   3.725 -1.2523 -0.0949  0.3953
  369MOL0     H49799  10.194   9.151   3.991  0.1207 -0.2988  0.5316
  369MOL0     H49800  10.373   9.125   4.134 -0.5822 -2.9388  3.3681
  369MOL0     H49801  10.582   8.387   4.945  0.4796 -2.8166 -0.3740
  369MOL0     H49802  10.783   8.367   5.106 -0.4633 -2.0843  1.7522
  369MOL0     H49803  10.938   8.438   5.650 -3.3812 -1.6071 -0.9749
  369MOL0     H49804  11.115   8.338   5.786 -1.7012 -0.9753  1.5793
  369MOL0     H49805  11.318   7.926   5.833  0.0295  0.3727 -0.1060
  369MOL0     H49806  11.196   7.888   5.714 -1.6756 -0.6054  2.1471
  369MOL0     H49807  11.346   7.992   5.543  1.1384 -1.6152 -0.7949
  369MOL0     H49808  11.437   7.875   5.629 -0.0133  0.1320 -0.7039
  369MOL0     H49809  11.440   8.171   5.728  1.3381  0.3219  2.0650
  369MOL0     H49810  11.549   8.108   5.602  2.2255 -0.7745  0.6873
  369MOL0     H49811  11.513   8.015   5.882 -0.1130  2.1294 -0.2879
  369MOL0     H49812  11.633   8.127   5.813 -2.8718  1.6102  1.0940
  369MOL0     H49813  11.778   7.730   5.734  0.6028 -0.2909  0.2687
  369MOL0     H49814  11.095   7.970   5.556  1.3123  0.4534 -0.0636
  369MOL0     H49815  10.912   8.080   5.416  2.5862  0.4265 -1.7853
  370MOL0     O49816   5.084   3.987   8.486  0.2345 -0.2902 -0.5864
  370MOL0     C49817   5.146   3.878   8.498  0.6338 -0.2284  0.1978
  370MOL0     O49818   5.087   3.760   8.469  0.4104  0.0158  0.2591
  370MOL0     C49819   4.957   3.761   8.412 -0.0416  0.0437 -0.3615
  370MOL0     C49820   4.848   3.782   8.497  0.1989 -0.1597  0.1735
  370MOL0     C49821   4.720   3.769   8.456  0.8019 -0.0884  0.4367
  370MOL0     C49822   4.700   3.743   8.320  0.4965 -0.3476  0.2365
  370MOL0     O49823   4.573   3.745   8.273 -0.1277  0.0788 -0.3251
  370MOL0     C49824   4.526   3.878   8.242 -1.5371 -1.2839 -0.1183
  370MOL0     C49825   4.406   3.872   8.151 -0.1528 -0.1610 -0.3854
  370MOL0     C49826   4.279   3.955   8.189 -0.6934  0.1645 -0.0191
  370MOL0     C49827   4.169   3.933   8.082 -0.3833  0.0300  0.0048
  370MOL0     C49828   4.038   4.004   8.111  0.6419  0.3776  0.1649
  370MOL0     C49829   3.917   3.970   8.021 -0.0868 -0.6486 -0.2678
  370MOL0     C49830   3.824   4.087   8.000  0.6703 -0.1003  0.2191
  370MOL0     C49831   3.816   4.196   8.110  0.3903  0.5689  0.8944
  370MOL0     N49832   3.684   4.271   8.108 -0.1553  0.0743  0.3593
  370MOL0     C49833   3.608   4.277   7.998 -0.0980 -0.3131  0.2162
  370MOL0     C49834   3.517   4.376   8.020 -0.6283 -0.8019 -0.2846
  370MOL0     C49835   3.421   4.444   7.928  0.9970  0.0806 -0.1515
  370MOL0     C49836   3.291   4.349   7.925 -0.5881  0.1781  0.1234
  370MOL0     C49837   3.169   4.423   7.864 -0.1559  0.0658  0.8919
  370MOL0     C49838   3.178   4.455   7.715  0.3019  0.3837 -0.0538
  370MOL0     O49839   3.121   4.585   7.683 -0.1221 -0.4096 -0.2961
  370MOL0     C49840   2.988   4.595   7.652 -0.4695  0.6201  0.3891
  370MOL0     C49841   2.948   4.703   7.576 -0.7246  0.3335 -0.1660
  370MOL0     C49842   2.813   4.715   7.541  0.3586  0.1474 -1.0255
  370MOL0     C49843   2.784   4.819   7.436  0.1278  0.0277 -0.0462
  370MOL0     C49844   2.713   4.633   7.599  0.6151  0.1083 -0.4522
  370MOL0     C49845   2.566   4.653   7.577 -0.0231 -1.4362 -0.0313
  370MOL0     O49846   2.490   4.546   7.605 -0.0258 -0.1867  0.4711
  370MOL0     C49847   2.355   4.562   7.616 -0.3755  0.2233 -0.0197
  370MOL0     C49848   2.264   4.617   7.521 -0.2958  0.3563 -0.5127
  370MOL0     C49849   2.130   4.618   7.540  0.9253 -0.1450  0.0916
  370MOL0     C49850   2.076   4.555   7.656 -0.3608 -0.3037 -0.2495
  370MOL0     O49851   1.940   4.557   7.680  0.0665 -0.6790  0.2526
  370MOL0     C49852   1.852   4.518   7.567 -0.4687  0.2912 -0.9841
  370MOL0     C49853   1.717   4.556   7.593 -0.2220  0.5354 -0.4354
  370MOL0     C49854   1.649   4.448   7.686 -0.2187  0.3209  0.2427
  370MOL0     C49855   1.511   4.486   7.741  0.8566  0.2446  0.2086
  370MOL0     C49856   1.455   4.392   7.845  0.0093  0.4189  0.0726
  370MOL0     C49857   1.321   4.443   7.909 -0.3723 -0.0085 -0.0723
  370MOL0     C49858   1.202   4.461   7.812  0.6329  0.3730  0.1726
  370MOL0     C49859   1.078   4.488   7.895  0.1499 -0.5244 -0.2691
  370MOL0    Cl49860   0.932   4.497   7.791 -0.4956 -0.5735 -0.0285
  370MOL0     C49861   2.162   4.505   7.747  0.3937 -0.3047  0.2341
  370MOL0     C49862   2.299   4.499   7.733  0.4878  0.0223  0.6709
  370MOL0     O49863   2.520   4.754   7.520  0.0079 -0.1795  0.0189
  370MOL0     C49864   2.757   4.539   7.680  0.3241  1.6892 -1.0778
  370MOL0     C49865   2.892   4.513   7.705  0.2376  0.0676  0.3628
  370MOL0     N49866   3.540   4.432   8.140  0.5858  0.2537 -0.6135
  370MOL0     N49867   3.646   4.373   8.184 -0.3310 -0.2957 -0.6412
  370MOL0     C49868   4.807   3.713   8.228 -0.4351 -0.4675 -0.3277
  370MOL0     C49869   4.939   3.718   8.283 -0.6494 -0.3657 -0.3238
  370MOL0     C49870   5.287   3.869   8.543  0.2042 -0.6734 -0.6729
  370MOL0     C49871   5.367   3.752   8.541 -0.3712 -0.9773  0.0627
  370MOL0     C49872   5.497   3.751   8.592  0.3198  0.1145  0.2313
  370MOL0     C49873   5.555   3.875   8.628  0.1773  0.7996  0.8749
  370MOL0     O49874   5.685   3.860   8.670  0.0716  0.0406  0.7070
  370MOL0     C49875   5.749   3.952   8.758 -0.7863 -1.0684  0.3880
  370MOL0     C49876   5.811   4.073   8.685 -0.6652  0.1200  0.0281
  370MOL0     C49877   5.925   4.043   8.587  0.6825  0.9370  0.5209
  370MOL0     C49878   5.881   4.029   8.436 -0.6164 -0.0015 -1.2513
  370MOL0     C49879   5.993   3.976   8.361  0.3495  0.1370  0.3127
  370MOL0     C49880   6.086   3.940   8.296  0.2033  0.1304  0.0993
  370MOL0     C49881   5.474   3.989   8.632 -0.3896 -0.1158  0.0273
  370MOL0     C49882   5.343   3.988   8.592  0.2821  0.9393  0.2320
  370MOL0     H49883   4.864   3.810   8.601  0.6025 -0.9700  0.3422
  370MOL0     H49884   4.638   3.779   8.526  2.9028  1.4189  2.8787
  370MOL0     H49885   4.498   3.938   8.330  0.1213  0.8610 -0.9640
  370MOL0     H49886   4.604   3.934   8.190 -1.9197 -0.7789 -0.1655
  370MOL0     H49887   4.434   3.901   8.049 -1.5932  0.4240 -0.6391
  370MOL0     H49888   4.376   3.768   8.134  5.5665 -2.8551  2.7981
  370MOL0     H49889   4.240   3.921   8.285  0.2624 -0.2843  0.2212
  370MOL0     H49890   4.308   4.059   8.204  0.0586 -0.1509  0.8012
  370MOL0     H49891   4.207   3.957   7.982  3.0906  0.2429  1.2307
  370MOL0     H49892   4.158   3.824   8.081  2.9655 -0.4336  1.5042
  370MOL0     H49893   4.003   3.988   8.213 -0.5886 -0.6703 -0.3969
  370MOL0     H49894   4.067   4.109   8.105 -0.3536  0.8777  2.7880
  370MOL0     H49895   3.957   3.939   7.924  2.2429  0.1927  0.3545
  370MOL0     H49896   3.866   3.886   8.067  1.9184  0.0627  3.6424
  370MOL0     H49897   3.849   4.141   7.908  1.9644  1.6905  1.5450
  370MOL0     H49898   3.731   4.030   7.989  0.4228  0.1046  1.1355
  370MOL0     H49899   3.905   4.260   8.109  2.7409 -2.5016  1.0119
  370MOL0     H49900   3.808   4.138   8.202 -3.7692 -1.0631 -0.2676
  370MOL0     H49901   3.624   4.223   7.905  1.4428  0.5682 -0.0698
  370MOL0     H49902   3.394   4.540   7.972 -1.9510 -0.6309 -0.2141
  370MOL0     H49903   3.454   4.462   7.826  1.0871  1.7102  0.1496
  370MOL0     H49904   3.266   4.310   8.024 -1.0884 -0.0913 -0.1046
  370MOL0     H49905   3.307   4.258   7.866 -1.4762 -0.3220  0.6332
  370MOL0     H49906   3.137   4.514   7.915 -2.0124  0.4510 -0.8275
  370MOL0     H49907   3.083   4.355   7.867 -0.0882 -0.0073  2.8060
  370MOL0     H49908   3.128   4.378   7.656 -0.1342  0.1563  0.5970
  370MOL0     H49909   3.283   4.459   7.686  0.8587  1.4450  1.9275
  370MOL0     H49910   3.030   4.756   7.529  1.1552 -2.3507 -0.1501
  370MOL0     H49911   2.705   4.788   7.367 -1.2717  1.3591  0.8915
  370MOL0     H49912   2.743   4.915   7.470 -0.2185 -0.0151 -0.3444
  370MOL0     H49913   2.875   4.842   7.380 -1.2589  0.1250 -2.3618
  370MOL0     H49914   2.296   4.650   7.423  0.6735 -0.2349 -0.4101
  370MOL0     H49915   2.082   4.668   7.456  0.1954 -0.8148  0.0986
  370MOL0     H49916   1.880   4.577   7.480  0.4054 -0.1177 -0.9958
  370MOL0     H49917   1.863   4.413   7.537 -0.2093 -0.5940  1.8705
  370MOL0     H49918   1.711   4.658   7.634 -0.2483 -0.0357  1.0614
  370MOL0     H49919   1.667   4.560   7.496  0.7708  2.7917 -0.9398
  370MOL0     H49920   1.712   4.435   7.774 -0.1449  0.3098  0.1884
  370MOL0     H49921   1.632   4.356   7.628 -2.1015  0.5860  0.2959
  370MOL0     H49922   1.510   4.589   7.777 -0.4769 -0.5349  2.6580
  370MOL0     H49923   1.443   4.478   7.656  2.0197  1.3950 -0.8687
  370MOL0     H49924   1.528   4.375   7.925  1.8466 -1.0435 -1.7930
  370MOL0     H49925   1.440   4.292   7.804 -1.4012 -1.3219  4.2509
  370MOL0     H49926   1.297   4.375   7.991 -0.8718  2.2628  1.7540
  370MOL0     H49927   1.344   4.541   7.951 -1.7004  0.2156  0.1903
  370MOL0     H49928   1.185   4.367   7.759  0.6301  0.0263  0.7843
  370MOL0     H49929   1.222   4.542   7.740 -1.3260 -0.8242 -1.8516
  370MOL0     H49930   1.098   4.587   7.936 -2.4610  0.3445 -0.8640
  370MOL0     H49931   1.073   4.418   7.978  0.9510 -0.0773  0.1671
  370MOL0     H49932   2.124   4.474   7.844 -2.7015 -0.6699 -0.9792
  370MOL0     H49933   2.369   4.460   7.807 -0.5790 -0.9259  1.2082
  370MOL0     H49934   2.699   4.465   7.735  0.4101  0.8460 -2.0814
  370MOL0     H49935   2.907   4.422   7.762  1.1995 -0.8065 -1.1978
  370MOL0     H49936   4.799   3.674   8.127  2.0580  1.2668 -1.3072
  370MOL0     H49937   5.027   3.701   8.221 -0.6255  2.2753 -1.1445
  370MOL0     H49938   5.317   3.665   8.499  2.4565 -0.8370 -4.2045
  370MOL0     H49939   5.559   3.663   8.578  0.4822  0.3903 -0.8380
  370MOL0     H49940   5.689   3.984   8.843 -0.3081 -0.0316  0.3574
  370MOL0     H49941   5.836   3.904   8.804  1.1339  0.5926 -1.2910
  370MOL0     H49942   5.870   4.132   8.755  5.2098 -1.0967 -3.1945
  370MOL0     H49943   5.734   4.136   8.641 -0.2753 -0.7501 -2.0649
  370MOL0     H49944   5.970   3.946   8.609  3.2439  1.7842 -0.6147
  370MOL0     H49945   5.994   4.128   8.588  1.5779  0.2140  1.2314
  370MOL0     H49946   5.843   4.126   8.405  1.5792  1.2417 -0.3282
  370MOL0     H49947   5.810   3.947   8.441 -1.2586  0.5917 -0.2763
  370MOL0     H49948   6.171   3.905   8.242  1.3422  0.2428  1.7591
  370MOL0     H49949   5.520   4.079   8.670  1.7148 -0.8688 -0.5875
  370MOL0     H49950   5.280   4.076   8.590  0.2468  0.9131 -1.8608
  371MOL0     O49951   5.398   0.814  10.574 -0.1790 -0.3958  0.5788
  371MOL0     C49952   5.430   0.897  10.489 -0.3501  0.3655  0.3060
  371MOL0     O49953   5.355   0.919  10.384  0.0460  0.7427  0.2969
  371MOL0     C49954   5.225   0.863  10.380 -0.3787 -0.6828 -0.5689
  371MOL0     C49955   5.123   0.874  10.471  0.1338 -0.4035 -0.3233
  371MOL0     C49956   4.999   0.805  10.448 -0.1118  0.0490 -0.2579
  371MOL0     C49957   4.981   0.723  10.331 -0.2878 -0.5961  0.5045
  371MOL0     O49958   4.873   0.643  10.314  0.0403 -0.2446  0.1569
  371MOL0     C49959   4.792   0.614  10.421 -0.0415 -1.0484 -0.3768
  371MOL0     C49960   4.670   0.710  10.428 -0.6494 -1.3321 -0.5713
  371MOL0     C49961   4.558   0.684  10.333 -0.9611  0.4001  0.1980
  371MOL0     C49962   4.449   0.786  10.341 -0.1840 -0.0593  0.3626
  371MOL0     C49963   4.338   0.744  10.231 -0.7566  1.1746 -0.9521
  371MOL0     C49964   4.223   0.836  10.217  0.6163  0.2231 -0.2842
  371MOL0     C49965   4.143   0.859  10.347 -0.5378  0.0629  0.0868
  371MOL0     C49966   4.087   0.731  10.403  0.1601 -0.6780 -0.1259
  371MOL0     N49967   4.001   0.751  10.522  0.2864 -0.9862 -0.9223
  371MOL0     C49968   4.015   0.863  10.603 -0.5649  0.6553 -0.2794
  371MOL0     C49969   3.897   0.872  10.667 -0.1125 -0.0222 -0.9373
  371MOL0     C49970   3.855   0.963  10.775 -0.5910 -0.3004  0.3673
  371MOL0     C49971   3.871   0.901  10.920  0.1619  0.4103 -0.1762
  371MOL0     C49972   3.787   0.776  10.945  0.4655  0.4211  0.0307
  371MOL0     C49973   3.639   0.803  10.951 -0.1728  0.1382 -0.9744
  371MOL0     O49974   3.559   0.688  10.976  1.1456 -0.2421 -0.1852
  371MOL0     C49975   3.497   0.636  10.864  0.4135 -0.6133  0.7118
  371MOL0     C49976   3.538   0.508  10.814  0.1896 -0.3020 -0.3858
  371MOL0     C49977   3.471   0.444  10.710  0.3736  0.4732  0.0573
  371MOL0     C49978   3.522   0.315  10.661 -0.2980 -0.4827 -0.2215
  371MOL0     C49979   3.345   0.505  10.668  0.1375 -0.3840  0.5727
  371MOL0     C49980   3.249   0.439  10.573  0.1016 -0.5304  0.4642
  371MOL0     O49981   3.135   0.506  10.559  0.0803 -0.0160  0.0970
  371MOL0     C49982   3.033   0.461  10.480  0.1372 -1.1333  0.0376
  371MOL0     C49983   2.965   0.547  10.393 -0.4772 -0.5425 -1.2297
  371MOL0     C49984   2.844   0.513  10.333  0.7659 -0.4827  0.2611
  371MOL0     C49985   2.789   0.386  10.338 -1.2259 -0.2050  0.1158
  371MOL0     O49986   2.674   0.356  10.271 -0.0180 -0.6247  0.7427
  371MOL0     C49987   2.670   0.223  10.212 -0.6023  0.6148  0.3266
  371MOL0     C49988   2.547   0.211  10.119  0.1955 -0.0474 -0.5423
  371MOL0     C49989   2.410   0.218  10.187 -0.0076 -0.5045  0.5290
  371MOL0     C49990   2.308   0.194  10.084 -0.4131  0.3223 -0.0311
  371MOL0     C49991   2.169   0.177  10.138 -0.7352 -0.5009 -0.6935
  371MOL0     C49992   2.066   0.136  10.030  0.4548 -0.5369  0.2792
  371MOL0     C49993   1.930   0.145  10.099 -0.3763 -0.3458 -0.5638
  371MOL0     C49994   1.816   0.078  10.022 -0.6597 -0.4836  0.2904
  371MOL0    Cl49995   1.655   0.071  10.110 -0.3216 -0.5154  0.2221
  371MOL0     C49996   2.855   0.295  10.424 -0.0345  0.0565 -0.4154
  371MOL0     C49997   2.966   0.340  10.498 -0.6158 -0.4747 -0.0097
  371MOL0     O49998   3.274   0.325  10.532 -0.4635  0.3905  0.0995
  371MOL0     C49999   3.303   0.628  10.718 -0.8563  0.1576  0.0417
  371MOL0     C50000   3.376   0.696  10.816 -0.6330  0.6706 -0.6277
  371MOL0     N50001   3.814   0.768  10.619  1.0112  0.7469  0.2872
  371MOL0     N50002   3.879   0.702  10.531 -0.0246 -0.2587  0.1860
  371MOL0     C50003   5.093   0.714  10.247  0.5290  0.0940  1.0037
  371MOL0     C50004   5.208   0.783  10.273 -0.4737 -0.8368 -0.0053
  371MOL0     C50005   5.565   0.961  10.513 -0.1270  0.4143 -0.3349
  371MOL0     C50006   5.623   1.045  10.420  0.1620 -0.3645  0.3984
  371MOL0     C50007   5.744   1.112  10.451  0.7372  0.4163  0.3159
  371MOL0     C50008   5.794   1.099  10.582 -0.3764  0.4096  0.3382
  371MOL0     O50009   5.923   1.159  10.595  0.1870  0.8242  0.4305
  371MOL0     C50010   6.002   1.102  10.697  0.8833 -0.5648  0.0264
  371MOL0     C50011   5.996   1.181  10.831  0.0185 -0.9194 -0.1792
  371MOL0     C50012   6.093   1.125  10.943  0.2014  0.6279  0.3721
  371MOL0     C50013   6.102   1.219  11.060 -0.1926 -0.3590 -0.7573
  371MOL0     C50014   6.186   1.158  11.162 -0.4748 -0.3037 -0.0429
  371MOL0     C50015   6.238   1.104  11.255  0.0659  0.0129 -0.4372
  371MOL0     C50016   5.722   1.032  10.682  0.1074 -0.5936 -0.2396
  371MOL0     C50017   5.621   0.950  10.643  0.0476  0.4114  1.4569
  371MOL0     H50018   5.155   0.928  10.560  0.9437 -2.4854  0.7032
  371MOL0     H50019   4.914   0.815  10.514  0.2761 -2.4759  0.7383
  371MOL0     H50020   4.760   0.510  10.410 -0.5449 -0.8091 -1.2847
  371MOL0     H50021   4.858   0.616  10.508  1.0182  2.2772 -1.0911
  371MOL0     H50022   4.630   0.722  10.529  3.4226  2.5236  0.9261
  371MOL0     H50023   4.713   0.810  10.415 -0.3993 -1.0501  1.8606
  371MOL0     H50024   4.600   0.677  10.232  1.6173  1.3756  1.1350
  371MOL0     H50025   4.512   0.588  10.356  1.2311  0.1497  4.3540
  371MOL0     H50026   4.394   0.790  10.436 -1.6054 -0.7511 -0.3960
  371MOL0     H50027   4.484   0.888  10.326  2.2529 -0.9498 -0.3863
  371MOL0     H50028   4.393   0.739  10.137 -1.7476 -1.2462 -1.4823
  371MOL0     H50029   4.302   0.644  10.258  2.3256  0.8869  3.2289
  371MOL0     H50030   4.256   0.935  10.186 -1.1033  1.7714  2.3990
  371MOL0     H50031   4.154   0.793  10.143  2.4171 -2.9854 -0.2678
  371MOL0     H50032   4.199   0.919  10.419 -0.6530  1.6456 -1.0911
  371MOL0     H50033   4.069   0.937  10.325 -1.6199 -1.6653 -2.9502
  371MOL0     H50034   4.164   0.666  10.446  1.4078  1.0099  0.2610
  371MOL0     H50035   4.035   0.687  10.317  1.0205 -0.6474 -0.6695
  371MOL0     H50036   4.108   0.919  10.613 -0.2845  0.1582 -0.0700
  371MOL0     H50037   3.908   1.059  10.764  0.5469 -0.8667  0.7621
  371MOL0     H50038   3.748   0.984  10.763 -0.8518 -2.0896 -0.7036
  371MOL0     H50039   3.856   0.979  10.996  2.3342  0.2570  0.4910
  371MOL0     H50040   3.972   0.865  10.943 -0.0883  1.3427  2.8995
  371MOL0     H50041   3.823   0.737  11.040 -0.7688 -1.9757 -0.4103
  371MOL0     H50042   3.818   0.709  10.865  0.1320  3.1863 -2.6185
  371MOL0     H50043   3.606   0.854  10.860  0.2981 -0.0312 -1.2428
  371MOL0     H50044   3.620   0.885  11.021 -2.0422 -0.7055 -0.4369
  371MOL0     H50045   3.607   0.444  10.868 -1.3239 -1.2668  0.4767
  371MOL0     H50046   3.627   0.298  10.686  0.9142  1.2886 -3.5771
  371MOL0     H50047   3.464   0.228  10.695  0.3962 -1.7179 -2.0846
  371MOL0     H50048   3.518   0.313  10.552 -0.1553 -0.3674 -0.2286
  371MOL0     H50049   3.001   0.643  10.359 -0.8922 -0.2516 -0.8596
  371MOL0     H50050   2.793   0.584  10.270  1.8194  0.1422  0.0910
  371MOL0     H50051   2.765   0.207  10.162 -1.2811  0.2860 -0.9037
  371MOL0     H50052   2.662   0.150  10.294 -1.0930  1.7537  1.3270
  371MOL0     H50053   2.552   0.290  10.043 -1.9588 -0.1363 -0.8240
  371MOL0     H50054   2.568   0.115  10.071  3.2486 -1.2230  2.7032
  371MOL0     H50055   2.387   0.318  10.225 -1.3213 -0.7000  0.3044
  371MOL0     H50056   2.405   0.150  10.273  0.8597  1.1814  2.0096
  371MOL0     H50057   2.313   0.278  10.015  1.0081 -1.0864 -1.7464
  371MOL0     H50058   2.329   0.098  10.036 -2.7176  0.7214 -2.0678
  371MOL0     H50059   2.140   0.269  10.189 -0.2481 -2.8765  4.5620
  371MOL0     H50060   2.173   0.121  10.232  0.0891  0.0323 -0.3996
  371MOL0     H50061   2.075   0.216   9.956  1.6250 -0.6664  0.2744
  371MOL0     H50062   2.081   0.039   9.983 -0.8332  0.3422 -2.1065
  371MOL0     H50063   1.904   0.250  10.116  2.6481  0.3765  0.3981
  371MOL0     H50064   1.924   0.105  10.201 -1.3348  1.5309  0.1655
  371MOL0     H50065   1.841  -0.024   9.991 -1.8896 -0.5900 -0.3895
  371MOL0     H50066   1.804   0.137   9.931  0.3433 -0.9486 -0.1615
  371MOL0     H50067   2.802   0.204  10.453 -2.4683  1.1127 -1.2431
  371MOL0     H50068   3.005   0.268  10.569 -1.8098  0.4479  1.6437
  371MOL0     H50069   3.211   0.671  10.680 -0.5304 -1.4703 -2.8955
  371MOL0     H50070   3.345   0.790  10.862 -3.0372 -1.1625  1.8166
  371MOL0     H50071   5.092   0.645  10.164 -2.5753  0.8697  0.2774
  371MOL0     H50072   5.292   0.769  10.206 -1.3520 -1.6440 -0.9523
  371MOL0     H50073   5.575   1.049  10.323  0.7692  0.7549  0.1316
  371MOL0     H50074   5.805   1.170  10.383  0.5115 -3.0954 -3.2346
  371MOL0     H50075   5.977   0.998  10.717 -1.5826 -0.0307  0.1398
  371MOL0     H50076   6.106   1.104  10.662  0.8503 -0.6438 -0.0763
  371MOL0     H50077   5.895   1.171  10.874 -0.1469 -2.5778 -0.9046
  371MOL0     H50078   6.025   1.285  10.814 -2.2113  0.0295  1.2911
  371MOL0     H50079   6.194   1.107  10.905  0.9325  1.9699  1.6111
  371MOL0     H50080   6.058   1.029  10.981 -0.4491  0.4892 -0.5412
  371MOL0     H50081   6.009   1.247  11.110  0.5155 -0.1210  0.4947
  371MOL0     H50082   6.148   1.313  11.028 -0.1511  0.7265  2.1662
  371MOL0     H50083   6.279   1.068  11.347 -0.5174  1.0003  0.2249
  371MOL0     H50084   5.760   1.009  10.781  3.5311 -2.0121 -1.7157
  371MOL0     H50085   5.571   0.887  10.716 -0.7894 -0.7079 -0.0248
  372MOL0     O50086   8.863   7.153   2.090 -0.4958  0.1562  0.1485
  372MOL0     C50087   8.876   7.175   1.972  0.4035 -0.6738 -0.8251
  372MOL0     O50088   8.785   7.134   1.883 -0.1137 -0.5860  0.4841
  372MOL0     C50089   8.685   7.053   1.927  0.6805  1.1700  0.3225
  372MOL0     C50090   8.710   6.925   1.992  0.2703 -0.6623  0.2528
  372MOL0     C50091   8.618   6.823   1.995  0.1465 -0.5398 -0.2522
  372MOL0     C50092   8.492   6.841   1.953 -0.0386  0.7785  0.4586
  372MOL0     O50093   8.408   6.728   1.943  0.1182  0.2637 -0.2717
  372MOL0     C50094   8.327   6.720   1.835  0.0837  0.2678  0.0429
  372MOL0     C50095   8.270   6.579   1.843 -0.1724  0.0445 -0.1543
  372MOL0     C50096   8.184   6.528   1.726 -0.0401 -0.0961 -0.3895
  372MOL0     C50097   8.044   6.517   1.776  1.0166 -0.3009 -0.3399
  372MOL0     C50098   7.959   6.427   1.688  0.5197 -0.1949  0.0399
  372MOL0     C50099   7.856   6.347   1.772  0.7359  0.4792 -0.1843
  372MOL0     C50100   7.770   6.282   1.672  0.1907 -0.1188 -0.0543
  372MOL0     C50101   7.670   6.373   1.603  0.0464 -0.4518  0.5888
  372MOL0     N50102   7.561   6.302   1.540 -0.2780  0.2128 -0.6852
  372MOL0     C50103   7.566   6.221   1.436 -0.1661 -0.5590 -0.0789
  372MOL0     C50104   7.444   6.199   1.402  0.5819  0.8298 -0.4894
  372MOL0     C50105   7.396   6.117   1.286  0.1525 -0.7013 -0.6954
  372MOL0     C50106   7.348   6.213   1.182 -0.6082  0.3973  0.0364
  372MOL0     C50107   7.320   6.132   1.051 -0.0679  0.6507  0.1846
  372MOL0     C50108   7.246   6.237   0.969  0.6339 -0.2552  0.2952
  372MOL0     O50109   7.220   6.211   0.827  0.5467  1.2345  0.1523
  372MOL0     C50110   7.156   6.088   0.814  0.1755  0.0867  0.0776
  372MOL0     C50111   7.212   5.994   0.719 -0.3065 -0.3981  0.5502
  372MOL0     C50112   7.147   5.875   0.684  0.1145  0.2878 -0.2927
  372MOL0     C50113   7.205   5.803   0.567 -0.5229 -0.1351 -0.4515
  372MOL0     C50114   7.022   5.847   0.743 -0.5582 -0.3574  0.5009
  372MOL0     C50115   6.944   5.722   0.715  0.0435 -0.5127  0.3256
  372MOL0     O50116   6.956   5.650   0.596 -0.4136 -0.2149  0.0815
  372MOL0     C50117   6.852   5.564   0.557  0.8065  0.6207 -0.1500
  372MOL0     C50118   6.712   5.602   0.569  0.0666  0.2110 -0.2544
  372MOL0     C50119   6.608   5.518   0.527 -0.6191 -0.7739  0.0070
  372MOL0     C50120   6.644   5.403   0.468 -0.2815  1.1018 -0.1252
  372MOL0     O50121   6.549   5.319   0.406  0.0646  0.2412 -0.4721
  372MOL0     C50122   6.416   5.369   0.388  0.2827  0.6915  0.6768
  372MOL0     C50123   6.345   5.275   0.287  0.4921  0.3711  0.1364
  372MOL0     C50124   6.322   5.141   0.360 -0.6426 -0.4327 -0.0405
  372MOL0     C50125   6.235   5.054   0.270 -0.8095 -0.9462 -0.2562
  372MOL0     C50126   6.255   5.038   0.127 -0.0100  0.2307  0.5003
  372MOL0     C50127   6.153   4.943   0.054  0.3931 -0.3654  1.1377
  372MOL0     C50128   6.178   4.805   0.093 -0.1866  0.1775 -0.2120
  372MOL0     C50129   6.085   4.707   0.029 -0.3654  0.7665 -0.1107
  372MOL0    Cl50130   6.119   4.532   0.059 -0.1444  0.1930 -0.2316
  372MOL0     C50131   6.780   5.369   0.457 -0.5458 -0.0888  0.6198
  372MOL0     C50132   6.883   5.443   0.505 -0.2913  0.8100  0.6244
  372MOL0     O50133   6.864   5.703   0.809  0.3540  0.4245  0.3698
  372MOL0     C50134   6.967   5.940   0.829  0.1662 -0.0948 -0.1444
  372MOL0     C50135   7.042   6.044   0.878 -0.1975 -0.3581  0.9654
  372MOL0     N50136   7.363   6.249   1.504  0.1483 -0.1288 -0.6800
  372MOL0     N50137   7.440   6.304   1.589  0.1980 -0.6142  0.4622
  372MOL0     C50138   8.459   6.971   1.900  0.8388  0.2506  0.6952
  372MOL0     C50139   8.554   7.062   1.885  0.6619 -1.0219 -0.0864
  372MOL0     C50140   8.985   7.266   1.928  0.0053 -0.1861  0.6668
  372MOL0     C50141   9.072   7.337   2.014 -0.0581 -0.0017  0.3252
  372MOL0     C50142   9.178   7.425   1.965 -0.2186  0.1843 -0.1331
  372MOL0     C50143   9.202   7.426   1.825 -0.2496  0.2690 -0.0343
  372MOL0     O50144   9.299   7.498   1.775  0.1477  0.3870  0.1738
  372MOL0     C50145   9.416   7.521   1.851  0.6262  0.3433 -1.2107
  372MOL0     C50146   9.528   7.591   1.779  0.0770 -0.8112 -0.0378
  372MOL0     C50147   9.499   7.740   1.759  0.5183  0.0828 -0.3016
  372MOL0     C50148   9.614   7.812   1.707  0.0748 -0.1512 -0.4755
  372MOL0     C50149   9.627   7.775   1.563 -0.6312 -0.0808 -0.7923
  372MOL0     C50150   9.652   7.720   1.457  0.0429  1.1485  0.4808
  372MOL0     C50151   9.119   7.357   1.745 -0.3039  0.1090  0.2490
  372MOL0     C50152   9.011   7.280   1.792 -0.4059  0.2646  0.8748
  372MOL0     H50153   8.810   6.898   2.023 -1.0470 -3.7913  2.2446
  372MOL0     H50154   8.646   6.723   2.029 -0.6930 -0.3874  0.9257
  372MOL0     H50155   8.247   6.791   1.861  2.1522  2.4337  0.9230
  372MOL0     H50156   8.369   6.728   1.735 -1.7223 -0.9963 -0.8666
  372MOL0     H50157   8.360   6.517   1.846 -0.9920 -1.1902 -0.3771
  372MOL0     H50158   8.224   6.565   1.941 -0.4025  1.7437  0.0152
  372MOL0     H50159   8.197   6.585   1.634  2.4764  1.3139  0.7165
  372MOL0     H50160   8.224   6.428   1.709 -3.0686 -1.1625 -1.9284
  372MOL0     H50161   8.035   6.470   1.875  5.0455  2.1426  1.4734
  372MOL0     H50162   7.992   6.613   1.774  0.2260 -0.7090  0.2203
  372MOL0     H50163   7.908   6.490   1.615 -1.3915 -0.5545  0.9894
  372MOL0     H50164   8.015   6.363   1.620 -1.4237 -1.3926 -0.5093
  372MOL0     H50165   7.906   6.273   1.834  2.7434  0.0593 -2.1801
  372MOL0     H50166   7.792   6.410   1.834 -1.5436  1.8070 -3.6064
  372MOL0     H50167   7.832   6.229   1.599 -0.3933 -0.7362 -0.1019
  372MOL0     H50168   7.710   6.205   1.721 -0.0048  0.0785  0.0192
  372MOL0     H50169   7.714   6.435   1.525 -0.6928  0.0469  0.5622
  372MOL0     H50170   7.623   6.438   1.677  0.8468 -0.2515  0.9404
  372MOL0     H50171   7.655   6.189   1.383 -1.1903 -0.6998 -1.8041
  372MOL0     H50172   7.486   6.068   1.249  0.2463 -0.6350 -0.5580
  372MOL0     H50173   7.319   6.056   1.334 -0.0500  1.3047  1.7994
  372MOL0     H50174   7.425   6.288   1.160 -0.1889  0.0416  0.2761
  372MOL0     H50175   7.260   6.253   1.232 -1.2467 -1.8569  0.8246
  372MOL0     H50176   7.259   6.045   1.077  0.9265 -0.4943 -1.1483
  372MOL0     H50177   7.413   6.103   1.001 -0.1386  1.7947 -0.6720
  372MOL0     H50178   7.316   6.321   0.969 -0.1844  0.5083  2.5885
  372MOL0     H50179   7.162   6.271   1.030  1.0936  0.4582  0.5523
  372MOL0     H50180   7.303   6.028   0.670 -2.5704  2.3986 -2.1814
  372MOL0     H50181   7.160   5.832   0.471  3.6171 -1.1660 -2.9476
  372MOL0     H50182   7.311   5.822   0.546 -1.3028  1.2763 -3.9259
  372MOL0     H50183   7.213   5.694   0.572  2.8136 -0.1508 -2.7194
  372MOL0     H50184   6.683   5.703   0.597  0.9405  0.1486  0.8927
  372MOL0     H50185   6.507   5.558   0.523  0.0155  0.8612 -0.5496
  372MOL0     H50186   6.369   5.368   0.487 -1.6723  2.0298 -0.1637
  372MOL0     H50187   6.426   5.468   0.343  2.9007 -1.2315 -3.6181
  372MOL0     H50188   6.251   5.325   0.261 -1.1573 -3.1725 -1.2826
  372MOL0     H50189   6.398   5.263   0.193  1.7252  2.7707  0.4456
  372MOL0     H50190   6.277   5.151   0.459  3.0103  0.3262  1.6913
  372MOL0     H50191   6.420   5.096   0.380 -0.4526 -0.6605 -1.3691
  372MOL0     H50192   6.215   4.959   0.320  1.2441 -1.1900  0.1875
  372MOL0     H50193   6.143   5.113   0.276  1.8801  3.6022  1.3012
  372MOL0     H50194   6.358   5.003   0.116 -0.3953 -1.0914  0.8661
  372MOL0     H50195   6.253   5.138   0.082  0.7001 -0.4471 -1.1130
  372MOL0     H50196   6.049   4.977   0.052  0.6279  0.3453 -0.2526
  372MOL0     H50197   6.185   4.946  -0.050 -2.3155  0.5000  0.2527
  372MOL0     H50198   6.139   4.798   0.195 -2.6037 -3.1861 -1.1824
  372MOL0     H50199   6.280   4.781   0.062  0.6830  2.3148  0.8105
  372MOL0     H50200   6.093   4.722  -0.079  3.0169  0.7082  0.0100
  372MOL0     H50201   5.983   4.717   0.067 -0.8077  0.2377 -1.1176
  372MOL0     H50202   6.803   5.274   0.409 -0.2476 -1.3406  3.1140
  372MOL0     H50203   6.985   5.408   0.512 -0.4561  0.5815  2.3550
  372MOL0     H50204   6.874   5.924   0.882  0.6757 -2.2742  0.1872
  372MOL0     H50205   6.994   6.098   0.959 -3.2374 -2.7797  0.9667
  372MOL0     H50206   8.357   6.997   1.874  1.5283  2.5693  0.0970
  372MOL0     H50207   8.531   7.144   1.817  0.6818  2.3489  3.6465
  372MOL0     H50208   9.038   7.347   2.117 -1.2652  0.0914 -0.0677
  372MOL0     H50209   9.232   7.485   2.039 -1.4250  2.1196 -0.7449
  372MOL0     H50210   9.393   7.585   1.937 -3.8493 -0.1973 -1.7462
  372MOL0     H50211   9.456   7.424   1.881 -0.1759  0.1646 -0.6809
  372MOL0     H50212   9.549   7.548   1.681 -0.8094 -1.7715  0.1817
  372MOL0     H50213   9.615   7.582   1.844  0.2781 -0.0935 -0.2015
  372MOL0     H50214   9.467   7.786   1.853  1.1540  1.9149 -0.9382
  372MOL0     H50215   9.416   7.742   1.687  0.8740  0.1114 -0.7139
  372MOL0     H50216   9.703   7.796   1.769  0.1779  1.9341 -0.0158
  372MOL0     H50217   9.597   7.920   1.716  1.2205  0.2102 -2.0580
  372MOL0     H50218   9.677   7.670   1.365 -3.6386  0.9756 -0.5839
  372MOL0     H50219   9.145   7.347   1.640  1.0730 -2.3668  0.7486
  372MOL0     H50220   8.947   7.230   1.721  1.4884 -0.0584 -0.6869
  373MOL0     O50221   7.671   2.850   2.677 -0.5997  0.2583  0.8960
  373MOL0     C50222   7.749   2.773   2.615 -0.2427 -0.2332 -0.3664
  373MOL0     O50223   7.717   2.650   2.562 -0.3516  0.4236 -0.0029
  373MOL0     C50224   7.585   2.620   2.572 -1.0185  0.7953 -0.4131
  373MOL0     C50225   7.529   2.566   2.687 -0.1393 -0.4305 -1.0778
  373MOL0     C50226   7.386   2.552   2.698  1.0415  0.6231  0.3814
  373MOL0     C50227   7.301   2.589   2.590 -0.3640 -0.1185 -0.2328
  373MOL0     O50228   7.161   2.579   2.599  0.2634  0.0521 -0.4121
  373MOL0     C50229   7.117   2.461   2.663 -0.4139  0.2443  0.3154
  373MOL0     C50230   6.966   2.439   2.652  0.6386  0.0042 -0.2336
  373MOL0     C50231   6.916   2.335   2.745  0.2608 -0.1235  0.2903
  373MOL0     C50232   6.763   2.318   2.767 -0.3884 -0.7269  0.3604
  373MOL0     C50233   6.678   2.311   2.645  1.0354  0.5793  0.0236
  373MOL0     C50234   6.531   2.276   2.672 -0.8761  0.0944  0.0904
  373MOL0     C50235   6.433   2.281   2.552 -0.3926  0.5038 -0.1649
  373MOL0     C50236   6.297   2.246   2.606 -0.0172 -0.3874  0.2225
  373MOL0     N50237   6.195   2.266   2.503  0.1645 -0.3637  0.3094
  373MOL0     C50238   6.111   2.374   2.503 -0.0516  1.4660 -0.1600
  373MOL0     C50239   6.024   2.345   2.397  0.6164 -0.5279 -0.1259
  373MOL0     C50240   5.898   2.430   2.373  0.3878 -0.0733  1.0416
  373MOL0     C50241   5.781   2.356   2.322 -0.3382 -0.6669  0.1951
  373MOL0     C50242   5.791   2.344   2.162  0.0253  0.7540 -0.8616
  373MOL0     C50243   5.671   2.285   2.101  0.0996  1.4435  0.1144
  373MOL0     O50244   5.683   2.312   1.958 -0.0352 -0.1713 -0.3001
  373MOL0     C50245   5.587   2.258   1.874 -0.4998 -0.0160 -0.6335
  373MOL0     C50246   5.468   2.214   1.914 -0.3402  0.4928  0.1096
  373MOL0     C50247   5.372   2.157   1.827  0.5265 -0.2024 -0.3318
  373MOL0     C50248   5.269   2.064   1.881  0.0214  0.3068  0.4044
  373MOL0     C50249   5.393   2.163   1.689 -0.2406 -0.0344 -0.0053
  373MOL0     C50250   5.306   2.095   1.594 -1.0693 -0.5382  0.1021
  373MOL0     O50251   5.376   2.020   1.505 -0.1978  0.3880  0.0845
  373MOL0     C50252   5.295   1.966   1.402  0.3745 -0.1190 -0.0722
  373MOL0     C50253   5.191   1.874   1.423 -0.6814 -0.7082 -0.2474
  373MOL0     C50254   5.129   1.819   1.319  0.2508  0.2940 -0.3332
  373MOL0     C50255   5.151   1.842   1.187 -0.6961  1.1497  0.3183
  373MOL0     O50256   5.077   1.788   1.087  0.2605 -0.4622  0.5224
  373MOL0     C50257   5.110   1.812   0.951 -0.7701  0.9578 -0.3241
  373MOL0     C50258   5.002   1.739   0.868 -0.3098  0.9889  0.9291
  373MOL0     C50259   4.864   1.774   0.915  0.2818  0.8511  0.3109
  373MOL0     C50260   4.756   1.697   0.844  0.3940 -0.5760 -0.7609
  373MOL0     C50261   4.611   1.739   0.881 -0.8001  0.5718 -0.7028
  373MOL0     C50262   4.576   1.879   0.824 -0.0692 -0.1967  0.1280
  373MOL0     C50263   4.436   1.919   0.824  0.5835 -0.2709 -0.0072
  373MOL0     C50264   4.368   1.931   0.961 -0.3685  0.4332  0.1299
  373MOL0    Cl50265   4.215   2.023   0.940  0.0687  0.4181  0.2021
  373MOL0     C50266   5.252   1.933   1.158 -0.4686  0.1269 -0.7371
  373MOL0     C50267   5.330   1.992   1.262 -0.0686 -1.1760  0.2288
  373MOL0     O50268   5.184   2.103   1.600 -1.0233  0.4560 -0.6609
  373MOL0     C50269   5.510   2.223   1.642 -0.0653 -1.6381 -0.0681
  373MOL0     C50270   5.614   2.268   1.736  0.8019  0.3122 -0.5047
  373MOL0     N50271   6.067   2.237   2.328 -0.1880  0.6245 -0.3158
  373MOL0     N50272   6.173   2.190   2.395 -0.0481 -0.3438 -0.1407
  373MOL0     C50273   7.360   2.636   2.472 -0.2099  1.0602 -1.0087
  373MOL0     C50274   7.503   2.650   2.463  0.1687  1.2622  0.6473
  373MOL0     C50275   7.880   2.826   2.592 -0.6460 -0.2548  0.8210
  373MOL0     C50276   7.977   2.749   2.522  0.5870 -0.1177 -0.0576
  373MOL0     C50277   8.102   2.806   2.484 -0.1300 -0.1332 -0.5104
  373MOL0     C50278   8.132   2.935   2.520 -0.6209  0.2501 -0.8066
  373MOL0     O50279   8.261   2.973   2.488 -0.2461 -0.1143  0.2033
  373MOL0     C50280   8.283   3.112   2.503  0.3461 -0.0513  0.3368
  373MOL0     C50281   8.422   3.137   2.466  0.3233  0.7844 -0.2317
  373MOL0     C50282   8.426   3.247   2.365 -0.2495 -0.8294 -0.7038
  373MOL0     C50283   8.559   3.299   2.340 -0.8831 -1.4324 -0.1411
  373MOL0     C50284   8.663   3.195   2.335 -0.0292 -1.0904  0.7938
  373MOL0     C50285   8.737   3.104   2.349  0.5229 -0.6418  0.4181
  373MOL0     C50286   8.040   3.003   2.601 -0.6929 -0.2384  0.0530
  373MOL0     C50287   7.918   2.954   2.636  0.3992  0.6276 -0.5724
  373MOL0     H50288   7.593   2.553   2.774  2.2847  4.7691 -1.6668
  373MOL0     H50289   7.337   2.521   2.790 -0.2321 -0.3713 -0.5932
  373MOL0     H50290   7.167   2.369   2.630 -1.5636  0.3251 -1.8128
  373MOL0     H50291   7.129   2.479   2.770 -0.5726  3.7847 -0.1439
  373MOL0     H50292   6.914   2.531   2.681  2.0730  0.1084  2.2625
  373MOL0     H50293   6.950   2.389   2.556 -0.3779 -1.9496  0.8711
  373MOL0     H50294   6.949   2.237   2.708 -1.3351 -1.8213  3.0097
  373MOL0     H50295   6.952   2.342   2.847  0.5123 -3.5897  0.5677
  373MOL0     H50296   6.755   2.223   2.820 -3.4394 -0.7032  0.1271
  373MOL0     H50297   6.721   2.395   2.832  0.0354 -1.2173  1.2376
  373MOL0     H50298   6.678   2.412   2.603  1.7003  0.7122  0.3315
  373MOL0     H50299   6.720   2.245   2.570  1.3056  1.8968 -1.0211
  373MOL0     H50300   6.535   2.171   2.703  0.0707  0.3470  0.8617
  373MOL0     H50301   6.494   2.338   2.754  2.2602  0.3929  1.4102
  373MOL0     H50302   6.433   2.383   2.513 -2.9224 -0.4106 -2.9242
  373MOL0     H50303   6.467   2.221   2.467  0.4719  0.9668 -0.1585
  373MOL0     H50304   6.277   2.299   2.699 -1.7686 -1.9638  0.8002
  373MOL0     H50305   6.298   2.136   2.600 -1.2795 -0.3990 -0.0966
  373MOL0     H50306   6.107   2.459   2.570  1.4046  0.7691  0.8917
  373MOL0     H50307   5.870   2.482   2.465 -0.4948 -0.0296  0.7565
  373MOL0     H50308   5.919   2.505   2.296 -0.7118 -1.5844 -0.8351
  373MOL0     H50309   5.701   2.428   2.341  1.4994  1.3192  0.9181
  373MOL0     H50310   5.778   2.255   2.363  2.7519 -0.5517  1.0024
  373MOL0     H50311   5.878   2.286   2.128  0.9263  0.7843  1.2277
  373MOL0     H50312   5.804   2.444   2.119  0.3739  0.1202 -2.2863
  373MOL0     H50313   5.587   2.344   2.139 -1.6678 -0.5236 -0.5653
  373MOL0     H50314   5.658   2.178   2.122 -1.4965  1.0260 -2.5638
  373MOL0     H50315   5.446   2.199   2.019  0.6735 -1.4593  0.0930
  373MOL0     H50316   5.294   2.025   1.980 -0.9365 -0.7054  0.2690
  373MOL0     H50317   5.170   2.108   1.896 -1.3904 -2.1700 -1.0414
  373MOL0     H50318   5.262   1.976   1.816 -1.8511  0.0524  0.8703
  373MOL0     H50319   5.159   1.847   1.523 -2.8687  0.8774 -0.4675
  373MOL0     H50320   5.048   1.750   1.341  1.0270 -1.0312 -1.4549
  373MOL0     H50321   5.120   1.919   0.929  2.0796  1.1716  1.4677
  373MOL0     H50322   5.198   1.752   0.926  0.7011  2.0310  1.9652
  373MOL0     H50323   5.002   1.771   0.764 -1.4551  3.7000  1.6656
  373MOL0     H50324   5.022   1.633   0.881 -1.2219  0.5955 -0.6747
  373MOL0     H50325   4.842   1.881   0.908  0.2743  0.7947 -0.6792
  373MOL0     H50326   4.846   1.748   1.020 -1.1040  0.9396  0.1222
  373MOL0     H50327   4.762   1.709   0.735 -2.0351  2.4402 -0.6960
  373MOL0     H50328   4.768   1.591   0.868  2.9015 -0.4977 -1.3512
  373MOL0     H50329   4.604   1.738   0.990  0.6493 -0.3300 -0.5894
  373MOL0     H50330   4.539   1.667   0.840 -2.9399  1.8845  0.5371
  373MOL0     H50331   4.631   1.953   0.882  3.4696 -3.1218  0.8873
  373MOL0     H50332   4.602   1.874   0.718 -4.1160 -0.0970 -1.0239
  373MOL0     H50333   4.378   1.854   0.758  1.2000  0.9298 -1.7999
  373MOL0     H50334   4.432   2.017   0.776 -0.8853 -0.1900  0.2479
  373MOL0     H50335   4.428   1.990   1.031 -2.9427 -0.7205  3.5897
  373MOL0     H50336   4.345   1.838   1.015 -1.6033  1.0627  0.7242
  373MOL0     H50337   5.270   1.948   1.052  0.2840 -4.1309 -1.3861
  373MOL0     H50338   5.406   2.067   1.244 -2.2051  1.6447  2.0643
  373MOL0     H50339   5.548   2.245   1.542  3.6497  0.9443  1.6805
  373MOL0     H50340   5.707   2.307   1.696  2.0806 -3.4965 -1.7230
  373MOL0     H50341   7.296   2.653   2.386 -1.2775 -0.5240 -0.5746
  373MOL0     H50342   7.541   2.684   2.367  3.1776 -0.7578  1.0066
  373MOL0     H50343   7.973   2.645   2.492  2.6985  0.5887 -3.2188
  373MOL0     H50344   8.179   2.750   2.432 -1.8194  0.0147 -3.3790
  373MOL0     H50345   8.211   3.158   2.435  0.9755  0.9230  0.2958
  373MOL0     H50346   8.262   3.150   2.604 -1.6456 -2.7544  1.0485
  373MOL0     H50347   8.472   3.046   2.432  1.0567  1.3219 -0.6464
  373MOL0     H50348   8.472   3.165   2.560 -0.6107 -0.9155  0.8074
  373MOL0     H50349   8.373   3.336   2.401  1.4921  0.1943 -0.5700
  373MOL0     H50350   8.385   3.204   2.273  1.8901  0.1962 -2.2324
  373MOL0     H50351   8.579   3.373   2.418 -0.4936  0.8139 -2.2410
  373MOL0     H50352   8.570   3.366   2.254  3.3920  0.8533  1.9003
  373MOL0     H50353   8.818   3.035   2.353  0.8594 -0.2405  0.5846
  373MOL0     H50354   8.064   3.102   2.638  2.4936 -1.7464  2.5612
  373MOL0     H50355   7.843   3.015   2.685 -0.4389  0.1248 -1.1833
  374MOL0     O50356   7.827   1.157  10.731 -0.3392 -0.3036  0.2610
  374MOL0     C50357   7.944   1.178  10.753 -0.3690  0.2066 -0.7363
  374MOL0     O50358   8.007   1.147  10.874 -0.3796 -0.1718 -0.5501
  374MOL0     C50359   7.935   1.105  10.985 -0.3789 -0.5652 -0.6147
  374MOL0     C50360   7.804   1.166  11.010 -0.4854  0.6706 -0.2798
  374MOL0     C50361   7.741   1.125  11.132 -0.3963 -0.4015 -0.2501
  374MOL0     C50362   7.792   1.030  11.210  0.0521 -0.4983 -0.0087
  374MOL0     O50363   7.714   0.967  11.302 -0.0688 -0.2272 -0.1770
  374MOL0     C50364   7.575   1.006  11.325 -0.2659 -0.3040 -0.3371
  374MOL0     C50365   7.568   1.128  11.410 -0.8465 -1.1615 -0.1288
  374MOL0     C50366   7.431   1.150  11.470 -0.0905  0.6013 -0.6490
  374MOL0     C50367   7.321   1.189  11.372 -0.0572 -0.5987 -0.0245
  374MOL0     C50368   7.212   1.247  11.456  0.6310  0.0931 -0.2333
  374MOL0     C50369   7.093   1.276  11.375  0.2567 -0.5359 -0.5968
  374MOL0     C50370   6.979   1.338  11.449 -0.2032 -0.2052  0.4769
  374MOL0     C50371   6.863   1.368  11.349  0.1487 -0.4149 -0.1807
  374MOL0     N50372   6.796   1.256  11.280  0.0174 -0.1601 -0.6242
  374MOL0     C50373   6.713   1.168  11.351 -0.1168  0.0140  0.9134
  374MOL0     C50374   6.692   1.065  11.257 -0.3495 -0.0231 -0.2087
  374MOL0     C50375   6.610   0.937  11.273  0.0599  0.1215 -0.1284
  374MOL0     C50376   6.624   0.882  11.421  0.7714 -0.1983 -0.6260
  374MOL0     C50377   6.531   0.764  11.430  0.0230 -0.3159 -0.3847
  374MOL0     C50378   6.586   0.664  11.525 -0.8525 -0.2684  0.6346
  374MOL0     O50379   6.663   0.578  11.433 -0.8681  0.2228  0.0392
  374MOL0     C50380   6.784   0.527  11.486  0.6412  0.3929  0.5068
  374MOL0     C50381   6.776   0.466  11.611  0.2877 -0.3596 -0.8495
  374MOL0     C50382   6.890   0.417  11.676  0.0922  0.3410 -0.1473
  374MOL0     C50383   6.869   0.361  11.814  0.3914  0.4838  0.2968
  374MOL0     C50384   7.014   0.419  11.605  0.7922 -0.1625 -0.6575
  374MOL0     C50385   7.146   0.366  11.664 -0.0835  0.6604  0.0551
  374MOL0     O50386   7.259   0.411  11.594 -0.7396 -0.5088 -0.3054
  374MOL0     C50387   7.390   0.369  11.632  0.0108 -0.3985 -0.0528
  374MOL0     C50388   7.428   0.379  11.772 -0.0052 -0.0337  0.4156
  374MOL0     C50389   7.565   0.347  11.808 -1.1566 -0.0929  0.1512
  374MOL0     C50390   7.661   0.312  11.713  0.2520  0.0795  0.4237
  374MOL0     O50391   7.789   0.286  11.760  0.2402 -0.6687  0.0096
  374MOL0     C50392   7.891   0.284  11.661 -0.1049 -1.1543 -0.4231
  374MOL0     C50393   8.034   0.288  11.716 -0.5117 -0.2519  0.0181
  374MOL0     C50394   8.081   0.423  11.749 -0.7109 -0.2118  0.1580
  374MOL0     C50395   8.189   0.433  11.852  0.9208 -0.3137  0.0442
  374MOL0     C50396   8.307   0.347  11.822 -0.7816 -0.2565 -0.5897
  374MOL0     C50397   8.371   0.361  11.684 -0.1253 -0.1657 -0.4452
  374MOL0     C50398   8.397   0.507  11.646  0.3383  0.0356 -0.1880
  374MOL0     C50399   8.441   0.530  11.502 -0.0219 -0.5606  0.1408
  374MOL0    Cl50400   8.305   0.499  11.386  0.3578 -0.0053 -0.1253
  374MOL0     C50401   7.615   0.296  11.577  0.2361  0.2260  0.1244
  374MOL0     C50402   7.482   0.329  11.538 -0.0568 -0.2991  0.1111
  374MOL0     O50403   7.149   0.294  11.767  0.6104  0.4573 -0.4141
  374MOL0     C50404   7.020   0.491  11.481  0.4598  0.0179  0.1001
  374MOL0     C50405   6.908   0.540  11.420 -0.2520  0.3202  0.0513
  374MOL0     N50406   6.755   1.106  11.136 -0.8090 -0.0010  0.1384
  374MOL0     N50407   6.822   1.213  11.160 -0.6870 -0.0123 -0.2247
  374MOL0     C50408   7.914   0.975  11.189 -0.3689 -0.3068  0.1790
  374MOL0     C50409   7.996   1.023  11.084  0.4005 -0.7280  0.6777
  374MOL0     C50410   8.030   1.232  10.642 -0.3484 -0.1834  0.3761
  374MOL0     C50411   8.164   1.271  10.664  0.6270  0.7490  0.4380
  374MOL0     C50412   8.242   1.320  10.557  0.3434 -0.4394 -0.4286
  374MOL0     C50413   8.184   1.355  10.434  0.5067 -0.1042  0.2923
  374MOL0     O50414   8.243   1.435  10.344  0.2255 -0.4321  0.0703
  374MOL0     C50415   8.386   1.423  10.322  0.2312 -0.2409  0.4074
  374MOL0     C50416   8.416   1.333  10.197  0.1343 -0.0584  0.1872
  374MOL0     C50417   8.567   1.338  10.158  0.0088  0.5499  0.7529
  374MOL0     C50418   8.650   1.293  10.267 -0.0474  0.7255  0.6260
  374MOL0     C50419   8.790   1.286  10.219 -0.4813 -0.3125  0.4497
  374MOL0     C50420   8.904   1.265  10.186 -0.1081  0.1365  0.6020
  374MOL0     C50421   8.050   1.318  10.409 -0.3902  0.8284 -0.5368
  374MOL0     C50422   7.973   1.255  10.509 -1.2357 -0.4053 -0.4502
  374MOL0     H50423   7.762   1.246  10.950  2.7198  2.6039 -0.1635
  374MOL0     H50424   7.646   1.175  11.150 -0.3186  0.0274 -1.0078
  374MOL0     H50425   7.521   1.014  11.230  1.9371 -1.6571 -1.7948
  374MOL0     H50426   7.536   0.923  11.384  0.7864 -1.0263 -0.6403
  374MOL0     H50427   7.641   1.126  11.491  0.2994  0.6615 -1.0417
  374MOL0     H50428   7.589   1.220  11.354 -1.8130  1.2491  3.1220
  374MOL0     H50429   7.406   1.062  11.529 -0.2249 -1.5459 -3.6882
  374MOL0     H50430   7.444   1.228  11.546  0.0537  0.3466 -0.4122
  374MOL0     H50431   7.354   1.272  11.310  0.2632  1.5084  2.7778
  374MOL0     H50432   7.297   1.107  11.303  1.7069 -2.5952  1.5950
  374MOL0     H50433   7.195   1.171  11.533  1.7008  0.7526  0.6877
  374MOL0     H50434   7.247   1.330  11.519 -1.5592 -0.7429  2.2501
  374MOL0     H50435   7.128   1.348  11.300 -0.0869  2.3015  1.7691
  374MOL0     H50436   7.059   1.179  11.337 -0.8956 -1.4634  2.4452
  374MOL0     H50437   6.936   1.270  11.524 -2.1039 -0.8173 -1.0780
  374MOL0     H50438   7.005   1.435  11.492 -1.7047  0.3763  0.1532
  374MOL0     H50439   6.900   1.424  11.263  2.3212 -1.0492  0.2792
  374MOL0     H50440   6.792   1.428  11.407  1.2428 -0.4587  1.2680
  374MOL0     H50441   6.668   1.172  11.449  1.2507  1.0221  1.5240
  374MOL0     H50442   6.505   0.947  11.244  0.7365 -3.1146 -4.7380
  374MOL0     H50443   6.634   0.856  11.204 -0.2183  1.0759 -1.3891
  374MOL0     H50444   6.583   0.955  11.490 -2.2701 -2.7682  0.5500
  374MOL0     H50445   6.726   0.848  11.443  0.0397 -1.6738  0.7289
  374MOL0     H50446   6.494   0.727  11.334  2.4451 -1.2939 -1.0229
  374MOL0     H50447   6.445   0.806  11.484  0.5346  3.8685 -2.4610
  374MOL0     H50448   6.506   0.608  11.574 -0.2602 -1.6595  0.0634
  374MOL0     H50449   6.652   0.695  11.605 -0.2147 -0.9452  0.3790
  374MOL0     H50450   6.676   0.453  11.651  0.4189 -1.7186 -0.9347
  374MOL0     H50451   6.773   0.396  11.855  0.7428  0.0645  1.5087
  374MOL0     H50452   6.874   0.252  11.805 -1.2241  0.5121 -1.8336
  374MOL0     H50453   6.946   0.405  11.878  1.1137  3.8403 -2.5482
  374MOL0     H50454   7.349   0.403  11.842 -0.0766  0.2283  0.2489
  374MOL0     H50455   7.606   0.345  11.908  1.2500 -3.1281 -0.7296
  374MOL0     H50456   7.892   0.183  11.618  2.0966 -0.7421 -1.4558
  374MOL0     H50457   7.866   0.356  11.582  0.9075 -1.7954 -1.3547
  374MOL0     H50458   8.039   0.236  11.812  2.9002  0.3382  0.2770
  374MOL0     H50459   8.101   0.239  11.645 -0.2162 -0.3608  0.3654
  374MOL0     H50460   7.993   0.478  11.781 -0.9606  0.1170 -1.0768
  374MOL0     H50461   8.122   0.472  11.660 -1.5668  0.7856  0.2941
  374MOL0     H50462   8.217   0.538  11.868  0.7390  0.1258 -2.2644
  374MOL0     H50463   8.149   0.394  11.946  0.4146 -0.5871 -0.2884
  374MOL0     H50464   8.289   0.241  11.841  0.9734 -0.6468 -0.9540
  374MOL0     H50465   8.381   0.391  11.888 -2.3960  3.6455 -1.0681
  374MOL0     H50466   8.464   0.308  11.703 -1.6658 -2.5915  0.8569
  374MOL0     H50467   8.317   0.308  11.605 -1.8488 -0.6970  1.0036
  374MOL0     H50468   8.472   0.543  11.718  0.0238 -0.7277  0.5354
  374MOL0     H50469   8.310   0.571  11.660  1.4235  1.6385 -0.4708
  374MOL0     H50470   8.522   0.460  11.477  0.4278 -0.6026  1.6476
  374MOL0     H50471   8.478   0.628  11.471  0.1602 -0.9594 -0.9558
  374MOL0     H50472   7.681   0.247  11.507  2.4807  2.7803  0.3112
  374MOL0     H50473   7.453   0.322  11.434  3.1414 -0.2432 -0.8799
  374MOL0     H50474   7.113   0.503  11.426  1.0096 -4.2678 -0.2465
  374MOL0     H50475   6.909   0.579  11.318  0.1744  2.9079  0.9740
  374MOL0     H50476   7.939   0.890  11.251  1.1125 -0.7638 -0.9770
  374MOL0     H50477   8.090   0.971  11.068  0.5044 -0.6806  1.1465
  374MOL0     H50478   8.201   1.258  10.765 -0.7292  0.3058  0.9072
  374MOL0     H50479   8.345   1.345  10.578 -0.3594 -0.2534  3.4861
  374MOL0     H50480   8.424   1.523  10.299  0.0335 -0.2853 -0.1200
  374MOL0     H50481   8.439   1.394  10.414 -0.6062  0.3973  1.1116
  374MOL0     H50482   8.355   1.364  10.111 -1.9449 -3.2051  0.3558
  374MOL0     H50483   8.378   1.232  10.215  1.2275 -0.0585  3.1158
  374MOL0     H50484   8.595   1.434  10.114 -0.4213 -0.7000 -2.5634
  374MOL0     H50485   8.571   1.272  10.070 -0.3075 -0.6540  1.6152
  374MOL0     H50486   8.617   1.199  10.311  1.3515 -0.3069 -0.4460
  374MOL0     H50487   8.631   1.358  10.353  0.8702 -0.5091  1.7916
  374MOL0     H50488   9.008   1.254  10.162 -0.1630  0.2013  0.3378
  374MOL0     H50489   8.013   1.355  10.314 -0.4226  3.9292  0.5832
  374MOL0     H50490   7.873   1.218  10.490 -0.8498 -0.3780 -2.8873
  375MOL0     O50491   2.191  10.328   6.576  0.3999  0.3907  0.3475
  375MOL0     C50492   2.151  10.215   6.569 -0.4550 -0.4778  0.1900
  375MOL0     O50493   2.228  10.101   6.566 -0.0039 -0.1563 -0.4915
  375MOL0     C50494   2.362  10.109   6.594  0.3928  0.4687 -0.0784
  375MOL0     C50495   2.425  10.005   6.668  0.3290  0.5295 -0.2195
  375MOL0     C50496   2.564  10.010   6.676  0.4664 -0.2768  0.0397
  375MOL0     C50497   2.644  10.107   6.616 -0.4223  0.2858  1.2071
  375MOL0     O50498   2.783  10.123   6.613  0.1315 -0.3364  0.9006
  375MOL0     C50499   2.846  10.060   6.722 -0.5389  0.6091 -0.1663
  375MOL0     C50500   3.002  10.082   6.724 -0.1529  0.0981  0.3490
  375MOL0     C50501   3.067  10.108   6.584 -0.0451  0.5288 -0.6129
  375MOL0     C50502   3.104   9.978   6.512  0.4886 -0.6144 -0.3107
  375MOL0     C50503   3.171   9.983   6.375 -0.1945  0.4468 -0.5988
  375MOL0     C50504   3.316  10.015   6.380  0.0887 -0.8954  0.1986
  375MOL0     C50505   3.382  10.024   6.245 -0.3651 -0.2263  1.2431
  375MOL0     C50506   3.469   9.897   6.226 -0.2362 -0.8220 -0.3924
  375MOL0     N50507   3.592   9.906   6.317  0.2349 -0.2191 -0.1656
  375MOL0     C50508   3.655  10.019   6.371 -0.1838 -0.6918 -0.1239
  375MOL0     C50509   3.698   9.987   6.498  0.2315  0.6780  0.4108
  375MOL0     C50510   3.778  10.079   6.596  0.3539  0.5341  0.1996
  375MOL0     C50511   3.728  10.221   6.596 -0.2791  0.1803 -0.2864
  375MOL0     C50512   3.584  10.221   6.659 -1.3208 -0.0159 -0.2868
  375MOL0     C50513   3.547  10.361   6.677 -0.4328 -0.2575 -0.1008
  375MOL0     O50514   3.544  10.429   6.549 -0.6624 -0.1874 -0.7553
  375MOL0     C50515   3.433  10.408   6.473 -0.2578 -0.4610  0.1893
  375MOL0     C50516   3.449  10.391   6.332 -0.5399  0.1017 -0.0594
  375MOL0     C50517   3.346  10.387   6.241  0.9262 -0.4273  0.2385
  375MOL0     C50518   3.373  10.368   6.095  0.1222 -0.5039  0.4330
  375MOL0     C50519   3.215  10.384   6.297 -0.2062  0.4314 -0.4824
  375MOL0     C50520   3.083  10.356   6.223 -0.4262 -0.0060 -0.4432
  375MOL0     O50521   2.961  10.370   6.289 -0.2204  0.0079  0.3203
  375MOL0     C50522   2.846  10.313   6.234 -0.3440  0.2888 -0.8774
  375MOL0     C50523   2.794  10.187   6.268  0.0939 -0.1126  0.5481
  375MOL0     C50524   2.698  10.126   6.199 -0.8282  0.5267  0.1814
  375MOL0     C50525   2.637  10.182   6.082 -0.2973  0.1609  0.5436
  375MOL0     O50526   2.558  10.104   6.007 -0.0050  0.0929 -0.0227
  375MOL0     C50527   2.472  10.166   5.915 -0.3297  0.2101  0.7855
  375MOL0     C50528   2.376  10.071   5.852 -0.0978  0.0820  0.1298
  375MOL0     C50529   2.309  10.126   5.728 -0.2826 -0.1485  0.3212
  375MOL0     C50530   2.260  10.273   5.759  0.5907 -0.0299 -0.5526
  375MOL0     C50531   2.180  10.317   5.634  0.0367  0.5518 -0.8651
  375MOL0     C50532   2.132  10.459   5.631 -0.6568 -0.0278  0.5437
  375MOL0     C50533   2.057  10.497   5.764  0.3203 -0.1140  0.6490
  375MOL0     C50534   1.965  10.618   5.748  0.0451  0.0625 -0.4509
  375MOL0    Cl50535   1.819  10.593   5.654  0.5463  0.2442 -0.1156
  375MOL0     C50536   2.686  10.311   6.042  0.4622 -0.0442  0.1094
  375MOL0     C50537   2.790  10.372   6.121  0.2968 -0.3247  0.0185
  375MOL0     O50538   3.094  10.319   6.106 -0.4444  0.6534 -0.5416
  375MOL0     C50539   3.199  10.402   6.435 -0.0494 -0.3117 -0.8413
  375MOL0     C50540   3.305  10.420   6.522  1.1338 -0.1497 -0.1906
  375MOL0     N50541   3.662   9.859   6.530  0.1289  0.4934  0.5693
  375MOL0     N50542   3.606   9.814   6.420  0.0602  0.3518  1.3969
  375MOL0     C50543   2.582  10.198   6.533 -0.3605  0.0380  0.3094
  375MOL0     C50544   2.443  10.207   6.530  0.0848 -0.4112 -0.0988
  375MOL0     C50545   2.007  10.194   6.552  0.0213 -0.5838 -0.2594
  375MOL0     C50546   1.918  10.305   6.558 -0.1459  0.4850  0.6740
  375MOL0     C50547   1.780  10.274   6.553 -0.8322 -0.6760  0.0932
  375MOL0     C50548   1.723  10.156   6.510 -1.0708  0.4222  0.0373
  375MOL0     O50549   1.595  10.135   6.483  0.0918 -0.6654 -0.8060
  375MOL0     C50550   1.503  10.108   6.592 -0.2213  0.7467  0.1693
  375MOL0     C50551   1.472   9.967   6.621  0.2713 -0.1233 -0.3229
  375MOL0     C50552   1.367   9.902   6.524 -0.6328 -0.6343 -0.0192
  375MOL0     C50553   1.224   9.963   6.517  0.4277  0.9565 -0.4956
  375MOL0     C50554   1.152   9.941   6.644  0.5033 -0.1914  0.0087
  375MOL0     C50555   1.089   9.942   6.747 -0.2265  0.7333  0.1751
  375MOL0     C50556   1.815  10.046   6.501 -0.1196 -0.0011 -0.3211
  375MOL0     C50557   1.955  10.069   6.518  0.4118  0.5358  0.1122
  375MOL0     H50558   2.365   9.929   6.717  1.9959 -1.7316 -1.5057
  375MOL0     H50559   2.609   9.929   6.733 -0.6333 -0.7436  0.2578
  375MOL0     H50560   2.803  10.105   6.812  0.1323 -0.5825  0.7764
  375MOL0     H50561   2.824   9.953   6.721 -0.9923  0.6940  0.2416
  375MOL0     H50562   3.021  10.167   6.790 -1.9267  0.8090  0.0019
  375MOL0     H50563   3.053   9.997   6.771 -0.4616 -0.5026 -0.3816
  375MOL0     H50564   2.993  10.162   6.525  0.4756  1.1006 -0.7596
  375MOL0     H50565   3.157  10.169   6.599  0.4225 -0.9394  4.3516
  375MOL0     H50566   3.161   9.911   6.578 -1.2149 -2.0883 -0.2350
  375MOL0     H50567   3.011   9.924   6.493  2.3639 -4.1654 -0.3059
  375MOL0     H50568   3.153   9.881   6.340 -0.9778  0.3261  0.1158
  375MOL0     H50569   3.112  10.056   6.319 -0.4235 -0.0247 -0.9685
  375MOL0     H50570   3.335  10.115   6.420 -1.7968 -1.0756  1.6785
  375MOL0     H50571   3.367   9.950   6.452 -0.1788 -1.3373 -0.0094
  375MOL0     H50572   3.312  10.038   6.163  0.7138  0.3768  0.3866
  375MOL0     H50573   3.448  10.111   6.233  1.3400 -1.7824 -2.3847
  375MOL0     H50574   3.511   9.893   6.125  0.6308  0.3858 -0.0917
  375MOL0     H50575   3.407   9.807   6.236 -0.4235 -0.4873  2.1247
  375MOL0     H50576   3.653  10.119   6.328 -2.4563 -0.8121 -0.4475
  375MOL0     H50577   3.776  10.039   6.698  1.1339 -1.0941 -0.3830
  375MOL0     H50578   3.882  10.075   6.562  0.0594  1.7662 -0.9086
  375MOL0     H50579   3.742  10.281   6.506  0.8036  0.9349  0.3655
  375MOL0     H50580   3.788  10.272   6.672 -0.8196 -0.4829  0.6118
  375MOL0     H50581   3.590  10.162   6.751 -0.3142  0.7714  0.1651
  375MOL0     H50582   3.516  10.166   6.592 -1.1366 -0.9745  0.2831
  375MOL0     H50583   3.622  10.412   6.738 -1.7351  0.8696  0.6054
  375MOL0     H50584   3.451  10.363   6.729 -1.2501  1.5747 -1.5768
  375MOL0     H50585   3.554  10.392   6.305  0.5047  1.7412  3.3805
  375MOL0     H50586   3.349  10.270   6.051 -1.5868 -0.0647  0.3262
  375MOL0     H50587   3.309  10.443   6.048 -1.8926 -2.0197  0.6425
  375MOL0     H50588   3.479  10.386   6.073  0.2165 -2.1267 -0.6315
  375MOL0     H50589   2.840  10.134   6.351  1.2956 -1.0197 -0.6574
  375MOL0     H50590   2.672  10.023   6.223 -2.6218  1.1165  0.8916
  375MOL0     H50591   2.423  10.246   5.971  0.8927  1.5715 -0.0395
  375MOL0     H50592   2.539  10.210   5.842  0.9752 -0.6132  1.4504
  375MOL0     H50593   2.440   9.990   5.818  0.1729  0.4354 -0.2050
  375MOL0     H50594   2.296  10.054   5.925 -0.7451  0.6094 -0.4365
  375MOL0     H50595   2.233  10.066   5.676  2.6198 -1.6133 -2.5462
  375MOL0     H50596   2.383  10.118   5.649  1.7220 -0.8985  2.1607
  375MOL0     H50597   2.192  10.266   5.844 -2.0319 -2.4177 -2.6458
  375MOL0     H50598   2.346  10.337   5.782 -1.1119  1.2804  2.7823
  375MOL0     H50599   2.098  10.244   5.638  0.1165  0.5146  0.9360
  375MOL0     H50600   2.242  10.292   5.548  1.3822 -2.4290  0.7944
  375MOL0     H50601   2.227  10.510   5.613  0.3321 -0.8052  3.0923
  375MOL0     H50602   2.058  10.471   5.552 -0.5435  1.3592  0.6106
  375MOL0     H50603   2.126  10.511   5.848  0.1267 -0.0744  0.8024
  375MOL0     H50604   1.989  10.415   5.788 -1.8999  0.7141 -2.2742
  375MOL0     H50605   2.015  10.697   5.692 -1.5303  1.2260 -0.2786
  375MOL0     H50606   1.943  10.668   5.843  0.4212 -1.1907  0.3292
  375MOL0     H50607   2.636  10.361   5.960  0.9778 -0.1047 -0.2503
  375MOL0     H50608   2.845  10.459   6.085  1.2148  1.5276  5.0238
  375MOL0     H50609   3.101  10.388   6.480  0.8204  0.1757  1.3648
  375MOL0     H50610   3.277  10.441   6.625  0.2653 -0.4128 -0.3630
  375MOL0     H50611   2.646  10.268   6.480 -1.9664 -0.1915 -2.0954
  375MOL0     H50612   2.403  10.288   6.470  1.9675  1.8068  1.4663
  375MOL0     H50613   1.945  10.409   6.572  0.9301  0.4055 -0.5730
  375MOL0     H50614   1.704  10.351   6.565 -0.2822 -0.1394  0.2211
  375MOL0     H50615   1.543  10.147   6.686  1.7465 -1.7151  0.4487
  375MOL0     H50616   1.414  10.169   6.572 -2.5534 -2.1425  0.9066
  375MOL0     H50617   1.437   9.952   6.724  1.0714 -2.2023 -0.2972
  375MOL0     H50618   1.565   9.910   6.606 -0.3657 -1.8357  1.7337
  375MOL0     H50619   1.372   9.793   6.536  1.3053 -1.0626 -3.3880
  375MOL0     H50620   1.406   9.908   6.422 -2.0795 -2.2292 -0.7227
  375MOL0     H50621   1.169   9.908   6.440 -3.5120  0.7580  2.1663
  375MOL0     H50622   1.226  10.072   6.502  0.1681  1.7996  4.0204
  375MOL0     H50623   1.037   9.932   6.840  1.6276 -3.1512  0.9825
  375MOL0     H50624   1.779   9.947   6.475 -1.2286  0.7744 -1.9028
  375MOL0     H50625   2.021   9.984   6.512  2.0447  1.6182  1.6858
  376MOL0     O50626   1.666   8.419   4.105 -0.7609 -0.0192 -0.1962
  376MOL0     C50627   1.706   8.537   4.096  0.0361  0.4426 -0.7454
  376MOL0     O50628   1.641   8.648   4.045  0.4673  0.5859 -0.4485
  376MOL0     C50629   1.520   8.625   3.988  0.3607  0.0147  0.5282
  376MOL0     C50630   1.505   8.572   3.862 -0.5110  1.2258 -0.4771
  376MOL0     C50631   1.382   8.542   3.800  0.8592 -0.0153  0.3000
  376MOL0     C50632   1.265   8.568   3.869  0.7046 -0.7814 -0.4914
  376MOL0     O50633   1.145   8.533   3.821 -0.2291 -0.6425  0.4507
  376MOL0     C50634   1.121   8.387   3.806  0.1200 -0.3215 -0.3222
  376MOL0     C50635   1.122   8.300   3.932  0.9025 -0.7783  0.2543
  376MOL0     C50636   1.003   8.309   4.025 -0.4235  0.0815 -0.4335
  376MOL0     C50637   0.987   8.435   4.098  0.0474  0.6221 -0.6834
  376MOL0     C50638   0.900   8.434   4.221  0.2124  0.6636  0.3265
  376MOL0     C50639   0.749   8.442   4.195 -0.1424 -0.1438  0.0954
  376MOL0     C50640   0.681   8.472   4.328 -0.7467 -0.3395  0.5817
  376MOL0     C50641   0.533   8.514   4.316  0.7397 -0.4092 -0.1903
  376MOL0     N50642   0.474   8.533   4.447  0.2044  0.9283 -0.7011
  376MOL0     C50643   0.402   8.453   4.532 -0.0312 -0.0956 -0.3339
  376MOL0     C50644   0.348   8.544   4.618  0.1483 -0.6282 -0.1345
  376MOL0     C50645   0.261   8.522   4.739 -0.6331 -0.6158  0.0520
  376MOL0     C50646   0.139   8.606   4.708  1.1758 -0.2369  0.1153
  376MOL0     C50647   0.018   8.588   4.809  0.6501 -0.4296 -0.5787
  376MOL0     C50648  -0.041   8.722   4.815 -0.6047  0.1075 -0.7487
  376MOL0     O50649  -0.093   8.766   4.690  0.4416 -0.2559 -0.3604
  376MOL0     C50650  -0.214   8.729   4.643 -0.4734  0.5389 -1.4008
  376MOL0     C50651  -0.305   8.650   4.720  0.0890  0.5646  0.5953
  376MOL0     C50652  -0.428   8.604   4.667 -0.0163  0.4405 -0.2666
  376MOL0     C50653  -0.505   8.495   4.737  0.1275 -0.2130 -0.8619
  376MOL0     C50654  -0.479   8.664   4.541  0.2165 -0.1019 -0.2929
  376MOL0     C50655  -0.602   8.630   4.472  0.3834 -0.3194 -0.1729
  376MOL0     O50656  -0.708   8.598   4.545  0.3677 -1.1192 -0.4597
  376MOL0     C50657  -0.825   8.553   4.495  0.5239  0.6533  0.3317
  376MOL0     C50658  -0.858   8.482   4.377  0.1469 -0.3481  0.5151
  376MOL0     C50659  -0.986   8.439   4.356  0.5819  0.0111 -1.1939
  376MOL0     C50660  -1.094   8.471   4.446 -0.0412  0.2583  0.3438
  376MOL0     O50661  -1.230   8.441   4.427 -0.5554  0.6328  0.8310
  376MOL0     C50662  -1.273   8.345   4.334 -0.6850  0.4837  0.0381
  376MOL0     C50663  -1.424   8.367   4.310  0.2290  0.4326 -0.6039
  376MOL0     C50664  -1.488   8.249   4.247 -0.1041  0.9224 -0.0220
  376MOL0     C50665  -1.638   8.255   4.232  0.0004  0.8835  0.6966
  376MOL0     C50666  -1.690   8.147   4.144 -0.0053 -0.8940  0.8068
  376MOL0     C50667  -1.676   7.999   4.186  0.5416 -1.2576 -0.3976
  376MOL0     C50668  -1.769   7.966   4.306  0.9958  0.2380  0.0392
  376MOL0     C50669  -1.903   7.912   4.249  0.1503 -0.2762 -0.5079
  376MOL0    Cl50670  -2.012   8.035   4.182 -0.2225  0.2179  0.0785
  376MOL0     C50671  -1.062   8.540   4.558  0.5146  0.2968  0.2368
  376MOL0     C50672  -0.931   8.591   4.578  0.4156 -0.0301 -0.8401
  376MOL0     O50673  -0.605   8.636   4.351  0.2636 -0.7579  0.2918
  376MOL0     C50674  -0.389   8.747   4.476 -0.0034  0.0420  0.2803
  376MOL0     C50675  -0.258   8.778   4.520 -0.1069 -0.1755 -0.3819
  376MOL0     N50676   0.410   8.670   4.609  0.1586  0.5546 -0.4625
  376MOL0     N50677   0.477   8.657   4.499  0.1118  0.2531 -0.4530
  376MOL0     C50678   1.272   8.632   3.988 -0.5461 -1.0972 -0.0608
  376MOL0     C50679   1.400   8.657   4.047  0.9127 -0.1624  0.0857
  376MOL0     C50680   1.832   8.574   4.163  0.2362 -0.7533 -0.0426
  376MOL0     C50681   1.884   8.701   4.144  0.2887 -0.0614 -0.0285
  376MOL0     C50682   1.999   8.742   4.211  0.5387  0.7226  0.4533
  376MOL0     C50683   2.072   8.660   4.294 -0.2791  0.1237 -0.5726
  376MOL0     O50684   2.184   8.711   4.358  0.5446  0.4108  0.1056
  376MOL0     C50685   2.312   8.657   4.310  0.8430 -0.0201 -0.0353
  376MOL0     C50686   2.416   8.720   4.389 -1.0709 -0.2681  0.8579
  376MOL0     C50687   2.552   8.656   4.355  0.0256  0.7552 -0.9645
  376MOL0     C50688   2.688   8.696   4.419  0.1597 -0.1450 -0.7191
  376MOL0     C50689   2.657   8.686   4.560  0.2121  0.0451  1.0723
  376MOL0     C50690   2.638   8.669   4.675 -0.1581 -0.0957 -0.8779
  376MOL0     C50691   2.026   8.531   4.309  0.6321  0.1659 -0.5416
  376MOL0     C50692   1.907   8.483   4.250  0.2821  0.2451  0.6836
  376MOL0     H50693   1.601   8.553   3.815  0.4358 -0.2923  1.8838
  376MOL0     H50694   1.395   8.492   3.704 -0.3018  2.0558 -1.0118
  376MOL0     H50695   1.032   8.372   3.744 -0.8629 -0.2795  1.0338
  376MOL0     H50696   1.202   8.348   3.744  0.1791 -1.3052  0.3618
  376MOL0     H50697   1.118   8.197   3.894 -0.8329 -1.0210  1.0225
  376MOL0     H50698   1.217   8.309   3.985  2.4390 -4.1251 -1.5619
  376MOL0     H50699   0.918   8.275   3.965  0.6449  0.9780 -2.5421
  376MOL0     H50700   1.032   8.234   4.099  0.0185 -1.4438 -2.0904
  376MOL0     H50701   1.081   8.481   4.131  0.4368 -1.6697  1.7993
  376MOL0     H50702   0.944   8.511   4.033 -0.8537  0.7203  0.0021
  376MOL0     H50703   0.912   8.339   4.273  1.0262  0.4407 -0.2569
  376MOL0     H50704   0.932   8.518   4.283 -1.4849  1.7837 -0.2442
  376MOL0     H50705   0.738   8.527   4.127 -1.1386  0.5959  1.1486
  376MOL0     H50706   0.706   8.354   4.146  0.1642  0.6360 -1.6320
  376MOL0     H50707   0.695   8.386   4.394  1.3961  0.0312  0.6557
  376MOL0     H50708   0.725   8.561   4.375  3.1952 -0.6357 -2.1003
  376MOL0     H50709   0.469   8.443   4.264 -2.3064  0.0424  2.6244
  376MOL0     H50710   0.533   8.611   4.265  0.8911 -0.9108 -1.1697
  376MOL0     H50711   0.381   8.346   4.530 -3.8474  0.3472  3.1493
  376MOL0     H50712   0.247   8.416   4.759 -1.8845 -0.0774  2.3391
  376MOL0     H50713   0.307   8.568   4.828  0.6311 -1.8653  0.0894
  376MOL0     H50714   0.095   8.592   4.609 -0.6849  0.2082  0.8279
  376MOL0     H50715   0.171   8.710   4.720  0.1840 -0.0927  1.9942
  376MOL0     H50716   0.059   8.554   4.905 -1.2131 -2.6005 -0.4615
  376MOL0     H50717  -0.053   8.512   4.777  0.0012 -0.4575  0.8487
  376MOL0     H50718   0.032   8.797   4.849  0.3924 -1.2034  0.0825
  376MOL0     H50719  -0.119   8.714   4.891 -0.9302  2.1403 -0.8064
  376MOL0     H50720  -0.280   8.610   4.817 -0.1092  1.3011  0.9618
  376MOL0     H50721  -0.546   8.418   4.670 -2.3351 -0.5551  0.9142
  376MOL0     H50722  -0.448   8.455   4.821  1.1480 -2.1686 -2.3843
  376MOL0     H50723  -0.603   8.528   4.773 -0.9977 -2.6159 -1.5227
  376MOL0     H50724  -0.779   8.456   4.306  0.7356 -1.0310  1.3993
  376MOL0     H50725  -1.021   8.385   4.269  1.9286 -2.7675 -0.1463
  376MOL0     H50726  -1.225   8.352   4.237 -0.9847 -2.5138 -0.4251
  376MOL0     H50727  -1.252   8.244   4.369  3.1451  0.2898 -2.3097
  376MOL0     H50728  -1.483   8.388   4.400 -0.6412  0.0919 -1.0754
  376MOL0     H50729  -1.433   8.463   4.259  2.8143  1.5664  0.8756
  376MOL0     H50730  -1.465   8.158   4.304 -0.9283 -0.6322 -2.0189
  376MOL0     H50731  -1.450   8.236   4.145 -1.2875  3.4206 -0.8584
  376MOL0     H50732  -1.692   8.241   4.326 -1.4857 -0.8364 -0.3582
  376MOL0     H50733  -1.666   8.347   4.180 -0.5215 -0.2218 -1.0620
  376MOL0     H50734  -1.633   8.155   4.051  2.2247  3.0689  2.2762
  376MOL0     H50735  -1.792   8.176   4.119  0.3388  0.1497  0.5271
  376MOL0     H50736  -1.702   7.940   4.097  2.8388 -1.2657 -1.1309
  376MOL0     H50737  -1.573   7.969   4.210  0.6395  0.4930  1.6776
  376MOL0     H50738  -1.787   8.047   4.378 -2.9151 -2.5209  2.5911
  376MOL0     H50739  -1.723   7.889   4.368  1.1081  1.0097  0.9538
  376MOL0     H50740  -1.946   7.862   4.336  0.2710 -0.1016 -0.3456
  376MOL0     H50741  -1.896   7.826   4.181 -0.7597 -0.3399 -0.5316
  376MOL0     H50742  -1.137   8.566   4.632 -0.3518  2.7107 -1.3717
  376MOL0     H50743  -0.911   8.645   4.670 -1.8235 -0.9144  0.2566
  376MOL0     H50744  -0.404   8.780   4.374 -1.5829 -0.3132  0.3822
  376MOL0     H50745  -0.187   8.832   4.458 -0.8284  0.1599 -0.9319
  376MOL0     H50746   1.177   8.663   4.032 -0.7294 -0.9539 -0.5538
  376MOL0     H50747   1.399   8.713   4.140  0.7253 -1.2669  0.7587
  376MOL0     H50748   1.845   8.775   4.074  1.7922 -0.2424 -1.0997
  376MOL0     H50749   2.027   8.842   4.179 -2.5413  0.8643 -2.3962
  376MOL0     H50750   2.310   8.547   4.308 -1.0874 -0.0116 -1.6075
  376MOL0     H50751   2.336   8.683   4.207  2.1848 -1.3484 -0.0833
  376MOL0     H50752   2.402   8.710   4.497 -2.3536  0.2030  0.7436
  376MOL0     H50753   2.425   8.822   4.350  1.0344 -1.0577 -0.9940
  376MOL0     H50754   2.572   8.676   4.250  2.0541  0.8563 -0.6066
  376MOL0     H50755   2.532   8.552   4.382  1.2774  0.0556 -2.5376
  376MOL0     H50756   2.720   8.800   4.412 -0.1555  0.2544  2.1922
  376MOL0     H50757   2.769   8.628   4.392 -0.3673 -1.1622  0.1858
  376MOL0     H50758   2.632   8.642   4.778 -0.2980 -0.1345 -0.8960
  376MOL0     H50759   2.093   8.469   4.369  1.9061 -0.9986 -3.0100
  376MOL0     H50760   1.894   8.376   4.267  2.0487 -0.3271 -1.1194
  377MOL0     O50761   7.202   1.869   6.213 -0.3024 -0.7634  0.7829
  377MOL0     C50762   7.293   1.884   6.134 -0.8402 -0.3956 -0.0126
  377MOL0     O50763   7.331   1.790   6.038  0.0360  0.1032  0.2266
  377MOL0     C50764   7.250   1.683   6.002 -0.4958 -0.8884  0.1226
  377MOL0     C50765   7.113   1.676   5.994 -0.1562  0.0742  0.2489
  377MOL0     C50766   7.048   1.567   5.942  0.4179 -0.7302  0.7174
  377MOL0     C50767   7.115   1.456   5.900 -0.3238 -0.9085  0.3053
  377MOL0     O50768   7.050   1.348   5.842 -0.7047 -0.4750 -0.3381
  377MOL0     C50769   6.937   1.303   5.921 -0.0935  0.5012 -0.2896
  377MOL0     C50770   6.808   1.346   5.845 -0.1539  0.7812  0.6342
  377MOL0     C50771   6.678   1.301   5.917  0.1199 -0.9714 -0.4266
  377MOL0     C50772   6.562   1.317   5.824  0.0506  0.5833  0.4809
  377MOL0     C50773   6.434   1.287   5.901 -0.2967  0.1450  0.1621
  377MOL0     C50774   6.311   1.330   5.811 -0.9424 -0.4951  0.3533
  377MOL0     C50775   6.181   1.329   5.894  0.2990 -0.6022 -0.3970
  377MOL0     C50776   6.062   1.294   5.797  0.8315 -0.3519  0.2484
  377MOL0     N50777   5.936   1.324   5.873 -0.6833 -1.1572 -0.1199
  377MOL0     C50778   5.846   1.235   5.906  0.2678 -0.1701  0.1046
  377MOL0     C50779   5.747   1.302   5.963 -0.0877 -0.2073 -1.3169
  377MOL0     C50780   5.618   1.252   6.030  0.6952  0.2303  0.0572
  377MOL0     C50781   5.502   1.331   5.974 -0.3959  0.3354 -0.7007
  377MOL0     C50782   5.369   1.266   6.023  0.4813  0.0930 -0.1602
  377MOL0     C50783   5.255   1.370   6.004 -0.4955  0.2220  0.6738
  377MOL0     O50784   5.130   1.310   6.013  0.1502  0.4913  0.3313
  377MOL0     C50785   5.016   1.386   6.009  0.4252  0.4482  0.4862
  377MOL0     C50786   5.011   1.529   6.009  0.0029  0.3438  0.5940
  377MOL0     C50787   4.890   1.593   6.005 -0.5655  0.2524  0.1101
  377MOL0     C50788   4.907   1.740   6.011  0.1443 -0.1024  0.3208
  377MOL0     C50789   4.772   1.516   5.989 -0.5410  0.1057 -0.6236
  377MOL0     C50790   4.646   1.583   5.973  0.8934  0.4431  0.5938
  377MOL0     O50791   4.630   1.704   6.030 -0.1866 -0.3240  0.0915
  377MOL0     C50792   4.521   1.772   6.003 -0.2391 -0.3862 -1.1051
  377MOL0     C50793   4.417   1.738   6.092 -0.3528  0.1713 -0.3339
  377MOL0     C50794   4.305   1.812   6.086 -0.2850  1.1229 -0.4910
  377MOL0     C50795   4.288   1.916   5.991  0.5001 -0.0770 -0.7377
  377MOL0     O50796   4.187   2.011   5.983  0.5996  0.0642 -0.0120
  377MOL0     C50797   4.079   1.997   6.074 -0.4329  0.3388  0.5483
  377MOL0     C50798   3.961   2.083   6.043  0.3827 -0.1685 -0.5722
  377MOL0     C50799   3.850   2.099   6.141 -0.2172  0.4205  0.0505
  377MOL0     C50800   3.728   2.168   6.087  0.4969 -0.2808 -0.4294
  377MOL0     C50801   3.627   2.192   6.203  0.0798  0.7026 -0.1750
  377MOL0     C50802   3.488   2.245   6.153 -0.1614 -0.2335 -0.4174
  377MOL0     C50803   3.373   2.221   6.260 -0.7236 -0.4340  0.4986
  377MOL0     C50804   3.236   2.271   6.208 -0.3817  0.4088  0.1931
  377MOL0    Cl50805   3.092   2.221   6.306  0.1542  0.0565 -0.1235
  377MOL0     C50806   4.392   1.945   5.898  0.3361  0.1398 -0.0045
  377MOL0     C50807   4.508   1.867   5.909 -0.2821 -0.2565 -0.1637
  377MOL0     O50808   4.547   1.515   5.925 -0.4810 -0.4503 -0.2998
  377MOL0     C50809   4.775   1.377   5.996  0.4522 -0.8043 -0.5390
  377MOL0     C50810   4.896   1.314   6.008 -0.2330 -0.2722  0.3580
  377MOL0     N50811   5.793   1.432   5.972 -0.7101  0.9463  0.3801
  377MOL0     N50812   5.899   1.450   5.906  0.3724 -0.2234  0.4464
  377MOL0     C50813   7.258   1.458   5.907  0.0664 -0.2676  0.6430
  377MOL0     C50814   7.324   1.570   5.959  0.2132 -0.1412  0.4005
  377MOL0     C50815   7.354   2.020   6.148 -0.5758  0.7491  0.6050
  377MOL0     C50816   7.440   2.071   6.052  0.8405  0.2415  0.6341
  377MOL0     C50817   7.492   2.203   6.050  1.1079  0.1966 -0.0140
  377MOL0     C50818   7.466   2.288   6.154 -0.0391  0.1589 -0.0948
  377MOL0     O50819   7.518   2.417   6.159  0.4055 -0.6666  1.0284
  377MOL0     C50820   7.634   2.434   6.077 -0.4342  0.0710  0.0069
  377MOL0     C50821   7.701   2.556   6.133 -0.0975 -0.2700  0.0246
  377MOL0     C50822   7.835   2.604   6.067  1.0792  0.0687 -0.3042
  377MOL0     C50823   7.891   2.730   6.146  0.7505 -0.0065 -0.4329
  377MOL0     C50824   8.004   2.797   6.083 -0.9845  0.3930  0.4878
  377MOL0     C50825   8.087   2.880   6.039 -1.1586  0.6791  0.5830
  377MOL0     C50826   7.400   2.243   6.263  0.6396  0.4808 -0.9566
  377MOL0     C50827   7.336   2.112   6.255 -0.0534  0.3240 -0.0438
  377MOL0     H50828   7.060   1.763   6.030  2.0834  0.1691  3.8292
  377MOL0     H50829   6.940   1.568   5.930  0.2988  0.6081  1.6924
  377MOL0     H50830   6.924   1.195   5.930 -2.0685  0.7422  0.3602
  377MOL0     H50831   6.923   1.349   6.019 -0.7756 -1.4787  0.5826
  377MOL0     H50832   6.805   1.455   5.835 -1.4931  0.9517  2.4348
  377MOL0     H50833   6.806   1.291   5.750 -2.6607  0.6934  0.6622
  377MOL0     H50834   6.699   1.198   5.950  0.2512 -0.3478  1.5599
  377MOL0     H50835   6.661   1.373   5.997  3.2166  1.2848 -1.6261
  377MOL0     H50836   6.570   1.421   5.793 -0.9063  0.8386  1.0182
  377MOL0     H50837   6.572   1.244   5.743  2.1618  1.3901 -0.0336
  377MOL0     H50838   6.433   1.179   5.913  0.8099  0.2082  0.9146
  377MOL0     H50839   6.432   1.331   6.001 -2.8594 -1.5820  0.9820
  377MOL0     H50840   6.336   1.429   5.773  2.3129 -0.7156  1.6116
  377MOL0     H50841   6.308   1.254   5.732 -0.3705 -0.7832  0.6038
  377MOL0     H50842   6.186   1.256   5.976 -3.7266 -1.2406 -0.5030
  377MOL0     H50843   6.169   1.422   5.949  2.7567 -1.9908  2.8597
  377MOL0     H50844   6.065   1.190   5.766 -0.1298  0.0323 -1.2608
  377MOL0     H50845   6.073   1.350   5.704  0.2471  2.4029  1.7224
  377MOL0     H50846   5.841   1.127   5.906  0.1148 -0.1826 -1.3994
  377MOL0     H50847   5.600   1.149   5.998 -1.6630  0.3961  0.6843
  377MOL0     H50848   5.629   1.234   6.138  2.2468 -2.6458 -0.4929
  377MOL0     H50849   5.509   1.337   5.865  0.6317 -0.2971 -0.6916
  377MOL0     H50850   5.517   1.427   6.024 -0.5738 -1.9692  4.5008
  377MOL0     H50851   5.375   1.230   6.126  1.1192 -0.9009 -0.5273
  377MOL0     H50852   5.348   1.179   5.959  0.3532 -0.4028  0.5401
  377MOL0     H50853   5.259   1.428   5.911 -1.6866  1.5172  1.3959
  377MOL0     H50854   5.273   1.449   6.077  3.7804 -1.3749  1.6724
  377MOL0     H50855   5.095   1.598   6.014 -2.7749  3.9557  1.0392
  377MOL0     H50856   5.013   1.766   6.009 -0.1227  0.9979 -0.4406
  377MOL0     H50857   4.851   1.791   5.932 -0.8782 -0.0262  1.0708
  377MOL0     H50858   4.858   1.773   6.103 -2.4876 -0.2253 -0.9632
  377MOL0     H50859   4.425   1.663   6.169 -2.6866 -0.7646 -0.9245
  377MOL0     H50860   4.230   1.781   6.158 -0.2095 -2.0304 -1.6206
  377MOL0     H50861   4.040   1.895   6.087  0.0407  0.2810  1.6299
  377MOL0     H50862   4.109   2.018   6.177 -1.1297 -0.0913  0.8479
  377MOL0     H50863   4.012   2.179   6.032  1.2310 -0.6347 -0.7937
  377MOL0     H50864   3.920   2.057   5.945 -0.3565  0.2206 -0.3766
  377MOL0     H50865   3.892   2.148   6.230 -1.2183 -0.0711  0.8148
  377MOL0     H50866   3.812   2.001   6.173  1.1736 -0.4872 -0.9676
  377MOL0     H50867   3.751   2.263   6.040  1.6254 -1.5392 -2.5691
  377MOL0     H50868   3.679   2.115   6.004 -2.7131  0.3171  0.9315
  377MOL0     H50869   3.668   2.254   6.283 -0.6013  2.0641 -0.8361
  377MOL0     H50870   3.614   2.096   6.254  0.1790  0.7100 -0.1368
  377MOL0     H50871   3.490   2.346   6.111 -3.2125  0.0966  0.0047
  377MOL0     H50872   3.456   2.188   6.065 -1.7334  0.2345 -0.1717
  377MOL0     H50873   3.390   2.268   6.358 -3.7979  4.4950 -0.9530
  377MOL0     H50874   3.362   2.114   6.276 -2.3075 -0.4288 -0.3299
  377MOL0     H50875   3.236   2.230   6.106  0.0601  2.7187 -0.8133
  377MOL0     H50876   3.232   2.381   6.214  0.3379  0.4633 -0.0995
  377MOL0     H50877   4.374   2.011   5.813  0.3235  0.3278  0.1418
  377MOL0     H50878   4.582   1.883   5.831 -0.5803  4.3928  0.2290
  377MOL0     H50879   4.679   1.326   6.001 -0.8463  1.5188 -0.6297
  377MOL0     H50880   4.889   1.206   6.007 -0.8736 -0.2488 -1.0676
  377MOL0     H50881   7.311   1.374   5.862  1.8234  1.1078  0.0459
  377MOL0     H50882   7.433   1.565   5.958  0.1589 -3.0333  0.4031
  377MOL0     H50883   7.456   2.000   5.971 -0.3790  0.4215  0.2183
  377MOL0     H50884   7.542   2.226   5.956  0.7753  0.4399 -0.1332
  377MOL0     H50885   7.702   2.348   6.075  0.2047  0.5518 -2.5594
  377MOL0     H50886   7.601   2.445   5.973 -1.1919 -0.9240  0.1286
  377MOL0     H50887   7.732   2.547   6.238 -2.0516  0.1082  0.6644
  377MOL0     H50888   7.624   2.633   6.138 -1.9220 -2.0760  3.7581
  377MOL0     H50889   7.819   2.629   5.961 -1.2879  0.5581  0.1250
  377MOL0     H50890   7.910   2.524   6.066 -2.2778 -3.3741  0.7472
  377MOL0     H50891   7.937   2.686   6.235  3.0686  2.3304 -0.3915
  377MOL0     H50892   7.820   2.807   6.178  0.7660  0.0967 -0.6494
  377MOL0     H50893   8.151   2.948   5.987 -4.0518  1.9726 -1.6029
  377MOL0     H50894   7.377   2.309   6.345 -0.9947  1.1549 -1.9007
  377MOL0     H50895   7.263   2.090   6.332 -0.2153 -2.4920 -0.9342
  378MOL0     O50896   7.157   2.424   9.471 -0.2296  0.6900 -0.3762
  378MOL0     C50897   7.211   2.367   9.565 -0.0472  0.7763 -0.2880
  378MOL0     O50898   7.148   2.309   9.672  0.4374 -0.1450 -0.3681
  378MOL0     C50899   7.009   2.316   9.676  1.3102  1.1093  0.5822
  378MOL0     C50900   6.929   2.214   9.731  0.1099 -0.5429 -0.5917
  378MOL0     C50901   6.791   2.200   9.726 -0.3617  0.3304 -0.2651
  378MOL0     C50902   6.726   2.313   9.672  0.6557  0.4320  0.1938
  378MOL0     O50903   6.593   2.295   9.651  0.2984 -0.5649  0.1765
  378MOL0     C50904   6.522   2.398   9.582 -0.0365 -0.2663  0.1027
  378MOL0     C50905   6.370   2.393   9.609  0.7055  0.7201  0.6940
  378MOL0     C50906   6.323   2.271   9.519 -0.0254  0.1751 -0.2618
  378MOL0     C50907   6.170   2.266   9.501  0.1005 -0.0921  0.4821
  378MOL0     C50908   6.098   2.247   9.639 -0.7047  0.0221  0.6962
  378MOL0     C50909   5.961   2.173   9.628 -0.9015 -0.3707 -0.3437
  378MOL0     C50910   5.966   2.033   9.682  0.0683  0.3120  0.3537
  378MOL0     C50911   5.817   1.979   9.670  0.9167 -0.4994 -0.1698
  378MOL0     N50912   5.749   1.975   9.539 -0.8055  0.6972  0.1904
  378MOL0     C50913   5.774   1.872   9.456 -0.1988  0.0937 -0.1782
  378MOL0     C50914   5.691   1.897   9.350  0.3429  1.0736 -0.1220
  378MOL0     C50915   5.687   1.804   9.233 -0.8552  0.2948 -0.3886
  378MOL0     C50916   5.548   1.770   9.195 -0.2738  0.5480 -0.2297
  378MOL0     C50917   5.468   1.670   9.281  0.0100  0.1080  0.7151
  378MOL0     C50918   5.327   1.681   9.239 -1.6554  0.3454  0.2311
  378MOL0     O50919   5.252   1.616   9.338  0.2680 -0.5169  0.4454
  378MOL0     C50920   5.117   1.604   9.305  0.4091 -0.1415 -0.3799
  378MOL0     C50921   5.049   1.664   9.193  0.4703 -0.3159 -0.4473
  378MOL0     C50922   4.913   1.647   9.176 -0.4787  1.0708 -0.2393
  378MOL0     C50923   4.845   1.727   9.070 -0.0614 -0.2609  0.1038
  378MOL0     C50924   4.838   1.546   9.257 -0.1865 -0.8043  0.5251
  378MOL0     C50925   4.696   1.513   9.248 -0.4579  0.1116  0.8523
  378MOL0     O50926   4.647   1.423   9.335 -0.3506 -0.1053  0.0767
  378MOL0     C50927   4.516   1.432   9.365  0.2587 -0.5050 -0.0866
  378MOL0     C50928   4.444   1.310   9.367  0.1584 -0.4761 -0.9889
  378MOL0     C50929   4.310   1.306   9.406 -0.8231  0.6848  0.4100
  378MOL0     C50930   4.231   1.416   9.403  1.0166 -0.3158  1.0823
  378MOL0     O50931   4.094   1.406   9.400  0.2934  0.1988 -0.3131
  378MOL0     C50932   4.020   1.519   9.357  0.2400 -1.0610  0.1664
  378MOL0     C50933   3.877   1.472   9.337  0.5107 -0.1116  0.8943
  378MOL0     C50934   3.799   1.594   9.264 -0.4666 -0.6937 -0.1364
  378MOL0     C50935   3.647   1.575   9.280 -0.9209 -0.4642  0.8083
  378MOL0     C50936   3.579   1.595   9.143  0.9348  0.0383 -0.3050
  378MOL0     C50937   3.436   1.558   9.130  1.0123 -0.3521  0.7488
  378MOL0     C50938   3.388   1.550   8.982  0.3412  0.0589 -0.8166
  378MOL0     C50939   3.248   1.489   8.984 -0.0911  0.2862  0.2823
  378MOL0    Cl50940   3.183   1.427   8.833  0.0313 -0.0620  0.0747
  378MOL0     C50941   4.298   1.540   9.394  0.4783  0.5618 -0.0908
  378MOL0     C50942   4.437   1.548   9.389 -0.3250 -0.3877 -0.0947
  378MOL0     O50943   4.628   1.568   9.160 -0.2079  0.8281  0.3816
  378MOL0     C50944   4.912   1.477   9.359  0.4747  0.0275 -0.0296
  378MOL0     C50945   5.041   1.519   9.388  0.8783  0.1163 -0.9184
  378MOL0     N50946   5.627   2.015   9.368 -0.0091  0.1996  0.5869
  378MOL0     N50947   5.661   2.063   9.484 -0.4185  0.6979 -0.4441
  378MOL0     C50948   6.798   2.426   9.652  0.2272 -0.8234 -0.4616
  378MOL0     C50949   6.938   2.428   9.643 -0.1932  0.3014 -0.6492
  378MOL0     C50950   7.363   2.356   9.554  0.0879 -0.7881 -0.1387
  378MOL0     C50951   7.438   2.286   9.656 -0.0317  0.2373  0.4677
  378MOL0     C50952   7.572   2.309   9.672 -0.0822 -0.2589 -0.5078
  378MOL0     C50953   7.646   2.381   9.573  0.7706  0.1157  0.3023
  378MOL0     O50954   7.774   2.395   9.592  0.1661  0.9211  0.0610
  378MOL0     C50955   7.856   2.282   9.559  0.7595 -0.5686 -0.3019
  378MOL0     C50956   7.978   2.330   9.490  0.3166 -0.3743  0.1841
  378MOL0     C50957   8.068   2.393   9.592 -0.3886 -0.0069  0.0912
  378MOL0     C50958   8.193   2.456   9.523 -0.9387  0.1407 -0.1549
  378MOL0     C50959   8.289   2.359   9.461 -0.4563  0.6075 -0.1555
  378MOL0     C50960   8.364   2.281   9.398  0.2412 -0.4918 -0.2835
  378MOL0     C50961   7.574   2.424   9.460  0.3099 -0.0444 -0.1122
  378MOL0     C50962   7.437   2.419   9.453 -0.4076 -0.0002  0.0221
  378MOL0     H50963   6.982   2.126   9.765  1.7644  0.9502  0.8973
  378MOL0     H50964   6.737   2.109   9.750 -2.2763  1.3462 -0.5391
  378MOL0     H50965   6.550   2.495   9.625 -0.0446 -0.1128 -0.2306
  378MOL0     H50966   6.535   2.399   9.473  0.2320 -2.8083  0.0590
  378MOL0     H50967   6.342   2.378   9.714  1.1957  0.3133  0.7728
  378MOL0     H50968   6.329   2.485   9.568  0.6758 -0.5117 -2.2805
  378MOL0     H50969   6.380   2.271   9.426  1.6223  0.3885  0.7063
  378MOL0     H50970   6.351   2.174   9.562 -0.3879  0.3208  0.3072
  378MOL0     H50971   6.126   2.353   9.452 -2.1286 -1.0034  0.7316
  378MOL0     H50972   6.138   2.177   9.445  0.6070 -0.4128  0.6980
  378MOL0     H50973   6.166   2.184   9.698 -1.8216 -2.0798 -0.1642
  378MOL0     H50974   6.086   2.335   9.703  1.0995  0.1503  0.9273
  378MOL0     H50975   5.881   2.229   9.678  1.8585  1.7885  2.0287
  378MOL0     H50976   5.942   2.161   9.521  1.5223 -3.1663 -0.5957
  378MOL0     H50977   6.030   1.965   9.625  1.1108  2.6801 -1.4831
  378MOL0     H50978   6.002   2.032   9.785  1.8060 -0.3214 -0.2219
  378MOL0     H50979   5.758   2.050   9.728  1.1787  1.0201 -1.6671
  378MOL0     H50980   5.803   1.882   9.718 -1.8467 -0.5968 -0.9474
  378MOL0     H50981   5.837   1.786   9.481  0.4208 -0.1697 -2.4271
  378MOL0     H50982   5.743   1.846   9.148  3.1289 -1.0443  1.2970
  378MOL0     H50983   5.752   1.718   9.254 -1.6582  0.4438  3.4921
  378MOL0     H50984   5.558   1.716   9.100  0.8319  0.1403  0.1072
  378MOL0     H50985   5.495   1.864   9.181  1.2560  1.2499 -1.6197
  378MOL0     H50986   5.475   1.702   9.386  1.9986 -0.4885  0.7992
  378MOL0     H50987   5.512   1.571   9.272  0.8052  0.6306 -2.0562
  378MOL0     H50988   5.316   1.636   9.140  0.8458  0.0539  0.0358
  378MOL0     H50989   5.303   1.787   9.236  1.0436  1.0714 -4.0516
  378MOL0     H50990   5.093   1.745   9.137 -0.8992  1.6282  1.1307
  378MOL0     H50991   4.903   1.802   9.014 -0.3605 -1.1775 -1.5027
  378MOL0     H50992   4.788   1.673   8.994 -1.2998 -1.6077  1.9399
  378MOL0     H50993   4.769   1.787   9.121  0.2141  0.6543 -0.5199
  378MOL0     H50994   4.495   1.215   9.349 -0.1822 -0.9576  0.4833
  378MOL0     H50995   4.268   1.209   9.429  3.3450 -1.0938  1.5087
  378MOL0     H50996   4.025   1.603   9.427  2.8521  0.3032 -1.4874
  378MOL0     H50997   4.065   1.543   9.261  1.4857  2.2400  1.4496
  378MOL0     H50998   3.885   1.389   9.266  2.7410  0.5807  0.2778
  378MOL0     H50999   3.828   1.437   9.429  0.0992 -0.9456  0.3727
  378MOL0     H51000   3.831   1.597   9.159 -1.9320  1.2084 -0.5673
  378MOL0     H51001   3.831   1.686   9.312 -1.1465 -0.8273  0.5876
  378MOL0     H51002   3.635   1.472   9.315  2.0283 -0.1128  3.2280
  378MOL0     H51003   3.611   1.649   9.351  2.5790  0.3744  1.9320
  378MOL0     H51004   3.629   1.528   9.073 -0.3750 -0.6905 -0.5790
  378MOL0     H51005   3.586   1.702   9.121 -1.1123  0.1619 -0.6111
  378MOL0     H51006   3.425   1.460   9.178 -0.5229 -0.3894  0.3714
  378MOL0     H51007   3.370   1.630   9.178  0.0347  0.0177 -1.0676
  378MOL0     H51008   3.457   1.491   8.920 -0.3765 -0.5554 -1.0421
  378MOL0     H51009   3.375   1.650   8.940 -0.2735  0.2623 -0.1602
  378MOL0     H51010   3.182   1.566   9.026 -0.3081 -1.2057  2.8576
  378MOL0     H51011   3.252   1.405   9.053 -1.7934 -0.4509 -0.4770
  378MOL0     H51012   4.234   1.628   9.391 -1.8328 -1.0157  0.5864
  378MOL0     H51013   4.482   1.646   9.390  0.5129 -0.6665 -2.7830
  378MOL0     H51014   4.870   1.390   9.409  0.6352  0.2496  0.4996
  378MOL0     H51015   5.099   1.472   9.467 -0.1328  0.7894  0.2641
  378MOL0     H51016   6.749   2.522   9.642  1.3544 -0.0154  1.2293
  378MOL0     H51017   6.983   2.524   9.620 -1.1004  0.9578  0.2424
  378MOL0     H51018   7.375   2.226   9.721 -3.0504 -0.1007 -2.4401
  378MOL0     H51019   7.625   2.262   9.753 -0.5398 -0.6445 -0.4313
  378MOL0     H51020   7.883   2.239   9.656 -0.9206 -0.7703  0.0926
  378MOL0     H51021   7.807   2.203   9.501  2.1186 -4.2715  3.1364
  378MOL0     H51022   7.954   2.407   9.417  3.2338 -0.2063 -0.7256
  378MOL0     H51023   8.032   2.253   9.434 -0.1945  0.5169 -1.6020
  378MOL0     H51024   8.100   2.310   9.656 -0.0139 -0.7340 -1.0031
  378MOL0     H51025   8.010   2.469   9.646 -0.4558 -0.0016  0.0125
  378MOL0     H51026   8.253   2.512   9.596  0.3335  1.2236 -1.9556
  378MOL0     H51027   8.156   2.531   9.452 -0.0523  0.7123 -0.0284
  378MOL0     H51028   8.441   2.235   9.340  0.0228  0.2530 -1.1884
  378MOL0     H51029   7.624   2.483   9.384  0.2792 -0.0969 -0.1736
  378MOL0     H51030   7.388   2.476   9.375  2.2327 -0.0813 -1.8469
  379MOL0     O51031  10.979   6.405   8.870 -0.0191  0.6346  0.9691
  379MOL0     C51032  11.042   6.493   8.809 -0.8398 -0.1715 -0.1818
  379MOL0     O51033  10.987   6.604   8.748 -1.0290  0.1211  0.5390
  379MOL0     C51034  10.857   6.637   8.739 -0.0878  0.4103  0.2091
  379MOL0     C51035  10.749   6.541   8.752  0.0260 -0.2266  0.5651
  379MOL0     C51036  10.619   6.580   8.715  0.2973 -0.6524  0.0056
  379MOL0     C51037  10.590   6.703   8.656  0.2494  1.5193 -0.4953
  379MOL0     O51038  10.457   6.724   8.613 -0.2635  0.0377 -0.4278
  379MOL0     C51039  10.401   6.850   8.627  0.5678 -0.5439 -0.1793
  379MOL0     C51040  10.245   6.846   8.628 -0.4067 -0.3450 -0.4325
  379MOL0     C51041  10.172   6.800   8.758 -0.3700  0.2688  0.7029
  379MOL0     C51042  10.019   6.793   8.730 -0.0573 -1.3202  0.2915
  379MOL0     C51043   9.939   6.751   8.854 -0.9330  0.3461  0.4340
  379MOL0     C51044   9.796   6.740   8.826  0.0432 -1.0787 -0.0116
  379MOL0     C51045   9.752   6.598   8.801  0.0300  0.5595  1.4191
  379MOL0     C51046   9.615   6.601   8.740  0.6005  0.3119 -0.2328
  379MOL0     N51047   9.519   6.601   8.847  0.0090  0.2610  0.2865
  379MOL0     C51048   9.451   6.489   8.893  0.4222  0.0369  0.0651
  379MOL0     C51049   9.387   6.529   8.999  0.3652  0.4449 -0.5582
  379MOL0     C51050   9.285   6.451   9.076 -0.5137  0.3284  0.0198
  379MOL0     C51051   9.149   6.432   8.994 -0.2716 -0.1421  0.7563
  379MOL0     C51052   9.028   6.405   9.088  0.5336  0.5975  0.5087
  379MOL0     C51053   9.036   6.269   9.164  0.0689 -0.1813  0.0428
  379MOL0     O51054   9.085   6.163   9.073  0.1449 -0.6630  0.4212
  379MOL0     C51055   9.012   6.116   8.968 -1.1265  0.0031 -0.3656
  379MOL0     C51056   8.874   6.119   8.963 -0.8593 -0.3740 -0.5843
  379MOL0     C51057   8.817   6.055   8.854 -0.1234 -0.3241  0.7438
  379MOL0     C51058   8.665   6.053   8.854 -0.0153  0.3944  0.3648
  379MOL0     C51059   8.890   5.992   8.745  0.7558 -0.3022 -1.1362
  379MOL0     C51060   8.827   5.911   8.640  0.0896  0.0825  0.0338
  379MOL0     O51061   8.693   5.886   8.631  0.1867 -0.6826 -0.2805
  379MOL0     C51062   8.641   5.771   8.582 -0.2205  0.3159 -0.1688
  379MOL0     C51063   8.698   5.662   8.520 -0.1136 -0.0043 -0.1109
  379MOL0     C51064   8.622   5.548   8.482  0.0071  0.4259  0.2424
  379MOL0     C51065   8.490   5.541   8.511 -0.0778 -0.2290  0.6189
  379MOL0     O51066   8.415   5.432   8.470  0.7256  0.8216 -0.9423
  379MOL0     C51067   8.274   5.434   8.468  0.0566 -0.1675  0.2723
  379MOL0     C51068   8.223   5.365   8.346  0.6391 -0.1273  0.1352
  379MOL0     C51069   8.082   5.323   8.370  0.6884  0.8260  0.0956
  379MOL0     C51070   8.001   5.308   8.237 -1.0279  0.0674 -0.2950
  379MOL0     C51071   7.872   5.219   8.235 -0.1372 -0.3565  0.5545
  379MOL0     C51072   7.794   5.234   8.104  0.1429 -0.3051  0.3576
  379MOL0     C51073   7.663   5.144   8.101  0.0583 -0.9110 -0.6031
  379MOL0     C51074   7.541   5.225   8.157  0.7379 -0.0001 -0.6186
  379MOL0    Cl51075   7.391   5.142   8.112  0.1836  0.2266 -0.3002
  379MOL0     C51076   8.437   5.647   8.585 -0.0079 -0.3967  0.1847
  379MOL0     C51077   8.509   5.761   8.614  0.3016 -0.7513  0.0406
  379MOL0     O51078   8.914   5.854   8.574 -0.5307  0.1721  1.3850
  379MOL0     C51079   9.035   5.993   8.760 -0.0073  0.2057 -0.9175
  379MOL0     C51080   9.094   6.057   8.870 -0.4169  0.2189 -0.1052
  379MOL0     N51081   9.422   6.660   9.024  0.8977 -0.3636 -0.4297
  379MOL0     N51082   9.494   6.710   8.931  0.2085  0.1049 -0.5363
  379MOL0     C51083  10.693   6.794   8.646 -0.1127 -0.0530  0.5696
  379MOL0     C51084  10.825   6.760   8.681 -0.2553 -0.2921 -0.8998
  379MOL0     C51085  11.197   6.485   8.801  0.0124 -0.0996 -0.6176
  379MOL0     C51086  11.263   6.413   8.897  0.4514  0.6299  0.8125
  379MOL0     C51087  11.401   6.420   8.909  0.2274 -0.0391  0.1643
  379MOL0     C51088  11.479   6.490   8.827 -0.6011  0.4415 -0.4948
  379MOL0     O51089  11.617   6.492   8.868 -0.5662  0.1073  0.7247
  379MOL0     C51090  11.705   6.582   8.797  0.3644  0.5905  0.6214
  379MOL0     C51091  11.837   6.600   8.871  1.2251  0.2663 -0.0357
  379MOL0     C51092  11.928   6.479   8.854  1.2008  0.2132 -0.7982
  379MOL0     C51093  12.060   6.494   8.923 -0.8539 -1.4368  0.3800
  379MOL0     C51094  12.157   6.592   8.867  0.5701  0.2019  0.3271
  379MOL0     C51095  12.224   6.682   8.826 -0.8473 -0.7306  0.5261
  379MOL0     C51096  11.415   6.568   8.725 -0.3715  0.1520  0.1308
  379MOL0     C51097  11.271   6.568   8.712 -0.5828 -0.1225 -0.1529
  379MOL0     H51098  10.776   6.442   8.789  1.6438 -0.2996 -0.6924
  379MOL0     H51099  10.540   6.509   8.736  1.6586 -2.1095  0.4870
  379MOL0     H51100  10.429   6.907   8.716 -3.5359  2.9821 -0.8268
  379MOL0     H51101  10.431   6.904   8.537  6.4567  0.4435  1.9562
  379MOL0     H51102  10.211   6.949   8.620  0.7033  0.2013  1.2121
  379MOL0     H51103  10.219   6.789   8.538  1.2197 -1.2436 -0.3723
  379MOL0     H51104  10.211   6.710   8.806 -1.8233  0.4227  2.2570
  379MOL0     H51105  10.187   6.885   8.825 -0.1312  2.7511 -2.2621
  379MOL0     H51106   9.990   6.890   8.687 -0.3675 -1.2681  0.6161
  379MOL0     H51107   9.996   6.716   8.655  0.3070  0.5264 -1.8421
  379MOL0     H51108   9.982   6.659   8.895 -0.0864 -0.5167 -2.2043
  379MOL0     H51109   9.951   6.821   8.938 -0.3057  0.4824  0.2341
  379MOL0     H51110   9.739   6.780   8.911 -0.9411 -0.7244 -0.8183
  379MOL0     H51111   9.773   6.809   8.745  2.7352 -0.5261 -0.3693
  379MOL0     H51112   9.819   6.558   8.723 -2.1486  1.8351 -1.2742
  379MOL0     H51113   9.758   6.532   8.888 -1.1822 -1.0599  0.3378
  379MOL0     H51114   9.599   6.512   8.678 -0.5945 -0.0132  0.5036
  379MOL0     H51115   9.598   6.694   8.686 -1.5650  0.7202  1.0335
  379MOL0     H51116   9.438   6.394   8.841 -0.6571 -0.1303  0.6068
  379MOL0     H51117   9.325   6.350   9.088 -0.9023  0.2313  0.5306
  379MOL0     H51118   9.269   6.501   9.172  0.7840  1.7787 -0.4872
  379MOL0     H51119   9.169   6.358   8.916  0.6694  1.8494 -0.9996
  379MOL0     H51120   9.138   6.527   8.941 -0.7325  0.0164  1.1260
  379MOL0     H51121   8.936   6.406   9.029  1.6418  1.7745 -1.2873
  379MOL0     H51122   9.026   6.486   9.162  2.0340  0.1231  1.1142
  379MOL0     H51123   8.939   6.235   9.201  0.7455 -0.5232  1.5591
  379MOL0     H51124   9.097   6.278   9.254 -1.4931  3.3434  0.9139
  379MOL0     H51125   8.810   6.172   9.032 -1.1822 -0.8597 -0.5104
  379MOL0     H51126   8.629   6.106   8.943  0.7381  0.1318  0.8326
  379MOL0     H51127   8.604   6.107   8.781 -5.4658 -0.5318  3.6598
  379MOL0     H51128   8.641   5.948   8.869 -2.3913  1.0286  1.3966
  379MOL0     H51129   8.802   5.653   8.490 -1.0481  0.4102 -4.0298
  379MOL0     H51130   8.681   5.472   8.432 -2.2294  1.2446 -4.0671
  379MOL0     H51131   8.215   5.380   8.543 -0.6721 -1.2786 -1.0571
  379MOL0     H51132   8.237   5.536   8.458 -1.3979 -0.7975 -1.2289
  379MOL0     H51133   8.252   5.430   8.263  1.6552  0.5592  1.0021
  379MOL0     H51134   8.277   5.272   8.329  1.9024  0.4562  0.8688
  379MOL0     H51135   8.017   5.395   8.420 -1.4485 -2.2027  2.0952
  379MOL0     H51136   8.082   5.236   8.436 -1.4975  0.2114 -0.6241
  379MOL0     H51137   7.979   5.404   8.191 -1.3115 -0.3825 -1.1242
  379MOL0     H51138   8.072   5.255   8.172 -0.3514 -2.1358  2.0760
  379MOL0     H51139   7.811   5.252   8.320 -2.1343  1.5649 -1.4973
  379MOL0     H51140   7.887   5.111   8.243  1.5548 -0.0848  1.7896
  379MOL0     H51141   7.776   5.336   8.068 -0.3596  0.5013  2.7684
  379MOL0     H51142   7.863   5.183   8.036  2.0831  1.0074  1.2246
  379MOL0     H51143   7.674   5.050   8.156 -1.6183 -0.5690  0.3708
  379MOL0     H51144   7.639   5.132   7.995 -0.6999 -0.2710 -0.5144
  379MOL0     H51145   7.536   5.328   8.122  0.3609  0.0728 -0.3550
  379MOL0     H51146   7.559   5.228   8.265  2.2186 -0.1091 -0.8405
  379MOL0     H51147   8.335   5.644   8.622  0.4008  3.2699  2.0684
  379MOL0     H51148   8.456   5.847   8.654  1.7433  0.5192 -0.6508
  379MOL0     H51149   9.102   5.941   8.692 -1.8330 -0.5914 -2.1914
  379MOL0     H51150   9.200   6.050   8.890 -0.3927 -0.1265 -0.3531
  379MOL0     H51151  10.671   6.882   8.587 -2.7860 -0.4031  0.9250
  379MOL0     H51152  10.903   6.828   8.649 -1.2135 -0.0341 -2.7897
  379MOL0     H51153  11.205   6.357   8.969 -2.1020  2.4639  0.3244
  379MOL0     H51154  11.442   6.377   9.000  0.8929  0.4972  0.1208
  379MOL0     H51155  11.723   6.542   8.697 -1.0098  3.1133 -0.7340
  379MOL0     H51156  11.659   6.681   8.786  1.4206  0.9809 -0.4601
  379MOL0     H51157  11.808   6.607   8.976 -0.2488  1.3511 -0.4815
  379MOL0     H51158  11.883   6.693   8.834  0.7633  1.1480  1.5196
  379MOL0     H51159  11.936   6.460   8.747  0.3669 -1.4162 -0.6019
  379MOL0     H51160  11.874   6.395   8.900  1.7797  1.3333  2.1629
  379MOL0     H51161  12.107   6.396   8.933 -0.2727 -1.0067  2.4497
  379MOL0     H51162  12.042   6.521   9.028  1.3132  1.4495  0.1336
  379MOL0     H51163  12.272   6.770   8.787 -0.5047 -0.0395  2.3964
  379MOL0     H51164  11.464   6.643   8.664 -1.8466  1.6664  0.7366
  379MOL0     H51165  11.217   6.636   8.647 -2.3759 -0.2484  1.1538
  380MOL0     O51166   2.492   5.236   9.723 -0.5538  0.3632  0.4591
  380MOL0     C51167   2.583   5.221   9.640  0.3043 -0.1305  1.0616
  380MOL0     O51168   2.559   5.200   9.510 -0.5404 -0.1254  0.3380
  380MOL0     C51169   2.432   5.217   9.465 -0.2633  0.4794 -0.9994
  380MOL0     C51170   2.339   5.114   9.475 -0.0556 -0.1831 -0.0771
  380MOL0     C51171   2.201   5.147   9.449  1.1943  0.0509 -0.3444
  380MOL0     C51172   2.154   5.268   9.406 -0.3962 -1.8281 -0.0174
  380MOL0     O51173   2.029   5.305   9.406 -0.2143  0.8336  0.1109
  380MOL0     C51174   1.956   5.316   9.286  0.3079 -0.0322  0.1203
  380MOL0     C51175   1.808   5.345   9.310 -0.1274 -0.5620  0.9927
  380MOL0     C51176   1.725   5.237   9.380 -0.3271  0.1936 -0.5467
  380MOL0     C51177   1.671   5.118   9.289 -0.4806 -1.0246  0.7267
  380MOL0     C51178   1.560   5.036   9.349 -0.4197  0.9362 -0.3878
  380MOL0     C51179   1.426   5.093   9.385 -0.1265 -0.5827 -0.6639
  380MOL0     C51180   1.342   5.136   9.266 -0.3184  0.1793 -0.1359
  380MOL0     C51181   1.298   5.014   9.194 -1.0572  0.2936 -0.5226
  380MOL0     N51182   1.161   5.037   9.147  0.8754  0.2426 -0.4550
  380MOL0     C51183   1.041   4.987   9.214 -0.6586 -0.6391  0.2084
  380MOL0     C51184   0.944   5.067   9.170 -0.0921  0.5535 -0.6917
  380MOL0     C51185   0.802   5.052   9.213 -0.0220 -0.5826 -0.6952
  380MOL0     C51186   0.714   4.992   9.103  0.3895 -0.0045  0.0839
  380MOL0     C51187   0.573   5.039   9.125 -0.0946 -0.9811 -0.0408
  380MOL0     C51188   0.477   4.964   9.032  0.9864  0.6103  0.4300
  380MOL0     O51189   0.354   5.034   9.049  0.6134  0.0063 -1.2782
  380MOL0     C51190   0.239   4.988   8.989  0.4939  0.1812  0.3610
  380MOL0     C51191   0.121   5.030   9.043  1.0631 -0.5193  0.1146
  380MOL0     C51192  -0.013   5.012   8.988 -0.2860  0.1992 -0.5891
  380MOL0     C51193  -0.125   5.070   9.075  0.9811  0.1402  1.0273
  380MOL0     C51194  -0.009   4.937   8.869  0.2553  0.6746  0.4737
  380MOL0     C51195  -0.139   4.918   8.782 -0.9555 -0.1986 -0.9685
  380MOL0     O51196  -0.253   4.968   8.827 -0.9656  0.4442  0.1559
  380MOL0     C51197  -0.371   4.933   8.765 -0.4532 -0.3660  0.9288
  380MOL0     C51198  -0.395   4.962   8.630  0.4986  0.9218  0.2330
  380MOL0     C51199  -0.516   4.937   8.572  0.8881  0.9354 -0.2172
  380MOL0     C51200  -0.623   4.881   8.650 -0.0573  0.5782  0.4972
  380MOL0     O51201  -0.743   4.870   8.584  1.1440 -0.1600 -0.3538
  380MOL0     C51202  -0.859   4.892   8.660 -0.8361  0.0897 -0.6748
  380MOL0     C51203  -0.968   4.891   8.556  0.4077  0.0746 -0.6754
  380MOL0     C51204  -1.108   4.908   8.616 -0.4570  0.6146  0.5168
  380MOL0     C51205  -1.212   4.901   8.502  0.5836  0.4488 -0.8481
  380MOL0     C51206  -1.355   4.941   8.546 -0.2827  0.1922  0.3203
  380MOL0     C51207  -1.445   4.911   8.423 -1.1072 -0.3121 -0.3541
  380MOL0     C51208  -1.597   4.922   8.443  1.1624  0.0394  0.0363
  380MOL0     C51209  -1.664   4.800   8.497 -0.3027 -0.4042  0.1888
  380MOL0    Cl51210  -1.839   4.826   8.509 -0.9808  0.0537 -0.0852
  380MOL0     C51211  -0.598   4.870   8.788 -0.3265  0.1523  0.4722
  380MOL0     C51212  -0.473   4.882   8.843  0.7817 -0.2013  0.0722
  380MOL0     O51213  -0.127   4.834   8.696 -0.0541 -0.3653  0.4741
  380MOL0     C51214   0.105   4.884   8.819 -0.3813 -0.3023 -0.0426
  380MOL0     C51215   0.234   4.925   8.867 -0.6277  0.2210  0.2196
  380MOL0     N51216   0.998   5.164   9.081 -0.2607 -0.8722 -0.6923
  380MOL0     N51217   1.131   5.143   9.065  0.0265  0.1770 -0.0432
  380MOL0     C51218   2.255   5.360   9.375 -0.1235  0.4293 -0.1205
  380MOL0     C51219   2.396   5.335   9.397 -0.6823 -0.4669  0.4702
  380MOL0     C51220   2.722   5.256   9.678 -0.2422  0.9036  0.4901
  380MOL0     C51221   2.809   5.284   9.578  0.4280 -0.1053  0.6108
  380MOL0     C51222   2.940   5.306   9.614 -0.5552 -0.1697  0.4635
  380MOL0     C51223   2.973   5.301   9.749 -1.2364 -0.2496  0.0074
  380MOL0     O51224   3.102   5.313   9.796 -0.5835 -0.1379 -0.1698
  380MOL0     C51225   3.205   5.286   9.698 -0.2268  0.0333 -0.1228
  380MOL0     C51226   3.339   5.290   9.777  0.7028  0.5343  0.3903
  380MOL0     C51227   3.349   5.171   9.873  0.2083  0.9213  0.9988
  380MOL0     C51228   3.310   5.200  10.021 -0.5534 -0.4610 -0.2261
  380MOL0     C51229   3.420   5.282  10.079 -0.0096  0.2200  0.2551
  380MOL0     C51230   3.516   5.351  10.124  0.1985 -0.0298  0.1331
  380MOL0     C51231   2.888   5.274   9.847 -0.0239  0.2726  0.0145
  380MOL0     C51232   2.755   5.251   9.811  0.0292  0.2045 -0.3353
  380MOL0     H51233   2.362   5.018   9.522  1.2984 -1.1620 -2.5348
  380MOL0     H51234   2.130   5.070   9.480  0.5830  1.9754  3.5590
  380MOL0     H51235   1.987   5.397   9.220 -0.3062 -0.3425 -0.5669
  380MOL0     H51236   1.951   5.220   9.233 -0.5026 -0.4802  0.9823
  380MOL0     H51237   1.798   5.440   9.364 -0.4426 -1.7125  3.0686
  380MOL0     H51238   1.759   5.360   9.213 -0.8930 -0.6665  1.3566
  380MOL0     H51239   1.781   5.190   9.462 -0.1432 -1.9762 -1.8481
  380MOL0     H51240   1.636   5.284   9.424 -2.6671 -2.2174 -2.4344
  380MOL0     H51241   1.631   5.151   9.193  0.4941 -4.7864 -1.1342
  380MOL0     H51242   1.754   5.049   9.275  0.8912  0.1238  2.6203
  380MOL0     H51243   1.544   4.950   9.282 -0.0453  1.0606 -0.6396
  380MOL0     H51244   1.597   4.996   9.443  1.3504 -2.2333 -2.2574
  380MOL0     H51245   1.375   5.013   9.440  0.3567 -1.1034 -0.9614
  380MOL0     H51246   1.435   5.185   9.443 -2.1774 -1.4129  1.1144
  380MOL0     H51247   1.257   5.193   9.305 -1.5119 -1.4475 -0.2263
  380MOL0     H51248   1.386   5.197   9.187 -2.7197 -1.9075 -3.3671
  380MOL0     H51249   1.298   4.930   9.265  2.9078  0.9988  0.5633
  380MOL0     H51250   1.361   4.999   9.106  0.1111 -1.9056  0.6083
  380MOL0     H51251   1.032   4.909   9.288 -1.0291  0.1570  1.0233
  380MOL0     H51252   0.789   4.994   9.304 -3.1450  0.7331 -0.1818
  380MOL0     H51253   0.780   5.157   9.237  0.7463  0.2888 -3.3661
  380MOL0     H51254   0.708   4.883   9.118  1.0747 -0.0017  0.4597
  380MOL0     H51255   0.752   5.016   9.003  3.0114  0.7382  1.1749
  380MOL0     H51256   0.564   5.145   9.098  0.8218 -0.8130  0.2667
  380MOL0     H51257   0.537   5.026   9.227  1.9793 -0.8948  0.7543
  380MOL0     H51258   0.456   4.858   9.044  1.0904  0.5133 -0.2105
  380MOL0     H51259   0.509   4.969   8.928  1.7464 -0.1274  0.6179
  380MOL0     H51260   0.125   5.091   9.133 -1.0510 -0.0994 -0.0199
  380MOL0     H51261  -0.151   5.168   9.034  0.8291 -0.3943 -0.1982
  380MOL0     H51262  -0.210   5.001   9.080  0.4954  0.6150 -0.3102
  380MOL0     H51263  -0.105   5.090   9.181 -2.9120  2.0109  1.5940
  380MOL0     H51264  -0.322   5.022   8.576  0.2698  2.1387  1.2118
  380MOL0     H51265  -0.542   4.950   8.467 -0.8678  1.1661  0.2219
  380MOL0     H51266  -0.865   4.813   8.735  0.0081  1.4551  0.8957
  380MOL0     H51267  -0.864   4.995   8.698 -1.0283 -0.0269 -0.3826
  380MOL0     H51268  -0.952   4.971   8.483  1.5209 -0.2030 -0.7442
  380MOL0     H51269  -0.957   4.793   8.508  0.5667 -1.5302  2.3749
  380MOL0     H51270  -1.119   4.998   8.676  0.8441  0.4051  1.0968
  380MOL0     H51271  -1.132   4.827   8.685 -0.1088 -0.8905 -1.0452
  380MOL0     H51272  -1.174   4.955   8.415 -3.0789  0.8644 -2.3333
  380MOL0     H51273  -1.205   4.795   8.476  1.5327  0.0582  0.7970
  380MOL0     H51274  -1.369   5.047   8.564  1.5822  0.9337 -2.0717
  380MOL0     H51275  -1.384   4.880   8.633 -2.1911  0.6244  0.0223
  380MOL0     H51276  -1.418   4.988   8.350 -0.0220 -0.2188  0.1261
  380MOL0     H51277  -1.427   4.812   8.378  0.1342 -0.6447  0.7975
  380MOL0     H51278  -1.638   4.939   8.343 -0.9966  3.5605  1.3014
  380MOL0     H51279  -1.623   5.006   8.508  0.9534 -0.3341  0.4427
  380MOL0     H51280  -1.633   4.776   8.599 -1.6730  3.9213  1.8311
  380MOL0     H51281  -1.646   4.712   8.434  2.2440 -0.3883  0.8077
  380MOL0     H51282  -0.680   4.859   8.858  0.5979  2.9899  2.2043
  380MOL0     H51283  -0.452   4.861   8.948 -0.9853  0.6557  0.6489
  380MOL0     H51284   0.113   4.818   8.732  2.0806 -2.0732  1.4058
  380MOL0     H51285   0.315   4.888   8.804 -2.8920  0.3076 -2.9601
  380MOL0     H51286   2.223   5.446   9.316  1.9356  0.8396 -0.7185
  380MOL0     H51287   2.472   5.404   9.360  0.1673 -1.0776  1.0262
  380MOL0     H51288   2.775   5.284   9.475  0.0708 -1.4168  0.7091
  380MOL0     H51289   3.010   5.346   9.541  0.2870  1.2551  2.0057
  380MOL0     H51290   3.176   5.190   9.655 -1.0103  0.1212  0.2028
  380MOL0     H51291   3.212   5.357   9.615  1.0572 -1.0607 -1.0022
  380MOL0     H51292   3.342   5.390   9.821 -1.4251  0.6337  0.4102
  380MOL0     H51293   3.426   5.284   9.711 -0.1970  0.3803 -0.8102
  380MOL0     H51294   3.449   5.127   9.860 -0.1084 -0.0135  1.6272
  380MOL0     H51295   3.281   5.089   9.849 -2.4122  2.6935  1.9098
  380MOL0     H51296   3.304   5.106  10.077 -0.9550 -0.8827 -0.9695
  380MOL0     H51297   3.211   5.245  10.024 -0.0290  0.7869  3.2008
  380MOL0     H51298   3.581   5.426  10.163  1.1330  0.0288 -1.4463
  380MOL0     H51299   2.927   5.262   9.948  1.1002  1.1982 -0.2908
  380MOL0     H51300   2.679   5.228   9.885  1.2948 -0.7196  0.7220
  381MOL0     O51301   4.961   9.567   9.876  0.1193  0.1149 -0.8233
  381MOL0     C51302   5.067   9.614   9.832  0.0299 -0.5844  0.4216
  381MOL0     O51303   5.120   9.733   9.862 -0.1824  0.1213 -0.3172
  381MOL0     C51304   5.029   9.823   9.913 -0.4599 -0.9466 -0.8364
  381MOL0     C51305   4.906   9.854   9.856  0.0446  0.2995  0.0957
  381MOL0     C51306   4.833   9.966   9.900 -0.4106 -0.7392 -0.4437
  381MOL0     C51307   4.870  10.035  10.015 -0.0916 -0.0743  0.9209
  381MOL0     O51308   4.806  10.146  10.068  0.6902 -0.2035  0.0435
  381MOL0     C51309   4.663  10.141  10.078  0.4963 -0.3295  0.1010
  381MOL0     C51310   4.630  10.067  10.206  0.5801 -0.3850 -0.9588
  381MOL0     C51311   4.486  10.054  10.223 -0.3541 -0.2341  0.0181
  381MOL0     C51312   4.452  10.017  10.365 -0.5233 -0.1483 -0.4137
  381MOL0     C51313   4.313   9.986  10.389 -0.3393 -0.7513 -0.0436
  381MOL0     C51314   4.238  10.117  10.380 -0.8430 -0.0131 -0.0315
  381MOL0     C51315   4.095  10.085  10.429 -0.4300 -0.1065  0.0221
  381MOL0     C51316   4.091  10.093  10.588  0.4257  0.6592  0.1685
  381MOL0     N51317   4.080  10.230  10.641 -0.6835  0.1164 -0.7796
  381MOL0     C51318   3.954  10.293  10.647 -0.6519 -0.2213  0.1372
  381MOL0     C51319   3.977  10.415  10.715 -0.2491 -0.9895  0.5870
  381MOL0     C51320   3.899  10.543  10.737  0.2300 -0.0131 -0.0519
  381MOL0     C51321   3.770  10.505  10.812 -0.1622 -0.3060  0.4125
  381MOL0     C51322   3.771  10.506  10.962 -0.3407  0.4605 -0.2246
  381MOL0     C51323   3.640  10.484  11.021 -0.4140 -0.6029 -0.5723
  381MOL0     O51324   3.593  10.355  10.979  0.0928  0.5187 -0.2953
  381MOL0     C51325   3.480  10.294  11.034 -0.7450  0.0167  0.2335
  381MOL0     C51326   3.406  10.348  11.145  0.1340  0.0010  1.0472
  381MOL0     C51327   3.298  10.270  11.193 -0.1239  0.9494  0.4759
  381MOL0     C51328   3.217  10.330  11.305  0.3049 -1.0634 -0.3827
  381MOL0     C51329   3.258  10.147  11.133 -0.3307 -0.6224  0.2882
  381MOL0     C51330   3.138  10.081  11.181 -0.1066 -0.0320 -1.1204
  381MOL0     O51331   3.142  10.003  11.290  0.0619  0.3750  0.1281
  381MOL0     C51332   3.036  10.005  11.378 -0.0670  0.8970  0.2104
  381MOL0     C51333   2.899   9.982  11.339  0.4025  0.4553  1.0857
  381MOL0     C51334   2.795   9.975  11.428 -0.1428  0.0547 -0.0138
  381MOL0     C51335   2.828   9.961  11.565 -0.1248 -0.1931 -1.4246
  381MOL0     O51336   2.750   9.945  11.673  0.5281  0.3650 -0.3424
  381MOL0     C51337   2.630   9.867  11.656  0.1850 -0.7213 -0.2724
  381MOL0     C51338   2.548   9.885  11.788 -0.3171 -0.0445  0.1101
  381MOL0     C51339   2.601   9.804  11.905 -0.4666 -0.1236 -0.7379
  381MOL0     C51340   2.736   9.842  11.959 -0.2011  0.4399  0.5193
  381MOL0     C51341   2.741   9.811  12.107 -0.8422  0.0896 -0.0264
  381MOL0     C51342   2.880   9.823  12.170  0.1059  0.6167  0.1324
  381MOL0     C51343   2.885   9.764  12.317  0.2669 -0.2890 -0.1736
  381MOL0     C51344   2.994   9.840  12.398  0.5763  0.0634  0.7100
  381MOL0    Cl51345   3.151   9.797  12.331 -0.2429 -0.0579  0.0495
  381MOL0     C51346   2.952   9.992  11.602 -0.3892  0.6438 -0.0561
  381MOL0     C51347   3.057  10.009  11.510  0.1160 -0.1503  0.4547
  381MOL0     O51348   3.044  10.096  11.110  0.4486  0.4669  0.4173
  381MOL0     C51349   3.343  10.090  11.025 -0.0084  0.1953  0.8113
  381MOL0     C51350   3.447  10.169  10.974  0.5114  0.4325  0.0100
  381MOL0     N51351   4.115  10.413  10.741 -0.5134 -0.0191 -0.3020
  381MOL0     N51352   4.173  10.302  10.705  0.0358  0.1400  0.0033
  381MOL0     C51353   4.981   9.984  10.090 -0.6000 -0.8967 -0.4798
  381MOL0     C51354   5.064   9.893  10.030  0.1662 -0.1022  0.4553
  381MOL0     C51355   5.149   9.525   9.750 -0.8398 -0.0199  0.4265
  381MOL0     C51356   5.104   9.392   9.715  0.1915 -0.3700  0.6208
  381MOL0     C51357   5.173   9.308   9.630 -0.8817 -0.0198 -0.5305
  381MOL0     C51358   5.285   9.362   9.566  0.4561  0.5837 -0.2786
  381MOL0     O51359   5.352   9.278   9.471  0.5791 -0.2950 -0.8912
  381MOL0     C51360   5.491   9.235   9.510 -0.1496  0.0477  0.2159
  381MOL0     C51361   5.508   9.193   9.655  0.0314  0.1054  0.1191
  381MOL0     C51362   5.662   9.159   9.675  0.4484 -0.9004 -0.5964
  381MOL0     C51363   5.707   9.154   9.826  0.0884  0.0507  0.4427
  381MOL0     C51364   5.836   9.082   9.846 -0.0652 -0.1950  0.3546
  381MOL0     C51365   5.954   9.033   9.866  0.2625 -0.6998  0.9399
  381MOL0     C51366   5.337   9.485   9.607 -1.0277 -0.0673 -0.6127
  381MOL0     C51367   5.273   9.570   9.700  1.1702 -0.5185 -0.3693
  381MOL0     H51368   4.864   9.797   9.774 -0.7086  1.0960 -0.0913
  381MOL0     H51369   4.753   9.995   9.832 -0.1428 -1.4772 -1.0743
  381MOL0     H51370   4.621  10.242  10.082  0.8270 -0.2358  1.8034
  381MOL0     H51371   4.613  10.096   9.991 -1.1372  2.2399 -0.4163
  381MOL0     H51372   4.675   9.967  10.211 -0.6948 -0.9977 -1.3021
  381MOL0     H51373   4.677  10.120  10.289  0.6999 -1.4966 -0.2961
  381MOL0     H51374   4.439  10.146  10.189 -0.2252 -0.8573 -2.0066
  381MOL0     H51375   4.446   9.985  10.148  0.6159  1.9295 -2.6794
  381MOL0     H51376   4.506   9.928  10.400 -1.6300 -0.8551 -0.4306
  381MOL0     H51377   4.480  10.098  10.433 -3.0194 -1.0804  1.9309
  381MOL0     H51378   4.265   9.918  10.318 -0.9527 -0.6352  0.2543
  381MOL0     H51379   4.316   9.961  10.495  2.8036  0.5850  0.2780
  381MOL0     H51380   4.279  10.186  10.454 -1.7780  0.4752  0.0522
  381MOL0     H51381   4.234  10.163  10.281  0.5920  1.4166  0.5305
  381MOL0     H51382   4.033  10.169  10.395  0.0009  0.9090  1.6192
  381MOL0     H51383   4.069   9.984  10.397  0.7667 -0.4349  0.0431
  381MOL0     H51384   4.187  10.048  10.615  1.3879  1.8707 -1.0534
  381MOL0     H51385   4.008  10.029  10.618 -1.4297  1.7388 -2.2547
  381MOL0     H51386   3.858  10.262  10.606  0.2669 -2.0550 -0.7664
  381MOL0     H51387   3.958  10.627  10.774 -0.8144  2.9785 -4.4261
  381MOL0     H51388   3.874  10.583  10.638  1.1826  0.9403  0.0745
  381MOL0     H51389   3.737  10.409  10.771 -0.2450 -0.3245  0.5227
  381MOL0     H51390   3.695  10.578  10.783 -0.8045 -1.1126 -0.0099
  381MOL0     H51391   3.807  10.606  10.989 -0.7276  1.0696 -1.8861
  381MOL0     H51392   3.845  10.433  10.999 -0.0738  1.5019  1.4259
  381MOL0     H51393   3.567  10.561  10.994 -1.0269 -0.1581  2.0399
  381MOL0     H51394   3.646  10.490  11.130  2.8203  1.7933 -0.7246
  381MOL0     H51395   3.420  10.446  11.188 -0.9552 -0.1891  1.8705
  381MOL0     H51396   3.116  10.363  11.278 -0.6057  0.3570  3.9112
  381MOL0     H51397   3.210  10.260  11.389 -0.5213  2.2250  2.5376
  381MOL0     H51398   3.265  10.424  11.334  1.0438 -1.0989 -1.4344
  381MOL0     H51399   2.877   9.984  11.233 -1.2534  0.3217  1.4146
  381MOL0     H51400   2.696   9.960  11.386  0.1394  0.7326 -0.9615
  381MOL0     H51401   2.573   9.916  11.576 -3.6462 -1.7355  1.5952
  381MOL0     H51402   2.648   9.761  11.633  0.5769 -0.8836  0.7333
  381MOL0     H51403   2.551   9.993  11.806  2.0573 -0.0029 -0.2367
  381MOL0     H51404   2.447   9.852  11.760 -0.6519 -0.5184  1.8128
  381MOL0     H51405   2.590   9.697  11.886  0.6409 -0.6136  1.0745
  381MOL0     H51406   2.538   9.825  11.992  1.5434 -1.1607  1.0558
  381MOL0     H51407   2.803   9.773  11.906 -1.1697 -1.3751  1.5521
  381MOL0     H51408   2.763   9.947  11.941 -1.8192  0.9676  1.0415
  381MOL0     H51409   2.703   9.710  12.124  0.0054 -0.1691  0.4220
  381MOL0     H51410   2.679   9.876  12.169  1.2323  0.6161  1.6530
  381MOL0     H51411   2.948   9.768  12.104 -1.2578 -0.3122 -0.5288
  381MOL0     H51412   2.923   9.924  12.179 -0.8984  0.9997  0.7286
  381MOL0     H51413   2.901   9.656  12.325 -1.9566 -0.5329  2.6695
  381MOL0     H51414   2.791   9.772  12.372 -0.8512 -2.5109 -1.6384
  381MOL0     H51415   2.998   9.808  12.502 -1.6182 -0.0920  0.7779
  381MOL0     H51416   2.975   9.947  12.407 -1.7341 -0.3918  1.9424
  381MOL0     H51417   2.978   9.997  11.707  0.8277  1.7507 -0.3975
  381MOL0     H51418   3.158  10.034  11.543 -0.9678  4.7295  0.9234
  381MOL0     H51419   3.324   9.988  10.993  1.6140  0.6704 -2.0166
  381MOL0     H51420   3.518  10.127  10.904  0.0366  0.7697 -0.6901
  381MOL0     H51421   5.009  10.033  10.183  2.8085 -1.9950 -0.8105
  381MOL0     H51422   5.163   9.875  10.071  0.2452  2.1545  1.4017
  381MOL0     H51423   5.011   9.361   9.762 -0.5564  1.0854  0.1612
  381MOL0     H51424   5.134   9.211   9.601 -1.0372  0.4176 -1.8587
  381MOL0     H51425   5.521   9.150   9.447 -2.3430  1.5309 -3.0828
  381MOL0     H51426   5.552   9.323   9.489 -2.0801  1.8483  1.7067
  381MOL0     H51427   5.431   9.118   9.671  0.0626  0.0711  0.1116
  381MOL0     H51428   5.478   9.277   9.719 -1.8722  0.3732 -1.0483
  381MOL0     H51429   5.725   9.233   9.625 -2.6302  0.7416 -2.3103
  381MOL0     H51430   5.681   9.063   9.627 -1.4222 -1.4277 -0.3559
  381MOL0     H51431   5.628   9.109   9.887 -0.9162  0.2207 -0.6961
  381MOL0     H51432   5.716   9.260   9.853 -0.1828  0.5568 -1.3347
  381MOL0     H51433   6.047   8.983   9.885 -0.9573 -2.3516  2.8795
  381MOL0     H51434   5.432   9.518   9.564 -0.9353  1.6283  0.7788
  381MOL0     H51435   5.304   9.670   9.727 -3.5215  1.1337 -0.1241
  382MOL0     O51436   5.211   5.202   8.692 -0.3958 -0.0698  0.2621
  382MOL0     C51437   5.307   5.280   8.669 -0.5965 -0.0037  0.0484
  382MOL0     O51438   5.327   5.400   8.729 -0.2559  0.2884 -0.0488
  382MOL0     C51439   5.226   5.454   8.801  0.3867 -0.8599  0.1566
  382MOL0     C51440   5.241   5.510   8.928  0.0130  0.2715 -0.7946
  382MOL0     C51441   5.138   5.565   9.008  1.3652 -0.4665 -0.5308
  382MOL0     C51442   5.011   5.576   8.949 -0.4207  0.4933 -0.7003
  382MOL0     O51443   4.892   5.626   9.006  0.2862  0.5824 -0.3413
  382MOL0     C51444   4.876   5.621   9.150  0.1248  0.2141 -0.2585
  382MOL0     C51445   4.739   5.660   9.202  1.3835  0.3226 -0.1819
  382MOL0     C51446   4.680   5.782   9.141  1.0861 -0.0470 -0.2094
  382MOL0     C51447   4.600   5.765   9.016 -0.2795 -1.1173  0.1318
  382MOL0     C51448   4.514   5.889   8.995 -0.4325  0.2358 -0.2271
  382MOL0     C51449   4.375   5.870   9.073 -0.2376 -0.7325 -0.3230
  382MOL0     C51450   4.299   6.001   9.108  0.0170  0.4070  0.6009
  382MOL0     C51451   4.184   5.977   9.198 -0.1800 -0.0054 -0.6175
  382MOL0     N51452   4.151   6.113   9.251  0.0572  0.6546  0.2625
  382MOL0     C51453   4.051   6.186   9.189  0.5300 -0.3976 -0.4828
  382MOL0     C51454   4.059   6.306   9.247 -0.4290 -0.2314  0.0829
  382MOL0     C51455   3.995   6.431   9.208  0.1649 -0.4655 -0.3259
  382MOL0     C51456   3.846   6.422   9.254 -0.5747 -0.2743 -0.7196
  382MOL0     C51457   3.763   6.544   9.201  1.3380 -0.7642 -0.0555
  382MOL0     C51458   3.621   6.543   9.270 -0.1863  0.3696 -0.6748
  382MOL0     O51459   3.515   6.609   9.201 -0.1742  0.1580  0.0365
  382MOL0     C51460   3.399   6.597   9.266 -0.2277  0.2396 -0.3885
  382MOL0     C51461   3.365   6.712   9.338  0.3551  0.1858  0.6812
  382MOL0     C51462   3.239   6.733   9.388  0.3354 -0.2010 -1.2156
  382MOL0     C51463   3.223   6.864   9.454 -0.1441 -0.2897  0.2180
  382MOL0     C51464   3.144   6.628   9.382 -0.3166  0.4131  0.5388
  382MOL0     C51465   2.993   6.647   9.420 -0.2927  0.0299  0.3151
  382MOL0     O51466   2.948   6.761   9.487 -0.3204 -0.0551 -0.2097
  382MOL0     C51467   2.812   6.781   9.488 -0.0698 -0.2229  0.3324
  382MOL0     C51468   2.758   6.828   9.370  0.4785  0.4142 -0.2634
  382MOL0     C51469   2.618   6.860   9.365 -0.2305 -0.2754  0.1867
  382MOL0     C51470   2.533   6.840   9.471  0.9427  1.0494 -0.4104
  382MOL0     O51471   2.394   6.856   9.472 -0.3702  0.1547 -0.6818
  382MOL0     C51472   2.332   6.958   9.385 -1.3124 -0.4696 -0.4089
  382MOL0     C51473   2.183   6.973   9.411 -0.5126 -0.1160 -0.4086
  382MOL0     C51474   2.144   7.026   9.547  0.4562 -0.3764 -0.2108
  382MOL0     C51475   2.144   7.176   9.538 -0.2820 -0.8411 -0.4823
  382MOL0     C51476   2.101   7.228   9.680 -0.0110 -0.9948  0.5068
  382MOL0     C51477   1.952   7.205   9.707 -0.3333 -0.4215 -0.6724
  382MOL0     C51478   1.914   7.276   9.831 -1.0133  0.6218 -0.6396
  382MOL0     C51479   1.763   7.253   9.862  0.4673 -0.5547  0.5039
  382MOL0    Cl51480   1.764   7.079   9.903 -0.8079 -0.2397 -0.4096
  382MOL0     C51481   2.594   6.785   9.586  0.6656 -0.5948  0.1147
  382MOL0     C51482   2.735   6.764   9.597  0.2229 -0.4903  0.4047
  382MOL0     O51483   2.923   6.550   9.398 -0.0543 -0.5966 -0.0861
  382MOL0     C51484   3.182   6.508   9.312 -0.5220 -0.4441  0.4098
  382MOL0     C51485   3.305   6.493   9.243 -0.1703  0.6663 -0.3939
  382MOL0     N51486   4.171   6.320   9.330 -0.4253  0.8141  0.0752
  382MOL0     N51487   4.223   6.192   9.342  0.0813  0.3623  0.3639
  382MOL0     C51488   4.992   5.527   8.817  0.4688 -1.4999  0.1633
  382MOL0     C51489   5.101   5.464   8.750  0.4580 -0.0787  0.3863
  382MOL0     C51490   5.422   5.207   8.608  0.1871 -0.0578  0.0047
  382MOL0     C51491   5.393   5.116   8.510  0.0483  0.2139  0.0755
  382MOL0     C51492   5.497   5.049   8.442  0.1760  0.9626  0.0968
  382MOL0     C51493   5.631   5.079   8.467 -0.7317  0.0610  0.1860
  382MOL0     O51494   5.740   5.032   8.395  0.0022  0.7043  0.2861
  382MOL0     C51495   5.709   4.964   8.279  0.1278  0.7286 -0.0083
  382MOL0     C51496   5.838   4.903   8.218  0.4421 -0.0072 -0.4917
  382MOL0     C51497   5.887   4.783   8.306  0.0951 -0.4282  0.5061
  382MOL0     C51498   6.015   4.709   8.260  0.3772 -0.8239  0.1413
  382MOL0     C51499   6.124   4.798   8.225 -0.0156 -0.0725  0.6369
  382MOL0     C51500   6.223   4.865   8.193  0.2210  0.0349 -0.4031
  382MOL0     C51501   5.662   5.172   8.564  0.4853  0.3101 -0.7260
  382MOL0     C51502   5.555   5.234   8.638 -0.6108  1.0445  0.1136
  382MOL0     H51503   5.340   5.517   8.971 -0.2643 -0.0233 -0.0950
  382MOL0     H51504   5.167   5.609   9.103 -1.9742 -0.9714  0.8418
  382MOL0     H51505   4.899   5.522   9.190  0.2035  0.2259 -0.2753
  382MOL0     H51506   4.949   5.686   9.198  1.2457 -0.7504 -0.5821
  382MOL0     H51507   4.668   5.578   9.194  1.6085  0.0073  0.8410
  382MOL0     H51508   4.746   5.678   9.310 -0.9098  0.9398 -0.0925
  382MOL0     H51509   4.618   5.833   9.214  0.9010 -0.0765 -0.3452
  382MOL0     H51510   4.758   5.857   9.121  0.8261  0.6799  1.3775
  382MOL0     H51511   4.669   5.777   8.932  1.0715  0.8477  1.4421
  382MOL0     H51512   4.552   5.667   9.026  3.6120 -3.1855  0.6767
  382MOL0     H51513   4.573   5.967   9.044 -4.2956  2.4902  1.2604
  382MOL0     H51514   4.487   5.909   8.891 -4.7097 -0.5083  0.5461
  382MOL0     H51515   4.302   5.815   9.013 -1.1938  1.8105 -1.6391
  382MOL0     H51516   4.399   5.813   9.163  1.9501 -0.1637 -0.5038
  382MOL0     H51517   4.369   6.066   9.161  3.7501  0.6497 -3.9725
  382MOL0     H51518   4.284   6.056   9.014  1.8876 -1.1116 -0.6584
  382MOL0     H51519   4.222   5.913   9.278  0.6239  0.1101 -0.8972
  382MOL0     H51520   4.091   5.937   9.156 -1.8015  2.0031  0.8127
  382MOL0     H51521   3.984   6.150   9.112  0.1865  1.4904 -1.1046
  382MOL0     H51522   4.043   6.511   9.265  0.5545  0.3675 -1.7776
  382MOL0     H51523   4.004   6.452   9.101  2.8466  0.4304  0.0081
  382MOL0     H51524   3.838   6.413   9.362 -2.1803 -1.8710 -0.9084
  382MOL0     H51525   3.790   6.339   9.210  0.3228 -0.6028 -1.2519
  382MOL0     H51526   3.745   6.530   9.094 -2.1165  1.1695  0.1141
  382MOL0     H51527   3.799   6.643   9.229 -1.5808  0.2594  0.4899
  382MOL0     H51528   3.640   6.596   9.364  3.0620 -0.2277 -0.8785
  382MOL0     H51529   3.590   6.439   9.278 -1.8693  0.8478 -0.5604
  382MOL0     H51530   3.440   6.789   9.348  0.0583  0.3367  1.9611
  382MOL0     H51531   3.314   6.926   9.457  0.0788  0.0341 -4.9361
  382MOL0     H51532   3.142   6.916   9.402 -2.9481 -0.7678  3.7022
  382MOL0     H51533   3.197   6.848   9.559  0.7442  0.4464  0.5667
  382MOL0     H51534   2.827   6.844   9.288  1.7189  1.3359  0.9125
  382MOL0     H51535   2.575   6.902   9.274 -0.5140 -0.6136  0.1645
  382MOL0     H51536   2.383   7.052   9.405 -2.6866 -0.0580  1.4599
  382MOL0     H51537   2.352   6.928   9.281 -2.6234 -3.0270 -0.0081
  382MOL0     H51538   2.138   7.032   9.330  2.1430  1.9882 -0.5145
  382MOL0     H51539   2.138   6.874   9.410 -3.8005  1.2440 -1.4015
  382MOL0     H51540   2.201   6.981   9.629 -0.3088 -1.0774 -0.0509
  382MOL0     H51541   2.041   6.998   9.571  0.3198 -0.6017 -1.0418
  382MOL0     H51542   2.236   7.224   9.503 -0.9795 -0.4490 -1.8471
  382MOL0     H51543   2.064   7.205   9.469 -1.2785 -3.2684 -0.4412
  382MOL0     H51544   2.126   7.334   9.675  1.0170 -1.2713 -3.2308
  382MOL0     H51545   2.162   7.180   9.757 -1.8316  1.6600  3.8804
  382MOL0     H51546   1.889   7.238   9.623 -1.3816  1.7070  0.8356
  382MOL0     H51547   1.935   7.098   9.716 -0.4145 -0.5100 -1.7113
  382MOL0     H51548   1.923   7.384   9.820 -0.8346  0.8589  1.4457
  382MOL0     H51549   1.969   7.243   9.919 -0.1193  0.5854 -1.1951
  382MOL0     H51550   1.701   7.271   9.774  0.7851 -1.0193  0.1811
  382MOL0     H51551   1.722   7.312   9.945  0.0585 -0.6076  0.3386
  382MOL0     H51552   2.531   6.778   9.674 -0.1324 -1.4517 -0.5099
  382MOL0     H51553   2.779   6.739   9.693 -2.6513 -0.2358  1.8966
  382MOL0     H51554   3.113   6.430   9.284  0.9920 -0.5984 -3.5732
  382MOL0     H51555   3.322   6.402   9.187 -4.2986  0.3042 -1.3684
  382MOL0     H51556   4.897   5.545   8.767 -0.2668  0.8279  2.1774
  382MOL0     H51557   5.073   5.432   8.650 -0.9102 -3.3813  1.6667
  382MOL0     H51558   5.293   5.080   8.488  1.1028 -2.9581 -0.0015
  382MOL0     H51559   5.465   4.975   8.368  0.6004  1.7298 -0.8811
  382MOL0     H51560   5.637   4.882   8.286 -0.1420  1.0828  2.1365
  382MOL0     H51561   5.666   5.048   8.225 -0.1385 -0.1950 -1.2729
  382MOL0     H51562   5.909   4.985   8.211 -1.0334  1.3628  0.0808
  382MOL0     H51563   5.815   4.864   8.119  0.9932 -2.4073  0.2563
  382MOL0     H51564   5.814   4.703   8.321  0.8148 -1.0811  0.6044
  382MOL0     H51565   5.916   4.836   8.397  1.7548  1.4957 -1.0378
  382MOL0     H51566   5.999   4.648   8.170  0.3496 -1.8655  0.8345
  382MOL0     H51567   6.038   4.642   8.343 -1.1275 -0.9268  0.5130
  382MOL0     H51568   6.317   4.897   8.154  0.8116  0.3736  1.2383
  382MOL0     H51569   5.767   5.191   8.583 -0.1428  0.5937  3.0378
  382MOL0     H51570   5.583   5.315   8.705  4.3095  0.4234 -0.8396
  383MOL0     O51571   0.118   0.053  10.029  0.3373  0.2349 -1.4465
  383MOL0     C51572   0.139  -0.031  10.115  0.6985  0.9287  0.3855
  383MOL0     O51573   0.049  -0.124  10.165  0.0711  0.1668 -0.3671
  383MOL0     C51574  -0.075  -0.129  10.106 -0.3597  0.8751  1.0128
  383MOL0     C51575  -0.170  -0.165  10.197  0.0674 -0.3637 -0.0599
  383MOL0     C51576  -0.308  -0.181  10.164  0.0312  0.5820  0.3664
  383MOL0     C51577  -0.349  -0.171  10.032  1.0126 -0.2149 -0.1283
  383MOL0     O51578  -0.475  -0.141   9.985 -0.2013 -0.1246 -0.8391
  383MOL0     C51579  -0.577  -0.202  10.049 -0.2722 -0.3905  1.3595
  383MOL0     C51580  -0.708  -0.178   9.983 -0.6180  1.0206  0.5898
  383MOL0     C51581  -0.714  -0.236   9.836  0.4619  0.1848 -0.3049
  383MOL0     C51582  -0.853  -0.275   9.795  0.1400 -0.1751 -0.5198
  383MOL0     C51583  -0.897  -0.392   9.873  0.2718 -0.2655  1.7356
  383MOL0     C51584  -1.017  -0.462   9.807  0.1766 -0.3145 -0.2915
  383MOL0     C51585  -1.141  -0.396   9.866 -0.5639  0.4023  0.5649
  383MOL0     C51586  -1.261  -0.422   9.776 -0.0216  0.0003  0.3513
  383MOL0     N51587  -1.385  -0.380   9.837 -0.1584  0.0451 -0.4311
  383MOL0     C51588  -1.466  -0.446   9.932  0.3305 -0.8933 -0.1625
  383MOL0     C51589  -1.563  -0.359   9.956  0.5107 -0.6006 -0.6922
  383MOL0     C51590  -1.670  -0.359  10.057 -0.7150  0.3248  0.2662
  383MOL0     C51591  -1.805  -0.413  10.029 -0.6960  0.0446  0.1630
  383MOL0     C51592  -1.886  -0.314   9.950  0.1264 -0.4064 -0.0963
  383MOL0     C51593  -2.035  -0.359   9.931  0.8318 -0.0179  0.0161
  383MOL0     O51594  -2.106  -0.360  10.053 -0.6789  0.0145  0.1038
  383MOL0     C51595  -2.244  -0.363  10.049  0.1850 -0.6289 -0.0404
  383MOL0     C51596  -2.311  -0.291  10.149  0.6392  0.4092 -1.1846
  383MOL0     C51597  -2.448  -0.281  10.156 -0.1743  0.0916 -0.4591
  383MOL0     C51598  -2.517  -0.197  10.269  0.1617 -0.2898  0.1159
  383MOL0     C51599  -2.519  -0.343  10.057  0.2165 -0.2787  1.1563
  383MOL0     C51600  -2.675  -0.346  10.045 -0.6285 -0.6447 -0.5082
  383MOL0     O51601  -2.745  -0.355  10.164 -0.4683  0.4096  0.7717
  383MOL0     C51602  -2.878  -0.384  10.163 -0.3730 -0.6365 -0.3347
  383MOL0     C51603  -2.930  -0.492  10.088 -0.2558  0.7190  0.3463
  383MOL0     C51604  -3.070  -0.518  10.095  0.3531 -0.4455  0.1214
  383MOL0     C51605  -3.160  -0.444  10.172 -0.2018  0.2456 -0.1542
  383MOL0     O51606  -3.291  -0.484  10.179  0.2933 -0.5491 -0.2380
  383MOL0     C51607  -3.397  -0.408  10.234 -0.1645  0.0351  0.8403
  383MOL0     C51608  -3.534  -0.468  10.203  0.1758  0.0832 -0.4966
  383MOL0     C51609  -3.634  -0.357  10.237 -0.7859 -0.1858  0.1046
  383MOL0     C51610  -3.632  -0.325  10.384  0.6633 -0.2957 -0.4988
  383MOL0     C51611  -3.742  -0.222  10.426  0.4185  0.3114 -0.3185
  383MOL0     C51612  -3.886  -0.273  10.399 -0.0419  0.0867 -0.1765
  383MOL0     C51613  -3.998  -0.205  10.483  0.2052  0.8433  0.2955
  383MOL0     C51614  -4.117  -0.304  10.511 -0.2678 -0.3323  0.3232
  383MOL0    Cl51615  -4.233  -0.228  10.617  0.1090  0.3006  0.1773
  383MOL0     C51616  -3.107  -0.332  10.234  0.2230 -0.6364  0.1829
  383MOL0     C51617  -2.963  -0.307  10.237  0.5701  0.1023  0.9447
  383MOL0     O51618  -2.729  -0.332   9.933 -0.5011  0.9242 -0.1251
  383MOL0     C51619  -2.454  -0.404   9.947  0.1255 -0.4242  0.7760
  383MOL0     C51620  -2.316  -0.428   9.959 -0.4653 -0.2611  0.2193
  383MOL0     N51621  -1.539  -0.237   9.888 -0.3058  0.6459  0.6437
  383MOL0     N51622  -1.438  -0.260   9.815 -0.2778 -0.6298  0.3478
  383MOL0     C51623  -0.252  -0.141   9.937  0.4365 -0.0671 -0.0328
  383MOL0     C51624  -0.119  -0.127   9.967 -0.2167  0.0858  0.3518
  383MOL0     C51625   0.271  -0.022  10.160 -0.9527  0.9564  0.1668
  383MOL0     C51626   0.357   0.088  10.130  0.0754  0.2284 -0.4246
  383MOL0     C51627   0.485   0.092  10.189  0.4722  0.0393  0.9771
  383MOL0     C51628   0.531  -0.008  10.270  0.0862 -0.5011 -0.9814
  383MOL0     O51629   0.651   0.028  10.321 -0.2455  0.0449  0.4416
  383MOL0     C51630   0.731  -0.078  10.378 -1.0532  0.4550 -0.8158
  383MOL0     C51631   0.861  -0.033  10.443 -1.1443 -0.3437  0.9758
  383MOL0     C51632   0.952   0.044  10.346 -0.4867 -0.6880  0.6419
  383MOL0     C51633   1.101   0.071  10.391 -0.5113 -0.3513 -0.0076
  383MOL0     C51634   1.179   0.119  10.286 -0.2546  0.4891  0.2311
  383MOL0     C51635   1.259   0.137  10.191  0.4412 -0.3017 -0.2205
  383MOL0     C51636   0.449  -0.120  10.303  0.4114  0.3713 -0.1248
  383MOL0     C51637   0.317  -0.123  10.249  0.5155 -0.3427 -0.0730
  383MOL0     H51638  -0.149  -0.171  10.304 -3.1742  0.4173  0.7348
  383MOL0     H51639  -0.374  -0.203  10.248  1.0122  0.6579  1.1848
  383MOL0     H51640  -0.554  -0.309  10.051 -1.7283 -0.7607  4.4843
  383MOL0     H51641  -0.583  -0.168  10.153  1.2512 -3.3166  2.4986
  383MOL0     H51642  -0.788  -0.223  10.041 -0.8158  0.7097  0.0741
  383MOL0     H51643  -0.726  -0.070   9.987 -1.5507  0.8445  1.8132
  383MOL0     H51644  -0.671  -0.164   9.766 -1.5023  1.3441 -0.3858
  383MOL0     H51645  -0.654  -0.328   9.828  0.4725  0.0328  1.2749
  383MOL0     H51646  -0.910  -0.187   9.825  0.7301 -0.0773  0.3824
  383MOL0     H51647  -0.864  -0.287   9.687 -0.6312 -1.3775 -0.3216
  383MOL0     H51648  -0.822  -0.471   9.886 -2.2755 -3.2636 -0.3727
  383MOL0     H51649  -0.924  -0.355   9.972 -2.2163  1.3190  0.5517
  383MOL0     H51650  -1.008  -0.467   9.699 -1.1681  0.2007 -0.4488
  383MOL0     H51651  -1.015  -0.569   9.833  2.6312  0.0941  1.5875
  383MOL0     H51652  -1.165  -0.435   9.965  1.2300 -1.7056  0.2382
  383MOL0     H51653  -1.123  -0.288   9.869 -2.4274  0.8167 -0.9303
  383MOL0     H51654  -1.269  -0.530   9.764 -0.1331  0.3054 -3.3664
  383MOL0     H51655  -1.251  -0.385   9.673  2.0348 -0.4988  0.3120
  383MOL0     H51656  -1.464  -0.544   9.979 -1.6427 -0.4252  0.9967
  383MOL0     H51657  -1.642  -0.432  10.133 -1.2359  0.3409  0.4806
  383MOL0     H51658  -1.672  -0.261  10.106 -4.1405  0.2810  0.4562
  383MOL0     H51659  -1.852  -0.436  10.125  1.5514 -1.2603  1.0422
  383MOL0     H51660  -1.798  -0.502   9.966  1.9734  0.5720 -0.4339
  383MOL0     H51661  -1.847  -0.296   9.849 -0.1973  0.7340 -0.0335
  383MOL0     H51662  -1.893  -0.215   9.997 -2.2218 -1.0123  0.9765
  383MOL0     H51663  -2.030  -0.454   9.877  0.7637  0.0722 -0.1535
  383MOL0     H51664  -2.093  -0.291   9.868  0.7491 -0.7761 -0.7415
  383MOL0     H51665  -2.246  -0.234  10.215  0.4595 -1.3583  0.6344
  383MOL0     H51666  -2.576  -0.116  10.227  0.4833  0.6790  1.4726
  383MOL0     H51667  -2.575  -0.262  10.336 -3.1983  0.4557 -1.8469
  383MOL0     H51668  -2.447  -0.132  10.323 -1.6767  0.7298  1.3687
  383MOL0     H51669  -2.865  -0.557  10.030  0.8245  1.5474  0.5913
  383MOL0     H51670  -3.116  -0.599  10.039 -3.3521  2.0039 -0.6560
  383MOL0     H51671  -3.382  -0.402  10.342 -2.3966  0.8384  1.1503
  383MOL0     H51672  -3.386  -0.310  10.187 -2.0819  1.9973  4.0997
  383MOL0     H51673  -3.564  -0.484  10.099  3.4055  2.1927 -1.8910
  383MOL0     H51674  -3.543  -0.562  10.260  2.0840  1.1432  1.7234
  383MOL0     H51675  -3.732  -0.397  10.209  0.3598 -0.9895 -3.2239
  383MOL0     H51676  -3.611  -0.264  10.185  0.8956  0.1347  1.3151
  383MOL0     H51677  -3.649  -0.412  10.448  2.2691  0.8065  1.5544
  383MOL0     H51678  -3.541  -0.278  10.423 -1.4401  1.4080  2.7855
  383MOL0     H51679  -3.740  -0.129  10.368  4.5451  1.3347  1.1497
  383MOL0     H51680  -3.732  -0.181  10.527 -0.6540  3.7582 -1.4635
  383MOL0     H51681  -3.922  -0.266  10.296 -0.0240  4.9711 -0.0938
  383MOL0     H51682  -3.885  -0.380  10.419  3.9466  0.2101  1.3410
  383MOL0     H51683  -4.039  -0.124  10.421 -0.3657 -0.5554 -1.2234
  383MOL0     H51684  -3.965  -0.159  10.577 -1.8731  2.6186  0.2533
  383MOL0     H51685  -4.072  -0.391  10.559  1.3108  0.0769 -0.3592
  383MOL0     H51686  -4.154  -0.330  10.411  0.6868  1.3606 -0.5246
  383MOL0     H51687  -3.182  -0.265  10.276 -0.6112 -0.1285 -1.9689
  383MOL0     H51688  -2.915  -0.232  10.299  2.3294 -0.5780  0.4487
  383MOL0     H51689  -2.511  -0.448   9.866 -1.2600  0.3765  1.2700
  383MOL0     H51690  -2.272  -0.477   9.873  1.3346  0.9900  0.3525
  383MOL0     H51691  -0.284  -0.136   9.833  0.0565  0.7473  0.1157
  383MOL0     H51692  -0.049  -0.098   9.890 -1.1056  0.0310 -0.4870
  383MOL0     H51693   0.325   0.175  10.074  2.2914  1.9211  0.7950
  383MOL0     H51694   0.550   0.178  10.178 -0.9028  0.8150 -2.4303
  383MOL0     H51695   0.684  -0.140  10.456 -0.4457  1.8540  0.7244
  383MOL0     H51696   0.756  -0.145  10.296 -0.7154 -0.6702  0.1774
  383MOL0     H51697   0.926  -0.109  10.487  0.5169  0.6096  0.2716
  383MOL0     H51698   0.840   0.029  10.531  2.9229 -1.3094  2.8790
  383MOL0     H51699   0.912   0.143  10.318  0.8827 -0.7537 -1.8051
  383MOL0     H51700   0.970  -0.019  10.259  0.6393 -0.5869  0.7984
  383MOL0     H51701   1.148  -0.021  10.425 -0.1234  1.2634  4.4743
  383MOL0     H51702   1.104   0.140  10.476  0.6166 -1.4590  0.8803
  383MOL0     H51703   1.315   0.158  10.102  0.0333 -2.9511 -1.1834
  383MOL0     H51704   0.481  -0.200  10.370 -0.3114 -0.0363 -0.2588
  383MOL0     H51705   0.257  -0.210  10.273 -2.1700  0.7982 -2.1075
  384MOL0     O51706   7.881  11.066  10.708  0.2438  0.1396  0.8819
  384MOL0     C51707   7.951  10.963  10.683 -0.2801 -0.5279 -0.0703
  384MOL0     O51708   7.904  10.841  10.661 -0.1263 -0.4119 -1.1522
  384MOL0     C51709   7.771  10.813  10.700 -0.0485 -0.2215 -0.0108
  384MOL0     C51710   7.680  10.740  10.617 -1.0739 -0.2392  0.4772
  384MOL0     C51711   7.553  10.709  10.651 -0.8048  0.0942 -0.0846
  384MOL0     C51712   7.518  10.732  10.780  0.1452  0.0837 -0.3330
  384MOL0     O51713   7.396  10.684  10.805 -0.6603 -0.1522 -0.2970
  384MOL0     C51714   7.318  10.734  10.913 -0.0337  0.8321 -0.7245
  384MOL0     C51715   7.182  10.694  10.871 -0.0304  0.1116  0.4039
  384MOL0     C51716   7.081  10.735  10.971 -0.1315  0.2964 -0.8843
  384MOL0     C51717   6.944  10.739  10.904  0.6766  0.1826  0.2028
  384MOL0     C51718   6.836  10.798  11.001  0.4040  0.2377  0.2729
  384MOL0     C51719   6.694  10.802  10.946 -0.2493  0.1084 -0.0821
  384MOL0     C51720   6.641  10.667  10.906  0.2487  0.0024  0.6161
  384MOL0     C51721   6.491  10.653  10.899  0.4683 -0.0311  0.5460
  384MOL0     N51722   6.419  10.659  11.026 -0.2404 -0.4293  0.7133
  384MOL0     C51723   6.287  10.700  11.034 -0.6091  0.1933  0.7215
  384MOL0     C51724   6.259  10.733  11.160  0.1362  0.3606  0.9181
  384MOL0     C51725   6.135  10.796  11.216 -0.2238 -0.2076  0.1335
  384MOL0     C51726   6.095  10.728  11.351 -0.4341  0.3716  0.4672
  384MOL0     C51727   5.969  10.799  11.410  0.8279 -0.3148 -0.0422
  384MOL0     C51728   5.938  10.736  11.551  0.0021  0.0156 -0.1975
  384MOL0     O51729   5.828  10.804  11.620 -0.3319  0.1760  0.1778
  384MOL0     C51730   5.707  10.797  11.570 -0.2047  0.7117 -0.1173
  384MOL0     C51731   5.613  10.886  11.614 -0.2676 -0.5556 -0.3399
  384MOL0     C51732   5.474  10.906  11.577  0.7657  0.0595  0.7638
  384MOL0     C51733   5.385  11.005  11.651 -0.1920 -0.1877  0.6039
  384MOL0     C51734   5.421  10.810  11.493  0.1015  0.4368 -0.3423
  384MOL0     C51735   5.275  10.804  11.459 -0.2546  0.6366  0.6995
  384MOL0     O51736   5.210  10.687  11.470  0.2794 -0.1694  0.1322
  384MOL0     C51737   5.070  10.688  11.474 -0.0118  0.4095  0.4076
  384MOL0     C51738   4.997  10.677  11.351  0.0971 -0.3921 -0.6763
  384MOL0     C51739   4.865  10.652  11.353 -0.1568 -0.2977  0.7023
  384MOL0     C51740   4.792  10.635  11.479 -0.0071  0.2265  0.7029
  384MOL0     O51741   4.652  10.601  11.477 -0.0241  0.1902 -0.1457
  384MOL0     C51742   4.632  10.464  11.511 -0.3188 -0.6070  0.0993
  384MOL0     C51743   4.476  10.438  11.530 -1.0269 -1.0139 -0.2026
  384MOL0     C51744   4.433  10.297  11.553  0.2911  0.0760  0.9321
  384MOL0     C51745   4.274  10.290  11.538  0.6065  0.3420 -0.1815
  384MOL0     C51746   4.207  10.183  11.624  0.0374  0.1776  0.3226
  384MOL0     C51747   4.047  10.202  11.622 -0.6219  0.3541  0.5601
  384MOL0     C51748   3.969  10.132  11.735  0.1747  0.0194 -0.0333
  384MOL0     C51749   3.820  10.172  11.733  0.0115 -0.0676 -0.1725
  384MOL0    Cl51750   3.805  10.301  11.865  0.2846  0.1766  0.1236
  384MOL0     C51751   4.864  10.644  11.601  0.3848 -0.5266 -0.3980
  384MOL0     C51752   5.000  10.678  11.597  0.0825 -0.3542 -0.3755
  384MOL0     O51753   5.215  10.906  11.431 -0.3665 -0.2525  0.2920
  384MOL0     C51754   5.516  10.719  11.436 -0.0099 -0.1946 -0.5330
  384MOL0     C51755   5.646  10.716  11.477 -0.2809  0.0174  0.0608
  384MOL0     N51756   6.370  10.710  11.237 -0.0957 -0.2165  0.6994
  384MOL0     N51757   6.464  10.679  11.152 -0.9054 -0.2610 -0.3614
  384MOL0     C51758   7.597  10.809  10.876  0.4818  0.0955 -0.8174
  384MOL0     C51759   7.724  10.852  10.829 -0.4686  0.7904 -0.6165
  384MOL0     C51760   8.098  10.980  10.654  0.3374  0.7740 -0.6118
  384MOL0     C51761   8.167  11.098  10.676 -0.2134 -0.8540  0.0291
  384MOL0     C51762   8.310  11.101  10.655  0.2648 -0.2246  0.7688
  384MOL0     C51763   8.380  10.989  10.616  0.1976 -0.6150 -0.6416
  384MOL0     O51764   8.517  10.995  10.620  0.5000 -0.2498  0.0197
  384MOL0     C51765   8.596  10.885  10.561  0.7310 -0.2497 -0.3584
  384MOL0     C51766   8.628  10.792  10.666 -0.2103 -0.1532 -0.4399
  384MOL0     C51767   8.678  10.658  10.617  0.3572 -0.6048 -0.4517
  384MOL0     C51768   8.670  10.552  10.730  0.0212  0.2747  0.4785
  384MOL0     C51769   8.786  10.563  10.814  0.0010  0.3651 -0.3863
  384MOL0     C51770   8.891  10.567  10.881 -0.0112  0.4187 -0.0630
  384MOL0     C51771   8.304  10.871  10.601 -0.1985 -0.9331  0.0820
  384MOL0     C51772   8.171  10.869  10.605  0.0931 -0.1661  0.0302
  384MOL0     H51773   7.709  10.711  10.517  0.4935 -0.2917  0.9287
  384MOL0     H51774   7.487  10.668  10.575 -0.4824  2.4379 -1.7209
  384MOL0     H51775   7.340  10.682  11.006  1.6968 -0.2072 -1.6542
  384MOL0     H51776   7.324  10.840  10.942 -5.7856  1.0647  0.8566
  384MOL0     H51777   7.157  10.753  10.783  0.3351  0.6733  0.6723
  384MOL0     H51778   7.169  10.587  10.849  1.7125 -0.3269  1.3107
  384MOL0     H51779   7.083  10.671  11.060  0.1733  1.9337  0.3309
  384MOL0     H51780   7.107  10.834  11.010  0.3807 -0.0610 -0.2956
  384MOL0     H51781   6.948  10.788  10.806 -0.0886 -1.5958 -0.7593
  384MOL0     H51782   6.919  10.636  10.878 -3.2134  0.3157  2.6806
  384MOL0     H51783   6.838  10.749  11.099  1.2603 -0.7473 -0.2088
  384MOL0     H51784   6.863  10.902  11.020  0.8620 -0.0071  1.0406
  384MOL0     H51785   6.641  10.846  11.031  4.2440 -0.6729  3.5677
  384MOL0     H51786   6.686  10.871  10.862 -0.6247 -0.0234 -0.1554
  384MOL0     H51787   6.686  10.644  10.808  1.6159  0.3650  1.1291
  384MOL0     H51788   6.690  10.589  10.966  0.4028  0.5099  1.1518
  384MOL0     H51789   6.464  10.558  10.851  2.3769  0.3249 -1.3467
  384MOL0     H51790   6.452  10.731  10.833  0.9933 -0.6892 -0.5647
  384MOL0     H51791   6.217  10.716  10.952 -1.0095 -0.4308  0.9326
  384MOL0     H51792   6.158  10.902  11.231  0.9164 -0.1849 -1.5434
  384MOL0     H51793   6.050  10.791  11.147 -0.1604  2.8344 -0.2966
  384MOL0     H51794   6.177  10.751  11.420  0.5567  0.5953 -0.7591
  384MOL0     H51795   6.088  10.621  11.333  2.0488  0.3707 -0.8898
  384MOL0     H51796   5.887  10.792  11.337  1.7547  3.0479 -1.6094
  384MOL0     H51797   5.978  10.908  11.417  2.2006 -0.4344  0.2977
  384MOL0     H51798   6.025  10.757  11.613 -0.8519  1.5502  0.5303
  384MOL0     H51799   5.920  10.628  11.543  0.8050 -0.1288 -0.1633
  384MOL0     H51800   5.645  10.965  11.682 -0.4597 -0.7811  0.0173
  384MOL0     H51801   5.291  10.962  11.687 -1.2146 -0.3637 -2.0233
  384MOL0     H51802   5.440  11.044  11.736 -1.3831 -0.3636  1.4831
  384MOL0     H51803   5.359  11.086  11.582  1.9338 -0.1855 -0.2579
  384MOL0     H51804   5.049  10.671  11.256 -0.2828  0.3670 -0.9421
  384MOL0     H51805   4.816  10.662  11.256  0.5233  1.8743  0.5260
  384MOL0     H51806   4.661  10.414  11.419  4.1475  1.4098  0.1093
  384MOL0     H51807   4.691  10.420  11.592  2.5521 -3.3409 -3.1630
  384MOL0     H51808   4.454  10.499  11.618  3.1614 -0.2636  0.5506
  384MOL0     H51809   4.425  10.476  11.441 -1.7579 -0.2978  0.5104
  384MOL0     H51810   4.439  10.264  11.657 -1.9960  0.4665  1.2397
  384MOL0     H51811   4.481  10.219  11.494 -1.4145  0.0668 -0.5501
  384MOL0     H51812   4.234  10.386  11.571  4.3535  1.3214  2.0302
  384MOL0     H51813   4.240  10.278  11.434 -0.4981  1.6536 -0.0077
  384MOL0     H51814   4.233  10.203  11.728  0.5965  2.3378 -0.1876
  384MOL0     H51815   4.229  10.085  11.581  2.1723  0.5081  0.5501
  384MOL0     H51816   4.028  10.309  11.635 -1.3509  0.4963 -1.3197
  384MOL0     H51817   4.015  10.167  11.523  0.2639 -4.1158  1.6553
  384MOL0     H51818   4.022  10.149  11.829  2.4483  1.2642 -1.4253
  384MOL0     H51819   3.983  10.023  11.731  1.4366  0.1040  1.1980
  384MOL0     H51820   3.757  10.087  11.763  2.0436 -1.7074 -0.2978
  384MOL0     H51821   3.787  10.209  11.636  0.3379  0.3925 -0.1083
  384MOL0     H51822   4.801  10.635  11.689 -3.6785 -1.1883 -3.0735
  384MOL0     H51823   5.054  10.693  11.690 -0.6538 -0.9896  0.1665
  384MOL0     H51824   5.481  10.645  11.364  1.9283  0.1107 -1.8347
  384MOL0     H51825   5.698  10.631  11.434 -3.7472 -1.1527 -2.2815
  384MOL0     H51826   7.556  10.853  10.966  0.3010 -0.0293 -0.8401
  384MOL0     H51827   7.793  10.898  10.900 -1.9214  0.3995  1.1036
  384MOL0     H51828   8.120  11.193  10.699  1.0838 -0.1731 -0.0519
  384MOL0     H51829   8.376  11.187  10.660  0.7952 -0.5708  0.0351
  384MOL0     H51830   8.531  10.842  10.484 -0.6527  1.3277 -0.1235
  384MOL0     H51831   8.686  10.935  10.525  0.2494  2.0698  1.4027
  384MOL0     H51832   8.539  10.785  10.729 -0.3172  0.7993 -0.4633
  384MOL0     H51833   8.713  10.828  10.726  0.1474 -0.3943 -0.7945
  384MOL0     H51834   8.782  10.665  10.586  0.3301 -1.6600 -0.8160
  384MOL0     H51835   8.612  10.626  10.535 -0.6026  0.0078  0.0569
  384MOL0     H51836   8.668  10.453  10.682 -1.7685  1.4428 -2.1267
  384MOL0     H51837   8.584  10.559  10.796  2.3168  5.0873  3.4420
  384MOL0     H51838   8.969  10.589  10.951  1.4127  0.8899 -1.7306
  384MOL0     H51839   8.358  10.779  10.579  0.1120 -0.7204 -0.0608
  384MOL0     H51840   8.125  10.776  10.573 -1.1971  0.3072  0.4155
  385MOL0     O51841   5.625   6.219   6.851 -0.2256 -0.5797 -0.6039
  385MOL0     C51842   5.653   6.103   6.883  0.2049  0.4122  0.8282
  385MOL0     O51843   5.571   6.012   6.934 -0.7838  0.6949  0.1532
  385MOL0     C51844   5.437   6.022   6.924  0.2412 -0.3804 -0.6194
  385MOL0     C51845   5.373   6.067   6.807  0.0955  0.1870 -0.1177
  385MOL0     C51846   5.237   6.089   6.813 -0.2339 -0.4318  0.0767
  385MOL0     C51847   5.163   6.076   6.933 -0.6893 -0.2601  0.1071
  385MOL0     O51848   5.025   6.080   6.937 -0.2382  0.0405  1.2178
  385MOL0     C51849   4.951   6.180   6.859 -0.0991 -0.1125 -0.0028
  385MOL0     C51850   4.800   6.158   6.877 -0.7969 -0.5987 -0.5054
  385MOL0     C51851   4.759   6.155   7.032 -0.4731  0.4923 -1.1768
  385MOL0     C51852   4.609   6.165   7.030  0.7810  0.5691 -0.5061
  385MOL0     C51853   4.572   6.173   7.183 -0.2441 -1.2175  0.3812
  385MOL0     C51854   4.418   6.187   7.204  0.6192  0.4098 -1.0031
  385MOL0     C51855   4.383   6.189   7.356  0.7171  0.1335 -0.1793
  385MOL0     C51856   4.225   6.182   7.354  0.2517 -0.5264 -0.6735
  385MOL0     N51857   4.182   6.162   7.498  0.9013 -0.8892  0.4340
  385MOL0     C51858   4.116   6.262   7.567  0.5712 -0.4517  0.1605
  385MOL0     C51859   4.098   6.212   7.691 -0.3165 -0.8133 -0.0216
  385MOL0     C51860   4.042   6.278   7.813 -0.4503 -0.0480  0.2820
  385MOL0     C51861   3.893   6.301   7.801  0.2569  0.7702 -0.2298
  385MOL0     C51862   3.846   6.374   7.924  0.8210 -0.6146  0.3322
  385MOL0     C51863   3.692   6.402   7.919 -0.5535 -0.1536  0.4308
  385MOL0     O51864   3.624   6.277   7.928  0.4527  0.1292 -0.6017
  385MOL0     C51865   3.514   6.265   7.854 -0.5369  0.2759 -0.4489
  385MOL0     C51866   3.409   6.355   7.866 -0.2323 -0.1414 -0.1580
  385MOL0     C51867   3.291   6.348   7.789 -0.1144 -0.3997  0.0882
  385MOL0     C51868   3.184   6.449   7.800  0.5156  0.6265  0.7353
  385MOL0     C51869   3.285   6.243   7.688  0.4723  1.0227 -0.5027
  385MOL0     C51870   3.187   6.235   7.574  0.0257 -0.6225  0.1172
  385MOL0     O51871   3.156   6.118   7.513  0.0349  0.7957  0.5084
  385MOL0     C51872   3.040   6.101   7.446  0.0877 -0.4556  0.7441
  385MOL0     C51873   2.919   6.147   7.494 -0.0642 -0.4365  0.4703
  385MOL0     C51874   2.798   6.120   7.428  0.0982 -0.6503 -0.6504
  385MOL0     C51875   2.796   6.051   7.306  0.7059 -0.7867 -0.4936
  385MOL0     O51876   2.672   6.025   7.252  0.5398  0.0544  0.1321
  385MOL0     C51877   2.648   6.008   7.107  0.0783  0.1193  0.0751
  385MOL0     C51878   2.491   6.020   7.087  0.2888 -0.4805 -0.8172
  385MOL0     C51879   2.462   6.050   6.943 -0.5959 -0.4854  0.1003
  385MOL0     C51880   2.316   6.038   6.899 -0.4624 -0.0326  0.9101
  385MOL0     C51881   2.248   5.908   6.939 -0.0184 -0.0429  0.5488
  385MOL0     C51882   2.099   5.900   6.915  0.8288 -0.3988 -0.4269
  385MOL0     C51883   2.021   5.788   6.980 -0.2184 -1.0695  0.1064
  385MOL0     C51884   1.874   5.828   6.948  0.3416 -0.0200 -0.6130
  385MOL0    Cl51885   1.768   5.733   7.059 -0.0058  0.3732  0.2579
  385MOL0     C51886   2.916   6.012   7.256  0.5256  0.5649  0.5232
  385MOL0     C51887   3.038   6.041   7.321  0.5816  1.5291 -0.7126
  385MOL0     O51888   3.132   6.338   7.539  0.2261  0.7020  0.2359
  385MOL0     C51889   3.388   6.145   7.691  0.4861  0.3872 -0.3643
  385MOL0     C51890   3.498   6.159   7.768  0.4466  0.3565 -0.0997
  385MOL0     N51891   4.128   6.078   7.696 -0.2436  0.9022 -0.6377
  385MOL0     N51892   4.176   6.049   7.577 -0.3015  0.3002 -0.0288
  385MOL0     C51893   5.232   6.032   7.050  0.0252  0.3648  0.1219
  385MOL0     C51894   5.366   6.017   7.051 -0.2188  0.0054 -0.1728
  385MOL0     C51895   5.797   6.069   6.892 -0.3959 -0.8863  0.1128
  385MOL0     C51896   5.848   5.938   6.931 -1.0983  0.5672  1.1032
  385MOL0     C51897   5.990   5.922   6.958  0.7334  0.4484  1.0577
  385MOL0     C51898   6.084   6.007   6.919  0.0060  0.3564 -0.7203
  385MOL0     O51899   6.223   5.990   6.927 -0.2016  0.0680 -0.2216
  385MOL0     C51900   6.266   5.893   7.019 -0.7731  0.8870 -0.4321
  385MOL0     C51901   6.415   5.922   7.036  0.0512  0.4769 -0.0514
  385MOL0     C51902   6.500   5.851   6.927 -0.2085 -0.1534 -0.3978
  385MOL0     C51903   6.646   5.860   6.965  0.5104  0.2589 -1.0491
  385MOL0     C51904   6.693   5.997   6.930 -0.7181  0.5158  0.4816
  385MOL0     C51905   6.768   6.092   6.905 -0.1265 -1.1732 -0.0295
  385MOL0     C51906   6.033   6.137   6.875 -0.4103  0.8124 -0.1519
  385MOL0     C51907   5.892   6.169   6.866 -0.6004 -0.0092 -0.0372
  385MOL0     H51908   5.430   6.100   6.720 -0.5083  0.6319 -0.3512
  385MOL0     H51909   5.197   6.123   6.718  0.7073 -1.4496 -0.7254
  385MOL0     H51910   4.986   6.278   6.895 -0.9931  0.2234 -0.0266
  385MOL0     H51911   4.964   6.172   6.751  1.3443 -0.0232  0.1485
  385MOL0     H51912   4.754   6.248   6.834  0.3780 -0.7538 -2.1429
  385MOL0     H51913   4.759   6.079   6.813 -2.1279 -1.4524  1.2947
  385MOL0     H51914   4.783   6.058   7.078 -0.7720  1.0121  0.1148
  385MOL0     H51915   4.804   6.243   7.078  0.7612 -1.1677  0.9545
  385MOL0     H51916   4.564   6.252   6.981  0.0200 -0.5584 -1.8827
  385MOL0     H51917   4.564   6.075   6.988  1.5909  0.6762 -1.6615
  385MOL0     H51918   4.610   6.082   7.230 -0.3500 -0.4384  2.0214
  385MOL0     H51919   4.628   6.256   7.226  0.1256 -1.1203 -0.2653
  385MOL0     H51920   4.377   6.273   7.152  2.0005  1.8273  0.1557
  385MOL0     H51921   4.385   6.094   7.157 -0.3995 -0.2172  0.8602
  385MOL0     H51922   4.427   6.103   7.408 -0.4058 -0.9925 -1.0090
  385MOL0     H51923   4.425   6.278   7.403  1.5188 -0.6323  0.6064
  385MOL0     H51924   4.195   6.094   7.296  0.3252 -0.2257 -1.1732
  385MOL0     H51925   4.184   6.273   7.310 -1.0860 -2.1572 -3.0665
  385MOL0     H51926   4.088   6.359   7.529  2.8858 -0.2250 -1.1821
  385MOL0     H51927   4.073   6.212   7.894  2.7884 -0.9256 -1.4855
  385MOL0     H51928   4.088   6.375   7.831 -0.1373 -0.0969 -0.2294
  385MOL0     H51929   3.846   6.203   7.802  0.7696  0.4917 -1.4319
  385MOL0     H51930   3.867   6.359   7.712 -0.8792  1.8068  0.7375
  385MOL0     H51931   3.889   6.474   7.921  1.2506 -0.7565  1.4159
  385MOL0     H51932   3.868   6.332   8.023 -1.3474  4.1774  3.2259
  385MOL0     H51933   3.673   6.463   7.830  0.0869  0.8811  0.9876
  385MOL0     H51934   3.670   6.465   8.005 -2.4770 -4.5734  3.5325
  385MOL0     H51935   3.428   6.432   7.940 -0.5265 -1.2210  1.0780
  385MOL0     H51936   3.183   6.484   7.903  1.4889 -0.8833  1.2852
  385MOL0     H51937   3.196   6.535   7.733 -1.3600  0.7458  0.4965
  385MOL0     H51938   3.088   6.400   7.781  0.9643  0.3801 -1.1651
  385MOL0     H51939   2.915   6.204   7.586  0.7589  0.1337  0.1636
  385MOL0     H51940   2.707   6.164   7.467  1.0758 -0.0369  1.0835
  385MOL0     H51941   2.697   6.085   7.046  0.3344 -0.8309 -0.9507
  385MOL0     H51942   2.680   5.912   7.065  1.2536  1.1392 -1.4767
  385MOL0     H51943   2.465   5.917   7.114  0.1441 -0.6367 -1.5334
  385MOL0     H51944   2.440   6.092   7.152 -0.8963 -1.1460 -0.9807
  385MOL0     H51945   2.520   5.978   6.885  1.2058 -1.6656  3.0994
  385MOL0     H51946   2.495   6.152   6.923 -0.7516 -0.9501 -2.8904
  385MOL0     H51947   2.267   6.121   6.950  0.1100  1.0392 -0.2250
  385MOL0     H51948   2.314   6.050   6.790 -3.2097  0.7295  0.9748
  385MOL0     H51949   2.257   5.895   7.048 -3.1297  3.9444  1.5686
  385MOL0     H51950   2.294   5.833   6.874 -0.4564  0.9402 -0.9405
  385MOL0     H51951   2.060   5.991   6.963  2.7250 -1.1166  2.7901
  385MOL0     H51952   2.075   5.898   6.809 -0.4412 -0.3448 -0.1575
  385MOL0     H51953   2.024   5.794   7.089 -4.4807  0.9450  0.3156
  385MOL0     H51954   2.047   5.690   6.938  0.2550 -1.3653  1.0515
  385MOL0     H51955   1.851   5.814   6.842 -1.8799  0.5423 -0.2641
  385MOL0     H51956   1.857   5.934   6.970 -0.4537 -0.5505  1.5505
  385MOL0     H51957   2.915   5.960   7.160  0.9810  0.5986  0.4959
  385MOL0     H51958   3.132   6.018   7.273  0.9558  2.0234 -0.2272
  385MOL0     H51959   3.388   6.065   7.618  0.4097  1.9125 -2.1265
  385MOL0     H51960   3.582   6.091   7.761  3.8285  4.2851 -2.4921
  385MOL0     H51961   5.166   6.013   7.134 -1.7735  2.6398 -0.6673
  385MOL0     H51962   5.424   6.002   7.141  0.6787  1.8700 -0.3848
  385MOL0     H51963   5.782   5.859   6.966  2.8106 -2.4436  2.4451
  385MOL0     H51964   6.011   5.816   6.973  1.1652 -0.4877 -4.1829
  385MOL0     H51965   6.211   5.909   7.112 -0.8150 -2.2306  0.1871
  385MOL0     H51966   6.249   5.788   6.990  0.7866  0.8774 -1.4510
  385MOL0     H51967   6.431   5.893   7.140 -1.5373  0.7365  0.2868
  385MOL0     H51968   6.446   6.026   7.026 -0.1082  0.4586 -0.8551
  385MOL0     H51969   6.481   5.905   6.834 -3.1396 -0.9985 -0.4041
  385MOL0     H51970   6.467   5.746   6.927  1.9496 -0.9240  1.8460
  385MOL0     H51971   6.703   5.794   6.898  1.3016 -1.7052  1.3992
  385MOL0     H51972   6.665   5.819   7.065  0.7018  2.4602 -0.1340
  385MOL0     H51973   6.822   6.180   6.876 -4.6822  1.6018 -1.0812
  385MOL0     H51974   6.106   6.216   6.858 -2.1133  2.6814  0.7694
  385MOL0     H51975   5.861   6.270   6.839 -2.3291 -1.0576 -2.2523
  386MOL0     O51976   3.075   4.259  10.878 -0.6241  0.4188  0.0460
  386MOL0     C51977   3.092   4.327  10.975  0.0489  0.5074  0.2756
  386MOL0     O51978   3.062   4.455  10.983 -0.4560  0.5165 -0.1719
  386MOL0     C51979   2.961   4.504  10.899  0.5135 -0.0078  0.1484
  386MOL0     C51980   2.994   4.579  10.792  0.3414  0.3077  0.2124
  386MOL0     C51981   2.900   4.629  10.702 -0.5777 -0.5940 -0.0804
  386MOL0     C51982   2.758   4.602  10.732 -0.2697  0.6010  0.2169
  386MOL0     O51983   2.656   4.659  10.664  0.1792  0.1850  0.1677
  386MOL0     C51984   2.680   4.758  10.566 -0.1548  0.1864  0.4045
  386MOL0     C51985   2.698   4.895  10.628  0.4364 -0.1867  0.2654
  386MOL0     C51986   2.572   4.930  10.698  0.7290  0.1169  0.7547
  386MOL0     C51987   2.547   5.079  10.717 -0.3345  0.6433  0.2634
  386MOL0     C51988   2.423   5.120  10.800  0.2393  0.3415 -0.6014
  386MOL0     C51989   2.459   5.105  10.949  0.4921 -0.0393 -0.0195
  386MOL0     C51990   2.373   5.202  11.039  0.0755  0.0202  0.2135
  386MOL0     C51991   2.436   5.231  11.178  0.1987  0.3397 -0.1343
  386MOL0     N51992   2.465   5.102  11.239  0.9001  0.5867 -0.9796
  386MOL0     C51993   2.359   5.037  11.298  1.0363  0.1172 -0.5565
  386MOL0     C51994   2.423   4.944  11.371 -0.0842  0.4180 -0.1340
  386MOL0     C51995   2.367   4.835  11.473  0.2124 -0.3169  0.0563
  386MOL0     C51996   2.280   4.736  11.388  0.1404  0.4334 -0.3704
  386MOL0     C51997   2.380   4.648  11.302 -0.0924 -0.0739 -0.0196
  386MOL0     C51998   2.316   4.513  11.285  0.7781  0.4556 -0.1177
  386MOL0     O51999   2.402   4.429  11.208  0.0626  0.6048 -0.1953
  386MOL0     C52000   2.504   4.365  11.272  0.4470  1.3952  0.1113
  386MOL0     C52001   2.580   4.282  11.188  0.5901  0.2768 -0.2801
  386MOL0     C52002   2.687   4.204  11.245  0.1994 -0.0459  0.6887
  386MOL0     C52003   2.763   4.113  11.151  0.7964  0.7129 -0.2860
  386MOL0     C52004   2.698   4.200  11.383 -0.3836  0.5440 -0.1118
  386MOL0     C52005   2.790   4.098  11.453  0.2064 -0.5284 -0.4032
  386MOL0     O52006   2.747   4.055  11.573 -0.4659  0.3393  0.3463
  386MOL0     C52007   2.833   3.975  11.642 -0.1233  0.8919  0.4749
  386MOL0     C52008   2.924   4.027  11.733 -0.4568  0.1849  0.4656
  386MOL0     C52009   3.010   3.941  11.801  0.2074 -0.9370 -0.3617
  386MOL0     C52010   3.014   3.807  11.768 -0.3985  0.3627  0.2578
  386MOL0     O52011   3.103   3.726  11.838 -1.1711 -0.1767 -0.6741
  386MOL0     C52012   3.089   3.584  11.843 -0.5312 -0.6981 -0.3694
  386MOL0     C52013   3.215   3.548  11.929  0.3788  0.7502 -0.2496
  386MOL0     C52014   3.342   3.513  11.845  0.8945  0.0633 -0.0630
  386MOL0     C52015   3.465   3.496  11.934 -0.0950  0.3491  0.6842
  386MOL0     C52016   3.456   3.384  12.039  0.3876  0.9868  0.6798
  386MOL0     C52017   3.430   3.247  11.968  0.3450  0.3627  0.2864
  386MOL0     C52018   3.527   3.200  11.865  0.0600  0.3943 -0.6379
  386MOL0     C52019   3.672   3.183  11.927  0.7058  0.1845 -0.4566
  386MOL0    Cl52020   3.798   3.151  11.809  0.5836 -0.0265 -0.4484
  386MOL0     C52021   2.923   3.756  11.673  0.2574 -0.3032 -0.1947
  386MOL0     C52022   2.824   3.838  11.622 -0.0810 -0.1376 -0.3788
  386MOL0     O52023   2.902   4.083  11.405 -0.0577  0.2308 -0.2253
  386MOL0     C52024   2.629   4.287  11.466 -0.2136  0.2691 -0.4390
  386MOL0     C52025   2.529   4.373  11.409  0.6737  1.1167 -1.1268
  386MOL0     N52026   2.558   4.960  11.365 -0.0643  0.6708  0.3284
  386MOL0     N52027   2.579   5.057  11.281 -0.1908  0.6676  0.2167
  386MOL0     C52028   2.727   4.510  10.830 -0.2974  0.1316 -0.3289
  386MOL0     C52029   2.825   4.462  10.919 -0.5733 -0.2984  0.3125
  386MOL0     C52030   3.130   4.252  11.094  0.2701 -0.0817  0.0948
  386MOL0     C52031   3.148   4.316  11.217  0.4644  0.7115 -0.4305
  386MOL0     C52032   3.192   4.244  11.324 -0.2893  0.6259  0.8601
  386MOL0     C52033   3.240   4.112  11.312  0.0111  0.2898 -0.4927
  386MOL0     O52034   3.297   4.036  11.406 -0.2650 -0.1714 -0.1318
  386MOL0     C52035   3.308   4.073  11.542 -0.3473  0.1066  0.4211
  386MOL0     C52036   3.352   3.936  11.608  0.5436  0.0794 -0.2484
  386MOL0     C52037   3.386   3.966  11.750  0.4183 -0.3903 -0.3425
  386MOL0     C52038   3.462   3.849  11.820  0.2814 -0.0618  0.3179
  386MOL0     C52039   3.577   3.897  11.894  0.4972 -1.0746 -0.1666
  386MOL0     C52040   3.666   3.931  11.968  0.0838 -0.0675  0.3636
  386MOL0     C52041   3.212   4.040  11.193 -0.3516  0.1344 -0.0636
  386MOL0     C52042   3.152   4.107  11.089  0.3035 -0.1861 -0.7065
  386MOL0     H52043   3.101   4.599  10.787  0.4050 -0.0636  0.0445
  386MOL0     H52044   2.944   4.702  10.634  1.2165  1.1820  2.7831
  386MOL0     H52045   2.765   4.741  10.499 -0.8403 -0.9897 -0.1933
  386MOL0     H52046   2.594   4.760  10.499  1.0373 -0.5987 -1.2086
  386MOL0     H52047   2.780   4.903  10.701 -0.1854  1.3208  0.8400
  386MOL0     H52048   2.724   4.957  10.542  0.6352 -0.8036 -0.1291
  386MOL0     H52049   2.486   4.877  10.656  1.0330 -0.8661  1.3698
  386MOL0     H52050   2.578   4.873  10.791  2.1161  0.0751  0.6582
  386MOL0     H52051   2.636   5.125  10.760 -0.1486  0.6776 -0.1533
  386MOL0     H52052   2.539   5.113  10.613  0.9054  4.3448  1.2257
  386MOL0     H52053   2.389   5.220  10.773  2.2607  0.5982 -2.4235
  386MOL0     H52054   2.339   5.052  10.778 -1.6705  2.7023 -1.0371
  386MOL0     H52055   2.432   5.009  10.993 -0.3997  1.2125  2.3166
  386MOL0     H52056   2.568   5.111  10.964  0.3604 -0.4443  1.2336
  386MOL0     H52057   2.363   5.302  10.994  1.0498 -1.2690 -3.2069
  386MOL0     H52058   2.271   5.162  11.049 -0.0332  0.4637  0.9662
  386MOL0     H52059   2.370   5.298  11.232  1.9479  2.2953 -0.3073
  386MOL0     H52060   2.534   5.278  11.169  1.0387 -1.1167  0.9088
  386MOL0     H52061   2.253   5.058  11.288  1.2535  1.6591  0.0527
  386MOL0     H52062   2.431   4.782  11.544  0.7972 -1.5767 -1.3575
  386MOL0     H52063   2.310   4.895  11.545  0.1832 -2.3135  1.8023
  386MOL0     H52064   2.218   4.800  11.323  0.2337 -0.8135 -1.7191
  386MOL0     H52065   2.206   4.677  11.443 -1.4185  0.2616 -2.5155
  386MOL0     H52066   2.474   4.646  11.357 -0.1110 -0.7378 -0.0024
  386MOL0     H52067   2.399   4.689  11.202 -0.7949 -2.7555 -1.3512
  386MOL0     H52068   2.226   4.517  11.222  0.2296 -0.8457  0.5504
  386MOL0     H52069   2.298   4.479  11.387  0.9864 -0.2294 -0.3028
  386MOL0     H52070   2.541   4.265  11.088 -0.4514  0.0571  0.1548
  386MOL0     H52071   2.734   4.008  11.140  0.9421  0.8210 -1.8181
  386MOL0     H52072   2.760   4.152  11.049  0.6527  1.2408 -0.0819
  386MOL0     H52073   2.870   4.111  11.177  0.6280  1.3219  0.4992
  386MOL0     H52074   2.924   4.134  11.754 -1.3706  0.4336 -0.7202
  386MOL0     H52075   3.076   3.983  11.877 -0.1320 -0.1592 -0.4885
  386MOL0     H52076   2.999   3.547  11.893  0.1380  1.6491  2.9002
  386MOL0     H52077   3.097   3.542  11.742 -0.5886  0.2517 -0.7799
  386MOL0     H52078   3.233   3.625  12.005 -2.2908  0.0463  1.2136
  386MOL0     H52079   3.196   3.464  11.997  3.0309 -0.4327 -0.8333
  386MOL0     H52080   3.373   3.594  11.777  0.5809  2.5539  2.5751
  386MOL0     H52081   3.305   3.428  11.787 -0.0746  0.4122  0.0248
  386MOL0     H52082   3.556   3.483  11.875 -0.3956 -0.6967  0.4159
  386MOL0     H52083   3.469   3.591  11.987  0.7043 -0.4599  2.1320
  386MOL0     H52084   3.382   3.415  12.114  0.5306  1.6867  0.5396
  386MOL0     H52085   3.546   3.373  12.100  0.2424 -2.1082  0.5228
  386MOL0     H52086   3.413   3.172  12.046  3.3590  1.9929  2.7464
  386MOL0     H52087   3.334   3.250  11.915  0.6080 -1.3339 -0.3448
  386MOL0     H52088   3.539   3.270  11.782  2.6003  0.5414 -0.2117
  386MOL0     H52089   3.495   3.101  11.832 -2.3703  0.5920  0.8573
  386MOL0     H52090   3.679   3.104  12.002  1.4058  0.0081 -0.6972
  386MOL0     H52091   3.704   3.272  11.981  0.7129  0.8944 -1.5844
  386MOL0     H52092   2.931   3.650  11.653 -0.7806 -0.9025  2.1943
  386MOL0     H52093   2.747   3.799  11.556 -0.6206 -1.2145  0.8525
  386MOL0     H52094   2.662   4.292  11.569 -1.9572  0.3211  0.1492
  386MOL0     H52095   2.486   4.440  11.483  1.2870 -1.9172  2.2950
  386MOL0     H52096   2.625   4.483  10.856 -0.0851 -1.0807 -0.6868
  386MOL0     H52097   2.802   4.393  11.000  0.3335 -0.7526  0.2036
  386MOL0     H52098   3.113   4.419  11.222 -5.4072 -0.8750 -1.4465
  386MOL0     H52099   3.207   4.283  11.424  0.2676  0.4056  0.8669
  386MOL0     H52100   3.385   4.150  11.544  0.8658 -1.0157 -0.7989
  386MOL0     H52101   3.217   4.107  11.592  0.2318  1.3912  0.6162
  386MOL0     H52102   3.436   3.882  11.563 -0.8476 -1.6739 -0.8775
  386MOL0     H52103   3.268   3.866  11.600 -0.9975  1.7391  0.8977
  386MOL0     H52104   3.289   3.982  11.797 -0.4459 -0.6620 -1.9681
  386MOL0     H52105   3.450   4.052  11.771  0.7848 -0.7205 -0.0908
  386MOL0     H52106   3.496   3.772  11.750 -0.1200 -0.6855  0.8041
  386MOL0     H52107   3.385   3.811  11.887 -1.3614  2.5319  0.0422
  386MOL0     H52108   3.747   3.968  12.029 -0.7997 -0.7909  2.0514
  386MOL0     H52109   3.245   3.937  11.183  2.9317  0.6193  3.5328
  386MOL0     H52110   3.127   4.049  11.000  1.6019 -0.4353 -0.9254
  387MOL0     O52111   1.679   4.232   9.296  0.0471  0.1610  0.0351
  387MOL0     C52112   1.715   4.137   9.368  0.5512  0.0467  0.2468
  387MOL0     O52113   1.634   4.070   9.449 -0.7287  0.1325  0.2038
  387MOL0     C52114   1.505   4.115   9.468  0.8136  0.0794  0.8625
  387MOL0     C52115   1.404   4.119   9.370 -0.4534  0.5712 -1.3928
  387MOL0     C52116   1.283   4.183   9.406  0.4229 -0.5624 -0.0704
  387MOL0     C52117   1.256   4.250   9.528 -0.5197  0.1409 -0.4939
  387MOL0     O52118   1.143   4.328   9.537 -1.1961  0.6661 -0.6862
  387MOL0     C52119   1.129   4.421   9.646 -0.4564  0.2966 -0.3971
  387MOL0     C52120   0.985   4.468   9.669  0.2681 -0.3402 -0.7885
  387MOL0     C52121   0.973   4.564   9.788 -0.0315  0.4368 -0.1368
  387MOL0     C52122   0.837   4.558   9.857  0.2047  0.5483  0.0608
  387MOL0     C52123   0.724   4.621   9.772  0.1289  0.1270 -0.3286
  387MOL0     C52124   0.596   4.591   9.836  0.0799  0.1706 -0.0130
  387MOL0     C52125   0.476   4.649   9.755 -0.5937  0.0169 -0.0140
  387MOL0     C52126   0.344   4.619   9.821 -0.3490  0.0396  0.5893
  387MOL0     N52127   0.238   4.709   9.783 -0.4576  0.1913  1.0934
  387MOL0     C52128   0.197   4.737   9.653 -0.3087  0.3960  0.1621
  387MOL0     C52129   0.102   4.839   9.674  0.5472 -0.4674  0.5258
  387MOL0     C52130   0.024   4.910   9.565 -0.2200  0.5965  0.5312
  387MOL0     C52131  -0.120   4.850   9.548 -0.0585 -0.2134 -0.4189
  387MOL0     C52132  -0.178   4.913   9.426  0.4031 -0.1819 -1.0538
  387MOL0     C52133  -0.320   4.865   9.398 -1.4518  0.5928  0.5595
  387MOL0     O52134  -0.369   4.937   9.280  0.2667 -0.3186 -0.2963
  387MOL0     C52135  -0.505   4.919   9.251 -0.1317  0.7068 -0.1156
  387MOL0     C52136  -0.588   4.823   9.305  1.2280 -0.9291  0.2434
  387MOL0     C52137  -0.721   4.813   9.265 -0.1703 -0.8622  0.1218
  387MOL0     C52138  -0.813   4.709   9.332 -0.1378  0.4305  0.0187
  387MOL0     C52139  -0.777   4.898   9.168 -0.8017  0.3501 -0.0217
  387MOL0     C52140  -0.917   4.881   9.124 -0.3696  0.3396  0.6124
  387MOL0     O52141  -0.970   4.997   9.073  0.1250 -0.4968  0.1536
  387MOL0     C52142  -1.101   5.010   9.028  0.7488  0.4897  0.4127
  387MOL0     C52143  -1.139   5.121   8.956  0.4988  0.1600  0.6618
  387MOL0     C52144  -1.269   5.152   8.919  0.5641 -0.3475 -1.0179
  387MOL0     C52145  -1.373   5.059   8.943 -0.2624  0.9228 -0.5559
  387MOL0     O52146  -1.498   5.098   8.901  0.0542  0.3596 -0.3492
  387MOL0     C52147  -1.612   5.012   8.908  0.1306  0.4028 -0.4205
  387MOL0     C52148  -1.739   5.102   8.878 -0.5090  0.2656 -0.6480
  387MOL0     C52149  -1.800   5.134   9.020  1.2986  0.2887  0.6782
  387MOL0     C52150  -1.937   5.206   9.007 -0.9830 -0.4952  0.3536
  387MOL0     C52151  -1.984   5.234   9.149  0.1939  0.7088 -0.3696
  387MOL0     C52152  -2.126   5.287   9.145 -0.6455 -0.5155 -0.9328
  387MOL0     C52153  -2.174   5.306   9.288  0.7191 -0.3125 -0.1979
  387MOL0     C52154  -2.303   5.389   9.283 -0.4128  0.2615  0.0943
  387MOL0    Cl52155  -2.443   5.319   9.185  0.4634 -0.0276 -0.0047
  387MOL0     C52156  -1.335   4.937   9.004 -0.1801 -0.4778 -0.8350
  387MOL0     C52157  -1.204   4.914   9.053  0.3793  1.1703  0.1627
  387MOL0     O52158  -0.948   4.767   9.083  0.9538  0.1628  0.1449
  387MOL0     C52159  -0.693   4.990   9.104 -0.2486  0.1506 -0.3762
  387MOL0     C52160  -0.557   5.001   9.154  0.4945 -0.5127 -0.2333
  387MOL0     N52161   0.088   4.864   9.818  0.1837 -0.6496 -0.2821
  387MOL0     N52162   0.168   4.780   9.874 -0.5282  0.6865  0.1035
  387MOL0     C52163   1.348   4.232   9.632 -1.0250  0.3354 -1.3458
  387MOL0     C52164   1.466   4.154   9.603 -0.3348 -0.5330 -0.5341
  387MOL0     C52165   1.860   4.109   9.372  0.1772  0.7479  0.1221
  387MOL0     C52166   1.940   4.125   9.254 -0.1311  0.4699 -0.9158
  387MOL0     C52167   2.079   4.091   9.257  0.0630 -0.0209 -0.3314
  387MOL0     C52168   2.141   4.036   9.371 -0.5677 -0.0664 -0.1560
  387MOL0     O52169   2.278   4.004   9.390 -0.3012 -0.0939 -0.2853
  387MOL0     C52170   2.367   4.064   9.303  0.8719  0.7120 -0.3962
  387MOL0     C52171   2.512   4.040   9.341 -0.3676 -0.0796 -0.5105
  387MOL0     C52172   2.611   4.117   9.242  0.5160  0.2575 -0.4873
  387MOL0     C52173   2.691   4.238   9.296 -0.8032 -0.1302 -0.4994
  387MOL0     C52174   2.788   4.200   9.391  0.7583 -0.9249  0.1249
  387MOL0     C52175   2.872   4.165   9.467  0.0097  0.4084 -0.0588
  387MOL0     C52176   2.062   4.024   9.490 -0.0749  0.3877  0.1907
  387MOL0     C52177   1.923   4.066   9.491 -0.1747 -1.0511 -0.4738
  387MOL0     H52178   1.407   4.082   9.268 -0.1594  1.0670 -1.5698
  387MOL0     H52179   1.198   4.193   9.340  0.8281  1.9024 -0.3093
  387MOL0     H52180   1.162   4.376   9.740  1.6610 -0.2633 -1.3442
  387MOL0     H52181   1.193   4.508   9.628 -0.2806  0.6774  1.8549
  387MOL0     H52182   0.953   4.522   9.579 -3.1753 -0.9819 -0.0884
  387MOL0     H52183   0.920   4.382   9.686  0.1583  0.1509  1.5771
  387MOL0     H52184   1.037   4.517   9.864 -1.0376 -0.4147  0.2062
  387MOL0     H52185   1.015   4.662   9.765  0.2973  0.2423 -0.3767
  387MOL0     H52186   0.813   4.455   9.883  0.1694  0.8700  1.3849
  387MOL0     H52187   0.829   4.622   9.945 -1.7005  1.5587 -0.7675
  387MOL0     H52188   0.735   4.726   9.744  0.6961 -0.2967 -1.7929
  387MOL0     H52189   0.725   4.571   9.674  1.3781  0.1955 -0.3616
  387MOL0     H52190   0.588   4.482   9.845 -2.3005  0.2900 -0.1497
  387MOL0     H52191   0.591   4.640   9.934  1.1946 -0.2394  0.2668
  387MOL0     H52192   0.488   4.757   9.762 -1.3499  0.1757 -0.8934
  387MOL0     H52193   0.480   4.619   9.649  0.3990  1.3740 -0.3916
  387MOL0     H52194   0.359   4.609   9.929 -1.7590  0.5935  0.8507
  387MOL0     H52195   0.320   4.521   9.779 -0.5262 -0.1664  1.1631
  387MOL0     H52196   0.244   4.693   9.566  0.2506  1.2393  0.0214
  387MOL0     H52197   0.008   5.010   9.606 -1.6783  0.8513 -0.5875
  387MOL0     H52198   0.079   4.918   9.471 -1.0704  1.6371  0.1049
  387MOL0     H52199  -0.184   4.860   9.637  0.8664 -2.1779  0.5366
  387MOL0     H52200  -0.114   4.742   9.530 -5.1620 -0.4956 -2.1729
  387MOL0     H52201  -0.113   4.887   9.342  1.5381  0.2101 -0.3236
  387MOL0     H52202  -0.186   5.021   9.439 -0.2715 -0.1066 -2.0115
  387MOL0     H52203  -0.378   4.891   9.487 -0.4581  1.3095  1.0286
  387MOL0     H52204  -0.330   4.757   9.387 -4.6020  0.8577 -0.1204
  387MOL0     H52205  -0.567   4.753   9.386 -1.0168 -1.1190  0.7271
  387MOL0     H52206  -0.843   4.630   9.262 -0.4786  1.3887 -0.9456
  387MOL0     H52207  -0.765   4.660   9.417  0.6079  0.1773 -0.5359
  387MOL0     H52208  -0.907   4.755   9.362 -2.0968 -3.2720  0.1511
  387MOL0     H52209  -1.055   5.187   8.941  1.5950 -1.2762  0.1890
  387MOL0     H52210  -1.288   5.256   8.896 -0.9640 -0.7334 -1.6356
  387MOL0     H52211  -1.608   4.933   8.833  1.3099  1.2315 -1.2615
  387MOL0     H52212  -1.616   4.972   9.010  1.4642 -0.9124 -0.8574
  387MOL0     H52213  -1.707   5.192   8.824  0.3891  0.2541 -0.1466
  387MOL0     H52214  -1.810   5.053   8.810 -0.1102 -0.0568 -0.8382
  387MOL0     H52215  -1.729   5.200   9.071  1.1297  0.2316  0.9857
  387MOL0     H52216  -1.817   5.046   9.083  1.0882 -2.2066 -2.6132
  387MOL0     H52217  -1.928   5.299   8.950 -0.0593 -0.6167  0.2852
  387MOL0     H52218  -2.007   5.146   8.948 -0.4892 -0.9283  0.2019
  387MOL0     H52219  -1.915   5.293   9.211  2.8178 -1.3412 -1.1424
  387MOL0     H52220  -1.995   5.136   9.197 -2.4520  1.2796  0.3423
  387MOL0     H52221  -2.130   5.386   9.097  0.5085  0.5584  1.0772
  387MOL0     H52222  -2.184   5.206   9.099  0.1668 -2.7847  1.7852
  387MOL0     H52223  -2.096   5.351   9.349  0.4620  1.3844 -1.0646
  387MOL0     H52224  -2.197   5.210   9.337  1.4572  0.2613  1.3309
  387MOL0     H52225  -2.283   5.486   9.237  0.0173  0.7897  1.3619
  387MOL0     H52226  -2.335   5.414   9.385  2.3961  2.5011  0.5107
  387MOL0     H52227  -1.393   4.847   9.023  1.7170 -0.9399  4.7269
  387MOL0     H52228  -1.174   4.820   9.097  5.0245  1.7529 -1.2150
  387MOL0     H52229  -0.735   5.050   9.024  2.8224  0.2825 -2.0251
  387MOL0     H52230  -0.500   5.074   9.097 -3.7694  0.1153 -4.3469
  387MOL0     H52231   1.347   4.296   9.719  1.8653  2.0289 -2.4370
  387MOL0     H52232   1.544   4.145   9.677  0.6480  0.3752 -1.4211
  387MOL0     H52233   1.894   4.165   9.164 -1.1489  0.9289 -0.2148
  387MOL0     H52234   2.135   4.087   9.164  1.8190  0.1369  0.6713
  387MOL0     H52235   2.344   4.031   9.201  0.7612  1.8110 -0.7389
  387MOL0     H52236   2.339   4.169   9.304  1.7773  0.9877 -1.5535
  387MOL0     H52237   2.523   3.931   9.331 -0.2663 -0.1508  0.2652
  387MOL0     H52238   2.535   4.073   9.443 -1.3935  0.0597 -0.3100
  387MOL0     H52239   2.559   4.148   9.150  1.8549 -1.8861 -2.0570
  387MOL0     H52240   2.683   4.048   9.198  2.0529  0.8376  1.0331
  387MOL0     H52241   2.628   4.315   9.341  0.4680  0.2399  0.7377
  387MOL0     H52242   2.744   4.282   9.211  3.3454 -3.8601 -0.2622
  387MOL0     H52243   2.960   4.137   9.521 -2.0294  0.2805  3.4790
  387MOL0     H52244   2.106   3.985   9.582  2.6929  1.2484 -0.6647
  387MOL0     H52245   1.862   4.066   9.581 -0.4601  1.9635 -0.5513
  388MOL0     O52246   0.908   7.477   7.462 -0.1994  0.3182 -0.5831
  388MOL0     C52247   0.906   7.586   7.406 -0.3523  0.7812  0.2459
  388MOL0     O52248   0.803   7.670   7.401 -0.1381  0.0900 -0.2978
  388MOL0     C52249   0.673   7.632   7.435 -0.3960 -0.4007 -0.3638
  388MOL0     C52250   0.601   7.738   7.491  0.5853 -0.0661  0.2198
  388MOL0     C52251   0.475   7.700   7.544  0.7388 -0.3316 -0.2928
  388MOL0     C52252   0.429   7.568   7.537 -0.2472 -1.8356  0.9577
  388MOL0     O52253   0.309   7.541   7.601 -0.5142 -0.0313  0.1035
  388MOL0     C52254   0.217   7.446   7.547  0.9336  1.1253  0.2990
  388MOL0     C52255   0.081   7.477   7.606 -0.0935  0.3572 -0.4510
  388MOL0     C52256  -0.026   7.367   7.566 -0.0720  0.3134 -0.5626
  388MOL0     C52257  -0.136   7.368   7.680  0.1923 -0.5727  0.3550
  388MOL0     C52258  -0.243   7.264   7.635 -0.7340 -0.2999 -0.9536
  388MOL0     C52259  -0.359   7.249   7.732  0.2897  0.4236 -0.7298
  388MOL0     C52260  -0.310   7.196   7.871 -0.1033 -0.1491  0.3801
  388MOL0     C52261  -0.425   7.147   7.950  0.1542  0.3127 -0.2588
  388MOL0     N52262  -0.503   7.042   7.887 -0.3311 -0.1344 -1.2059
  388MOL0     C52263  -0.458   6.917   7.847  0.6609  0.3317  0.3718
  388MOL0     C52264  -0.559   6.876   7.761 -0.4107 -0.4504  0.7698
  388MOL0     C52265  -0.545   6.757   7.661 -0.0938  0.6305  1.4526
  388MOL0     C52266  -0.490   6.798   7.523 -0.4749  0.7736  0.3025
  388MOL0     C52267  -0.428   6.684   7.440 -0.3149  0.8966  0.7067
  388MOL0     C52268  -0.517   6.556   7.423  0.6869 -0.6182 -0.4465
  388MOL0     O52269  -0.651   6.597   7.373  0.2152 -0.3942 -0.1579
  388MOL0     C52270  -0.752   6.517   7.408  0.9162 -0.0207  0.0854
  388MOL0     C52271  -0.741   6.386   7.448 -1.0784 -1.2382 -0.4886
  388MOL0     C52272  -0.849   6.322   7.511  0.1644  0.5230 -0.5537
  388MOL0     C52273  -0.827   6.187   7.572 -0.2874 -0.8851  0.2552
  388MOL0     C52274  -0.975   6.381   7.520  0.6687 -0.3883 -0.0047
  388MOL0     C52275  -1.109   6.304   7.550 -0.5274 -1.0356  0.2751
  388MOL0     O52276  -1.213   6.383   7.567 -0.7219  0.4277  0.3301
  388MOL0     C52277  -1.333   6.326   7.595 -0.0472  0.7113  0.7404
  388MOL0     C52278  -1.443   6.383   7.533 -0.0073  0.1729 -0.4188
  388MOL0     C52279  -1.574   6.350   7.559  0.3024  0.4317 -0.0035
  388MOL0     C52280  -1.606   6.242   7.634 -0.6659  0.2844 -0.6706
  388MOL0     O52281  -1.733   6.188   7.649  0.3652  0.0190  0.6711
  388MOL0     C52282  -1.834   6.278   7.675  0.2950 -0.7014  0.4986
  388MOL0     C52283  -1.951   6.224   7.752 -0.6511 -0.2055 -0.0528
  388MOL0     C52284  -2.014   6.106   7.672 -0.1653 -0.4398 -0.8416
  388MOL0     C52285  -2.134   6.051   7.743  0.0210 -0.0635 -0.5607
  388MOL0     C52286  -2.182   5.928   7.668 -0.5291  0.3720  1.3489
  388MOL0     C52287  -2.253   5.815   7.751  0.3634  0.0795 -0.5669
  388MOL0     C52288  -2.394   5.850   7.796 -0.0038  0.0667  0.0048
  388MOL0     C52289  -2.484   5.738   7.842 -0.1343  0.5495  0.2732
  388MOL0    Cl52290  -2.653   5.792   7.854  0.2824  0.4509 -0.0948
  388MOL0     C52291  -1.502   6.175   7.699  0.4048 -0.1499 -0.6987
  388MOL0     C52292  -1.366   6.215   7.683 -0.7635 -0.6781  0.7497
  388MOL0     O52293  -1.116   6.183   7.540  0.0719 -0.0117  0.2541
  388MOL0     C52294  -0.989   6.505   7.474 -0.4139  0.4920  0.2144
  388MOL0     C52295  -0.879   6.573   7.421 -0.5169 -0.5296 -0.1877
  388MOL0     N52296  -0.663   6.965   7.773 -0.5788  0.7082  0.5696
  388MOL0     N52297  -0.630   7.062   7.839  0.3217  0.1385 -0.4100
  388MOL0     C52298   0.496   7.465   7.484  0.2346  0.6614  0.3582
  388MOL0     C52299   0.620   7.499   7.423 -0.2299  0.9486 -0.0370
  388MOL0     C52300   1.036   7.653   7.385  1.0418  0.1107  0.0845
  388MOL0     C52301   1.060   7.793   7.383  0.4231  0.2633  0.1844
  388MOL0     C52302   1.183   7.845   7.362 -0.0554 -0.1984 -0.6094
  388MOL0     C52303   1.300   7.766   7.357  0.1579  0.0593  0.8628
  388MOL0     O52304   1.423   7.829   7.355  0.2435  0.0993  0.1790
  388MOL0     C52305   1.538   7.750   7.397 -0.8484  0.3479 -1.0013
  388MOL0     C52306   1.671   7.818   7.391 -0.1850  0.0069  0.1025
  388MOL0     C52307   1.703   7.855   7.244  1.0718  0.5468 -0.3063
  388MOL0     C52308   1.841   7.896   7.221 -0.1261 -0.3313  0.3392
  388MOL0     C52309   1.944   7.794   7.244 -0.0140 -0.5501 -1.1845
  388MOL0     C52310   2.032   7.708   7.245 -0.0759  0.7742 -0.6700
  388MOL0     C52311   1.281   7.625   7.362 -0.0176 -0.0058 -0.3726
  388MOL0     C52312   1.151   7.571   7.376 -0.1130  0.1202 -1.9121
  388MOL0     H52313   0.649   7.835   7.501 -0.5000  0.7779 -2.0731
  388MOL0     H52314   0.418   7.782   7.587 -1.1926 -1.4403 -0.6254
  388MOL0     H52315   0.211   7.442   7.438 -1.6155 -1.2912  0.4228
  388MOL0     H52316   0.243   7.343   7.570 -0.1117  1.0424  1.2205
  388MOL0     H52317   0.088   7.492   7.714 -1.4300  2.9765 -0.6400
  388MOL0     H52318   0.051   7.579   7.580 -0.1178  1.6050  3.7561
  388MOL0     H52319  -0.061   7.378   7.464 -0.0315  0.9160 -0.5144
  388MOL0     H52320   0.027   7.272   7.577 -2.8745 -1.4765 -1.6726
  388MOL0     H52321  -0.096   7.334   7.775 -4.7550 -1.5911  2.3696
  388MOL0     H52322  -0.175   7.469   7.694  0.5992 -0.0610 -1.7570
  388MOL0     H52323  -0.283   7.300   7.540  1.5392  1.4885 -1.3220
  388MOL0     H52324  -0.206   7.169   7.594  1.8648 -0.6516  1.8500
  388MOL0     H52325  -0.411   7.344   7.743  0.4493  0.5804 -1.3300
  388MOL0     H52326  -0.423   7.172   7.688 -0.4740  1.2092 -1.0153
  388MOL0     H52327  -0.228   7.125   7.857 -0.4626 -0.2454 -1.5740
  388MOL0     H52328  -0.272   7.280   7.930 -1.7164 -0.5268  2.0501
  388MOL0     H52329  -0.494   7.227   7.979 -0.7057 -1.1693  2.0597
  388MOL0     H52330  -0.384   7.109   8.044  2.8286  0.0168 -1.4470
  388MOL0     H52331  -0.360   6.874   7.867  0.2855  0.5493  3.0801
  388MOL0     H52332  -0.488   6.675   7.706  0.6371  0.5511  0.4321
  388MOL0     H52333  -0.638   6.704   7.641  0.2334 -0.1479  1.9437
  388MOL0     H52334  -0.414   6.876   7.535  0.1001  0.1749  0.5695
  388MOL0     H52335  -0.575   6.838   7.467 -0.7847  0.3688  0.4875
  388MOL0     H52336  -0.327   6.664   7.477 -0.5700 -0.8598  0.5231
  388MOL0     H52337  -0.418   6.725   7.339  0.0005  2.0943  1.2075
  388MOL0     H52338  -0.527   6.514   7.524 -0.9410  2.5265  0.8431
  388MOL0     H52339  -0.483   6.483   7.349 -1.2235 -1.3109 -0.6748
  388MOL0     H52340  -0.645   6.336   7.443 -0.7707 -0.7725  0.4730
  388MOL0     H52341  -0.721   6.165   7.563 -1.0494 -4.3428 -2.1502
  388MOL0     H52342  -0.863   6.174   7.675 -3.4515  1.2361 -0.4299
  388MOL0     H52343  -0.884   6.117   7.510  0.7474 -0.2293 -1.5087
  388MOL0     H52344  -1.424   6.458   7.456  1.8390 -1.8223 -2.0430
  388MOL0     H52345  -1.660   6.401   7.515  1.7339  2.3435 -0.7275
  388MOL0     H52346  -1.793   6.365   7.727 -1.3484  2.5368 -3.1761
  388MOL0     H52347  -1.879   6.318   7.585  1.0641  1.5305  1.0443
  388MOL0     H52348  -1.922   6.194   7.854 -2.0204  3.8049  1.7116
  388MOL0     H52349  -2.006   6.316   7.774  2.6259  1.5577  1.5206
  388MOL0     H52350  -1.944   6.022   7.663  1.4585  0.4303  2.2763
  388MOL0     H52351  -2.037   6.142   7.571  1.6638  1.7450 -0.5544
  388MOL0     H52352  -2.111   6.027   7.847 -0.6407  1.8202  0.0630
  388MOL0     H52353  -2.218   6.122   7.745  0.6512  0.7355 -1.2774
  388MOL0     H52354  -2.093   5.880   7.625 -1.1014  0.7622 -0.3108
  388MOL0     H52355  -2.249   5.959   7.588 -1.0685 -3.4596  0.1274
  388MOL0     H52356  -2.256   5.724   7.690 -0.0779 -0.3926  0.1549
  388MOL0     H52357  -2.185   5.805   7.836  0.8696  1.1759 -0.8261
  388MOL0     H52358  -2.448   5.890   7.710  1.1203  0.9060 -0.3360
  388MOL0     H52359  -2.391   5.929   7.872 -0.2950  0.8289 -0.7700
  388MOL0     H52360  -2.446   5.701   7.938  1.1243  1.4547  0.1537
  388MOL0     H52361  -2.483   5.659   7.767 -1.9199  2.8371 -2.3419
  388MOL0     H52362  -1.520   6.102   7.777 -0.1607  2.3883  1.7107
  388MOL0     H52363  -1.297   6.169   7.754  2.5156  1.4573 -0.8302
  388MOL0     H52364  -1.085   6.554   7.474 -0.1449  1.0832  1.4424
  388MOL0     H52365  -0.893   6.677   7.391 -1.8398 -0.5100  0.4116
  388MOL0     H52366   0.462   7.362   7.483 -0.1959  0.7900  0.8008
  388MOL0     H52367   0.680   7.415   7.387  1.0434 -0.2777  4.2699
  388MOL0     H52368   0.976   7.857   7.412 -1.9890 -2.8742  0.6850
  388MOL0     H52369   1.200   7.950   7.385  0.5473 -0.4038 -0.0810
  388MOL0     H52370   1.529   7.711   7.499  0.0462  0.4927 -0.8654
  388MOL0     H52371   1.550   7.658   7.339  0.8376  1.3750 -2.3853
  388MOL0     H52372   1.747   7.751   7.432 -0.7131 -0.8439 -0.3004
  388MOL0     H52373   1.665   7.909   7.452  1.0363 -0.7903  1.4611
  388MOL0     H52374   1.631   7.933   7.220  0.2246 -0.9775 -3.2476
  388MOL0     H52375   1.678   7.772   7.177  0.4087  0.3781  0.1308
  388MOL0     H52376   1.869   7.973   7.294  1.3846  0.9513 -1.4894
  388MOL0     H52377   1.855   7.938   7.121 -1.4993 -2.1058 -0.6505
  388MOL0     H52378   2.111   7.636   7.235 -2.1319 -1.4675 -2.1012
  388MOL0     H52379   1.366   7.557   7.356 -1.1619 -1.4010 -4.9109
  388MOL0     H52380   1.133   7.465   7.386 -1.3840  0.4989  0.5304
  389MOL0     O52381   9.826   3.217   1.783  0.6712  1.3188  0.1614
  389MOL0     C52382   9.901   3.134   1.818  0.1416 -0.0599  0.1210
  389MOL0     O52383   9.872   3.031   1.900 -0.6600 -0.2653  0.2150
  389MOL0     C52384   9.750   3.031   1.972 -0.3308  0.2217 -0.2965
  389MOL0     C52385   9.748   3.108   2.089 -0.0896 -0.0676  0.4561
  389MOL0     C52386   9.645   3.086   2.182 -0.1190 -0.1695  0.7307
  389MOL0     C52387   9.536   2.998   2.149  0.0784 -1.2898 -0.5223
  389MOL0     O52388   9.429   3.000   2.227  0.1389  0.6724  0.6527
  389MOL0     C52389   9.319   3.083   2.192  0.4646 -0.1491  0.2339
  389MOL0     C52390   9.188   3.065   2.280 -0.1714 -0.0388 -0.5779
  389MOL0     C52391   9.195   3.133   2.414  0.0803 -0.3339  0.3536
  389MOL0     C52392   9.144   3.272   2.403  0.5269 -0.2006  0.2126
  389MOL0     C52393   9.112   3.344   2.534  0.3813  0.3539 -0.0624
  389MOL0     C52394   9.123   3.490   2.500 -0.0873 -0.0583 -0.4472
  389MOL0     C52395   9.018   3.550   2.401  0.9145  0.2833  0.2583
  389MOL0     C52396   8.871   3.546   2.456  0.0555  0.0161  0.4963
  389MOL0     N52397   8.784   3.603   2.349 -0.2851  0.1703 -0.5216
  389MOL0     C52398   8.752   3.554   2.223 -0.3295  0.6830  0.1837
  389MOL0     C52399   8.653   3.635   2.181  0.6752 -0.0750 -0.3461
  389MOL0     C52400   8.590   3.624   2.042 -0.2613 -0.2459  0.1414
  389MOL0     C52401   8.477   3.525   2.021  0.5213 -0.3930 -0.0495
  389MOL0     C52402   8.366   3.545   2.116 -0.2873  1.0288 -1.8523
  389MOL0     C52403   8.267   3.426   2.122  1.0552 -0.0217  0.7727
  389MOL0     O52404   8.181   3.433   2.232  0.0826  0.3304  0.1130
  389MOL0     C52405   8.073   3.347   2.251 -1.3472  0.7782  1.4641
  389MOL0     C52406   8.011   3.277   2.148 -1.1885 -0.3538 -1.1723
  389MOL0     C52407   7.910   3.184   2.168  0.5693 -0.5496 -1.7281
  389MOL0     C52408   7.856   3.107   2.048  0.3909 -0.2721 -0.3482
  389MOL0     C52409   7.857   3.163   2.297 -0.1571 -0.1393  0.3502
  389MOL0     C52410   7.737   3.077   2.330 -0.2937 -0.3592  0.6886
  389MOL0     O52411   7.665   3.121   2.434  0.4874 -0.1939 -0.4755
  389MOL0     C52412   7.537   3.085   2.467 -0.1070  0.7868  0.3186
  389MOL0     C52413   7.506   3.094   2.598  0.7110 -0.0700 -0.8617
  389MOL0     C52414   7.375   3.061   2.639  0.1851 -0.6557  0.3060
  389MOL0     C52415   7.278   3.014   2.543  0.0576  0.1061  0.7707
  389MOL0     O52416   7.154   2.970   2.597 -0.1739  0.1070  0.8387
  389MOL0     C52417   7.047   2.973   2.500  0.6999  0.1820 -0.1459
  389MOL0     C52418   6.976   2.837   2.509  0.5858  0.4387 -0.0580
  389MOL0     C52419   6.845   2.839   2.422  0.8539 -0.2346  0.2369
  389MOL0     C52420   6.782   2.698   2.409  0.7446  0.3207 -0.1038
  389MOL0     C52421   6.666   2.696   2.317  0.4279 -0.2890  0.1583
  389MOL0     C52422   6.589   2.564   2.328  0.7514 -0.8764 -0.5921
  389MOL0     C52423   6.456   2.581   2.249  0.7768 -0.4538 -0.4935
  389MOL0     C52424   6.331   2.534   2.317  0.5405  0.6946  0.7489
  389MOL0    Cl52425   6.197   2.604   2.224  0.1629  0.0925 -0.0687
  389MOL0     C52426   7.321   3.002   2.408 -0.3659 -0.2662 -0.9077
  389MOL0     C52427   7.449   3.027   2.374  0.0936  0.9822 -0.1638
  389MOL0     O52428   7.715   2.976   2.268 -0.0162  0.1650  0.0584
  389MOL0     C52429   7.924   3.236   2.400  1.0240 -0.1839 -0.1171
  389MOL0     C52430   8.026   3.331   2.380  0.2870  0.0002 -0.2534
  389MOL0     N52431   8.625   3.736   2.276  0.0170 -0.5069  0.1802
  389MOL0     N52432   8.703   3.709   2.384  0.1451  0.0803  0.2758
  389MOL0     C52433   9.543   2.913   2.035 -1.4116 -0.2787  0.8377
  389MOL0     C52434   9.650   2.934   1.949 -0.4836  0.0545  0.5665
  389MOL0     C52435  10.040   3.142   1.757  0.3426  0.9593 -0.2307
  389MOL0     C52436  10.142   3.059   1.801  0.1173  0.5514 -0.5751
  389MOL0     C52437  10.268   3.062   1.742  0.5072  0.5515  0.1930
  389MOL0     C52438  10.304   3.146   1.631  0.5541 -0.1829 -0.2663
  389MOL0     O52439  10.435   3.152   1.588  0.1530 -0.9542  0.4397
  389MOL0     C52440  10.464   3.188   1.448 -0.1769 -0.7365 -0.6260
  389MOL0     C52441  10.504   3.059   1.366  0.1485 -1.4056 -0.5672
  389MOL0     C52442  10.612   2.987   1.434  0.1373  0.4915 -0.4784
  389MOL0     C52443  10.664   2.860   1.358 -0.0333 -0.0741  0.2288
  389MOL0     C52444  10.573   2.750   1.392 -0.0698  0.7687  0.8510
  389MOL0     C52445  10.500   2.652   1.394 -0.3699 -0.3340  0.7317
  389MOL0     C52446  10.198   3.229   1.577  0.4506 -0.2770 -0.1347
  389MOL0     C52447  10.069   3.216   1.638  0.3902 -0.0099  0.9146
  389MOL0     H52448   9.829   3.177   2.108  0.8569 -0.9899 -0.1366
  389MOL0     H52449   9.642   3.149   2.270  0.9526  0.6088  0.2198
  389MOL0     H52450   9.350   3.188   2.195 -1.5181  0.4596  2.6168
  389MOL0     H52451   9.287   3.055   2.092  0.7011 -0.0036  0.1161
  389MOL0     H52452   9.095   3.093   2.228 -0.4517  1.7520  0.7988
  389MOL0     H52453   9.173   2.958   2.296 -0.5427 -0.1065 -1.3224
  389MOL0     H52454   9.132   3.067   2.474 -0.3911 -1.6643 -1.5147
  389MOL0     H52455   9.296   3.128   2.455  0.0468  0.3446  0.5326
  389MOL0     H52456   9.226   3.326   2.356  0.1681 -2.7427 -3.8321
  389MOL0     H52457   9.055   3.276   2.339  1.0465 -1.5746 -0.6393
  389MOL0     H52458   9.011   3.318   2.566  0.2798  0.6811 -0.1078
  389MOL0     H52459   9.188   3.316   2.608 -0.6218 -1.1509  0.4325
  389MOL0     H52460   9.125   3.549   2.592 -1.5567 -2.1393  1.0032
  389MOL0     H52461   9.219   3.519   2.457  0.4055 -0.1270  0.5901
  389MOL0     H52462   9.052   3.654   2.392 -1.8835  1.3885  1.3008
  389MOL0     H52463   9.004   3.495   2.307 -1.4794  1.1957  0.0142
  389MOL0     H52464   8.870   3.608   2.546 -0.4528  2.7337 -1.2551
  389MOL0     H52465   8.846   3.441   2.475  2.4548 -0.8593 -0.7448
  389MOL0     H52466   8.789   3.462   2.177 -0.8349 -0.0268  1.1504
  389MOL0     H52467   8.550   3.722   2.015  1.4916  0.6082  0.5214
  389MOL0     H52468   8.672   3.612   1.970  0.1952  2.9719 -0.0048
  389MOL0     H52469   8.510   3.421   2.031  0.8207 -0.1139  2.5398
  389MOL0     H52470   8.433   3.545   1.923  0.3363  1.2773  0.3517
  389MOL0     H52471   8.307   3.635   2.099 -0.0324  1.6086  0.0352
  389MOL0     H52472   8.411   3.553   2.216 -4.3437 -0.9774  0.4053
  389MOL0     H52473   8.317   3.329   2.124 -0.4666 -0.8236  1.9195
  389MOL0     H52474   8.212   3.433   2.027 -1.3187 -2.4179  1.8567
  389MOL0     H52475   8.054   3.288   2.048 -0.0401  1.9041 -0.4939
  389MOL0     H52476   7.748   3.094   2.037  0.8401 -4.0058 -2.5000
  389MOL0     H52477   7.893   3.145   1.952 -1.5312 -1.0851 -1.4954
  389MOL0     H52478   7.894   3.004   2.056  1.1364  0.1679  2.8568
  389MOL0     H52479   7.581   3.126   2.669 -0.7630 -0.1113  0.7875
  389MOL0     H52480   7.350   3.062   2.745  2.4233 -0.8590  0.9034
  389MOL0     H52481   6.982   3.055   2.533 -1.5275 -0.8803 -1.6598
  389MOL0     H52482   7.083   2.990   2.398 -0.9815  0.6836 -0.6924
  389MOL0     H52483   7.046   2.759   2.477 -0.5466 -0.3421 -0.7153
  389MOL0     H52484   6.939   2.825   2.611  1.4370  1.4517  0.3769
  389MOL0     H52485   6.871   2.882   2.325 -0.5513  2.8875  1.1366
  389MOL0     H52486   6.777   2.916   2.458 -0.5884 -1.2155 -0.3076
  389MOL0     H52487   6.859   2.636   2.362 -0.1894  0.2635 -1.6055
  389MOL0     H52488   6.765   2.667   2.513  1.0798  0.9327  0.1388
  389MOL0     H52489   6.696   2.712   2.213  1.3346  0.7138  0.5530
  389MOL0     H52490   6.586   2.765   2.346 -1.8640 -1.5350 -2.7167
  389MOL0     H52491   6.645   2.478   2.289  0.8989 -0.8562 -0.4224
  389MOL0     H52492   6.568   2.554   2.435 -0.4328  3.4778 -0.2118
  389MOL0     H52493   6.477   2.530   2.155  1.6849  0.8238 -1.0082
  389MOL0     H52494   6.438   2.688   2.232 -0.1059 -0.2709  1.2888
  389MOL0     H52495   6.314   2.560   2.422  3.6917 -0.5138  1.6629
  389MOL0     H52496   6.325   2.425   2.308  5.1844  0.4081 -2.8493
  389MOL0     H52497   7.257   2.950   2.337  0.3646  1.9091 -3.2839
  389MOL0     H52498   7.484   3.009   2.272  2.4892 -0.6121  0.8501
  389MOL0     H52499   7.887   3.209   2.498 -1.0401 -2.3067 -1.3678
  389MOL0     H52500   8.065   3.375   2.472  0.7852 -3.1018  1.1385
  389MOL0     H52501   9.472   2.834   2.012  1.3402 -2.9439  0.8076
  389MOL0     H52502   9.645   2.873   1.859  1.3742 -1.5982  1.4967
  389MOL0     H52503  10.131   2.992   1.886  1.8784 -0.3232 -0.9748
  389MOL0     H52504  10.351   2.996   1.766  3.9107  2.1082 -5.4327
  389MOL0     H52505  10.379   3.231   1.395 -0.4723 -1.2807 -0.6078
  389MOL0     H52506  10.540   3.266   1.437 -0.5609 -0.0576  1.2212
  389MOL0     H52507  10.540   3.084   1.266  0.3252  0.2286 -0.1297
  389MOL0     H52508  10.410   3.003   1.355  1.3556 -3.2090 -2.5177
  389MOL0     H52509  10.586   2.954   1.535  3.1173 -1.2252 -0.1437
  389MOL0     H52510  10.697   3.053   1.456 -0.0183  0.3394  0.6649
  389MOL0     H52511  10.766   2.840   1.393  1.4225  5.4396  0.0635
  389MOL0     H52512  10.651   2.871   1.250  1.6882 -2.5259 -0.3254
  389MOL0     H52513  10.435   2.568   1.407  1.1165 -1.7531 -0.5202
  389MOL0     H52514  10.203   3.299   1.494  0.4169  1.2558  1.0906
  389MOL0     H52515   9.990   3.279   1.599  2.0162  1.8432  0.4595
  390MOL0     O52516   4.458   4.051   3.461 -0.4988  0.0073  0.5519
  390MOL0     C52517   4.519   3.943   3.440  0.3465 -0.0877 -0.0315
  390MOL0     O52518   4.477   3.841   3.362  0.2759  0.4268  0.7500
  390MOL0     C52519   4.371   3.847   3.272 -0.1581  0.2100 -0.5147
  390MOL0     C52520   4.341   3.722   3.222  0.2724 -0.1200 -0.6239
  390MOL0     C52521   4.233   3.704   3.137  0.3433 -0.4797 -0.2964
  390MOL0     C52522   4.139   3.811   3.117 -0.7429  0.3130  0.1795
  390MOL0     O52523   4.025   3.784   3.051 -0.1041 -0.3782  0.4675
  390MOL0     C52524   3.956   3.896   2.994 -0.3440 -0.2877 -0.2112
  390MOL0     C52525   3.847   3.952   3.093 -0.5771  0.4845  0.3938
  390MOL0     C52526   3.741   4.022   3.002  0.0771  0.1419  0.5166
  390MOL0     C52527   3.785   4.126   2.903 -0.3303 -0.0110 -0.0938
  390MOL0     C52528   3.688   4.129   2.774  1.0380  0.7348 -0.6978
  390MOL0     C52529   3.566   4.222   2.785 -0.0040  0.0972 -0.4973
  390MOL0     C52530   3.440   4.142   2.835 -0.1819  0.2939 -0.7941
  390MOL0     C52531   3.300   4.186   2.802  0.2418 -0.2578  0.2903
  390MOL0     N52532   3.257   4.129   2.670 -0.4264  0.2473 -0.2034
  390MOL0     C52533   3.175   4.019   2.638  0.6970  0.7107 -0.9249
  390MOL0     C52534   3.159   4.004   2.504 -0.3040  0.3158  0.0715
  390MOL0     C52535   3.085   3.897   2.429 -0.3768 -0.3991  0.3148
  390MOL0     C52536   2.931   3.911   2.445 -0.3917 -0.5739  0.0825
  390MOL0     C52537   2.854   3.841   2.338 -0.9314  0.0853 -0.5001
  390MOL0     C52538   2.700   3.868   2.352 -0.6217  0.1658  1.2220
  390MOL0     O52539   2.638   3.833   2.474 -0.6177 -0.2184 -0.1300
  390MOL0     C52540   2.539   3.740   2.451  0.0477  0.6397  0.4716
  390MOL0     C52541   2.579   3.607   2.408  0.0868 -0.5823 -0.4400
  390MOL0     C52542   2.486   3.505   2.383 -0.1442 -0.4329 -0.5908
  390MOL0     C52543   2.532   3.365   2.349  0.7473  0.7165  0.1432
  390MOL0     C52544   2.346   3.540   2.388 -0.5178 -0.1999  0.5611
  390MOL0     C52545   2.228   3.463   2.332  0.1473  0.5367 -0.4748
  390MOL0     O52546   2.262   3.352   2.258 -0.0435 -0.2266 -0.0073
  390MOL0     C52547   2.168   3.305   2.176 -0.2234 -0.0996  0.1241
  390MOL0     C52548   2.156   3.376   2.058  0.4149 -0.5916 -0.5699
  390MOL0     C52549   2.064   3.347   1.962  0.0694  0.5751  0.4754
  390MOL0     C52550   1.980   3.227   1.971  0.1550 -0.0673 -0.0083
  390MOL0     O52551   1.892   3.182   1.881  0.4173  1.1763 -0.1609
  390MOL0     C52552   1.871   3.251   1.759 -0.8310  0.4125  0.1329
  390MOL0     C52553   1.789   3.379   1.772 -0.3288 -0.0789  0.2555
  390MOL0     C52554   1.632   3.357   1.794  0.1450 -0.1542  0.3724
  390MOL0     C52555   1.594   3.329   1.944  0.7155 -0.5331 -0.1531
  390MOL0     C52556   1.440   3.338   1.962 -0.0618  1.0220 -0.6588
  390MOL0     C52557   1.394   3.311   2.109 -0.7864 -0.3273  0.4913
  390MOL0     C52558   1.245   3.349   2.128  0.8541  0.6973 -0.6619
  390MOL0     C52559   1.206   3.338   2.274 -0.3590  0.0332 -0.6448
  390MOL0    Cl52560   1.249   3.176   2.336 -0.3749  0.2193  0.1522
  390MOL0     C52561   2.003   3.156   2.089  0.1369  0.2372 -0.6549
  390MOL0     C52562   2.102   3.183   2.187  0.2121 -0.2092 -0.7927
  390MOL0     O52563   2.113   3.507   2.346  0.0544 -0.5189  0.2050
  390MOL0     C52564   2.314   3.669   2.442 -1.1396 -0.0246 -0.2508
  390MOL0     C52565   2.409   3.770   2.463 -0.5946 -0.0776  0.1624
  390MOL0     N52566   3.250   4.101   2.449  0.3308 -0.1495  0.1527
  390MOL0     N52567   3.293   4.179   2.551 -0.0729 -0.5549 -0.9091
  390MOL0     C52568   4.177   3.938   3.158 -0.0616  0.1440 -0.3456
  390MOL0     C52569   4.296   3.957   3.236  0.6424  0.1527 -0.7728
  390MOL0     C52570   4.656   3.927   3.486  1.3479  0.0571  0.0791
  390MOL0     C52571   4.751   3.846   3.423  0.5625 -0.8822  0.9347
  390MOL0     C52572   4.885   3.843   3.468  0.0038  0.2247 -0.4022
  390MOL0     C52573   4.932   3.922   3.568 -0.3022  0.8515  0.0197
  390MOL0     O52574   5.068   3.902   3.605 -0.1941 -0.3906 -0.6377
  390MOL0     C52575   5.104   3.978   3.722  0.5785 -0.3317  0.3379
  390MOL0     C52576   5.246   3.956   3.757 -0.7249  0.7234 -0.6958
  390MOL0     C52577   5.276   3.810   3.787 -0.0926  0.1834 -0.6001
  390MOL0     C52578   5.430   3.771   3.792 -0.4209  0.0374 -0.6380
  390MOL0     C52579   5.501   3.838   3.908  0.8567  0.0751 -0.2408
  390MOL0     C52580   5.553   3.875   4.015  0.1651  0.4456 -0.1593
  390MOL0     C52581   4.836   4.008   3.630 -0.8205  0.1780  0.0042
  390MOL0     C52582   4.703   4.012   3.587  0.6707  0.1805 -0.0554
  390MOL0     H52583   4.404   3.638   3.250 -0.4466 -0.8965 -1.3040
  390MOL0     H52584   4.202   3.607   3.100 -0.9733 -0.0447 -0.3790
  390MOL0     H52585   4.030   3.968   2.960 -0.5268  0.1040  0.2201
  390MOL0     H52586   3.911   3.864   2.899 -1.6144 -1.9933  0.9046
  390MOL0     H52587   3.790   3.870   3.138 -2.6981  2.6623  1.8728
  390MOL0     H52588   3.879   4.030   3.162  0.3767  0.2193  0.2749
  390MOL0     H52589   3.688   3.939   2.956 -2.3273  1.4153  0.8166
  390MOL0     H52590   3.664   4.074   3.060  0.4312  1.9792 -0.5675
  390MOL0     H52591   3.800   4.228   2.938  2.7775  0.0856 -1.3859
  390MOL0     H52592   3.882   4.091   2.867  0.1251  1.5731 -0.4832
  390MOL0     H52593   3.744   4.170   2.689 -0.4324  0.6375 -1.7530
  390MOL0     H52594   3.650   4.029   2.749  1.9521  0.4431 -0.9882
  390MOL0     H52595   3.578   4.298   2.863 -0.9410 -3.4048  3.4834
  390MOL0     H52596   3.552   4.275   2.691 -0.1548  2.4234  0.7813
  390MOL0     H52597   3.453   4.036   2.810 -0.6617  0.1898 -0.6153
  390MOL0     H52598   3.443   4.139   2.945  2.3249 -0.6164 -0.8209
  390MOL0     H52599   3.288   4.293   2.783  0.8795 -0.6666 -3.1080
  390MOL0     H52600   3.238   4.155   2.886 -1.0896 -0.8312 -0.8510
  390MOL0     H52601   3.125   3.957   2.712 -1.3300  1.0468 -1.9505
  390MOL0     H52602   3.102   3.912   2.322 -0.5307 -2.7294 -0.0936
  390MOL0     H52603   3.124   3.800   2.460  1.2271  1.1461  3.6775
  390MOL0     H52604   2.898   4.016   2.441 -1.6299 -0.7864  2.7816
  390MOL0     H52605   2.913   3.880   2.548  2.2474 -0.9772  0.4890
  390MOL0     H52606   2.875   3.734   2.347  2.5219  0.7831  1.5566
  390MOL0     H52607   2.884   3.882   2.241  0.5297  0.7126  0.1941
  390MOL0     H52608   2.653   3.822   2.265  2.2784  1.0007 -0.9579
  390MOL0     H52609   2.676   3.975   2.345  1.5646  0.6192 -1.2877
  390MOL0     H52610   2.682   3.575   2.420 -0.4437 -1.8287  1.3025
  390MOL0     H52611   2.506   3.328   2.249  2.7111 -0.3967 -0.0036
  390MOL0     H52612   2.641   3.354   2.356  0.5457 -0.8072  1.2685
  390MOL0     H52613   2.497   3.295   2.426  2.0066 -0.7634 -0.5781
  390MOL0     H52614   2.208   3.471   2.048  1.3473 -1.2431 -2.1946
  390MOL0     H52615   2.056   3.408   1.873 -1.6816 -0.7611 -0.3580
  390MOL0     H52616   1.970   3.269   1.715 -1.0241  0.7321 -0.1776
  390MOL0     H52617   1.821   3.185   1.688  3.6979 -1.1176 -2.0405
  390MOL0     H52618   1.832   3.451   1.843  0.0009  1.2468 -1.2330
  390MOL0     H52619   1.803   3.424   1.673  2.4273 -1.3326 -0.0145
  390MOL0     H52620   1.598   3.276   1.730 -1.2623  0.8024 -0.1374
  390MOL0     H52621   1.581   3.444   1.753 -0.5935 -0.8685 -0.2571
  390MOL0     H52622   1.632   3.231   1.975  2.5377  0.9680  2.8554
  390MOL0     H52623   1.646   3.404   2.006  1.3366 -0.8349 -0.2973
  390MOL0     H52624   1.390   3.262   1.902 -0.8523  0.4558  0.6612
  390MOL0     H52625   1.411   3.438   1.931 -1.6396  0.6140 -0.5719
  390MOL0     H52626   1.411   3.204   2.120  1.3593 -0.0102  0.7072
  390MOL0     H52627   1.451   3.366   2.184 -0.0982 -0.8152  0.3304
  390MOL0     H52628   1.199   3.276   2.060 -1.4149  0.7184  0.7513
  390MOL0     H52629   1.221   3.449   2.093 -2.1672 -0.1771 -1.3755
  390MOL0     H52630   1.098   3.344   2.291 -0.1055 -1.5728  2.0748
  390MOL0     H52631   1.270   3.406   2.331 -2.3857 -0.1156  2.0035
  390MOL0     H52632   1.960   3.056   2.098  0.1195  0.3429  0.6382
  390MOL0     H52633   2.129   3.121   2.271  1.4404  1.1786 -0.1174
  390MOL0     H52634   2.211   3.702   2.437 -1.0523  0.1681 -0.9488
  390MOL0     H52635   2.388   3.869   2.501  3.5507  0.7285  0.8368
  390MOL0     H52636   4.122   4.029   3.138  0.9081  0.6987 -0.5750
  390MOL0     H52637   4.326   4.053   3.275  2.4268 -1.7745  3.2449
  390MOL0     H52638   4.727   3.793   3.331  0.8643  3.5441 -1.9630
  390MOL0     H52639   4.958   3.782   3.415 -2.3936 -1.5830 -1.8576
  390MOL0     H52640   5.086   4.085   3.713 -0.7607 -0.6591 -1.3929
  390MOL0     H52641   5.053   3.937   3.810 -0.3644  1.1506  0.5139
  390MOL0     H52642   5.266   4.007   3.852  1.4432 -3.3671  1.2950
  390MOL0     H52643   5.316   3.998   3.683 -3.5593  2.5514 -2.5533
  390MOL0     H52644   5.238   3.753   3.701 -3.3145 -1.5333  1.7592
  390MOL0     H52645   5.234   3.769   3.879  0.8989  1.6044  0.5155
  390MOL0     H52646   5.488   3.807   3.707 -0.3614  0.8851 -0.2502
  390MOL0     H52647   5.433   3.662   3.785 -0.4356 -0.0639  0.6433
  390MOL0     H52648   5.597   3.917   4.102 -0.0663  1.1492 -0.3748
  390MOL0     H52649   4.855   4.061   3.722 -1.9665 -1.3852  1.1972
  390MOL0     H52650   4.638   4.081   3.640  0.3628  1.3835 -1.8949
  391MOL0     O52651   0.366   7.564   2.121 -0.3294  0.4063 -0.2959
  391MOL0     C52652   0.451   7.587   2.036 -0.2998 -0.3686 -0.2933
  391MOL0     O52653   0.465   7.703   1.973  0.2479  0.4979  0.0332
  391MOL0     C52654   0.373   7.804   1.988 -0.2174  0.5986 -0.1999
  391MOL0     C52655   0.411   7.910   2.061  0.7199  0.9455 -0.7278
  391MOL0     C52656   0.318   8.015   2.075  0.1491 -0.2679 -0.5503
  391MOL0     C52657   0.181   8.004   2.028  0.5638 -0.8218  0.2527
  391MOL0     O52658   0.085   8.107   2.015  0.2577 -0.0360  0.4702
  391MOL0     C52659   0.130   8.243   2.022  0.8351  0.3119  0.2334
  391MOL0     C52660   0.010   8.327   1.963 -0.4347 -0.8938 -0.0388
  391MOL0     C52661  -0.099   8.358   2.069  0.1459 -0.7200  0.3736
  391MOL0     C52662  -0.222   8.270   2.053 -0.0235 -0.3817  0.1757
  391MOL0     C52663  -0.320   8.310   2.167  0.1393 -0.2437  0.6386
  391MOL0     C52664  -0.457   8.236   2.158  0.4085 -0.9412  0.0346
  391MOL0     C52665  -0.550   8.278   2.268  0.0735  0.0031 -0.5481
  391MOL0     C52666  -0.567   8.161   2.361  0.0889  0.2677 -0.5628
  391MOL0     N52667  -0.668   8.178   2.470 -0.1030  0.6585 -0.6851
  391MOL0     C52668  -0.640   8.171   2.607 -0.1026  0.5590 -0.4853
  391MOL0     C52669  -0.767   8.191   2.657  0.4871  0.0525  0.1198
  391MOL0     C52670  -0.802   8.205   2.800  0.2579 -0.1955 -0.1952
  391MOL0     C52671  -0.788   8.353   2.854  0.4308 -0.0884 -0.1564
  391MOL0     C52672  -0.854   8.455   2.770  0.8263 -0.3051 -0.2418
  391MOL0     C52673  -1.013   8.443   2.764 -0.2978  0.0411  0.3506
  391MOL0     O52674  -1.083   8.518   2.654 -0.3419 -0.5054 -0.1303
  391MOL0     C52675  -1.202   8.459   2.613 -0.9905 -0.0051 -0.7157
  391MOL0     C52676  -1.203   8.331   2.552 -1.0472  0.5711 -0.1530
  391MOL0     C52677  -1.312   8.276   2.502  0.3973 -0.3785  0.0702
  391MOL0     C52678  -1.293   8.135   2.443  0.2881 -0.5083  0.0588
  391MOL0     C52679  -1.433   8.356   2.504  0.1524  1.0672 -0.4870
  391MOL0     C52680  -1.560   8.301   2.432  0.0344  0.4613  0.2306
  391MOL0     O52681  -1.670   8.345   2.498  0.2155 -0.0067 -0.3067
  391MOL0     C52682  -1.795   8.333   2.438 -0.2551 -0.6140 -0.1292
  391MOL0     C52683  -1.877   8.254   2.516 -0.2834 -0.8264 -0.1458
  391MOL0     C52684  -2.010   8.238   2.474 -0.1494  0.5747  0.0019
  391MOL0     C52685  -2.056   8.301   2.356 -0.0266  0.8536 -0.6733
  391MOL0     O52686  -2.182   8.268   2.327  0.4061  1.0597  0.6128
  391MOL0     C52687  -2.238   8.319   2.198 -0.4752  0.3621 -0.4586
  391MOL0     C52688  -2.377   8.249   2.173 -0.3010 -0.0014 -0.0221
  391MOL0     C52689  -2.424   8.268   2.032  0.3327 -0.0469 -0.3414
  391MOL0     C52690  -2.570   8.252   2.014  0.0963  0.4913 -0.0502
  391MOL0     C52691  -2.623   8.124   2.087  0.4770  0.3150  0.0109
  391MOL0     C52692  -2.774   8.099   2.057 -0.9031  0.9279 -0.6217
  391MOL0     C52693  -2.821   7.968   2.124  0.4343 -0.3415  0.7927
  391MOL0     C52694  -2.803   7.844   2.040 -0.2663 -0.1720  0.2431
  391MOL0    Cl52695  -2.915   7.839   1.910 -0.2752 -0.2722 -0.1453
  391MOL0     C52696  -1.969   8.386   2.284 -0.3204  0.4132 -0.2427
  391MOL0     C52697  -1.840   8.397   2.321 -0.7918 -0.3616 -0.3942
  391MOL0     O52698  -1.563   8.235   2.328  0.8471  0.2617  0.0441
  391MOL0     C52699  -1.432   8.488   2.558  0.3089  0.1567  1.0579
  391MOL0     C52700  -1.313   8.540   2.608 -0.2209  0.0619 -0.1963
  391MOL0     N52701  -0.862   8.202   2.550 -0.5117 -0.9702  0.2919
  391MOL0     N52702  -0.801   8.204   2.439 -0.0373  0.3174 -0.8115
  391MOL0     C52703   0.157   7.894   1.954  0.6192 -0.2434 -0.0427
  391MOL0     C52704   0.248   7.793   1.931  0.3530  0.7556 -0.4296
  391MOL0     C52705   0.559   7.486   2.010  0.1793 -0.7822  0.0728
  391MOL0     C52706   0.555   7.357   2.062  0.8020 -0.2315 -0.2241
  391MOL0     C52707   0.651   7.266   2.032 -0.1763  0.0969  0.0953
  391MOL0     C52708   0.758   7.296   1.943 -0.5846  0.0331 -0.3537
  391MOL0     O52709   0.856   7.212   1.897 -0.7683  0.1019  0.4286
  391MOL0     C52710   0.833   7.069   1.886 -0.0206  0.1025 -0.9030
  391MOL0     C52711   0.921   6.991   1.796  0.0528 -0.1428  0.2202
  391MOL0     C52712   0.877   6.845   1.799 -0.3384 -0.0388 -0.0413
  391MOL0     C52713   0.960   6.765   1.690 -0.0047  0.9989 -0.0573
  391MOL0     C52714   0.887   6.642   1.655 -0.1068  0.4939  0.0667
  391MOL0     C52715   0.840   6.533   1.631  0.6184 -0.1772  0.4042
  391MOL0     C52716   0.766   7.428   1.901  0.2320 -0.7187  0.4648
  391MOL0     C52717   0.672   7.526   1.937  0.9401  0.1648  0.1209
  391MOL0     H52718   0.505   7.917   2.115  0.5024  0.6266 -0.3007
  391MOL0     H52719   0.343   8.103   2.134 -2.5716 -0.1071  0.4743
  391MOL0     H52720   0.151   8.269   2.126 -2.8534  1.6290  0.7676
  391MOL0     H52721   0.221   8.262   1.964  0.2157 -0.3499 -1.0067
  391MOL0     H52722   0.045   8.427   1.938 -1.0840 -0.7327 -0.3146
  391MOL0     H52723  -0.017   8.279   1.869  0.2584 -1.7821  0.2006
  391MOL0     H52724  -0.055   8.355   2.169 -0.1057  0.9203  0.5622
  391MOL0     H52725  -0.120   8.465   2.061 -0.8130 -0.7414  2.0916
  391MOL0     H52726  -0.260   8.273   1.951 -0.8400  0.1599  0.4755
  391MOL0     H52727  -0.190   8.166   2.066  0.1723 -0.2061  1.2135
  391MOL0     H52728  -0.270   8.274   2.257 -0.4474  0.9336  1.4515
  391MOL0     H52729  -0.336   8.418   2.169  0.4776 -0.1774  0.0828
  391MOL0     H52730  -0.507   8.264   2.064  3.1998  2.4640 -0.6438
  391MOL0     H52731  -0.442   8.128   2.157  0.2367 -1.0308  2.2970
  391MOL0     H52732  -0.514   8.368   2.319  0.1417  0.1797 -0.9038
  391MOL0     H52733  -0.648   8.312   2.233 -0.3744  0.4934  1.1230
  391MOL0     H52734  -0.468   8.128   2.394 -0.8646 -2.0482  0.2671
  391MOL0     H52735  -0.609   8.077   2.305 -1.3663  1.0632 -0.7181
  391MOL0     H52736  -0.540   8.164   2.648  0.0349 -1.1904 -1.0524
  391MOL0     H52737  -0.903   8.168   2.823  0.0183 -0.2274 -1.2591
  391MOL0     H52738  -0.743   8.134   2.859 -1.1676 -0.5179  0.9223
  391MOL0     H52739  -0.680   8.366   2.866  0.3396  0.5299  0.0331
  391MOL0     H52740  -0.830   8.358   2.955 -3.8048 -3.2257 -1.4926
  391MOL0     H52741  -0.803   8.457   2.673  2.2362 -0.4087  0.4676
  391MOL0     H52742  -0.839   8.560   2.798  1.4148 -0.2034 -0.9014
  391MOL0     H52743  -1.061   8.462   2.861 -0.4831  0.7486  0.1246
  391MOL0     H52744  -1.039   8.339   2.745 -3.8055  1.0179 -0.9914
  391MOL0     H52745  -1.112   8.272   2.542 -2.4980 -1.4149 -3.3665
  391MOL0     H52746  -1.188   8.111   2.427  0.6972 -0.7600  2.5927
  391MOL0     H52747  -1.336   8.055   2.504  1.2565  1.5475  3.8040
  391MOL0     H52748  -1.332   8.138   2.341 -0.3342 -0.3206  0.2985
  391MOL0     H52749  -1.839   8.202   2.603  1.8159  3.2526  1.6043
  391MOL0     H52750  -2.053   8.170   2.547  1.6673 -0.1188  0.4841
  391MOL0     H52751  -2.258   8.427   2.201  1.1929  0.6807  1.6970
  391MOL0     H52752  -2.165   8.295   2.121 -1.7203 -1.0792 -1.2401
  391MOL0     H52753  -2.366   8.143   2.197  3.3232 -0.2172 -1.9728
  391MOL0     H52754  -2.455   8.289   2.238 -2.4357  2.5339 -3.7219
  391MOL0     H52755  -2.378   8.195   1.964 -2.2856 -0.1039 -2.1734
  391MOL0     H52756  -2.391   8.363   1.990  2.1690 -0.9555 -1.0887
  391MOL0     H52757  -2.629   8.336   2.051 -2.4483 -1.8818  1.6952
  391MOL0     H52758  -2.583   8.218   1.911 -2.5990 -0.3430  0.4784
  391MOL0     H52759  -2.600   8.128   2.194  1.6103  0.8470 -0.2363
  391MOL0     H52760  -2.568   8.036   2.054 -0.0729  0.0473 -0.1973
  391MOL0     H52761  -2.843   8.173   2.098 -1.5127 -0.9475  2.0344
  391MOL0     H52762  -2.786   8.089   1.949  2.6029  1.3518 -1.1828
  391MOL0     H52763  -2.927   7.972   2.154  1.0120 -0.2343  3.0168
  391MOL0     H52764  -2.768   7.958   2.219  2.0886  0.0616 -0.0559
  391MOL0     H52765  -2.810   7.759   2.108  1.8606 -1.0098 -0.4979
  391MOL0     H52766  -2.700   7.854   2.004  0.3238  1.7945  2.2211
  391MOL0     H52767  -2.008   8.447   2.203 -0.9273  0.7907  0.3179
  391MOL0     H52768  -1.770   8.459   2.266  0.1777 -0.6524  0.4744
  391MOL0     H52769  -1.519   8.551   2.545  0.8387  0.5942 -0.6507
  391MOL0     H52770  -1.307   8.643   2.641 -0.4039  0.6173 -1.8329
  391MOL0     H52771   0.053   7.887   1.922  1.5688  1.4599 -4.1628
  391MOL0     H52772   0.228   7.694   1.893 -1.3329  0.5520  0.8609
  391MOL0     H52773   0.478   7.322   2.131  2.1573  0.0007  1.4559
  391MOL0     H52774   0.652   7.164   2.068  7.2759 -0.3464  0.2021
  391MOL0     H52775   0.853   7.033   1.988  1.7199 -0.1146 -1.2982
  391MOL0     H52776   0.732   7.039   1.855 -0.2503  0.1268 -0.2135
  391MOL0     H52777   1.024   6.990   1.832 -0.2202 -1.3183  1.0174
  391MOL0     H52778   0.915   7.032   1.695 -0.2758  1.2720  0.7787
  391MOL0     H52779   0.769   6.834   1.782 -0.1472 -0.3749 -1.1485
  391MOL0     H52780   0.898   6.798   1.896  1.0846  0.0217 -0.3045
  391MOL0     H52781   1.045   6.714   1.736  0.0204 -1.4964 -2.5452
  391MOL0     H52782   1.006   6.813   1.603 -0.7338 -2.0190 -2.3093
  391MOL0     H52783   0.797   6.435   1.619  1.8915 -0.4644 -3.0224
  391MOL0     H52784   0.856   7.453   1.846 -0.4200  0.5143 -0.1078
  391MOL0     H52785   0.679   7.624   1.892  1.3767 -0.7959 -2.0540
  392MOL0     O52786   4.665   5.895   0.587  0.1420  0.4273 -0.9317
  392MOL0     C52787   4.730   5.795   0.605 -0.3564  0.8014 -0.3600
  392MOL0     O52788   4.768   5.708   0.509  0.2727 -0.2333  0.7080
  392MOL0     C52789   4.729   5.744   0.379 -0.5466  0.2224  0.8655
  392MOL0     C52790   4.826   5.696   0.283 -0.4751 -0.1566 -0.3197
  392MOL0     C52791   4.825   5.747   0.157 -0.3754 -0.3028 -0.3198
  392MOL0     C52792   4.729   5.837   0.113  0.2519 -0.4024  0.1234
  392MOL0     O52793   4.746   5.890  -0.014  0.7167  0.5472 -0.8145
  392MOL0     C52794   4.660   5.985  -0.075 -1.2186 -0.3679  0.7676
  392MOL0     C52795   4.714   6.014  -0.218  0.4132 -0.3439 -0.5841
  392MOL0     C52796   4.724   5.882  -0.297  0.0964 -0.1811 -0.4877
  392MOL0     C52797   4.584   5.811  -0.329 -0.3389 -0.7766 -0.0401
  392MOL0     C52798   4.587   5.657  -0.341 -0.2610  0.5499 -0.8405
  392MOL0     C52799   4.456   5.601  -0.407 -0.5685  0.4758  0.5273
  392MOL0     C52800   4.453   5.443  -0.413  0.1369 -0.3729 -0.1711
  392MOL0     C52801   4.394   5.382  -0.544  0.3902  0.5517 -0.0289
  392MOL0     N52802   4.251   5.376  -0.542  0.2872 -0.4825  0.4342
  392MOL0     C52803   4.171   5.271  -0.509 -0.2596 -0.5750 -0.0812
  392MOL0     C52804   4.042   5.310  -0.527 -1.1733  0.4996  0.9101
  392MOL0     C52805   3.937   5.209  -0.519  0.1462  1.1164  0.2545
  392MOL0     C52806   3.815   5.241  -0.608 -0.1106 -0.5153 -0.4244
  392MOL0     C52807   3.695   5.166  -0.556  0.1554  0.4354  1.0621
  392MOL0     C52808   3.551   5.210  -0.603 -0.7321 -0.6969  0.2136
  392MOL0     O52809   3.524   5.157  -0.737 -0.3783 -0.5056  0.6507
  392MOL0     C52810   3.401   5.168  -0.798 -0.0483 -0.0832  0.1738
  392MOL0     C52811   3.295   5.228  -0.746  0.5923  0.3246  0.1171
  392MOL0     C52812   3.168   5.215  -0.819 -0.2520  1.2848 -0.5755
  392MOL0     C52813   3.051   5.283  -0.764  0.6172 -0.9546 -0.1750
  392MOL0     C52814   3.158   5.131  -0.936  0.0851  0.4863 -1.2669
  392MOL0     C52815   3.033   5.099  -1.006  0.5835 -0.8031  0.4577
  392MOL0     O52816   3.043   5.028  -1.125 -0.2649 -0.1436 -0.2379
  392MOL0     C52817   2.934   4.985  -1.201  0.0937  0.4034 -0.0638
  392MOL0     C52818   2.807   4.965  -1.145 -0.8940  0.4311 -0.2381
  392MOL0     C52819   2.708   4.901  -1.216 -0.3341  0.2171  0.4446
  392MOL0     C52820   2.722   4.874  -1.359 -0.7208 -0.6043 -0.6710
  392MOL0     O52821   2.614   4.831  -1.420  0.1178  0.2787  0.5481
  392MOL0     C52822   2.582   4.870  -1.553  0.0635 -0.1470 -0.5240
  392MOL0     C52823   2.438   4.826  -1.577 -1.2853 -0.5262 -0.3481
  392MOL0     C52824   2.324   4.911  -1.513 -0.5944  0.5277 -0.0364
  392MOL0     C52825   2.214   4.838  -1.427  0.4966 -0.5026 -0.3922
  392MOL0     C52826   2.128   4.741  -1.514 -0.0935 -0.0279  0.4069
  392MOL0     C52827   2.017   4.826  -1.582  0.1836 -0.1218  0.1491
  392MOL0     C52828   1.911   4.744  -1.669 -0.4495  0.2945 -0.6619
  392MOL0     C52829   1.823   4.836  -1.751  0.5508  0.2773  0.3678
  392MOL0    Cl52830   1.737   4.939  -1.631 -0.0218  0.1886  0.3246
  392MOL0     C52831   2.849   4.909  -1.417  0.0294  0.2555  0.6052
  392MOL0     C52832   2.951   4.958  -1.337 -0.1804  0.4851  0.3229
  392MOL0     O52833   2.925   5.139  -0.957 -0.1252 -0.2315 -0.0343
  392MOL0     C52834   3.275   5.079  -0.981 -0.2869  0.2789 -0.0246
  392MOL0     C52835   3.399   5.100  -0.919 -0.3056 -0.1646  1.1194
  392MOL0     N52836   4.044   5.448  -0.567 -0.1858 -0.4956  0.2648
  392MOL0     N52837   4.166   5.483  -0.574 -0.2798  0.0722  0.2916
  392MOL0     C52838   4.613   5.855   0.194  0.2428 -0.7147  0.5551
  392MOL0     C52839   4.612   5.809   0.325 -0.1927  0.4177 -0.6186
  392MOL0     C52840   4.777   5.773   0.745 -0.1970 -0.6080 -0.3561
  392MOL0     C52841   4.700   5.816   0.863  0.1474 -0.6482 -0.2500
  392MOL0     C52842   4.751   5.802   0.992 -0.7224 -0.3159  0.3346
  392MOL0     C52843   4.874   5.735   1.004 -0.2965  0.6804 -0.0872
  392MOL0     O52844   4.917   5.720   1.132 -0.6239 -0.5978  0.6140
  392MOL0     C52845   4.924   5.585   1.172 -0.2485  1.1105  0.9907
  392MOL0     C52846   4.917   5.601   1.320 -0.1620 -0.6939  0.6290
  392MOL0     C52847   4.880   5.477   1.398 -0.0719  0.1070 -0.2368
  392MOL0     C52848   4.735   5.446   1.367 -0.7603 -0.1848  0.5194
  392MOL0     C52849   4.640   5.510   1.458  0.3198  0.1896 -0.2431
  392MOL0     C52850   4.580   5.565   1.544  0.2987  0.5966 -0.2835
  392MOL0     C52851   4.950   5.689   0.894  0.5796  0.1727 -0.0395
  392MOL0     C52852   4.910   5.719   0.766 -0.0310  0.0219  0.1306
  392MOL0     H52853   4.913   5.647   0.327  0.5532  3.6557  2.4198
  392MOL0     H52854   4.910   5.730   0.091  1.0940  3.4281  0.3858
  392MOL0     H52855   4.563   5.934  -0.079  0.3174 -3.5020 -0.4365
  392MOL0     H52856   4.658   6.078  -0.018  5.7645  0.5661  0.3189
  392MOL0     H52857   4.654   6.094  -0.263 -1.4013 -1.6409 -0.5660
  392MOL0     H52858   4.814   6.060  -0.216 -0.4308  1.5890  0.9899
  392MOL0     H52859   4.776   5.909  -0.390 -0.0066  1.2831 -0.1523
  392MOL0     H52860   4.792   5.823  -0.235 -2.5262 -1.8518  0.9726
  392MOL0     H52861   4.511   5.843  -0.254 -1.1333  1.2004 -1.5510
  392MOL0     H52862   4.549   5.852  -0.424 -1.8845 -2.2814 -0.1579
  392MOL0     H52863   4.674   5.632  -0.403 -0.2162 -0.2289 -0.4782
  392MOL0     H52864   4.608   5.615  -0.242  3.4844 -0.6579 -1.9877
  392MOL0     H52865   4.361   5.642  -0.372 -0.7331  1.3391 -0.8115
  392MOL0     H52866   4.461   5.643  -0.509 -1.1871  1.3131  0.8284
  392MOL0     H52867   4.551   5.398  -0.394  0.3669 -0.3297 -1.1746
  392MOL0     H52868   4.391   5.409  -0.330  2.2615 -0.3035  1.5172
  392MOL0     H52869   4.430   5.280  -0.564  0.6073 -0.2514  3.6977
  392MOL0     H52870   4.427   5.446  -0.627 -0.3761 -0.2188 -0.9527
  392MOL0     H52871   4.205   5.169  -0.499  3.8210  0.5365 -0.9133
  392MOL0     H52872   3.986   5.114  -0.543 -1.5024  0.1914  0.3884
  392MOL0     H52873   3.903   5.190  -0.417 -1.4056  1.1706 -0.2244
  392MOL0     H52874   3.849   5.222  -0.710  5.3102  0.5764  0.8770
  392MOL0     H52875   3.790   5.346  -0.591  1.0248  0.1028 -2.2849
  392MOL0     H52876   3.686   5.183  -0.448 -1.8810 -0.2956  1.0525
  392MOL0     H52877   3.701   5.057  -0.567 -0.4946  0.6025 -1.5334
  392MOL0     H52878   3.551   5.319  -0.600  0.2386 -0.7065  2.6313
  392MOL0     H52879   3.492   5.171  -0.520  1.5016 -1.2717  1.6211
  392MOL0     H52880   3.308   5.287  -0.656 -4.1849 -0.1012  1.3643
  392MOL0     H52881   3.078   5.344  -0.678  0.6835 -1.5041  0.2009
  392MOL0     H52882   3.013   5.356  -0.836 -3.0216  0.9000  3.2965
  392MOL0     H52883   2.977   5.212  -0.727 -1.6837  1.9654  1.2178
  392MOL0     H52884   2.785   4.973  -1.039 -0.3489  1.1769 -0.1746
  392MOL0     H52885   2.617   4.882  -1.160 -0.7786 -0.1092 -0.3818
  392MOL0     H52886   2.575   4.979  -1.561 -1.1479 -0.2369 -0.8691
  392MOL0     H52887   2.654   4.838  -1.630  2.1296  1.8534  0.4398
  392MOL0     H52888   2.411   4.833  -1.683  0.3353 -2.4651 -0.9530
  392MOL0     H52889   2.432   4.723  -1.541  0.1840 -0.4882  0.0577
  392MOL0     H52890   2.281   4.971  -1.594  0.0046  1.0657  0.0373
  392MOL0     H52891   2.368   4.984  -1.445  0.4880  0.1463 -0.3120
  392MOL0     H52892   2.271   4.779  -1.355  0.6663  1.4325  1.1298
  392MOL0     H52893   2.150   4.909  -1.374  1.7738  1.1568 -0.9844
  392MOL0     H52894   2.067   4.669  -1.458  0.5799 -1.8447 -1.0674
  392MOL0     H52895   2.193   4.684  -1.582 -0.5341 -1.1469  0.8905
  392MOL0     H52896   1.966   4.886  -1.506 -1.6096  1.2275 -1.9807
  392MOL0     H52897   2.064   4.905  -1.642 -1.7044  2.2537  1.5767
  392MOL0     H52898   1.846   4.682  -1.608 -0.6849 -0.6706 -1.8673
  392MOL0     H52899   1.975   4.679  -1.728 -2.7426 -3.0240  0.2399
  392MOL0     H52900   1.750   4.782  -1.812  0.5428  1.1155 -0.3799
  392MOL0     H52901   1.875   4.912  -1.808 -1.0502  1.0675 -0.0971
  392MOL0     H52902   2.865   4.892  -1.522 -2.6079 -1.7849  0.4186
  392MOL0     H52903   3.047   4.989  -1.378 -0.1760  0.9750  0.6994
  392MOL0     H52904   3.289   5.015  -1.068  2.7323  2.3258 -1.2064
  392MOL0     H52905   3.488   5.058  -0.965  0.3389  1.8846  0.3899
  392MOL0     H52906   4.535   5.922   0.161  0.7880 -0.7720 -0.9556
  392MOL0     H52907   4.535   5.828   0.399 -1.2269  1.0476 -1.8345
  392MOL0     H52908   4.610   5.876   0.847  0.7079  0.0423 -0.8727
  392MOL0     H52909   4.709   5.827   1.089 -0.4176  0.0384  0.3761
  392MOL0     H52910   4.842   5.522   1.135  0.0495  2.0835 -1.5197
  392MOL0     H52911   5.017   5.535   1.145 -0.5547  1.3374 -0.5449
  392MOL0     H52912   4.848   5.685   1.335  1.2777  0.1776  2.9667
  392MOL0     H52913   5.012   5.637   1.362  0.1946 -1.3209  0.3720
  392MOL0     H52914   4.891   5.482   1.507 -0.6078 -0.5885 -0.1428
  392MOL0     H52915   4.933   5.385   1.370  0.1004  0.1634 -0.0950
  392MOL0     H52916   4.715   5.338   1.371 -0.9597 -0.4017 -3.1658
  392MOL0     H52917   4.712   5.481   1.267 -0.1652  1.1409  0.8334
  392MOL0     H52918   4.517   5.627   1.605 -2.9469  0.4929 -3.1905
  392MOL0     H52919   5.036   5.634   0.930 -1.5722 -2.0094  2.1551
  392MOL0     H52920   4.979   5.692   0.687 -1.0512 -1.5198 -0.2799
  393MOL0     O52921   8.789   9.946   2.759  0.6419 -0.3332  0.0567
  393MOL0     C52922   8.830   9.953   2.641  0.0055 -0.2691  0.9822
  393MOL0     O52923   8.755   9.967   2.529 -0.7202 -0.4082  0.4102
  393MOL0     C52924   8.626   9.994   2.516 -0.5413  0.0932 -0.6951
  393MOL0     C52925   8.529   9.967   2.615 -0.8388  0.2299 -0.2865
  393MOL0     C52926   8.399   9.994   2.585  0.8006 -0.4090  0.2555
  393MOL0     C52927   8.362  10.049   2.461 -0.0797 -0.9657 -0.5764
  393MOL0     O52928   8.230  10.066   2.418  0.0464 -0.2105 -0.5711
  393MOL0     C52929   8.151  10.158   2.506 -0.5170  0.4826  0.5527
  393MOL0     C52930   8.007  10.100   2.519  0.3272  0.2923 -0.0296
  393MOL0     C52931   7.926  10.209   2.588 -0.3222 -0.0858  0.8628
  393MOL0     C52932   7.840  10.293   2.487 -0.1348  0.0801  0.5590
  393MOL0     C52933   7.785  10.431   2.536 -0.6109  0.4324  0.1578
  393MOL0     C52934   7.747  10.504   2.410 -0.1293  0.1231 -0.4433
  393MOL0     C52935   7.829  10.632   2.398 -0.0806 -0.7090 -0.3810
  393MOL0     C52936   7.794  10.720   2.269  0.4504  0.0678  0.8208
  393MOL0     N52937   7.832  10.634   2.162  0.1251  0.4995 -0.5270
  393MOL0     C52938   7.743  10.590   2.066  0.3336 -0.8567 -0.3076
  393MOL0     C52939   7.818  10.522   1.975  0.1328  0.0568 -0.0572
  393MOL0     C52940   7.792  10.483   1.834  0.2925  0.1693 -0.6630
  393MOL0     C52941   7.661  10.539   1.791 -0.5939  0.3328  0.0421
  393MOL0     C52942   7.609  10.499   1.656 -0.4814  0.3725 -0.7627
  393MOL0     C52943   7.487  10.577   1.619  0.0071  0.5642  0.8274
  393MOL0     O52944   7.370  10.537   1.700  0.1041 -0.2054 -0.1571
  393MOL0     C52945   7.245  10.592   1.675 -1.1535  0.9292  0.3489
  393MOL0     C52946   7.218  10.695   1.585 -0.6374 -0.0273 -0.6362
  393MOL0     C52947   7.095  10.755   1.573  0.7840 -0.2695  0.1768
  393MOL0     C52948   7.087  10.880   1.486 -0.5901  0.4451  0.3184
  393MOL0     C52949   6.987  10.685   1.636 -0.0378 -0.8732 -0.7891
  393MOL0     C52950   6.850  10.735   1.615 -0.5007  0.2557  0.7050
  393MOL0     O52951   6.746  10.655   1.652 -0.5191  0.0816 -0.0343
  393MOL0     C52952   6.623  10.708   1.658  0.0467  0.7654  0.7190
  393MOL0     C52953   6.590  10.830   1.718 -0.0234  0.4141 -0.5428
  393MOL0     C52954   6.457  10.880   1.711 -0.6089  0.2929  0.2411
  393MOL0     C52955   6.354  10.799   1.650  0.3271  0.1574  0.2254
  393MOL0     O52956   6.227  10.848   1.650 -0.0348  0.5828  0.3246
  393MOL0     C52957   6.211  10.980   1.594 -0.1756 -0.4751  1.1481
  393MOL0     C52958   6.057  10.989   1.579  0.9356 -0.2905  0.0912
  393MOL0     C52959   5.970  10.970   1.705  0.3059  0.1268  0.3822
  393MOL0     C52960   5.830  11.031   1.684  0.0719  0.3585  0.3341
  393MOL0     C52961   5.741  11.026   1.815 -0.2722 -0.4555  0.9168
  393MOL0     C52962   5.710  10.885   1.865  0.0176 -0.0119 -0.1248
  393MOL0     C52963   5.585  10.882   1.968 -0.1480  0.0689  0.1657
  393MOL0     C52964   5.626  10.877   2.116 -0.0086  0.5099  0.5924
  393MOL0    Cl52965   5.481  10.860   2.214 -0.1276  0.2865  0.4764
  393MOL0     C52966   6.391  10.681   1.591 -0.2157 -0.5859 -0.0945
  393MOL0     C52967   6.525  10.628   1.593  1.4327  0.1315  0.5407
  393MOL0     O52968   6.835  10.850   1.588  0.1479 -0.3698 -0.1795
  393MOL0     C52969   7.004  10.569   1.716  0.3887 -0.7956 -0.1426
  393MOL0     C52970   7.139  10.534   1.737  0.0528  0.1164 -0.6556
  393MOL0     N52971   7.949  10.525   2.022 -0.1329 -0.2772  0.1634
  393MOL0     N52972   7.958  10.585   2.129  0.2126 -0.4815 -0.4440
  393MOL0     C52973   8.456  10.088   2.366  0.5009  0.4382  0.0590
  393MOL0     C52974   8.587  10.050   2.400  0.3548 -0.6856  0.8029
  393MOL0     C52975   8.980   9.966   2.618  0.2279  0.3883  0.8492
  393MOL0     C52976   9.079   9.974   2.722  1.5903 -0.4458  0.3437
  393MOL0     C52977   9.211   9.992   2.705  0.1715 -0.0167 -0.3073
  393MOL0     C52978   9.260  10.005   2.571 -0.0659  0.1980 -0.3344
  393MOL0     O52979   9.389  10.029   2.534 -0.3190 -0.1503  0.3183
  393MOL0     C52980   9.482  10.016   2.631 -0.7632 -0.3154 -1.0339
  393MOL0     C52981   9.618  10.035   2.572 -0.8882 -0.5356 -0.3178
  393MOL0     C52982   9.660   9.951   2.448  0.1176 -0.1033  0.6700
  393MOL0     C52983   9.646   9.804   2.485 -0.7401 -0.4920  0.6699
  393MOL0     C52984   9.705   9.711   2.380  0.4431 -1.1802 -1.1644
  393MOL0     C52985   9.747   9.650   2.290  0.4803 -0.1639  0.2053
  393MOL0     C52986   9.168   9.997   2.468  1.0431 -0.0661  1.1820
  393MOL0     C52987   9.033   9.984   2.483 -0.0340  0.9211 -0.5357
  393MOL0     H52988   8.552   9.914   2.707  0.1888 -0.2818 -0.8156
  393MOL0     H52989   8.326   9.972   2.663 -0.8758 -0.3919 -1.2324
  393MOL0     H52990   8.193  10.170   2.607 -1.8316 -1.8791  1.4800
  393MOL0     H52991   8.149  10.253   2.453  1.7540 -0.4946 -1.4406
  393MOL0     H52992   7.959  10.084   2.422 -1.6000  2.1522  0.5461
  393MOL0     H52993   8.000  10.008   2.579  0.9698  1.6619  2.2757
  393MOL0     H52994   7.862  10.171   2.668  0.9051 -1.3204  1.2903
  393MOL0     H52995   7.992  10.283   2.634  1.7441 -1.8805  0.9414
  393MOL0     H52996   7.919  10.322   2.417 -0.0105  1.0795  1.1010
  393MOL0     H52997   7.765  10.232   2.435  0.3999 -0.4209  0.3524
  393MOL0     H52998   7.700  10.403   2.598 -0.3307  0.9979  0.8201
  393MOL0     H52999   7.854  10.497   2.590 -0.8808  2.1462 -1.4736
  393MOL0     H53000   7.756  10.443   2.320 -0.7376 -0.0239 -0.4096
  393MOL0     H53001   7.639  10.519   2.422  0.0566  1.1742 -0.0109
  393MOL0     H53002   7.813  10.692   2.488 -0.6965  0.6337 -1.3405
  393MOL0     H53003   7.934  10.601   2.396  0.3485  0.6572 -0.1082
  393MOL0     H53004   7.860  10.807   2.277  2.4352 -1.2967  0.0177
  393MOL0     H53005   7.689  10.748   2.273  0.6220  0.8674  5.4549
  393MOL0     H53006   7.638  10.617   2.072  1.1290  2.4575  0.6558
  393MOL0     H53007   7.873  10.527   1.776  0.7857  1.5686  1.0281
  393MOL0     H53008   7.795  10.375   1.813  0.4923  0.0060  0.1928
  393MOL0     H53009   7.670  10.648   1.788  1.8456  0.1518 -1.4366
  393MOL0     H53010   7.581  10.517   1.863  1.1912 -0.8081  1.7526
  393MOL0     H53011   7.587  10.392   1.662 -3.0764  0.6819 -2.9183
  393MOL0     H53012   7.682  10.511   1.575 -1.3419 -2.3499 -2.0480
  393MOL0     H53013   7.470  10.571   1.511 -2.7843 -0.4801  1.2387
  393MOL0     H53014   7.498  10.682   1.646  2.1749  0.4494  0.5022
  393MOL0     H53015   7.303  10.751   1.547 -0.9762  1.1077  0.2413
  393MOL0     H53016   7.023  10.858   1.400 -0.2390 -1.8604  0.5847
  393MOL0     H53017   7.050  10.962   1.549 -1.0898  0.2957  0.2226
  393MOL0     H53018   7.186  10.912   1.451 -1.1055  1.4068 -0.3075
  393MOL0     H53019   6.662  10.894   1.768 -1.8280  0.8944  1.6316
  393MOL0     H53020   6.437  10.983   1.738  3.0308  1.6353 -1.4539
  393MOL0     H53021   6.239  11.063   1.659 -2.2884  0.2859  1.1402
  393MOL0     H53022   6.264  10.997   1.499 -2.7693  0.3730 -0.2240
  393MOL0     H53023   6.037  11.090   1.542  1.3723 -0.2012  0.0986
  393MOL0     H53024   6.032  10.910   1.507 -2.6723 -1.1249  1.9854
  393MOL0     H53025   6.015  11.033   1.782 -1.2821  0.4041  1.1327
  393MOL0     H53026   5.975  10.865   1.736  0.9209 -0.1466 -0.6222
  393MOL0     H53027   5.834  11.134   1.646  0.3172 -0.7737 -3.0081
  393MOL0     H53028   5.788  10.979   1.598  0.6559  1.7791 -0.8621
  393MOL0     H53029   5.641  11.065   1.794 -0.3762 -1.5375 -0.7729
  393MOL0     H53030   5.786  11.082   1.897  0.1629 -2.0230  1.7943
  393MOL0     H53031   5.688  10.831   1.772  0.8282  3.1299 -2.2925
  393MOL0     H53032   5.800  10.832   1.898 -1.7352 -3.0116  0.1832
  393MOL0     H53033   5.532  10.788   1.955 -1.1680  0.2539  2.5205
  393MOL0     H53034   5.516  10.965   1.951  0.8711  0.8507 -0.2801
  393MOL0     H53035   5.685  10.963   2.147  0.0893  0.3637  0.8181
  393MOL0     H53036   5.688  10.787   2.126 -0.2679 -0.2073 -2.9418
  393MOL0     H53037   6.319  10.618   1.541 -1.1008  0.4248 -0.1309
  393MOL0     H53038   6.559  10.531   1.559 -1.5020 -2.0441  3.1811
  393MOL0     H53039   6.915  10.522   1.758 -0.3088 -0.3407 -1.0813
  393MOL0     H53040   7.157  10.457   1.811 -1.6719 -0.9234 -1.2457
  393MOL0     H53041   8.418  10.140   2.279  0.5318  0.4368  0.0449
  393MOL0     H53042   8.664  10.073   2.326  0.3250 -2.5954  0.1320
  393MOL0     H53043   9.043   9.943   2.820  0.7595 -2.8332 -0.6392
  393MOL0     H53044   9.274   9.993   2.794 -1.3732  0.6154  0.8443
  393MOL0     H53045   9.473  10.083   2.717  0.9471 -4.4038  2.6659
  393MOL0     H53046   9.475   9.915   2.672  2.1417  0.5856  2.0948
  393MOL0     H53047   9.689  10.024   2.655 -2.1134  0.2488  0.8670
  393MOL0     H53048   9.622  10.141   2.544  0.3679  0.3079  2.7036
  393MOL0     H53049   9.768   9.959   2.430  0.0744 -0.8944 -0.0380
  393MOL0     H53050   9.607   9.976   2.355 -0.6045  1.2084  1.4054
  393MOL0     H53051   9.538   9.786   2.482 -0.6910 -1.1447  2.2019
  393MOL0     H53052   9.686   9.788   2.585 -0.4941  0.2047  0.6866
  393MOL0     H53053   9.772   9.573   2.220  0.8258 -1.6090  1.8280
  393MOL0     H53054   9.202   9.988   2.366 -0.8210  2.1671  0.2804
  393MOL0     H53055   8.965   9.966   2.400  1.2195  1.5022 -1.7242
  394MOL0     O53056   8.035   0.420   2.116  0.0092 -0.7144 -0.0381
  394MOL0     C53057   8.066   0.312   2.061  0.7220  0.1176  0.4853
  394MOL0     O53058   7.975   0.228   2.000  0.5161  0.4422  0.4422
  394MOL0     C53059   7.839   0.253   1.989 -0.2698 -0.4426  0.3732
  394MOL0     C53060   7.757   0.341   2.060 -0.0489 -1.1737 -0.6767
  394MOL0     C53061   7.619   0.354   2.035 -0.2533  0.4548  0.4271
  394MOL0     C53062   7.557   0.273   1.941 -0.1212 -0.8072  0.0306
  394MOL0     O53063   7.421   0.291   1.922 -0.1558  0.4001  0.5794
  394MOL0     C53064   7.350   0.177   1.881 -0.0711  0.2871 -0.8610
  394MOL0     C53065   7.201   0.197   1.884  0.7119  0.4643 -0.1512
  394MOL0     C53066   7.147   0.276   1.768  0.1709  0.1321  0.3733
  394MOL0     C53067   6.994   0.304   1.783 -0.1628 -0.4620  0.1706
  394MOL0     C53068   6.936   0.367   1.658 -0.6384  0.9143 -0.7462
  394MOL0     C53069   6.817   0.449   1.700  0.1294  0.0598  0.1516
  394MOL0     C53070   6.694   0.352   1.731  0.2077 -0.7170 -0.0086
  394MOL0     C53071   6.567   0.424   1.774 -0.2448  0.3409 -0.4785
  394MOL0     N53072   6.451   0.371   1.709  0.0075  0.1387  0.3320
  394MOL0     C53073   6.370   0.446   1.630  0.4259 -0.0732  0.6570
  394MOL0     C53074   6.254   0.382   1.630 -0.5514 -0.4431 -0.0859
  394MOL0     C53075   6.130   0.419   1.543 -0.1193  0.1670  0.3572
  394MOL0     C53076   6.012   0.399   1.620  0.1881  0.5284 -0.4448
  394MOL0     C53077   5.882   0.446   1.550 -0.0786  0.0807 -0.0879
  394MOL0     C53078   5.832   0.337   1.447  0.5435 -0.6806  0.4784
  394MOL0     O53079   5.704   0.384   1.407 -0.0181 -0.6465  0.3121
  394MOL0     C53080   5.586   0.309   1.384 -0.7152 -0.0821 -0.0686
  394MOL0     C53081   5.507   0.355   1.282  0.2780 -0.3875  0.5493
  394MOL0     C53082   5.373   0.309   1.273 -0.0863  0.3241  0.2668
  394MOL0     C53083   5.294   0.361   1.153 -0.1295  0.4151 -0.4135
  394MOL0     C53084   5.315   0.218   1.366 -0.8471  0.5551 -0.5832
  394MOL0     C53085   5.171   0.179   1.384  0.8870  0.1572  0.6794
  394MOL0     O53086   5.125   0.151   1.513 -0.1311 -0.8486  0.0560
  394MOL0     C53087   5.001   0.112   1.552  1.2511  0.9402  1.3147
  394MOL0     C53088   4.983   0.079   1.693 -0.0163  0.8534  0.1197
  394MOL0     C53089   4.861   0.030   1.730 -0.1283  0.7101 -0.8820
  394MOL0     C53090   4.747   0.026   1.654 -0.7694 -0.0024 -0.1753
  394MOL0     O53091   4.629  -0.027   1.702 -0.3986  0.0287 -0.6102
  394MOL0     C53092   4.511   0.057   1.698 -0.0790 -0.8386 -0.4618
  394MOL0     C53093   4.400  -0.006   1.793 -0.0059 -0.3017 -0.0587
  394MOL0     C53094   4.325   0.091   1.870  1.0005 -0.5392  0.3190
  394MOL0     C53095   4.242   0.169   1.756  0.2454  0.0454 -0.7410
  394MOL0     C53096   4.109   0.215   1.814 -0.2002  0.3055 -0.3650
  394MOL0     C53097   4.140   0.317   1.928  0.0453 -0.8347 -0.3893
  394MOL0     C53098   4.019   0.374   1.989  0.2266  0.1167  0.1935
  394MOL0     C53099   4.060   0.469   2.100  0.7414  0.2224  0.1105
  394MOL0    Cl53100   3.909   0.564   2.118 -0.1070  0.7014  0.6746
  394MOL0     C53101   4.761   0.059   1.522 -0.3006  0.4764  0.8599
  394MOL0     C53102   4.883   0.103   1.473 -0.3965 -0.0776 -1.1625
  394MOL0     O53103   5.100   0.189   1.285  0.4058 -1.0488 -0.3404
  394MOL0     C53104   5.397   0.177   1.471  0.4840  0.7763 -0.2310
  394MOL0     C53105   5.535   0.217   1.477 -0.5622 -0.7668  0.2086
  394MOL0     N53106   6.271   0.270   1.704 -0.5305  0.7517  0.0673
  394MOL0     N53107   6.382   0.264   1.760  0.7625 -0.6204  0.5478
  394MOL0     C53108   7.640   0.185   1.871 -0.8954 -0.0034  0.5298
  394MOL0     C53109   7.780   0.177   1.891 -0.4312  0.6969  0.4469
  394MOL0     C53110   8.208   0.268   2.058 -0.4996 -0.5421  0.1875
  394MOL0     C53111   8.243   0.143   2.001 -0.1660 -0.3259  0.3697
  394MOL0     C53112   8.370   0.096   2.005  0.0351  0.2687 -0.2388
  394MOL0     C53113   8.468   0.174   2.060 -0.1016 -0.0026 -0.1812
  394MOL0     O53114   8.601   0.124   2.039 -0.4906 -0.9793  0.8847
  394MOL0     C53115   8.704   0.217   2.067  0.2417 -0.3187  0.1779
  394MOL0     C53116   8.822   0.178   1.981  0.6252 -0.8018  0.1419
  394MOL0     C53117   8.921   0.302   1.972  0.1115  0.5978  0.0678
  394MOL0     C53118   9.064   0.265   1.932  0.3820 -1.0030 -0.0283
  394MOL0     C53119   9.128   0.194   2.041  0.6041 -0.2753  0.3525
  394MOL0     C53120   9.171   0.113   2.120  0.2617 -1.0164 -0.2387
  394MOL0     C53121   8.435   0.291   2.131  0.1775 -0.1329 -0.0945
  394MOL0     C53122   8.305   0.346   2.130  0.3666  0.5101  0.0433
  394MOL0     H53123   7.791   0.409   2.138 -0.6595 -0.4382 -1.0370
  394MOL0     H53124   7.566   0.424   2.099 -1.1713  0.5408 -0.4054
  394MOL0     H53125   7.380   0.136   1.784  0.9799 -2.0201  0.3753
  394MOL0     H53126   7.355   0.094   1.952  0.1934 -0.9374 -2.2599
  394MOL0     H53127   7.149   0.101   1.885  0.9956  0.2215  3.1154
  394MOL0     H53128   7.166   0.241   1.978 -1.8361 -1.0543 -0.2898
  394MOL0     H53129   7.201   0.371   1.769  0.1485  0.1909 -1.3950
  394MOL0     H53130   7.176   0.226   1.675  2.9460 -1.6908  2.0844
  394MOL0     H53131   6.929   0.224   1.819  0.7948 -1.2143  0.2984
  394MOL0     H53132   7.004   0.384   1.856  1.8449 -0.4014 -0.0927
  394MOL0     H53133   7.018   0.429   1.620  0.7039  0.4789  1.2950
  394MOL0     H53134   6.912   0.301   1.574 -2.3874 -0.1029  0.4809
  394MOL0     H53135   6.834   0.505   1.792 -0.4767  0.0037  0.3000
  394MOL0     H53136   6.792   0.520   1.621 -2.2444  0.5226  1.2471
  394MOL0     H53137   6.671   0.298   1.638  4.3027  1.0401 -2.3419
  394MOL0     H53138   6.725   0.273   1.799 -0.6531 -3.9855 -3.0908
  394MOL0     H53139   6.580   0.532   1.767 -4.1062  0.8082 -2.7327
  394MOL0     H53140   6.551   0.396   1.879 -0.9290 -0.6896 -0.8504
  394MOL0     H53141   6.388   0.533   1.567  1.7867 -1.1344 -0.4689
  394MOL0     H53142   6.138   0.525   1.518  1.6322 -0.1007 -0.4224
  394MOL0     H53143   6.114   0.353   1.457  4.1866  1.6550 -1.8868
  394MOL0     H53144   6.011   0.467   1.706  2.0289 -2.3363  2.0524
  394MOL0     H53145   6.011   0.295   1.654  2.2632 -0.3795 -2.8159
  394MOL0     H53146   5.899   0.537   1.491  1.4783  0.0182  0.2128
  394MOL0     H53147   5.806   0.467   1.625 -0.7308 -0.6029 -0.5519
  394MOL0     H53148   5.833   0.237   1.492  3.3212 -0.7403  0.4591
  394MOL0     H53149   5.898   0.338   1.360 -0.9410  2.5420 -0.7917
  394MOL0     H53150   5.546   0.432   1.216 -0.6021  0.9355  1.5215
  394MOL0     H53151   5.341   0.446   1.103 -1.8068 -0.6083 -4.0780
  394MOL0     H53152   5.281   0.288   1.072 -0.7925 -1.6937  1.4956
  394MOL0     H53153   5.196   0.397   1.185 -2.2171 -3.4557 -1.7864
  394MOL0     H53154   5.065   0.093   1.762  2.2622  2.1033 -2.6433
  394MOL0     H53155   4.844  -0.018   1.826 -0.9452 -3.3098 -2.7830
  394MOL0     H53156   4.539   0.159   1.725 -0.4755 -0.0942 -2.6060
  394MOL0     H53157   4.470   0.052   1.596 -0.9519 -1.6234 -0.0796
  394MOL0     H53158   4.333  -0.068   1.732 -1.4096  1.4978 -0.4061
  394MOL0     H53159   4.457  -0.063   1.868  1.8657  1.4254 -0.0946
  394MOL0     H53160   4.380   0.158   1.938 -2.4955  1.2044  1.6959
  394MOL0     H53161   4.256   0.037   1.936  2.0166 -2.1313  0.1186
  394MOL0     H53162   4.304   0.249   1.717 -1.2458  0.9747 -1.2837
  394MOL0     H53163   4.217   0.097   1.677  0.5417  0.6113 -1.3598
  394MOL0     H53164   4.054   0.129   1.854 -0.5171  1.1749  1.1317
  394MOL0     H53165   4.042   0.261   1.740 -1.8053 -1.6594 -0.2306
  394MOL0     H53166   4.203   0.278   2.009  1.4441 -0.1522 -1.1031
  394MOL0     H53167   4.200   0.394   1.879 -0.5705 -1.2069 -1.7715
  394MOL0     H53168   3.955   0.290   2.019 -0.3622  0.7289  0.6746
  394MOL0     H53169   3.974   0.428   1.905 -0.5685 -2.7079 -1.3600
  394MOL0     H53170   4.139   0.538   2.069  1.7736  0.1861  2.4826
  394MOL0     H53171   4.080   0.414   2.192  0.7385  0.7777  0.4502
  394MOL0     H53172   4.694   0.042   1.438  1.7560  0.4235 -0.8368
  394MOL0     H53173   4.878   0.124   1.367 -3.8791 -1.2009 -1.3320
  394MOL0     H53174   5.375   0.104   1.549  2.4710  0.2275 -0.1216
  394MOL0     H53175   5.604   0.189   1.555 -0.7569 -1.1771  0.2331
  394MOL0     H53176   7.601   0.141   1.780  0.2497  1.1408 -0.5517
  394MOL0     H53177   7.852   0.130   1.824 -2.4008 -2.1527  0.1386
  394MOL0     H53178   8.170   0.082   1.950 -3.2708  1.7862  1.9526
  394MOL0     H53179   8.386  -0.002   1.960 -5.5944 -1.2097  0.2809
  394MOL0     H53180   8.673   0.316   2.033 -1.0734 -1.5919 -2.7056
  394MOL0     H53181   8.729   0.209   2.173  0.5759 -0.0456  0.1221
  394MOL0     H53182   8.794   0.153   1.878  0.0978 -0.4686  0.1966
  394MOL0     H53183   8.867   0.089   2.026  2.5384 -0.3021 -0.6861
  394MOL0     H53184   8.922   0.370   2.057  0.0270 -0.3001  0.8083
  394MOL0     H53185   8.877   0.366   1.895 -0.3147  0.1686 -0.0568
  394MOL0     H53186   9.125   0.355   1.917 -0.8609  0.2532  2.0055
  394MOL0     H53187   9.050   0.206   1.841 -2.4122 -0.8447  0.2286
  394MOL0     H53188   9.226   0.056   2.191  0.1490  1.5006  2.0358
  394MOL0     H53189   8.510   0.356   2.174 -0.9247  1.3223 -0.2824
  394MOL0     H53190   8.279   0.437   2.183  1.4040 -0.0750  1.6311
  395MOL0     O53191   1.791  10.517   3.566 -0.2692  0.3871 -0.4745
  395MOL0     C53192   1.802  10.510   3.448  0.8738 -0.1425 -0.2410
  395MOL0     O53193   1.757  10.605   3.363  0.5732  0.1592 -0.1451
  395MOL0     C53194   1.655  10.685   3.410  1.0384  0.5629  0.2578
  395MOL0     C53195   1.547  10.636   3.481 -0.2572  0.1228 -0.6879
  395MOL0     C53196   1.442  10.721   3.518 -0.9903  0.6353 -0.0130
  395MOL0     C53197   1.455  10.859   3.481 -0.4833  0.1730  0.1091
  395MOL0     O53198   1.354  10.948   3.509  0.6072 -0.1469 -0.7880
  395MOL0     C53199   1.222  10.909   3.546  0.1600 -0.1522  0.1999
  395MOL0     C53200   1.132  11.023   3.527 -0.7509 -0.0148  0.4405
  395MOL0     C53201   0.983  10.988   3.531 -0.9071  0.1805 -1.0790
  395MOL0     C53202   0.967  10.928   3.669 -0.0323 -0.5318  0.4244
  395MOL0     C53203   0.820  10.908   3.702  0.4710 -0.7006 -0.5206
  395MOL0     C53204   0.725  11.027   3.676  0.8384  0.5684  0.8121
  395MOL0     C53205   0.586  10.987   3.742 -0.3963 -0.1885  0.7469
  395MOL0     C53206   0.486  11.093   3.707  0.1615  0.8012 -0.7054
  395MOL0     N53207   0.409  11.086   3.578 -0.5804  0.9040 -0.2742
  395MOL0     C53208   0.296  11.022   3.550  1.2201 -0.0734  0.2180
  395MOL0     C53209   0.271  11.044   3.420 -0.1432  0.9395  0.5514
  395MOL0     C53210   0.152  10.993   3.344  0.4278 -0.3862  0.1208
  395MOL0     C53211   0.107  11.123   3.259  0.4482 -0.1673 -0.8619
  395MOL0     C53212   0.043  11.240   3.343  0.2171 -0.3524  0.4726
  395MOL0     C53213  -0.101  11.207   3.404  0.3330  0.8342 -0.0539
  395MOL0     O53214  -0.140  11.278   3.522  0.5801 -0.2329 -0.0303
  395MOL0     C53215  -0.270  11.285   3.560  0.0028 -0.1430 -0.8146
  395MOL0     C53216  -0.297  11.372   3.663  0.4006 -1.2671  0.2971
  395MOL0     C53217  -0.425  11.391   3.707 -0.2890 -0.6620  0.1214
  395MOL0     C53218  -0.449  11.506   3.800 -0.8079 -1.3044 -0.1551
  395MOL0     C53219  -0.530  11.320   3.649  0.2602  0.4128 -0.5428
  395MOL0     C53220  -0.675  11.334   3.687  0.7614  0.2681  0.5496
  395MOL0     O53221  -0.718  11.352   3.812  0.6876  0.3732  0.0091
  395MOL0     C53222  -0.849  11.384   3.830 -0.4186 -0.3110 -0.0125
  395MOL0     C53223  -0.942  11.284   3.839 -0.1983  0.5492  0.0301
  395MOL0     C53224  -1.078  11.312   3.871 -0.5975  0.5724 -0.6102
  395MOL0     C53225  -1.124  11.445   3.896 -0.1080  0.3488 -0.3422
  395MOL0     O53226  -1.253  11.475   3.934 -0.4140 -1.0626  0.2464
  395MOL0     C53227  -1.339  11.373   3.977  0.8478  0.1951  0.6983
  395MOL0     C53228  -1.473  11.445   4.019  0.2299 -0.0744  0.2027
  395MOL0     C53229  -1.589  11.350   4.006  0.3866  0.1927  0.3368
  395MOL0     C53230  -1.720  11.413   4.050  0.6365 -0.1991  0.2898
  395MOL0     C53231  -1.841  11.313   4.042  0.1151 -0.5825  0.3113
  395MOL0     C53232  -1.959  11.370   4.123  0.4079 -0.4380 -0.3672
  395MOL0     C53233  -2.079  11.275   4.138 -0.2276  0.5424  0.1063
  395MOL0     C53234  -2.206  11.341   4.196  0.9349 -0.1405 -0.3243
  395MOL0    Cl53235  -2.170  11.430   4.351 -0.0423 -0.1295  0.2635
  395MOL0     C53236  -1.029  11.547   3.879  0.2767  0.1709 -0.5317
  395MOL0     C53237  -0.891  11.517   3.848  0.1315  0.2480 -0.9566
  395MOL0     O53238  -0.744  11.330   3.587  0.5188 -0.0577  0.3432
  395MOL0     C53239  -0.500  11.225   3.545  0.0261  0.5842 -0.2344
  395MOL0     C53240  -0.365  11.196   3.508 -0.5981 -0.1335 -0.0322
  395MOL0     N53241   0.373  11.121   3.367  0.3179  0.2961 -0.0558
  395MOL0     N53242   0.460  11.137   3.463 -0.4300 -0.6460  0.1826
  395MOL0     C53243   1.566  10.906   3.402  0.6488 -0.4370  0.9723
  395MOL0     C53244   1.662  10.816   3.370 -0.5286  0.2473 -0.1281
  395MOL0     C53245   1.860  10.386   3.397 -1.3230 -0.0369 -0.1580
  395MOL0     C53246   1.919  10.286   3.479  0.0439  0.6179  0.0045
  395MOL0     C53247   1.974  10.169   3.423 -0.2348  0.4224  0.4136
  395MOL0     C53248   1.995  10.151   3.289 -0.4517  0.0755 -0.9157
  395MOL0     O53249   2.061  10.039   3.248 -0.4469 -0.2561 -0.0896
  395MOL0     C53250   2.166  10.056   3.146  0.1370 -0.2188 -0.1521
  395MOL0     C53251   2.309  10.078   3.221  0.3498  0.0680 -0.2708
  395MOL0     C53252   2.414  10.109   3.110  0.0731  0.6193 -0.6554
  395MOL0     C53253   2.444   9.993   3.019 -0.4468 -0.5810 -0.7545
  395MOL0     C53254   2.478   9.872   3.089 -0.8117  0.5406  0.0429
  395MOL0     C53255   2.511   9.765   3.136  0.7047 -0.5180 -0.2032
  395MOL0     C53256   1.931  10.247   3.203  0.0385 -1.0731  0.2021
  395MOL0     C53257   1.869  10.362   3.252 -0.1568  0.3963  0.1718
  395MOL0     H53258   1.544  10.530   3.503  0.4765  0.8575  3.7551
  395MOL0     H53259   1.363  10.685   3.582 -1.6909 -0.1833 -1.3037
  395MOL0     H53260   1.200  10.820   3.487  1.5700  0.1406 -0.8278
  395MOL0     H53261   1.234  10.881   3.651 -0.1164  0.1636  0.3177
  395MOL0     H53262   1.155  11.100   3.602  0.2830 -1.2744  1.4755
  395MOL0     H53263   1.163  11.066   3.432  0.6161 -1.2298  0.3012
  395MOL0     H53264   0.910  11.065   3.506 -0.4053  0.7795 -0.7207
  395MOL0     H53265   0.960  10.916   3.452 -0.3279  0.2406 -1.3080
  395MOL0     H53266   1.019  10.832   3.677  2.7024  0.8385  0.1793
  395MOL0     H53267   1.014  10.994   3.742  0.4856 -1.0127  0.5377
  395MOL0     H53268   0.795  10.815   3.650  2.3855 -1.8983  0.5679
  395MOL0     H53269   0.814  10.894   3.810  0.8234  0.0461 -0.4011
  395MOL0     H53270   0.774  11.113   3.723  2.2272  1.5781 -2.1829
  395MOL0     H53271   0.711  11.054   3.571 -4.1214  1.3660  1.4091
  395MOL0     H53272   0.543  10.889   3.720  3.5022 -1.6222 -1.6051
  395MOL0     H53273   0.603  10.979   3.850  2.6286 -2.5096  0.2470
  395MOL0     H53274   0.530  11.193   3.712  3.0809 -0.4520  2.8441
  395MOL0     H53275   0.416  11.093   3.791 -0.1034  1.2974 -0.9223
  395MOL0     H53276   0.220  10.984   3.617 -0.0281  2.4224  0.3123
  395MOL0     H53277   0.179  10.915   3.272  2.2618  0.6863 -0.4008
  395MOL0     H53278   0.080  10.948   3.414  0.7349 -0.4238  0.4128
  395MOL0     H53279   0.031  11.100   3.184  0.6491  2.2056 -1.8810
  395MOL0     H53280   0.190  11.167   3.203  0.4218  0.6833 -0.2588
  395MOL0     H53281   0.020  11.317   3.269 -0.6945 -0.1327  0.9666
  395MOL0     H53282   0.096  11.288   3.425 -1.6520 -2.8511  3.3771
  395MOL0     H53283  -0.091  11.101   3.431 -0.9589  0.2993 -1.4881
  395MOL0     H53284  -0.170  11.213   3.319  1.1171 -2.5999 -1.1143
  395MOL0     H53285  -0.222  11.432   3.713  1.0369 -1.0238 -0.9158
  395MOL0     H53286  -0.369  11.581   3.797 -2.4725  0.5113 -1.8741
  395MOL0     H53287  -0.539  11.565   3.780  0.4089  0.7048  0.0473
  395MOL0     H53288  -0.449  11.460   3.899  1.8151  0.1450  0.6187
  395MOL0     H53289  -0.900  11.184   3.827  0.8962  1.0821 -0.6961
  395MOL0     H53290  -1.153  11.235   3.884  0.3475 -0.3133 -0.2643
  395MOL0     H53291  -1.348  11.295   3.901 -2.0985  2.8299 -1.9483
  395MOL0     H53292  -1.302  11.320   4.065 -0.7644 -0.9877  0.7185
  395MOL0     H53293  -1.461  11.467   4.126 -0.9308  2.0250 -0.0587
  395MOL0     H53294  -1.489  11.543   3.974 -1.4273 -1.4513 -2.4028
  395MOL0     H53295  -1.572  11.271   4.079  2.8867  2.3694  2.3006
  395MOL0     H53296  -1.600  11.322   3.901  2.5916 -1.8635  0.5797
  395MOL0     H53297  -1.710  11.444   4.154 -1.8319 -0.4959  0.6936
  395MOL0     H53298  -1.746  11.502   3.992 -1.7467  0.1514  1.7529
  395MOL0     H53299  -1.809  11.220   4.090  0.7651 -0.4737  0.1006
  395MOL0     H53300  -1.874  11.295   3.939  0.0992 -0.8297  0.3596
  395MOL0     H53301  -1.906  11.385   4.217  2.2287 -0.2157 -1.3792
  395MOL0     H53302  -1.995  11.466   4.087 -1.2702  0.2285  2.7434
  395MOL0     H53303  -2.046  11.191   4.201 -0.0724  0.2021 -0.4272
  395MOL0     H53304  -2.101  11.243   4.036 -0.1661  0.3859  0.1409
  395MOL0     H53305  -2.286  11.270   4.217 -0.1269  1.4126  1.2079
  395MOL0     H53306  -2.244  11.420   4.130 -0.3884  0.8424  1.5139
  395MOL0     H53307  -1.053  11.652   3.889  0.6505  0.1646  0.5563
  395MOL0     H53308  -0.808  11.588   3.844 -0.1311  0.5869 -0.5308
  395MOL0     H53309  -0.579  11.163   3.504  1.4454 -1.4867 -0.0225
  395MOL0     H53310  -0.351  11.110   3.442 -4.6774 -0.2892 -0.9451
  395MOL0     H53311   1.556  11.006   3.359 -1.9889 -0.1626  2.0771
  395MOL0     H53312   1.748  10.842   3.308 -0.0833  0.2224  0.4772
  395MOL0     H53313   1.907  10.302   3.585 -0.9230  0.6499 -0.0998
  395MOL0     H53314   2.013  10.086   3.482  0.1123 -1.0505 -1.7970
  395MOL0     H53315   2.170   9.964   3.087 -1.5714 -1.5457  1.6757
  395MOL0     H53316   2.142  10.141   3.081 -1.3920 -1.6272 -1.5166
  395MOL0     H53317   2.332   9.986   3.276  0.6275  0.1104 -0.3143
  395MOL0     H53318   2.304  10.151   3.302 -1.6714 -2.4336  2.0297
  395MOL0     H53319   2.510  10.134   3.155  2.2937 -2.7007 -3.0121
  395MOL0     H53320   2.388  10.203   3.060 -1.1331  0.4876 -0.3008
  395MOL0     H53321   2.531  10.031   2.964 -0.5728  1.7059  0.5313
  395MOL0     H53322   2.361   9.977   2.949  1.2050 -0.3053 -2.8707
  395MOL0     H53323   2.544   9.671   3.176  0.7908 -0.9601 -1.2763
  395MOL0     H53324   1.946  10.235   3.096 -3.4747 -0.4209 -0.4812
  395MOL0     H53325   1.826  10.433   3.182 -0.5923 -0.2099 -0.1824
  396MOL0     O53326  10.468   0.194   0.641 -0.0763  0.0448  0.3172
  396MOL0     C53327  10.524   0.288   0.582  0.2321  0.2207  0.0424
  396MOL0     O53328  10.454   0.390   0.516  0.3248 -0.7430  0.4488
  396MOL0     C53329  10.321   0.404   0.545  0.1692  0.1746 -0.4380
  396MOL0     C53330  10.271   0.440   0.672  0.7482 -0.1253 -0.3891
  396MOL0     C53331  10.139   0.486   0.687  0.5460 -0.2865 -0.4556
  396MOL0     C53332  10.055   0.495   0.577 -0.9198 -0.6034  0.1362
  396MOL0     O53333   9.932   0.537   0.602  0.3119  0.1163 -0.5931
  396MOL0     C53334   9.828   0.472   0.533 -0.5959  0.3703 -0.7995
  396MOL0     C53335   9.699   0.492   0.616 -0.2039 -1.1538 -0.4631
  396MOL0     C53336   9.696   0.431   0.760  0.0676 -0.6323 -0.3481
  396MOL0     C53337   9.559   0.450   0.835  0.0138  0.0642 -0.2847
  396MOL0     C53338   9.594   0.472   0.984 -0.0384  0.7255 -0.0607
  396MOL0     C53339   9.468   0.451   1.071 -0.4918 -0.0371  0.4810
  396MOL0     C53340   9.354   0.539   1.036 -0.0394  1.1066  0.4743
  396MOL0     C53341   9.372   0.685   1.059 -0.5325  0.6122  0.6870
  396MOL0     N53342   9.431   0.726   1.185  0.5006  0.4102 -0.6123
  396MOL0     C53343   9.359   0.717   1.313 -0.8890  0.4473  0.9186
  396MOL0     C53344   9.449   0.767   1.403 -0.0418 -0.1025 -0.1586
  396MOL0     C53345   9.428   0.794   1.549  0.0216  0.3892  0.0575
  396MOL0     C53346   9.304   0.880   1.562  0.3721  0.3443  0.2160
  396MOL0     C53347   9.178   0.806   1.580  0.6745  0.1886 -0.4539
  396MOL0     C53348   9.057   0.901   1.552  0.6362 -0.2898 -0.5504
  396MOL0     O53349   8.932   0.834   1.586 -0.4975 -0.3692  0.1274
  396MOL0     C53350   8.829   0.903   1.622  0.6474 -1.5463 -1.0479
  396MOL0     C53351   8.726   0.837   1.680  0.0439 -0.0614  0.3230
  396MOL0     C53352   8.607   0.906   1.719  0.6561  0.1328 -0.0705
  396MOL0     C53353   8.489   0.819   1.760 -0.1613  0.3136 -0.1449
  396MOL0     C53354   8.591   1.045   1.697 -0.1426  0.9488 -0.3581
  396MOL0     C53355   8.460   1.122   1.727 -0.0812 -0.2415  0.2605
  396MOL0     O53356   8.369   1.066   1.812 -0.0930  0.5291  0.7971
  396MOL0     C53357   8.254   1.123   1.856 -0.5460 -0.4730  0.4738
  396MOL0     C53358   8.246   1.266   1.872 -0.2654 -0.2217 -1.1911
  396MOL0     C53359   8.129   1.326   1.926 -0.6813  0.2296  0.2827
  396MOL0     C53360   8.019   1.246   1.965 -0.5165  0.9849 -0.2426
  396MOL0     O53361   7.895   1.290   1.994  0.1133 -0.7144 -0.1365
  396MOL0     C53362   7.884   1.403   2.085 -0.6537 -0.6480  0.3899
  396MOL0     C53363   7.781   1.373   2.193 -0.7061  0.2084 -0.1332
  396MOL0     C53364   7.642   1.336   2.144 -0.5487 -0.1164  0.2852
  396MOL0     C53365   7.548   1.298   2.260  0.3358 -0.9406 -0.4708
  396MOL0     C53366   7.417   1.237   2.209  0.8460 -0.5890 -0.4624
  396MOL0     C53367   7.311   1.203   2.317 -1.1452 -0.2952  0.3322
  396MOL0     C53368   7.189   1.132   2.256  0.3845  0.1184  0.5153
  396MOL0     C53369   7.083   1.099   2.359 -0.2822  0.2432 -0.3003
  396MOL0    Cl53370   7.115   0.946   2.457 -0.0870  0.1058  0.1852
  396MOL0     C53371   8.024   1.111   1.942  0.7498  0.0256  0.4178
  396MOL0     C53372   8.137   1.049   1.886  0.0111 -0.9200 -0.6179
  396MOL0     O53373   8.452   1.235   1.685 -0.6199  0.7656  0.8919
  396MOL0     C53374   8.691   1.108   1.637  0.2531 -0.3285 -0.3125
  396MOL0     C53375   8.811   1.041   1.589 -0.3337  0.7862 -0.6734
  396MOL0     N53376   9.565   0.792   1.336  0.0711 -0.1710 -0.1624
  396MOL0     N53377   9.555   0.768   1.210  0.3809 -0.1783 -0.8558
  396MOL0     C53378  10.099   0.459   0.451  0.3136 -0.2814 -0.0879
  396MOL0     C53379  10.226   0.397   0.442 -0.5660  0.7545  0.2100
  396MOL0     C53380  10.673   0.286   0.571  0.4043  0.1457 -0.4333
  396MOL0     C53381  10.744   0.358   0.471 -0.5253 -0.1772 -0.1129
  396MOL0     C53382  10.883   0.350   0.472 -0.2844 -0.0713 -0.5634
  396MOL0     C53383  10.961   0.262   0.553  0.9474  0.4439  0.4786
  396MOL0     O53384  11.096   0.221   0.535 -0.0018  1.0063 -0.2998
  396MOL0     C53385  11.172   0.294   0.434 -0.1034  0.4032 -0.0072
  396MOL0     C53386  11.317   0.303   0.485  0.3196 -0.2282 -0.4340
  396MOL0     C53387  11.426   0.354   0.392 -0.5506 -0.2685  0.4218
  396MOL0     C53388  11.405   0.495   0.341  0.7014  1.1731  0.1079
  396MOL0     C53389  11.313   0.502   0.225 -0.2104  0.8021 -0.0495
  396MOL0     C53390  11.230   0.512   0.131  0.1909  0.8680  0.5228
  396MOL0     C53391  10.885   0.192   0.648  0.4563 -0.7454 -0.6129
  396MOL0     C53392  10.747   0.206   0.656  0.9620  0.2306  0.3200
  396MOL0     H53393  10.343   0.424   0.752 -3.0309 -2.4402  2.9249
  396MOL0     H53394  10.105   0.519   0.785  2.0332 -2.4178  0.8775
  396MOL0     H53395   9.824   0.524   0.437 -0.0701  0.3597 -0.8287
  396MOL0     H53396   9.853   0.366   0.523 -0.3530  0.3432  0.0534
  396MOL0     H53397   9.673   0.598   0.628 -0.6499 -1.2699 -0.3775
  396MOL0     H53398   9.615   0.449   0.560  0.3333 -1.8595 -0.7391
  396MOL0     H53399   9.738   0.330   0.755  3.3645  0.6609 -3.4799
  396MOL0     H53400   9.778   0.479   0.814 -0.3070 -1.1171  0.6844
  396MOL0     H53401   9.512   0.539   0.793  0.2516 -0.5561 -1.9494
  396MOL0     H53402   9.493   0.367   0.808  1.4318 -2.1787  2.6297
  396MOL0     H53403   9.670   0.402   1.020 -0.3017  1.0093  1.0936
  396MOL0     H53404   9.639   0.571   0.995  0.1717  0.5251  1.0793
  396MOL0     H53405   9.435   0.348   1.056 -2.1775  0.7621 -1.6915
  396MOL0     H53406   9.493   0.454   1.178 -2.6906 -2.8008  1.1934
  396MOL0     H53407   9.326   0.519   0.932 -1.7626  0.4407  1.0426
  396MOL0     H53408   9.270   0.507   1.098 -1.7046  0.9924 -1.7212
  396MOL0     H53409   9.276   0.737   1.061  0.6429  2.9214  2.1158
  396MOL0     H53410   9.433   0.724   0.977 -1.4251 -2.0105 -1.3632
  396MOL0     H53411   9.267   0.664   1.335  0.9577 -2.8206  1.4191
  396MOL0     H53412   9.421   0.696   1.597  1.1388 -1.3999 -3.1604
  396MOL0     H53413   9.516   0.851   1.581  0.3180  0.0751 -0.1851
  396MOL0     H53414   9.297   0.945   1.473  0.0253  0.2142  0.1447
  396MOL0     H53415   9.328   0.949   1.643 -0.7313  1.3117 -0.2403
  396MOL0     H53416   9.169   0.770   1.683 -1.8956 -2.4484 -1.4788
  396MOL0     H53417   9.179   0.715   1.519  1.3115  0.2422 -0.5354
  396MOL0     H53418   9.059   0.941   1.450  0.5421  2.0666  0.3209
  396MOL0     H53419   9.069   0.989   1.616  2.3260  1.2612 -2.8273
  396MOL0     H53420   8.741   0.730   1.686  2.5122  0.0754 -1.5858
  396MOL0     H53421   8.518   0.715   1.776 -0.4035  0.4105  0.9879
  396MOL0     H53422   8.460   0.852   1.860  0.0047 -0.3625  0.1308
  396MOL0     H53423   8.400   0.824   1.696  0.9277 -0.8778 -1.8377
  396MOL0     H53424   8.323   1.338   1.846  0.8403 -0.3646  1.4246
  396MOL0     H53425   8.126   1.434   1.936 -0.0569  0.7432 -3.4901
  396MOL0     H53426   7.981   1.433   2.125 -0.0886 -0.5289 -0.9931
  396MOL0     H53427   7.857   1.490   2.023  1.6275 -0.7129 -0.8064
  396MOL0     H53428   7.827   1.294   2.254  1.4099  0.8125 -0.8424
  396MOL0     H53429   7.772   1.462   2.255 -3.2064 -1.1066  1.5429
  396MOL0     H53430   7.640   1.248   2.080  0.8320 -0.0272  0.0731
  396MOL0     H53431   7.605   1.420   2.084  1.8553 -1.4904 -3.4034
  396MOL0     H53432   7.609   1.231   2.321 -0.4327 -0.5218  0.8105
  396MOL0     H53433   7.533   1.389   2.320  3.3175  0.4921 -1.6982
  396MOL0     H53434   7.453   1.144   2.165  1.6575 -0.4891 -0.0444
  396MOL0     H53435   7.375   1.304   2.133 -0.0413  0.9014  1.2666
  396MOL0     H53436   7.351   1.142   2.399 -2.0142  0.6920  1.5357
  396MOL0     H53437   7.279   1.295   2.367 -1.6876 -0.6392  0.6319
  396MOL0     H53438   7.223   1.036   2.217  1.2085  0.2695  0.8264
  396MOL0     H53439   7.154   1.197   2.176  2.3565  1.0679  0.3603
  396MOL0     H53440   6.987   1.102   2.306  0.1092  3.7706 -1.0201
  396MOL0     H53441   7.076   1.179   2.432 -1.9340 -0.3886  0.2907
  396MOL0     H53442   7.940   1.047   1.966 -0.6433  0.9918 -1.5783
  396MOL0     H53443   8.143   0.942   1.866  0.3861 -0.4877 -3.1759
  396MOL0     H53444   8.678   1.215   1.620  0.8709  0.2925  2.6031
  396MOL0     H53445   8.887   1.094   1.532 -0.9365  3.3285  0.7384
  396MOL0     H53446  10.031   0.451   0.367  0.7774 -0.5594 -0.4379
  396MOL0     H53447  10.258   0.372   0.342 -1.9641  1.3868 -0.4319
  396MOL0     H53448  10.688   0.421   0.403 -2.4291 -1.8572 -0.1994
  396MOL0     H53449  10.922   0.412   0.391  0.3880 -1.4936 -1.3705
  396MOL0     H53450  11.167   0.235   0.342  1.7502 -1.7473  1.1758
  396MOL0     H53451  11.129   0.394   0.419  0.9005  0.5761 -2.1142
  396MOL0     H53452  11.348   0.201   0.511 -0.9236 -0.1648  1.4822
  396MOL0     H53453  11.318   0.364   0.575 -0.2890 -2.1129  0.9245
  396MOL0     H53454  11.437   0.279   0.312 -2.7187 -0.2831  0.0638
  396MOL0     H53455  11.520   0.351   0.447 -0.8882  0.9894  1.0935
  396MOL0     H53456  11.506   0.532   0.319  0.7275  0.4399 -1.0577
  396MOL0     H53457  11.367   0.551   0.428 -1.3933 -2.5867  1.8409
  396MOL0     H53458  11.158   0.533   0.054  0.2916 -1.5971 -0.3141
  396MOL0     H53459  10.951   0.130   0.708  1.2179 -1.7562 -2.4316
  396MOL0     H53460  10.700   0.152   0.737 -2.5331  2.3127 -0.1144
  397MOL0     O53461   2.850   6.978   9.095 -0.2281  0.6371 -0.0213
  397MOL0     C53462   2.886   7.021   8.990 -0.3186 -0.0911  0.5065
  397MOL0     O53463   2.801   7.085   8.891 -0.7901 -0.0671  1.2168
  397MOL0     C53464   2.668   7.104   8.913  0.1060 -0.0858 -0.0543
  397MOL0     C53465   2.601   7.170   8.816 -0.0235 -0.0681 -0.4514
  397MOL0     C53466   2.459   7.190   8.828  0.9694  0.0482  0.4957
  397MOL0     C53467   2.380   7.131   8.925  0.4601 -0.0082  0.0474
  397MOL0     O53468   2.245   7.158   8.930 -0.9772 -0.8665  0.1730
  397MOL0     C53469   2.184   7.179   9.054 -0.5172 -0.3374  0.3830
  397MOL0     C53470   2.034   7.220   9.031  0.5839  0.8782 -0.0880
  397MOL0     C53471   1.957   7.254   9.159  0.5158  0.8027  0.1144
  397MOL0     C53472   1.827   7.311   9.111 -0.0697  0.1888  0.4035
  397MOL0     C53473   1.725   7.332   9.221  1.0554 -0.3891 -0.9221
  397MOL0     C53474   1.679   7.197   9.288  0.0413 -0.1371 -0.1579
  397MOL0     C53475   1.554   7.235   9.356  0.1797 -1.0979 -0.9014
  397MOL0     C53476   1.494   7.111   9.403 -0.6379  0.0999  0.3374
  397MOL0     N53477   1.360   7.128   9.457  0.1780 -0.3596  0.3991
  397MOL0     C53478   1.337   7.189   9.576 -0.2713 -0.5075 -0.6744
  397MOL0     C53479   1.204   7.200   9.591 -0.7927  0.1045  0.0240
  397MOL0     C53480   1.136   7.261   9.700  0.6154 -0.0031  0.0435
  397MOL0     C53481   1.212   7.378   9.771 -0.5701  0.3734  0.4715
  397MOL0     C53482   1.149   7.424   9.906  0.4162  0.4772  0.0418
  397MOL0     C53483   1.014   7.484   9.873 -0.5880 -0.4535  0.4050
  397MOL0     O53484   1.020   7.596   9.788  0.0330 -0.4444  0.5183
  397MOL0     C53485   0.900   7.661   9.761  0.3941 -1.1471  0.1561
  397MOL0     C53486   0.911   7.794   9.722  0.0822 -0.4191 -0.8683
  397MOL0     C53487   0.800   7.873   9.687 -0.6831 -0.4758 -0.5435
  397MOL0     C53488   0.833   8.026   9.678  0.3312 -0.5728 -0.6122
  397MOL0     C53489   0.671   7.806   9.687  0.1772 -0.8068  0.0360
  397MOL0     C53490   0.548   7.874   9.648 -0.0966 -0.3365  0.1217
  397MOL0     O53491   0.432   7.828   9.710  0.4821 -0.4540 -0.1153
  397MOL0     C53492   0.313   7.871   9.667  0.6553  0.6595  0.2154
  397MOL0     C53493   0.212   7.913   9.760  0.0458  0.1450  0.2582
  397MOL0     C53494   0.085   7.947   9.730  0.3177 -0.3509  0.1498
  397MOL0     C53495   0.039   7.919   9.593  0.1339 -0.4780 -0.3125
  397MOL0     O53496  -0.094   7.936   9.552 -0.1415  0.4561  0.0178
  397MOL0     C53497  -0.146   7.897   9.421  0.6755  0.3635 -0.1324
  397MOL0     C53498  -0.282   7.964   9.413 -0.2635  0.6584  0.1388
  397MOL0     C53499  -0.364   7.889   9.300  0.0104  0.0495 -0.0875
  397MOL0     C53500  -0.509   7.934   9.283 -0.0264 -0.6475  0.6022
  397MOL0     C53501  -0.567   7.878   9.156 -0.9523 -0.1358  0.1506
  397MOL0     C53502  -0.718   7.883   9.137 -0.9077  0.6959  0.5763
  397MOL0     C53503  -0.760   7.823   9.003  0.1866 -0.5792  0.9498
  397MOL0     C53504  -0.904   7.864   8.965 -0.9539  0.0209 -0.3964
  397MOL0    Cl53505  -0.974   7.753   8.847  0.0403 -0.1866  0.0113
  397MOL0     C53506   0.133   7.872   9.502  0.9273 -0.0953 -0.1054
  397MOL0     C53507   0.263   7.843   9.540 -0.4129 -0.1908 -0.1766
  397MOL0     O53508   0.557   7.966   9.564  0.2830  0.3110  0.2587
  397MOL0     C53509   0.663   7.668   9.721  0.2116 -0.0288 -0.4152
  397MOL0     C53510   0.777   7.598   9.756  0.7202 -0.2576 -1.2520
  397MOL0     N53511   1.150   7.159   9.463 -0.3342  0.2228  0.5413
  397MOL0     N53512   1.247   7.122   9.384 -0.1584 -1.1649 -0.4474
  397MOL0     C53513   2.448   7.047   9.006  0.3656  0.2649  0.1189
  397MOL0     C53514   2.585   7.028   9.003 -0.9182  0.5628 -0.0240
  397MOL0     C53515   3.027   6.996   8.959  1.0923  0.5283  0.0589
  397MOL0     C53516   3.100   6.895   9.016  0.5042  0.1090  0.5684
  397MOL0     C53517   3.235   6.870   8.987 -0.6453 -0.2974  0.1254
  397MOL0     C53518   3.298   6.943   8.882 -0.1297  1.1045 -0.1661
  397MOL0     O53519   3.420   6.911   8.835 -0.2718 -1.4005 -0.0932
  397MOL0     C53520   3.524   6.866   8.921  0.0691 -0.1263  0.4646
  397MOL0     C53521   3.542   6.714   8.901  0.0590  0.1065 -0.2236
  397MOL0     C53522   3.522   6.675   8.754 -0.1114 -0.9410  0.1345
  397MOL0     C53523   3.377   6.611   8.733 -0.3764 -0.0590  0.4272
  397MOL0     C53524   3.375   6.471   8.789 -0.4562 -0.3242 -0.3265
  397MOL0     C53525   3.381   6.358   8.825  0.5692  0.3126 -0.8963
  397MOL0     C53526   3.220   7.044   8.818  0.5639  0.8688  0.0251
  397MOL0     C53527   3.082   7.071   8.857 -0.8719  0.5133 -0.8350
  397MOL0     H53528   2.657   7.207   8.731 -1.2064  0.7115 -0.9143
  397MOL0     H53529   2.414   7.256   8.754  2.1872 -2.3643 -2.6005
  397MOL0     H53530   2.194   7.090   9.117 -2.3371 -1.5806 -0.9763
  397MOL0     H53531   2.242   7.256   9.105 -1.8602  1.1026 -0.1881
  397MOL0     H53532   2.050   7.307   8.968  0.1457  1.5282  0.6900
  397MOL0     H53533   1.986   7.136   8.979 -1.9490 -1.2886  5.0682
  397MOL0     H53534   1.945   7.160   9.214  3.7310 -0.9235 -1.8922
  397MOL0     H53535   2.022   7.302   9.233  1.5987 -1.0339  0.4129
  397MOL0     H53536   1.839   7.403   9.053 -3.7639 -0.1433 -1.2153
  397MOL0     H53537   1.784   7.242   9.037 -0.0892  1.9887 -1.3632
  397MOL0     H53538   1.769   7.402   9.293 -0.3589 -0.6457  0.2531
  397MOL0     H53539   1.646   7.380   9.162  1.2401  1.6021  0.3500
  397MOL0     H53540   1.669   7.123   9.209  1.8433 -2.5110  1.6960
  397MOL0     H53541   1.754   7.162   9.359  2.4098  0.9620 -2.0023
  397MOL0     H53542   1.575   7.305   9.438 -1.7763 -0.2925 -1.0338
  397MOL0     H53543   1.496   7.298   9.288  0.4198  0.2217  0.0770
  397MOL0     H53544   1.563   7.078   9.481  0.3684  0.9122 -0.1878
  397MOL0     H53545   1.494   7.033   9.326  2.4058  0.5431 -0.2575
  397MOL0     H53546   1.416   7.222   9.643  0.5491  0.6876 -2.1724
  397MOL0     H53547   1.039   7.291   9.659  0.7571 -1.0502 -1.1320
  397MOL0     H53548   1.126   7.182   9.775  0.9570  0.3924  0.5057
  397MOL0     H53549   1.208   7.459   9.698 -1.5692 -0.5694 -0.5728
  397MOL0     H53550   1.316   7.346   9.784 -0.8170 -0.8367 -0.3096
  397MOL0     H53551   1.209   7.489   9.970 -0.5672  1.0262  0.4086
  397MOL0     H53552   1.135   7.334   9.967 -0.0923  0.9871  0.6794
  397MOL0     H53553   0.964   7.503   9.969 -2.7168  0.5010 -0.8267
  397MOL0     H53554   0.963   7.405   9.818 -1.1057  1.1585 -1.5533
  397MOL0     H53555   1.009   7.838   9.727 -0.3591  0.7553 -2.0822
  397MOL0     H53556   0.895   8.047   9.591  0.4697  2.3100  0.0767
  397MOL0     H53557   0.743   8.086   9.663 -0.1769 -1.2644 -0.3927
  397MOL0     H53558   0.883   8.063   9.769  0.7681 -1.1763 -0.6034
  397MOL0     H53559   0.250   7.935   9.859 -0.1402  1.3809  0.0723
  397MOL0     H53560   0.032   8.006   9.805  2.4963  1.3914  0.4523
  397MOL0     H53561  -0.088   7.938   9.337  0.2214 -0.2957 -0.7759
  397MOL0     H53562  -0.156   7.790   9.406 -3.1381  0.7499 -1.2964
  397MOL0     H53563  -0.324   7.967   9.513 -0.6676 -1.4993  0.0874
  397MOL0     H53564  -0.263   8.069   9.387 -0.2751  0.6931  0.2704
  397MOL0     H53565  -0.353   7.782   9.319 -1.2519  0.1397  1.2461
  397MOL0     H53566  -0.319   7.898   9.200 -2.1792 -2.7741 -1.4546
  397MOL0     H53567  -0.569   7.900   9.368  0.3580  2.3163  2.2267
  397MOL0     H53568  -0.510   8.044   9.279 -0.8155 -0.6616  0.2849
  397MOL0     H53569  -0.536   7.778   9.126  2.5619  2.0508 -4.9928
  397MOL0     H53570  -0.522   7.940   9.078 -2.9169  2.6733  1.1041
  397MOL0     H53571  -0.767   7.829   9.219 -1.4840 -1.1910 -0.9130
  397MOL0     H53572  -0.752   7.987   9.142  1.8707  1.9882 -2.7605
  397MOL0     H53573  -0.754   7.715   9.017  1.5719 -0.4412  1.5559
  397MOL0     H53574  -0.701   7.849   8.915  1.0522 -0.7534  1.4691
  397MOL0     H53575  -0.920   7.969   8.939 -2.8927 -0.1860 -0.2085
  397MOL0     H53576  -0.962   7.847   9.057  0.0455 -2.1503 -0.0921
  397MOL0     H53577   0.101   7.854   9.400  1.8744  0.0179 -0.4254
  397MOL0     H53578   0.324   7.789   9.468 -2.4109 -0.0021 -2.1119
  397MOL0     H53579   0.571   7.612   9.710  0.1539 -0.0186  0.0031
  397MOL0     H53580   0.771   7.490   9.761  0.8043 -0.2149  0.5753
  397MOL0     H53581   2.399   6.980   9.075 -1.4793  0.4465 -0.9213
  397MOL0     H53582   2.634   6.947   9.055  2.4707  0.9584 -2.2766
  397MOL0     H53583   3.052   6.832   9.091  1.5473 -0.1612  1.0348
  397MOL0     H53584   3.280   6.784   9.035 -2.3653 -0.8749  0.7986
  397MOL0     H53585   3.615   6.921   8.899 -0.1961  0.0543 -0.1873
  397MOL0     H53586   3.505   6.890   9.026  5.7297  1.9665  1.3427
  397MOL0     H53587   3.482   6.655   8.971  1.0050  0.3098  0.7896
  397MOL0     H53588   3.642   6.684   8.934  0.0612 -2.6258 -2.3455
  397MOL0     H53589   3.599   6.605   8.719 -0.0007 -1.1197  0.7268
  397MOL0     H53590   3.525   6.761   8.687 -3.9902 -0.9380 -0.2914
  397MOL0     H53591   3.346   6.607   8.628 -1.3868 -1.8465  0.7383
  397MOL0     H53592   3.307   6.681   8.778  0.9917  1.2317  0.6172
  397MOL0     H53593   3.384   6.252   8.836 -2.2498  0.3078  0.6657
  397MOL0     H53594   3.269   7.095   8.736  2.8318 -1.7865 -0.4089
  397MOL0     H53595   3.029   7.149   8.804 -0.6610  0.4616 -1.1283
  398MOL0     O53596   3.902   7.945   4.295  0.2559  0.1930 -0.1868
  398MOL0     C53597   3.957   8.004   4.387 -1.4762  0.4167  0.7288
  398MOL0     O53598   3.908   8.092   4.474 -0.2565  0.2235  0.3150
  398MOL0     C53599   3.778   8.127   4.481 -0.9108  0.1287 -0.3043
  398MOL0     C53600   3.661   8.065   4.421  0.0445 -0.3892 -0.3084
  398MOL0     C53601   3.533   8.124   4.433 -0.9241  0.1632 -0.2728
  398MOL0     C53602   3.518   8.238   4.516  0.2659  0.2706 -0.2783
  398MOL0     O53603   3.385   8.281   4.523 -0.3327  0.4884  0.1121
  398MOL0     C53604   3.358   8.418   4.555  0.6550  0.1288 -0.2979
  398MOL0     C53605   3.212   8.453   4.507  0.0305 -0.0230 -0.5489
  398MOL0     C53606   3.098   8.360   4.555  0.2285 -0.3924  0.1132
  398MOL0     C53607   2.969   8.376   4.467 -0.5495 -0.7480 -0.4032
  398MOL0     C53608   2.863   8.269   4.502 -0.6599  0.1431 -0.4726
  398MOL0     C53609   2.794   8.318   4.622 -0.0540 -0.1311  0.5751
  398MOL0     C53610   2.675   8.221   4.649 -0.7181 -0.4958 -0.2187
  398MOL0     C53611   2.632   8.259   4.793  1.2143 -0.0358  0.2891
  398MOL0     N53612   2.503   8.191   4.830 -0.1479  0.2044  0.4716
  398MOL0     C53613   2.483   8.076   4.902 -0.1964  0.1517  0.0880
  398MOL0     C53614   2.346   8.060   4.896  0.8635  0.5891 -0.4188
  398MOL0     C53615   2.277   7.945   4.975 -0.4848  0.2435 -0.3352
  398MOL0     C53616   2.129   7.970   5.006 -0.3755  0.1906 -1.4005
  398MOL0     C53617   2.104   8.092   5.093  0.1328 -0.5549 -0.3243
  398MOL0     C53618   1.954   8.121   5.106 -0.3736 -1.3895  0.1502
  398MOL0     O53619   1.934   8.249   5.168  0.5503 -0.3113  0.0007
  398MOL0     C53620   1.807   8.288   5.199 -0.2014  1.3418 -0.1228
  398MOL0     C53621   1.694   8.211   5.176 -0.5003  0.1593 -0.1653
  398MOL0     C53622   1.572   8.261   5.213  0.3014 -0.0308  0.1007
  398MOL0     C53623   1.454   8.182   5.171  0.3358 -0.4886  0.2176
  398MOL0     C53624   1.556   8.390   5.258 -0.0916 -0.5227  0.3596
  398MOL0     C53625   1.431   8.462   5.290  0.0846  0.5480  0.4859
  398MOL0     O53626   1.432   8.595   5.264 -0.3873 -0.2959  0.6116
  398MOL0     C53627   1.330   8.668   5.309 -0.6298  0.2424 -0.3253
  398MOL0     C53628   1.230   8.715   5.228  0.3805  0.3342 -0.3349
  398MOL0     C53629   1.117   8.791   5.283  0.2331  0.5378  0.5871
  398MOL0     C53630   1.108   8.810   5.420 -0.2186  0.0185 -0.0830
  398MOL0     O53631   0.995   8.869   5.451  0.1514  0.1946 -0.3912
  398MOL0     C53632   0.982   8.951   5.567  0.3199 -0.5687  0.2016
  398MOL0     C53633   0.848   9.034   5.571 -0.1415 -0.0894 -0.6494
  398MOL0     C53634   0.734   8.940   5.567 -1.0925 -0.0795 -0.7053
  398MOL0     C53635   0.598   9.005   5.609 -0.2836 -0.5612  0.2421
  398MOL0     C53636   0.562   9.137   5.542 -0.3471 -0.3806 -0.1483
  398MOL0     C53637   0.410   9.158   5.560  0.1634 -0.1071 -0.3770
  398MOL0     C53638   0.381   9.293   5.499 -0.2026 -1.3563  0.5148
  398MOL0     C53639   0.232   9.299   5.465  0.2320 -0.3848 -0.5318
  398MOL0    Cl53640   0.197   9.447   5.386 -0.4963 -0.0479 -0.0949
  398MOL0     C53641   1.208   8.759   5.510  0.1491  0.5259  0.5892
  398MOL0     C53642   1.315   8.691   5.443  0.6589  0.1324 -0.1671
  398MOL0     O53643   1.326   8.401   5.319  0.1127  0.3568  0.6139
  398MOL0     C53644   1.672   8.466   5.274  0.3305  0.1996 -0.5818
  398MOL0     C53645   1.795   8.408   5.253  0.6495  0.1592 -1.2336
  398MOL0     N53646   2.291   8.164   4.815 -0.3233  0.5540 -0.4904
  398MOL0     N53647   2.386   8.240   4.787 -0.4102  0.5893 -0.4926
  398MOL0     C53648   3.624   8.288   4.590  0.6242 -0.3482 -0.3484
  398MOL0     C53649   3.751   8.236   4.568 -1.0033 -0.0204  0.1334
  398MOL0     C53650   4.103   7.963   4.406  0.1289  0.6184 -0.2539
  398MOL0     C53651   4.185   8.041   4.492  0.0131 -0.6878 -0.0398
  398MOL0     C53652   4.315   8.001   4.514 -0.0598  0.0007 -0.5451
  398MOL0     C53653   4.374   7.895   4.446 -0.1074 -0.5326 -0.1744
  398MOL0     O53654   4.504   7.852   4.456 -0.0837 -0.1864 -0.4366
  398MOL0     C53655   4.578   7.915   4.560  0.3516  0.2966  0.4263
  398MOL0     C53656   4.717   7.862   4.556 -0.7888  0.4673  0.9331
  398MOL0     C53657   4.730   7.706   4.588  0.6647  0.7623  0.3017
  398MOL0     C53658   4.871   7.667   4.623 -0.3258 -0.8710  0.1112
  398MOL0     C53659   4.886   7.526   4.642  0.1796 -0.6867  0.3108
  398MOL0     C53660   4.914   7.412   4.658  0.3609  0.4303  0.4550
  398MOL0     C53661   4.294   7.826   4.353 -0.4907  0.1005  0.9990
  398MOL0     C53662   4.159   7.856   4.339 -0.4131 -1.2485  0.7824
  398MOL0     H53663   3.654   7.979   4.355  0.3015  1.0452 -2.3333
  398MOL0     H53664   3.448   8.067   4.398  0.7167 -1.5773 -1.6690
  398MOL0     H53665   3.364   8.432   4.664  0.7368 -1.2936 -0.0948
  398MOL0     H53666   3.430   8.485   4.509 -0.2615  0.5514 -1.1467
  398MOL0     H53667   3.195   8.559   4.529 -0.7323  0.0116 -1.2289
  398MOL0     H53668   3.204   8.433   4.400 -0.1077  0.8776 -0.7108
  398MOL0     H53669   3.133   8.258   4.540  0.0272 -0.1928 -2.0376
  398MOL0     H53670   3.072   8.367   4.661 -2.5495  3.6116 -0.5610
  398MOL0     H53671   2.938   8.480   4.475  2.6457  0.2424  0.0958
  398MOL0     H53672   2.996   8.369   4.361 -0.1236 -0.8612 -0.2864
  398MOL0     H53673   2.795   8.262   4.417  0.4748 -2.2529 -1.2752
  398MOL0     H53674   2.917   8.175   4.517 -0.4489  0.3042 -0.2251
  398MOL0     H53675   2.865   8.328   4.705  0.5794  2.9593 -0.2114
  398MOL0     H53676   2.759   8.421   4.610  0.6159 -0.0648 -1.1330
  398MOL0     H53677   2.594   8.241   4.578  0.5591 -1.0331 -1.8967
  398MOL0     H53678   2.717   8.120   4.637  0.3573 -0.2372  1.1448
  398MOL0     H53679   2.607   8.365   4.792  0.2851 -0.2479 -0.5384
  398MOL0     H53680   2.713   8.240   4.865 -0.3851  3.5655  3.3608
  398MOL0     H53681   2.544   7.997   4.943 -1.3187 -0.2660  1.0390
  398MOL0     H53682   2.286   7.850   4.922  2.4533  1.8730 -3.0879
  398MOL0     H53683   2.333   7.931   5.068 -1.2938 -1.4029 -0.0563
  398MOL0     H53684   2.092   7.882   5.060 -0.5575  0.8011 -0.5061
  398MOL0     H53685   2.077   7.979   4.910  1.3473  3.3683 -2.1660
  398MOL0     H53686   2.143   8.173   5.032  0.3590  0.3375  0.9503
  398MOL0     H53687   2.161   8.085   5.186 -0.8175 -0.0430  0.3127
  398MOL0     H53688   1.904   8.044   5.166 -4.4163  0.9093  0.0826
  398MOL0     H53689   1.906   8.122   5.007  0.3850  1.6407 -0.2914
  398MOL0     H53690   1.700   8.114   5.128  3.4185 -0.0499  0.3982
  398MOL0     H53691   1.406   8.138   5.260 -1.1644 -0.7932 -0.7129
  398MOL0     H53692   1.380   8.243   5.119  1.4470  1.8354  1.2533
  398MOL0     H53693   1.480   8.102   5.102  1.5629 -0.4457  0.6122
  398MOL0     H53694   1.243   8.700   5.121  1.1463 -0.0557 -0.1924
  398MOL0     H53695   1.034   8.825   5.222 -1.1431 -2.0005  0.9073
  398MOL0     H53696   0.990   8.888   5.656  2.5624  0.4132  0.7529
  398MOL0     H53697   1.071   9.013   5.575  0.8195 -1.4541  1.9758
  398MOL0     H53698   0.850   9.094   5.662 -1.8143  1.5499 -1.6223
  398MOL0     H53699   0.837   9.086   5.475 -2.2074  0.4361 -0.1606
  398MOL0     H53700   0.756   8.862   5.640  0.0879 -0.6637 -1.6482
  398MOL0     H53701   0.714   8.902   5.466 -1.6055  0.4090 -0.7953
  398MOL0     H53702   0.517   8.932   5.602 -2.9214  1.9950  1.9286
  398MOL0     H53703   0.597   9.014   5.718  1.4068 -0.9165  0.3149
  398MOL0     H53704   0.585   9.135   5.435  0.1550 -1.0648 -0.0352
  398MOL0     H53705   0.608   9.220   5.595 -0.5139  0.7605 -1.7354
  398MOL0     H53706   0.342   9.077   5.532 -3.6349  1.4873  3.2119
  398MOL0     H53707   0.384   9.176   5.664 -0.3776 -1.4526 -0.2570
  398MOL0     H53708   0.415   9.315   5.397  0.7267  3.3563  1.6072
  398MOL0     H53709   0.416   9.374   5.564 -0.6941 -0.3586 -0.4100
  398MOL0     H53710   0.180   9.304   5.561  1.6189  0.1363  0.2226
  398MOL0     H53711   0.197   9.211   5.409  1.4856 -0.1674 -1.7064
  398MOL0     H53712   1.199   8.765   5.618 -2.3759 -1.2327  0.5641
  398MOL0     H53713   1.394   8.648   5.504  1.7138  2.2461  0.0441
  398MOL0     H53714   1.669   8.570   5.306  1.5430 -0.2424  1.0737
  398MOL0     H53715   1.888   8.456   5.281  1.7548 -1.0665 -2.6306
  398MOL0     H53716   3.609   8.377   4.649 -1.4498 -0.4931 -0.5809
  398MOL0     H53717   3.832   8.297   4.605  0.2502 -0.2010 -2.1584
  398MOL0     H53718   4.144   8.124   4.548 -1.8605 -0.5092 -1.5682
  398MOL0     H53719   4.361   8.062   4.592  0.6651 -0.3263 -0.7041
  398MOL0     H53720   4.580   8.024   4.551  0.0008  0.3765  1.2292
  398MOL0     H53721   4.537   7.891   4.658 -0.9214 -1.7724 -0.5281
  398MOL0     H53722   4.761   7.921   4.637  0.4615  2.1464 -0.8693
  398MOL0     H53723   4.760   7.892   4.460 -0.4831  1.2788  1.3132
  398MOL0     H53724   4.709   7.652   4.495 -0.0453  2.6948 -0.7023
  398MOL0     H53725   4.658   7.678   4.666 -0.9805  0.4862 -1.2551
  398MOL0     H53726   4.902   7.717   4.715 -2.8699 -0.2530  0.7239
  398MOL0     H53727   4.930   7.700   4.537 -1.9409 -1.8294 -1.4273
  398MOL0     H53728   4.923   7.306   4.676 -3.3873 -0.6618 -2.7066
  398MOL0     H53729   4.338   7.751   4.287  1.0783 -0.4007  2.5452
  398MOL0     H53730   4.103   7.791   4.273 -1.0713 -1.6177  1.6874
  399MOL0     O53731   9.635   4.463  10.726  0.0118  0.4827 -0.4395
  399MOL0     C53732   9.718   4.548  10.715 -0.0364 -0.8440 -0.5731
  399MOL0     O53733   9.764   4.605  10.603  0.2644  0.1152  0.2100
  399MOL0     C53734   9.718   4.555  10.489  0.2218  0.8936  0.4465
  399MOL0     C53735   9.595   4.602  10.433  0.0204  0.5558 -0.2555
  399MOL0     C53736   9.540   4.554  10.303 -0.3076 -0.3485 -0.5352
  399MOL0     C53737   9.608   4.444  10.248 -0.0713 -0.5778 -0.6043
  399MOL0     O53738   9.569   4.378  10.134 -1.0650  0.4468  0.3290
  399MOL0     C53739   9.437   4.418  10.089  0.6410 -0.7214 -0.8110
  399MOL0     C53740   9.392   4.327   9.988  0.0787  0.6618  0.2357
  399MOL0     C53741   9.247   4.356   9.939  0.5211  0.1179  0.5459
  399MOL0     C53742   9.130   4.310  10.033 -0.0054  0.2766 -0.5200
  399MOL0     C53743   9.008   4.378   9.974  0.2781 -0.3644  0.0249
  399MOL0     C53744   8.870   4.366  10.041 -0.0065  0.0131 -0.0423
  399MOL0     C53745   8.795   4.498  10.042  0.8459  0.0914  0.3683
  399MOL0     C53746   8.820   4.583  10.168  0.5131  0.2241  0.5998
  399MOL0     N53747   8.716   4.690  10.181  0.2756 -0.6568 -0.2699
  399MOL0     C53748   8.746   4.825  10.204  0.0623  0.1404  0.7816
  399MOL0     C53749   8.631   4.892  10.201 -0.5740 -0.8084 -0.5711
  399MOL0     C53750   8.630   5.044  10.206  0.5751  0.3370 -0.1057
  399MOL0     C53751   8.497   5.086  10.270  0.2392  0.0191  0.2237
  399MOL0     C53752   8.505   5.246  10.280 -0.0605  0.2738 -0.4942
  399MOL0     C53753   8.389   5.314  10.361 -0.9982  0.0642 -0.2005
  399MOL0     O53754   8.255   5.279  10.308 -0.2386 -0.4896  0.3607
  399MOL0     C53755   8.147   5.310  10.387 -0.2432 -0.0211 -0.3362
  399MOL0     C53756   8.149   5.383  10.509 -0.9869 -0.7159 -0.0010
  399MOL0     C53757   8.043   5.391  10.601  0.0756  0.0653 -0.9616
  399MOL0     C53758   8.060   5.474  10.729 -0.5264  0.2648  0.0415
  399MOL0     C53759   7.918   5.332  10.572  0.4640 -0.0794  0.4934
  399MOL0     C53760   7.792   5.341  10.655  0.4694 -0.1072  0.1983
  399MOL0     O53761   7.691   5.267  10.618  0.0217 -0.0212  0.1476
  399MOL0     C53762   7.566   5.301  10.670  0.7343  0.0576 -0.2735
  399MOL0     C53763   7.452   5.322  10.579 -0.0496  0.3613 -0.4221
  399MOL0     C53764   7.320   5.310  10.625  0.6697 -0.5983 -0.4321
  399MOL0     C53765   7.298   5.292  10.760 -0.4867 -0.1806 -0.0300
  399MOL0     O53766   7.179   5.267  10.833 -0.2367  0.5091 -0.5098
  399MOL0     C53767   7.056   5.278  10.759  1.0236  0.9541  0.2525
  399MOL0     C53768   7.012   5.165  10.672  0.1482 -0.5307  0.6950
  399MOL0     C53769   6.864   5.169  10.639  0.0318  0.1105  0.7160
  399MOL0     C53770   6.826   5.258  10.514  2.0283  0.0666  0.4074
  399MOL0     C53771   6.672   5.275  10.509  0.4166 -0.7150 -0.2878
  399MOL0     C53772   6.639   5.371  10.390 -0.4516  0.2568 -0.1266
  399MOL0     C53773   6.485   5.391  10.378 -0.5158  0.5683 -0.2564
  399MOL0     C53774   6.390   5.285  10.431  0.2923 -0.7844  0.2796
  399MOL0    Cl53775   6.235   5.379  10.440  0.3944  0.1391 -0.0438
  399MOL0     C53776   7.408   5.280  10.848  0.3782 -0.8003  0.1153
  399MOL0     C53777   7.542   5.280  10.807 -0.1876  0.8477  0.2521
  399MOL0     O53778   7.786   5.439  10.733 -0.0593 -0.7164 -0.1722
  399MOL0     C53779   7.912   5.254  10.453 -0.3098 -0.5597  0.1725
  399MOL0     C53780   8.025   5.253  10.363 -0.0413 -0.0498 -0.3486
  399MOL0     N53781   8.532   4.800  10.179  0.2784 -1.1403 -0.0912
  399MOL0     N53782   8.581   4.685  10.177  1.0332  0.2566  0.3220
  399MOL0     C53783   9.728   4.400  10.301 -0.0455  0.7633 -0.1694
  399MOL0     C53784   9.780   4.455  10.422  0.6368  0.1998 -0.3770
  399MOL0     C53785   9.762   4.618  10.837 -0.5454 -0.3564 -0.3431
  399MOL0     C53786   9.681   4.632  10.948 -0.1387  0.5625  0.3688
  399MOL0     C53787   9.721   4.703  11.058  0.4623  0.4671  0.7958
  399MOL0     C53788   9.845   4.767  11.070 -0.0222 -0.2319 -0.3064
  399MOL0     O53789   9.862   4.842  11.182 -0.3645  0.1107 -0.2740
  399MOL0     C53790   9.969   4.933  11.207  0.1883  0.6064  0.7838
  399MOL0     C53791  10.091   4.863  11.252  0.2432  0.2270  0.9554
  399MOL0     C53792  10.229   4.944  11.236 -0.0753 -0.5840 -0.6102
  399MOL0     C53793  10.344   4.854  11.304  0.5366  0.6124  0.5813
  399MOL0     C53794  10.338   4.849  11.449  0.9626 -0.4025  0.0503
  399MOL0     C53795  10.322   4.838  11.573 -0.4699  0.0045  0.7476
  399MOL0     C53796   9.928   4.753  10.957 -0.0023  0.1311  0.5346
  399MOL0     C53797   9.891   4.677  10.844 -0.0347  0.2550 -0.5161
  399MOL0     H53798   9.546   4.684  10.485  0.1893  1.5145 -1.5669
  399MOL0     H53799   9.456   4.602  10.254 -0.5885  0.6631  0.8816
  399MOL0     H53800   9.371   4.408  10.176  1.6125 -0.3971 -0.0061
  399MOL0     H53801   9.431   4.521  10.052 -3.1087 -0.9088 -1.0926
  399MOL0     H53802   9.464   4.333   9.906 -0.5689  0.5823 -0.3496
  399MOL0     H53803   9.390   4.224  10.025 -0.2385  0.3025 -0.7461
  399MOL0     H53804   9.241   4.463   9.918 -1.2005 -0.3017 -1.4277
  399MOL0     H53805   9.222   4.302   9.847 -3.0006  1.9607  0.2672
  399MOL0     H53806   9.124   4.201  10.043  3.5326  0.0299  0.2983
  399MOL0     H53807   9.153   4.360  10.128  4.0914 -0.4302 -0.9684
  399MOL0     H53808   9.028   4.485   9.961 -1.0174  0.0215  1.0574
  399MOL0     H53809   8.990   4.334   9.875 -0.5295 -0.5194  0.2350
  399MOL0     H53810   8.812   4.291   9.986 -0.7900 -0.1224  0.9334
  399MOL0     H53811   8.879   4.319  10.139  0.9560 -3.1346 -1.5114
  399MOL0     H53812   8.825   4.553   9.953  1.1988 -0.2837  0.2523
  399MOL0     H53813   8.688   4.476  10.040  0.6533  0.7198  1.9572
  399MOL0     H53814   8.920   4.627  10.160 -0.0562  1.2006 -2.4991
  399MOL0     H53815   8.826   4.517  10.255  0.8680 -0.4059  0.1018
  399MOL0     H53816   8.842   4.871  10.223 -0.8613  0.8022  4.6630
  399MOL0     H53817   8.703   5.094  10.271  0.4738  4.1675 -2.6404
  399MOL0     H53818   8.641   5.078  10.103  1.6492  1.1403  0.2467
  399MOL0     H53819   8.484   5.046  10.371  0.4910  0.1283  0.3020
  399MOL0     H53820   8.415   5.048  10.209 -0.4428  0.7708  0.6564
  399MOL0     H53821   8.497   5.285  10.178  1.0092  0.1846 -0.6160
  399MOL0     H53822   8.593   5.284  10.332  0.7727 -3.0070  0.7840
  399MOL0     H53823   8.398   5.422  10.348 -3.1268  0.1754 -1.1821
  399MOL0     H53824   8.395   5.283  10.465  2.4601  0.8522 -0.0604
  399MOL0     H53825   8.241   5.433  10.539 -0.9747 -0.7251 -0.0229
  399MOL0     H53826   8.038   5.433  10.828  3.7351  1.5012  1.7588
  399MOL0     H53827   8.161   5.519  10.730 -0.4469  0.0827  0.0807
  399MOL0     H53828   7.994   5.561  10.728 -0.8930 -0.0201 -0.6008
  399MOL0     H53829   7.477   5.338  10.475 -1.2753  2.4297 -0.4437
  399MOL0     H53830   7.231   5.331  10.567  0.2192 -0.3790  0.3172
  399MOL0     H53831   6.984   5.296  10.840  0.9136 -1.4651  0.7469
  399MOL0     H53832   7.064   5.366  10.694  2.7787 -1.3500 -2.9421
  399MOL0     H53833   7.079   5.157  10.586  0.7790  1.7958  0.8825
  399MOL0     H53834   7.022   5.074  10.731 -2.9652  0.3412  2.8116
  399MOL0     H53835   6.806   5.203  10.726  1.8213  0.8036  1.6961
  399MOL0     H53836   6.844   5.062  10.629 -0.2016  0.3584 -1.9725
  399MOL0     H53837   6.865   5.360  10.515 -1.8478  1.7149  1.1897
  399MOL0     H53838   6.867   5.215  10.422 -0.0261 -3.3679  0.9070
  399MOL0     H53839   6.642   5.322  10.603  2.0498 -0.2739  0.0478
  399MOL0     H53840   6.637   5.173  10.495  0.9833 -0.7804 -1.4030
  399MOL0     H53841   6.683   5.470  10.408  4.1308 -1.5643 -0.0257
  399MOL0     H53842   6.692   5.327  10.305  0.2498 -0.9970  0.9251
  399MOL0     H53843   6.464   5.403  10.272 -2.2714  0.1314  0.0171
  399MOL0     H53844   6.464   5.482  10.435 -1.5243  0.7231 -0.8702
  399MOL0     H53845   6.406   5.249  10.534  0.4051  1.5142  1.1233
  399MOL0     H53846   6.390   5.195  10.369 -3.4595 -0.9758  0.3512
  399MOL0     H53847   7.387   5.250  10.950 -2.4031  0.5721  0.0307
  399MOL0     H53848   7.629   5.258  10.867  0.0371 -0.4007 -0.4777
  399MOL0     H53849   7.833   5.183  10.434  0.1769 -1.6093  1.8805
  399MOL0     H53850   8.025   5.193  10.273  1.6941 -1.2845  0.4217
  399MOL0     H53851   9.778   4.316  10.254  0.4681  0.8766  0.1649
  399MOL0     H53852   9.871   4.410  10.460 -1.6342 -2.1063  2.9321
  399MOL0     H53853   9.583   4.585  10.935 -0.8514  2.2401 -0.7968
  399MOL0     H53854   9.646   4.718  11.135 -0.7929  2.7910 -0.7500
  399MOL0     H53855   9.997   4.981  11.113  2.5748  1.1353  1.6991
  399MOL0     H53856   9.941   5.017  11.271 -1.2184  1.3334 -0.7095
  399MOL0     H53857  10.101   4.774  11.190  0.5395 -0.5562  2.0993
  399MOL0     H53858  10.074   4.843  11.358 -0.2086 -0.8673  0.6849
  399MOL0     H53859  10.227   5.036  11.295  2.5615  1.6524 -3.6861
  399MOL0     H53860  10.251   4.958  11.130 -0.6951  0.6921 -0.5915
  399MOL0     H53861  10.441   4.900  11.282  0.6674  0.6761  1.2813
  399MOL0     H53862  10.347   4.752  11.264  1.8139  1.3085 -1.2432
  399MOL0     H53863  10.306   4.838  11.679  0.0726  2.7769  0.9219
  399MOL0     H53864  10.019   4.811  10.965  0.4054 -0.1477 -1.5067
  399MOL0     H53865   9.962   4.666  10.763  0.1344  0.8844 -0.4563
  400MOL0     O53866   0.951   2.522   2.525 -0.4275  0.0537 -0.3398
  400MOL0     C53867   0.964   2.464   2.414  0.4493 -0.0031  0.0169
  400MOL0     O53868   0.862   2.431   2.329  0.3128  0.5283  0.5275
  400MOL0     C53869   0.735   2.475   2.361 -0.1031 -0.7385 -0.3435
  400MOL0     C53870   0.697   2.606   2.370  1.2558 -0.1941 -1.0310
  400MOL0     C53871   0.551   2.638   2.387 -0.7469 -0.5719 -0.4472
  400MOL0     C53872   0.458   2.533   2.416  0.0009  0.0604  0.4036
  400MOL0     O53873   0.326   2.564   2.442 -0.3607 -0.4276  0.0605
  400MOL0     C53874   0.258   2.649   2.352  0.3635 -0.5159  0.1364
  400MOL0     C53875   0.108   2.650   2.359  0.4934  0.2950 -0.7442
  400MOL0     C53876   0.063   2.740   2.478  0.5234  0.7686 -0.3240
  400MOL0     C53877  -0.089   2.758   2.490 -0.4111  0.2343  0.1009
  400MOL0     C53878  -0.118   2.851   2.609 -0.0424  0.3999  0.1164
  400MOL0     C53879  -0.269   2.868   2.616 -0.2013  0.5938 -0.3815
  400MOL0     C53880  -0.321   2.941   2.743 -0.9308 -0.1966 -0.0871
  400MOL0     C53881  -0.267   3.084   2.743 -0.8152 -0.1113  1.0130
  400MOL0     N53882  -0.347   3.188   2.824 -0.0807  0.2371  0.0949
  400MOL0     C53883  -0.424   3.150   2.932  1.2063  0.9792 -0.6848
  400MOL0     C53884  -0.518   3.240   2.947  0.2654 -0.1641 -0.1853
  400MOL0     C53885  -0.613   3.259   3.064 -1.1656  0.2559  0.4738
  400MOL0     C53886  -0.758   3.267   3.027  0.1011  0.2729 -0.4158
  400MOL0     C53887  -0.843   3.311   3.149  0.0855  0.2398 -0.1413
  400MOL0     C53888  -0.995   3.324   3.127 -0.2660  0.5403 -0.3660
  400MOL0     O53889  -1.026   3.426   3.031  0.0694 -0.6510 -0.1966
  400MOL0     C53890  -1.157   3.455   3.029  0.4151  0.8983  0.2953
  400MOL0     C53891  -1.210   3.553   3.109  0.0940 -0.5835 -0.0031
  400MOL0     C53892  -1.340   3.608   3.097 -0.0990  0.2532 -0.9666
  400MOL0     C53893  -1.377   3.707   3.212  0.5514  0.3468  0.6954
  400MOL0     C53894  -1.432   3.560   2.999  0.2801 -0.6296 -0.0451
  400MOL0     C53895  -1.573   3.604   2.984  0.8400 -0.4257 -0.6015
  400MOL0     O53896  -1.652   3.533   2.906  0.4302  0.7276 -1.1157
  400MOL0     C53897  -1.783   3.578   2.882 -0.3979  1.0363  0.0131
  400MOL0     C53898  -1.884   3.584   2.980 -0.3249 -1.4992  0.4231
  400MOL0     C53899  -2.009   3.626   2.958  0.2685  0.0291  0.6219
  400MOL0     C53900  -2.041   3.679   2.832 -0.2704  0.6442 -0.4993
  400MOL0     O53901  -2.164   3.733   2.804 -0.5095  0.0837 -0.4207
  400MOL0     C53902  -2.215   3.823   2.903 -1.1799 -0.0315  0.4749
  400MOL0     C53903  -2.341   3.882   2.845  0.3902  0.1397  0.0703
  400MOL0     C53904  -2.436   3.948   2.943  0.1804 -0.0932 -0.6128
  400MOL0     C53905  -2.505   3.857   3.042  0.5863  0.5964 -0.2458
  400MOL0     C53906  -2.608   3.747   2.981 -0.7873 -0.3611 -0.5503
  400MOL0     C53907  -2.720   3.826   2.904  0.0548 -0.8404 -0.5249
  400MOL0     C53908  -2.852   3.739   2.916  0.2503 -0.4429 -0.7805
  400MOL0     C53909  -2.960   3.833   2.871 -0.7756 -0.0581  0.0156
  400MOL0    Cl53910  -2.920   3.897   2.705 -0.4466  0.0962  0.1807
  400MOL0     C53911  -1.944   3.664   2.730  0.1558  1.1693 -0.2390
  400MOL0     C53912  -1.820   3.609   2.753  0.2285 -0.9821 -0.5127
  400MOL0     O53913  -1.582   3.727   3.007  0.5823  0.7699  0.7687
  400MOL0     C53914  -1.383   3.456   2.914  0.7063  0.7749 -0.5661
  400MOL0     C53915  -1.244   3.406   2.934  0.4164 -0.0623 -0.3014
  400MOL0     N53916  -0.510   3.341   2.847 -0.0671  0.7152  0.2416
  400MOL0     N53917  -0.410   3.303   2.769 -0.4513 -0.7755 -0.4321
  400MOL0     C53918   0.510   2.403   2.411 -0.7529  0.0008 -0.8609
  400MOL0     C53919   0.649   2.378   2.391  0.7825 -0.1399  0.0320
  400MOL0     C53920   1.099   2.451   2.364 -0.1740 -0.5359 -0.0264
  400MOL0     C53921   1.110   2.395   2.237  0.0222 -0.9925 -0.1615
  400MOL0     C53922   1.230   2.391   2.168 -0.1038  0.0377 -0.0882
  400MOL0     C53923   1.346   2.439   2.225 -0.3536  0.8306 -0.6542
  400MOL0     O53924   1.465   2.424   2.149  0.2042  0.1850 -0.5249
  400MOL0     C53925   1.585   2.483   2.190 -0.5531  0.1144 -0.9553
  400MOL0     C53926   1.668   2.387   2.266  0.1563  0.9943 -0.5264
  400MOL0     C53927   1.792   2.455   2.311  1.0769  0.0937 -0.7343
  400MOL0     C53928   1.871   2.366   2.402  0.9270  1.2149 -0.5077
  400MOL0     C53929   1.815   2.343   2.536  0.2401 -1.2889  0.1271
  400MOL0     C53930   1.771   2.333   2.651 -0.1277  0.2389 -0.6872
  400MOL0     C53931   1.349   2.496   2.355  0.4478 -0.6035 -0.1123
  400MOL0     C53932   1.226   2.498   2.426  0.0645  0.1826 -0.0983
  400MOL0     H53933   0.758   2.692   2.347  0.7521 -0.4773 -3.7016
  400MOL0     H53934   0.534   2.745   2.388  1.0856 -0.2435  0.1739
  400MOL0     H53935   0.297   2.749   2.375  4.3249 -1.7646 -0.4732
  400MOL0     H53936   0.291   2.616   2.253 -0.9638 -4.1156  0.7493
  400MOL0     H53937   0.075   2.700   2.267  3.5986 -0.3447 -2.3280
  400MOL0     H53938   0.058   2.553   2.363  2.6521 -0.8750 -0.9470
  400MOL0     H53939   0.090   2.687   2.570  1.4440  1.2590 -0.2978
  400MOL0     H53940   0.105   2.840   2.487 -1.5790  1.6275  0.5269
  400MOL0     H53941  -0.124   2.804   2.397  0.8453  1.3654  0.1623
  400MOL0     H53942  -0.144   2.664   2.505  0.8481 -0.7288 -1.0412
  400MOL0     H53943  -0.079   2.809   2.702 -0.7567 -2.5866 -0.8079
  400MOL0     H53944  -0.069   2.948   2.597  5.7486 -1.9612  1.3992
  400MOL0     H53945  -0.310   2.912   2.525 -3.1381  3.3178  2.0105
  400MOL0     H53946  -0.311   2.768   2.630  0.5617  0.4643  1.1033
  400MOL0     H53947  -0.430   2.950   2.733 -0.5916  2.2980 -3.2449
  400MOL0     H53948  -0.279   2.892   2.831  1.8845  1.1024 -0.6113
  400MOL0     H53949  -0.281   3.122   2.641  0.4730  1.8409  1.5043
  400MOL0     H53950  -0.160   3.081   2.765 -0.7226 -0.7266  0.5099
  400MOL0     H53951  -0.406   3.074   3.008  0.2703  0.5927 -0.8323
  400MOL0     H53952  -0.602   3.181   3.140  0.2605  0.3254  0.3735
  400MOL0     H53953  -0.586   3.356   3.108 -0.9890  0.4460 -0.0390
  400MOL0     H53954  -0.781   3.162   3.007 -0.0091  0.1926  0.1125
  400MOL0     H53955  -0.773   3.321   2.934  1.2706  1.7489  0.2287
  400MOL0     H53956  -0.804   3.404   3.192 -2.9800  1.6570 -0.1667
  400MOL0     H53957  -0.836   3.234   3.226 -0.4526 -0.4185 -0.7425
  400MOL0     H53958  -1.047   3.335   3.223 -0.9237 -0.5117 -0.5834
  400MOL0     H53959  -1.029   3.229   3.085 -0.1712  0.4559 -0.2549
  400MOL0     H53960  -1.140   3.599   3.179  2.4270  0.3594 -2.7767
  400MOL0     H53961  -1.476   3.671   3.243  0.4672 -1.4782 -1.4066
  400MOL0     H53962  -1.315   3.683   3.298  0.6405  1.0432  0.8328
  400MOL0     H53963  -1.379   3.814   3.190  1.4343  0.2457  0.0398
  400MOL0     H53964  -1.871   3.561   3.086 -1.1845 -0.6059  0.7315
  400MOL0     H53965  -2.072   3.631   3.046  1.1922 -0.8954  1.3678
  400MOL0     H53966  -2.242   3.773   2.996 -1.5755 -0.5400  0.0932
  400MOL0     H53967  -2.149   3.910   2.912 -0.6199  0.0338 -2.9290
  400MOL0     H53968  -2.315   3.964   2.778 -1.7554 -1.1741 -2.5919
  400MOL0     H53969  -2.386   3.795   2.795  0.6826  0.1784 -0.2649
  400MOL0     H53970  -2.514   3.995   2.881 -0.8324  0.3325  0.9391
  400MOL0     H53971  -2.388   4.036   2.986 -0.4767 -0.5381  1.1021
  400MOL0     H53972  -2.430   3.810   3.107  1.0259  2.7805  0.9229
  400MOL0     H53973  -2.572   3.921   3.100 -2.1640 -0.8359 -1.6922
  400MOL0     H53974  -2.653   3.695   3.066 -0.0957 -1.4746 -0.8574
  400MOL0     H53975  -2.564   3.680   2.907  1.3193  1.6482 -1.2352
  400MOL0     H53976  -2.727   3.930   2.934 -0.1167  0.8469 -5.4606
  400MOL0     H53977  -2.683   3.838   2.802  2.3424 -0.2418  0.3084
  400MOL0     H53978  -2.864   3.697   3.016  1.3361  1.6442  0.2939
  400MOL0     H53979  -2.842   3.659   2.842  2.2042 -1.2570  0.2645
  400MOL0     H53980  -2.971   3.910   2.948 -0.2352 -0.6188  0.6592
  400MOL0     H53981  -3.056   3.781   2.861 -1.8831  2.2699 -3.3916
  400MOL0     H53982  -1.956   3.697   2.627 -1.3463 -1.2974 -0.9516
  400MOL0     H53983  -1.748   3.614   2.672  3.4393  0.0287  2.1919
  400MOL0     H53984  -1.437   3.432   2.823 -4.1666  1.9498  1.6893
  400MOL0     H53985  -1.206   3.334   2.862  1.8050  0.6518 -0.3110
  400MOL0     H53986   0.444   2.320   2.433 -0.8989 -0.6178 -3.3409
  400MOL0     H53987   0.683   2.275   2.400  1.9971 -0.0681 -2.6607
  400MOL0     H53988   1.024   2.363   2.179 -0.1609  0.4748 -0.7445
  400MOL0     H53989   1.248   2.343   2.073  0.5010 -1.6876  0.8548
  400MOL0     H53990   1.639   2.521   2.103 -0.3207  3.0778  0.3616
  400MOL0     H53991   1.570   2.572   2.251  0.5146 -1.8385  2.4501
  400MOL0     H53992   1.693   2.299   2.206 -0.2783 -0.1312  0.9055
  400MOL0     H53993   1.612   2.350   2.352  1.3449  3.5108  1.5019
  400MOL0     H53994   1.760   2.540   2.372 -0.0687 -0.0890 -1.0464
  400MOL0     H53995   1.861   2.482   2.231  2.6206 -0.7587  0.2545
  400MOL0     H53996   1.969   2.408   2.425  0.3419  1.6696  1.2883
  400MOL0     H53997   1.886   2.269   2.354 -1.8337 -0.9244  2.5243
  400MOL0     H53998   1.723   2.321   2.746  1.1547  1.4963  0.1705
  400MOL0     H53999   1.441   2.529   2.402  0.2986 -0.8012  0.3229
  400MOL0     H54000   1.225   2.546   2.523  0.1056  0.2345 -0.1239
  401MOL0     O54001   6.213   2.988  11.217 -0.2262  0.1818  0.3798
  401MOL0     C54002   6.215   3.098  11.162 -0.4498 -0.2177  0.1320
  401MOL0     O54003   6.111   3.175  11.154  0.8844  0.1615  0.0962
  401MOL0     C54004   5.997   3.145  11.226 -0.2152  0.7402 -0.3233
  401MOL0     C54005   5.961   3.217  11.344 -0.5950 -0.0125 -0.1401
  401MOL0     C54006   5.849   3.187  11.428 -0.1693  0.5251 -0.1568
  401MOL0     C54007   5.769   3.079  11.393  0.1769 -0.8687  0.5020
  401MOL0     O54008   5.648   3.050  11.440  1.0956 -0.8911 -1.0229
  401MOL0     C54009   5.586   3.150  11.527 -0.6716  0.3692  0.0456
  401MOL0     C54010   5.444   3.119  11.575 -0.2641 -0.0074  0.0275
  401MOL0     C54011   5.351   3.181  11.473  0.1582  0.3672  0.0018
  401MOL0     C54012   5.211   3.157  11.527 -0.7598 -0.0723  0.3765
  401MOL0     C54013   5.110   3.217  11.425  0.5765  0.8272  0.7835
  401MOL0     C54014   4.967   3.195  11.467  0.4498  0.6258  0.0165
  401MOL0     C54015   4.873   3.252  11.365  0.1682 -0.5826 -0.3295
  401MOL0     C54016   4.722   3.275  11.398 -0.1427  0.1217  0.1904
  401MOL0     N54017   4.644   3.338  11.284  0.3133  0.7087  0.1133
  401MOL0     C54018   4.610   3.271  11.156  0.0557 -0.5367 -0.6626
  401MOL0     C54019   4.540   3.373  11.088  0.1003  0.8056 -0.5572
  401MOL0     C54020   4.464   3.358  10.966 -0.5932 -0.3499 -0.0692
  401MOL0     C54021   4.515   3.454  10.867  0.1306 -0.2381 -0.0464
  401MOL0     C54022   4.466   3.450  10.727  1.2100  0.0560 -0.4901
  401MOL0     C54023   4.531   3.553  10.635  0.1557 -1.5874  0.7157
  401MOL0     O54024   4.671   3.521  10.635 -0.1617  0.3559 -0.2878
  401MOL0     C54025   4.761   3.575  10.551 -0.4981  0.0905 -1.0357
  401MOL0     C54026   4.748   3.705  10.494 -0.0891  0.4346 -0.0944
  401MOL0     C54027   4.840   3.759  10.401  0.0838  0.6480  0.0724
  401MOL0     C54028   4.812   3.887  10.334 -0.2229 -0.1083 -0.3175
  401MOL0     C54029   4.961   3.685  10.374  0.9326 -0.2678  0.2635
  401MOL0     C54030   5.064   3.751  10.296  0.0744  1.0098  0.6928
  401MOL0     O54031   5.171   3.771  10.365 -0.8754 -0.1143 -0.2016
  401MOL0     C54032   5.287   3.790  10.284  0.6944  0.0148 -0.1015
  401MOL0     C54033   5.374   3.679  10.267  0.3911 -0.6004  0.1873
  401MOL0     C54034   5.487   3.705  10.185  0.1316  0.4043  0.1007
  401MOL0     C54035   5.516   3.829  10.133 -0.3307  0.3352 -0.3781
  401MOL0     O54036   5.615   3.864  10.047 -0.0356 -0.7495 -0.0015
  401MOL0     C54037   5.645   3.769   9.943  0.4819 -0.5098  0.2578
  401MOL0     C54038   5.691   3.840   9.814 -0.3344  0.2976  0.4040
  401MOL0     C54039   5.809   3.933   9.841 -0.0263  0.4505 -0.6377
  401MOL0     C54040   5.948   3.879   9.849 -0.2161  0.3162 -0.8701
  401MOL0     C54041   6.055   3.985   9.835 -0.8005  0.2347 -0.9045
  401MOL0     C54042   6.185   3.908   9.835 -0.5073  0.0364  0.3621
  401MOL0     C54043   6.312   4.000   9.795  0.4825  0.0122 -0.0715
  401MOL0     C54044   6.442   3.953   9.870 -0.8106  0.2264  0.0857
  401MOL0    Cl54045   6.490   3.817   9.775 -0.2522 -0.1876 -0.2786
  401MOL0     C54046   5.437   3.941  10.163  0.4283  1.4199 -0.3626
  401MOL0     C54047   5.318   3.920  10.234 -0.7825  0.2841  0.0091
  401MOL0     O54048   5.048   3.769  10.174 -0.2020 -0.5092 -0.3766
  401MOL0     C54049   4.976   3.557  10.439  0.0668 -0.9003  0.1201
  401MOL0     C54050   4.877   3.506  10.526 -0.9360  1.1603  0.0391
  401MOL0     N54051   4.535   3.485  11.175  0.3014 -0.2693 -0.3092
  401MOL0     N54052   4.594   3.465  11.284  0.0318  0.2272 -0.3692
  401MOL0     C54053   5.805   3.000  11.280  0.3236  0.1131  0.7460
  401MOL0     C54054   5.914   3.038  11.198 -0.1086  0.2257 -0.2911
  401MOL0     C54055   6.342   3.131  11.095 -0.3208 -0.3044 -0.7677
  401MOL0     C54056   6.469   3.067  11.119 -0.6147 -0.4525 -0.1249
  401MOL0     C54057   6.587   3.108  11.057 -0.6637  0.0508 -0.4008
  401MOL0     C54058   6.586   3.215  10.963 -0.1561 -0.0415 -0.0444
  401MOL0     O54059   6.703   3.259  10.913  0.9948 -0.1684 -0.4260
  401MOL0     C54060   6.710   3.380  10.843  0.0793 -0.1419  0.4316
  401MOL0     C54061   6.845   3.404  10.795 -0.7250  0.4392 -0.4176
  401MOL0     C54062   6.946   3.391  10.907  0.1678  0.4469 -0.3090
  401MOL0     C54063   7.084   3.441  10.866  0.3289 -0.5133  0.1466
  401MOL0     C54064   7.192   3.408  10.960 -0.3599  0.6162  0.3422
  401MOL0     C54065   7.291   3.368  11.023  0.5660 -0.3295  0.2810
  401MOL0     C54066   6.466   3.279  10.948  0.0105 -0.2111 -0.1042
  401MOL0     C54067   6.346   3.247  11.015 -0.0520  0.5804  0.0694
  401MOL0     H54068   6.034   3.292  11.372  0.2067 -0.1524 -1.7571
  401MOL0     H54069   5.840   3.253  11.514 -4.0228  1.9940 -1.5002
  401MOL0     H54070   5.652   3.155  11.615  0.4400 -0.4980 -0.7041
  401MOL0     H54071   5.593   3.254  11.494 -1.8858  1.1310  1.9867
  401MOL0     H54072   5.426   3.011  11.580 -4.0788  0.4515 -0.7612
  401MOL0     H54073   5.431   3.167  11.672 -0.5005 -0.3958  0.1895
  401MOL0     H54074   5.361   3.290  11.473 -0.7501  0.4575 -0.0617
  401MOL0     H54075   5.374   3.139  11.375  1.3589 -0.1028  0.4704
  401MOL0     H54076   5.192   3.050  11.532 -1.0776  0.0325  3.5651
  401MOL0     H54077   5.196   3.209  11.622  3.2231 -0.0782  1.2128
  401MOL0     H54078   5.128   3.325  11.424 -0.9576  1.1438  2.6273
  401MOL0     H54079   5.120   3.179  11.323 -1.3880  2.5846 -0.1242
  401MOL0     H54080   4.964   3.086  11.475 -1.6385  0.4380 -2.1104
  401MOL0     H54081   4.946   3.253  11.557 -1.0395  3.2553 -1.8985
  401MOL0     H54082   4.910   3.353  11.347  0.5524 -0.2816  1.7876
  401MOL0     H54083   4.887   3.194  11.273  2.0214 -1.9877  0.7540
  401MOL0     H54084   4.708   3.330  11.492 -0.2529 -1.5249  1.1727
  401MOL0     H54085   4.677   3.178  11.421 -1.6845  0.8650  0.5034
  401MOL0     H54086   4.616   3.165  11.130 -1.6521 -0.4627 -1.4689
  401MOL0     H54087   4.469   3.261  10.915  0.9484  0.1140 -0.8762
  401MOL0     H54088   4.358   3.370  10.987 -0.3013  0.5916  0.9465
  401MOL0     H54089   4.624   3.451  10.871  0.2660  2.3508  0.0816
  401MOL0     H54090   4.494   3.555  10.904 -3.9236 -1.1672  0.6571
  401MOL0     H54091   4.357   3.464  10.726  1.0226 -1.2330 -0.9221
  401MOL0     H54092   4.483   3.353  10.681  0.7988  0.6243 -1.8717
  401MOL0     H54093   4.508   3.647  10.685 -2.5888 -1.7725 -0.0289
  401MOL0     H54094   4.489   3.536  10.536  1.9749 -2.8185  0.1036
  401MOL0     H54095   4.656   3.759  10.517 -0.2636 -0.3363  1.0964
  401MOL0     H54096   4.707   3.917  10.342 -0.2354 -0.0983 -0.5117
  401MOL0     H54097   4.872   3.957  10.393  0.5805 -0.9071 -0.1634
  401MOL0     H54098   4.849   3.882  10.231  2.5226 -2.6313  0.6447
  401MOL0     H54099   5.349   3.581  10.306  2.1470 -2.5527 -3.1019
  401MOL0     H54100   5.551   3.621  10.158 -1.7860 -1.0641 -0.1246
  401MOL0     H54101   5.734   3.714   9.973  1.5704  0.9899 -0.1338
  401MOL0     H54102   5.569   3.691   9.931  1.4988 -1.4187 -0.4495
  401MOL0     H54103   5.714   3.762   9.741 -2.5329 -0.2576  0.2288
  401MOL0     H54104   5.612   3.895   9.761  0.3522 -0.7553 -1.8210
  401MOL0     H54105   5.791   3.986   9.935  2.7107  0.7003 -0.1605
  401MOL0     H54106   5.822   4.010   9.764  0.9112  1.5503  0.5587
  401MOL0     H54107   5.971   3.819   9.938 -0.0603 -2.7190 -2.7845
  401MOL0     H54108   5.953   3.807   9.766  1.7261  1.8446 -2.1610
  401MOL0     H54109   6.059   4.052   9.922  1.2926 -0.3105 -0.5182
  401MOL0     H54110   6.054   4.038   9.739 -0.1218 -0.3603 -1.2475
  401MOL0     H54111   6.202   3.872   9.937  3.2765 -1.1772 -0.5506
  401MOL0     H54112   6.186   3.829   9.760  1.3032  0.5534 -0.1959
  401MOL0     H54113   6.299   4.104   9.825  0.7688  0.0704 -0.1412
  401MOL0     H54114   6.324   4.001   9.686  1.9706  1.2923  0.0648
  401MOL0     H54115   6.428   3.938   9.978  2.5374  1.8165  0.8810
  401MOL0     H54116   6.526   4.023   9.866 -0.9531  0.4853  1.1911
  401MOL0     H54117   5.456   4.041  10.124  0.4218  1.4389 -0.3163
  401MOL0     H54118   5.252   4.005  10.247  0.3259  1.2450 -0.4227
  401MOL0     H54119   5.061   3.492  10.423  0.2015 -0.5578 -0.6057
  401MOL0     H54120   4.896   3.410  10.574  0.1885  1.6493  0.6058
  401MOL0     H54121   5.756   2.915  11.234  2.0535  0.0345 -1.0873
  401MOL0     H54122   5.927   2.990  11.102 -2.6514  0.0880 -0.6413
  401MOL0     H54123   6.463   2.989  11.195 -1.9579  0.7167  1.0471
  401MOL0     H54124   6.687   3.069  11.073  0.5607  3.3620  1.1075
  401MOL0     H54125   6.645   3.375  10.755 -0.9087  1.6336  1.0309
  401MOL0     H54126   6.691   3.466  10.907  1.3657  1.6624 -1.4611
  401MOL0     H54127   6.854   3.504  10.750  5.4407  0.6909  0.5055
  401MOL0     H54128   6.866   3.331  10.716  0.4948 -1.9139  1.9220
  401MOL0     H54129   6.952   3.290  10.948 -1.5784  0.4603  0.0455
  401MOL0     H54130   6.925   3.457  10.991 -2.8258  2.0594 -2.1352
  401MOL0     H54131   7.096   3.549  10.861  1.3368 -0.5234  1.6750
  401MOL0     H54132   7.113   3.397  10.769  0.0403 -1.6679  0.5674
  401MOL0     H54133   7.384   3.340  11.066  0.7664 -3.2980 -1.7648
  401MOL0     H54134   6.461   3.359  10.875  1.4326  2.3931  2.4516
  401MOL0     H54135   6.260   3.309  10.994 -0.0525  0.2148 -1.0939
  402MOL0     O54136   3.458   3.782   9.699 -0.4811 -0.4115 -0.2174
  402MOL0     C54137   3.552   3.830   9.637 -0.7056 -0.3276  0.0097
  402MOL0     O54138   3.548   3.859   9.503  0.5713 -0.7052 -0.5817
  402MOL0     C54139   3.428   3.874   9.433 -0.0377 -0.1700 -0.2350
  402MOL0     C54140   3.299   3.899   9.500  0.3839 -0.7888  0.6368
  402MOL0     C54141   3.187   3.895   9.422 -0.4319 -0.2695  0.2967
  402MOL0     C54142   3.185   3.892   9.282 -0.6208  0.1951 -0.4124
  402MOL0     O54143   3.064   3.903   9.222 -0.0920  0.6937 -0.0830
  402MOL0     C54144   3.056   3.840   9.095  0.2259  0.8013 -0.0474
  402MOL0     C54145   2.912   3.815   9.073 -0.4070  1.0120  0.5385
  402MOL0     C54146   2.864   3.696   9.155  0.0961 -0.7671  0.3253
  402MOL0     C54147   2.719   3.711   9.192 -0.1985 -0.2612  0.3527
  402MOL0     C54148   2.671   3.599   9.288  0.2121 -0.2624  0.2899
  402MOL0     C54149   2.520   3.624   9.330  0.0372  0.3241  0.6151
  402MOL0     C54150   2.417   3.566   9.234  0.5312  0.1962  0.5305
  402MOL0     C54151   2.301   3.659   9.203  0.1850  0.0836  0.1721
  402MOL0     N54152   2.199   3.591   9.138 -0.2916 -0.0978  0.6224
  402MOL0     C54153   2.082   3.542   9.186 -0.2612  0.0778  0.1717
  402MOL0     C54154   2.045   3.460   9.091 -0.0654 -0.0854 -1.0495
  402MOL0     C54155   1.931   3.365   9.113 -1.0330 -0.0860  0.0524
  402MOL0     C54156   1.802   3.434   9.146  0.5279  0.1325  0.1149
  402MOL0     C54157   1.690   3.333   9.167 -0.3268 -1.1818  0.7838
  402MOL0     C54158   1.552   3.394   9.159  0.0675  0.5728 -0.1503
  402MOL0     O54159   1.458   3.298   9.214  0.7053  0.1490  0.2176
  402MOL0     C54160   1.326   3.342   9.223 -1.2064 -0.4216 -0.2247
  402MOL0     C54161   1.274   3.463   9.159  0.4994 -0.7922 -0.7425
  402MOL0     C54162   1.132   3.501   9.169  0.4199  1.2363 -0.0409
  402MOL0     C54163   1.096   3.636   9.128 -0.3962  0.7968  0.5568
  402MOL0     C54164   1.039   3.406   9.228 -0.5340  0.2549  0.4837
  402MOL0     C54165   0.896   3.432   9.246 -0.5303 -0.2591 -0.1379
  402MOL0     O54166   0.832   3.343   9.322  0.1447 -0.4092  0.3233
  402MOL0     C54167   0.704   3.379   9.361 -0.0935 -0.0339  0.8198
  402MOL0     C54168   0.667   3.361   9.490 -0.4621 -0.4834 -0.3059
  402MOL0     C54169   0.536   3.368   9.545 -0.1460 -0.4249 -0.5129
  402MOL0     C54170   0.429   3.387   9.452 -0.5410 -0.2808  0.3823
  402MOL0     O54171   0.296   3.375   9.501 -0.1053  0.2787  0.2772
  402MOL0     C54172   0.215   3.487   9.454  0.2501 -0.0457  0.0820
  402MOL0     C54173   0.068   3.484   9.505  0.4764  0.0819 -0.0267
  402MOL0     C54174   0.010   3.631   9.493 -0.7096 -0.1209  0.2474
  402MOL0     C54175  -0.143   3.631   9.526  0.1773  0.7953  0.5395
  402MOL0     C54176  -0.219   3.745   9.460  0.0830 -0.2707 -0.8631
  402MOL0     C54177  -0.175   3.877   9.514 -1.3888  0.1799 -0.4949
  402MOL0     C54178  -0.269   3.993   9.486  0.0855  0.2666  0.0028
  402MOL0     C54179  -0.241   4.062   9.345 -0.6657 -0.4447 -0.4513
  402MOL0    Cl54180  -0.347   4.015   9.214 -0.2253 -0.1552 -0.3267
  402MOL0     C54181   0.465   3.393   9.310  0.6835  0.2002 -0.5484
  402MOL0     C54182   0.598   3.402   9.275  0.0518  0.2107  0.6904
  402MOL0     O54183   0.843   3.528   9.190  0.3549 -0.2952 -0.6020
  402MOL0     C54184   1.096   3.289   9.288  0.3084  0.3690  0.8333
  402MOL0     C54185   1.233   3.265   9.278 -0.1531 -0.5438  0.4259
  402MOL0     N54186   2.126   3.457   8.987  0.1780  0.0413  0.6336
  402MOL0     N54187   2.215   3.543   9.013  0.2497 -0.0419 -0.0501
  402MOL0     C54188   3.310   3.864   9.217 -0.7316  0.2344  0.2478
  402MOL0     C54189   3.431   3.869   9.291  0.3977 -0.2242 -0.2650
  402MOL0     C54190   3.686   3.856   9.700  0.7230  0.2243 -0.0420
  402MOL0     C54191   3.798   3.887   9.621 -0.2569 -0.3208  0.9531
  402MOL0     C54192   3.923   3.898   9.677 -0.6270 -0.2155 -0.0287
  402MOL0     C54193   3.942   3.879   9.813  0.6369 -0.0997 -0.6759
  402MOL0     O54194   4.073   3.896   9.863 -0.2387 -0.3268  0.2539
  402MOL0     C54195   4.094   3.863   9.998  0.3472 -0.6752 -1.5152
  402MOL0     C54196   4.240   3.896  10.043  0.0314 -0.8034 -0.8481
  402MOL0     C54197   4.283   3.829  10.180 -0.9904 -0.8974  0.3123
  402MOL0     C54198   4.425   3.870  10.219  0.0838  0.5272 -0.6690
  402MOL0     C54199   4.527   3.799  10.139 -1.0846 -0.2198 -0.3260
  402MOL0     C54200   4.624   3.758  10.080 -0.4822 -0.5596 -0.5385
  402MOL0     C54201   3.832   3.847   9.895  0.2210  0.5089 -0.3437
  402MOL0     C54202   3.707   3.838   9.832  0.7471  0.2825  0.2795
  402MOL0     H54203   3.282   3.916   9.606 -2.4730 -3.6209  0.7649
  402MOL0     H54204   3.096   3.925   9.473  1.1534  2.2432  1.8534
  402MOL0     H54205   3.086   3.909   9.015  1.5237 -3.3008 -3.4750
  402MOL0     H54206   3.115   3.748   9.094  0.1259  0.7396 -0.7925
  402MOL0     H54207   2.845   3.901   9.087 -1.2053  0.3619  0.8315
  402MOL0     H54208   2.893   3.800   8.966  1.2736  2.3393  0.0190
  402MOL0     H54209   2.886   3.604   9.100  1.2520 -1.1035  1.3153
  402MOL0     H54210   2.916   3.694   9.251  0.7104  2.6064  0.2095
  402MOL0     H54211   2.708   3.803   9.250 -1.4658 -0.7605  0.9223
  402MOL0     H54212   2.660   3.703   9.100 -0.6803  2.7403  0.2906
  402MOL0     H54213   2.683   3.514   9.220 -1.0230  0.4692 -0.8979
  402MOL0     H54214   2.739   3.584   9.372 -0.9013 -1.0252  1.0691
  402MOL0     H54215   2.502   3.565   9.421 -1.8175  1.4402  1.0135
  402MOL0     H54216   2.490   3.724   9.361 -0.6165 -0.6162  3.2749
  402MOL0     H54217   2.464   3.542   9.138  0.2302  1.8251 -0.0589
  402MOL0     H54218   2.374   3.474   9.276 -0.5738  0.1265 -0.6777
  402MOL0     H54219   2.345   3.743   9.149 -1.8891  0.3704 -1.2077
  402MOL0     H54220   2.256   3.708   9.289  1.1297 -0.5757  1.0573
  402MOL0     H54221   2.046   3.561   9.286  2.2038 -2.2944  1.6574
  402MOL0     H54222   1.922   3.301   9.024  2.2634 -1.5177  0.5704
  402MOL0     H54223   1.964   3.302   9.196 -1.6575  0.2406  0.5483
  402MOL0     H54224   1.779   3.505   9.066  0.2780  0.1388  0.1898
  402MOL0     H54225   1.818   3.492   9.237  4.1895  0.3244 -0.5180
  402MOL0     H54226   1.693   3.282   9.263  0.1052 -1.2394  0.7399
  402MOL0     H54227   1.693   3.249   9.097 -3.1464 -0.1480 -0.7402
  402MOL0     H54228   1.533   3.422   9.055  1.2418 -0.8870 -0.7942
  402MOL0     H54229   1.544   3.486   9.216  2.0785 -0.5391  2.0774
  402MOL0     H54230   1.339   3.520   9.093 -0.3594  0.0116 -0.9136
  402MOL0     H54231   1.180   3.694   9.088 -1.5861 -0.9795 -5.5938
  402MOL0     H54232   1.032   3.617   9.041 -0.9267 -0.1274  1.1393
  402MOL0     H54233   1.052   3.689   9.213  1.2451  1.3630  1.0807
  402MOL0     H54234   0.745   3.335   9.561 -2.0569  0.0139  1.7519
  402MOL0     H54235   0.505   3.353   9.648 -2.3615  1.3766 -0.8318
  402MOL0     H54236   0.269   3.579   9.477  0.7779 -0.1744 -0.5813
  402MOL0     H54237   0.197   3.501   9.347 -0.8410  3.0230  0.5515
  402MOL0     H54238   0.008   3.413   9.447  3.4154 -1.7462 -1.0350
  402MOL0     H54239   0.065   3.456   9.610 -2.9862 -0.2635 -0.1185
  402MOL0     H54240   0.031   3.659   9.389  0.2595 -1.2665  0.1072
  402MOL0     H54241   0.055   3.718   9.542 -0.4968  0.7324 -1.3714
  402MOL0     H54242  -0.186   3.535   9.495 -0.7648  1.0184  1.1121
  402MOL0     H54243  -0.157   3.640   9.634  0.8811 -1.4748  0.8915
  402MOL0     H54244  -0.327   3.733   9.470  0.4847 -3.4884  0.8921
  402MOL0     H54245  -0.195   3.744   9.353  0.5895  0.4794 -0.7670
  402MOL0     H54246  -0.164   3.874   9.622 -1.5742  0.5437 -0.4657
  402MOL0     H54247  -0.072   3.895   9.482 -1.5300 -0.7489 -1.5303
  402MOL0     H54248  -0.252   4.066   9.566 -1.0444 -0.4233  0.9089
  402MOL0     H54249  -0.373   3.967   9.507  1.3549 -3.6240  2.6322
  402MOL0     H54250  -0.136   4.037   9.324 -0.5713 -0.2125 -0.2562
  402MOL0     H54251  -0.248   4.171   9.351  0.7856 -0.3343 -0.3159
  402MOL0     H54252   0.390   3.390   9.232  0.6510 -1.1300 -0.4789
  402MOL0     H54253   0.630   3.416   9.172  0.0603 -0.7091  0.5598
  402MOL0     H54254   1.038   3.211   9.338 -0.7862 -0.5678 -1.6717
  402MOL0     H54255   1.266   3.172   9.324  1.9493  0.8630  1.9303
  402MOL0     H54256   3.313   3.858   9.109 -0.4828  2.9341  0.0593
  402MOL0     H54257   3.526   3.845   9.246  0.3353 -2.0729  0.5038
  402MOL0     H54258   3.776   3.913   9.518 -2.3644 -0.6890  1.2614
  402MOL0     H54259   4.013   3.933   9.629  0.0623  0.1628  1.4835
  402MOL0     H54260   4.031   3.921  10.066  1.2683  0.5496 -1.6601
  402MOL0     H54261   4.090   3.755  10.010  1.9024 -0.6468 -0.4167
  402MOL0     H54262   4.254   4.004  10.042  2.3044 -1.0235  0.3369
  402MOL0     H54263   4.313   3.859   9.970  2.6186 -0.3818  1.3348
  402MOL0     H54264   4.269   3.721  10.185  2.7117 -1.6136 -1.5985
  402MOL0     H54265   4.216   3.877  10.252  1.1660  2.8376  0.0918
  402MOL0     H54266   4.428   3.840  10.324 -1.8747  0.3303 -0.6405
  402MOL0     H54267   4.421   3.980  10.223 -2.4185  0.4646  1.3645
  402MOL0     H54268   4.708   3.720  10.025  0.4866 -0.2792  0.7199
  402MOL0     H54269   3.843   3.829  10.001  2.8952  2.9249 -0.1126
  402MOL0     H54270   3.616   3.836   9.891  1.1772 -0.5364  0.9258
  403MOL0     O54271   3.323   1.304   7.416 -0.1922 -0.2093  0.1810
  403MOL0     C54272   3.367   1.402   7.481 -0.9969 -0.3931 -0.6068
  403MOL0     O54273   3.296   1.506   7.539  0.3110 -0.4661 -0.2516
  403MOL0     C54274   3.162   1.503   7.506 -1.1387 -0.1627 -0.1263
  403MOL0     C54275   3.110   1.612   7.429  0.5420 -0.1624 -0.5190
  403MOL0     C54276   2.969   1.631   7.412 -0.7069 -0.2404 -0.2650
  403MOL0     C54277   2.884   1.533   7.459  0.2595 -0.2251  0.6192
  403MOL0     O54278   2.750   1.551   7.452  0.2516 -0.0122  0.5669
  403MOL0     C54279   2.698   1.500   7.319 -0.3810 -0.0257  0.1628
  403MOL0     C54280   2.551   1.551   7.296 -0.3355  0.0227 -0.0376
  403MOL0     C54281   2.449   1.492   7.384 -0.2388 -0.2785 -0.2368
  403MOL0     C54282   2.441   1.336   7.363 -0.1449 -0.0655  0.7188
  403MOL0     C54283   2.319   1.282   7.426  0.1531 -0.3214  0.4748
  403MOL0     C54284   2.298   1.134   7.408 -0.4671  0.9126  0.6097
  403MOL0     C54285   2.167   1.095   7.472 -0.0344  0.0991 -0.6490
  403MOL0     C54286   2.158   1.098   7.630 -0.0528 -0.4099  0.5812
  403MOL0     N54287   2.273   1.037   7.687 -0.2741 -0.4079  0.2867
  403MOL0     C54288   2.381   1.099   7.740 -0.4291 -1.3664  0.3071
  403MOL0     C54289   2.469   0.999   7.755 -0.4116  0.0462  1.4153
  403MOL0     C54290   2.609   1.013   7.804 -1.1410  0.3801  0.0541
  403MOL0     C54291   2.701   1.057   7.689 -0.0202 -0.5569  0.9673
  403MOL0     C54292   2.805   0.949   7.666  0.3548 -0.1448 -0.3200
  403MOL0     C54293   2.891   0.984   7.547 -0.1151  0.2213  0.5814
  403MOL0     O54294   2.825   0.971   7.423  0.2540  0.3280 -0.0904
  403MOL0     C54295   2.794   0.836   7.382 -0.4203 -0.6152 -0.0124
  403MOL0     C54296   2.665   0.794   7.400  0.0249 -0.4819 -0.0483
  403MOL0     C54297   2.626   0.657   7.369 -0.3961  0.1271  0.5169
  403MOL0     C54298   2.490   0.608   7.396 -0.1170 -0.0459  0.1812
  403MOL0     C54299   2.722   0.577   7.294  0.2564 -0.1889 -0.2550
  403MOL0     C54300   2.701   0.437   7.252 -0.4629  0.1799 -0.9210
  403MOL0     O54301   2.577   0.400   7.203 -0.4554  0.1866  0.0377
  403MOL0     C54302   2.560   0.268   7.168 -0.6651 -0.5040 -0.2252
  403MOL0     C54303   2.458   0.190   7.230 -0.5156 -0.0394 -0.4503
  403MOL0     C54304   2.420   0.065   7.179 -0.9213 -0.2950 -0.7571
  403MOL0     C54305   2.484   0.017   7.066 -0.0535  0.4836 -0.0142
  403MOL0     O54306   2.451  -0.105   7.013  0.5007 -0.1144  0.2603
  403MOL0     C54307   2.553  -0.208   7.016  0.5318  0.6150 -0.0179
  403MOL0     C54308   2.485  -0.341   6.969  0.6621  0.4674  0.2277
  403MOL0     C54309   2.565  -0.468   7.009 -0.6305  0.2918  0.4628
  403MOL0     C54310   2.693  -0.490   6.921 -0.3796  0.0791 -0.0198
  403MOL0     C54311   2.746  -0.636   6.928  0.1918 -0.0792  1.2949
  403MOL0     C54312   2.857  -0.653   6.826 -0.1442 -0.0627  0.0895
  403MOL0     C54313   2.901  -0.803   6.804 -0.7461  0.7045 -0.9188
  403MOL0     C54314   2.989  -0.861   6.923  0.8541  0.9077 -0.1246
  403MOL0    Cl54315   3.159  -0.909   6.880 -0.2220 -0.7207 -0.2738
  403MOL0     C54316   2.591   0.098   6.997  0.8068  0.5583  1.3096
  403MOL0     C54317   2.629   0.216   7.052 -0.3180  0.5443 -0.0176
  403MOL0     O54318   2.803   0.365   7.244  0.5971 -0.5001 -0.0940
  403MOL0     C54319   2.847   0.630   7.269  0.2436  0.3005 -0.6031
  403MOL0     C54320   2.887   0.753   7.327  1.0145  0.0105  0.6786
  403MOL0     N54321   2.429   0.884   7.697 -0.4785 -0.5115 -0.6020
  403MOL0     N54322   2.304   0.907   7.663  0.8879 -0.5175  0.2220
  403MOL0     C54323   2.934   1.418   7.516  0.3569 -0.0253  0.9113
  403MOL0     C54324   3.077   1.407   7.554 -0.0555 -0.6091  0.2561
  403MOL0     C54325   3.511   1.414   7.478 -1.1373  0.7954  0.2648
  403MOL0     C54326   3.601   1.304   7.467  1.2340 -0.0146 -0.8848
  403MOL0     C54327   3.745   1.315   7.460  0.3431  0.0912 -0.2842
  403MOL0     C54328   3.795   1.442   7.490 -1.0317  0.9611 -0.2954
  403MOL0     O54329   3.937   1.450   7.499  0.5324  0.1487  0.1776
  403MOL0     C54330   4.024   1.348   7.448 -1.0479  0.5593 -0.3465
  403MOL0     C54331   4.179   1.379   7.471  1.3187  0.3568  0.2646
  403MOL0     C54332   4.250   1.446   7.346 -0.1803  0.5573 -0.1756
  403MOL0     C54333   4.253   1.356   7.223  0.6281  0.3597 -0.2337
  403MOL0     C54334   4.321   1.228   7.252 -0.2134 -0.1767  0.3406
  403MOL0     C54335   4.350   1.116   7.280 -0.0327  0.5668  0.4373
  403MOL0     C54336   3.709   1.554   7.510 -0.1447 -0.0012 -0.0467
  403MOL0     C54337   3.570   1.539   7.493  0.1496  1.2368  0.5789
  403MOL0     H54338   3.176   1.687   7.385  1.5664 -0.8573 -0.2010
  403MOL0     H54339   2.929   1.713   7.352 -4.1489 -1.2667  0.3974
  403MOL0     H54340   2.750   1.537   7.230  0.4227  0.0811  0.6709
  403MOL0     H54341   2.704   1.390   7.320 -0.1302 -0.1358 -2.9351
  403MOL0     H54342   2.552   1.660   7.308  1.7500 -0.0472  1.0051
  403MOL0     H54343   2.530   1.533   7.191 -1.0625 -1.8636  0.3982
  403MOL0     H54344   2.465   1.515   7.489 -2.8585  0.3426  0.0972
  403MOL0     H54345   2.353   1.531   7.347  0.4599 -0.1537 -2.0058
  403MOL0     H54346   2.443   1.323   7.255  0.5491  1.7754  0.4764
  403MOL0     H54347   2.529   1.296   7.413  0.2661 -0.6705 -0.4672
  403MOL0     H54348   2.328   1.314   7.530  1.0954  5.1203 -0.9353
  403MOL0     H54349   2.225   1.327   7.392  1.7280  4.0054  1.2534
  403MOL0     H54350   2.305   1.113   7.301 -0.4278  2.0277  0.3880
  403MOL0     H54351   2.375   1.083   7.467 -2.0589 -0.9566  1.2000
  403MOL0     H54352   2.097   1.164   7.425  1.6876  0.2444 -3.1581
  403MOL0     H54353   2.149   0.992   7.440  0.4513 -0.3260  0.3884
  403MOL0     H54354   2.068   1.044   7.663 -1.7434  0.2651 -2.4629
  403MOL0     H54355   2.159   1.201   7.667 -0.3222 -1.0095  2.3575
  403MOL0     H54356   2.370   1.203   7.769 -2.8240 -1.3572 -0.3995
  403MOL0     H54357   2.605   1.084   7.887 -0.0280 -1.7457  2.0595
  403MOL0     H54358   2.651   0.919   7.841 -1.7570 -0.0080 -0.2134
  403MOL0     H54359   2.745   1.152   7.719 -2.9210  0.5915  1.9795
  403MOL0     H54360   2.652   1.081   7.594  1.9014  1.3817  0.4024
  403MOL0     H54361   2.760   0.852   7.646  2.4680 -0.8434 -2.1119
  403MOL0     H54362   2.869   0.923   7.750  1.3506 -0.3049 -1.1120
  403MOL0     H54363   2.980   0.921   7.538 -0.6926 -0.2953 -2.9398
  403MOL0     H54364   2.930   1.086   7.560  0.0488  0.0997  1.0578
  403MOL0     H54365   2.589   0.858   7.443 -0.4153 -1.2786  0.3784
  403MOL0     H54366   2.450   0.641   7.493 -0.0840 -0.7520  0.4369
  403MOL0     H54367   2.415   0.638   7.322 -0.2153 -2.0436 -0.5906
  403MOL0     H54368   2.506   0.501   7.410  2.4670  0.5706  3.0694
  403MOL0     H54369   2.405   0.233   7.315 -0.9674 -0.4957 -0.4947
  403MOL0     H54370   2.336   0.008   7.216 -1.4840  0.5518 -0.6925
  403MOL0     H54371   2.639  -0.189   6.951  2.0521  0.1083  1.7445
  403MOL0     H54372   2.587  -0.212   7.120 -1.0951  1.4466  0.5653
  403MOL0     H54373   2.384  -0.353   7.009 -1.2137  1.9509 -3.5345
  403MOL0     H54374   2.469  -0.330   6.861  1.3130 -1.5434 -0.1141
  403MOL0     H54375   2.503  -0.557   6.990 -1.6759  0.9052  0.9269
  403MOL0     H54376   2.589  -0.462   7.115 -2.8102  3.7756  0.9172
  403MOL0     H54377   2.673  -0.468   6.815  1.0964  1.0359 -0.1355
  403MOL0     H54378   2.773  -0.425   6.958  1.4818 -2.4205  0.6510
  403MOL0     H54379   2.658  -0.694   6.899 -0.9286  1.9072  0.4862
  403MOL0     H54380   2.779  -0.654   7.030  1.1606  2.0675  1.4177
  403MOL0     H54381   2.835  -0.613   6.726  1.6312  2.4383  0.6169
  403MOL0     H54382   2.941  -0.600   6.871 -1.7651  1.4151  1.5375
  403MOL0     H54383   2.949  -0.801   6.706  0.5736 -1.3921 -0.4060
  403MOL0     H54384   2.812  -0.862   6.780  0.2210 -1.0972 -0.2549
  403MOL0     H54385   2.946  -0.953   6.963  1.0463  1.3658  1.2072
  403MOL0     H54386   2.982  -0.784   7.001 -0.9939 -0.3646  1.0564
  403MOL0     H54387   2.637   0.058   6.907 -3.1776  0.0032 -0.6790
  403MOL0     H54388   2.703   0.273   6.998 -0.6799 -1.2610 -2.6439
  403MOL0     H54389   2.922   0.571   7.216 -0.2916 -3.2616  2.1870
  403MOL0     H54390   2.991   0.782   7.322  1.1058 -0.5634 -1.4251
  403MOL0     H54391   2.871   1.332   7.537  1.0276 -1.3692 -2.0172
  403MOL0     H54392   3.117   1.325   7.614  1.5679 -0.2474 -0.2588
  403MOL0     H54393   3.561   1.203   7.473 -0.7879  0.7256 -1.1828
  403MOL0     H54394   3.800   1.227   7.431 -0.9707 -0.4772 -1.1557
  403MOL0     H54395   3.998   1.269   7.520 -2.6531  1.2342 -0.1435
  403MOL0     H54396   3.999   1.310   7.349  1.5351 -0.2381 -0.7760
  403MOL0     H54397   4.231   1.287   7.501  0.6205 -0.3197 -0.5262
  403MOL0     H54398   4.174   1.451   7.553 -3.9130  1.2851 -0.5129
  403MOL0     H54399   4.353   1.476   7.367  0.4645 -1.2640 -0.5539
  403MOL0     H54400   4.194   1.534   7.314  1.2495  1.3796 -0.4503
  403MOL0     H54401   4.294   1.416   7.141 -3.8161 -1.3003 -4.1480
  403MOL0     H54402   4.149   1.338   7.198 -0.6430  2.1040  3.1493
  403MOL0     H54403   4.385   1.019   7.308 -0.3714  1.0700  2.8329
  403MOL0     H54404   3.756   1.649   7.530  0.2652  0.2150 -1.9007
  403MOL0     H54405   3.511   1.629   7.505 -1.6685 -0.1459  3.3179
  404MOL0     O54406   7.579   7.371   0.536  0.2163 -0.4600 -0.0943
  404MOL0     C54407   7.510   7.470   0.571  1.1827 -0.9267 -0.1992
  404MOL0     O54408   7.539   7.554   0.676 -0.1650  0.2416 -0.1639
  404MOL0     C54409   7.648   7.504   0.752  0.1414 -0.8134  0.3587
  404MOL0     C54410   7.637   7.488   0.890 -0.1116 -1.0182 -0.7981
  404MOL0     C54411   7.752   7.466   0.969  0.1247 -0.3998 -0.7193
  404MOL0     C54412   7.873   7.435   0.914  1.2684  0.0378 -0.0987
  404MOL0     O54413   7.976   7.397   0.994  0.2140 -0.7413 -1.0690
  404MOL0     C54414   8.049   7.497   1.061  0.5262  0.1789 -0.4259
  404MOL0     C54415   8.181   7.514   0.982  0.5188 -0.0764  0.2298
  404MOL0     C54416   8.293   7.430   1.040 -0.5285  0.4000 -0.0024
  404MOL0     C54417   8.431   7.473   0.989  0.8306  0.3556 -0.3313
  404MOL0     C54418   8.538   7.375   1.044  0.0327 -0.4359  0.2071
  404MOL0     C54419   8.574   7.369   1.191  0.9797  0.0982 -1.1037
  404MOL0     C54420   8.695   7.290   1.220  0.0849 -0.6256 -0.3923
  404MOL0     C54421   8.754   7.352   1.344  0.7076  0.1173 -0.2325
  404MOL0     N54422   8.881   7.286   1.383  0.6654 -0.1184 -0.6780
  404MOL0     C54423   9.001   7.323   1.329  0.0526 -0.0044 -0.0414
  404MOL0     C54424   9.089   7.222   1.354  0.1433  0.7235 -0.3542
  404MOL0     C54425   9.231   7.221   1.311  0.0628 -0.1616  0.0862
  404MOL0     C54426   9.326   7.259   1.424  0.1786 -0.4437 -0.2805
  404MOL0     C54427   9.335   7.155   1.533 -0.7326 -0.0492  0.3090
  404MOL0     C54428   9.436   7.195   1.643  0.2059 -0.7183 -0.6827
  404MOL0     O54429   9.485   7.093   1.725 -0.8054 -0.3092  0.3162
  404MOL0     C54430   9.394   7.002   1.776 -0.3204 -0.6253  0.3205
  404MOL0     C54431   9.402   6.866   1.736  0.2086 -0.2334  0.1433
  404MOL0     C54432   9.311   6.775   1.790 -0.6519  2.1058 -0.7870
  404MOL0     C54433   9.333   6.627   1.769  0.8802 -0.0817 -0.0603
  404MOL0     C54434   9.214   6.822   1.882  0.3698  0.3843  0.1991
  404MOL0     C54435   9.126   6.728   1.948  0.2845  0.2964 -0.8425
  404MOL0     O54436   9.172   6.643   2.047 -1.2432 -0.0653  0.5356
  404MOL0     C54437   9.075   6.557   2.090 -0.4072  0.3470  0.1818
  404MOL0     C54438   9.068   6.429   2.041 -1.0137  0.1557  0.1770
  404MOL0     C54439   8.984   6.333   2.098  0.8320  0.9170 -0.0967
  404MOL0     C54440   8.915   6.367   2.215 -0.3041 -0.7238  1.0864
  404MOL0     O54441   8.844   6.283   2.291  0.4402  0.0745  0.4170
  404MOL0     C54442   8.728   6.219   2.217 -0.6100  0.2187  0.6449
  404MOL0     C54443   8.628   6.325   2.182 -0.4968 -0.2881 -0.7982
  404MOL0     C54444   8.493   6.270   2.145 -0.4209  0.8830 -0.5654
  404MOL0     C54445   8.478   6.239   2.000 -0.1471  0.2653  0.7733
  404MOL0     C54446   8.336   6.213   1.968  0.0634  0.0183 -0.5028
  404MOL0     C54447   8.320   6.166   1.816  0.0597  0.0682  0.4803
  404MOL0     C54448   8.179   6.151   1.768 -0.6842 -0.1938  0.1066
  404MOL0     C54449   8.151   6.009   1.726 -0.4385 -0.6202  0.7884
  404MOL0    Cl54450   7.982   6.004   1.670  0.5299 -0.2441 -0.1470
  404MOL0     C54451   8.921   6.500   2.261  0.2604 -0.5925  0.1298
  404MOL0     C54452   9.007   6.594   2.205 -0.1750 -1.1421 -0.7611
  404MOL0     O54453   9.009   6.743   1.917 -0.1514  0.9843  0.5193
  404MOL0     C54454   9.199   6.956   1.915  0.2009 -0.3279  0.6457
  404MOL0     C54455   9.296   7.050   1.866  0.3723  0.4182 -0.0548
  404MOL0     N54456   9.021   7.126   1.434  0.1025  0.0687  0.3002
  404MOL0     N54457   8.902   7.174   1.456 -0.1135  0.5525  0.0664
  404MOL0     C54458   7.884   7.456   0.778 -0.1720  0.3402 -0.5593
  404MOL0     C54459   7.773   7.494   0.699  0.4100  0.6651 -0.4220
  404MOL0     C54460   7.378   7.487   0.510 -0.2737  0.3067 -0.5959
  404MOL0     C54461   7.342   7.415   0.396  0.3557 -0.8940  0.6687
  404MOL0     C54462   7.216   7.428   0.334  0.6549 -0.6647  0.9328
  404MOL0     C54463   7.119   7.510   0.393 -0.0446  0.2918 -0.1595
  404MOL0     O54464   6.989   7.527   0.352 -0.5774 -0.5037  0.6207
  404MOL0     C54465   6.938   7.450   0.238  0.6411  0.2286 -0.8376
  404MOL0     C54466   6.983   7.507   0.103  0.4164  0.8415  0.0296
  404MOL0     C54467   6.953   7.403  -0.007 -0.4597 -0.4787 -0.3842
  404MOL0     C54468   7.018   7.449  -0.141 -1.0471  0.6988  0.1544
  404MOL0     C54469   7.164   7.427  -0.141 -0.1544 -0.7191  0.1084
  404MOL0     C54470   7.286   7.407  -0.134  0.5897 -0.7696 -0.1812
  404MOL0     C54471   7.157   7.591   0.507  0.7244 -0.2485 -1.4620
  404MOL0     C54472   7.286   7.572   0.570  0.6089 -0.5686 -0.0643
  404MOL0     H54473   7.541   7.514   0.934  1.5132  3.5742  0.5947
  404MOL0     H54474   7.737   7.441   1.074  0.2611  0.4367 -0.4929
  404MOL0     H54475   7.988   7.588   1.056  0.5181  0.1403 -1.0849
  404MOL0     H54476   8.065   7.463   1.164 -0.3500  0.0126 -0.3362
  404MOL0     H54477   8.156   7.499   0.877 -0.6166  3.9547 -0.2417
  404MOL0     H54478   8.199   7.622   0.987  0.2900  0.0130 -0.7906
  404MOL0     H54479   8.282   7.424   1.149 -4.1734 -3.6817 -0.3439
  404MOL0     H54480   8.284   7.324   1.013 -0.4464 -0.0244  1.4959
  404MOL0     H54481   8.433   7.470   0.880 -0.0071  1.8475 -0.4177
  404MOL0     H54482   8.448   7.576   1.022  1.0973  0.6285 -1.2854
  404MOL0     H54483   8.514   7.270   1.028 -0.9227 -0.6323  2.5622
  404MOL0     H54484   8.626   7.410   0.988 -1.1895 -0.6170 -1.9105
  404MOL0     H54485   8.580   7.474   1.220 -3.3197  1.1595 -3.2849
  404MOL0     H54486   8.493   7.319   1.244  1.3032  0.1645 -0.5448
  404MOL0     H54487   8.676   7.183   1.231  1.7740 -0.9108  0.1143
  404MOL0     H54488   8.777   7.310   1.150  1.4596  1.7856  1.6967
  404MOL0     H54489   8.683   7.340   1.426 -0.0853 -3.8061 -1.2941
  404MOL0     H54490   8.775   7.457   1.324  1.5182  0.5471  2.4806
  404MOL0     H54491   9.014   7.407   1.261  1.0509  0.2010  0.3918
  404MOL0     H54492   9.253   7.120   1.273 -3.7115 -1.1309  0.0930
  404MOL0     H54493   9.257   7.296   1.236  0.6713 -0.7040 -0.2636
  404MOL0     H54494   9.288   7.347   1.477  0.0590  0.5919 -2.0230
  404MOL0     H54495   9.423   7.293   1.386 -0.1083 -0.6848 -1.2382
  404MOL0     H54496   9.372   7.063   1.488 -2.7420 -1.6361  1.6759
  404MOL0     H54497   9.237   7.129   1.575  0.0564 -1.8762  1.1503
  404MOL0     H54498   9.392   7.276   1.701 -0.6523 -0.2054 -1.9878
  404MOL0     H54499   9.525   7.229   1.589 -0.1636 -2.7121 -2.7265
  404MOL0     H54500   9.470   6.830   1.660  0.3895  1.6889 -0.6368
  404MOL0     H54501   9.361   6.582   1.865  0.6377  1.2016  0.6332
  404MOL0     H54502   9.234   6.593   1.738 -0.4042  0.9247  2.6358
  404MOL0     H54503   9.413   6.608   1.696  0.5615  0.4520 -0.5575
  404MOL0     H54504   9.134   6.414   1.956  0.7332  0.2876  1.4659
  404MOL0     H54505   8.976   6.231   2.062  0.3530  1.4355 -1.5518
  404MOL0     H54506   8.757   6.157   2.131  0.0533  2.0995 -0.5558
  404MOL0     H54507   8.676   6.159   2.292 -2.4762  0.8759 -0.0733
  404MOL0     H54508   8.612   6.407   2.253  0.8804 -0.9574  0.3193
  404MOL0     H54509   8.672   6.374   2.095  2.0287  0.5045  0.8257
  404MOL0     H54510   8.423   6.349   2.175 -1.2482  0.9207 -2.4755
  404MOL0     H54511   8.467   6.176   2.195 -0.3794  0.7124 -0.8639
  404MOL0     H54512   8.520   6.313   1.931  4.1085 -0.3892  2.3800
  404MOL0     H54513   8.543   6.156   1.972  3.0185  2.1005  2.1839
  404MOL0     H54514   8.284   6.306   1.991 -0.6820  0.0600 -2.2748
  404MOL0     H54515   8.288   6.148   2.042  0.2849  1.1321  0.6538
  404MOL0     H54516   8.365   6.243   1.753 -2.0214  2.5986  1.8984
  404MOL0     H54517   8.377   6.073   1.803 -1.1189 -0.4342 -1.6160
  404MOL0     H54518   8.150   6.210   1.680 -2.3738 -0.5765  0.3726
  404MOL0     H54519   8.109   6.186   1.843 -0.5464 -1.5123  0.8848
  404MOL0     H54520   8.164   5.947   1.815 -1.5977  0.4610  1.7340
  404MOL0     H54521   8.220   5.988   1.643  1.2696  1.1633  1.6703
  404MOL0     H54522   8.871   6.525   2.354 -2.2066 -2.0150 -0.7161
  404MOL0     H54523   9.022   6.692   2.248 -3.5814 -1.1717  0.7948
  404MOL0     H54524   9.126   6.987   1.988  0.5666 -0.8187  1.2271
  404MOL0     H54525   9.288   7.157   1.880 -1.6311 -0.0248  2.9826
  404MOL0     H54526   7.984   7.440   0.739  0.0666 -0.8910  0.4784
  404MOL0     H54527   7.798   7.528   0.599 -1.5142  0.9382 -0.8419
  404MOL0     H54528   7.409   7.348   0.342 -0.6372 -0.5743 -1.0195
  404MOL0     H54529   7.192   7.369   0.247 -1.4851 -0.9495  1.6697
  404MOL0     H54530   6.945   7.341   0.243 -1.1052 -0.3570 -5.8348
  404MOL0     H54531   6.833   7.478   0.247  0.9821  0.9165  2.3020
  404MOL0     H54532   7.090   7.528   0.112  0.4779  0.8282 -0.6324
  404MOL0     H54533   6.930   7.601   0.081 -1.0217 -0.1466 -0.9397
  404MOL0     H54534   6.845   7.402  -0.028 -0.4273  0.5444 -0.6680
  404MOL0     H54535   6.986   7.308   0.036  1.3752  0.7299  1.0248
  404MOL0     H54536   6.999   7.556  -0.152 -0.6067  0.9234  1.3262
  404MOL0     H54537   6.965   7.393  -0.218  0.3427  0.9373 -1.0293
  404MOL0     H54538   7.389   7.383  -0.112  0.0482 -0.2945  3.6721
  404MOL0     H54539   7.083   7.661   0.543 -1.0324 -2.9929  0.7286
  404MOL0     H54540   7.288   7.628   0.663 -0.9956  1.8586 -1.3527
  405MOL0     O54541   2.719   2.132   0.886  0.8696  0.4260  0.5413
  405MOL0     C54542   2.714   2.088   1.002  0.4220  0.0314  0.6749
  405MOL0     O54543   2.607   2.031   1.064 -0.1889 -0.6121  0.1182
  405MOL0     C54544   2.492   2.021   0.994 -0.3448 -0.1162  0.9496
  405MOL0     C54545   2.426   1.895   1.015 -0.2163 -0.6652 -0.0514
  405MOL0     C54546   2.313   1.857   0.937 -0.0849 -0.5497 -0.8723
  405MOL0     C54547   2.262   1.954   0.855  0.7855  1.3261  0.3345
  405MOL0     O54548   2.138   1.911   0.812  0.1692 -0.2190  0.5580
  405MOL0     C54549   2.122   1.881   0.671  0.1411 -0.6041 -0.1730
  405MOL0     C54550   1.972   1.880   0.647 -0.1468 -0.4303  0.0560
  405MOL0     C54551   1.913   2.014   0.700  0.0673  0.3992  0.1713
  405MOL0     C54552   1.917   2.133   0.606  0.2634  0.1742  0.2861
  405MOL0     C54553   1.863   2.254   0.669 -0.2787 -0.1826  0.8821
  405MOL0     C54554   1.848   2.362   0.555 -0.7835 -0.5291 -0.2247
  405MOL0     C54555   1.799   2.505   0.613 -0.7628  0.4691  0.2405
  405MOL0     C54556   1.757   2.612   0.516 -0.2100 -0.2844  0.3413
  405MOL0     N54557   1.643   2.563   0.439  0.5174  0.2205 -0.2018
  405MOL0     C54558   1.507   2.561   0.482 -0.3523  0.4180 -0.5428
  405MOL0     C54559   1.444   2.478   0.397  0.4436  0.0319 -0.2790
  405MOL0     C54560   1.305   2.434   0.395 -0.3685  0.1556 -0.3080
  405MOL0     C54561   1.220   2.502   0.278 -0.0889  0.7520  0.6874
  405MOL0     C54562   1.071   2.494   0.315  0.1503 -0.2726 -0.3314
  405MOL0     C54563   1.048   2.621   0.402 -0.2755  0.9113 -0.5888
  405MOL0     O54564   0.918   2.623   0.456  0.6750 -0.0409  0.2667
  405MOL0     C54565   0.807   2.653   0.375 -0.2652 -0.1597 -0.0133
  405MOL0     C54566   0.682   2.615   0.434 -0.3697  0.6927  0.2921
  405MOL0     C54567   0.562   2.629   0.377  1.5302 -0.8316 -0.2071
  405MOL0     C54568   0.440   2.595   0.465 -0.2824  0.3524 -0.6232
  405MOL0     C54569   0.565   2.667   0.238 -0.2950 -0.3774 -0.5825
  405MOL0     C54570   0.441   2.665   0.160  0.0550  0.0677  0.7911
  405MOL0     O54571   0.420   2.785   0.095 -0.8203 -0.0645 -0.0885
  405MOL0     C54572   0.322   2.818   0.009 -0.6482 -0.4423 -0.2322
  405MOL0     C54573   0.343   2.883  -0.109 -0.3120 -0.6817 -0.2153
  405MOL0     C54574   0.239   2.912  -0.200  0.2353  0.2587  0.2036
  405MOL0     C54575   0.107   2.869  -0.160 -0.1020  0.1513 -0.1080
  405MOL0     O54576   0.005   2.887  -0.256  0.0346  0.4539  0.4208
  405MOL0     C54577  -0.105   2.953  -0.203  0.6223 -0.3657  0.4643
  405MOL0     C54578  -0.081   3.091  -0.175 -0.4465  0.3893  0.1090
  405MOL0     C54579  -0.009   3.163  -0.293 -1.0196 -0.2539  1.0203
  405MOL0     C54580  -0.096   3.178  -0.421  0.4124 -0.5475  0.1723
  405MOL0     C54581  -0.034   3.270  -0.524 -0.5710  0.2931  0.7528
  405MOL0     C54582  -0.064   3.420  -0.493 -0.6492  1.0762 -0.3333
  405MOL0     C54583   0.032   3.526  -0.547  0.6043 -0.3819  0.1923
  405MOL0     C54584   0.162   3.521  -0.474  0.9691 -0.0935 -0.5231
  405MOL0    Cl54585   0.310   3.582  -0.562 -0.7858 -0.4541  0.2214
  405MOL0     C54586   0.081   2.804  -0.039  0.9427  0.0600  0.4570
  405MOL0     C54587   0.186   2.789   0.047 -0.6600 -0.6532  0.1637
  405MOL0     O54588   0.382   2.555   0.136  0.6764 -0.0113 -0.0174
  405MOL0     C54589   0.685   2.707   0.174  0.6731 -0.0414 -0.4746
  405MOL0     C54590   0.809   2.706   0.244  0.5679 -0.3494  0.5848
  405MOL0     N54591   1.541   2.440   0.300  0.0523  0.2843 -0.1776
  405MOL0     N54592   1.655   2.489   0.326  0.1128 -0.8274 -0.7770
  405MOL0     C54593   2.318   2.087   0.845  0.3199 -0.2102  0.3095
  405MOL0     C54594   2.435   2.120   0.908 -0.8002 -0.1241 -0.4311
  405MOL0     C54595   2.839   2.098   1.071  0.0756 -0.4280 -0.2719
  405MOL0     C54596   2.852   2.047   1.204  0.3949 -0.4386 -0.0828
  405MOL0     C54597   2.977   2.038   1.263 -0.5237  0.5722  0.3011
  405MOL0     C54598   3.095   2.087   1.198 -0.0166 -0.7637  0.5348
  405MOL0     O54599   3.223   2.105   1.245 -0.0359 -0.4233 -0.0004
  405MOL0     C54600   3.269   2.020   1.354 -0.2318 -0.3563  0.5356
  405MOL0     C54601   3.425   2.016   1.343 -0.0611 -0.6154  0.2190
  405MOL0     C54602   3.488   2.154   1.319 -0.3546 -0.2854  0.5352
  405MOL0     C54603   3.642   2.158   1.298 -0.4199  0.0766  0.5078
  405MOL0     C54604   3.707   2.087   1.410 -0.7107 -0.7184 -0.3803
  405MOL0     C54605   3.769   2.026   1.498  0.4657  0.5599 -0.6640
  405MOL0     C54606   3.075   2.151   1.077 -0.1078  0.2019  0.1184
  405MOL0     C54607   2.950   2.159   1.017 -0.1204  0.3074 -0.1508
  405MOL0     H54608   2.489   1.823   1.067  1.5779 -0.1671 -1.4221
  405MOL0     H54609   2.277   1.755   0.949  0.8157 -0.7974 -0.1207
  405MOL0     H54610   2.167   1.956   0.606 -1.0218 -0.5290 -0.9250
  405MOL0     H54611   2.165   1.782   0.652 -1.1388 -1.5727  1.6915
  405MOL0     H54612   1.952   1.857   0.542  2.8758 -3.7420  0.0417
  405MOL0     H54613   1.924   1.806   0.711 -1.5957 -0.7949 -1.4045
  405MOL0     H54614   1.809   1.993   0.726 -0.1661  1.6593  0.3268
  405MOL0     H54615   1.973   2.049   0.784  0.6180 -1.3684  0.5649
  405MOL0     H54616   2.019   2.145   0.567  0.1847  2.5937  0.6865
  405MOL0     H54617   1.851   2.095   0.527 -0.0863 -2.5177  1.7579
  405MOL0     H54618   1.765   2.234   0.712 -0.5106 -0.4961  0.2323
  405MOL0     H54619   1.929   2.288   0.749 -0.0070  1.3705  0.0449
  405MOL0     H54620   1.947   2.377   0.511 -1.0055 -0.5750 -0.7435
  405MOL0     H54621   1.775   2.335   0.478  1.2122 -0.0428 -2.3715
  405MOL0     H54622   1.713   2.501   0.679 -0.4916  2.6852  0.8067
  405MOL0     H54623   1.885   2.551   0.664 -1.1142  1.8487 -0.3630
  405MOL0     H54624   1.842   2.632   0.450 -0.9635  0.0638 -0.5486
  405MOL0     H54625   1.729   2.698   0.577  1.4488 -0.5875  1.5623
  405MOL0     H54626   1.461   2.620   0.561  0.6147  0.0982  0.2831
  405MOL0     H54627   1.317   2.326   0.384  0.4938  0.0761  1.1832
  405MOL0     H54628   1.268   2.460   0.495  0.8597  1.8020 -0.2488
  405MOL0     H54629   1.227   2.439   0.189 -3.0250 -0.6930  1.3375
  405MOL0     H54630   1.246   2.604   0.246 -2.6231  1.3243  0.2678
  405MOL0     H54631   1.064   2.411   0.385  0.8278  1.7731  2.3440
  405MOL0     H54632   1.007   2.480   0.228  1.1436 -2.1919 -0.8106
  405MOL0     H54633   1.076   2.709   0.343 -0.3866  3.1760  2.4913
  405MOL0     H54634   1.119   2.616   0.485 -0.9804 -0.4064 -0.0302
  405MOL0     H54635   0.685   2.593   0.540 -4.6609  0.5939  0.5709
  405MOL0     H54636   0.439   2.638   0.565  0.8191 -0.2335 -0.3436
  405MOL0     H54637   0.348   2.630   0.416 -0.1511  0.4080 -0.8278
  405MOL0     H54638   0.440   2.487   0.479 -0.0683  0.4865  0.4437
  405MOL0     H54639   0.444   2.913  -0.134 -0.4924  0.5616  0.4681
  405MOL0     H54640   0.239   2.967  -0.294 -2.2323  0.6083  0.3325
  405MOL0     H54641  -0.187   2.941  -0.274 -0.4919  0.4417  1.5597
  405MOL0     H54642  -0.146   2.902  -0.115  0.1949 -0.2974  0.3081
  405MOL0     H54643  -0.167   3.153  -0.147 -0.2832 -0.5395  2.9986
  405MOL0     H54644  -0.012   3.105  -0.091  0.3429  0.6638 -0.5714
  405MOL0     H54645   0.091   3.127  -0.319 -1.5138 -1.2636  0.4820
  405MOL0     H54646   0.020   3.262  -0.256  0.9164 -0.3483 -0.1180
  405MOL0     H54647  -0.112   3.078  -0.463 -1.6265 -0.7605  1.3129
  405MOL0     H54648  -0.200   3.203  -0.400  0.4527 -0.0084 -0.2580
  405MOL0     H54649  -0.074   3.233  -0.619 -2.1806  0.0387  1.4818
  405MOL0     H54650   0.072   3.245  -0.516 -0.2261 -1.2803 -4.6475
  405MOL0     H54651  -0.166   3.441  -0.525 -1.1458  0.3869  0.7422
  405MOL0     H54652  -0.062   3.421  -0.383 -1.3092 -1.3379 -0.2534
  405MOL0     H54653  -0.016   3.623  -0.534  2.2343  0.1969  2.6873
  405MOL0     H54654   0.044   3.500  -0.653 -1.9950 -0.5287 -0.1345
  405MOL0     H54655   0.187   3.416  -0.457 -1.5844 -0.7110 -0.2471
  405MOL0     H54656   0.151   3.565  -0.374  1.9360  2.7809 -1.5755
  405MOL0     H54657  -0.018   2.768  -0.011 -0.2630  1.4048 -1.7692
  405MOL0     H54658   0.161   2.751   0.145  0.1595  0.7046  0.9400
  405MOL0     H54659   0.694   2.730   0.068 -0.8319 -0.2953 -0.6690
  405MOL0     H54660   0.883   2.750   0.179 -0.4577  1.9244  0.8559
  405MOL0     H54661   2.264   2.168   0.796 -1.9605 -0.9419  1.4710
  405MOL0     H54662   2.474   2.220   0.895 -4.0215  1.7204  2.5029
  405MOL0     H54663   2.770   2.005   1.261 -2.0549 -0.9453 -3.6222
  405MOL0     H54664   3.003   1.995   1.359  1.1106  0.5075 -0.1463
  405MOL0     H54665   3.246   2.064   1.452  1.3257  2.3131 -0.1972
  405MOL0     H54666   3.228   1.919   1.344 -0.1834 -0.3468  0.2115
  405MOL0     H54667   3.454   1.959   1.253 -2.3978  0.8989 -1.6011
  405MOL0     H54668   3.463   1.962   1.430  1.1139  2.1042  1.4785
  405MOL0     H54669   3.460   2.217   1.404 -1.0119 -1.4234  1.1889
  405MOL0     H54670   3.446   2.201   1.229  1.0090 -1.1037 -0.5618
  405MOL0     H54671   3.681   2.260   1.299 -2.3952  0.9361 -1.6096
  405MOL0     H54672   3.664   2.111   1.202 -1.8398 -1.2575  0.7876
  405MOL0     H54673   3.825   1.967   1.568 -0.3636 -1.2389 -1.4646
  405MOL0     H54674   3.158   2.189   1.017 -2.5230  0.1355 -3.6201
  405MOL0     H54675   2.944   2.202   0.917  0.7874  2.3913  0.6244
  406MOL0     O54676   1.592  10.694   9.489  0.5907  0.3685  0.0765
  406MOL0     C54677   1.678  10.616   9.443  0.6485  0.6683  1.1600
  406MOL0     O54678   1.664  10.520   9.340 -0.1248 -0.3150  0.7370
  406MOL0     C54679   1.539  10.510   9.279 -0.4191  1.0544  0.2827
  406MOL0     C54680   1.519  10.573   9.154  0.0616  0.0719  0.0870
  406MOL0     C54681   1.399  10.547   9.078 -0.0488  0.2922  0.7434
  406MOL0     C54682   1.296  10.486   9.142 -0.0771  0.0450 -0.1623
  406MOL0     O54683   1.181  10.469   9.072  0.1782 -0.5177  0.0450
  406MOL0     C54684   1.179  10.372   8.969  1.1079 -0.7786 -0.6276
  406MOL0     C54685   1.045  10.378   8.896  0.4684 -0.5914 -0.1903
  406MOL0     C54686   1.020  10.271   8.790  0.9586  0.0730  0.1345
  406MOL0     C54687   0.875  10.290   8.735  0.3287  0.3112 -0.2667
  406MOL0     C54688   0.863  10.389   8.624 -0.7125  0.0926  0.6564
  406MOL0     C54689   0.719  10.410   8.576 -0.9756 -0.3889  1.3573
  406MOL0     C54690   0.639  10.290   8.519  0.5601  0.1372 -0.4131
  406MOL0     C54691   0.496  10.328   8.468 -0.4225 -0.4585 -0.5109
  406MOL0     N54692   0.432  10.209   8.413  0.3515 -0.4273 -1.2231
  406MOL0     C54693   0.360  10.119   8.491 -0.6084  0.1648 -0.0909
  406MOL0     C54694   0.312  10.026   8.405 -0.5843  1.7035 -0.2241
  406MOL0     C54695   0.232   9.907   8.441  0.7537 -0.2631 -0.1209
  406MOL0     C54696   0.297   9.768   8.408 -0.2889 -1.1651 -0.1909
  406MOL0     C54697   0.200   9.651   8.451 -0.2249 -1.2200  0.2675
  406MOL0     C54698   0.182   9.605   8.592 -0.7172  1.2011 -0.8976
  406MOL0     O54699   0.099   9.691   8.670  0.0458 -0.4510 -0.5033
  406MOL0     C54700  -0.037   9.685   8.683  1.4506  0.3887 -0.4321
  406MOL0     C54701  -0.106   9.788   8.747 -0.2242  0.0462  0.0740
  406MOL0     C54702  -0.247   9.785   8.767 -0.0497 -0.0132  0.5826
  406MOL0     C54703  -0.308   9.914   8.819 -0.1408 -0.4732  0.3478
  406MOL0     C54704  -0.321   9.674   8.718  0.8125 -0.0942 -0.1046
  406MOL0     C54705  -0.473   9.664   8.715  0.3092  1.0279 -0.2664
  406MOL0     O54706  -0.534   9.586   8.619  0.1616 -0.0892  0.2261
  406MOL0     C54707  -0.665   9.561   8.635 -0.3973  0.7758  0.1040
  406MOL0     C54708  -0.758   9.660   8.592 -0.0564 -0.3511  1.1063
  406MOL0     C54709  -0.898   9.632   8.579  1.0530 -0.6538 -1.2704
  406MOL0     C54710  -0.941   9.511   8.619  0.0918  0.1428 -0.0966
  406MOL0     O54711  -1.080   9.504   8.620  0.1123 -0.6296 -0.0576
  406MOL0     C54712  -1.136   9.398   8.699 -0.8950  0.0560  0.1371
  406MOL0     C54713  -1.147   9.280   8.610 -0.1375 -0.4388 -0.2333
  406MOL0     C54714  -1.209   9.157   8.687 -0.6992 -1.0865  0.4986
  406MOL0     C54715  -1.183   9.027   8.615 -0.3750 -0.6701  0.0167
  406MOL0     C54716  -1.092   8.922   8.679 -0.1834  0.2621  0.5969
  406MOL0     C54717  -0.941   8.973   8.674 -0.3519 -0.5007  0.5663
  406MOL0     C54718  -0.839   8.902   8.764 -1.3179  0.1115  0.6743
  406MOL0     C54719  -0.796   8.756   8.725 -0.0632 -0.2509 -0.0269
  406MOL0    Cl54720  -0.922   8.634   8.789  0.0956  0.3865  0.1191
  406MOL0     C54721  -0.849   9.412   8.658  0.4763 -0.0821 -0.3235
  406MOL0     C54722  -0.716   9.435   8.669  0.7634  0.2125  0.6185
  406MOL0     O54723  -0.533   9.729   8.797  0.5736 -0.1989 -0.2294
  406MOL0     C54724  -0.247   9.571   8.654  0.1228  0.0429  0.2108
  406MOL0     C54725  -0.113   9.579   8.636 -0.4180  0.0552  0.6590
  406MOL0     N54726   0.365  10.056   8.279 -0.3224 -0.7353  0.2614
  406MOL0     N54727   0.431  10.168   8.286  0.1215  0.5404 -0.2197
  406MOL0     C54728   1.307  10.430   9.268  0.5829 -0.5591 -0.3935
  406MOL0     C54729   1.437  10.433   9.335  0.6417  0.7567 -1.1978
  406MOL0     C54730   1.813  10.632   9.503 -0.5822  0.2386 -0.3195
  406MOL0     C54731   1.930  10.575   9.446 -0.6227  0.5028 -0.2645
  406MOL0     C54732   2.055  10.583   9.500  0.1741  0.7388  0.5615
  406MOL0     C54733   2.066  10.657   9.615 -0.2456 -0.2339  0.3541
  406MOL0     O54734   2.191  10.674   9.673 -0.4020 -0.2241  0.6125
  406MOL0     C54735   2.218  10.669   9.817  0.2089 -0.3005 -0.1721
  406MOL0     C54736   2.352  10.603   9.831 -0.6094  0.1008  0.3480
  406MOL0     C54737   2.461  10.665   9.753 -0.0194 -0.1428  0.4663
  406MOL0     C54738   2.605  10.616   9.790 -0.3088  0.4164  0.0259
  406MOL0     C54739   2.632  10.471   9.761  0.0268 -0.7839  0.4436
  406MOL0     C54740   2.656  10.360   9.729 -0.0344  0.7172  0.3716
  406MOL0     C54741   1.961  10.705   9.688  0.2320 -0.7637  0.1527
  406MOL0     C54742   1.832  10.694   9.635 -0.0863 -0.2412  0.1402
  406MOL0     H54743   1.585  10.638   9.098 -3.2597  0.0985 -4.4094
  406MOL0     H54744   1.395  10.592   8.979 -0.1590 -2.1822 -0.4520
  406MOL0     H54745   1.263  10.382   8.900  1.1445 -1.7790 -0.7381
  406MOL0     H54746   1.184  10.269   9.005  0.6299 -0.5756  0.0389
  406MOL0     H54747   0.964  10.386   8.970 -1.3335  2.8095 -2.2406
  406MOL0     H54748   1.034  10.473   8.842  3.3149 -0.1543 -0.1647
  406MOL0     H54749   1.090  10.271   8.706  1.7275  2.0330  0.7069
  406MOL0     H54750   1.029  10.171   8.833  0.0510 -0.7041 -1.4154
  406MOL0     H54751   0.825  10.197   8.703 -0.8660  0.3184  1.4481
  406MOL0     H54752   0.822  10.323   8.824 -0.0890 -0.1449 -0.3411
  406MOL0     H54753   0.904  10.483   8.663 -1.6527  1.2421 -1.0059
  406MOL0     H54754   0.921  10.355   8.537 -0.3478 -1.8380  1.5890
  406MOL0     H54755   0.657  10.445   8.660 -1.1688  0.7440  0.7674
  406MOL0     H54756   0.712  10.490   8.502 -1.0860 -1.5202  0.1179
  406MOL0     H54757   0.692  10.244   8.435 -1.4842 -1.6343 -0.8114
  406MOL0     H54758   0.634  10.227   8.608  0.2034  1.9314  0.8994
  406MOL0     H54759   0.502  10.408   8.394 -1.2185  0.5636  0.4869
  406MOL0     H54760   0.440  10.372   8.551 -1.9344 -3.4327  0.1793
  406MOL0     H54761   0.342  10.128   8.597  1.3534  1.2524  0.1929
  406MOL0     H54762   0.213   9.918   8.548  2.5305  2.2306  0.0280
  406MOL0     H54763   0.143   9.912   8.378 -0.4229  0.6063  1.5508
  406MOL0     H54764   0.392   9.759   8.461  0.3473  0.1485 -1.0573
  406MOL0     H54765   0.319   9.760   8.301 -0.9505  2.8266 -0.8033
  406MOL0     H54766   0.235   9.567   8.391  3.2743 -2.9018  4.1410
  406MOL0     H54767   0.099   9.672   8.415 -0.0621 -1.5672 -0.4079
  406MOL0     H54768   0.276   9.596   8.647 -1.0413  0.9737 -0.3617
  406MOL0     H54769   0.136   9.506   8.586 -0.5831  1.1159 -0.5579
  406MOL0     H54770  -0.057   9.880   8.777  0.1315  0.2011 -0.9574
  406MOL0     H54771  -0.378   9.910   8.903 -2.0435  2.9131 -0.8957
  406MOL0     H54772  -0.234   9.988   8.851  0.5127 -1.2581  0.7031
  406MOL0     H54773  -0.360   9.961   8.735 -0.4790  1.9680  1.8314
  406MOL0     H54774  -0.721   9.757   8.562 -2.7582  1.1258  2.2207
  406MOL0     H54775  -0.968   9.711   8.554 -0.2931 -0.6734  2.0183
  406MOL0     H54776  -1.088   9.375   8.794 -1.3235 -2.1177 -0.1252
  406MOL0     H54777  -1.234   9.435   8.730 -2.4287  0.0401 -3.9717
  406MOL0     H54778  -1.215   9.324   8.536 -0.2590  2.4440  1.4483
  406MOL0     H54779  -1.048   9.262   8.567 -0.1795  0.9309 -0.9543
  406MOL0     H54780  -1.318   9.172   8.689 -0.4927  0.4189  2.0838
  406MOL0     H54781  -1.178   9.156   8.792 -2.3730 -0.7441  1.0238
  406MOL0     H54782  -1.278   8.973   8.626 -1.1043 -0.2141 -3.0653
  406MOL0     H54783  -1.162   9.050   8.510 -2.7367  1.4142 -0.0859
  406MOL0     H54784  -1.106   8.828   8.626 -2.2624  0.4681  0.6948
  406MOL0     H54785  -1.122   8.911   8.784 -0.6036  0.5197  0.5093
  406MOL0     H54786  -0.909   8.971   8.570  0.9993 -0.1264  0.9590
  406MOL0     H54787  -0.949   9.077   8.707  3.2415  0.8472 -2.2294
  406MOL0     H54788  -0.864   8.903   8.871  0.9059  0.1312  1.2317
  406MOL0     H54789  -0.751   8.966   8.759 -2.9345  2.5011  0.9112
  406MOL0     H54790  -0.699   8.737   8.773  0.1904  0.9797  0.0040
  406MOL0     H54791  -0.782   8.751   8.617 -0.4061 -0.5185 -0.0607
  406MOL0     H54792  -0.881   9.312   8.686 -1.0109 -0.2969 -2.5142
  406MOL0     H54793  -0.649   9.360   8.708  0.2545 -1.6744 -1.8667
  406MOL0     H54794  -0.297   9.482   8.616  3.2393 -2.1186  0.8559
  406MOL0     H54795  -0.064   9.505   8.573 -1.5130  2.0927 -2.8861
  406MOL0     H54796   1.230  10.368   9.314  1.1682 -0.6625  0.4844
  406MOL0     H54797   1.442  10.389   9.434 -0.9695  2.8960 -0.0978
  406MOL0     H54798   1.935  10.527   9.349  0.9802 -1.6203  0.7813
  406MOL0     H54799   2.142  10.537   9.453  0.6038 -1.5092  3.2662
  406MOL0     H54800   2.223  10.770   9.858  3.8720 -0.0149 -0.9966
  406MOL0     H54801   2.145  10.612   9.876  2.3311 -0.6617  2.2795
  406MOL0     H54802   2.352  10.496   9.806 -0.5319 -0.6174  3.1047
  406MOL0     H54803   2.387  10.600   9.935  0.7342  1.5987 -0.0146
  406MOL0     H54804   2.461  10.774   9.760  1.4288  0.0550 -1.5903
  406MOL0     H54805   2.439  10.647   9.647  1.1100 -0.9101  0.3435
  406MOL0     H54806   2.627  10.648   9.892 -2.1495  0.3189  0.4944
  406MOL0     H54807   2.674  10.666   9.722 -0.5306  1.1182  0.3167
  406MOL0     H54808   2.689  10.263   9.697  1.1790 -0.0956  3.7206
  406MOL0     H54809   1.983  10.762   9.777 -2.1531  1.2284 -0.4123
  406MOL0     H54810   1.741  10.729   9.683 -1.3131 -0.7654 -1.6963
  407MOL0     O54811   1.077   8.191   7.547  0.5197 -0.0136  0.3254
  407MOL0     C54812   1.101   8.124   7.647  0.1478  0.8895  0.2589
  407MOL0     O54813   1.011   8.073   7.736  0.3047 -0.0671  0.0853
  407MOL0     C54814   0.871   8.105   7.729 -0.7997  0.4384 -0.4924
  407MOL0     C54815   0.826   8.231   7.688 -0.3924 -0.5259  0.5394
  407MOL0     C54816   0.689   8.252   7.682  0.1854 -0.9968 -0.4852
  407MOL0     C54817   0.597   8.148   7.711 -0.1492  0.3167 -0.1921
  407MOL0     O54818   0.462   8.171   7.697 -0.4477  0.0034  0.0899
  407MOL0     C54819   0.398   8.125   7.570 -0.5200  0.1220 -0.7711
  407MOL0     C54820   0.275   8.059   7.611  0.6364  0.0721  0.1734
  407MOL0     C54821   0.213   7.991   7.492  0.4382  0.5767 -0.4627
  407MOL0     C54822   0.061   7.980   7.510  0.8759  0.1380 -0.6259
  407MOL0     C54823   0.004   7.886   7.405 -0.1732  1.0014 -0.3562
  407MOL0     C54824  -0.149   7.874   7.392  0.4506 -0.5452  0.2893
  407MOL0     C54825  -0.197   7.781   7.287 -0.3454 -0.1622  0.1017
  407MOL0     C54826  -0.191   7.634   7.329  0.0482  1.5466  0.7169
  407MOL0     N54827  -0.308   7.585   7.405 -0.3447 -0.3345  0.8550
  407MOL0     C54828  -0.421   7.549   7.341 -0.1810  0.3939  0.9340
  407MOL0     C54829  -0.513   7.524   7.436  0.1822  0.8165  0.5997
  407MOL0     C54830  -0.652   7.474   7.408  0.3199  0.0324 -0.3051
  407MOL0     C54831  -0.695   7.385   7.528  0.2708  0.3334  0.1535
  407MOL0     C54832  -0.836   7.328   7.513  0.0302  0.1016  0.4684
  407MOL0     C54833  -0.859   7.210   7.615 -0.9565 -0.4138 -0.1186
  407MOL0     O54834  -0.993   7.213   7.644  0.2874  0.0672 -0.7329
  407MOL0     C54835  -1.052   7.094   7.668  0.0022 -0.3737 -0.6893
  407MOL0     C54836  -0.988   6.971   7.686 -0.7465  0.1882 -0.3886
  407MOL0     C54837  -1.057   6.858   7.727  0.3566 -0.2582  0.3780
  407MOL0     C54838  -0.978   6.730   7.756  0.4539 -0.3951 -0.1583
  407MOL0     C54839  -1.194   6.869   7.770 -0.2066 -0.0253  0.5909
  407MOL0     C54840  -1.276   6.770   7.833  1.0094 -0.1831 -0.8888
  407MOL0     O54841  -1.410   6.784   7.814  0.1507  0.7511 -0.2346
  407MOL0     C54842  -1.508   6.699   7.854 -0.0905 -0.1415 -0.8539
  407MOL0     C54843  -1.629   6.759   7.867  0.0532 -0.2027  0.5513
  407MOL0     C54844  -1.734   6.671   7.902 -0.0430  0.3797  0.2389
  407MOL0     C54845  -1.719   6.533   7.926 -0.3692 -0.0967  0.6940
  407MOL0     O54846  -1.826   6.453   7.953 -0.2453  0.7092 -0.7691
  407MOL0     C54847  -1.952   6.511   7.960 -0.2242  0.3366  0.2218
  407MOL0     C54848  -1.985   6.593   8.087  0.3522  0.5984 -0.1377
  407MOL0     C54849  -1.982   6.522   8.219  0.5630  0.3789 -0.8833
  407MOL0     C54850  -2.056   6.604   8.326  1.0471  0.5666 -0.0078
  407MOL0     C54851  -2.016   6.552   8.472  0.1026 -0.4601  0.1050
  407MOL0     C54852  -2.078   6.413   8.510 -0.0938  0.6249 -0.4380
  407MOL0     C54853  -2.225   6.402   8.481 -0.5900  0.8139  0.4490
  407MOL0     C54854  -2.291   6.293   8.562 -0.4861  0.0754 -0.4794
  407MOL0    Cl54855  -2.460   6.288   8.532 -0.1230  0.4072 -0.1200
  407MOL0     C54856  -1.598   6.473   7.901 -0.4907 -0.2530  0.8418
  407MOL0     C54857  -1.498   6.559   7.860  0.7269 -0.6233  0.2723
  407MOL0     O54858  -1.223   6.680   7.888  0.7865  0.7012  0.6933
  407MOL0     C54859  -1.261   6.989   7.735  0.5377 -0.0562  0.0397
  407MOL0     C54860  -1.189   7.100   7.694  0.7700 -0.2476  0.3878
  407MOL0     N54861  -0.454   7.547   7.562 -0.0605  0.3770  0.0950
  407MOL0     N54862  -0.334   7.582   7.536  0.0526 -0.2432  0.4056
  407MOL0     C54863   0.648   8.017   7.738 -0.8795 -0.2880 -0.1355
  407MOL0     C54864   0.786   8.001   7.742 -0.4229  0.3514  1.5191
  407MOL0     C54865   1.236   8.068   7.664 -0.4749 -0.7459 -0.0339
  407MOL0     C54866   1.337   8.126   7.586 -0.4275  0.8051 -0.5342
  407MOL0     C54867   1.463   8.073   7.592 -0.4508 -0.9808  0.2603
  407MOL0     C54868   1.500   7.976   7.683 -0.4093 -0.1173 -0.1352
  407MOL0     O54869   1.631   7.946   7.688 -0.9218 -0.3310  0.2762
  407MOL0     C54870   1.693   7.872   7.792  0.3571  0.5349 -0.0608
  407MOL0     C54871   1.846   7.868   7.779  0.1495  0.6639 -0.4086
  407MOL0     C54872   1.913   7.978   7.871 -0.3388 -0.5114 -0.2339
  407MOL0     C54873   2.064   7.955   7.895  0.5922 -0.2364  0.6956
  407MOL0     C54874   2.120   8.073   7.956  1.0864 -0.5651  0.1579
  407MOL0     C54875   2.157   8.171   8.015  0.0694 -0.1661  0.2181
  407MOL0     C54876   1.401   7.909   7.752  0.2985 -0.4527 -0.1415
  407MOL0     C54877   1.271   7.953   7.747 -0.6211 -0.7925  0.0397
  407MOL0     H54878   0.882   8.323   7.673 -1.9316  0.1848 -1.3305
  407MOL0     H54879   0.662   8.352   7.652 -1.6494  0.0557  3.9949
  407MOL0     H54880   0.387   8.208   7.500  1.2662  1.1970  0.1335
  407MOL0     H54881   0.462   8.046   7.531  3.9717  1.8490  2.2399
  407MOL0     H54882   0.309   7.971   7.665  2.1720 -0.2336 -1.2128
  407MOL0     H54883   0.211   8.121   7.675  0.2708 -1.0705  0.9364
  407MOL0     H54884   0.232   8.042   7.397  1.2138  1.0002 -0.0917
  407MOL0     H54885   0.252   7.889   7.484  1.7939  0.7149  2.7627
  407MOL0     H54886   0.034   7.951   7.612 -0.1403  1.0008 -0.6312
  407MOL0     H54887   0.004   8.071   7.489 -3.5520 -1.5752  2.4115
  407MOL0     H54888   0.052   7.906   7.309  0.3128  1.8270  0.0484
  407MOL0     H54889   0.023   7.779   7.422 -0.8017  0.4251 -2.8277
  407MOL0     H54890  -0.191   7.846   7.489 -0.8208  0.6945  0.1277
  407MOL0     H54891  -0.200   7.970   7.379 -3.3213 -2.5237 -1.0340
  407MOL0     H54892  -0.302   7.808   7.273  0.4151  1.6230 -3.1881
  407MOL0     H54893  -0.146   7.803   7.192  2.2724  1.6711  1.7957
  407MOL0     H54894  -0.107   7.599   7.390  0.1545 -1.3108 -0.8815
  407MOL0     H54895  -0.186   7.570   7.241 -2.0659 -0.2263  1.7713
  407MOL0     H54896  -0.432   7.548   7.233  1.5413  2.1164  0.6707
  407MOL0     H54897  -0.723   7.554   7.386  2.5632  2.3134  0.2889
  407MOL0     H54898  -0.642   7.415   7.316  0.2056  1.6793 -1.4300
  407MOL0     H54899  -0.683   7.431   7.627  0.4494 -0.3622  0.4626
  407MOL0     H54900  -0.624   7.302   7.534  0.5838  0.5995  0.1252
  407MOL0     H54901  -0.852   7.293   7.411  2.4524  1.1275 -0.3319
  407MOL0     H54902  -0.898   7.417   7.523 -0.2500 -0.2871  2.5265
  407MOL0     H54903  -0.800   7.236   7.704  1.2289 -0.4725 -1.4750
  407MOL0     H54904  -0.810   7.117   7.585  0.4122 -0.6833  2.6216
  407MOL0     H54905  -0.884   6.954   7.663 -1.0653  0.1667 -1.9287
  407MOL0     H54906  -0.886   6.730   7.698  0.8281  0.9398  0.4111
  407MOL0     H54907  -0.944   6.718   7.860  4.6603  1.1356 -1.1825
  407MOL0     H54908  -1.041   6.648   7.720 -1.9854  1.1105  0.4162
  407MOL0     H54909  -1.651   6.862   7.842  1.5228 -0.0956 -0.3904
  407MOL0     H54910  -1.827   6.726   7.913  0.3482  1.4383 -1.3669
  407MOL0     H54911  -1.974   6.581   7.879 -2.1949 -1.2348 -0.7012
  407MOL0     H54912  -2.019   6.427   7.941  0.6672 -0.0892 -1.1571
  407MOL0     H54913  -1.923   6.681   8.103  0.4981  0.4600  0.0535
  407MOL0     H54914  -2.087   6.632   8.074 -0.7605 -1.8121  0.8019
  407MOL0     H54915  -1.879   6.495   8.246  0.0662  0.2768  1.0552
  407MOL0     H54916  -2.033   6.427   8.201 -0.8829  0.8320  0.5221
  407MOL0     H54917  -2.041   6.710   8.303  2.6340  0.1018 -1.2611
  407MOL0     H54918  -2.165   6.598   8.321  0.9539  1.1440  1.0007
  407MOL0     H54919  -2.043   6.634   8.540  3.4461  0.2037  0.7975
  407MOL0     H54920  -1.907   6.551   8.474  0.1772 -0.0533  4.3375
  407MOL0     H54921  -2.021   6.332   8.464  2.1147  1.1952  1.1443
  407MOL0     H54922  -2.059   6.398   8.617  0.9743 -1.1897 -0.8389
  407MOL0     H54923  -2.232   6.383   8.373  0.5396 -2.0641  0.8131
  407MOL0     H54924  -2.277   6.495   8.505  2.0381  2.3658  0.4887
  407MOL0     H54925  -2.273   6.306   8.669 -1.0066 -4.6178  0.4268
  407MOL0     H54926  -2.249   6.193   8.545 -0.1863 -0.0199  0.6904
  407MOL0     H54927  -1.590   6.364   7.900 -2.9884 -0.4909  0.8548
  407MOL0     H54928  -1.401   6.519   7.833  1.8640 -0.4579  3.5881
  407MOL0     H54929  -1.365   7.005   7.761  1.1890  2.2847  1.4626
  407MOL0     H54930  -1.245   7.188   7.665  0.1950 -1.3385 -2.1105
  407MOL0     H54931   0.569   7.944   7.752 -1.4841  0.0627 -1.5027
  407MOL0     H54932   0.818   7.898   7.743  0.0146  0.3978 -1.0832
  407MOL0     H54933   1.314   8.217   7.531  0.5757  1.1555 -0.4068
  407MOL0     H54934   1.542   8.129   7.542 -2.1809  0.9949 -0.4165
  407MOL0     H54935   1.670   7.912   7.892  0.1576 -0.0601  0.1346
  407MOL0     H54936   1.658   7.769   7.781 -0.0042  0.7398 -0.8735
  407MOL0     H54937   1.881   7.888   7.678  0.0967  0.3835 -0.4838
  407MOL0     H54938   1.867   7.763   7.802 -1.4430  0.4464  0.2289
  407MOL0     H54939   1.863   7.972   7.968  1.1124 -3.9323  0.4584
  407MOL0     H54940   1.902   8.080   7.832 -1.2319 -0.0566  1.0987
  407MOL0     H54941   2.107   7.937   7.796  0.1716  0.0577  0.4528
  407MOL0     H54942   2.090   7.875   7.964  1.3398  0.3151  1.0695
  407MOL0     H54943   2.176   8.263   8.066 -1.1360 -0.9916  2.2437
  407MOL0     H54944   1.422   7.824   7.815 -0.2027 -1.3293 -1.1277
  407MOL0     H54945   1.204   7.892   7.807 -0.8112 -0.0428  0.6027
  408MOL0     O54946   6.804   6.518   8.232 -0.2308  0.2416  0.4398
  408MOL0     C54947   6.900   6.515   8.159  0.0189  0.3043  0.2860
  408MOL0     O54948   6.916   6.592   8.052  0.1558 -0.1894  0.3637
  408MOL0     C54949   6.809   6.608   7.967  0.4702  0.7438  0.0244
  408MOL0     C54950   6.810   6.732   7.897  0.2905 -0.3257  0.5928
  408MOL0     C54951   6.719   6.765   7.804 -0.1184 -0.8282  0.6301
  408MOL0     C54952   6.615   6.672   7.776 -0.8558  0.7449  0.8937
  408MOL0     O54953   6.520   6.705   7.687 -0.4100  0.5833  0.3802
  408MOL0     C54954   6.404   6.769   7.745  0.3934  0.1984  0.1025
  408MOL0     C54955   6.291   6.667   7.748  0.0512 -0.2390  0.1288
  408MOL0     C54956   6.229   6.604   7.618 -0.4692  0.0517 -1.1099
  408MOL0     C54957   6.201   6.693   7.501  0.2238 -0.4443  0.6503
  408MOL0     C54958   6.138   6.620   7.381  0.0816  0.5879 -1.2093
  408MOL0     C54959   6.092   6.714   7.269  0.6711 -0.0572  0.0855
  408MOL0     C54960   5.974   6.802   7.305  0.5982  0.8796 -0.1879
  408MOL0     C54961   5.842   6.734   7.312  0.1520  0.4290  1.1916
  408MOL0     N54962   5.732   6.804   7.378  0.8156 -0.9701 -0.2947
  408MOL0     C54963   5.731   6.925   7.446 -0.1776  0.1348  1.0216
  408MOL0     C54964   5.601   6.967   7.450  0.1595  0.0398 -0.2919
  408MOL0     C54965   5.552   7.079   7.534 -0.5842 -0.3222 -0.4289
  408MOL0     C54966   5.548   7.208   7.448  0.0196  0.3722  0.3627
  408MOL0     C54967   5.438   7.211   7.352 -0.3962 -0.2715  0.0945
  408MOL0     C54968   5.294   7.226   7.403 -0.8372 -0.5459 -0.0372
  408MOL0     O54969   5.197   7.215   7.296 -0.0343  0.1257 -1.0690
  408MOL0     C54970   5.073   7.267   7.317 -0.0948 -0.2346  0.5322
  408MOL0     C54971   5.014   7.297   7.444 -1.6408 -0.2866  0.3366
  408MOL0     C54972   4.880   7.329   7.463 -0.9227  0.0109  0.4745
  408MOL0     C54973   4.842   7.349   7.609  0.0220 -0.1090 -0.4021
  408MOL0     C54974   4.797   7.345   7.344 -0.0073 -0.4525  0.3759
  408MOL0     C54975   4.658   7.402   7.355  0.0414  1.1167  0.0376
  408MOL0     O54976   4.604   7.433   7.235  0.4056 -0.3106  0.0841
  408MOL0     C54977   4.472   7.464   7.208  0.0918 -0.0969  0.3902
  408MOL0     C54978   4.372   7.503   7.292  0.6516 -0.5192 -0.2989
  408MOL0     C54979   4.237   7.526   7.249  0.1617  0.2474  0.4956
  408MOL0     C54980   4.196   7.501   7.120 -0.6102  0.7290  0.0874
  408MOL0     O54981   4.068   7.523   7.079 -0.6798  0.1210  0.5301
  408MOL0     C54982   3.964   7.526   7.173  0.0139 -0.2038 -0.0733
  408MOL0     C54983   3.936   7.670   7.208  0.0478  0.8102 -0.2346
  408MOL0     C54984   3.832   7.696   7.316  0.1781  0.1445 -0.5924
  408MOL0     C54985   3.696   7.664   7.269 -0.8751  0.1778 -0.1572
  408MOL0     C54986   3.599   7.672   7.387  0.4207 -0.0114  0.0983
  408MOL0     C54987   3.452   7.659   7.340  0.2552 -0.3828  0.4558
  408MOL0     C54988   3.388   7.777   7.256 -0.3150  1.3508  0.7442
  408MOL0     C54989   3.259   7.729   7.186  0.3566 -0.8626 -0.0853
  408MOL0    Cl54990   3.111   7.731   7.294  0.3240  0.0839 -0.2643
  408MOL0     C54991   4.298   7.456   7.029 -0.6619 -0.3465 -0.1803
  408MOL0     C54992   4.438   7.436   7.077  0.1594  0.0215  0.1891
  408MOL0     O54993   4.595   7.404   7.458  0.6555  1.7487  0.0764
  408MOL0     C54994   4.861   7.338   7.208  0.7197  0.0574 -0.4513
  408MOL0     C54995   5.004   7.307   7.198  0.3107 -0.3911 -0.1235
  408MOL0     N54996   5.524   6.872   7.389  0.9833  0.2125 -0.2270
  408MOL0     N54997   5.601   6.773   7.344  0.7687 -0.1973 -0.2472
  408MOL0     C54998   6.615   6.548   7.842  0.0123 -1.0884 -0.7196
  408MOL0     C54999   6.712   6.515   7.936  0.0031 -0.7520  0.8606
  408MOL0     C55000   7.022   6.446   8.213 -0.1465 -0.3064  0.3307
  408MOL0     C55001   7.015   6.337   8.303 -0.0599 -0.1151  0.3539
  408MOL0     C55002   7.138   6.288   8.354 -0.1630 -0.1984  0.0628
  408MOL0     C55003   7.262   6.338   8.317 -0.6098 -0.5126 -0.5983
  408MOL0     O55004   7.373   6.281   8.374 -0.1343  1.2760 -0.2403
  408MOL0     C55005   7.507   6.293   8.322  0.4604 -0.5870  0.1179
  408MOL0     C55006   7.524   6.168   8.227 -0.2153  0.6658  0.8449
  408MOL0     C55007   7.669   6.154   8.159 -0.0886  0.5891  0.1859
  408MOL0     C55008   7.777   6.121   8.260  1.4060  0.3107  0.5309
  408MOL0     C55009   7.915   6.103   8.196  0.0520  0.6419 -0.2164
  408MOL0     C55010   8.021   6.105   8.142 -0.2654  0.1812  0.1853
  408MOL0     C55011   7.275   6.447   8.228  0.4201 -0.3122  0.0563
  408MOL0     C55012   7.151   6.503   8.177  0.5852  0.4966 -0.2918
  408MOL0     H55013   6.882   6.811   7.920 -0.1928  0.0115  0.9655
  408MOL0     H55014   6.712   6.858   7.750 -0.6900 -1.6591 -0.7811
  408MOL0     H55015   6.414   6.809   7.846  1.7319 -0.8447  0.4087
  408MOL0     H55016   6.366   6.852   7.685 -0.2637  1.2808  1.9252
  408MOL0     H55017   6.318   6.580   7.807  1.3158 -1.5503 -2.2600
  408MOL0     H55018   6.206   6.718   7.794  0.6258 -1.0407  2.1928
  408MOL0     H55019   6.300   6.530   7.579 -1.8155 -1.6440 -0.4598
  408MOL0     H55020   6.142   6.547   7.653  0.2001  0.1287  0.7710
  408MOL0     H55021   6.142   6.779   7.537  0.5072  0.7287 -1.5169
  408MOL0     H55022   6.296   6.728   7.460 -0.9818  0.5740 -1.5076
  408MOL0     H55023   6.210   6.548   7.340 -1.5010 -1.6555 -0.2481
  408MOL0     H55024   6.052   6.559   7.410  1.8279  0.0201  3.8067
  408MOL0     H55025   6.179   6.774   7.240 -1.5261  3.6302  0.4207
  408MOL0     H55026   6.063   6.658   7.179  0.9051 -0.0401 -0.0010
  408MOL0     H55027   5.988   6.849   7.403 -2.2822  0.5415  0.4787
  408MOL0     H55028   5.960   6.878   7.228 -1.9279  0.0080 -0.6799
  408MOL0     H55029   5.862   6.641   7.366  0.9135  0.2359  0.5922
  408MOL0     H55030   5.812   6.715   7.208 -0.6520 -0.8551  1.6296
  408MOL0     H55031   5.812   6.987   7.485 -1.6338  1.1462  2.5905
  408MOL0     H55032   5.453   7.066   7.578  0.6082  0.4888  2.7511
  408MOL0     H55033   5.616   7.087   7.622 -0.9100 -1.0410 -0.1166
  408MOL0     H55034   5.643   7.226   7.398  0.2868  0.0429  0.7394
  408MOL0     H55035   5.534   7.293   7.516  0.0667 -1.8041  3.2784
  408MOL0     H55036   5.444   7.124   7.286  1.0975 -0.5132  0.5019
  408MOL0     H55037   5.454   7.290   7.278  0.6882 -1.8341 -1.4286
  408MOL0     H55038   5.283   7.328   7.441 -0.1996  0.2530 -1.8832
  408MOL0     H55039   5.273   7.160   7.488  0.7814  2.0686  2.5725
  408MOL0     H55040   5.073   7.291   7.535 -1.6689  0.2744  0.3991
  408MOL0     H55041   4.742   7.308   7.620 -0.3128 -0.1798 -3.0656
  408MOL0     H55042   4.911   7.308   7.683 -1.2283 -0.5283  0.5678
  408MOL0     H55043   4.838   7.457   7.629 -2.8865 -0.1331 -0.4203
  408MOL0     H55044   4.391   7.515   7.398 -0.7951 -1.3245  0.0840
  408MOL0     H55045   4.169   7.553   7.329 -1.0342  0.9453 -0.7162
  408MOL0     H55046   3.870   7.482   7.138  0.7668 -1.4819 -0.5950
  408MOL0     H55047   3.988   7.466   7.262 -1.1945  0.3291  0.6241
  408MOL0     H55048   4.031   7.710   7.247  0.8172 -0.1149 -1.0930
  408MOL0     H55049   3.923   7.727   7.115  2.2608  1.1434 -0.3951
  408MOL0     H55050   3.835   7.805   7.330 -1.7820  0.1377  0.3345
  408MOL0     H55051   3.858   7.635   7.403  2.9499 -0.0881 -1.5046
  408MOL0     H55052   3.666   7.746   7.203 -0.5455 -0.1935 -0.7816
  408MOL0     H55053   3.684   7.562   7.232  2.0161  1.0314 -4.1007
  408MOL0     H55054   3.622   7.766   7.437  1.5079 -0.1496 -0.1054
  408MOL0     H55055   3.619   7.583   7.448 -0.8754 -0.9927 -0.8562
  408MOL0     H55056   3.437   7.565   7.287 -1.3626 -0.9152  1.7500
  408MOL0     H55057   3.393   7.642   7.430 -0.8830 -0.8030 -0.3500
  408MOL0     H55058   3.453   7.797   7.170 -0.3115 -0.6471  0.2292
  408MOL0     H55059   3.374   7.865   7.320  3.0135  1.7784  1.0195
  408MOL0     H55060   3.279   7.629   7.146 -1.0683 -0.8654 -0.8647
  408MOL0     H55061   3.231   7.801   7.108 -0.3242 -1.0067  0.0192
  408MOL0     H55062   4.283   7.451   6.922 -4.1140 -0.7311  0.2000
  408MOL0     H55063   4.507   7.409   6.998 -1.1751 -0.2811 -0.9224
  408MOL0     H55064   4.806   7.372   7.121 -0.5373  0.8324  0.5943
  408MOL0     H55065   5.034   7.306   7.093  0.2086  3.9519 -0.3847
  408MOL0     H55066   6.537   6.477   7.818 -0.6279 -0.7795  0.3654
  408MOL0     H55067   6.708   6.416   7.981 -0.5804 -0.0525  2.4190
  408MOL0     H55068   6.920   6.286   8.317  0.5253 -0.7169  2.4984
  408MOL0     H55069   7.128   6.205   8.423 -3.2945 -1.9821 -2.2624
  408MOL0     H55070   7.536   6.387   8.275  1.9633 -1.8382 -1.6437
  408MOL0     H55071   7.581   6.273   8.400 -1.5563 -0.2495  2.2127
  408MOL0     H55072   7.446   6.184   8.151 -2.2898 -1.9978  2.2422
  408MOL0     H55073   7.498   6.077   8.282 -0.0107  0.3295  0.3925
  408MOL0     H55074   7.698   6.245   8.107  2.0163  0.4510  0.9858
  408MOL0     H55075   7.667   6.072   8.087  0.1264  0.3266  0.4710
  408MOL0     H55076   7.758   6.025   8.308 -1.7268 -1.1760 -3.1274
  408MOL0     H55077   7.770   6.202   8.333 -2.4610 -0.6420  1.4561
  408MOL0     H55078   8.109   6.112   8.082 -0.4430  0.4138 -0.0533
  408MOL0     H55079   7.370   6.487   8.195  0.5119 -0.7351 -0.1912
  408MOL0     H55080   7.147   6.584   8.106 -1.8071 -1.7657 -2.9959
  409MOL0     O55081   5.532   7.374   2.958 -0.0563  0.3432  0.5042
  409MOL0     C55082   5.499   7.355   2.838  0.0303 -0.3623 -0.6799
  409MOL0     O55083   5.577   7.310   2.744 -0.3728 -0.1561  0.3260
  409MOL0     C55084   5.703   7.270   2.778 -0.0456 -0.2649 -0.2396
  409MOL0     C55085   5.801   7.365   2.809 -0.4219  0.4315  0.2914
  409MOL0     C55086   5.934   7.324   2.832 -0.5139  0.2225  0.3963
  409MOL0     C55087   5.962   7.185   2.847  0.6410 -0.9080  0.0604
  409MOL0     O55088   6.087   7.159   2.878 -0.3552  0.2090 -0.2354
  409MOL0     C55089   6.145   7.027   2.877  0.5459 -0.5626 -0.5097
  409MOL0     C55090   6.289   7.047   2.921  0.0895 -0.2549 -0.0980
  409MOL0     C55091   6.378   6.922   2.885  0.0521  0.0660 -0.7815
  409MOL0     C55092   6.523   6.935   2.932 -1.0543 -0.1947 -0.5797
  409MOL0     C55093   6.601   6.825   2.868  0.1069 -0.0848  0.3689
  409MOL0     C55094   6.743   6.810   2.923 -0.3568  0.2062 -0.9916
  409MOL0     C55095   6.812   6.695   2.849 -0.8659 -0.1229  0.2490
  409MOL0     C55096   6.976   6.700   2.868  0.0403  0.4428  0.6489
  409MOL0     N55097   7.056   6.609   2.776  0.4953  0.4163  0.6501
  409MOL0     C55098   7.033   6.590   2.645 -0.3575 -0.5501  0.1027
  409MOL0     C55099   7.116   6.482   2.604  0.5751 -1.1236  0.6575
  409MOL0     C55100   7.132   6.418   2.462  0.3941 -0.3588 -1.1964
  409MOL0     C55101   7.012   6.318   2.429  0.0500  0.3648 -0.2401
  409MOL0     C55102   7.043   6.221   2.306  0.3966 -0.1770  0.3747
  409MOL0     C55103   6.931   6.138   2.260 -0.1324  0.1113 -0.0165
  409MOL0     O55104   6.957   6.047   2.151 -0.2812  0.1346  0.3265
  409MOL0     C55105   6.860   5.959   2.127 -0.1300  0.2145 -0.7248
  409MOL0     C55106   6.893   5.868   2.026  0.0569 -1.0847  0.0824
  409MOL0     C55107   6.802   5.775   1.962 -0.1700 -0.1309 -0.5083
  409MOL0     C55108   6.845   5.716   1.833  0.1952  1.6353  1.1501
  409MOL0     C55109   6.677   5.761   2.013  0.0063  0.2587  0.2436
  409MOL0     C55110   6.571   5.677   1.963  1.0553 -0.3787 -0.0003
  409MOL0     O55111   6.471   5.657   2.057 -0.9689  0.4694 -0.2846
  409MOL0     C55112   6.341   5.619   2.024  0.5733  0.8448 -0.3532
  409MOL0     C55113   6.271   5.550   2.117 -0.0585 -0.1919  0.5795
  409MOL0     C55114   6.152   5.482   2.090  0.1544 -0.0053  0.2824
  409MOL0     C55115   6.095   5.493   1.956  0.0750 -0.0687 -0.0480
  409MOL0     O55116   5.987   5.424   1.919 -0.8195 -0.3556 -0.3587
  409MOL0     C55117   5.873   5.508   1.878 -0.5798  0.3938 -0.2652
  409MOL0     C55118   5.755   5.413   1.843  0.1589 -0.2959 -0.8393
  409MOL0     C55119   5.635   5.497   1.793  0.4267 -0.9544  0.4165
  409MOL0     C55120   5.532   5.426   1.708  0.0639  0.6430 -0.4150
  409MOL0     C55121   5.596   5.366   1.581 -0.0991  0.0077 -0.2833
  409MOL0     C55122   5.493   5.331   1.469  0.5725 -0.0887 -0.0813
  409MOL0     C55123   5.441   5.444   1.371  0.6224  0.7124 -0.0392
  409MOL0     C55124   5.388   5.375   1.251  0.0017  0.2036  0.2903
  409MOL0    Cl55125   5.292   5.494   1.140 -0.0917  0.4920 -0.0885
  409MOL0     C55126   6.157   5.575   1.860 -0.6355 -0.2441 -0.2302
  409MOL0     C55127   6.284   5.633   1.894  0.2959 -0.2191  0.8779
  409MOL0     O55128   6.563   5.643   1.844 -0.0993  0.0327  0.5775
  409MOL0     C55129   6.653   5.848   2.124  0.3077  1.3861  0.0408
  409MOL0     C55130   6.736   5.944   2.177 -0.6036 -0.3940 -0.5520
  409MOL0     N55131   7.181   6.437   2.718  0.6034 -0.2636  0.3327
  409MOL0     N55132   7.143   6.515   2.819 -0.3911  0.7017  0.7825
  409MOL0     C55133   5.861   7.091   2.809 -0.1067 -0.3545  0.4495
  409MOL0     C55134   5.734   7.131   2.765  0.0820 -1.5528  0.9417
  409MOL0     C55135   5.359   7.372   2.797  0.0630  0.0070 -0.1718
  409MOL0     C55136   5.254   7.428   2.875 -0.4602 -0.7508 -0.1948
  409MOL0     C55137   5.124   7.457   2.823 -0.5095  0.0747 -0.6831
  409MOL0     C55138   5.091   7.407   2.701 -0.3795  0.5381  0.0376
  409MOL0     O55139   4.966   7.418   2.658 -0.3408  0.6953 -0.0960
  409MOL0     C55140   4.853   7.470   2.734 -0.4731 -0.2092  0.2022
  409MOL0     C55141   4.808   7.398   2.863 -0.5298 -0.1417 -0.9881
  409MOL0     C55142   4.772   7.252   2.837 -1.0470 -0.4279 -0.2425
  409MOL0     C55143   4.789   7.157   2.954  0.3716  0.0433 -0.4426
  409MOL0     C55144   4.732   7.213   3.072  0.1761  0.2138 -0.8753
  409MOL0     C55145   4.694   7.257   3.183 -0.7768  0.7491  0.2343
  409MOL0     C55146   5.183   7.338   2.631  0.6462 -0.8437 -0.0049
  409MOL0     C55147   5.317   7.337   2.667  0.4424  0.6524  0.2237
  409MOL0     H55148   5.783   7.471   2.801  0.6667  0.6508  0.5948
  409MOL0     H55149   6.021   7.385   2.849  0.0410 -1.4742  5.1526
  409MOL0     H55150   6.094   6.956   2.944 -0.0556  0.4136  0.1048
  409MOL0     H55151   6.132   6.983   2.778 -0.2989 -2.4348  0.3686
  409MOL0     H55152   6.328   7.135   2.869 -0.5790 -0.5797 -1.1787
  409MOL0     H55153   6.293   7.067   3.028 -2.3341  0.4654 -0.0823
  409MOL0     H55154   6.343   6.829   2.930 -0.7068  1.5267  1.9153
  409MOL0     H55155   6.368   6.913   2.777  0.6243  0.1246 -0.8423
  409MOL0     H55156   6.561   7.037   2.918 -3.1439  0.5703 -0.9607
  409MOL0     H55157   6.523   6.921   3.040 -3.1564 -0.2505 -0.5570
  409MOL0     H55158   6.548   6.731   2.883  2.5329 -1.3179  1.7557
  409MOL0     H55159   6.593   6.842   2.760  0.7916  1.1195  0.4866
  409MOL0     H55160   6.795   6.903   2.901 -0.5021  0.6430  0.4206
  409MOL0     H55161   6.742   6.796   3.031 -1.2584  1.3662 -0.8321
  409MOL0     H55162   6.782   6.597   2.888 -0.3343 -1.0766 -1.6097
  409MOL0     H55163   6.800   6.699   2.740  0.9131 -0.8809 -0.0250
  409MOL0     H55164   6.991   6.675   2.973 -0.0037 -1.0836  0.3215
  409MOL0     H55165   7.024   6.798   2.864  1.2253  0.0638  3.3317
  409MOL0     H55166   6.957   6.641   2.588  1.2828  1.1078 -0.7025
  409MOL0     H55167   7.154   6.495   2.387  1.4268  0.2622 -0.2992
  409MOL0     H55168   7.217   6.350   2.465  1.1796  0.6270 -0.5331
  409MOL0     H55169   6.919   6.370   2.402  0.7464  0.8841 -1.7261
  409MOL0     H55170   6.990   6.250   2.512  2.1428 -3.4837 -2.5390
  409MOL0     H55171   7.120   6.148   2.332  1.3368  0.2467 -1.0767
  409MOL0     H55172   7.078   6.279   2.220  1.2707 -2.8373 -1.2001
  409MOL0     H55173   6.851   6.211   2.240  1.2575  1.6730 -0.0979
  409MOL0     H55174   6.894   6.083   2.346  1.6234 -0.6641  0.2824
  409MOL0     H55175   6.996   5.877   1.992  1.0545 -0.7037  2.9391
  409MOL0     H55176   6.794   5.758   1.746 -0.1953 -1.5649 -0.3135
  409MOL0     H55177   6.951   5.729   1.806  0.5827  1.2043  2.3997
  409MOL0     H55178   6.827   5.609   1.841  0.0481  1.3017 -2.1653
  409MOL0     H55179   6.320   5.525   2.211 -1.6532  1.5408  1.9466
  409MOL0     H55180   6.094   5.409   2.145 -1.6171  1.5169  0.5593
  409MOL0     H55181   5.855   5.591   1.947  0.9520  0.1622  0.4518
  409MOL0     H55182   5.897   5.552   1.781  1.3272 -1.7742 -0.8598
  409MOL0     H55183   5.789   5.350   1.760 -1.5019 -3.7020  0.8545
  409MOL0     H55184   5.726   5.353   1.930  2.5196 -2.4121 -1.3812
  409MOL0     H55185   5.670   5.581   1.732  1.0063 -1.9714 -0.7085
  409MOL0     H55186   5.581   5.538   1.878  0.5532 -1.2254  0.6289
  409MOL0     H55187   5.484   5.344   1.762  0.9048  2.0956  2.7979
  409MOL0     H55188   5.461   5.503   1.674  1.5583  1.2277 -2.4064
  409MOL0     H55189   5.659   5.279   1.604 -0.9953 -0.4766  0.3619
  409MOL0     H55190   5.669   5.435   1.538 -1.8082  0.8666 -1.9402
  409MOL0     H55191   5.538   5.252   1.409 -3.4362 -1.7582 -1.2124
  409MOL0     H55192   5.406   5.280   1.510 -0.4586 -0.2943 -2.3806
  409MOL0     H55193   5.513   5.519   1.340  1.2526  0.3443  0.5128
  409MOL0     H55194   5.358   5.497   1.420  1.2221  3.0611 -1.4430
  409MOL0     H55195   5.310   5.303   1.277  1.0921 -0.7069  1.1248
  409MOL0     H55196   5.472   5.329   1.198  0.4357  1.0405  0.2348
  409MOL0     H55197   6.111   5.583   1.762  0.8816  1.2008 -0.8844
  409MOL0     H55198   6.340   5.673   1.810 -0.5948  0.7081  0.7035
  409MOL0     H55199   6.559   5.859   2.177  1.5234  2.6772  2.0457
  409MOL0     H55200   6.706   6.005   2.261  3.3003 -1.7800  2.0980
  409MOL0     H55201   5.881   6.985   2.821 -1.3745 -0.4444  2.2610
  409MOL0     H55202   5.664   7.055   2.730 -1.8793  1.6523 -2.8266
  409MOL0     H55203   5.270   7.454   2.979 -1.3315  0.6991 -0.3924
  409MOL0     H55204   5.046   7.495   2.887 -0.6786 -3.3112  1.3799
  409MOL0     H55205   4.875   7.573   2.763  1.6113 -0.0550 -1.6518
  409MOL0     H55206   4.763   7.473   2.672 -1.8758 -0.0831  2.1305
  409MOL0     H55207   4.724   7.459   2.899  0.7761  0.0593  2.0188
  409MOL0     H55208   4.886   7.399   2.939 -0.0254 -0.5608 -1.4997
  409MOL0     H55209   4.829   7.214   2.752  2.5250  0.3203  1.6084
  409MOL0     H55210   4.668   7.238   2.807 -1.8357 -1.3916  2.6335
  409MOL0     H55211   4.895   7.134   2.970  0.1296  0.6965  2.7293
  409MOL0     H55212   4.735   7.064   2.934 -4.4494  2.1687  1.3364
  409MOL0     H55213   4.667   7.297   3.279  1.7654  0.6782  1.0450
  409MOL0     H55214   5.156   7.323   2.527 -0.1627  0.8874 -0.0938
  409MOL0     H55215   5.384   7.298   2.591 -0.8516 -0.4891 -0.3866
  410MOL0     O55216   6.981   6.906   5.687 -0.0746  0.5757 -0.7461
  410MOL0     C55217   7.006   6.796   5.727  0.8728  0.5601  0.6493
  410MOL0     O55218   7.123   6.732   5.716  0.5439 -0.1071 -0.9717
  410MOL0     C55219   7.229   6.799   5.664 -0.0331 -1.0566 -0.0257
  410MOL0     C55220   7.313   6.728   5.582  0.5422 -0.1194  0.5372
  410MOL0     C55221   7.430   6.771   5.526  0.1954 -0.8554  0.5641
  410MOL0     C55222   7.473   6.897   5.563  0.7844 -0.6665 -0.2143
  410MOL0     O55223   7.593   6.946   5.510  0.3561  0.6016  0.2000
  410MOL0     C55224   7.647   7.074   5.552 -0.4356 -0.4366 -0.0067
  410MOL0     C55225   7.715   7.065   5.681  0.0587  0.4406 -0.5565
  410MOL0     C55226   7.853   7.003   5.662  0.1096  0.5805 -0.4380
  410MOL0     C55227   7.933   6.978   5.786  0.0619  0.4862 -0.0428
  410MOL0     C55228   8.058   6.889   5.767  0.1459 -1.0368  0.5296
  410MOL0     C55229   8.130   6.882   5.906 -0.0248 -0.4736 -0.3152
  410MOL0     C55230   8.262   6.812   5.898 -1.0817  0.1730  0.4228
  410MOL0     C55231   8.261   6.662   5.946 -0.1781  0.4953  0.6430
  410MOL0     N55232   8.181   6.589   5.849  0.5275  0.6292  0.3809
  410MOL0     C55233   8.069   6.511   5.880  0.0952 -0.0232 -0.9667
  410MOL0     C55234   8.033   6.449   5.767 -0.5229  0.3174 -0.3042
  410MOL0     C55235   7.908   6.366   5.753 -0.2221 -0.2675  0.1216
  410MOL0     C55236   7.789   6.441   5.817 -0.1666  0.4823  0.4394
  410MOL0     C55237   7.746   6.575   5.746 -0.7670 -0.4374  0.4165
  410MOL0     C55238   7.620   6.624   5.806 -0.6829 -0.7725  0.6755
  410MOL0     O55239   7.653   6.662   5.937 -0.3707  0.3864 -0.2543
  410MOL0     C55240   7.584   6.752   6.014  0.9147  0.2117 -0.3143
  410MOL0     C55241   7.626   6.780   6.143  0.1095  0.8482  0.5511
  410MOL0     C55242   7.550   6.871   6.222  0.1010 -0.2492  0.0979
  410MOL0     C55243   7.597   6.899   6.363  0.3288 -0.9960 -0.3041
  410MOL0     C55244   7.438   6.935   6.165  0.9363 -0.2175  0.3869
  410MOL0     C55245   7.355   7.030   6.240  0.4223  0.3878 -0.9629
  410MOL0     O55246   7.224   7.052   6.193  0.0804 -0.9877 -0.4925
  410MOL0     C55247   7.168   7.176   6.210 -0.0155 -0.5650  1.2693
  410MOL0     C55248   7.126   7.251   6.099  0.4057 -1.3741  0.1398
  410MOL0     C55249   7.058   7.372   6.118 -0.5860 -0.4752  0.1791
  410MOL0     C55250   7.043   7.429   6.241 -0.6943  0.7970 -1.2977
  410MOL0     O55251   6.992   7.552   6.262  0.0105 -0.7956 -0.1165
  410MOL0     C55252   6.896   7.604   6.173 -0.0035 -0.4697 -0.5474
  410MOL0     C55253   6.802   7.680   6.267 -0.0637  0.8340  0.3243
  410MOL0     C55254   6.682   7.729   6.187 -0.7669 -0.0038  0.1119
  410MOL0     C55255   6.590   7.797   6.281  0.0860 -0.0756 -0.6996
  410MOL0     C55256   6.450   7.791   6.217 -0.0903 -0.2647  0.1142
  410MOL0     C55257   6.353   7.891   6.274 -0.1759 -0.7068  0.0641
  410MOL0     C55258   6.220   7.861   6.208  0.8367  0.2324  0.0325
  410MOL0     C55259   6.110   7.951   6.269  0.2047 -0.8395 -0.6226
  410MOL0    Cl55260   6.130   8.122   6.224 -0.0743  0.3776 -0.0485
  410MOL0     C55261   7.086   7.360   6.353  0.0828  0.7811 -0.1479
  410MOL0     C55262   7.150   7.237   6.337 -0.2274 -0.3513 -0.6894
  410MOL0     O55263   7.402   7.102   6.325 -0.2534  0.9724  0.2929
  410MOL0     C55264   7.381   6.885   6.046 -0.1951 -0.2174  0.8745
  410MOL0     C55265   7.455   6.795   5.968 -0.1088 -0.0138 -1.2282
  410MOL0     N55266   8.112   6.505   5.668  0.3234  0.0928  0.5652
  410MOL0     N55267   8.207   6.581   5.717  0.6162 -0.5370 -0.1981
  410MOL0     C55268   7.389   6.973   5.656  0.4448  0.6987 -0.1775
  410MOL0     C55269   7.269   6.927   5.707 -1.0435 -0.6394 -0.3194
  410MOL0     C55270   6.898   6.716   5.793 -0.5931 -0.7139  0.2033
  410MOL0     C55271   6.763   6.750   5.769 -0.0936 -0.3128  0.2392
  410MOL0     C55272   6.659   6.685   5.837  0.4215 -0.1105  0.5112
  410MOL0     C55273   6.688   6.571   5.920 -0.3121  0.4210 -0.4145
  410MOL0     O55274   6.595   6.492   5.985  0.4187  0.3079 -0.6626
  410MOL0     C55275   6.459   6.526   5.983  1.1298 -0.6354  1.6390
  410MOL0     C55276   6.382   6.429   6.070  0.3431  0.0843 -0.3151
  410MOL0     C55277   6.426   6.430   6.216 -0.1003  0.1246  0.3935
  410MOL0     C55278   6.395   6.561   6.291  0.5714 -0.3050 -0.3361
  410MOL0     C55279   6.255   6.571   6.338  0.3599 -0.0310 -0.2230
  410MOL0     C55280   6.139   6.578   6.386  0.7534 -0.5243 -0.2176
  410MOL0     C55281   6.822   6.548   5.952 -0.5121  0.3041  0.4133
  410MOL0     C55282   6.933   6.613   5.883  0.5417 -0.6238 -0.6115
  410MOL0     H55283   7.283   6.626   5.562  1.2571  0.0824 -1.9581
  410MOL0     H55284   7.480   6.714   5.449  0.2464  1.2461 -1.0493
  410MOL0     H55285   7.727   7.096   5.480 -0.6998  2.2975  0.4156
  410MOL0     H55286   7.572   7.153   5.558 -0.3057 -0.4198  2.4608
  410MOL0     H55287   7.718   7.167   5.722  0.1848 -0.1045  0.8464
  410MOL0     H55288   7.650   7.014   5.753 -0.9257  0.8705 -1.1080
  410MOL0     H55289   7.829   6.910   5.609 -0.5348 -0.7612  2.0820
  410MOL0     H55290   7.912   7.070   5.598 -0.4930  2.4291  0.8638
  410MOL0     H55291   7.958   7.076   5.826  3.4047  0.1091 -0.9549
  410MOL0     H55292   7.869   6.925   5.857 -0.8484  1.7915  0.1403
  410MOL0     H55293   8.031   6.790   5.729 -0.3871  0.0824 -2.2747
  410MOL0     H55294   8.116   6.949   5.696 -2.0684  1.2592  0.5169
  410MOL0     H55295   8.150   6.979   5.953 -2.1178 -1.1128  2.0741
  410MOL0     H55296   8.062   6.829   5.973 -1.3484  1.2572 -0.2200
  410MOL0     H55297   8.299   6.820   5.795 -0.5900 -1.4310  0.4340
  410MOL0     H55298   8.337   6.860   5.962 -1.0362 -1.9223  2.0684
  410MOL0     H55299   8.225   6.659   6.049 -2.2270  0.0721 -0.0274
  410MOL0     H55300   8.359   6.615   5.948  0.1431  1.1222  0.1040
  410MOL0     H55301   8.028   6.502   5.980  2.0872 -1.3245 -0.1856
  410MOL0     H55302   7.890   6.327   5.653 -0.3447 -1.7992  0.7194
  410MOL0     H55303   7.922   6.271   5.805 -1.7847 -0.2455  0.6533
  410MOL0     H55304   7.815   6.457   5.922  0.4996  2.6996 -0.0094
  410MOL0     H55305   7.706   6.369   5.816  0.6641 -0.5345 -1.0949
  410MOL0     H55306   7.734   6.558   5.639  1.9775 -0.3423  0.0209
  410MOL0     H55307   7.825   6.650   5.757 -1.1232  0.0203 -0.1514
  410MOL0     H55308   7.543   6.547   5.806  0.5279 -2.0918 -1.3960
  410MOL0     H55309   7.602   6.713   5.745 -0.1309 -1.4010 -0.4447
  410MOL0     H55310   7.714   6.741   6.193 -0.4582  0.3779  1.1888
  410MOL0     H55311   7.667   6.828   6.408 -0.2681 -0.9314  0.7595
  410MOL0     H55312   7.639   6.999   6.357 -1.3386 -0.3362 -1.7683
  410MOL0     H55313   7.510   6.911   6.428  0.3843  1.2198 -0.5601
  410MOL0     H55314   7.132   7.197   6.005  2.5018  1.3244 -1.4418
  410MOL0     H55315   7.024   7.427   6.031 -0.3035 -1.8129 -0.8112
  410MOL0     H55316   6.951   7.655   6.094  1.8799  1.5697  1.9078
  410MOL0     H55317   6.829   7.535   6.121 -1.0428  1.6512 -2.1693
  410MOL0     H55318   6.775   7.618   6.353  0.4183 -1.6009 -1.1943
  410MOL0     H55319   6.856   7.769   6.302  0.5752  0.2332  0.9163
  410MOL0     H55320   6.634   7.644   6.137  0.0738 -0.6943  0.4382
  410MOL0     H55321   6.709   7.785   6.097 -0.5404 -0.9429 -0.4271
  410MOL0     H55322   6.607   7.752   6.379  2.2209 -0.6835 -1.2984
  410MOL0     H55323   6.621   7.900   6.304 -1.5654 -0.0690  1.9895
  410MOL0     H55324   6.400   7.694   6.226 -0.4378 -0.1391 -0.4353
  410MOL0     H55325   6.467   7.814   6.112 -0.2892  0.3945  0.2207
  410MOL0     H55326   6.353   7.880   6.383  3.6726 -1.2606  0.1638
  410MOL0     H55327   6.382   7.994   6.252  2.0221 -0.7877  2.2451
  410MOL0     H55328   6.199   7.755   6.222 -2.4720  0.7668 -0.2072
  410MOL0     H55329   6.228   7.891   6.103  3.6149 -0.3132 -0.0078
  410MOL0     H55330   6.118   7.963   6.378  3.4806  1.0837 -0.9279
  410MOL0     H55331   6.014   7.899   6.261 -0.4282 -0.4164  2.8338
  410MOL0     H55332   7.085   7.399   6.454 -0.4046 -1.0306  0.5774
  410MOL0     H55333   7.180   7.178   6.423 -1.3921  0.6500  0.4394
  410MOL0     H55334   7.285   6.919   6.009 -0.7094  0.8930  3.0755
  410MOL0     H55335   7.396   6.754   5.887 -2.5342  1.6694 -0.4211
  410MOL0     H55336   7.415   7.072   5.691  0.8049  0.0916  1.3413
  410MOL0     H55337   7.219   6.992   5.777  0.5796  0.3979 -0.0842
  410MOL0     H55338   6.745   6.831   5.699 -0.1827 -1.4311 -1.0744
  410MOL0     H55339   6.555   6.706   5.813  0.7813  0.5166 -0.5885
  410MOL0     H55340   6.444   6.629   6.018 -0.8350 -0.7885  1.3673
  410MOL0     H55341   6.421   6.529   5.881  1.3671 -1.4567  1.5158
  410MOL0     H55342   6.406   6.332   6.026 -1.5030 -0.2947 -0.5413
  410MOL0     H55343   6.275   6.449   6.057  0.3362  1.3713  1.3571
  410MOL0     H55344   6.533   6.412   6.206 -0.2711  0.3922 -2.7147
  410MOL0     H55345   6.376   6.340   6.255 -0.3493 -0.1252 -0.4777
  410MOL0     H55346   6.423   6.646   6.229  1.7851  0.3148  1.0064
  410MOL0     H55347   6.461   6.569   6.377 -0.6196  0.6586  0.5251
  410MOL0     H55348   6.044   6.598   6.429 -0.4019 -2.0225 -1.8931
  410MOL0     H55349   6.825   6.472   6.030 -0.4411 -0.0047  0.1156
  410MOL0     H55350   7.036   6.594   5.911  0.1330 -1.2539  0.5603
  411MOL0     O55351   9.703   3.671   8.950 -0.9187 -0.5871 -0.0202
  411MOL0     C55352   9.775   3.579   8.981  0.2436 -0.9215 -0.0193
  411MOL0     O55353   9.727   3.455   8.980 -0.6779  0.2002  0.0416
  411MOL0     C55354   9.617   3.431   8.906  0.4707 -0.3614  0.0785
  411MOL0     C55355   9.493   3.422   8.966 -0.6662 -0.6633  0.5733
  411MOL0     C55356   9.374   3.411   8.904  0.8006 -0.4731  0.3264
  411MOL0     C55357   9.373   3.403   8.767 -0.2320  0.3343  0.8056
  411MOL0     O55358   9.256   3.397   8.694 -0.5403 -0.0005 -0.6820
  411MOL0     C55359   9.248   3.451   8.559  0.3962  0.5842 -0.3609
  411MOL0     C55360   9.104   3.463   8.516  0.4881 -0.0582 -0.1766
  411MOL0     C55361   9.093   3.545   8.391 -0.3731  0.5233 -0.6436
  411MOL0     C55362   8.949   3.550   8.359  0.2823  1.3211 -0.8640
  411MOL0     C55363   8.920   3.625   8.230 -0.0009  0.1879  0.1389
  411MOL0     C55364   8.779   3.602   8.172  0.6560  0.2719  0.1379
  411MOL0     C55365   8.717   3.728   8.117  0.0402  0.0878 -0.7434
  411MOL0     C55366   8.764   3.784   7.984  0.7879  0.2877 -0.0148
  411MOL0     N55367   8.899   3.844   7.983  0.3626 -0.1991 -0.1379
  411MOL0     C55368   8.936   3.958   8.047 -0.4281 -0.4009 -0.5094
  411MOL0     C55369   9.072   3.959   8.051  0.1091  0.0478 -0.5271
  411MOL0     C55370   9.160   4.055   8.122  0.0623 -0.2231 -0.3298
  411MOL0     C55371   9.305   4.072   8.063  0.4111  0.5269 -0.3118
  411MOL0     C55372   9.386   4.166   8.165 -0.1690 -0.7163 -0.6906
  411MOL0     C55373   9.533   4.168   8.128  0.6091  1.1422 -0.3024
  411MOL0     O55374   9.621   4.125   8.246  0.0917 -0.6235  0.4404
  411MOL0     C55375   9.761   4.123   8.233 -0.1237  0.2670  0.2244
  411MOL0     C55376   9.836   4.095   8.353  0.4582  0.0510  0.3180
  411MOL0     C55377   9.981   4.087   8.344  0.2675  0.8242 -0.4013
  411MOL0     C55378  10.045   4.051   8.473 -0.1144  0.6975 -0.5921
  411MOL0     C55379  10.041   4.117   8.223 -0.4511  0.8773  0.9228
  411MOL0     C55380  10.190   4.128   8.213 -0.2197  0.4181 -0.1909
  411MOL0     O55381  10.235   4.093   8.088  0.4145  0.0697  0.3874
  411MOL0     C55382  10.369   4.059   8.071 -0.4385  0.3086 -0.2379
  411MOL0     C55383  10.456   4.007   8.167 -0.7284 -0.0654  0.2382
  411MOL0     C55384  10.583   3.959   8.134 -0.8406 -0.1062  0.5355
  411MOL0     C55385  10.630   3.970   8.006  0.1760  0.4541 -0.2348
  411MOL0     O55386  10.760   3.930   7.982 -0.4911 -1.0137  0.6423
  411MOL0     C55387  10.812   3.903   7.853 -0.1272 -0.7138  0.3056
  411MOL0     C55388  10.962   3.874   7.847  0.0065 -0.7162 -0.2697
  411MOL0     C55389  11.052   3.989   7.906  0.8703  0.8758  0.1837
  411MOL0     C55390  11.198   3.977   7.876 -0.4239  0.0410  0.5315
  411MOL0     C55391  11.282   4.079   7.961  0.1108  0.2204  0.2167
  411MOL0     C55392  11.429   4.069   7.912  0.0404 -0.1356 -0.0340
  411MOL0     C55393  11.526   4.149   7.993 -0.2968 -0.2929 -0.0980
  411MOL0     C55394  11.681   4.138   7.960  0.5374  0.3632 -0.0539
  411MOL0    Cl55395  11.743   3.976   7.970 -0.1257  0.6526 -0.1016
  411MOL0     C55396  10.539   4.014   7.905 -0.8859  0.5254  0.0565
  411MOL0     C55397  10.416   4.058   7.943  1.3028  0.0438 -0.2171
  411MOL0     O55398  10.255   4.164   8.311  0.5482  0.4123 -0.2739
  411MOL0     C55399   9.971   4.156   8.112 -0.1815  0.8988 -0.0062
  411MOL0     C55400   9.833   4.166   8.118  0.0879 -0.5596 -0.0026
  411MOL0     N55401   9.113   3.844   8.000  0.0693  0.6022  0.0101
  411MOL0     N55402   9.010   3.772   7.956  0.1026 -0.4253  0.0898
  411MOL0     C55403   9.497   3.387   8.696 -0.6131 -0.2354  0.1528
  411MOL0     C55404   9.616   3.405   8.772  0.0088  0.1182 -0.5113
  411MOL0     C55405   9.902   3.611   9.031 -0.2923  0.2674 -0.4890
  411MOL0     C55406   9.956   3.742   9.010 -0.1419  0.4381  0.6940
  411MOL0     C55407  10.079   3.776   9.061 -0.0777 -0.0789 -0.3369
  411MOL0     C55408  10.162   3.682   9.126 -0.0709  0.7928 -0.0476
  411MOL0     O55409  10.288   3.694   9.171  0.3077  0.0584 -0.0675
  411MOL0     C55410  10.345   3.824   9.184  0.7248 -0.3149  0.7962
  411MOL0     C55411  10.467   3.832   9.273 -1.4634  0.2883 -0.0139
  411MOL0     C55412  10.562   3.709   9.242  0.3167 -0.2273  0.5740
  411MOL0     C55413  10.699   3.773   9.208 -0.0882 -0.0726 -0.5107
  411MOL0     C55414  10.774   3.685   9.125 -0.6404  0.4039  0.1235
  411MOL0     C55415  10.834   3.613   9.038  1.1593  0.1987 -0.7770
  411MOL0     C55416  10.108   3.549   9.130 -0.2221 -0.5656 -0.2895
  411MOL0     C55417   9.976   3.512   9.096 -0.8582  0.1504  0.2710
  411MOL0     H55418   9.499   3.399   9.072  3.1098 -2.8914  0.0772
  411MOL0     H55419   9.281   3.408   8.959 -0.2959  2.4593 -1.1302
  411MOL0     H55420   9.291   3.552   8.559  1.3970  0.1764 -1.0822
  411MOL0     H55421   9.306   3.386   8.493 -0.3677 -0.8380  0.3362
  411MOL0     H55422   9.057   3.365   8.507 -2.1085  1.0332  0.6428
  411MOL0     H55423   9.045   3.509   8.596  0.3800  1.5075 -1.1181
  411MOL0     H55424   9.126   3.649   8.392  0.6624  0.2728 -2.5817
  411MOL0     H55425   9.143   3.497   8.306 -2.6385 -0.4574 -1.4974
  411MOL0     H55426   8.906   3.450   8.357  3.9742 -0.4245 -0.2359
  411MOL0     H55427   8.903   3.614   8.436  0.0994  0.0634  0.0978
  411MOL0     H55428   8.935   3.731   8.255  3.0632 -0.4767  1.6028
  411MOL0     H55429   8.990   3.600   8.150 -1.0351 -2.2785 -0.0575
  411MOL0     H55430   8.774   3.514   8.107  2.4419  1.9141 -2.4195
  411MOL0     H55431   8.715   3.581   8.257 -0.2758 -2.0292 -1.0259
  411MOL0     H55432   8.608   3.715   8.111 -0.0000 -0.4247  0.7471
  411MOL0     H55433   8.732   3.800   8.199 -0.1984 -0.9936  0.2731
  411MOL0     H55434   8.693   3.860   7.949  3.7511  2.9395 -0.7576
  411MOL0     H55435   8.755   3.701   7.914 -0.9281 -1.0972  1.7351
  411MOL0     H55436   8.881   4.033   8.103  0.9144  1.2608 -1.3031
  411MOL0     H55437   9.114   4.154   8.123  0.2115 -0.1542 -0.1698
  411MOL0     H55438   9.161   4.018   8.225  0.3433  2.9534  0.9187
  411MOL0     H55439   9.305   4.124   7.967  2.0678 -3.8631 -2.9710
  411MOL0     H55440   9.350   3.973   8.056 -1.1853 -0.2490  0.0168
  411MOL0     H55441   9.378   4.129   8.268 -0.6568 -1.9927 -1.1709
  411MOL0     H55442   9.351   4.269   8.169 -1.4702 -1.1670  0.1060
  411MOL0     H55443   9.566   4.269   8.101 -0.0771  1.3772 -0.2836
  411MOL0     H55444   9.549   4.094   8.050  0.6884 -0.0763  0.8357
  411MOL0     H55445   9.773   4.081   8.440  1.3463  0.2299  0.9980
  411MOL0     H55446  10.100   4.135   8.517 -0.3349 -0.8929  3.1367
  411MOL0     H55447   9.970   4.020   8.547 -0.0440  2.0668  0.0844
  411MOL0     H55448  10.112   3.966   8.461  1.9749  1.7710  2.3834
  411MOL0     H55449  10.431   3.989   8.271  3.0762 -3.1322  0.8453
  411MOL0     H55450  10.647   3.907   8.205  0.2998  0.3198 -0.1539
  411MOL0     H55451  10.757   3.822   7.805  0.2357 -1.0384  0.4329
  411MOL0     H55452  10.792   3.992   7.792 -0.4811 -1.0230 -0.0378
  411MOL0     H55453  10.987   3.786   7.907 -2.4283  0.3783  2.5816
  411MOL0     H55454  10.988   3.866   7.741  2.2276  2.9280 -0.1711
  411MOL0     H55455  11.030   3.991   8.014  2.2294 -3.0053  0.6916
  411MOL0     H55456  11.014   4.085   7.870  0.0940  1.2311  1.8490
  411MOL0     H55457  11.231   3.884   7.922 -2.4231  0.0297  2.1046
  411MOL0     H55458  11.214   3.973   7.768 -1.8149 -0.1012  0.3126
  411MOL0     H55459  11.277   4.044   8.065 -0.1852 -2.1419 -0.5260
  411MOL0     H55460  11.244   4.181   7.950 -0.3136 -0.1476 -2.2595
  411MOL0     H55461  11.469   3.968   7.895  1.0051  0.5804 -2.4074
  411MOL0     H55462  11.428   4.124   7.818 -2.3076  3.1383  1.6964
  411MOL0     H55463  11.503   4.115   8.094 -0.2552 -0.7248 -0.2336
  411MOL0     H55464  11.506   4.254   7.969  0.0955 -1.0901 -4.8011
  411MOL0     H55465  11.738   4.198   8.032 -0.8901  1.0527  0.5263
  411MOL0     H55466  11.699   4.186   7.863 -0.1530  1.8785  0.5454
  411MOL0     H55467  10.570   4.013   7.801 -0.2665 -2.1797  0.1904
  411MOL0     H55468  10.335   4.087   7.877  0.6189  2.3356  1.4982
  411MOL0     H55469  10.018   4.172   8.015  0.1860 -3.5511 -0.7997
  411MOL0     H55470   9.794   4.220   8.032  2.8247  1.1461 -0.2858
  411MOL0     H55471   9.499   3.346   8.596  3.7103 -0.3998  0.1088
  411MOL0     H55472   9.712   3.378   8.730  0.0575 -0.0297 -0.3057
  411MOL0     H55473   9.890   3.815   8.964 -3.3350 -1.3873  2.0143
  411MOL0     H55474  10.115   3.874   9.034 -1.6543 -0.4280 -4.6244
  411MOL0     H55475  10.368   3.847   9.079 -0.2380 -2.2641  0.1105
  411MOL0     H55476  10.274   3.900   9.216 -0.1000  1.1682 -3.7945
  411MOL0     H55477  10.438   3.823   9.378  2.9672 -2.2407  1.2676
  411MOL0     H55478  10.509   3.933   9.260 -1.3554  0.0312 -1.9194
  411MOL0     H55479  10.534   3.648   9.156  1.8508 -1.7078  1.0684
  411MOL0     H55480  10.564   3.633   9.320 -0.7677  0.5400  1.3763
  411MOL0     H55481  10.755   3.784   9.302  1.0115 -0.1758 -1.1365
  411MOL0     H55482  10.693   3.872   9.161 -2.9145 -0.0555 -0.2640
  411MOL0     H55483  10.902   3.567   8.969  2.6736 -0.5791  1.1342
  411MOL0     H55484  10.180   3.479   9.171  1.3363 -0.1310 -2.1523
  411MOL0     H55485   9.945   3.410   9.118 -1.1332 -0.6307 -3.2618
  412MOL0     O55486   8.530   1.164   7.234 -0.7341 -0.6553  0.6020
  412MOL0     C55487   8.529   1.101   7.129 -0.1363  0.3933 -0.6403
  412MOL0     O55488   8.416   1.049   7.070 -0.1747 -0.5694  0.0860
  412MOL0     C55489   8.287   1.047   7.136  0.1164  0.1894  0.4848
  412MOL0     C55490   8.221   0.930   7.174  0.3816  0.0308 -0.2219
  412MOL0     C55491   8.095   0.931   7.233  0.3140 -0.7741  0.1458
  412MOL0     C55492   8.041   1.058   7.277  0.2537  1.0612  0.0998
  412MOL0     O55493   7.927   1.077   7.351 -0.1088  0.3103  0.1925
  412MOL0     C55494   7.850   0.966   7.392 -0.4878 -0.0160 -0.1259
  412MOL0     C55495   7.752   0.900   7.297  0.7731 -0.1774  0.4579
  412MOL0     C55496   7.629   0.981   7.263 -0.4571  0.1787 -0.8511
  412MOL0     C55497   7.542   0.909   7.148  0.4280  0.8655  0.0170
  412MOL0     C55498   7.409   0.991   7.130 -0.4197 -0.4794 -0.3482
  412MOL0     C55499   7.348   0.936   6.998 -0.0232 -0.6213  0.1996
  412MOL0     C55500   7.191   0.959   7.015  0.0749  0.7734 -0.1039
  412MOL0     C55501   7.124   0.888   6.898 -1.0672 -0.1503 -0.8243
  412MOL0     N55502   6.985   0.911   6.894  0.5528 -0.8830  0.9747
  412MOL0     C55503   6.925   1.037   6.874  0.2261  0.5131  0.8033
  412MOL0     C55504   6.794   1.007   6.859  0.0533  0.4398 -0.5400
  412MOL0     C55505   6.674   1.088   6.810 -0.5684  0.7536  0.3749
  412MOL0     C55506   6.541   1.026   6.855 -0.5183  1.0931 -0.3484
  412MOL0     C55507   6.415   1.094   6.801  1.3120 -0.1944  0.1759
  412MOL0     C55508   6.282   1.053   6.861  0.1338  0.5154  0.1387
  412MOL0     O55509   6.189   1.165   6.858 -0.1100 -0.0268 -0.2202
  412MOL0     C55510   6.053   1.145   6.877 -0.4701 -0.2703  0.7844
  412MOL0     C55511   5.996   1.025   6.917  0.3175 -0.0030 -0.1211
  412MOL0     C55512   5.861   0.999   6.932 -0.0096  0.4318  0.2988
  412MOL0     C55513   5.823   0.865   6.978 -0.1452 -0.4053  0.2699
  412MOL0     C55514   5.771   1.105   6.901  0.2924  0.7399 -0.4711
  412MOL0     C55515   5.621   1.096   6.930  0.5281  0.4133  0.4075
  412MOL0     O55516   5.551   1.200   6.884 -0.6591 -0.2248 -0.9374
  412MOL0     C55517   5.411   1.194   6.885  0.1867 -0.4898  0.0265
  412MOL0     C55518   5.329   1.167   7.002  0.1800 -0.4171  0.3863
  412MOL0     C55519   5.192   1.166   6.987  0.1627 -0.6014  0.2447
  412MOL0     C55520   5.127   1.199   6.865  0.3778  0.5503  0.7246
  412MOL0     O55521   4.993   1.199   6.861  0.6125  0.1049 -0.5008
  412MOL0     C55522   4.925   1.239   6.735 -0.5202  0.7638 -0.0724
  412MOL0     C55523   4.785   1.265   6.779 -0.9325 -0.1035 -0.7873
  412MOL0     C55524   4.688   1.145   6.772 -0.3100  0.6254 -0.0550
  412MOL0     C55525   4.570   1.159   6.872  0.2173  0.1503 -0.0760
  412MOL0     C55526   4.463   1.051   6.850 -0.5337  0.5954  0.3414
  412MOL0     C55527   4.338   1.054   6.940 -0.8689 -0.4081  0.6038
  412MOL0     C55528   4.215   0.997   6.871 -0.0753  0.2985  0.2863
  412MOL0     C55529   4.169   0.862   6.914  0.5921 -0.5129  0.4322
  412MOL0    Cl55530   4.075   0.858   7.056  0.1769  0.6020  0.1879
  412MOL0     C55531   5.207   1.220   6.752 -0.3962 -0.6139  0.3409
  412MOL0     C55532   5.351   1.223   6.764  0.4704 -0.1929 -0.0674
  412MOL0     O55533   5.570   1.001   6.996  0.0664  0.0275 -0.0329
  412MOL0     C55534   5.826   1.228   6.847 -0.1113  0.1449  0.0706
  412MOL0     C55535   5.961   1.246   6.836 -0.1356 -0.3390  0.6176
  412MOL0     N55536   6.783   0.864   6.881 -0.2452 -0.4255 -0.1150
  412MOL0     N55537   6.899   0.813   6.912  0.6293  0.2853 -0.3780
  412MOL0     C55538   8.118   1.176   7.253 -0.2159  0.6824 -0.2352
  412MOL0     C55539   8.227   1.164   7.173  0.2417 -0.0409 -0.1444
  412MOL0     C55540   8.655   1.092   7.051 -0.0669  0.3618 -0.1508
  412MOL0     C55541   8.784   1.113   7.108 -0.9589 -0.2026 -0.0852
  412MOL0     C55542   8.903   1.076   7.053 -0.2464 -0.6713 -0.4618
  412MOL0     C55543   8.912   1.015   6.925  1.2404 -0.4522 -0.2246
  412MOL0     O55544   9.035   0.998   6.878 -0.4379  0.0249  0.4142
  412MOL0     C55545   9.075   0.858   6.879  0.3234 -0.2474 -0.0761
  412MOL0     C55546   9.226   0.844   6.838  0.8614  0.3462 -0.9553
  412MOL0     C55547   9.313   0.874   6.958 -0.7163 -0.2619  0.9529
  412MOL0     C55548   9.455   0.939   6.930  0.0937 -1.3186  0.6922
  412MOL0     C55549   9.524   0.968   7.058 -0.1956  0.1493  0.2439
  412MOL0     C55550   9.569   0.995   7.164  0.9797 -0.8015 -0.8240
  412MOL0     C55551   8.785   1.004   6.861 -0.1355  1.7572  0.3724
  412MOL0     C55552   8.666   1.048   6.917  0.3327  0.3761 -0.2337
  412MOL0     H55553   8.250   0.826   7.166 -1.5246 -1.0710  3.8615
  412MOL0     H55554   8.037   0.840   7.237 -1.3579  0.2758  0.9493
  412MOL0     H55555   7.924   0.896   7.431 -0.7204 -0.2018 -0.0113
  412MOL0     H55556   7.792   0.996   7.479  0.2131  1.5696 -0.1678
  412MOL0     H55557   7.801   0.880   7.201  1.0291  2.1665  0.0574
  412MOL0     H55558   7.714   0.811   7.349 -0.1517 -0.0921 -0.0653
  412MOL0     H55559   7.571   0.974   7.356  1.7147 -0.7774  0.5231
  412MOL0     H55560   7.656   1.084   7.240 -2.0149  1.8260  3.5987
  412MOL0     H55561   7.601   0.903   7.057 -2.1246 -2.1780 -1.6243
  412MOL0     H55562   7.526   0.807   7.185  0.6189  1.2371  1.1704
  412MOL0     H55563   7.340   0.976   7.214 -3.1890  0.7110 -2.2378
  412MOL0     H55564   7.436   1.096   7.123 -2.2380  0.0242 -0.2844
  412MOL0     H55565   7.387   0.984   6.908  1.0486  0.8123  1.3646
  412MOL0     H55566   7.366   0.828   7.004 -0.4508 -0.7748 -0.9753
  412MOL0     H55567   7.166   0.918   7.113  2.0134 -2.2850 -0.7446
  412MOL0     H55568   7.152   1.061   7.013  0.4811  0.9840  1.5028
  412MOL0     H55569   7.149   0.782   6.904 -1.6365 -0.2380  0.3067
  412MOL0     H55570   7.152   0.935   6.803 -2.5334  1.5961 -0.4445
  412MOL0     H55571   6.967   1.136   6.855  1.0331  0.0278 -0.0141
  412MOL0     H55572   6.681   1.195   6.830  2.2752  1.0111 -1.4941
  412MOL0     H55573   6.671   1.080   6.701  0.2892  0.3211  0.3759
  412MOL0     H55574   6.547   1.027   6.964 -0.8472 -0.7259 -0.2767
  412MOL0     H55575   6.549   0.925   6.813  1.4915  0.8232  0.5733
  412MOL0     H55576   6.412   1.063   6.695  0.9565 -2.9327  0.8943
  412MOL0     H55577   6.423   1.203   6.799  1.1196 -0.1050 -3.3536
  412MOL0     H55578   6.301   1.019   6.963  0.2879 -0.4345 -0.1915
  412MOL0     H55579   6.244   0.970   6.800  2.1929 -1.2740  1.1508
  412MOL0     H55580   6.056   0.944   6.956  1.3652  1.4470  1.4191
  412MOL0     H55581   5.766   0.872   7.072 -0.6684 -0.6052 -0.0306
  412MOL0     H55582   5.756   0.821   6.903  1.8600 -0.3507 -1.6183
  412MOL0     H55583   5.907   0.796   6.990 -1.6234 -2.6845 -1.6039
  412MOL0     H55584   5.387   1.148   7.092  0.2252 -0.5591  0.3278
  412MOL0     H55585   5.139   1.151   7.081 -0.5041  0.5454  0.0799
  412MOL0     H55586   4.976   1.330   6.701 -0.4637  0.4215 -0.9320
  412MOL0     H55587   4.943   1.157   6.665  0.7024  1.8543 -1.0988
  412MOL0     H55588   4.782   1.313   6.877 -0.9568 -1.9017  0.1391
  412MOL0     H55589   4.759   1.349   6.714  4.2105  0.9180 -2.0085
  412MOL0     H55590   4.745   1.052   6.780  1.5607  1.7641  0.6180
  412MOL0     H55591   4.644   1.147   6.672  0.3166  2.7960 -0.3349
  412MOL0     H55592   4.615   1.154   6.971  0.4974  0.2327 -0.1975
  412MOL0     H55593   4.523   1.258   6.872  1.0242  0.5353 -0.0677
  412MOL0     H55594   4.504   0.949   6.854  1.7550  1.5114  2.3552
  412MOL0     H55595   4.439   1.072   6.745  1.1505 -0.0139 -0.2036
  412MOL0     H55596   4.367   1.001   7.032 -2.7351 -4.1794 -0.7734
  412MOL0     H55597   4.320   1.157   6.972  0.9647  0.4227 -0.8624
  412MOL0     H55598   4.236   0.995   6.764 -0.2552 -1.1812  0.2631
  412MOL0     H55599   4.131   1.066   6.885  0.2838  0.4537  1.8967
  412MOL0     H55600   4.259   0.802   6.932  1.4063 -0.1383 -2.0701
  412MOL0     H55601   4.118   0.800   6.840  2.8138  0.1695 -1.8190
  412MOL0     H55602   5.159   1.245   6.658  0.0344  1.6353  0.6685
  412MOL0     H55603   5.411   1.231   6.674 -0.8661 -2.5469 -1.2867
  412MOL0     H55604   5.766   1.314   6.817 -0.5186 -0.7454 -1.7889
  412MOL0     H55605   5.995   1.343   6.802 -0.7065 -0.4891 -0.4116
  412MOL0     H55606   8.068   1.269   7.279 -1.4428 -0.0030 -0.0672
  412MOL0     H55607   8.271   1.258   7.142 -2.0000  0.8654 -0.7835
  412MOL0     H55608   8.796   1.168   7.201 -0.4859  1.5391 -1.1192
  412MOL0     H55609   8.989   1.097   7.116 -0.7836  1.5149 -0.3925
  412MOL0     H55610   9.063   0.819   6.981 -4.1003 -1.7459 -0.9216
  412MOL0     H55611   9.019   0.812   6.797 -0.4125 -0.7973  0.7050
  412MOL0     H55612   9.254   0.910   6.755 -0.0156  1.9954  0.0098
  412MOL0     H55613   9.228   0.737   6.815  1.1640 -0.3929  2.1477
  412MOL0     H55614   9.327   0.777   7.007  2.1855  0.2058  1.1966
  412MOL0     H55615   9.265   0.938   7.032 -0.2104  0.8420  0.3482
  412MOL0     H55616   9.440   1.032   6.875  1.8339 -1.5026 -0.1545
  412MOL0     H55617   9.518   0.870   6.873  1.0575 -0.6415  0.9239
  412MOL0     H55618   9.604   1.013   7.263  1.7980 -0.4242 -1.1796
  412MOL0     H55619   8.775   0.987   6.754  0.4793  5.2546 -0.3531
  412MOL0     H55620   8.578   1.067   6.857  0.6490  0.4232 -0.6885
  413MOL0     O55621   0.515   9.293  10.218  0.9861  0.0526 -0.5648
  413MOL0     C55622   0.493   9.188  10.277 -1.3058 -0.4245  0.3972
  413MOL0     O55623   0.373   9.130  10.304  0.6687 -0.4669 -0.2848
  413MOL0     C55624   0.255   9.180  10.256 -0.4926 -0.4466  0.9141
  413MOL0     C55625   0.200   9.293  10.320  0.4383 -0.5975  0.0101
  413MOL0     C55626   0.083   9.350  10.266  0.0398  0.4057  0.3015
  413MOL0     C55627   0.021   9.290  10.152  0.1546  0.3615  0.1056
  413MOL0     O55628  -0.104   9.340  10.119 -0.4279 -0.2103  0.6900
  413MOL0     C55629  -0.207   9.283  10.203 -0.6328 -0.1928 -0.4307
  413MOL0     C55630  -0.301   9.214  10.105  0.9788 -0.6825  0.5765
  413MOL0     C55631  -0.433   9.186  10.182 -0.6689  0.0231 -0.4715
  413MOL0     C55632  -0.523   9.079  10.110 -0.3933  0.0520  0.0703
  413MOL0     C55633  -0.656   9.070  10.177 -0.0398 -0.0695  0.2875
  413MOL0     C55634  -0.736   8.933  10.152 -0.6919 -0.8301  0.0566
  413MOL0     C55635  -0.887   8.951  10.177 -0.8627 -0.7623  0.0934
  413MOL0     C55636  -0.955   8.812  10.184 -0.8383 -0.5640  0.5217
  413MOL0     N55637  -1.105   8.812  10.220  0.0890 -0.0995 -0.3677
  413MOL0     C55638  -1.148   8.849  10.344 -0.3916 -0.2231  1.0301
  413MOL0     C55639  -1.277   8.831  10.347 -0.1323  0.0548 -0.2449
  413MOL0     C55640  -1.363   8.856  10.470 -0.3402 -0.2607 -0.0475
  413MOL0     C55641  -1.380   9.003  10.497  0.0107 -0.4925  0.6054
  413MOL0     C55642  -1.418   9.021  10.649 -0.5604  0.9180  0.7691
  413MOL0     C55643  -1.566   9.033  10.662 -0.0007  0.8784  0.9334
  413MOL0     O55644  -1.616   8.895  10.639 -0.6425 -0.2249  0.6492
  413MOL0     C55645  -1.748   8.878  10.632 -0.3108 -0.5212 -0.1194
  413MOL0     C55646  -1.794   8.745  10.624  1.2393 -0.1602  0.4002
  413MOL0     C55647  -1.936   8.714  10.630  0.6341 -0.6485  0.0735
  413MOL0     C55648  -1.980   8.567  10.643  0.0832 -0.4388 -0.5685
  413MOL0     C55649  -2.030   8.823  10.633 -0.3820  0.9897 -1.2289
  413MOL0     C55650  -2.176   8.803  10.653  0.2931 -1.1470 -1.1938
  413MOL0     O55651  -2.243   8.885  10.736  0.6605 -0.9341  0.4799
  413MOL0     C55652  -2.377   8.878  10.756 -0.0047 -0.2386 -0.4455
  413MOL0     C55653  -2.464   8.986  10.714 -0.2074 -0.5718 -0.4909
  413MOL0     C55654  -2.596   8.971  10.720  1.1472  0.5507  0.1870
  413MOL0     C55655  -2.654   8.858  10.769 -0.3664  0.2894 -0.6617
  413MOL0     O55656  -2.792   8.853  10.772  0.2001  0.4715  0.2202
  413MOL0     C55657  -2.856   8.726  10.763  0.6015 -0.3274 -0.2140
  413MOL0     C55658  -3.001   8.741  10.724 -0.3755 -0.3027 -0.2996
  413MOL0     C55659  -3.092   8.804  10.834 -0.6615  0.8399 -0.2273
  413MOL0     C55660  -3.193   8.901  10.776 -0.7015  0.2668 -0.0887
  413MOL0     C55661  -3.292   8.955  10.872  0.4004 -0.0248 -0.0521
  413MOL0     C55662  -3.403   8.845  10.901 -0.0078  0.8899  0.0011
  413MOL0     C55663  -3.517   8.888  11.003  0.8783  0.8172  0.5096
  413MOL0     C55664  -3.636   8.790  11.006 -0.3340  0.2586  0.4388
  413MOL0    Cl55665  -3.741   8.789  10.857 -0.2029  0.0341 -0.3774
  413MOL0     C55666  -2.574   8.754  10.809  0.5724  0.2626  0.0421
  413MOL0     C55667  -2.438   8.753  10.788  0.2430 -0.3623  1.4158
  413MOL0     O55668  -2.222   8.723  10.575 -0.5894 -0.3694 -0.4033
  413MOL0     C55669  -1.988   8.953  10.637  0.1360  0.5701  0.3384
  413MOL0     C55670  -1.846   8.977  10.650 -0.0871  0.6412 -0.1673
  413MOL0     N55671  -1.316   8.794  10.221 -0.4490 -0.0640 -0.7059
  413MOL0     N55672  -1.213   8.767  10.149 -0.0097  0.4975  0.1448
  413MOL0     C55673   0.077   9.185  10.084 -0.3400  0.1978  1.2728
  413MOL0     C55674   0.193   9.130  10.140 -0.2599 -0.4098 -0.8670
  413MOL0     C55675   0.617   9.116  10.321  0.9144  0.5163  0.3344
  413MOL0     C55676   0.744   9.184  10.323  0.4165  0.8639 -0.2095
  413MOL0     C55677   0.865   9.113  10.368  0.5575  0.4221  0.2747
  413MOL0     C55678   0.846   8.984  10.416  0.2752 -0.1614 -0.3239
  413MOL0     O55679   0.954   8.902  10.456  0.5864  0.6662  0.2631
  413MOL0     C55680   1.082   8.954  10.483 -0.8152 -0.2735 -0.3812
  413MOL0     C55681   1.092   8.999  10.634 -0.1836 -0.5186 -0.1303
  413MOL0     C55682   1.004   8.904  10.730 -0.8702 -1.2268 -0.2999
  413MOL0     C55683   1.010   8.748  10.711 -0.0976 -0.1938  0.3739
  413MOL0     C55684   1.150   8.700  10.719  0.3636 -0.1990  0.5163
  413MOL0     C55685   1.264   8.655  10.726  0.5417  0.4254  0.1268
  413MOL0     C55686   0.727   8.917  10.407  0.4046  0.1008 -0.2533
  413MOL0     C55687   0.610   8.982  10.364 -0.3251 -0.5433 -0.6430
  413MOL0     H55688   0.245   9.325  10.413 -0.9575  1.5995  0.0043
  413MOL0     H55689   0.050   9.447  10.303 -0.5633  0.1867  0.3520
  413MOL0     H55690  -0.174   9.207  10.275 -0.9896  0.0249 -0.0338
  413MOL0     H55691  -0.258   9.367  10.252 -1.6496 -0.5861 -0.8103
  413MOL0     H55692  -0.337   9.274  10.020  0.3016 -0.0245  1.3066
  413MOL0     H55693  -0.256   9.128  10.056  0.2316  0.0029 -1.4126
  413MOL0     H55694  -0.404   9.142  10.278  1.9321 -0.5437 -1.4470
  413MOL0     H55695  -0.498   9.271  10.205 -1.8186 -0.5482 -1.4716
  413MOL0     H55696  -0.528   9.098  10.002  1.9112  0.8531  0.0535
  413MOL0     H55697  -0.476   8.981  10.113 -0.0784 -0.0513 -3.6749
  413MOL0     H55698  -0.651   9.080  10.286 -2.0708 -1.2908  0.5509
  413MOL0     H55699  -0.721   9.149  10.139  0.1217  0.4183  0.9936
  413MOL0     H55700  -0.721   8.903  10.048 -0.3967 -2.3438  0.5042
  413MOL0     H55701  -0.685   8.855  10.210  2.9077  1.5373  0.3698
  413MOL0     H55702  -0.920   9.003  10.267 -4.9471 -1.3838 -0.8590
  413MOL0     H55703  -0.919   9.018  10.096  0.0586 -0.0702  0.2818
  413MOL0     H55704  -0.901   8.764  10.266 -0.4277  0.6203  0.9607
  413MOL0     H55705  -0.935   8.771  10.085  0.3439  0.3284  0.3648
  413MOL0     H55706  -1.087   8.874  10.431  0.8433  1.9147 -0.3775
  413MOL0     H55707  -1.458   8.809  10.443 -1.4164  2.2285 -0.9049
  413MOL0     H55708  -1.318   8.805  10.556 -0.5895 -1.1446 -0.4265
  413MOL0     H55709  -1.450   9.048  10.426  1.0640  1.9511  1.0281
  413MOL0     H55710  -1.290   9.064  10.483 -0.8205  0.6764  0.2081
  413MOL0     H55711  -1.361   9.107  10.685 -0.0652  1.2940 -0.8114
  413MOL0     H55712  -1.387   8.935  10.709  1.9653  0.8718 -0.4952
  413MOL0     H55713  -1.612   9.111  10.600 -1.9614 -0.9364 -0.0477
  413MOL0     H55714  -1.589   9.063  10.765 -3.4929  0.3429  0.4370
  413MOL0     H55715  -1.720   8.670  10.597  2.5710  1.6943 -1.4386
  413MOL0     H55716  -2.059   8.558  10.718  0.7467  1.2857  0.4142
  413MOL0     H55717  -2.018   8.532  10.547 -1.6582 -0.0124 -0.0666
  413MOL0     H55718  -1.891   8.514  10.678 -0.1802  0.5772  1.8728
  413MOL0     H55719  -2.426   9.085  10.689  1.5309 -0.3509  2.4944
  413MOL0     H55720  -2.659   9.053  10.685 -0.5484 -1.5156 -1.8965
  413MOL0     H55721  -2.811   8.655  10.693  0.2787 -0.0002 -0.7695
  413MOL0     H55722  -2.857   8.682  10.863 -3.5384 -2.3367 -0.9311
  413MOL0     H55723  -3.015   8.805  10.636 -1.4127 -1.7545 -1.2252
  413MOL0     H55724  -3.041   8.642  10.700  2.7226 -1.7199 -0.1517
  413MOL0     H55725  -3.032   8.857  10.908  0.4606  0.2022 -0.6317
  413MOL0     H55726  -3.140   8.724  10.891 -0.5237 -0.6991 -2.1682
  413MOL0     H55727  -3.127   8.978  10.737  0.9904 -1.6177 -1.1073
  413MOL0     H55728  -3.239   8.842  10.696 -0.4142 -1.2165  0.7897
  413MOL0     H55729  -3.344   9.033  10.816  1.9250 -0.1474 -1.7545
  413MOL0     H55730  -3.242   8.988  10.963 -0.7867  0.1806  0.5404
  413MOL0     H55731  -3.446   8.839  10.801  5.9439 -0.1866 -2.9011
  413MOL0     H55732  -3.362   8.747  10.927 -0.2811  1.1201  1.3966
  413MOL0     H55733  -3.552   8.991  10.989  1.3592  0.8367 -0.6609
  413MOL0     H55734  -3.468   8.890  11.101  0.0170 -0.7282  0.9865
  413MOL0     H55735  -3.705   8.803  11.090 -1.3896  0.4476 -0.4345
  413MOL0     H55736  -3.592   8.690  11.019  0.1948  0.6603  1.9986
  413MOL0     H55737  -2.619   8.657  10.826 -1.5483  1.1003 -0.4423
  413MOL0     H55738  -2.376   8.663  10.794  0.8038 -0.2675 -1.4119
  413MOL0     H55739  -2.053   9.039  10.646  0.9386  1.4868 -1.7856
  413MOL0     H55740  -1.813   9.080  10.660 -0.0958  0.4867  1.6561
  413MOL0     H55741   0.046   9.158   9.984  3.2810  5.9466 -2.0159
  413MOL0     H55742   0.242   9.043  10.097  1.2066  1.5340 -3.3063
  413MOL0     H55743   0.753   9.281  10.277 -0.2440  1.6264  1.2222
  413MOL0     H55744   0.962   9.162  10.369  1.9611 -2.1072 -1.6049
  413MOL0     H55745   1.157   8.876  10.472  1.0485  0.9443  2.4236
  413MOL0     H55746   1.123   9.032  10.417  2.7166 -0.9641  0.7728
  413MOL0     H55747   1.066   9.104  10.649 -0.2005 -0.7311  1.5833
  413MOL0     H55748   1.200   8.997  10.655 -0.1062  2.9444  0.3143
  413MOL0     H55749   0.899   8.936  10.732 -0.5673 -0.0825 -1.6752
  413MOL0     H55750   1.047   8.922  10.829  1.6511  0.4472 -1.5858
  413MOL0     H55751   0.962   8.724  10.615  2.5453  1.0316 -1.3742
  413MOL0     H55752   0.951   8.702  10.791  0.5448  0.0675  1.0045
  413MOL0     H55753   1.367   8.626  10.726  0.4286 -0.0246 -0.9894
  413MOL0     H55754   0.718   8.819  10.452 -1.0835 -0.1645 -1.0671
  413MOL0     H55755   0.513   8.934  10.375 -0.5577 -0.5771 -2.5704
  414MOL0     O55756   3.493  11.323   5.303 -0.8142 -0.6233  0.2908
  414MOL0     C55757   3.552  11.255   5.224  0.5545 -0.4330  0.2474
  414MOL0     O55758   3.529  11.239   5.083  0.1532  0.3957 -0.9506
  414MOL0     C55759   3.432  11.308   5.012 -0.1951  0.0423  0.1721
  414MOL0     C55760   3.434  11.452   5.007 -0.3837 -0.0402 -0.6170
  414MOL0     C55761   3.349  11.530   4.937  0.3374 -0.4495 -0.6217
  414MOL0     C55762   3.230  11.474   4.887 -0.9266 -0.0912  0.1014
  414MOL0     O55763   3.122  11.544   4.838 -0.8024 -0.6044  0.5759
  414MOL0     C55764   3.084  11.681   4.887 -0.1776 -0.2912 -0.1785
  414MOL0     C55765   2.957  11.725   4.832 -0.5389  0.2335  0.4496
  414MOL0     C55766   2.840  11.624   4.867 -0.2535  0.1857  1.0170
  414MOL0     C55767   2.799  11.629   5.016  0.1171  0.3652  0.2899
  414MOL0     C55768   2.663  11.559   5.042 -0.7945  0.2507  0.5315
  414MOL0     C55769   2.657  11.411   4.985  0.7754 -0.3485  0.4160
  414MOL0     C55770   2.524  11.347   5.037  0.9315  0.1743  0.5146
  414MOL0     C55771   2.482  11.210   4.966 -0.2886 -0.1954 -0.3617
  414MOL0     N55772   2.557  11.105   5.035 -0.0956 -0.5796  0.9984
  414MOL0     C55773   2.524  11.025   5.150  0.0446  0.1626 -0.3115
  414MOL0     C55774   2.619  10.935   5.167  0.2469 -0.0540  0.0268
  414MOL0     C55775   2.618  10.830   5.273  0.8458  0.4550 -0.2994
  414MOL0     C55776   2.596  10.697   5.212  0.9091  0.1121  0.0389
  414MOL0     C55777   2.633  10.591   5.314  0.2270 -0.2389  0.3511
  414MOL0     C55778   2.585  10.616   5.455 -0.0334 -0.4694 -0.5662
  414MOL0     O55779   2.550  10.491   5.525  0.0735 -0.9712  0.0143
  414MOL0     C55780   2.645  10.405   5.569 -0.1897  0.0962  0.3709
  414MOL0     C55781   2.781  10.439   5.614  0.9298 -0.5654  1.0314
  414MOL0     C55782   2.867  10.336   5.651 -0.6290  0.2879  0.0027
  414MOL0     C55783   2.993  10.394   5.714  0.0045 -0.6032 -0.0153
  414MOL0     C55784   2.825  10.199   5.660  0.5774 -0.4544  0.4233
  414MOL0     C55785   2.917  10.092   5.707  0.2500  0.7911 -0.1655
  414MOL0     O55786   2.881   9.976   5.766  0.1708  1.1000 -0.1049
  414MOL0     C55787   2.990   9.907   5.805 -0.5954  0.3567 -0.1723
  414MOL0     C55788   3.062   9.829   5.712  0.5316 -1.0374 -0.5581
  414MOL0     C55789   3.173   9.762   5.743 -0.1257  0.6476 -0.3112
  414MOL0     C55790   3.218   9.766   5.873 -0.6679  0.5051  0.2242
  414MOL0     O55791   3.327   9.688   5.910  0.0413  0.5343 -0.0778
  414MOL0     C55792   3.439   9.716   5.823  0.1426 -0.0637 -0.1580
  414MOL0     C55793   3.578   9.711   5.893  0.6008  0.3646  0.2817
  414MOL0     C55794   3.607   9.563   5.921 -0.1537 -0.1182  0.5815
  414MOL0     C55795   3.645   9.474   5.799  0.1123 -0.1020  0.1191
  414MOL0     C55796   3.598   9.326   5.814 -0.0618 -0.3726  0.3746
  414MOL0     C55797   3.664   9.269   5.935 -0.0043  0.5080  0.1060
  414MOL0     C55798   3.634   9.115   5.945  1.1990 -0.3700 -0.6057
  414MOL0     C55799   3.483   9.088   5.982 -0.7558  0.1587  0.1004
  414MOL0    Cl55800   3.466   8.922   6.043  0.2887 -0.2285 -0.4048
  414MOL0     C55801   3.139   9.824   5.975  0.4746 -0.2261 -0.2126
  414MOL0     C55802   3.029   9.906   5.944 -0.4472  0.0775 -0.7030
  414MOL0     O55803   3.030  10.122   5.684 -0.5570  0.3359  0.1737
  414MOL0     C55804   2.697  10.167   5.618 -0.7571 -0.0015  0.4842
  414MOL0     C55805   2.613  10.268   5.583  0.1078  0.6708  0.2573
  414MOL0     N55806   2.709  10.972   5.068 -0.0224 -0.4523 -0.0184
  414MOL0     N55807   2.668  11.060   4.986  0.5337  0.7241  0.0194
  414MOL0     C55808   3.224  11.324   4.884 -0.2143 -1.0454  0.1863
  414MOL0     C55809   3.325  11.246   4.948 -0.4336 -0.1415  0.2021
  414MOL0     C55810   3.650  11.180   5.296 -1.4852 -0.5400  0.4829
  414MOL0     C55811   3.705  11.213   5.427 -0.7595  0.4039  0.4458
  414MOL0     C55812   3.800  11.140   5.481 -0.6965 -0.6614 -0.8511
  414MOL0     C55813   3.846  11.022   5.415 -0.6914 -0.4031 -0.5762
  414MOL0     O55814   3.943  10.940   5.474  0.2780 -0.7301 -0.2496
  414MOL0     C55815   3.965  10.955   5.612 -0.4746  0.0569  0.3278
  414MOL0     C55816   4.074  10.867   5.674  0.0155  0.3595  0.2143
  414MOL0     C55817   4.115  10.909   5.815  0.4708 -0.5583 -0.0909
  414MOL0     C55818   4.197  10.793   5.872 -1.0711 -0.0452  0.1952
  414MOL0     C55819   4.333  10.782   5.805 -0.1020  0.1772  0.2761
  414MOL0     C55820   4.444  10.767   5.752  0.4782  0.0294  0.4989
  414MOL0     C55821   3.808  10.991   5.291  1.3606 -0.1891 -0.1978
  414MOL0     C55822   3.705  11.063   5.232  1.0054 -1.0591  0.2812
  414MOL0     H55823   3.527  11.499   5.038 -0.8145  0.3465  0.1114
  414MOL0     H55824   3.355  11.639   4.935 -1.1204 -0.3368 -3.3041
  414MOL0     H55825   3.070  11.690   4.995  1.0419  0.1020 -0.0391
  414MOL0     H55826   3.160  11.753   4.856 -2.1898  1.4781 -1.1887
  414MOL0     H55827   2.930  11.814   4.889 -2.5253  0.7156 -1.1481
  414MOL0     H55828   2.967  11.744   4.725 -1.0713 -2.1399 -0.0925
  414MOL0     H55829   2.759  11.662   4.804  1.4259  1.8185 -0.3053
  414MOL0     H55830   2.869  11.524   4.833 -0.7699 -0.0065  1.1397
  414MOL0     H55831   2.876  11.574   5.070  2.3783  0.2375 -2.8447
  414MOL0     H55832   2.805  11.732   5.053 -0.5715  0.3768  0.3860
  414MOL0     H55833   2.635  11.554   5.148 -1.8396  1.6845  0.3494
  414MOL0     H55834   2.584  11.605   4.982 -0.3560 -3.0142 -2.8548
  414MOL0     H55835   2.673  11.409   4.877 -0.3173 -2.0247  0.2421
  414MOL0     H55836   2.739  11.344   5.014  1.0818 -0.6195 -0.9943
  414MOL0     H55837   2.531  11.334   5.145 -0.2459 -1.6425  0.4198
  414MOL0     H55838   2.434  11.410   5.032  1.3114  0.6540 -0.5783
  414MOL0     H55839   2.508  11.203   4.860  2.7246 -4.2263  0.4165
  414MOL0     H55840   2.376  11.183   4.972 -0.2070 -0.4255  0.0490
  414MOL0     H55841   2.443  11.039   5.221  1.3528  3.1857  0.7942
  414MOL0     H55842   2.717  10.839   5.320  1.5112  1.8649 -1.8682
  414MOL0     H55843   2.543  10.855   5.349  2.4243 -1.9302  2.2816
  414MOL0     H55844   2.662  10.695   5.125  1.5201  1.4774  0.4387
  414MOL0     H55845   2.494  10.674   5.182  1.1687 -1.4706  0.3055
  414MOL0     H55846   2.738  10.561   5.306 -0.2041 -1.3821 -1.6855
  414MOL0     H55847   2.583  10.498   5.287 -1.7169  0.9852 -0.4689
  414MOL0     H55848   2.490  10.671   5.451 -0.7194 -1.3117  2.1859
  414MOL0     H55849   2.657  10.680   5.505  0.8388 -0.6258 -1.5924
  414MOL0     H55850   2.816  10.541   5.609 -1.9122  0.5278  1.8838
  414MOL0     H55851   2.974  10.499   5.734 -0.9040 -0.7025 -0.3049
  414MOL0     H55852   3.033  10.343   5.803  1.9180  0.4580 -0.2078
  414MOL0     H55853   3.063  10.382   5.631 -0.6610  0.5373 -0.7695
  414MOL0     H55854   3.029   9.827   5.608  0.8367  1.4982 -0.7866
  414MOL0     H55855   3.223   9.709   5.662  1.6145  0.8835  0.5457
  414MOL0     H55856   3.440   9.645   5.740  0.1839 -1.6555  1.1446
  414MOL0     H55857   3.427   9.815   5.778 -0.2890 -0.9707 -2.1475
  414MOL0     H55858   3.657   9.732   5.821  1.7496 -0.4932  1.2632
  414MOL0     H55859   3.584   9.767   5.987 -1.0134 -0.7871  1.1303
  414MOL0     H55860   3.534   9.517   5.988 -0.4602 -0.7084 -0.1478
  414MOL0     H55861   3.702   9.566   5.976 -0.5001  0.5687  1.1644
  414MOL0     H55862   3.590   9.504   5.709 -1.1251 -3.0185 -0.2119
  414MOL0     H55863   3.752   9.483   5.779 -0.1303  1.5418 -0.5685
  414MOL0     H55864   3.616   9.276   5.718 -1.5711  1.7960 -1.1188
  414MOL0     H55865   3.489   9.336   5.826  0.0407 -0.4557  1.5165
  414MOL0     H55866   3.772   9.273   5.917 -0.1909  1.5159 -0.8753
  414MOL0     H55867   3.652   9.324   6.028  4.6057 -0.5681  1.6360
  414MOL0     H55868   3.699   9.061   6.014 -0.4832 -1.2348  0.3849
  414MOL0     H55869   3.650   9.081   5.842  0.1936  1.8774 -1.5656
  414MOL0     H55870   3.436   9.104   5.885 -1.1011  2.3507  0.5862
  414MOL0     H55871   3.452   9.164   6.054 -0.0068  0.3683  0.2135
  414MOL0     H55872   3.175   9.816   6.077  2.9101  0.3052 -0.9694
  414MOL0     H55873   2.965   9.955   6.017 -1.3254 -1.5021 -0.3680
  414MOL0     H55874   2.666  10.063   5.615 -0.4524 -0.0812  0.0978
  414MOL0     H55875   2.511  10.245   5.554 -0.1932  1.3272  0.7741
  414MOL0     H55876   3.136  11.278   4.840 -0.4948 -3.0395  2.5982
  414MOL0     H55877   3.320  11.139   4.937 -0.3426 -0.1041 -0.2378
  414MOL0     H55878   3.669  11.303   5.474  0.9385  0.4892  1.6558
  414MOL0     H55879   3.831  11.169   5.581 -0.0617 -2.1275 -0.6024
  414MOL0     H55880   4.006  11.055   5.623  0.9630 -0.4951  0.2711
  414MOL0     H55881   3.871  10.950   5.668 -2.1993  3.2496 -1.9909
  414MOL0     H55882   4.164  10.869   5.611 -0.2631 -1.2301 -0.2834
  414MOL0     H55883   4.036  10.765   5.671 -0.0937  0.3950  0.4275
  414MOL0     H55884   4.022  10.929   5.870  1.1958  0.3445  0.8572
  414MOL0     H55885   4.176  11.000   5.819 -1.5229  1.0060 -2.5912
  414MOL0     H55886   4.148  10.697   5.849  3.1847 -2.0783 -1.3324
  414MOL0     H55887   4.225  10.809   5.977  1.0686 -0.8831 -0.2162
  414MOL0     H55888   4.541  10.752   5.709  1.8026  2.0165  2.5656
  414MOL0     H55889   3.854  10.907   5.240  1.4548 -1.2121  1.4875
  414MOL0     H55890   3.662  11.024   5.140 -0.7740 -3.7531  2.1096
  415MOL0     O55891   5.750  11.123   7.062  0.5690 -0.0807  0.1914
  415MOL0     C55892   5.813  11.039   7.126  0.3737 -0.3297  0.4383
  415MOL0     O55893   5.769  10.983   7.240  0.1862  0.0116 -0.0044
  415MOL0     C55894   5.634  11.002   7.277  0.4853 -0.2353  0.1043
  415MOL0     C55895   5.554  10.893   7.284  0.0581 -0.6056  0.4937
  415MOL0     C55896   5.411  10.909   7.313  0.9678 -0.3149  0.8333
  415MOL0     C55897   5.356  11.034   7.316 -0.4925  0.8837 -0.1244
  415MOL0     O55898   5.220  11.054   7.335  0.7115  0.0013  0.3722
  415MOL0     C55899   5.168  11.045   7.466  0.0224 -0.3196 -0.0242
  415MOL0     C55900   5.022  11.067   7.456 -0.3672 -0.0494 -0.3132
  415MOL0     C55901   4.946  11.055   7.594 -0.2359  0.9121  0.4518
  415MOL0     C55902   4.795  11.032   7.578  0.7404  0.4101  0.2173
  415MOL0     C55903   4.728  11.106   7.467 -0.9873 -0.0894 -0.0602
  415MOL0     C55904   4.577  11.121   7.484 -0.0185  0.0499 -0.2467
  415MOL0     C55905   4.502  10.988   7.517 -0.0529 -0.2653 -0.8125
  415MOL0     C55906   4.353  11.019   7.501 -0.0164  0.6053 -0.9218
  415MOL0     N55907   4.270  10.904   7.541  0.4762  0.0687 -0.0818
  415MOL0     C55908   4.304  10.812   7.633 -1.4143  0.9994 -0.0352
  415MOL0     C55909   4.206  10.717   7.623 -0.4043  0.0529  0.4806
  415MOL0     C55910   4.189  10.595   7.704 -0.4965  0.0067  0.8014
  415MOL0     C55911   4.126  10.631   7.841  0.0802 -0.3239 -0.3445
  415MOL0     C55912   4.117  10.504   7.930  0.5834  0.7614 -0.1061
  415MOL0     C55913   4.061  10.555   8.062  0.5313  0.2571  0.1930
  415MOL0     O55914   3.932  10.620   8.046  0.1784 -0.2236  0.5418
  415MOL0     C55915   3.813  10.549   8.043  0.1272 -0.4107 -0.7168
  415MOL0     C55916   3.804  10.408   8.064  0.1685  0.6473 -0.1720
  415MOL0     C55917   3.685  10.340   8.075  0.0440  0.5947  0.4277
  415MOL0     C55918   3.690  10.194   8.088 -0.3444 -0.4597 -0.3932
  415MOL0     C55919   3.568  10.418   8.097  0.3911  0.3369 -0.1671
  415MOL0     C55920   3.436  10.367   8.133 -0.5217 -0.4290  0.2239
  415MOL0     O55921   3.321  10.426   8.087  0.0884 -0.6628  0.2088
  415MOL0     C55922   3.198  10.391   8.125 -0.3516  0.0549 -1.0890
  415MOL0     C55923   3.098  10.495   8.110 -0.0432  0.7805  0.5138
  415MOL0     C55924   2.964  10.463   8.126  0.1189 -0.3793 -0.6659
  415MOL0     C55925   2.927  10.338   8.153 -0.9774 -0.2579  0.3351
  415MOL0     O55926   2.793  10.311   8.156 -0.5286 -0.1550  0.2679
  415MOL0     C55927   2.748  10.250   8.030  0.0417 -0.0797 -0.5928
  415MOL0     C55928   2.619  10.179   8.069  0.0913  0.0888  0.2567
  415MOL0     C55929   2.508  10.282   8.084  0.5170 -0.0318 -0.4779
  415MOL0     C55930   2.371  10.215   8.142 -0.4248 -0.2566  0.7854
  415MOL0     C55931   2.255  10.316   8.134  0.2036  0.0595  0.1696
  415MOL0     C55932   2.188  10.336   7.990 -0.4596 -0.2686  0.5593
  415MOL0     C55933   2.134  10.477   7.968 -0.2657 -0.2289 -0.2878
  415MOL0     C55934   2.074  10.495   7.831 -0.7265  0.2181 -0.0189
  415MOL0    Cl55935   2.006  10.356   7.738 -0.1930  0.0201 -0.3163
  415MOL0     C55936   3.027  10.241   8.182 -0.6437 -1.2142  0.6112
  415MOL0     C55937   3.157  10.264   8.158 -0.7173 -0.0087 -0.5617
  415MOL0     O55938   3.438  10.290   8.233  0.1056 -0.1064  0.9208
  415MOL0     C55939   3.572  10.561   8.075 -0.2910  0.3619 -0.2765
  415MOL0     C55940   3.694  10.620   8.035  0.4197 -0.0216 -0.3355
  415MOL0     N55941   4.116  10.761   7.525 -0.3296  0.1720 -0.3259
  415MOL0     N55942   4.162  10.871   7.472  0.0828  0.7950  0.3827
  415MOL0     C55943   5.437  11.146   7.315 -0.0344  0.5349 -0.1891
  415MOL0     C55944   5.573  11.124   7.302 -0.5755 -0.0897  0.3253
  415MOL0     C55945   5.957  11.018   7.094  0.3260  0.5177 -0.6016
  415MOL0     C55946   6.017  11.085   6.985  0.1411 -0.2581  0.7240
  415MOL0     C55947   6.151  11.040   6.949  1.2543 -1.0507 -0.1177
  415MOL0     C55948   6.222  10.954   7.029 -0.6225  0.8640  0.5104
  415MOL0     O55949   6.349  10.920   6.992 -0.2458  0.3974  0.2765
  415MOL0     C55950   6.427  10.831   7.083  0.4697 -0.1319 -0.0745
  415MOL0     C55951   6.581  10.855   7.062  0.0049 -0.1750  0.8115
  415MOL0     C55952   6.628  11.000   7.054 -0.3661  0.8222  0.3022
  415MOL0     C55953   6.696  11.046   7.191  0.4022  1.3857  0.0489
  415MOL0     C55954   6.812  10.966   7.241  0.3364  0.5080  0.5464
  415MOL0     C55955   6.915  10.911   7.272  0.0678 -0.1335 -0.0986
  415MOL0     C55956   6.158  10.883   7.128  0.6765  0.0014 -0.4974
  415MOL0     C55957   6.027  10.916   7.174 -0.0170 -0.0821 -0.1326
  415MOL0     H55958   5.604  10.800   7.259  0.3774 -0.1350 -0.6862
  415MOL0     H55959   5.346  10.824   7.331  3.2932 -1.7583  3.0715
  415MOL0     H55960   5.185  10.952   7.519  1.5471  0.0702  0.2076
  415MOL0     H55961   5.227  11.127   7.508 -0.9563  0.3233  0.1431
  415MOL0     H55962   5.008  11.173   7.431 -3.7507  0.5203  3.1670
  415MOL0     H55963   4.979  11.001   7.380 -2.7213  0.2676  0.6649
  415MOL0     H55964   4.990  10.973   7.651  1.5847  0.1063 -1.9602
  415MOL0     H55965   4.962  11.148   7.649 -1.4379  0.6890  1.2158
  415MOL0     H55966   4.769  10.926   7.572  1.6103  0.0785  1.7261
  415MOL0     H55967   4.743  11.065   7.669 -1.6188  0.4592 -1.0835
  415MOL0     H55968   4.763  11.210   7.475 -1.4928  0.1273 -0.5502
  415MOL0     H55969   4.740  11.066   7.366 -0.6242  3.2266 -1.4771
  415MOL0     H55970   4.555  11.197   7.560  2.6860 -1.6385  2.4334
  415MOL0     H55971   4.540  11.163   7.390  0.5955  1.3553  0.0775
  415MOL0     H55972   4.525  10.913   7.441 -0.3788 -0.5751 -0.6042
  415MOL0     H55973   4.537  10.954   7.615 -3.3830 -1.9218 -0.0530
  415MOL0     H55974   4.323  11.047   7.399  4.4809 -2.0966 -3.3144
  415MOL0     H55975   4.333  11.100   7.571 -1.6668 -1.0412  0.6414
  415MOL0     H55976   4.379  10.822   7.711 -0.3443  1.8800 -1.1448
  415MOL0     H55977   4.117  10.532   7.651 -1.4215  0.5434  1.3899
  415MOL0     H55978   4.276  10.528   7.699 -2.0291 -2.1030  1.0683
  415MOL0     H55979   4.035  10.691   7.832 -0.9100 -1.4451  1.4851
  415MOL0     H55980   4.195  10.705   7.884  0.1630  0.9272 -2.4957
  415MOL0     H55981   4.224  10.481   7.939  0.1846 -1.2358 -0.1065
  415MOL0     H55982   4.059  10.424   7.884 -1.4604  0.8089  2.2254
  415MOL0     H55983   4.127  10.635   8.097  2.0094 -0.4953 -0.7566
  415MOL0     H55984   4.043  10.472   8.131  0.1492  0.0611 -0.1388
  415MOL0     H55985   3.891  10.346   8.043  0.8515  2.4236 -3.2901
  415MOL0     H55986   3.687  10.167   8.194 -1.8054  0.4265 -0.1935
  415MOL0     H55987   3.612  10.141   8.032 -0.5342  1.4386 -2.0444
  415MOL0     H55988   3.789  10.159   8.057 -0.2274 -2.0781  1.6156
  415MOL0     H55989   3.127  10.598   8.094  0.8125  0.2494 -1.7558
  415MOL0     H55990   2.894  10.539   8.091  1.5617  2.3012  1.7983
  415MOL0     H55991   2.748  10.324   7.949  3.4433 -0.3715 -1.0189
  415MOL0     H55992   2.816  10.173   7.992 -1.5570 -1.6840 -0.2994
  415MOL0     H55993   2.599  10.108   7.988 -0.8445 -0.4567  0.9422
  415MOL0     H55994   2.633  10.124   8.163  0.0597  0.6837  0.6100
  415MOL0     H55995   2.487  10.341   7.994 -0.2635  1.4353  0.6200
  415MOL0     H55996   2.536  10.359   8.156 -0.2351 -1.5361  1.5043
  415MOL0     H55997   2.350  10.123   8.086 -0.9816 -1.1236  2.3817
  415MOL0     H55998   2.389  10.184   8.245 -2.0462 -2.0020  0.5937
  415MOL0     H55999   2.287  10.413   8.175  1.4802 -0.3722  0.2401
  415MOL0     H56000   2.192  10.280   8.216  1.2833 -3.3009 -0.3393
  415MOL0     H56001   2.259  10.306   7.912 -0.4982 -0.1786  0.4890
  415MOL0     H56002   2.117  10.253   7.986 -0.3250 -0.3420 -1.4094
  415MOL0     H56003   2.211  10.555   7.971 -1.1745  0.8737 -2.8704
  415MOL0     H56004   2.060  10.505   8.043 -0.9205  0.7045 -1.2577
  415MOL0     H56005   2.152  10.538   7.767  0.5751 -2.5271 -0.4349
  415MOL0     H56006   1.999  10.574   7.844  0.6332  2.0890 -2.5893
  415MOL0     H56007   2.985  10.143   8.205  1.5160 -1.7903  2.4436
  415MOL0     H56008   3.233  10.188   8.175 -1.5398 -0.3483  2.0586
  415MOL0     H56009   3.485  10.626   8.069  0.5009  1.3552 -1.5727
  415MOL0     H56010   3.710  10.726   8.017  3.9512  0.1820  2.6858
  415MOL0     H56011   5.411  11.251   7.325 -0.3775  0.9167 -3.7778
  415MOL0     H56012   5.633  11.214   7.296 -1.4734  0.4384 -1.2658
  415MOL0     H56013   5.966  11.162   6.928 -2.6521 -0.4232  2.7846
  415MOL0     H56014   6.200  11.091   6.867 -2.0206 -0.2710 -1.7832
  415MOL0     H56015   6.412  10.852   7.189 -2.2632 -1.6447 -0.0678
  415MOL0     H56016   6.407  10.725   7.070 -0.1070 -0.0376  0.0045
  415MOL0     H56017   6.602  10.819   6.960  1.4875 -0.5166  1.2183
  415MOL0     H56018   6.641  10.796   7.132  3.2663  2.0326  0.1220
  415MOL0     H56019   6.551  11.074   7.032  0.6847  1.4063 -1.6606
  415MOL0     H56020   6.697  11.003   6.969 -1.3939 -3.8174 -0.9825
  415MOL0     H56021   6.611  11.047   7.259  0.3001 -0.1191 -0.0254
  415MOL0     H56022   6.723  11.150   7.172  2.1123  1.0988  0.6839
  415MOL0     H56023   7.001  10.848   7.281 -0.8374 -1.2092  1.8080
  415MOL0     H56024   6.191  10.796   7.184  0.0523  0.4165  0.5334
  415MOL0     H56025   5.978  10.861   7.254 -0.9303 -0.4603 -0.9262
  416MOL0     O56026   6.647   0.408   8.241  0.9007 -0.3196 -1.0574
  416MOL0     C56027   6.748   0.420   8.304  0.0375 -0.3369  1.0653
  416MOL0     O56028   6.770   0.386   8.433 -0.1261  0.3849 -0.8216
  416MOL0     C56029   6.655   0.362   8.511 -0.7735 -1.0391  0.1412
  416MOL0     C56030   6.561   0.263   8.489 -0.4722 -0.0390 -0.8860
  416MOL0     C56031   6.458   0.249   8.576  0.2483  0.5490  0.4347
  416MOL0     C56032   6.435   0.350   8.666  0.4359 -0.3613  0.7564
  416MOL0     O56033   6.324   0.353   8.748 -0.0232  0.5945 -0.1346
  416MOL0     C56034   6.222   0.443   8.702  0.3216  0.3545  0.7539
  416MOL0     C56035   6.100   0.423   8.786 -0.7973  0.1036  0.4999
  416MOL0     C56036   5.984   0.503   8.739  0.5944  0.4655 -0.0784
  416MOL0     C56037   5.863   0.507   8.846  0.0664  0.0534  0.8293
  416MOL0     C56038   5.766   0.624   8.801 -0.1052  0.1578  0.2249
  416MOL0     C56039   5.656   0.641   8.898 -0.1842  0.3986  0.1283
  416MOL0     C56040   5.558   0.520   8.891  0.1411 -0.8783  0.2043
  416MOL0     C56041   5.438   0.534   8.989 -0.7814  0.2045 -0.7646
  416MOL0     N56042   5.336   0.638   8.975 -0.0971  0.8102  0.0817
  416MOL0     C56043   5.297   0.686   8.860  0.0870  1.4712  0.2314
  416MOL0     C56044   5.192   0.772   8.892 -0.3433  0.3540  0.3525
  416MOL0     C56045   5.098   0.830   8.795 -0.2181  0.8872 -0.6675
  416MOL0     C56046   4.974   0.751   8.774  0.0061 -0.0498  0.5677
  416MOL0     C56047   4.884   0.763   8.901 -0.0998  0.8331  1.4137
  416MOL0     C56048   4.750   0.695   8.893  0.5816 -0.3085 -0.4773
  416MOL0     O56049   4.689   0.755   8.778  0.0901 -0.0474 -0.0798
  416MOL0     C56050   4.581   0.697   8.716 -0.1070 -0.3813  0.2868
  416MOL0     C56051   4.517   0.579   8.758 -0.7241 -0.3060 -0.2002
  416MOL0     C56052   4.407   0.525   8.690 -0.5494  1.0248 -0.3823
  416MOL0     C56053   4.355   0.397   8.761  0.2374  0.4130  0.7571
  416MOL0     C56054   4.355   0.590   8.581  0.2747  0.2108  1.2345
  416MOL0     C56055   4.240   0.549   8.493 -0.0227 -0.3378  0.2152
  416MOL0     O56056   4.189   0.427   8.523  0.2323  0.5934 -0.6104
  416MOL0     C56057   4.060   0.387   8.493  0.0278  0.2026 -1.1584
  416MOL0     C56058   3.955   0.478   8.461 -0.1345  0.8982 -0.2544
  416MOL0     C56059   3.820   0.427   8.459 -0.7200  0.0253  0.1852
  416MOL0     C56060   3.795   0.286   8.464  0.4053  0.2857 -0.4506
  416MOL0     O56061   3.672   0.222   8.458  0.3739 -0.3356  0.7525
  416MOL0     C56062   3.560   0.294   8.393  1.8540  0.1609 -0.1782
  416MOL0     C56063   3.431   0.209   8.383 -0.6615  0.7527  0.1412
  416MOL0     C56064   3.309   0.290   8.327  0.2220 -0.6823  0.3828
  416MOL0     C56065   3.190   0.199   8.311  1.0750 -0.3793  0.4611
  416MOL0     C56066   3.071   0.281   8.247  0.2357  0.9405  0.1698
  416MOL0     C56067   2.962   0.186   8.195  0.6470  0.3505  0.1911
  416MOL0     C56068   2.855   0.267   8.122  0.2193  0.4578 -0.5876
  416MOL0     C56069   2.739   0.178   8.077  0.2726 -0.5499  0.0408
  416MOL0    Cl56070   2.782   0.132   7.907 -0.4682  0.2973  0.1235
  416MOL0     C56071   3.907   0.203   8.467 -0.1087 -0.8198 -0.1107
  416MOL0     C56072   4.031   0.257   8.501 -0.5032 -0.2884  0.1885
  416MOL0     O56073   4.189   0.626   8.412  0.2177  0.1135 -0.3989
  416MOL0     C56074   4.418   0.707   8.535 -0.2697  0.3091 -0.1313
  416MOL0     C56075   4.529   0.760   8.602  0.4841  0.7960 -0.4520
  416MOL0     N56076   5.196   0.792   9.030 -0.6032  0.0572  0.5731
  416MOL0     N56077   5.281   0.712   9.077  0.0826 -0.2498 -0.2491
  416MOL0     C56078   6.527   0.453   8.682 -0.0708  0.0792 -0.0627
  416MOL0     C56079   6.639   0.459   8.604 -0.5434 -0.0735  0.1143
  416MOL0     C56080   6.861   0.462   8.225 -0.4647 -0.2241 -0.4497
  416MOL0     C56081   6.989   0.452   8.277  0.4793  0.3634 -0.9584
  416MOL0     C56082   7.102   0.501   8.206  0.1422  0.1370  0.2064
  416MOL0     C56083   7.095   0.556   8.079  0.0705  0.1416 -0.2891
  416MOL0     O56084   7.203   0.603   8.012  0.3408 -0.3831 -0.0122
  416MOL0     C56085   7.217   0.543   7.886  0.0368 -0.2324  0.1716
  416MOL0     C56086   7.298   0.417   7.892  0.4127 -0.0856 -0.0964
  416MOL0     C56087   7.327   0.353   7.755  0.1369 -1.3319 -0.2456
  416MOL0     C56088   7.447   0.256   7.762  0.7034 -0.1672 -0.6230
  416MOL0     C56089   7.451   0.198   7.623  0.4237  0.6538  0.0963
  416MOL0     C56090   7.457   0.142   7.518 -0.0742  0.6294  0.1150
  416MOL0     C56091   6.965   0.565   8.022 -0.3846 -0.5981  0.5231
  416MOL0     C56092   6.846   0.514   8.094 -0.4754  0.2297  0.4811
  416MOL0     H56093   6.571   0.194   8.406  1.5695 -1.1502  0.1754
  416MOL0     H56094   6.386   0.168   8.573 -0.1162  0.8252  1.2932
  416MOL0     H56095   6.256   0.546   8.718 -1.4541  0.7036  2.6988
  416MOL0     H56096   6.191   0.414   8.602  1.2520  0.1102  0.5295
  416MOL0     H56097   6.083   0.315   8.784  1.6405 -0.5332  3.8838
  416MOL0     H56098   6.132   0.446   8.888 -0.9113 -1.6675  0.9694
  416MOL0     H56099   6.023   0.601   8.713  0.6367  0.5162  0.1754
  416MOL0     H56100   5.941   0.461   8.647  0.1146 -2.0311  1.2041
  416MOL0     H56101   5.811   0.411   8.841  0.0537  0.1193 -1.5390
  416MOL0     H56102   5.894   0.529   8.948  1.5196  1.1528  0.1877
  416MOL0     H56103   5.833   0.707   8.775 -0.7482 -0.1531 -2.8920
  416MOL0     H56104   5.718   0.590   8.709 -0.3740 -2.2652  1.1818
  416MOL0     H56105   5.698   0.652   8.998  3.7992  3.2921 -1.5904
  416MOL0     H56106   5.592   0.728   8.883 -0.8122 -0.2099 -0.8849
  416MOL0     H56107   5.518   0.510   8.790  0.6064 -0.7782  0.0085
  416MOL0     H56108   5.605   0.426   8.919  1.0208 -1.4236 -2.7960
  416MOL0     H56109   5.483   0.567   9.083  0.8218 -1.6582 -0.8243
  416MOL0     H56110   5.395   0.433   8.989  4.2820 -2.3516  1.4712
  416MOL0     H56111   5.350   0.660   8.768  2.3033  0.7862  1.6061
  416MOL0     H56112   5.078   0.936   8.813 -0.8496  0.9830 -1.8016
  416MOL0     H56113   5.155   0.849   8.703 -0.0805  0.5501 -0.6495
  416MOL0     H56114   5.003   0.648   8.752 -0.2365 -0.1600  0.7577
  416MOL0     H56115   4.912   0.793   8.694  0.4599  3.0064  1.6981
  416MOL0     H56116   4.861   0.870   8.910 -2.8437  0.3728  0.7343
  416MOL0     H56117   4.944   0.726   8.985  0.5178  1.6088  1.3240
  416MOL0     H56118   4.693   0.718   8.984 -0.8210 -0.6713 -1.2488
  416MOL0     H56119   4.767   0.587   8.887  0.6558 -0.7040  3.6880
  416MOL0     H56120   4.561   0.521   8.838  1.4586 -0.1034 -1.1950
  416MOL0     H56121   4.412   0.370   8.851 -2.5204 -0.6927  2.3065
  416MOL0     H56122   4.258   0.425   8.804 -1.0743  0.8935 -2.2791
  416MOL0     H56123   4.349   0.313   8.692  0.4747 -0.4026  1.7119
  416MOL0     H56124   3.961   0.586   8.452  0.1862  1.0747  1.6886
  416MOL0     H56125   3.740   0.498   8.440 -2.2607 -1.9556 -1.0800
  416MOL0     H56126   3.533   0.372   8.464 -3.0000 -3.3355  2.3352
  416MOL0     H56127   3.590   0.333   8.295 -1.8221  0.5907 -1.2792
  416MOL0     H56128   3.452   0.127   8.314  0.9716  0.4991  0.8794
  416MOL0     H56129   3.411   0.163   8.480 -1.7555 -0.2189 -0.5261
  416MOL0     H56130   3.340   0.332   8.231 -3.2118 -1.5839 -1.2779
  416MOL0     H56131   3.277   0.375   8.388 -2.7777  0.3271 -2.3320
  416MOL0     H56132   3.203   0.120   8.236 -1.3621 -0.0745 -0.3796
  416MOL0     H56133   3.151   0.155   8.403 -0.1586 -0.3826 -0.0330
  416MOL0     H56134   3.108   0.352   8.173 -0.0128 -0.0472 -0.9516
  416MOL0     H56135   3.020   0.339   8.324 -3.9414 -2.4177  0.3027
  416MOL0     H56136   2.999   0.097   8.144 -1.7953 -1.2712  1.0718
  416MOL0     H56137   2.905   0.147   8.280 -0.1818  1.7267  0.2937
  416MOL0     H56138   2.901   0.319   8.037  1.2794  0.0848 -0.2568
  416MOL0     H56139   2.815   0.347   8.185 -1.0321 -2.3922  2.5476
  416MOL0     H56140   2.645   0.233   8.086  0.9734  0.5911  0.5928
  416MOL0     H56141   2.740   0.092   8.145  0.6965 -2.0508 -1.7735
  416MOL0     H56142   3.900   0.096   8.454 -1.2109 -0.4967 -2.8197
  416MOL0     H56143   4.111   0.185   8.516  2.2707  3.0327  2.9638
  416MOL0     H56144   4.382   0.765   8.450 -1.6745 -0.7593 -0.3016
  416MOL0     H56145   4.576   0.853   8.572  1.3540 -0.0962 -1.9693
  416MOL0     H56146   6.503   0.531   8.754 -0.2283 -0.1561  0.1369
  416MOL0     H56147   6.701   0.548   8.604  0.9519 -1.0108  2.4406
  416MOL0     H56148   7.003   0.423   8.381 -2.7574  0.0866 -0.5046
  416MOL0     H56149   7.199   0.504   8.255  0.4335  0.7231 -0.3878
  416MOL0     H56150   7.126   0.514   7.832 -0.6104  0.9475  0.5772
  416MOL0     H56151   7.263   0.618   7.821  1.6212 -2.0199 -0.8548
  416MOL0     H56152   7.239   0.344   7.948  1.7044 -1.0070  0.1208
  416MOL0     H56153   7.391   0.440   7.946 -0.7273  0.6031  1.6668
  416MOL0     H56154   7.353   0.440   7.693 -3.6163  0.0199 -0.1785
  416MOL0     H56155   7.231   0.312   7.724 -0.3354 -1.7141  1.6172
  416MOL0     H56156   7.436   0.185   7.844  2.5049 -3.1925 -2.8128
  416MOL0     H56157   7.546   0.299   7.777  1.7983 -2.2495 -1.5839
  416MOL0     H56158   7.443   0.099   7.421  0.1545 -0.9284  0.7510
  416MOL0     H56159   6.951   0.609   7.924  0.3224  0.5239  0.9004
  416MOL0     H56160   6.752   0.521   8.040  1.1398 -1.0161 -2.8065
  417MOL0     O56161   9.783   0.820   4.450  0.3901  0.5414 -0.7081
  417MOL0     C56162   9.693   0.849   4.375  1.2964  0.5665  0.1577
  417MOL0     O56163   9.709   0.916   4.255 -0.2750 -0.1933  0.0639
  417MOL0     C56164   9.838   0.958   4.222  0.4913  0.0601 -0.0003
  417MOL0     C56165   9.946   0.874   4.229  0.5212  0.4051  0.1705
  417MOL0     C56166  10.074   0.941   4.225  0.6249  0.9717 -0.4989
  417MOL0     C56167  10.099   1.071   4.186 -0.1809 -0.2353 -0.2978
  417MOL0     O56168  10.221   1.129   4.158  0.0978  0.3623 -0.2217
  417MOL0     C56169  10.258   1.135   4.011 -0.0747 -0.0383 -0.1360
  417MOL0     C56170  10.410   1.131   3.996  0.9834  0.2895  1.0300
  417MOL0     C56171  10.456   1.137   3.850 -0.5927  0.0422 -0.1684
  417MOL0     C56172  10.605   1.157   3.830 -0.8240 -0.3078 -0.4698
  417MOL0     C56173  10.628   1.220   3.693  0.4395 -1.3069  0.4099
  417MOL0     C56174  10.777   1.264   3.673  0.4927  0.5637  0.4007
  417MOL0     C56175  10.808   1.301   3.521 -0.5851 -0.0439 -0.9160
  417MOL0     C56176  10.715   1.407   3.451  0.1828  0.5706  0.0380
  417MOL0     N56177  10.700   1.546   3.510 -0.6600 -0.1707 -0.7165
  417MOL0     C56178  10.756   1.655   3.460 -0.0467  0.1072  0.1801
  417MOL0     C56179  10.687   1.760   3.517  0.8690  0.5256 -0.3019
  417MOL0     C56180  10.700   1.892   3.469  0.5073 -0.3047  0.3901
  417MOL0     C56181  10.683   2.002   3.569  0.0917  0.1291 -0.2276
  417MOL0     C56182  10.530   2.021   3.606  0.0315  0.4235 -0.1547
  417MOL0     C56183  10.519   2.151   3.688 -0.3542  0.3198  0.3811
  417MOL0     O56184  10.387   2.162   3.727  0.2426 -0.0573  0.3810
  417MOL0     C56185  10.348   2.283   3.786  0.2869 -0.4000  0.0172
  417MOL0     C56186  10.230   2.266   3.858 -0.3610  0.3695 -0.3797
  417MOL0     C56187  10.160   2.366   3.930 -0.2732  0.2692  1.1707
  417MOL0     C56188  10.030   2.339   3.996  0.7791  0.2055 -0.5388
  417MOL0     C56189  10.228   2.492   3.938  0.7270  0.2876  0.3775
  417MOL0     C56190  10.176   2.608   4.002  0.6878 -0.6449 -0.3476
  417MOL0     O56191  10.201   2.721   3.939 -0.0765  0.2347 -0.1063
  417MOL0     C56192  10.126   2.827   3.967  1.0905  0.6804 -0.2183
  417MOL0     C56193  10.000   2.827   3.908 -0.1730 -0.7052 -0.1203
  417MOL0     C56194   9.901   2.924   3.949 -0.9199 -0.1216  0.3273
  417MOL0     C56195   9.937   3.027   4.034 -0.5762 -0.5338  0.6212
  417MOL0     O56196   9.861   3.135   4.075  0.2886  0.0972 -0.4198
  417MOL0     C56197   9.719   3.103   4.084 -0.2936  0.7997  0.0250
  417MOL0     C56198   9.649   3.196   4.186 -0.1233  0.0258 -0.5452
  417MOL0     C56199   9.715   3.209   4.325  0.3507 -0.1979 -1.1821
  417MOL0     C56200   9.628   3.305   4.413  0.1016 -0.2571 -0.0723
  417MOL0     C56201   9.662   3.282   4.557  0.8457 -0.0276 -0.3974
  417MOL0     C56202   9.621   3.391   4.651 -0.5205 -0.6485 -0.8753
  417MOL0     C56203   9.676   3.374   4.794 -0.3026  0.0015  0.9707
  417MOL0     C56204   9.627   3.492   4.875 -0.4276 -0.2544 -0.7690
  417MOL0    Cl56205   9.661   3.654   4.806 -0.4324 -0.1412 -0.2889
  417MOL0     C56206  10.070   3.030   4.081  1.0667  0.1009 -0.4802
  417MOL0     C56207  10.163   2.939   4.046 -0.5780  0.2778 -0.4195
  417MOL0     O56208  10.100   2.600   4.103 -0.5428  1.2319  0.0545
  417MOL0     C56209  10.339   2.513   3.856 -0.5769 -0.5684  0.1152
  417MOL0     C56210  10.397   2.412   3.785  0.6596 -0.1019 -0.9058
  417MOL0     N56211  10.603   1.709   3.620  0.4284 -0.4622  0.5868
  417MOL0     N56212  10.615   1.583   3.609  0.6465  0.2100  0.0928
  417MOL0     C56213   9.982   1.147   4.166 -0.5366  0.0430 -0.6890
  417MOL0     C56214   9.854   1.095   4.189  0.5293 -0.0239  0.5902
  417MOL0     C56215   9.554   0.836   4.432 -0.4527  0.4022 -0.7516
  417MOL0     C56216   9.448   0.902   4.382 -1.0434  0.0247 -0.0893
  417MOL0     C56217   9.319   0.901   4.455  0.8407  0.7443 -1.1138
  417MOL0     C56218   9.298   0.826   4.575 -0.2044  0.4655 -0.6515
  417MOL0     O56219   9.173   0.843   4.625  0.6065 -0.0661  0.3966
  417MOL0     C56220   9.148   0.786   4.753  0.0867  0.1200  0.4047
  417MOL0     C56221   8.996   0.783   4.771  0.3113 -0.7761 -0.4306
  417MOL0     C56222   8.924   0.665   4.698 -0.3618 -0.4180  0.7164
  417MOL0     C56223   8.792   0.643   4.761 -0.3697  0.2258 -0.3951
  417MOL0     C56224   8.719   0.537   4.683 -0.5758 -0.1018 -0.2238
  417MOL0     C56225   8.667   0.436   4.639 -0.5086 -0.3816 -0.3707
  417MOL0     C56226   9.411   0.754   4.613  0.4026  0.5803 -0.1799
  417MOL0     C56227   9.534   0.758   4.547  0.5337 -0.0964  0.6418
  417MOL0     H56228   9.939   0.766   4.230  1.0365  0.3487  2.0671
  417MOL0     H56229  10.161   0.876   4.232 -0.3086 -0.3000 -0.3678
  417MOL0     H56230  10.214   1.049   3.959  0.5575  0.2212 -1.1261
  417MOL0     H56231  10.219   1.225   3.963 -1.4496 -1.0563 -0.9963
  417MOL0     H56232  10.451   1.219   4.047  2.8579  0.0402  0.0122
  417MOL0     H56233  10.443   1.045   4.054  3.1206 -0.3871 -1.0692
  417MOL0     H56234  10.415   1.049   3.799 -0.8803 -1.1043  1.9166
  417MOL0     H56235  10.397   1.217   3.805  0.3740  1.1488  0.4747
  417MOL0     H56236  10.640   1.217   3.915 -1.6058 -0.9347  0.3136
  417MOL0     H56237  10.663   1.066   3.844 -0.2601  0.2542  1.0250
  417MOL0     H56238  10.587   1.157   3.614 -0.9797  0.9256 -0.7301
  417MOL0     H56239  10.568   1.312   3.696  4.7657  1.7937  1.5348
  417MOL0     H56240  10.798   1.358   3.725  2.6567  0.7870 -0.7251
  417MOL0     H56241  10.845   1.181   3.695 -0.2796 -1.3518 -3.5200
  417MOL0     H56242  10.908   1.345   3.525 -0.5375 -0.0693  3.4919
  417MOL0     H56243  10.820   1.214   3.456 -0.3345  1.0614 -2.4062
  417MOL0     H56244  10.615   1.363   3.447  0.3332 -0.1605  2.6296
  417MOL0     H56245  10.760   1.410   3.351  0.2636 -4.7428 -0.3548
  417MOL0     H56246  10.822   1.652   3.374 -1.0509 -2.3946 -0.5810
  417MOL0     H56247  10.803   1.909   3.437  0.7475 -0.4929  1.0411
  417MOL0     H56248  10.630   1.917   3.389 -3.3901 -1.6969  3.1032
  417MOL0     H56249  10.713   2.097   3.523 -0.9944  1.3982  1.5629
  417MOL0     H56250  10.748   1.995   3.657  1.1361 -0.2424 -0.9998
  417MOL0     H56251  10.501   1.935   3.668 -1.6836  0.7184 -0.4925
  417MOL0     H56252  10.467   2.013   3.517  1.4392  0.4231 -1.1751
  417MOL0     H56253  10.550   2.227   3.616  0.0706 -0.7848 -0.6403
  417MOL0     H56254  10.573   2.161   3.783 -1.3954  0.2011  1.0048
  417MOL0     H56255  10.190   2.166   3.867 -1.4932  0.8735  0.4237
  417MOL0     H56256  10.018   2.371   4.100 -2.7497  3.6545 -1.7733
  417MOL0     H56257   9.947   2.380   3.939 -1.1238 -0.5150  1.5842
  417MOL0     H56258  10.009   2.232   4.000 -1.9797  0.4210 -4.1505
  417MOL0     H56259   9.963   2.757   3.835  1.3903 -1.1662 -0.5139
  417MOL0     H56260   9.804   2.911   3.902 -0.9295  0.1601  0.2650
  417MOL0     H56261   9.673   3.106   3.984  1.3022 -1.0772 -0.8320
  417MOL0     H56262   9.711   2.999   4.116 -1.5647  0.5305 -1.0726
  417MOL0     H56263   9.648   3.295   4.138 -1.9613 -0.2256 -1.0867
  417MOL0     H56264   9.544   3.171   4.196 -0.3101 -1.3649 -4.3048
  417MOL0     H56265   9.822   3.233   4.321  0.4800  0.5112  2.6225
  417MOL0     H56266   9.713   3.115   4.381 -1.1606  0.9261  0.7930
  417MOL0     H56267   9.641   3.409   4.382 -1.1300  0.1596  0.7377
  417MOL0     H56268   9.522   3.285   4.391  0.0529 -1.1824  0.9091
  417MOL0     H56269   9.766   3.247   4.562  0.6647 -0.5908 -0.4116
  417MOL0     H56270   9.600   3.198   4.589 -2.3925  0.2535 -4.9397
  417MOL0     H56271   9.660   3.486   4.612  3.2688 -1.1294  1.2680
  417MOL0     H56272   9.512   3.403   4.652 -0.6331 -1.5940 -1.1780
  417MOL0     H56273   9.785   3.367   4.785 -0.4578 -2.0491  0.1344
  417MOL0     H56274   9.646   3.278   4.837  2.6854 -1.5030 -0.0330
  417MOL0     H56275   9.691   3.501   4.963 -1.3195  2.3050 -0.2918
  417MOL0     H56276   9.521   3.474   4.897 -0.1318  0.0342  1.0345
  417MOL0     H56277  10.096   3.113   4.147  1.2117  1.6402 -2.3853
  417MOL0     H56278  10.263   2.939   4.087 -0.5067  0.2435 -0.5928
  417MOL0     H56279  10.389   2.609   3.844 -0.9487 -0.1349  1.7900
  417MOL0     H56280  10.488   2.429   3.727 -0.2280  3.3856 -1.4918
  417MOL0     H56281   9.993   1.253   4.143 -1.9593  0.3183 -0.2061
  417MOL0     H56282   9.784   1.178   4.191  4.2407  3.5331 -0.9085
  417MOL0     H56283   9.462   0.956   4.289  1.2661  0.4042  0.4351
  417MOL0     H56284   9.235   0.948   4.406  1.1605  0.7282 -1.6880
  417MOL0     H56285   9.175   0.680   4.754  0.0345  0.0986  2.3686
  417MOL0     H56286   9.185   0.853   4.830 -3.8148  1.4848  1.3119
  417MOL0     H56287   8.944   0.875   4.741 -1.5079 -1.1981  1.2410
  417MOL0     H56288   8.988   0.787   4.880  1.1697 -1.6207 -0.3199
  417MOL0     H56289   8.985   0.575   4.713  0.7339  0.0982 -0.4811
  417MOL0     H56290   8.919   0.690   4.591  0.1729  0.9253  0.9845
  417MOL0     H56291   8.724   0.729   4.753 -1.5282 -0.6273 -0.0547
  417MOL0     H56292   8.806   0.609   4.864 -2.8145  1.9492  0.6069
  417MOL0     H56293   8.631   0.338   4.614  2.2407 -2.1239  1.8368
  417MOL0     H56294   9.411   0.688   4.699  2.6416  1.6474  0.7026
  417MOL0     H56295   9.613   0.701   4.594 -1.3988 -4.0051 -0.4609
  418MOL0     O56296   0.266  11.089  10.564  0.1577  0.4401  1.1114
  418MOL0     C56297   0.314  11.011  10.640 -1.2179  0.0400  0.3772
  418MOL0     O56298   0.268  10.887  10.671  0.3072 -1.1468  0.6980
  418MOL0     C56299   0.131  10.869  10.654 -0.8232  0.1089 -0.0310
  418MOL0     C56300   0.044  10.924  10.748 -0.2987 -0.2239  0.0255
  418MOL0     C56301  -0.088  10.922  10.741  0.1595  0.2273 -0.9689
  418MOL0     C56302  -0.139  10.837  10.641  0.0237 -0.8116  1.0320
  418MOL0     O56303  -0.270  10.801  10.630 -0.0613  0.2659  0.6087
  418MOL0     C56304  -0.355  10.797  10.750  0.8886  0.1722 -0.0393
  418MOL0     C56305  -0.500  10.765  10.720 -0.0611 -0.0291  0.7360
  418MOL0     C56306  -0.576  10.863  10.627 -0.0079  0.1241 -0.5789
  418MOL0     C56307  -0.722  10.852  10.624  0.1383 -0.3238  0.1548
  418MOL0     C56308  -0.806  10.920  10.728  0.4160 -0.1546 -0.5874
  418MOL0     C56309  -0.794  11.068  10.740 -1.2458 -0.6728  0.1835
  418MOL0     C56310  -0.825  11.147  10.625 -0.2184 -0.5444  0.0597
  418MOL0     C56311  -0.966  11.109  10.558  0.4370  0.2822  0.1391
  418MOL0     N56312  -1.071  11.158  10.642  0.5407  0.7227  0.0994
  418MOL0     C56313  -1.083  11.281  10.704  0.1966  0.4012  0.3224
  418MOL0     C56314  -1.196  11.268  10.775 -0.2549 -1.0999 -0.0568
  418MOL0     C56315  -1.273  11.366  10.856  0.0840 -0.0167  0.1146
  418MOL0     C56316  -1.197  11.407  10.985  0.2196  0.4822  0.2515
  418MOL0     C56317  -1.171  11.289  11.090  0.1338  0.6481  0.7545
  418MOL0     C56318  -1.091  11.320  11.212 -0.6611 -0.0297 -0.0065
  418MOL0     O56319  -1.010  11.207  11.251 -0.1519 -0.1220 -0.1760
  418MOL0     C56320  -0.892  11.180  11.192  0.2308 -0.0100 -0.2750
  418MOL0     C56321  -0.828  11.245  11.084  0.8811 -0.8065 -0.4983
  418MOL0     C56322  -0.709  11.211  11.034  0.3296  0.2677  0.4316
  418MOL0     C56323  -0.654  11.309  10.920 -0.7848  0.4713 -0.1230
  418MOL0     C56324  -0.643  11.105  11.093 -0.6004 -0.1386  0.2081
  418MOL0     C56325  -0.508  11.066  11.040 -0.0025 -0.1816  0.3065
  418MOL0     O56326  -0.417  11.015  11.129  0.2597 -0.4303  0.1854
  418MOL0     C56327  -0.282  10.989  11.102 -0.4777 -0.3333  0.0544
  418MOL0     C56328  -0.233  10.859  11.125  0.3041 -0.3017 -0.2307
  418MOL0     C56329  -0.100  10.848  11.129  0.6902  0.6806  0.3866
  418MOL0     C56330  -0.016  10.950  11.090 -0.7737 -0.1084 -0.7866
  418MOL0     O56331   0.121  10.928  11.066  0.0269 -0.0558  0.1989
  418MOL0     C56332   0.191  10.909  11.192  0.6973 -0.4943  0.9661
  418MOL0     C56333   0.337  10.864  11.176 -0.7629 -0.2730 -0.4383
  418MOL0     C56334   0.428  10.898  11.301 -0.9511  0.9183  0.2618
  418MOL0     C56335   0.576  10.923  11.250  0.2156 -0.3373  0.7078
  418MOL0     C56336   0.663  10.955  11.373  0.1796  0.0112  0.5324
  418MOL0     C56337   0.619  11.080  11.454  0.2528 -1.0767  0.0710
  418MOL0     C56338   0.729  11.160  11.527  0.6983 -0.4837 -0.2403
  418MOL0     C56339   0.770  11.289  11.457  0.0868  0.7624 -0.9479
  418MOL0    Cl56340   0.895  11.239  11.338 -0.0689  0.7447  0.1241
  418MOL0     C56341  -0.070  11.073  11.066 -0.3860 -0.5318 -0.1590
  418MOL0     C56342  -0.202  11.096  11.077  0.3027 -0.7241  0.1074
  418MOL0     O56343  -0.495  11.052  10.918 -0.8482 -0.1783  0.7232
  418MOL0     C56344  -0.706  11.036  11.206  0.1068  0.6058  0.2679
  418MOL0     C56345  -0.833  11.066  11.244 -0.4201 -0.2691 -1.1143
  418MOL0     N56346  -1.244  11.138  10.763 -0.1955  0.3242 -0.5318
  418MOL0     N56347  -1.160  11.065  10.688  0.0880  0.2662  0.3033
  418MOL0     C56348  -0.056  10.765  10.547  0.4410 -1.3230 -1.2110
  418MOL0     C56349   0.078  10.785  10.554 -0.7070 -0.1457  0.4480
  418MOL0     C56350   0.444  11.062  10.701 -0.8223 -0.0753  1.3308
  418MOL0     C56351   0.496  11.197  10.681  0.5911 -0.3798  0.1447
  418MOL0     C56352   0.619  11.226  10.741 -0.2597 -0.1550 -0.5365
  418MOL0     C56353   0.690  11.132  10.811 -0.7856 -0.9875 -0.8306
  418MOL0     O56354   0.813  11.157  10.867 -0.0122 -0.0565  0.2341
  418MOL0     C56355   0.874  11.282  10.849 -0.2867  0.2182  0.2192
  418MOL0     C56356   1.018  11.276  10.891 -0.1662  0.4848  0.2515
  418MOL0     C56357   1.102  11.401  10.881  0.5545 -0.7555 -0.7396
  418MOL0     C56358   1.081  11.493  10.997  0.6136 -0.5604 -0.7958
  418MOL0     C56359   1.185  11.595  11.002  0.0865  0.0772 -0.5054
  418MOL0     C56360   1.271  11.683  11.009  0.1656 -0.1698  0.4860
  418MOL0     C56361   0.639  11.010  10.844  0.2795  0.8447 -0.1759
  418MOL0     C56362   0.518  10.974  10.782  0.3237  0.8253  0.3041
  418MOL0     H56363   0.090  10.979  10.830  0.4218 -0.2989 -0.3189
  418MOL0     H56364  -0.154  10.968  10.814 -2.3675 -3.3025 -0.7908
  418MOL0     H56365  -0.308  10.726  10.819  1.1267  1.7179  1.4641
  418MOL0     H56366  -0.362  10.895  10.798 -3.0354  0.9408 -1.8039
  418MOL0     H56367  -0.496  10.667  10.670  2.7504 -0.1747  1.0888
  418MOL0     H56368  -0.557  10.744  10.811 -0.2369 -0.5157  0.5179
  418MOL0     H56369  -0.549  10.964  10.659 -3.7535  0.5496  1.8860
  418MOL0     H56370  -0.538  10.848  10.526  2.4551  0.6828  0.1992
  418MOL0     H56371  -0.758  10.898  10.531 -1.7740  1.6914  1.7897
  418MOL0     H56372  -0.746  10.746  10.641 -0.9284  0.2675  2.8376
  418MOL0     H56373  -0.905  10.874  10.728  0.0513  0.4233  2.2537
  418MOL0     H56374  -0.762  10.880  10.820 -0.3269 -1.7202 -0.8719
  418MOL0     H56375  -0.856  11.099  10.825 -0.4601 -1.1803  0.9626
  418MOL0     H56376  -0.694  11.087  10.779 -1.4419 -2.7643  1.9580
  418MOL0     H56377  -0.838  11.253  10.645  0.7288 -0.6361  1.3024
  418MOL0     H56378  -0.749  11.134  10.548 -1.4883 -0.9646 -1.1763
  418MOL0     H56379  -0.982  11.003  10.540 -0.5941  0.1216  1.8378
  418MOL0     H56380  -0.988  11.166  10.467 -3.2966  0.5097  1.0367
  418MOL0     H56381  -1.018  11.366  10.691  1.0305 -0.3537 -0.6707
  418MOL0     H56382  -1.292  11.462  10.807 -2.0470 -0.3307  0.2506
  418MOL0     H56383  -1.373  11.324  10.867  0.5758 -1.6090 -1.1195
  418MOL0     H56384  -1.250  11.489  11.034  0.5432  0.6400  0.3419
  418MOL0     H56385  -1.102  11.446  10.948 -0.9263  0.6621 -2.7833
  418MOL0     H56386  -1.110  11.212  11.042  0.0034  0.3893  1.0024
  418MOL0     H56387  -1.271  11.251  11.111  0.1195 -0.0502 -0.4776
  418MOL0     H56388  -1.161  11.347  11.291 -1.6941 -1.1352 -0.5177
  418MOL0     H56389  -1.025  11.406  11.196 -0.3057 -0.4956 -1.1739
  418MOL0     H56390  -0.880  11.329  11.038 -0.6634  0.8249  3.7599
  418MOL0     H56391  -0.587  11.384  10.964  0.3866 -2.7914  4.3524
  418MOL0     H56392  -0.603  11.262  10.837  0.3701  3.0416 -0.9867
  418MOL0     H56393  -0.740  11.372  10.894 -0.5209  1.4174  1.1279
  418MOL0     H56394  -0.291  10.782  11.175 -0.5761  0.2027 -0.4589
  418MOL0     H56395  -0.049  10.752  11.138  2.1694  0.7975 -4.1099
  418MOL0     H56396   0.188  11.007  11.242 -4.9059  1.7942 -2.8280
  418MOL0     H56397   0.135  10.836  11.250 -3.6715  0.9050 -1.0772
  418MOL0     H56398   0.359  10.759  11.153 -0.0417 -0.4417  0.9448
  418MOL0     H56399   0.361  10.924  11.088 -3.8444  1.2437 -0.3714
  418MOL0     H56400   0.425  10.812  11.369  0.5888 -0.7324 -1.6198
  418MOL0     H56401   0.395  10.983  11.361 -1.7608  0.9652 -0.2307
  418MOL0     H56402   0.612  10.829  11.207 -0.0640 -0.3525  0.5030
  418MOL0     H56403   0.590  10.997  11.171  1.5148 -1.9860 -0.6933
  418MOL0     H56404   0.762  10.965  11.328 -0.1718  1.4940  0.0308
  418MOL0     H56405   0.664  10.870  11.442  0.9366 -0.2417  0.2195
  418MOL0     H56406   0.574  11.153  11.385 -2.9496 -1.8247  1.1807
  418MOL0     H56407   0.559  11.036  11.534  1.6009 -0.8493  1.2404
  418MOL0     H56408   0.822  11.107  11.550  1.7474  1.0566 -0.8112
  418MOL0     H56409   0.687  11.167  11.627  0.8785 -0.2470 -0.1825
  418MOL0     H56410   0.825  11.356  11.524  0.7904 -1.9152  1.3000
  418MOL0     H56411   0.693  11.348  11.406 -0.2685 -0.9669 -2.5390
  418MOL0     H56412  -0.021  11.160  11.023 -3.9932  1.0333 -1.4808
  418MOL0     H56413  -0.249  11.193  11.062 -2.1035 -1.8935 -0.3883
  418MOL0     H56414  -0.649  10.952  11.246  0.9708  0.5621 -0.9802
  418MOL0     H56415  -0.875  11.022  11.333 -0.2329  2.9631  0.7408
  418MOL0     H56416  -0.095  10.693  10.476 -0.2738 -1.3369 -0.8171
  418MOL0     H56417   0.152  10.738  10.490  1.0461  0.2340  2.0963
  418MOL0     H56418   0.440  11.281  10.642 -0.4364 -0.5385  1.2099
  418MOL0     H56419   0.655  11.328  10.731 -0.0017 -0.0507  1.1887
  418MOL0     H56420   0.870  11.319  10.747 -0.1025 -0.2954  0.0220
  418MOL0     H56421   0.816  11.354  10.908 -0.5980 -1.3707  1.9455
  418MOL0     H56422   1.065  11.199  10.830 -0.2945 -0.0692  0.8330
  418MOL0     H56423   1.028  11.234  10.992  1.4611 -1.2853 -0.5904
  418MOL0     H56424   1.083  11.455  10.788 -2.6255  1.2560  0.9180
  418MOL0     H56425   1.208  11.372  10.879  0.9606  0.3467  1.5390
  418MOL0     H56426   1.079  11.438  11.092 -1.7787  1.7276  0.6264
  418MOL0     H56427   0.989  11.552  10.986  1.8771  1.7967  0.5794
  418MOL0     H56428   1.343  11.762  11.018  0.9737 -0.5850 -1.6637
  418MOL0     H56429   0.693  10.948  10.914 -1.1957  0.3591  0.5823
  418MOL0     H56430   0.476  10.874  10.792  2.3881 -0.3133 -1.3813
  419MOL0     O56431   6.699   6.950   4.189  0.3633  0.7520 -0.1183
  419MOL0     C56432   6.743   6.852   4.249 -0.1274 -0.1646  0.4575
  419MOL0     O56433   6.677   6.772   4.330  0.0757 -0.3470 -0.1944
  419MOL0     C56434   6.541   6.777   4.341 -0.7368  0.3982  0.1052
  419MOL0     C56435   6.480   6.645   4.354  0.4108 -0.7225 -0.4462
  419MOL0     C56436   6.340   6.640   4.357  0.3932 -0.2494 -0.4501
  419MOL0     C56437   6.258   6.751   4.346  0.3922 -0.6570  0.3217
  419MOL0     O56438   6.125   6.723   4.349 -0.1054  0.1611 -0.1342
  419MOL0     C56439   6.039   6.807   4.419 -0.1945 -0.4943  0.0628
  419MOL0     C56440   5.925   6.717   4.485 -0.0866 -0.5972  0.4723
  419MOL0     C56441   5.854   6.804   4.596 -0.2666  0.7784  0.3674
  419MOL0     C56442   5.743   6.727   4.669 -0.5600  0.4039 -0.0277
  419MOL0     C56443   5.646   6.829   4.746  0.5164  0.3484 -0.4828
  419MOL0     C56444   5.580   6.756   4.865  0.1803  0.6978 -0.0138
  419MOL0     C56445   5.492   6.649   4.810 -0.4069 -0.0662  0.5647
  419MOL0     C56446   5.452   6.559   4.931  0.0273  0.6547  0.4181
  419MOL0     N56447   5.374   6.446   4.874  0.1608  0.1811  1.2512
  419MOL0     C56448   5.419   6.319   4.852  0.0345 -0.3201 -0.3119
  419MOL0     C56449   5.325   6.255   4.779 -0.6320 -0.0343 -0.9034
  419MOL0     C56450   5.334   6.115   4.731 -0.9627 -0.1473  1.0730
  419MOL0     C56451   5.292   6.132   4.580  1.1847  0.4538 -0.0001
  419MOL0     C56452   5.334   6.002   4.518 -0.2719  0.1266  1.1193
  419MOL0     C56453   5.286   5.995   4.370  0.4547 -0.4053  0.2831
  419MOL0     O56454   5.150   5.953   4.368 -0.7865  0.5475  0.3883
  419MOL0     C56455   5.117   5.828   4.418 -0.7320 -0.4645  0.6932
  419MOL0     C56456   4.988   5.821   4.450  0.6940 -0.1016 -0.0528
  419MOL0     C56457   4.928   5.706   4.496  1.0028  0.2138 -0.0727
  419MOL0     C56458   4.777   5.724   4.517  0.2114  0.3774 -0.3866
  419MOL0     C56459   5.008   5.598   4.534 -0.2181  0.4826  0.5790
  419MOL0     C56460   4.962   5.469   4.592  0.4270 -0.0087 -0.5235
  419MOL0     O56461   5.058   5.375   4.600 -0.0420 -0.3077 -0.1278
  419MOL0     C56462   5.023   5.249   4.644 -0.0303  0.6537  0.0466
  419MOL0     C56463   5.092   5.142   4.582 -0.6621 -0.1181  0.1577
  419MOL0     C56464   5.078   5.009   4.623 -0.2211  0.5314  0.5615
  419MOL0     C56465   5.002   4.979   4.732  0.0388 -0.1051  0.1754
  419MOL0     O56466   4.982   4.849   4.755 -0.9677  0.4452  0.4393
  419MOL0     C56467   4.959   4.808   4.889 -0.1785 -0.2315 -0.6948
  419MOL0     C56468   4.982   4.659   4.923  0.1296  0.1608  0.7559
  419MOL0     C56469   5.121   4.599   4.882  0.4067 -0.4611  1.2288
  419MOL0     C56470   5.240   4.653   4.962  0.5024 -0.4816 -0.0388
  419MOL0     C56471   5.368   4.584   4.900 -0.7964 -0.1858 -0.1267
  419MOL0     C56472   5.490   4.650   4.964 -0.4343 -0.5887  0.7891
  419MOL0     C56473   5.477   4.809   4.960  0.1808  0.5340 -0.2374
  419MOL0     C56474   5.616   4.876   4.971 -0.6575 -0.1632  1.5132
  419MOL0    Cl56475   5.723   4.810   5.088 -0.1294  0.1030  0.0417
  419MOL0     C56476   4.957   5.084   4.811 -0.4140 -0.5141 -0.2258
  419MOL0     C56477   4.956   5.215   4.757  0.6527 -0.7450 -0.4271
  419MOL0     O56478   4.840   5.450   4.612 -0.0582  0.4086 -0.7120
  419MOL0     C56479   5.146   5.611   4.502 -0.7591  0.3332  0.4299
  419MOL0     C56480   5.204   5.724   4.433  0.4995  0.7135 -0.3287
  419MOL0     N56481   5.221   6.343   4.757  0.3403 -0.3527 -1.1295
  419MOL0     N56482   5.254   6.462   4.810  0.4346  0.1635 -0.2924
  419MOL0     C56483   6.322   6.880   4.353  0.4566 -0.4119  0.8523
  419MOL0     C56484   6.467   6.890   4.348 -0.0156 -0.8380 -0.2293
  419MOL0     C56485   6.896   6.835   4.232 -0.0613 -0.3913  0.3538
  419MOL0     C56486   6.966   6.721   4.288  0.7472 -0.0832  0.5734
  419MOL0     C56487   7.110   6.722   4.303  0.4032 -1.6884  0.3340
  419MOL0     C56488   7.179   6.821   4.236 -0.5680 -0.1424 -0.0446
  419MOL0     O56489   7.316   6.817   4.230 -0.1618 -0.5105 -0.4509
  419MOL0     C56490   7.389   6.929   4.174  0.1031  0.5951 -0.4926
  419MOL0     C56491   7.542   6.908   4.175  0.1689  0.6015 -0.3016
  419MOL0     C56492   7.584   6.784   4.099 -0.7625 -0.4799  1.1025
  419MOL0     C56493   7.737   6.768   4.097  0.6811  0.2527 -0.4336
  419MOL0     C56494   7.769   6.654   4.017  0.5642  0.0445  0.6787
  419MOL0     C56495   7.814   6.553   3.957  0.1488 -0.3759  0.3278
  419MOL0     C56496   7.112   6.923   4.176  0.5132 -0.3695  0.0639
  419MOL0     C56497   6.973   6.938   4.170  0.3380  0.1783  0.4101
  419MOL0     H56498   6.548   6.562   4.338  0.7876  0.1465 -4.5046
  419MOL0     H56499   6.301   6.539   4.367 -0.9505  0.3094  0.3362
  419MOL0     H56500   6.075   6.891   4.479 -0.7079 -0.4448  0.3054
  419MOL0     H56501   5.979   6.860   4.345 -4.1526 -0.2336  3.1373
  419MOL0     H56502   5.860   6.678   4.406  1.4961  0.4988 -1.4571
  419MOL0     H56503   5.962   6.630   4.540 -2.7777 -0.0555  3.4541
  419MOL0     H56504   5.929   6.837   4.669 -2.5773  1.1559  2.7652
  419MOL0     H56505   5.800   6.893   4.561 -0.1485  1.5865  2.1019
  419MOL0     H56506   5.693   6.669   4.591  1.6641 -2.2457  0.3630
  419MOL0     H56507   5.776   6.646   4.735  3.1869  1.7310  0.0239
  419MOL0     H56508   5.694   6.915   4.792 -0.4794  1.3321 -1.2303
  419MOL0     H56509   5.567   6.870   4.683  0.9148  2.1748  0.1519
  419MOL0     H56510   5.668   6.721   4.919  1.0774 -1.9312 -2.9086
  419MOL0     H56511   5.518   6.820   4.929  0.2918 -1.9234  2.9374
  419MOL0     H56512   5.408   6.692   4.756  1.5057 -1.3902 -3.9478
  419MOL0     H56513   5.557   6.593   4.742 -0.2080  1.6941 -0.7707
  419MOL0     H56514   5.382   6.612   4.996  0.3185 -0.7014  1.8892
  419MOL0     H56515   5.548   6.530   4.974  0.3715  1.5284  0.2563
  419MOL0     H56516   5.510   6.270   4.883  0.5061 -1.6746 -3.4506
  419MOL0     H56517   5.439   6.084   4.734 -1.4772 -2.2558 -0.1724
  419MOL0     H56518   5.272   6.037   4.777 -0.9021 -1.6908 -1.2952
  419MOL0     H56519   5.353   6.210   4.534  2.0401  0.4426  1.0821
  419MOL0     H56520   5.186   6.159   4.572  1.3566  0.6941 -1.7082
  419MOL0     H56521   5.299   5.918   4.579  2.6494 -1.4103  0.8540
  419MOL0     H56522   5.443   5.992   4.520 -0.0481  0.8189 -2.4035
  419MOL0     H56523   5.340   5.921   4.311 -0.9416 -0.5205 -0.8986
  419MOL0     H56524   5.291   6.090   4.316 -0.5406 -1.1531 -1.1648
  419MOL0     H56525   4.940   5.917   4.439 -0.3108 -0.4211  1.2120
  419MOL0     H56526   4.732   5.815   4.477 -1.6734  1.5120  3.7674
  419MOL0     H56527   4.736   5.646   4.452  0.6124  2.3285 -3.1869
  419MOL0     H56528   4.742   5.716   4.620  1.6325  1.6912  0.2374
  419MOL0     H56529   5.156   5.152   4.495 -3.7257  1.3560 -2.0908
  419MOL0     H56530   5.116   4.934   4.554 -2.3191  1.4944 -1.7876
  419MOL0     H56531   5.025   4.866   4.955 -0.1490  1.5564 -2.2059
  419MOL0     H56532   4.853   4.832   4.908 -0.6313 -0.9589 -2.1707
  419MOL0     H56533   4.960   4.650   5.030 -1.2336  2.4217  0.7314
  419MOL0     H56534   4.914   4.600   4.860  2.1936  0.5091 -1.9832
  419MOL0     H56535   5.134   4.616   4.775  1.1599 -1.3814  1.1616
  419MOL0     H56536   5.130   4.490   4.883 -1.3377 -0.6808 -0.7708
  419MOL0     H56537   5.237   4.761   4.941  1.8687 -0.3038  0.5923
  419MOL0     H56538   5.235   4.641   5.071 -0.6118 -0.7989 -0.1116
  419MOL0     H56539   5.355   4.604   4.793 -1.5555 -3.1032 -0.6552
  419MOL0     H56540   5.373   4.477   4.921 -0.9005 -0.0608  0.5581
  419MOL0     H56541   5.507   4.613   5.066  2.9252 -0.4462  0.3967
  419MOL0     H56542   5.584   4.628   4.912  0.0419  0.9856  0.9166
  419MOL0     H56543   5.424   4.851   5.045  1.4635  2.3899 -0.2900
  419MOL0     H56544   5.439   4.836   4.862  0.1068 -1.7474 -0.9108
  419MOL0     H56545   5.592   4.981   4.992 -2.7400 -0.3982  0.5275
  419MOL0     H56546   5.667   4.885   4.875 -0.5421 -2.8699  1.2436
  419MOL0     H56547   4.901   5.065   4.902 -0.0268  1.8063  0.5689
  419MOL0     H56548   4.906   5.287   4.821 -2.2278 -1.6923 -1.4353
  419MOL0     H56549   5.213   5.528   4.523 -1.5536 -0.3427  0.3355
  419MOL0     H56550   5.308   5.719   4.401  0.2609  0.0275 -1.0362
  419MOL0     H56551   6.265   6.971   4.336  0.4457 -0.4206  0.8415
  419MOL0     H56552   6.507   6.990   4.335 -3.5370  0.9629  1.3944
  419MOL0     H56553   6.900   6.648   4.333 -0.1577  0.6219  0.4023
  419MOL0     H56554   7.164   6.643   4.354  4.0792  0.0265 -0.5554
  419MOL0     H56555   7.359   6.937   4.069  0.4582 -3.2999 -1.0296
  419MOL0     H56556   7.364   7.027   4.215 -0.2279  1.1881 -2.0165
  419MOL0     H56557   7.571   6.902   4.280 -0.2924 -0.5992 -0.2348
  419MOL0     H56558   7.596   6.993   4.131 -1.1971  0.9199 -1.4389
  419MOL0     H56559   7.546   6.787   3.997 -0.3434 -2.9130  0.7970
  419MOL0     H56560   7.528   6.701   4.144 -5.9248  2.7596  1.5187
  419MOL0     H56561   7.778   6.750   4.197  2.8374  1.6012 -0.9905
  419MOL0     H56562   7.784   6.861   4.064  2.0583 -0.5266 -0.7675
  419MOL0     H56563   7.861   6.470   3.907  4.1188  1.8276  0.0084
  419MOL0     H56564   7.153   7.005   4.117  4.5358 -1.6586  0.7817
  419MOL0     H56565   6.925   7.023   4.122 -2.3612  0.1704  2.8770
  420MOL0     O56566   3.869   8.218   5.614  0.4921  0.0694 -0.2002
  420MOL0     C56567   3.913   8.250   5.504  0.1916 -0.3730  0.5882
  420MOL0     O56568   3.852   8.336   5.414 -0.1035 -0.2066 -0.6874
  420MOL0     C56569   3.723   8.367   5.426  0.3978  0.6502 -0.2284
  420MOL0     C56570   3.618   8.279   5.477 -0.2253 -0.5286  0.2120
  420MOL0     C56571   3.489   8.325   5.477  0.5525  0.3728  0.8187
  420MOL0     C56572   3.447   8.454   5.425  0.0793 -0.2163 -0.4362
  420MOL0     O56573   3.320   8.497   5.409  0.2616 -0.3097  0.2837
  420MOL0     C56574   3.218   8.397   5.458  0.5242 -0.9473 -0.1899
  420MOL0     C56575   3.070   8.414   5.415 -0.1029  0.0146  0.9055
  420MOL0     C56576   3.002   8.537   5.470  0.6341 -0.2517  0.1956
  420MOL0     C56577   2.854   8.546   5.442  0.8888  0.0533  0.0386
  420MOL0     C56578   2.800   8.671   5.506  0.1182 -0.3820  0.9998
  420MOL0     C56579   2.655   8.684   5.469  0.6464 -0.1207  0.5865
  420MOL0     C56580   2.575   8.792   5.553 -0.5397  0.8275 -0.2587
  420MOL0     C56581   2.429   8.802   5.497 -0.4823 -0.3511  0.4654
  420MOL0     N56582   2.346   8.874   5.599  0.0578  0.4150 -0.3613
  420MOL0     C56583   2.259   8.817   5.689  0.6227 -1.6328 -0.2403
  420MOL0     C56584   2.239   8.913   5.776 -0.7832 -0.5117 -0.5217
  420MOL0     C56585   2.148   8.912   5.901 -0.5095  0.3485  0.4238
  420MOL0     C56586   2.000   8.892   5.852  0.8852  0.4835  0.0139
  420MOL0     C56587   1.903   8.909   5.975  0.7432  0.3606 -0.6553
  420MOL0     C56588   1.760   8.891   5.938 -0.3859  0.1729  0.0846
  420MOL0     O56589   1.688   8.896   6.063  0.5846 -0.8992 -0.1141
  420MOL0     C56590   1.564   8.932   6.055  0.0785 -0.5203  0.9971
  420MOL0     C56591   1.480   8.965   5.949  0.6654 -0.0515  0.9416
  420MOL0     C56592   1.344   9.005   5.968 -0.1851  0.1422  0.8423
  420MOL0     C56593   1.275   9.047   5.845  0.3056  0.2142  0.0623
  420MOL0     C56594   1.288   9.004   6.092  0.6555 -1.3588 -0.4587
  420MOL0     C56595   1.143   9.051   6.128 -0.7218  0.4554  0.2085
  420MOL0     O56596   1.044   9.048   6.025  0.6648 -0.4956 -0.6112
  420MOL0     C56597   0.908   9.070   6.048  0.6808 -0.2344 -0.0997
  420MOL0     C56598   0.838   9.144   5.949 -0.4721 -0.5707 -0.5232
  420MOL0     C56599   0.702   9.190   5.973  0.1824 -0.3139  0.1868
  420MOL0     C56600   0.644   9.165   6.092  0.3784 -0.6485  0.0022
  420MOL0     O56601   0.532   9.229   6.142 -0.0145 -0.4255 -0.3665
  420MOL0     C56602   0.459   9.312   6.050 -0.4309  0.2500  0.7238
  420MOL0     C56603   0.318   9.337   6.079  0.1808  0.4427  0.2963
  420MOL0     C56604   0.255   9.444   5.984 -0.4508 -0.0149 -0.5431
  420MOL0     C56605   0.106   9.419   5.971  0.2771  0.3118  0.9943
  420MOL0     C56606   0.054   9.537   5.884  0.9335 -0.2205 -0.1821
  420MOL0     C56607  -0.104   9.510   5.872 -0.9316 -0.2482 -0.1872
  420MOL0     C56608  -0.185   9.633   5.814 -0.0921 -0.7950  0.5044
  420MOL0     C56609  -0.190   9.627   5.654 -0.1706  0.0649 -0.6638
  420MOL0    Cl56610  -0.306   9.741   5.586  0.0517  0.4787 -0.3383
  420MOL0     C56611   0.705   9.081   6.186 -0.1365 -0.4211  1.0296
  420MOL0     C56612   0.841   9.039   6.170 -0.2443 -0.0245  0.2695
  420MOL0     O56613   1.127   9.070   6.250  0.0613  0.4306  0.2607
  420MOL0     C56614   1.369   8.963   6.195  0.4627 -0.2064 -0.5133
  420MOL0     C56615   1.503   8.924   6.174  0.5858 -0.1159 -0.5832
  420MOL0     N56616   2.301   9.027   5.726  0.1103 -0.1417 -0.6715
  420MOL0     N56617   2.359   9.003   5.618  0.0116  0.3396  0.4261
  420MOL0     C56618   3.545   8.527   5.368  0.1333 -0.1410 -0.8307
  420MOL0     C56619   3.678   8.483   5.375  1.2200  0.3218  0.3076
  420MOL0     C56620   4.056   8.214   5.483  0.1105  0.1134 -0.1339
  420MOL0     C56621   4.101   8.090   5.526  0.1842  0.0843 -0.2649
  420MOL0     C56622   4.233   8.058   5.508 -0.0654 -0.3310 -0.2727
  420MOL0     C56623   4.322   8.150   5.446  0.1903  0.0291  0.3081
  420MOL0     O56624   4.452   8.104   5.430  0.2537  0.0437  0.3250
  420MOL0     C56625   4.537   8.187   5.352 -0.1252  1.0423  1.0329
  420MOL0     C56626   4.678   8.126   5.340 -0.4507 -0.1812 -0.0409
  420MOL0     C56627   4.770   8.223   5.266  0.2811 -0.6950 -0.2972
  420MOL0     C56628   4.908   8.165   5.271  0.6541 -0.1769 -0.0122
  420MOL0     C56629   5.000   8.251   5.194 -0.1778 -0.0312 -0.0395
  420MOL0     C56630   5.087   8.302   5.127  0.2123  0.7832  0.2548
  420MOL0     C56631   4.271   8.275   5.394 -0.3635  0.6323 -0.2809
  420MOL0     C56632   4.139   8.308   5.422 -0.6475  0.0502 -0.0193
  420MOL0     H56633   3.643   8.182   5.521  0.9752 -0.2609  0.1373
  420MOL0     H56634   3.430   8.252   5.532  0.6411  1.0986  1.9216
  420MOL0     H56635   3.246   8.297   5.423  0.3513 -0.5432 -1.5431
  420MOL0     H56636   3.206   8.413   5.565  0.1628 -0.9067 -0.2367
  420MOL0     H56637   3.075   8.420   5.306  3.7304  0.2065  0.9291
  420MOL0     H56638   3.009   8.334   5.457 -0.1428 -0.9000 -0.8040
  420MOL0     H56639   3.024   8.540   5.578 -2.7432  0.9219  0.9576
  420MOL0     H56640   3.047   8.624   5.422 -2.3685  0.4300 -1.6304
  420MOL0     H56641   2.845   8.552   5.333 -0.3869  0.5492  0.1542
  420MOL0     H56642   2.800   8.457   5.475 -1.2601  0.4721 -2.0601
  420MOL0     H56643   2.801   8.665   5.615 -1.1531  1.4573  1.1712
  420MOL0     H56644   2.855   8.758   5.468 -0.8165 -0.2984 -0.2533
  420MOL0     H56645   2.639   8.711   5.364 -2.8136 -1.2627  0.7012
  420MOL0     H56646   2.606   8.587   5.488 -0.9796  0.3081 -1.1388
  420MOL0     H56647   2.577   8.774   5.661  0.8254 -1.6369 -0.6135
  420MOL0     H56648   2.620   8.890   5.537  0.7668  0.3815  0.4411
  420MOL0     H56649   2.391   8.700   5.497 -0.9154 -0.2247  2.0310
  420MOL0     H56650   2.422   8.847   5.398 -1.7037  1.4256  1.3042
  420MOL0     H56651   2.228   8.714   5.697 -2.0496 -1.0148 -1.4496
  420MOL0     H56652   2.174   8.830   5.968 -3.3438  0.5327  1.8752
  420MOL0     H56653   2.163   9.004   5.958  1.3843  1.2458 -1.3956
  420MOL0     H56654   1.991   8.789   5.817 -0.5179  0.4558  0.3920
  420MOL0     H56655   1.976   8.958   5.768 -1.4319 -0.2382  0.0479
  420MOL0     H56656   1.916   9.010   6.017  1.1493 -1.0265  2.8485
  420MOL0     H56657   1.919   8.842   6.059  2.1992  0.7864 -0.5509
  420MOL0     H56658   1.747   8.807   5.869  0.7640 -0.0617  0.1234
  420MOL0     H56659   1.724   8.975   5.878  0.1596  1.6173  1.6939
  420MOL0     H56660   1.520   8.962   5.848 -2.3803 -0.8083 -0.3713
  420MOL0     H56661   1.341   9.030   5.760  0.9345  2.3287  0.0607
  420MOL0     H56662   1.176   9.003   5.830  1.4682 -1.6521 -2.8536
  420MOL0     H56663   1.259   9.156   5.850  0.2148  0.2390 -0.7044
  420MOL0     H56664   0.892   9.173   5.860 -0.1862 -0.7337 -0.4027
  420MOL0     H56665   0.659   9.252   5.896  4.8813 -0.8824 -3.3086
  420MOL0     H56666   0.505   9.409   6.030  1.6805 -0.8100  0.0239
  420MOL0     H56667   0.457   9.267   5.950  0.2815  0.9439  0.3829
  420MOL0     H56668   0.262   9.245   6.063 -0.0232  0.2351  2.0626
  420MOL0     H56669   0.311   9.366   6.185  0.7998  3.6135 -0.4043
  420MOL0     H56670   0.299   9.439   5.884  2.0706 -1.9384  0.5460
  420MOL0     H56671   0.282   9.541   6.027  1.2469 -0.5933 -0.1925
  420MOL0     H56672   0.106   9.323   5.918 -0.9961  0.8239  0.0240
  420MOL0     H56673   0.054   9.402   6.065  1.8451 -0.5760  1.7557
  420MOL0     H56674   0.098   9.536   5.784  1.8649 -0.5811  0.2284
  420MOL0     H56675   0.071   9.635   5.929 -2.0644  0.3640 -0.0884
  420MOL0     H56676  -0.115   9.424   5.806  2.9745  1.3550 -3.3823
  420MOL0     H56677  -0.144   9.480   5.969  1.4052  1.7466  1.5440
  420MOL0     H56678  -0.148   9.733   5.838 -0.6050  0.3141 -2.7376
  420MOL0     H56679  -0.286   9.623   5.854  0.8563  1.6623  3.9253
  420MOL0     H56680  -0.222   9.528   5.620 -2.1430  0.8107 -1.1136
  420MOL0     H56681  -0.090   9.654   5.618 -0.2345  0.4748 -0.5357
  420MOL0     H56682   0.645   9.052   6.272 -2.0789 -2.6550 -0.9291
  420MOL0     H56683   0.893   8.994   6.254 -1.8240 -2.5170  0.0327
  420MOL0     H56684   1.317   8.963   6.290 -2.3334 -1.2742 -1.9458
  420MOL0     H56685   1.551   8.889   6.265 -1.2969  1.1842  0.9981
  420MOL0     H56686   3.519   8.629   5.338  0.9389  0.6364  0.9668
  420MOL0     H56687   3.751   8.556   5.341  1.1227 -0.0057 -0.6264
  420MOL0     H56688   4.041   8.023   5.585 -0.8741  3.0729  2.3383
  420MOL0     H56689   4.260   7.963   5.553 -0.2798  0.4136  1.5094
  420MOL0     H56690   4.496   8.193   5.251  0.7169  0.5988  0.6516
  420MOL0     H56691   4.550   8.290   5.387 -0.0633  1.3493  0.1104
  420MOL0     H56692   4.670   8.028   5.291  1.1520 -0.7144  0.7147
  420MOL0     H56693   4.704   8.116   5.446 -2.0960 -2.4519  0.2302
  420MOL0     H56694   4.789   8.317   5.318  2.2008 -0.9660 -0.4468
  420MOL0     H56695   4.733   8.231   5.163 -2.4857 -0.4920  0.6249
  420MOL0     H56696   4.911   8.068   5.220 -0.0120  0.4898 -1.3654
  420MOL0     H56697   4.949   8.154   5.372 -0.6399  0.5821  0.6349
  420MOL0     H56698   5.170   8.342   5.073  0.4915 -2.0005 -1.6125
  420MOL0     H56699   4.326   8.346   5.333 -0.9779  1.8377  0.5295
  420MOL0     H56700   4.094   8.403   5.397 -2.4817 -0.4041  1.3817
  421MOL0     O56701   6.272   7.635   5.652  0.2668 -0.6343  0.1916
  421MOL0     C56702   6.366   7.681   5.722 -1.4611 -0.0879 -0.8912
  421MOL0     O56703   6.363   7.695   5.849 -0.2948  0.0437 -0.3231
  421MOL0     C56704   6.256   7.644   5.917  0.0182 -0.5723 -0.0037
  421MOL0     C56705   6.126   7.700   5.909 -0.5244 -0.1476 -0.8224
  421MOL0     C56706   6.022   7.640   5.977 -0.4079  0.2174  0.4335
  421MOL0     C56707   6.041   7.527   6.053  0.4988  0.4385 -0.1894
  421MOL0     O56708   5.930   7.467   6.099  0.3578  0.3683  0.3471
  421MOL0     C56709   5.943   7.359   6.196  0.5375  0.2487 -0.5367
  421MOL0     C56710   5.808   7.282   6.217  0.0500  0.4635 -0.8462
  421MOL0     C56711   5.699   7.374   6.267  0.9428  0.5513 -0.0035
  421MOL0     C56712   5.594   7.303   6.354 -0.5027 -0.3466  0.6529
  421MOL0     C56713   5.490   7.399   6.408  0.3703 -0.2679 -0.2759
  421MOL0     C56714   5.389   7.443   6.307 -0.2282  0.1857 -0.0679
  421MOL0     C56715   5.297   7.560   6.351 -0.0701  0.3924  0.1113
  421MOL0     C56716   5.167   7.577   6.273 -1.0784  0.6660  0.4057
  421MOL0     N56717   5.090   7.450   6.268 -0.5315 -0.0646  0.5178
  421MOL0     C56718   5.010   7.393   6.364  0.0358  0.1341  0.4190
  421MOL0     C56719   4.937   7.294   6.299 -0.9129 -0.1395 -0.3547
  421MOL0     C56720   4.838   7.201   6.365  0.2750  0.8533 -0.8302
  421MOL0     C56721   4.717   7.269   6.426  0.7213  0.2451  0.3189
  421MOL0     C56722   4.592   7.183   6.438  0.5341  0.2673  0.2023
  421MOL0     C56723   4.476   7.263   6.506  0.0953  0.1030  0.0991
  421MOL0     O56724   4.362   7.175   6.540 -0.7388 -0.1123 -0.3549
  421MOL0     C56725   4.248   7.236   6.588 -0.1994 -0.4918 -0.1274
  421MOL0     C56726   4.234   7.369   6.638  0.0533 -0.9267 -0.2683
  421MOL0     C56727   4.114   7.413   6.692  0.0011 -0.9057 -0.1874
  421MOL0     C56728   4.100   7.562   6.732  0.7596  0.9947  0.2954
  421MOL0     C56729   4.004   7.320   6.703 -0.1357  0.7480  0.9282
  421MOL0     C56730   3.867   7.361   6.753 -0.1986  0.2658  0.1900
  421MOL0     O56731   3.832   7.494   6.758  0.3761  0.0046  0.5484
  421MOL0     C56732   3.697   7.524   6.770 -0.7907 -0.1021  0.1452
  421MOL0     C56733   3.617   7.498   6.885  0.1622  0.4371  0.3174
  421MOL0     C56734   3.486   7.546   6.899  0.7230 -0.0889  0.3007
  421MOL0     C56735   3.428   7.619   6.796 -0.1806 -0.1942 -0.1865
  421MOL0     O56736   3.291   7.645   6.800 -0.4412 -0.3086  0.1840
  421MOL0     C56737   3.254   7.784   6.785  0.9052 -0.8030 -0.3250
  421MOL0     C56738   3.097   7.785   6.798  0.1461  0.2065 -0.9026
  421MOL0     C56739   3.044   7.926   6.780  0.5386 -0.0704 -0.6781
  421MOL0     C56740   2.892   7.931   6.786  0.5287 -0.5010 -0.4473
  421MOL0     C56741   2.826   7.892   6.920 -0.2209 -0.9273 -1.0305
  421MOL0     C56742   2.896   7.958   7.044  0.1441 -0.0486 -0.1573
  421MOL0     C56743   2.841   7.905   7.179  0.7740  0.4015 -0.7221
  421MOL0     C56744   2.694   7.961   7.202  0.4044  0.3212  0.8929
  421MOL0    Cl56745   2.625   7.895   7.357  0.2024  0.4620 -0.7011
  421MOL0     C56746   3.509   7.661   6.692 -0.4214 -0.6547  0.4984
  421MOL0     C56747   3.646   7.611   6.669  0.0790 -0.2448 -0.5025
  421MOL0     O56748   3.787   7.268   6.777 -0.2043  0.7131  0.6220
  421MOL0     C56749   4.013   7.187   6.656 -0.5547 -0.7912  0.6917
  421MOL0     C56750   4.137   7.151   6.602  0.5675  0.6569 -0.2512
  421MOL0     N56751   4.968   7.287   6.166 -0.4635  0.3258 -0.5211
  421MOL0     N56752   5.057   7.386   6.147  0.0591  0.4167  0.4074
  421MOL0     C56753   6.171   7.486   6.075  0.1454 -0.2044 -0.0817
  421MOL0     C56754   6.283   7.544   6.005  0.7591 -0.5420 -0.5705
  421MOL0     C56755   6.488   7.726   5.648 -0.3919  0.1787  0.5285
  421MOL0     C56756   6.474   7.728   5.506  0.2249  0.2207 -0.5577
  421MOL0     C56757   6.573   7.794   5.436 -0.1064  0.7536  0.2888
  421MOL0     C56758   6.695   7.836   5.493 -1.4798 -0.7580 -0.4215
  421MOL0     O56759   6.797   7.890   5.430  0.2885 -0.2133  0.8861
  421MOL0     C56760   6.786   7.922   5.289 -1.6369  0.1272 -0.6084
  421MOL0     C56761   6.909   8.003   5.245  0.1118 -0.0306  0.0418
  421MOL0     C56762   7.040   7.916   5.263 -0.0339  0.2027  0.3868
  421MOL0     C56763   7.168   7.986   5.217  0.1155 -0.0966 -0.1394
  421MOL0     C56764   7.206   8.103   5.297  0.4413 -0.5688 -0.3366
  421MOL0     C56765   7.228   8.206   5.352 -0.4502  0.4581  1.2037
  421MOL0     C56766   6.716   7.824   5.626 -0.8589  0.1112 -1.3661
  421MOL0     C56767   6.614   7.768   5.709  0.4167 -0.4888  0.3300
  421MOL0     H56768   6.114   7.786   5.844  0.9936  2.1424  1.6973
  421MOL0     H56769   5.921   7.678   5.966 -0.8721 -1.7616 -4.9715
  421MOL0     H56770   5.997   7.276   6.150 -1.7557 -1.0046 -1.1605
  421MOL0     H56771   5.992   7.394   6.287 -1.0850  0.0786  0.4379
  421MOL0     H56772   5.764   7.227   6.134  1.1390 -0.2733 -0.9650
  421MOL0     H56773   5.816   7.209   6.299 -0.8868 -0.6159 -1.6845
  421MOL0     H56774   5.729   7.460   6.328  1.0067  0.4564  0.0994
  421MOL0     H56775   5.647   7.412   6.179  1.9924  2.3162  0.0815
  421MOL0     H56776   5.533   7.225   6.307 -1.8846  0.9558  0.2117
  421MOL0     H56777   5.645   7.261   6.441 -1.9829 -2.4286  0.5884
  421MOL0     H56778   5.437   7.356   6.493  1.8811 -1.1773  0.2389
  421MOL0     H56779   5.540   7.481   6.461 -0.9067  0.1897  0.2785
  421MOL0     H56780   5.438   7.478   6.216 -1.3480  0.1125 -0.7246
  421MOL0     H56781   5.325   7.355   6.292  0.3966 -0.7827  2.5270
  421MOL0     H56782   5.273   7.535   6.455  0.5681 -3.0720 -0.4396
  421MOL0     H56783   5.359   7.651   6.348  1.9636 -0.9283 -0.4564
  421MOL0     H56784   5.194   7.600   6.169 -0.7145 -0.9425  0.1220
  421MOL0     H56785   5.114   7.665   6.311 -1.3867 -0.4935  2.8105
  421MOL0     H56786   4.997   7.412   6.470 -1.3359 -3.5317  1.0800
  421MOL0     H56787   4.801   7.126   6.295 -0.9840 -0.3657  1.0527
  421MOL0     H56788   4.885   7.137   6.441 -0.5260  1.6768  0.4012
  421MOL0     H56789   4.699   7.364   6.374 -2.4630  0.0464  0.8626
  421MOL0     H56790   4.750   7.300   6.526 -0.0770 -1.4891  1.1619
  421MOL0     H56791   4.619   7.091   6.490 -2.1199 -2.6327 -3.0659
  421MOL0     H56792   4.562   7.136   6.344 -2.7219 -2.8557  2.5193
  421MOL0     H56793   4.438   7.336   6.433 -1.0295 -1.5595 -1.0462
  421MOL0     H56794   4.514   7.320   6.591  1.0574 -1.5597  0.8096
  421MOL0     H56795   4.314   7.439   6.617 -0.5461  0.6559  2.3282
  421MOL0     H56796   4.022   7.605   6.667 -0.9468  0.4549  1.9006
  421MOL0     H56797   4.061   7.587   6.831 -2.1228  2.4282 -1.0627
  421MOL0     H56798   4.196   7.612   6.714  0.9860 -0.0123 -1.5801
  421MOL0     H56799   3.653   7.422   6.954  0.2772 -0.8464 -1.0799
  421MOL0     H56800   3.428   7.528   6.989 -2.3058  1.1112 -1.2775
  421MOL0     H56801   3.300   7.855   6.855  2.1996  0.8681 -2.7287
  421MOL0     H56802   3.274   7.814   6.682  0.1385  0.7805 -0.0502
  421MOL0     H56803   3.059   7.716   6.722 -0.3777 -0.4095 -0.1023
  421MOL0     H56804   3.072   7.745   6.897  1.2521  1.5772 -0.0287
  421MOL0     H56805   3.069   7.959   6.678 -2.7323  3.0497 -0.6848
  421MOL0     H56806   3.092   8.000   6.845 -0.6315 -0.2460  0.4102
  421MOL0     H56807   2.859   8.034   6.768  0.4116 -0.5958 -0.7740
  421MOL0     H56808   2.849   7.873   6.704 -2.5289 -1.0962  1.3900
  421MOL0     H56809   2.822   7.784   6.938  0.0863 -0.8513 -0.4705
  421MOL0     H56810   2.720   7.915   6.929 -0.0006 -0.4471  0.6314
  421MOL0     H56811   3.005   7.947   7.041  0.1709 -0.1151  0.7788
  421MOL0     H56812   2.867   8.064   7.043 -0.4546 -0.2110 -0.1917
  421MOL0     H56813   2.901   7.947   7.261 -0.6031 -1.8279  1.5423
  421MOL0     H56814   2.855   7.797   7.187  5.1680  0.6987 -1.8863
  421MOL0     H56815   2.635   7.931   7.115  1.8724  0.9184 -0.3562
  421MOL0     H56816   2.691   8.070   7.212 -0.0384  0.2070  2.2632
  421MOL0     H56817   3.461   7.731   6.624 -0.0711  1.0627  1.9489
  421MOL0     H56818   3.694   7.645   6.578 -1.3695 -0.6396 -1.4491
  421MOL0     H56819   3.933   7.121   6.685  0.1191 -0.5795  3.3317
  421MOL0     H56820   4.151   7.048   6.569 -0.0530  1.0884 -1.9927
  421MOL0     H56821   6.190   7.404   6.143  2.5975  0.8147  0.5558
  421MOL0     H56822   6.385   7.509   6.014  0.3255 -1.2594  3.5029
  421MOL0     H56823   6.388   7.687   5.453 -0.6863 -0.4158  1.3337
  421MOL0     H56824   6.539   7.809   5.334 -0.6961 -3.5415 -0.3299
  421MOL0     H56825   6.794   7.826   5.238 -0.0601 -0.1467  0.1086
  421MOL0     H56826   6.692   7.973   5.265 -1.9330 -0.3057 -0.3715
  421MOL0     H56827   6.911   8.092   5.307 -1.6434  1.1037 -1.4286
  421MOL0     H56828   6.895   8.023   5.138  3.3178  0.4789 -0.3766
  421MOL0     H56829   7.033   7.825   5.203  0.6801 -0.1170  0.7726
  421MOL0     H56830   7.052   7.880   5.366  1.3657 -0.1073  0.1239
  421MOL0     H56831   7.163   8.015   5.111  1.9317  1.9479  0.2573
  421MOL0     H56832   7.240   7.904   5.210 -0.1320 -0.3421  0.1912
  421MOL0     H56833   7.251   8.287   5.418 -1.3917 -1.1927  3.7213
  421MOL0     H56834   6.807   7.849   5.680 -2.5287 -2.3330  3.0438
  421MOL0     H56835   6.615   7.741   5.814 -3.8207 -0.3421  0.5744
  422MOL0     O56836   0.852   9.627   0.573  0.0796  0.2032  0.1277
  422MOL0     C56837   0.951   9.693   0.583 -0.4451  0.3398  0.9430
  422MOL0     O56838   0.953   9.828   0.574 -0.1950 -0.2623 -0.2909
  422MOL0     C56839   0.839   9.906   0.563 -0.4569 -0.6122 -0.7705
  422MOL0     C56840   0.862  10.038   0.505 -0.0750  0.5907 -0.7486
  422MOL0     C56841   0.757  10.124   0.470  0.0480 -0.1389  0.0084
  422MOL0     C56842   0.628  10.077   0.488  0.1025  0.1059  0.2159
  422MOL0     O56843   0.517  10.154   0.455  0.4808 -0.3926  0.4193
  422MOL0     C56844   0.532  10.258   0.356 -0.2075  0.1467 -0.6838
  422MOL0     C56845   0.392  10.273   0.298  0.4360 -0.6559  0.2271
  422MOL0     C56846   0.264  10.279   0.387 -0.2495  0.4245 -0.2681
  422MOL0     C56847   0.135  10.314   0.305  0.0737  0.4826  0.8264
  422MOL0     C56848   0.096  10.211   0.202 -0.1019 -0.3221  0.6339
  422MOL0     C56849  -0.037  10.249   0.136  0.4405  0.0107 -0.8735
  422MOL0     C56850  -0.046  10.394   0.066 -0.0585 -0.2260 -0.1566
  422MOL0     C56851   0.007  10.416  -0.079 -0.0333  0.4114 -0.4641
  422MOL0     N56852   0.155  10.385  -0.091 -0.6341 -0.3054 -0.1984
  422MOL0     C56853   0.257  10.464  -0.049  0.0472  0.0529 -0.8191
  422MOL0     C56854   0.374  10.401  -0.078  0.5091 -0.3439  0.8373
  422MOL0     C56855   0.509  10.464  -0.049  0.3801  0.1754  0.3437
  422MOL0     C56856   0.597  10.509  -0.173 -0.0806  0.3790 -0.5377
  422MOL0     C56857   0.745  10.542  -0.124 -0.5776  0.2197  0.1712
  422MOL0     C56858   0.832  10.412  -0.124  0.4368 -0.8830  0.0560
  422MOL0     O56859   0.969  10.457  -0.089  0.5990  0.3394  0.2794
  422MOL0     C56860   1.080  10.381  -0.121  0.0598 -0.3391 -0.1717
  422MOL0     C56861   1.076  10.294  -0.221  0.4268  0.1936 -0.4904
  422MOL0     C56862   1.177  10.193  -0.248 -0.3126 -0.2318 -0.6102
  422MOL0     C56863   1.158  10.091  -0.365 -0.2823 -1.0086  0.1248
  422MOL0     C56864   1.293  10.200  -0.170 -1.0585 -0.8241 -0.1196
  422MOL0     C56865   1.407  10.109  -0.171  0.6270 -0.2459  0.1969
  422MOL0     O56866   1.491  10.101  -0.060  0.5313  0.2787 -0.8414
  422MOL0     C56867   1.594  10.007  -0.044 -0.4923 -0.4960  1.0955
  422MOL0     C56868   1.585   9.909   0.049  0.4533 -0.7712 -1.0931
  422MOL0     C56869   1.689   9.817   0.062 -0.5043  0.5843 -0.1754
  422MOL0     C56870   1.800   9.814  -0.025  0.3284 -0.6962  0.8291
  422MOL0     O56871   1.887   9.706  -0.013 -0.4672 -0.0538 -0.3520
  422MOL0     C56872   2.022   9.736  -0.043  0.5320  0.3816  0.4500
  422MOL0     C56873   2.058   9.665  -0.169  0.2374 -0.1887 -0.4003
  422MOL0     C56874   2.213   9.674  -0.205  0.5735 -0.3789  0.7162
  422MOL0     C56875   2.244   9.592  -0.330  0.7689  0.4694  0.1085
  422MOL0     C56876   2.373   9.509  -0.340 -0.0668  0.1800 -0.9004
  422MOL0     C56877   2.373   9.379  -0.249  1.1966  1.0111 -0.1085
  422MOL0     C56878   2.518   9.346  -0.215 -0.1882 -0.0352 -0.8495
  422MOL0     C56879   2.521   9.232  -0.118  0.0201 -0.9071 -0.6696
  422MOL0    Cl56880   2.691   9.200  -0.068 -0.1743  0.0016  0.0497
  422MOL0     C56881   1.808   9.913  -0.123 -0.1525  0.6361 -0.7195
  422MOL0     C56882   1.701  10.003  -0.138  0.2566 -0.2173  0.0530
  422MOL0     O56883   1.430  10.050  -0.277  0.4455  0.4526 -0.0128
  422MOL0     C56884   1.299  10.310  -0.082 -0.0759 -0.5637 -0.1649
  422MOL0     C56885   1.185  10.387  -0.046 -0.0975  0.8323 -0.3749
  422MOL0     N56886   0.334  10.286  -0.142 -0.0077 -0.1818 -0.5094
  422MOL0     N56887   0.209  10.275  -0.157  0.1811  0.5422 -1.1756
  422MOL0     C56888   0.603   9.956   0.551 -0.6764  0.1557  0.3311
  422MOL0     C56889   0.706   9.866   0.587  0.6227 -0.1281  0.6579
  422MOL0     C56890   1.086   9.638   0.617  0.1673 -0.1986  0.2298
  422MOL0     C56891   1.090   9.505   0.661 -0.2612 -0.2624 -0.7323
  422MOL0     C56892   1.213   9.457   0.698 -0.1724 -0.7045  0.7085
  422MOL0     C56893   1.332   9.521   0.676  0.0413 -0.4296  0.0531
  422MOL0     O56894   1.446   9.457   0.723 -0.0161  0.5961 -0.1400
  422MOL0     C56895   1.573   9.525   0.689 -0.6525  0.1856  0.6046
  422MOL0     C56896   1.698   9.441   0.737 -0.0659  0.3608 -0.3891
  422MOL0     C56897   1.676   9.289   0.732 -0.2425 -0.0828  0.2039
  422MOL0     C56898   1.784   9.201   0.779 -0.2019  0.1889 -0.0241
  422MOL0     C56899   1.899   9.201   0.695 -0.3028  0.0138  0.6291
  422MOL0     C56900   1.982   9.194   0.612 -0.3260 -0.0128 -0.9586
  422MOL0     C56901   1.333   9.657   0.630  0.1934  0.0057 -0.2154
  422MOL0     C56902   1.205   9.720   0.608 -0.6268 -0.4532 -0.0950
  422MOL0     H56903   0.969  10.051   0.491  0.4059 -1.6420  0.4607
  422MOL0     H56904   0.782  10.226   0.443  0.1795  0.5305  2.3741
  422MOL0     H56905   0.567  10.348   0.409 -0.8394 -0.1777  0.3153
  422MOL0     H56906   0.593  10.245   0.266 -1.7882  1.8112 -2.0681
  422MOL0     H56907   0.393  10.373   0.254 -3.5899 -0.5524 -0.0027
  422MOL0     H56908   0.385  10.202   0.214 -0.3055  0.7094 -0.9073
  422MOL0     H56909   0.242  10.184   0.437 -0.0953 -2.0311 -4.4223
  422MOL0     H56910   0.277  10.360   0.460  0.2097  0.6133 -0.5581
  422MOL0     H56911   0.061  10.327   0.385  2.3013  0.5165  3.0023
  422MOL0     H56912   0.153  10.408   0.252  1.9851  0.2526  1.0145
  422MOL0     H56913   0.175  10.186   0.130 -3.0279  0.9215 -3.4193
  422MOL0     H56914   0.079  10.118   0.257  3.4620 -0.6228  1.4628
  422MOL0     H56915  -0.070  10.184   0.055  2.5494  0.5976 -2.2786
  422MOL0     H56916  -0.101  10.256   0.225 -0.3434 -0.2654 -1.4133
  422MOL0     H56917  -0.151  10.424   0.060 -0.3651 -1.4842 -3.4988
  422MOL0     H56918   0.003  10.472   0.124  0.7260  1.4032 -2.8293
  422MOL0     H56919  -0.012  10.519  -0.109  2.9708  1.1171 -0.2197
  422MOL0     H56920  -0.051  10.353  -0.147 -0.8166  1.1853 -0.5380
  422MOL0     H56921   0.253  10.562  -0.001 -0.8674 -0.3518 -0.0314
  422MOL0     H56922   0.491  10.550   0.016 -2.9338 -2.4739  3.3091
  422MOL0     H56923   0.558  10.391   0.016 -3.3988 -1.6697  1.3541
  422MOL0     H56924   0.549  10.599  -0.214 -2.5327  0.2527  1.7982
  422MOL0     H56925   0.602  10.447  -0.263  0.8671  0.1462 -0.3405
  422MOL0     H56926   0.751  10.584  -0.023  2.0261 -1.7130  0.9237
  422MOL0     H56927   0.793  10.616  -0.189 -1.2028 -0.6574 -1.3363
  422MOL0     H56928   0.830  10.373  -0.226 -2.1690  2.2181 -1.2535
  422MOL0     H56929   0.791  10.330  -0.065 -0.6886 -1.7285 -1.8296
  422MOL0     H56930   0.998  10.297  -0.297 -1.5467  1.4402  1.4507
  422MOL0     H56931   1.092  10.133  -0.442  2.5200  4.0328  0.0036
  422MOL0     H56932   1.250  10.090  -0.425 -0.0149  2.2132  0.2915
  422MOL0     H56933   1.135   9.996  -0.316  1.7066 -1.4034  0.3691
  422MOL0     H56934   1.497   9.912   0.113  1.5229  2.5787  0.4571
  422MOL0     H56935   1.690   9.735   0.132  0.0122  0.5397 -0.2331
  422MOL0     H56936   2.048   9.841  -0.056  2.6954  0.0123  1.4523
  422MOL0     H56937   2.078   9.707   0.046  3.0624 -1.0634 -1.4910
  422MOL0     H56938   2.033   9.563  -0.138 -2.6440  0.8570  1.1589
  422MOL0     H56939   1.991   9.700  -0.248 -3.7441 -2.6076  1.5686
  422MOL0     H56940   2.273   9.624  -0.128  1.6558 -0.7925 -0.3551
  422MOL0     H56941   2.254   9.775  -0.215 -2.4970  0.9111  0.1559
  422MOL0     H56942   2.165   9.520  -0.353 -0.9196  1.6447  1.8115
  422MOL0     H56943   2.249   9.655  -0.419 -0.7907 -2.3787 -2.1398
  422MOL0     H56944   2.463   9.570  -0.332  0.6203 -0.7701 -1.2479
  422MOL0     H56945   2.375   9.467  -0.441 -0.7212 -0.6012 -0.6031
  422MOL0     H56946   2.329   9.386  -0.149 -0.0966  0.7589 -0.6450
  422MOL0     H56947   2.330   9.290  -0.296 -0.3944 -0.7787  4.1816
  422MOL0     H56948   2.571   9.432  -0.175 -0.0701  1.1609 -3.3965
  422MOL0     H56949   2.573   9.319  -0.305  1.1056  0.3318 -0.1992
  422MOL0     H56950   2.461   9.144  -0.146 -1.4391 -0.3108  0.4815
  422MOL0     H56951   2.477   9.257  -0.021 -0.8675 -1.1269 -0.9999
  422MOL0     H56952   1.884   9.901  -0.200  0.6971 -3.4693  0.5029
  422MOL0     H56953   1.711  10.072  -0.222 -0.6078 -0.1661 -0.0125
  422MOL0     H56954   1.387  10.329  -0.021  0.0737  1.3747 -0.9189
  422MOL0     H56955   1.190  10.466   0.028 -0.7930  0.2859  0.2779
  422MOL0     H56956   0.506   9.916   0.578 -0.7168 -1.8031 -2.3582
  422MOL0     H56957   0.679   9.771   0.632 -0.8089  1.2969  2.9897
  422MOL0     H56958   0.996   9.460   0.690 -2.1969  0.7077 -4.8074
  422MOL0     H56959   1.199   9.359   0.742 -0.9591 -0.7866  0.2876
  422MOL0     H56960   1.569   9.523   0.580  0.5438 -0.5509  0.5563
  422MOL0     H56961   1.577   9.624   0.736  1.9007  0.4231  0.0506
  422MOL0     H56962   1.738   9.469   0.835  0.1354 -0.4445 -0.2357
  422MOL0     H56963   1.779   9.472   0.671 -2.0010  1.7431 -2.2346
  422MOL0     H56964   1.635   9.257   0.635  0.6832  2.4364 -1.1151
  422MOL0     H56965   1.597   9.267   0.804 -0.9499  0.1173 -0.4979
  422MOL0     H56966   1.744   9.099   0.771  2.6904 -1.1653  1.5370
  422MOL0     H56967   1.815   9.214   0.883 -2.8369  1.6826  0.6918
  422MOL0     H56968   2.070   9.177   0.554  1.0189  0.5557  0.8308
  422MOL0     H56969   1.424   9.712   0.612 -0.9922  0.9532 -4.5543
  422MOL0     H56970   1.200   9.818   0.562 -1.1386 -1.1787 -1.6462
  423MOL0     O56971   2.106  10.066   2.841 -0.0017 -0.3971  0.3653
  423MOL0     C56972   2.087  10.091   2.719 -0.4721  0.3267  0.2930
  423MOL0     O56973   1.982  10.156   2.663 -0.2184 -0.0751 -0.5636
  423MOL0     C56974   1.898  10.218   2.755  0.5622 -0.3958 -0.3224
  423MOL0     C56975   1.924  10.351   2.791  1.4717 -0.0222 -0.9943
  423MOL0     C56976   1.829  10.409   2.880 -1.0964 -0.3048 -0.7531
  423MOL0     C56977   1.718  10.347   2.937 -0.7127 -1.4204 -0.9180
  423MOL0     O56978   1.644  10.433   3.019 -0.4011 -0.1909  0.2770
  423MOL0     C56979   1.529  10.381   3.081  0.4215  0.7748  0.1973
  423MOL0     C56980   1.403  10.380   2.995  0.2289 -0.1818 -1.0226
  423MOL0     C56981   1.374  10.510   2.911  0.9390  0.3802 -0.9478
  423MOL0     C56982   1.321  10.475   2.772 -0.1920 -0.5134 -1.1161
  423MOL0     C56983   1.266  10.591   2.692  0.7312  0.7391  0.2581
  423MOL0     C56984   1.122  10.630   2.732  0.7439  0.1665  0.3431
  423MOL0     C56985   1.056  10.740   2.639 -0.0819  0.3855  0.0646
  423MOL0     C56986   0.919  10.783   2.692  0.2653 -0.0080  0.1668
  423MOL0     N56987   0.820  10.676   2.680  0.2706 -0.8782  0.7268
  423MOL0     C56988   0.759  10.637   2.566  0.0318  0.7259  0.1126
  423MOL0     C56989   0.664  10.548   2.608  0.3356  0.1396  0.3372
  423MOL0     C56990   0.565  10.465   2.531 -0.9359 -0.0641  0.2515
  423MOL0     C56991   0.552  10.513   2.391  0.2367 -0.5964  0.4247
  423MOL0     C56992   0.473  10.415   2.307 -0.0223 -0.1014  0.7689
  423MOL0     C56993   0.327  10.419   2.331  0.1841 -0.5613 -0.2496
  423MOL0     O56994   0.290  10.363   2.450  0.5950 -0.0998 -0.3772
  423MOL0     C56995   0.156  10.360   2.483 -0.0722 -0.2064 -0.1270
  423MOL0     C56996   0.055  10.415   2.405  0.4823 -0.5686  0.1722
  423MOL0     C56997  -0.080  10.406   2.443 -0.8928  0.0862  0.7034
  423MOL0     C56998  -0.183  10.462   2.349  0.2692 -0.5411  0.6328
  423MOL0     C56999  -0.123  10.343   2.559  0.2148  0.4399 -0.5650
  423MOL0     C57000  -0.267  10.323   2.601 -0.1105  0.2592  0.5977
  423MOL0     O57001  -0.348  10.269   2.506 -0.2487  0.1139  0.0649
  423MOL0     C57002  -0.484  10.285   2.517  0.1021 -1.0503  0.8642
  423MOL0     C57003  -0.564  10.176   2.482 -0.4213 -0.3129  0.6657
  423MOL0     C57004  -0.708  10.182   2.487 -0.2325  0.1950  0.8947
  423MOL0     C57005  -0.766  10.302   2.527 -0.2269  0.9824 -0.1539
  423MOL0     O57006  -0.904  10.329   2.542 -0.9852  0.0452 -0.5371
  423MOL0     C57007  -1.001  10.260   2.461  0.6725 -0.1410 -0.7800
  423MOL0     C57008  -1.136  10.311   2.493 -0.3749  0.6114  0.4456
  423MOL0     C57009  -1.239  10.241   2.396 -0.2613 -0.0679  0.4818
  423MOL0     C57010  -1.361  10.329   2.390 -0.4230  0.1120  0.0208
  423MOL0     C57011  -1.466  10.288   2.292 -0.3514  0.1694  0.5924
  423MOL0     C57012  -1.587  10.376   2.327  0.4816 -0.2894 -0.1611
  423MOL0     C57013  -1.688  10.385   2.213 -0.0150 -0.2075  0.9512
  423MOL0     C57014  -1.807  10.473   2.271  0.8447 -0.3792 -0.5091
  423MOL0    Cl57015  -1.924  10.383   2.377  0.5051 -0.3507  0.0121
  423MOL0     C57016  -0.693  10.409   2.574  0.3744 -0.2329  0.4130
  423MOL0     C57017  -0.546  10.401   2.568  0.6609 -0.2241 -0.0940
  423MOL0     O57018  -0.303  10.351   2.719  0.9027 -0.0445 -0.0660
  423MOL0     C57019  -0.022  10.290   2.639  0.4047 -0.1216  0.0828
  423MOL0     C57020   0.115  10.300   2.604 -0.8335 -1.0394  0.1295
  423MOL0     N57021   0.674  10.537   2.742 -0.2420  0.2273  0.5710
  423MOL0     N57022   0.765  10.612   2.786  0.9733 -0.5908  0.0194
  423MOL0     C57023   1.699  10.212   2.902  0.1944 -0.9977  0.4348
  423MOL0     C57024   1.788  10.148   2.808  0.4077  0.5257  0.1485
  423MOL0     C57025   2.185  10.035   2.624  0.9216  0.6082 -0.1991
  423MOL0     C57026   2.179  10.065   2.490  0.2087  0.7555  1.3109
  423MOL0     C57027   2.274  10.011   2.407 -0.6676 -1.0257  0.1729
  423MOL0     C57028   2.389   9.942   2.456  0.7764  0.7161 -0.6412
  423MOL0     O57029   2.473   9.892   2.365 -0.0703  0.3931  0.3710
  423MOL0     C57030   2.560   9.977   2.285 -0.0540  0.6226  0.5529
  423MOL0     C57031   2.614   9.905   2.162 -0.2769 -0.3838 -0.4293
  423MOL0     C57032   2.682  10.019   2.075 -0.2917 -0.3540 -0.2513
  423MOL0     C57033   2.765   9.966   1.954  0.5689  0.7597  0.2165
  423MOL0     C57034   2.890  10.048   1.948  0.4191  1.0590 -0.2417
  423MOL0     C57035   2.982  10.122   1.934 -0.9261  0.5009 -0.1226
  423MOL0     C57036   2.393   9.906   2.591  0.1505 -0.2577 -0.0026
  423MOL0     C57037   2.285   9.942   2.676 -0.0100  0.1820  0.6688
  423MOL0     H57038   2.001  10.405   2.739  1.5593  0.5369 -0.3031
  423MOL0     H57039   1.856  10.508   2.918  1.5406 -2.4667  4.0241
  423MOL0     H57040   1.543  10.277   3.111 -3.3290 -0.2829 -1.1623
  423MOL0     H57041   1.522  10.446   3.169  2.6225  0.4112  0.6971
  423MOL0     H57042   1.402  10.290   2.933 -1.6232 -0.1158 -1.1572
  423MOL0     H57043   1.328  10.370   3.074  0.7721  0.7210 -0.3830
  423MOL0     H57044   1.301  10.566   2.970  1.6276  0.2497  0.0538
  423MOL0     H57045   1.462  10.573   2.895  0.3775  1.3661 -0.2290
  423MOL0     H57046   1.402  10.426   2.717  0.3965  0.3378 -1.0255
  423MOL0     H57047   1.242  10.400   2.783 -0.5714  0.0175 -0.0618
  423MOL0     H57048   1.332  10.678   2.699  2.1070 -0.1848 -0.6223
  423MOL0     H57049   1.257  10.559   2.588  0.3568 -1.0125  0.7807
  423MOL0     H57050   1.056  10.543   2.741 -0.8850  1.3409  0.1454
  423MOL0     H57051   1.130  10.684   2.827 -0.2503  0.4161  0.2969
  423MOL0     H57052   1.124  10.825   2.629  0.6825  0.1021  2.2127
  423MOL0     H57053   1.042  10.708   2.536 -1.4481 -1.1090  0.6727
  423MOL0     H57054   0.894  10.875   2.639 -0.3382 -0.3131 -0.0750
  423MOL0     H57055   0.921  10.816   2.796 -0.6171 -0.1812  0.2410
  423MOL0     H57056   0.783  10.666   2.464  1.0331 -1.1723 -0.2297
  423MOL0     H57057   0.600  10.361   2.538 -0.6226  0.1679  3.2133
  423MOL0     H57058   0.466  10.468   2.576 -2.6263 -1.2188 -3.0675
  423MOL0     H57059   0.648  10.538   2.343 -0.1167  0.9282  0.4555
  423MOL0     H57060   0.496  10.607   2.395 -0.5241 -1.0782  1.7263
  423MOL0     H57061   0.516  10.315   2.316 -0.0426 -0.4686 -2.2790
  423MOL0     H57062   0.481  10.442   2.202 -0.5797  2.9379  1.4180
  423MOL0     H57063   0.276  10.360   2.254  1.9901  0.7242 -2.5750
  423MOL0     H57064   0.318  10.526   2.312  1.1746 -0.0782  1.8316
  423MOL0     H57065   0.080  10.456   2.307 -2.4633  1.1795  0.0282
  423MOL0     H57066  -0.217  10.384   2.280  0.2036 -1.6135  1.8286
  423MOL0     H57067  -0.270  10.502   2.402  0.0136  0.7052 -0.6585
  423MOL0     H57068  -0.143  10.548   2.295 -2.0322 -0.9170 -1.8602
  423MOL0     H57069  -0.513  10.081   2.472  0.1395 -0.2193  2.3948
  423MOL0     H57070  -0.769  10.098   2.454 -1.0440  0.4874  1.6211
  423MOL0     H57071  -0.980  10.270   2.355 -0.5732  0.7254 -0.9689
  423MOL0     H57072  -0.993  10.154   2.484 -1.6012 -0.9854 -3.3457
  423MOL0     H57073  -1.164  10.290   2.596 -4.5572  1.4360 -0.3467
  423MOL0     H57074  -1.138  10.420   2.480  2.2732  0.6532 -0.3437
  423MOL0     H57075  -1.267  10.144   2.437  0.2846 -0.5156 -0.1847
  423MOL0     H57076  -1.197  10.224   2.296 -3.0867 -1.5999 -0.5563
  423MOL0     H57077  -1.404  10.327   2.490 -2.6450  0.7881 -0.8509
  423MOL0     H57078  -1.329  10.428   2.357 -0.8470 -0.5480 -2.6896
  423MOL0     H57079  -1.488  10.182   2.305  0.9268 -0.0004  1.6011
  423MOL0     H57080  -1.425  10.307   2.192 -0.3596 -2.0123  0.1205
  423MOL0     H57081  -1.630  10.339   2.420  0.8033  1.9005  0.9358
  423MOL0     H57082  -1.555  10.478   2.351  1.4559 -0.6154 -0.0104
  423MOL0     H57083  -1.726  10.284   2.195  0.7987 -0.2132 -1.0466
  423MOL0     H57084  -1.653  10.434   2.121  0.8741 -0.8809  0.9137
  423MOL0     H57085  -1.868  10.502   2.185  0.1404 -0.8172 -0.1657
  423MOL0     H57086  -1.764  10.557   2.327 -0.7137  1.3219 -1.7178
  423MOL0     H57087  -0.745  10.498   2.606  1.2258  0.5638 -0.3545
  423MOL0     H57088  -0.486  10.481   2.612  0.2825 -0.2501  0.4799
  423MOL0     H57089  -0.054  10.221   2.716  0.0434 -0.7537 -0.6230
  423MOL0     H57090   0.189  10.265   2.674 -0.1515  0.8680  0.4281
  423MOL0     H57091   1.626  10.155   2.959 -1.7499  1.9866  1.1587
  423MOL0     H57092   1.771  10.047   2.772 -2.0203  2.1140 -3.8960
  423MOL0     H57093   2.114  10.142   2.448  0.2192 -1.3053 -3.1322
  423MOL0     H57094   2.273  10.057   2.309  2.5757 -1.2322 -0.0684
  423MOL0     H57095   2.502  10.066   2.260  0.5132  1.2930  1.5726
  423MOL0     H57096   2.643  10.024   2.337 -0.3994  1.9481 -0.0534
  423MOL0     H57097   2.534   9.859   2.102 -0.6088 -1.3044  0.6874
  423MOL0     H57098   2.684   9.834   2.205 -1.5477 -0.3456  1.8488
  423MOL0     H57099   2.755  10.075   2.135  1.9269 -2.3778 -0.9249
  423MOL0     H57100   2.609  10.094   2.041 -0.5037 -1.8138 -3.3177
  423MOL0     H57101   2.717   9.985   1.858  0.3476  0.3981  0.2546
  423MOL0     H57102   2.787   9.859   1.961  1.1531  0.5739 -3.0738
  423MOL0     H57103   3.061  10.186   1.901  1.9661 -3.3749 -1.4652
  423MOL0     H57104   2.477   9.846   2.622  0.7779 -0.1889 -1.4953
  423MOL0     H57105   2.293   9.898   2.775 -1.6085  0.6804  1.0520
  424MOL0     O57106   2.643   1.746   7.979 -0.0380  0.1477 -0.3821
  424MOL0     C57107   2.713   1.743   7.877 -0.8119 -0.1637 -0.1523
  424MOL0     O57108   2.679   1.785   7.748 -0.6744 -0.1039  0.1043
  424MOL0     C57109   2.552   1.834   7.718  0.4663 -0.4293  0.3495
  424MOL0     C57110   2.483   1.790   7.604  0.5031 -0.2731  0.0101
  424MOL0     C57111   2.352   1.841   7.571 -0.6717 -0.5860  0.3029
  424MOL0     C57112   2.291   1.941   7.646 -1.2230  0.4805  0.2038
  424MOL0     O57113   2.177   2.005   7.620 -0.5923 -0.1434  0.7031
  424MOL0     C57114   2.150   2.049   7.484  0.8977  0.3370 -0.4671
  424MOL0     C57115   2.018   2.141   7.479  1.0990  0.2901  0.4980
  424MOL0     C57116   1.893   2.076   7.405  0.0508  0.2109  0.0916
  424MOL0     C57117   1.912   2.071   7.253 -0.1875  0.1051  0.1530
  424MOL0     C57118   1.823   1.981   7.180 -0.3758 -0.4218  0.0326
  424MOL0     C57119   1.854   1.831   7.210  0.1044  0.8988 -0.1201
  424MOL0     C57120   1.792   1.735   7.113 -0.2835 -0.6547  0.9576
  424MOL0     C57121   1.641   1.740   7.102  0.1458  0.8127 -0.3263
  424MOL0     N57122   1.578   1.671   6.991 -0.3391 -0.9892 -0.3318
  424MOL0     C57123   1.460   1.594   6.996  0.0910  0.6638  0.6532
  424MOL0     C57124   1.456   1.539   6.864 -0.4521 -1.0356  0.0738
  424MOL0     C57125   1.355   1.448   6.803  0.5390 -0.7609 -0.5292
  424MOL0     C57126   1.244   1.557   6.763  0.3033  0.6035 -0.2190
  424MOL0     C57127   1.118   1.475   6.727 -1.0887 -0.1113  0.4585
  424MOL0     C57128   1.009   1.573   6.680 -0.4975 -0.7383  0.5151
  424MOL0     O57129   0.893   1.503   6.646  0.1035 -0.1882  0.8818
  424MOL0     C57130   0.796   1.576   6.578  0.4144 -0.7557 -1.0786
  424MOL0     C57131   0.715   1.523   6.477  0.1686  0.1503  0.3197
  424MOL0     C57132   0.614   1.585   6.409 -0.5772 -0.4618 -0.0009
  424MOL0     C57133   0.537   1.501   6.308 -0.3812  0.1588 -0.7699
  424MOL0     C57134   0.577   1.721   6.456  0.3257 -0.0980  0.5061
  424MOL0     C57135   0.458   1.803   6.400 -0.0212  0.2341  1.2112
  424MOL0     O57136   0.377   1.750   6.304  0.1413 -0.2225  0.5208
  424MOL0     C57137   0.264   1.823   6.264  0.1951 -0.0966 -0.5292
  424MOL0     C57138   0.159   1.854   6.355 -0.2070  0.1588  0.1355
  424MOL0     C57139   0.061   1.945   6.308  0.1632  0.0713 -0.8878
  424MOL0     C57140   0.060   1.998   6.177  0.1611  0.1952 -0.5262
  424MOL0     O57141  -0.035   2.091   6.134 -0.1937  0.6678 -0.0119
  424MOL0     C57142  -0.117   2.161   6.224  0.3395  0.5217  0.4993
  424MOL0     C57143  -0.189   2.269   6.153 -0.4759 -0.6604  0.3748
  424MOL0     C57144  -0.322   2.219   6.104 -0.6604  0.5618 -0.9919
  424MOL0     C57145  -0.425   2.219   6.222 -0.4841 -0.3741 -0.0754
  424MOL0     C57146  -0.563   2.158   6.187 -0.3464  0.5703  0.0470
  424MOL0     C57147  -0.630   2.214   6.058  0.1432 -0.4660 -0.2280
  424MOL0     C57148  -0.670   2.356   6.090 -0.0258  0.3791 -0.7062
  424MOL0     C57149  -0.782   2.406   6.002  0.9832  0.0235  0.4229
  424MOL0    Cl57150  -0.931   2.338   6.066  0.1432 -0.0935 -0.1818
  424MOL0     C57151   0.165   1.946   6.091 -0.7179 -0.2695 -0.8793
  424MOL0     C57152   0.264   1.860   6.132 -0.9493 -1.1721  0.6730
  424MOL0     O57153   0.429   1.900   6.462  0.1987  0.3270 -0.7350
  424MOL0     C57154   0.662   1.778   6.550  0.3804 -0.1106 -0.8743
  424MOL0     C57155   0.765   1.705   6.610  0.6499 -0.6292 -0.9029
  424MOL0     N57156   1.578   1.579   6.810 -0.0776  0.5998 -0.3762
  424MOL0     N57157   1.646   1.663   6.873  0.3282  0.4947  0.5482
  424MOL0     C57158   2.368   1.990   7.752 -0.6503 -0.9770  0.2804
  424MOL0     C57159   2.495   1.943   7.790 -0.6345  0.6769  0.0900
  424MOL0     C57160   2.856   1.708   7.915  0.2948  0.8015 -0.7443
  424MOL0     C57161   2.957   1.719   7.817 -0.2313 -1.0903  0.5200
  424MOL0     C57162   3.086   1.673   7.843  0.1771  0.1611  0.2250
  424MOL0     C57163   3.116   1.612   7.965  0.3467  0.0492 -0.2235
  424MOL0     O57164   3.221   1.536   7.993  0.4485 -0.6872  0.3094
  424MOL0     C57165   3.331   1.534   7.901 -0.2830 -0.0712  0.6811
  424MOL0     C57166   3.433   1.437   7.944  0.4260 -0.3305 -0.0797
  424MOL0     C57167   3.526   1.499   8.047  0.1686 -0.1292 -1.2513
  424MOL0     C57168   3.654   1.417   8.058 -1.2415  0.3822 -0.1147
  424MOL0     C57169   3.738   1.450   8.178  1.0972 -0.4733 -0.5366
  424MOL0     C57170   3.813   1.484   8.266  0.0244  0.4314 -0.2303
  424MOL0     C57171   3.023   1.609   8.065 -0.5995  0.2668 -0.0371
  424MOL0     C57172   2.894   1.662   8.042  0.4556  0.6009 -0.2515
  424MOL0     H57173   2.529   1.726   7.531 -0.2027 -0.7723 -0.0062
  424MOL0     H57174   2.303   1.810   7.480 -2.6103 -2.0865  1.7634
  424MOL0     H57175   2.235   2.114   7.463 -1.5328  3.8933 -0.0803
  424MOL0     H57176   2.155   1.974   7.405  0.8965  2.0522 -2.1595
  424MOL0     H57177   1.983   2.154   7.582 -2.9967 -0.2711 -0.6512
  424MOL0     H57178   2.036   2.235   7.426 -0.7554  0.7485  0.6276
  424MOL0     H57179   1.885   1.972   7.437 -3.4704  0.3880  0.1641
  424MOL0     H57180   1.796   2.122   7.427  0.2417  1.1202 -0.8891
  424MOL0     H57181   1.883   2.172   7.224  1.2635  0.3194 -0.6480
  424MOL0     H57182   2.017   2.059   7.225 -0.3589 -0.5075 -0.2214
  424MOL0     H57183   1.722   2.011   7.206  0.4853  0.4388  2.6266
  424MOL0     H57184   1.843   1.998   7.073  3.4532 -1.1869  0.4697
  424MOL0     H57185   1.962   1.819   7.220  0.5359  4.6131  1.4162
  424MOL0     H57186   1.814   1.801   7.307 -0.2186 -0.4672 -0.6553
  424MOL0     H57187   1.836   1.746   7.013 -3.7233  0.5246 -0.5992
  424MOL0     H57188   1.817   1.635   7.150  0.6862 -1.0228 -0.5772
  424MOL0     H57189   1.609   1.844   7.094  2.2235  1.4092 -1.3965
  424MOL0     H57190   1.590   1.707   7.194 -0.7528  1.0461 -0.7265
  424MOL0     H57191   1.391   1.586   7.080  1.1392 -3.7618  1.3528
  424MOL0     H57192   1.396   1.411   6.709 -0.4553  0.2006 -1.3720
  424MOL0     H57193   1.315   1.382   6.881 -0.9821 -0.8850 -1.3742
  424MOL0     H57194   1.266   1.628   6.683 -2.7203  0.5356 -1.2432
  424MOL0     H57195   1.222   1.619   6.851  2.5254  2.7840 -1.0785
  424MOL0     H57196   1.075   1.418   6.809 -1.9744  0.9967  0.8028
  424MOL0     H57197   1.138   1.415   6.638 -0.4140 -0.0574  0.5732
  424MOL0     H57198   1.050   1.614   6.588  0.0537 -3.9194 -0.7816
  424MOL0     H57199   0.992   1.649   6.758 -1.1072 -1.0804  0.7218
  424MOL0     H57200   0.743   1.422   6.451  0.2303  0.6517 -1.7274
  424MOL0     H57201   0.527   1.541   6.207 -0.6679 -0.4551 -0.9867
  424MOL0     H57202   0.574   1.398   6.307 -0.4998 -0.1221  3.6526
  424MOL0     H57203   0.439   1.489   6.356 -0.0943  0.3028 -0.1355
  424MOL0     H57204   0.175   1.806   6.451  1.4014 -2.8233 -1.4564
  424MOL0     H57205  -0.011   1.970   6.386  0.0435  0.1260 -1.0141
  424MOL0     H57206  -0.181   2.090   6.279 -0.6915 -1.5608 -3.0504
  424MOL0     H57207  -0.057   2.210   6.301  2.8006 -1.1990 -0.2297
  424MOL0     H57208  -0.217   2.349   6.222 -1.5859 -1.7655  1.2561
  424MOL0     H57209  -0.140   2.321   6.071 -3.8519 -0.4577 -1.6789
  424MOL0     H57210  -0.320   2.122   6.053  0.0062 -1.9534  3.3498
  424MOL0     H57211  -0.359   2.289   6.029 -0.3292  0.0494 -1.6452
  424MOL0     H57212  -0.386   2.169   6.311 -2.6762  0.9738  1.7370
  424MOL0     H57213  -0.439   2.323   6.254 -2.1361  0.5106 -3.2512
  424MOL0     H57214  -0.640   2.157   6.265 -0.1310  0.9798  0.2655
  424MOL0     H57215  -0.546   2.053   6.165  1.6395  0.1141  3.1778
  424MOL0     H57216  -0.556   2.208   5.977  0.5619 -1.0223  0.1904
  424MOL0     H57217  -0.720   2.161   6.025 -1.0526  1.8350 -0.9330
  424MOL0     H57218  -0.574   2.408   6.077 -0.2764  1.5988  1.6073
  424MOL0     H57219  -0.710   2.375   6.190 -1.9868 -0.5069 -1.2856
  424MOL0     H57220  -0.766   2.375   5.899  0.2646 -0.4979  0.4537
  424MOL0     H57221  -0.804   2.513   6.005 -0.8467 -0.2103 -1.6992
  424MOL0     H57222   0.173   1.986   5.990  2.1078 -1.8749 -1.4076
  424MOL0     H57223   0.339   1.828   6.061 -0.2110  0.5619  0.6165
  424MOL0     H57224   0.640   1.879   6.582 -1.2176 -0.5883 -0.3633
  424MOL0     H57225   0.814   1.761   6.689  0.7626 -0.4091 -1.1273
  424MOL0     H57226   2.322   2.073   7.804 -2.1317 -1.9007  0.5150
  424MOL0     H57227   2.544   1.994   7.872 -0.8939  3.3453 -1.2881
  424MOL0     H57228   2.932   1.758   7.719 -0.3572 -0.0907  0.9466
  424MOL0     H57229   3.153   1.676   7.757 -0.0895 -1.9451 -0.1053
  424MOL0     H57230   3.297   1.507   7.800  1.8142  1.8266 -0.6401
  424MOL0     H57231   3.383   1.630   7.891  0.3650 -0.4708  0.1409
  424MOL0     H57232   3.500   1.420   7.859  0.5464  0.0723 -0.0673
  424MOL0     H57233   3.383   1.345   7.974 -1.2340  0.8784  1.0251
  424MOL0     H57234   3.477   1.496   8.145  0.7944 -0.7759 -0.9495
  424MOL0     H57235   3.551   1.604   8.027  0.4365  0.0711  0.0123
  424MOL0     H57236   3.713   1.405   7.967 -2.0758 -4.6096 -0.2668
  424MOL0     H57237   3.634   1.312   8.078  1.4427 -0.0331  0.8471
  424MOL0     H57238   3.872   1.493   8.355 -2.7238 -1.5578  1.9664
  424MOL0     H57239   3.042   1.557   8.158  0.0542 -1.5868 -1.1580
  424MOL0     H57240   2.824   1.646   8.124 -1.4604  5.8648 -0.4549
  425MOL0     O57241   8.516   9.280   6.931 -0.7074  0.1820 -0.4782
  425MOL0     C57242   8.486   9.339   6.833  0.6502 -0.7382  0.1848
  425MOL0     O57243   8.363   9.350   6.777 -0.5714  0.3663 -0.7092
  425MOL0     C57244   8.270   9.258   6.810 -0.0758 -0.6241 -0.2390
  425MOL0     C57245   8.295   9.121   6.790 -0.3057  0.6001 -0.7398
  425MOL0     C57246   8.194   9.023   6.826 -0.1156 -0.2306 -0.4053
  425MOL0     C57247   8.071   9.060   6.872  0.7581 -0.2945 -0.2392
  425MOL0     O57248   7.982   8.960   6.908 -0.3837  0.7384  0.3774
  425MOL0     C57249   7.928   8.966   7.041 -0.2477  0.1253  0.3779
  425MOL0     C57250   7.788   9.027   7.056 -0.0569  0.0747  0.4166
  425MOL0     C57251   7.684   8.973   6.958 -0.3216 -0.6252 -0.1534
  425MOL0     C57252   7.544   8.964   7.032  0.6943 -0.8113  0.0845
  425MOL0     C57253   7.445   8.885   6.935  0.8018  0.2618 -0.4296
  425MOL0     C57254   7.306   8.891   7.007  0.1334  0.7558  0.6651
  425MOL0     C57255   7.191   8.823   6.921 -1.2686 -0.3274  0.6964
  425MOL0     C57256   7.175   8.880   6.783 -0.3004 -0.5751 -0.3170
  425MOL0     N57257   7.062   8.825   6.714 -0.7019  0.1049 -0.7461
  425MOL0     C57258   7.065   8.704   6.658  0.4631  0.3474  0.2591
  425MOL0     C57259   6.948   8.689   6.588 -0.2891 -0.0800 -0.0385
  425MOL0     C57260   6.924   8.561   6.518  0.0874 -0.2659 -0.7867
  425MOL0     C57261   6.823   8.564   6.404 -0.0803 -0.1693  0.1880
  425MOL0     C57262   6.763   8.428   6.364 -0.6913  0.0121 -0.0899
  425MOL0     C57263   6.865   8.319   6.334 -0.2289 -0.1661 -0.3834
  425MOL0     O57264   6.823   8.224   6.233  0.3426  0.1048 -0.2512
  425MOL0     C57265   6.910   8.126   6.191  0.6191  0.0448  0.1628
  425MOL0     C57266   6.869   8.048   6.091 -0.4876  0.0154  0.6720
  425MOL0     C57267   6.953   7.954   6.026 -0.2193 -0.2614 -0.2291
  425MOL0     C57268   6.891   7.903   5.899  0.0641  0.0093  0.5862
  425MOL0     C57269   7.084   7.933   6.073  0.0514 -0.2925 -0.9896
  425MOL0     C57270   7.183   7.841   6.009  0.3931 -0.3435 -1.1632
  425MOL0     O57271   7.316   7.854   6.029  0.1739  0.3988  0.4975
  425MOL0     C57272   7.396   7.739   6.036  0.0385  0.4422  0.3364
  425MOL0     C57273   7.343   7.615   6.107 -0.2864 -0.0781  0.1185
  425MOL0     C57274   7.429   7.512   6.126 -1.1981  0.0477 -0.1746
  425MOL0     C57275   7.549   7.508   6.060  0.5523  0.0266 -0.2579
  425MOL0     O57276   7.650   7.410   6.075  0.0236  0.1589 -0.0182
  425MOL0     C57277   7.611   7.283   6.134  0.4784 -0.7916 -0.1503
  425MOL0     C57278   7.724   7.174   6.108 -0.3109 -0.7109  0.4028
  425MOL0     C57279   7.831   7.185   6.207  0.3678  0.1436 -0.0196
  425MOL0     C57280   7.934   7.070   6.187  0.0886 -0.4447 -0.6256
  425MOL0     C57281   8.042   7.046   6.297  0.1499 -0.0183  0.8922
  425MOL0     C57282   7.997   6.927   6.386 -0.5995 -0.4023 -0.6310
  425MOL0     C57283   8.074   6.795   6.364 -0.2506  0.4701  0.2185
  425MOL0     C57284   8.054   6.718   6.487  0.8793  0.3665  0.1904
  425MOL0    Cl57285   7.877   6.679   6.485  0.1695 -0.0999 -0.0800
  425MOL0     C57286   7.591   7.622   5.995 -0.0980 -0.2806  0.3099
  425MOL0     C57287   7.519   7.735   5.980  0.6100  0.0793 -0.1892
  425MOL0     O57288   7.132   7.753   5.942  0.1128 -0.1671 -0.3561
  425MOL0     C57289   7.125   8.016   6.178 -0.7349  0.4161 -0.2340
  425MOL0     C57290   7.041   8.108   6.245  0.0846  0.2831  1.2108
  425MOL0     N57291   6.872   8.801   6.618  0.2175  0.3431 -0.3498
  425MOL0     N57292   6.946   8.885   6.686  0.1235  0.1131 -0.0985
  425MOL0     C57293   8.047   9.203   6.876  0.2688  0.2832 -0.2490
  425MOL0     C57294   8.143   9.296   6.840 -0.1442  0.5613 -0.3943
  425MOL0     C57295   8.584   9.443   6.780 -0.2482 -1.4645  0.2728
  425MOL0     C57296   8.553   9.537   6.678 -0.5346 -0.4174 -0.1841
  425MOL0     C57297   8.640   9.627   6.626  0.2686  0.0522  0.9235
  425MOL0     C57298   8.764   9.638   6.679  0.0787 -0.1068  1.0065
  425MOL0     O57299   8.854   9.727   6.629 -0.4718  0.0300  0.2889
  425MOL0     C57300   8.880   9.729   6.489 -0.2992  0.4502 -0.8962
  425MOL0     C57301   9.036   9.724   6.471 -0.3506  0.5930  0.0803
  425MOL0     C57302   9.094   9.681   6.339 -0.3832  0.1190  0.1134
  425MOL0     C57303   9.248   9.670   6.363  0.2895 -0.0205 -0.1199
  425MOL0     C57304   9.319   9.725   6.254 -0.1801 -0.0566 -0.2945
  425MOL0     C57305   9.391   9.772   6.159  0.9544 -0.3695 -0.5366
  425MOL0     C57306   8.808   9.537   6.772  0.2476 -0.1620 -0.2060
  425MOL0     C57307   8.718   9.450   6.824 -1.0019 -0.1987 -0.0749
  425MOL0     H57308   8.394   9.086   6.761 -0.4387 -2.8511  2.2386
  425MOL0     H57309   8.212   8.916   6.823  1.4022 -0.0364 -4.7920
  425MOL0     H57310   7.917   8.864   7.078 -0.0091 -0.2161 -0.4528
  425MOL0     H57311   7.996   9.027   7.101  0.4184  1.5634 -1.7135
  425MOL0     H57312   7.752   9.014   7.158 -0.0281 -0.6925  0.3371
  425MOL0     H57313   7.794   9.135   7.044 -1.0051  0.6235  3.8884
  425MOL0     H57314   7.679   9.032   6.866  1.7426  1.6427  1.0789
  425MOL0     H57315   7.716   8.876   6.918 -0.3849 -0.3588 -0.8755
  425MOL0     H57316   7.542   8.921   7.133 -2.9926  1.0250  0.9972
  425MOL0     H57317   7.501   9.064   7.046 -0.9892 -1.1613 -1.9298
  425MOL0     H57318   7.446   8.936   6.838  0.1229  2.4701  0.6599
  425MOL0     H57319   7.479   8.782   6.922 -1.5871 -0.6367 -0.0180
  425MOL0     H57320   7.323   8.830   7.096 -0.9021 -0.0878  0.2986
  425MOL0     H57321   7.282   8.994   7.036  2.5058  1.8066 -0.7183
  425MOL0     H57322   7.232   8.723   6.907  1.6130  0.3644  3.1151
  425MOL0     H57323   7.097   8.831   6.977  0.4959  0.5949  3.7509
  425MOL0     H57324   7.261   8.866   6.717 -1.3776 -1.0119 -1.6552
  425MOL0     H57325   7.155   8.987   6.799  2.2680 -0.3717  2.4952
  425MOL0     H57326   7.154   8.642   6.660  0.5081  0.4021 -0.0263
  425MOL0     H57327   7.022   8.521   6.491  1.1963  0.7228  1.4955
  425MOL0     H57328   6.875   8.499   6.594 -0.5335 -1.0925 -1.8306
  425MOL0     H57329   6.875   8.601   6.315 -1.0354 -0.4767 -0.5131
  425MOL0     H57330   6.741   8.628   6.438 -0.6317 -1.4216  1.3271
  425MOL0     H57331   6.713   8.451   6.270 -0.8427  0.6148  0.1295
  425MOL0     H57332   6.693   8.388   6.439  1.4982 -0.4358  1.8491
  425MOL0     H57333   6.907   8.266   6.420  2.5082  1.0225 -0.8807
  425MOL0     H57334   6.953   8.376   6.304 -0.0105  1.3258  2.6605
  425MOL0     H57335   6.768   8.066   6.055 -0.3342  1.7890  1.0406
  425MOL0     H57336   6.962   7.911   5.816 -2.0652  3.7093 -1.1784
  425MOL0     H57337   6.856   7.801   5.912  1.0612 -0.5241 -0.7135
  425MOL0     H57338   6.806   7.962   5.863 -1.9666 -1.8608  2.1012
  425MOL0     H57339   7.245   7.625   6.153 -0.1601  1.6816  0.0860
  425MOL0     H57340   7.405   7.422   6.182  1.2435  1.0531  2.8057
  425MOL0     H57341   7.580   7.286   6.239  0.9023  0.4152 -0.0490
  425MOL0     H57342   7.522   7.245   6.083  1.3432 -0.7292 -1.7672
  425MOL0     H57343   7.676   7.077   6.124 -0.2487 -1.0690 -1.3759
  425MOL0     H57344   7.760   7.176   6.005 -2.6911  2.0053 -0.5331
  425MOL0     H57345   7.778   7.172   6.302 -1.0684 -0.9179 -0.9239
  425MOL0     H57346   7.877   7.284   6.199 -1.5540  1.0404 -0.5556
  425MOL0     H57347   7.886   6.973   6.168  1.4896 -1.3639  0.3276
  425MOL0     H57348   7.984   7.094   6.093  1.2669  1.4409  0.4189
  425MOL0     H57349   8.065   7.132   6.360  1.6834 -0.1882  0.5928
  425MOL0     H57350   8.134   7.025   6.242  0.0863  1.1647  0.2920
  425MOL0     H57351   8.032   6.955   6.486  2.0060 -1.5626 -1.1518
  425MOL0     H57352   7.889   6.917   6.402 -0.8030 -0.6138 -2.0079
  425MOL0     H57353   8.182   6.813   6.355  0.0047  0.1770  2.2386
  425MOL0     H57354   8.048   6.738   6.274  4.9232 -2.8195  0.4091
  425MOL0     H57355   8.092   6.751   6.584 -0.8442 -3.1111  2.2418
  425MOL0     H57356   8.098   6.619   6.472 -1.1242 -0.4828 -0.4588
  425MOL0     H57357   7.691   7.623   5.954 -0.8080  0.8680 -1.5457
  425MOL0     H57358   7.569   7.825   5.943  0.0783  0.7005  0.5714
  425MOL0     H57359   7.230   8.004   6.202 -0.4752  0.7112 -1.1948
  425MOL0     H57360   7.089   8.168   6.322 -0.3340  0.8258  1.0532
  425MOL0     H57361   7.948   9.247   6.890  1.3271  2.4231  1.0550
  425MOL0     H57362   8.114   9.401   6.838 -1.0976  0.3813  1.4743
  425MOL0     H57363   8.453   9.545   6.637 -1.9059 -1.4702  2.6644
  425MOL0     H57364   8.608   9.704   6.557 -2.9853  0.7862  3.0123
  425MOL0     H57365   8.853   9.632   6.447  1.4874  0.3914 -1.9989
  425MOL0     H57366   8.822   9.807   6.439 -1.1442  0.8419  0.6084
  425MOL0     H57367   9.072   9.658   6.550  0.9518  0.2923 -0.7357
  425MOL0     H57368   9.088   9.818   6.492  0.5823  0.9089 -3.1261
  425MOL0     H57369   9.077   9.744   6.251  0.2808 -1.7850 -1.4717
  425MOL0     H57370   9.055   9.584   6.304 -1.3986  0.7941 -0.6869
  425MOL0     H57371   9.277   9.567   6.386  1.8558  0.7889  1.8114
  425MOL0     H57372   9.280   9.725   6.452 -0.4729  0.3507 -0.0641
  425MOL0     H57373   9.432   9.811   6.068 -3.3206 -0.4295 -2.7588
  425MOL0     H57374   8.915   9.538   6.787  0.2670 -0.4778 -0.2956
  425MOL0     H57375   8.766   9.389   6.900 -0.2567  0.2352 -0.1913
  426MOL0     O57376   9.264   4.754   1.136 -0.0591  0.4279 -1.0001
  426MOL0     C57377   9.290   4.676   1.038  0.1361  0.3957  0.5650
  426MOL0     O57378   9.195   4.621   0.960  0.8232 -0.4239 -0.7481
  426MOL0     C57379   9.093   4.712   0.942  0.0285  0.4450  1.1472
  426MOL0     C57380   8.985   4.687   1.021 -0.9251 -0.5846 -0.7353
  426MOL0     C57381   8.873   4.772   0.999 -0.3760 -0.1053  0.9051
  426MOL0     C57382   8.878   4.876   0.909  0.5755  0.0256  0.1193
  426MOL0     O57383   8.764   4.946   0.890 -0.0052 -0.5236  0.0091
  426MOL0     C57384   8.780   5.081   0.846  0.9558 -0.7494  0.3113
  426MOL0     C57385   8.666   5.162   0.910  0.3691 -0.2870  0.2513
  426MOL0     C57386   8.526   5.114   0.854 -0.1689  0.0108 -0.3284
  426MOL0     C57387   8.469   5.206   0.743 -0.7525 -0.1955 -0.1171
  426MOL0     C57388   8.320   5.210   0.769 -0.0613 -0.3691 -0.0442
  426MOL0     C57389   8.238   5.297   0.667  0.0072 -0.8427 -0.5893
  426MOL0     C57390   8.078   5.295   0.674 -0.6043 -0.0841  0.4206
  426MOL0     C57391   8.022   5.162   0.610 -0.6073  0.8234 -0.9148
  426MOL0     N57392   7.875   5.158   0.630 -0.6354  0.9076  0.0579
  426MOL0     C57393   7.782   5.214   0.547  0.4115 -1.0237 -0.0452
  426MOL0     C57394   7.663   5.183   0.591  0.9511 -0.1783  0.5930
  426MOL0     C57395   7.516   5.212   0.544  0.1034  0.7337  0.3232
  426MOL0     C57396   7.492   5.235   0.394  0.0498 -0.4034  0.5009
  426MOL0     C57397   7.344   5.281   0.353  0.6417 -0.9039 -0.3305
  426MOL0     C57398   7.235   5.173   0.366  0.3084  0.3715 -0.0778
  426MOL0     O57399   7.108   5.208   0.315  1.1515 -0.4452  0.7672
  426MOL0     C57400   7.018   5.103   0.280 -0.5507 -0.6702  0.3875
  426MOL0     C57401   7.040   4.969   0.310  0.2741 -0.1342  0.0683
  426MOL0     C57402   6.957   4.872   0.254 -1.0138  0.3112 -0.5311
  426MOL0     C57403   6.983   4.730   0.298 -0.1046  0.0547 -0.5973
  426MOL0     C57404   6.849   4.909   0.165  0.1247 -0.1476  1.0064
  426MOL0     C57405   6.750   4.804   0.094  0.2325 -0.5913  0.9767
  426MOL0     O57406   6.645   4.857   0.019  0.2908 -0.5977 -0.4200
  426MOL0     C57407   6.548   4.787  -0.059 -0.8460 -0.0178  0.0073
  426MOL0     C57408   6.483   4.855  -0.154 -0.4347  0.7222 -0.6086
  426MOL0     C57409   6.384   4.786  -0.224  0.1568 -0.7862  0.9322
  426MOL0     C57410   6.338   4.660  -0.191 -0.0245  0.4015 -0.8073
  426MOL0     O57411   6.243   4.598  -0.259  0.1471 -0.3921 -0.1540
  426MOL0     C57412   6.142   4.665  -0.339  0.0764 -0.5275 -0.6896
  426MOL0     C57413   6.032   4.563  -0.384  0.0352 -0.6174 -0.7689
  426MOL0     C57414   5.984   4.488  -0.251 -0.0017 -0.4321 -0.1148
  426MOL0     C57415   5.849   4.420  -0.276 -0.0996 -0.3866  0.9727
  426MOL0     C57416   5.791   4.337  -0.161 -0.0305  0.3119 -0.2716
  426MOL0     C57417   5.763   4.428  -0.048 -1.1821 -0.1356 -0.1621
  426MOL0     C57418   5.701   4.346   0.066 -0.7653 -0.1757 -0.4204
  426MOL0     C57419   5.682   4.435   0.186 -0.1569 -0.7461 -0.4301
  426MOL0    Cl57420   5.822   4.498   0.284  0.2711  0.5467  0.1874
  426MOL0     C57421   6.402   4.589  -0.092 -0.6317 -0.4005  0.5333
  426MOL0     C57422   6.512   4.655  -0.031 -0.3342 -0.0643  0.3769
  426MOL0     O57423   6.777   4.687   0.094  0.1608 -0.1133 -0.2006
  426MOL0     C57424   6.832   5.047   0.137  0.5455 -0.2555  0.5865
  426MOL0     C57425   6.913   5.143   0.195  0.2402 -0.2723  0.2017
  426MOL0     N57426   7.689   5.097   0.699  0.3894 -1.1646 -0.0381
  426MOL0     N57427   7.813   5.095   0.729  0.2324 -0.2862 -0.3165
  426MOL0     C57428   8.991   4.896   0.834  0.8269 -0.4062  0.0014
  426MOL0     C57429   9.096   4.813   0.847 -0.3443  0.2406 -0.5180
  426MOL0     C57430   9.425   4.637   0.995 -0.4578  0.1418  0.4175
  426MOL0     C57431   9.444   4.533   0.899  0.6527  0.1084  0.1280
  426MOL0     C57432   9.579   4.482   0.890 -0.6229  0.0801 -0.2277
  426MOL0     C57433   9.695   4.544   0.940  0.0742 -0.7591  0.7074
  426MOL0     O57434   9.820   4.497   0.907 -0.8593  0.0517  0.0162
  426MOL0     C57435   9.941   4.575   0.951 -0.2997  0.4461  0.0301
  426MOL0     C57436  10.072   4.509   0.926 -0.6441 -0.4317  0.2470
  426MOL0     C57437  10.110   4.498   0.778 -0.3400  0.2728 -0.9942
  426MOL0     C57438  10.254   4.499   0.754  0.7885  0.8227  0.2698
  426MOL0     C57439  10.284   4.479   0.609 -0.1418  0.2924  0.5103
  426MOL0     C57440  10.282   4.474   0.483  0.2208 -0.2201 -0.5509
  426MOL0     C57441   9.668   4.660   1.011 -1.2686 -1.1593 -0.4277
  426MOL0     C57442   9.538   4.694   1.049 -0.9200 -1.0108 -0.2269
  426MOL0     H57443   8.985   4.606   1.094  0.2349  0.4612  0.4726
  426MOL0     H57444   8.786   4.743   1.057  0.5659  0.7098  2.8160
  426MOL0     H57445   8.867   5.137   0.883 -0.3195  0.8710  1.0080
  426MOL0     H57446   8.781   5.089   0.737  0.9489  0.1160  0.3713
  426MOL0     H57447   8.660   5.140   1.017 -0.3894 -1.6332 -0.0408
  426MOL0     H57448   8.684   5.268   0.890 -1.3318  0.2266  1.2723
  426MOL0     H57449   8.522   5.008   0.828 -4.2782  0.0492 -0.5109
  426MOL0     H57450   8.458   5.114   0.940  1.2255 -1.3942  0.8284
  426MOL0     H57451   8.527   5.299   0.742 -1.3006  0.1886  1.6909
  426MOL0     H57452   8.482   5.158   0.645  3.1112 -0.9470  0.5834
  426MOL0     H57453   8.296   5.104   0.752  4.9918 -2.4477  3.3015
  426MOL0     H57454   8.293   5.241   0.870  0.7173  0.6931 -0.1423
  426MOL0     H57455   8.267   5.401   0.687  0.9436 -1.2156  0.0479
  426MOL0     H57456   8.269   5.273   0.565  2.1096  0.8404 -0.4027
  426MOL0     H57457   8.060   5.315   0.780 -1.9609  4.6346 -0.4564
  426MOL0     H57458   8.043   5.384   0.620  0.5094 -0.6559 -1.3212
  426MOL0     H57459   8.071   5.071   0.645 -0.7297  0.1950 -2.2894
  426MOL0     H57460   8.033   5.159   0.501  0.3496  0.7222 -0.8185
  426MOL0     H57461   7.795   5.291   0.471 -1.1910 -0.3601  0.3198
  426MOL0     H57462   7.450   5.126   0.559 -1.2334  1.3034 -1.7207
  426MOL0     H57463   7.486   5.301   0.600 -3.7302  1.8229 -2.9400
  426MOL0     H57464   7.521   5.148   0.334  1.7828  1.2167 -1.1683
  426MOL0     H57465   7.567   5.307   0.361 -0.6211 -0.5657 -1.5049
  426MOL0     H57466   7.357   5.316   0.250 -2.2555  1.5570  0.0211
  426MOL0     H57467   7.317   5.366   0.415  1.0418 -2.0739  1.5348
  426MOL0     H57468   7.234   5.152   0.474 -1.2021  0.5817 -0.0366
  426MOL0     H57469   7.274   5.092   0.304 -0.6984  0.7122 -1.1790
  426MOL0     H57470   7.120   4.936   0.376  1.3551 -1.0277 -1.6267
  426MOL0     H57471   6.896   4.683   0.343 -0.4968  0.8896 -0.4724
  426MOL0     H57472   7.016   4.673   0.210  2.0279 -3.2636  2.0682
  426MOL0     H57473   7.054   4.724   0.381 -1.0230 -0.9609  0.1389
  426MOL0     H57474   6.527   4.952  -0.177  1.9628 -0.7020 -2.3527
  426MOL0     H57475   6.335   4.834  -0.308 -0.7496 -1.0843  1.2773
  426MOL0     H57476   6.110   4.753  -0.282  1.6308  0.6040 -1.4689
  426MOL0     H57477   6.197   4.708  -0.423  0.4272  2.5663  0.9464
  426MOL0     H57478   5.958   4.627  -0.433  2.0823  3.2010  0.7319
  426MOL0     H57479   6.083   4.495  -0.453  0.9699  1.2718 -2.0265
  426MOL0     H57480   5.962   4.565  -0.177  0.1485 -1.0698  0.6012
  426MOL0     H57481   6.056   4.416  -0.212  0.1253  0.7069  1.8989
  426MOL0     H57482   5.768   4.488  -0.304 -0.5118 -0.6056  1.6096
  426MOL0     H57483   5.872   4.345  -0.352  1.7732  1.5978 -0.5430
  426MOL0     H57484   5.862   4.256  -0.147  0.0798  0.8940  3.9639
  426MOL0     H57485   5.701   4.286  -0.198  1.2780  1.0288 -5.1584
  426MOL0     H57486   5.856   4.454   0.004 -0.9244 -0.6375 -0.3668
  426MOL0     H57487   5.716   4.522  -0.079  1.8150  1.0195 -1.5745
  426MOL0     H57488   5.771   4.268   0.098 -2.2551 -0.5103  2.2942
  426MOL0     H57489   5.613   4.289   0.034 -1.3943  1.1695 -1.1890
  426MOL0     H57490   5.615   4.380   0.251 -1.1859  0.2170 -0.6384
  426MOL0     H57491   5.621   4.518   0.147 -1.5269 -2.5626 -2.3943
  426MOL0     H57492   6.364   4.490  -0.067 -2.2538  0.1592  0.3935
  426MOL0     H57493   6.552   4.601   0.055 -2.7323  0.8253  2.1709
  426MOL0     H57494   6.754   5.083   0.071 -0.3703 -1.8486  0.7326
  426MOL0     H57495   6.894   5.248   0.177  1.5773  0.2717  1.7302
  426MOL0     H57496   9.000   4.967   0.752 -0.2706  1.3873  1.3406
  426MOL0     H57497   9.190   4.821   0.793  0.4240 -0.8173  0.6362
  426MOL0     H57498   9.363   4.476   0.854 -0.0117  1.6888 -0.7608
  426MOL0     H57499   9.592   4.387   0.840 -2.6600 -0.2930 -0.1281
  426MOL0     H57500   9.939   4.676   0.908  1.3094  0.4411 -0.1399
  426MOL0     H57501   9.929   4.587   1.059 -0.3362 -2.7472  0.4665
  426MOL0     H57502  10.076   4.409   0.969  4.0119 -0.0810  1.2529
  426MOL0     H57503  10.150   4.570   0.972 -2.8550  1.3844  1.8064
  426MOL0     H57504  10.061   4.580   0.725  1.3582 -0.3592 -3.7345
  426MOL0     H57505  10.073   4.399   0.752 -2.5091  1.0231 -0.9397
  426MOL0     H57506  10.302   4.418   0.810  4.0490  1.8866 -0.7661
  426MOL0     H57507  10.296   4.596   0.783  0.9188  0.9683 -0.3899
  426MOL0     H57508  10.278   4.484   0.377  1.5790 -2.2207 -0.8356
  426MOL0     H57509   9.758   4.709   1.046  0.2283 -3.2866 -1.1556
  426MOL0     H57510   9.538   4.775   1.121 -0.0852 -0.5620 -0.7213
  427MOL0     O57511   5.088   8.690   4.723  0.1364 -0.2952  0.4510
  427MOL0     C57512   5.103   8.576   4.757  0.8263  0.6616 -0.8146
  427MOL0     O57513   5.004   8.482   4.809 -0.2223  0.3521  0.5504
  427MOL0     C57514   4.901   8.540   4.885 -0.0796  0.2179  1.1064
  427MOL0     C57515   4.813   8.446   4.946  0.4072  0.7802  0.2453
  427MOL0     C57516   4.709   8.488   5.039  0.4502 -0.7810  0.1109
  427MOL0     C57517   4.686   8.628   5.059  0.5607 -0.6366 -0.2653
  427MOL0     O57518   4.602   8.682   5.149 -0.2371  0.1481 -0.2814
  427MOL0     C57519   4.507   8.602   5.226  0.0538 -0.2467  0.7629
  427MOL0     C57520   4.403   8.705   5.283  0.3090  0.4781 -0.1616
  427MOL0     C57521   4.298   8.645   5.381 -0.1991 -0.2790 -1.0645
  427MOL0     C57522   4.198   8.749   5.425 -0.1073 -1.0759  0.5410
  427MOL0     C57523   4.100   8.706   5.535  0.2010  0.0208 -0.5966
  427MOL0     C57524   4.028   8.831   5.582  0.3933 -0.5383  0.2524
  427MOL0     C57525   3.911   8.795   5.673 -0.2397  0.6237  0.4216
  427MOL0     C57526   3.787   8.753   5.588  1.1350 -0.4761  0.4702
  427MOL0     N57527   3.662   8.824   5.620 -0.2199 -0.4481 -0.5386
  427MOL0     C57528   3.546   8.752   5.625 -0.1484  0.4097  0.2153
  427MOL0     C57529   3.439   8.833   5.611  0.0592 -0.5152  0.3459
  427MOL0     C57530   3.291   8.811   5.602  0.4073  0.4155 -0.5542
  427MOL0     C57531   3.213   8.879   5.716  0.0242 -0.6450  0.4321
  427MOL0     C57532   3.064   8.890   5.686 -0.2873  0.2458 -0.2554
  427MOL0     C57533   2.985   8.943   5.807  0.0004  0.0183  0.4466
  427MOL0     O57534   2.849   8.967   5.767  0.3180  0.4749  0.6284
  427MOL0     C57535   2.767   9.044   5.853 -0.1064  0.0552  0.8673
  427MOL0     C57536   2.794   9.068   5.989  0.1249  0.2353  0.1520
  427MOL0     C57537   2.705   9.136   6.080 -0.0884  0.2472 -0.4939
  427MOL0     C57538   2.726   9.123   6.221 -0.3899 -0.1055 -0.4479
  427MOL0     C57539   2.586   9.185   6.027 -0.1723 -0.7657 -0.8689
  427MOL0     C57540   2.473   9.257   6.097 -0.1272 -0.3378 -0.2383
  427MOL0     O57541   2.344   9.253   6.046  0.1617 -0.2577  0.3150
  427MOL0     C57542   2.240   9.276   6.125  0.4230  0.6319  0.6869
  427MOL0     C57543   2.222   9.232   6.260 -0.0911 -0.0922 -0.6859
  427MOL0     C57544   2.123   9.275   6.351 -0.7574 -0.6103  0.8067
  427MOL0     C57545   2.029   9.355   6.295 -0.2273  0.1920  0.9427
  427MOL0     O57546   1.930   9.395   6.381  0.3661 -0.1666 -0.6779
  427MOL0     C57547   1.867   9.523   6.365 -0.7493  0.1693 -0.5534
  427MOL0     C57548   1.786   9.560   6.485  0.3403 -0.0021  0.2589
  427MOL0     C57549   1.866   9.578   6.615 -0.0635  0.0076 -0.7501
  427MOL0     C57550   2.020   9.585   6.613  0.6471 -0.0715 -0.3203
  427MOL0     C57551   2.096   9.583   6.745 -0.0163  0.2964 -0.1193
  427MOL0     C57552   2.100   9.723   6.802 -0.1608 -0.4486 -0.4216
  427MOL0     C57553   2.161   9.717   6.949 -0.2453  0.2505  1.0246
  427MOL0     C57554   2.318   9.691   6.958 -0.0404  0.0878  0.4590
  427MOL0    Cl57555   2.360   9.518   6.967  0.2221 -0.3140  0.0926
  427MOL0     C57556   2.022   9.387   6.157  0.4379  0.2360 -0.5395
  427MOL0     C57557   2.129   9.350   6.073  0.4666  0.0807 -0.6234
  427MOL0     O57558   2.507   9.326   6.191  0.4264  0.3424 -0.2659
  427MOL0     C57559   2.561   9.164   5.890 -0.1403 -0.1573  0.7131
  427MOL0     C57560   2.652   9.107   5.803 -0.2972 -0.2516  0.4989
  427MOL0     N57561   3.492   8.966   5.604  0.5321  0.6373 -0.4978
  427MOL0     N57562   3.624   8.960   5.609 -1.2622  0.3358  0.1529
  427MOL0     C57563   4.782   8.714   5.004  0.1753 -0.5588  0.7480
  427MOL0     C57564   4.879   8.674   4.916  0.5766 -0.7148 -0.0164
  427MOL0     C57565   5.232   8.514   4.727  0.0293  0.4487 -0.0269
  427MOL0     C57566   5.324   8.581   4.645  0.8798  0.0780 -0.6566
  427MOL0     C57567   5.446   8.525   4.612  1.2262 -0.2845  0.7820
  427MOL0     C57568   5.476   8.391   4.661 -0.0766 -0.5837  0.4774
  427MOL0     O57569   5.592   8.326   4.622 -0.0068 -0.3438 -0.5513
  427MOL0     C57570   5.688   8.387   4.530  0.5601  0.6020 -0.6835
  427MOL0     C57571   5.778   8.278   4.473  0.1557  1.0044 -0.3755
  427MOL0     C57572   5.706   8.192   4.370 -0.9026  0.2181  0.4052
  427MOL0     C57573   5.720   8.232   4.220 -0.2166  0.3176  0.8153
  427MOL0     C57574   5.633   8.144   4.146 -0.1888  0.6556  0.1838
  427MOL0     C57575   5.556   8.073   4.092  0.1387  0.1711  0.2297
  427MOL0     C57576   5.376   8.316   4.728 -1.0303  0.1524  0.7823
  427MOL0     C57577   5.260   8.383   4.771 -0.1864 -0.3220 -0.0367
  427MOL0     H57578   4.831   8.342   4.918 -3.5786  0.3570 -1.4216
  427MOL0     H57579   4.645   8.420   5.095  0.0564 -0.1006  0.4883
  427MOL0     H57580   4.466   8.526   5.159  2.5457 -0.1155 -1.0261
  427MOL0     H57581   4.557   8.554   5.311  1.3697 -1.0317 -0.4219
  427MOL0     H57582   4.466   8.781   5.331  0.8443  0.3227 -0.6006
  427MOL0     H57583   4.356   8.746   5.193  0.1882 -2.7342 -1.6842
  427MOL0     H57584   4.254   8.559   5.329 -1.2584 -0.8081  0.6027
  427MOL0     H57585   4.354   8.610   5.468 -0.3521  0.7750 -0.5336
  427MOL0     H57586   4.259   8.831   5.466 -1.3604 -0.7179  1.7882
  427MOL0     H57587   4.147   8.800   5.343  2.2128  0.7883  0.1280
  427MOL0     H57588   4.033   8.627   5.499  2.2049 -1.3676 -1.5021
  427MOL0     H57589   4.145   8.658   5.623 -2.1464 -3.2967 -0.9968
  427MOL0     H57590   4.095   8.898   5.637 -1.9015 -0.0152  2.6008
  427MOL0     H57591   3.986   8.881   5.495  0.3700 -1.0416 -0.0301
  427MOL0     H57592   3.948   8.714   5.737  3.3267  1.0387 -0.9038
  427MOL0     H57593   3.887   8.880   5.738 -1.9602  0.6286 -0.1621
  427MOL0     H57594   3.771   8.647   5.612 -0.3821  0.2689  3.0848
  427MOL0     H57595   3.793   8.755   5.478 -0.8015  0.4559  0.3323
  427MOL0     H57596   3.548   8.645   5.646  0.4593  0.3658 -0.0487
  427MOL0     H57597   3.254   8.841   5.503 -2.0145 -1.8652 -0.4597
  427MOL0     H57598   3.276   8.703   5.604  3.0654  0.0029  1.1333
  427MOL0     H57599   3.263   8.975   5.731  1.4312 -0.9837 -1.5331
  427MOL0     H57600   3.227   8.822   5.808 -0.3069  0.2565  1.0477
  427MOL0     H57601   3.031   8.789   5.660  2.5976 -0.3939 -1.9644
  427MOL0     H57602   3.052   8.970   5.612 -0.9984  2.5272  2.1762
  427MOL0     H57603   3.029   9.036   5.843 -3.0934  2.6881 -2.0147
  427MOL0     H57604   2.987   8.867   5.886 -2.0244 -1.5083 -0.8785
  427MOL0     H57605   2.868   9.014   6.048 -1.3870 -2.6540 -0.3866
  427MOL0     H57606   2.632   9.082   6.259 -0.4203 -1.0028 -1.4285
  427MOL0     H57607   2.813   9.067   6.256  0.4786  2.0455  1.0140
  427MOL0     H57608   2.735   9.221   6.268  0.2044 -0.7581  0.8445
  427MOL0     H57609   2.302   9.177   6.309 -0.0471  0.6342  0.0662
  427MOL0     H57610   2.108   9.246   6.455  0.0829 -2.0521  0.5536
  427MOL0     H57611   1.945   9.599   6.358 -0.2409 -0.0903  1.4942
  427MOL0     H57612   1.813   9.521   6.270 -1.0242 -3.2921 -0.4446
  427MOL0     H57613   1.741   9.659   6.475  1.7654  0.6288 -0.1626
  427MOL0     H57614   1.701   9.492   6.483  0.3111  0.0369  0.1997
  427MOL0     H57615   1.852   9.494   6.684 -0.3789 -1.2936 -2.3487
  427MOL0     H57616   1.822   9.654   6.680 -0.0053 -0.6451  0.0734
  427MOL0     H57617   2.065   9.498   6.563  2.3777  1.6047 -1.8322
  427MOL0     H57618   2.056   9.677   6.567  1.4423  0.1938  0.7971
  427MOL0     H57619   2.201   9.556   6.727 -0.4074 -1.6681  0.3647
  427MOL0     H57620   2.050   9.509   6.810  2.5493 -2.0303 -0.7398
  427MOL0     H57621   2.152   9.799   6.743  1.5263 -1.2416 -0.0137
  427MOL0     H57622   1.993   9.747   6.808  0.0641  0.6362 -0.6078
  427MOL0     H57623   2.106   9.639   7.002 -1.2439 -1.1345 -1.7986
  427MOL0     H57624   2.148   9.820   6.982  0.0263  0.7840 -0.4340
  427MOL0     H57625   2.353   9.734   7.053  0.2554  0.5429  0.1448
  427MOL0     H57626   2.378   9.746   6.885  2.1139 -0.1250  1.9793
  427MOL0     H57627   1.935   9.440   6.121 -1.6466 -2.1269  0.7366
  427MOL0     H57628   2.132   9.391   5.972  0.6302  1.5605 -0.0454
  427MOL0     H57629   2.471   9.196   5.839  0.3462 -2.0677 -1.5022
  427MOL0     H57630   2.633   9.098   5.696 -0.8686 -0.9775  0.6565
  427MOL0     H57631   4.776   8.816   5.042  2.6496  0.7561 -2.0135
  427MOL0     H57632   4.949   8.750   4.882 -2.4119  1.1995 -2.3840
  427MOL0     H57633   5.309   8.678   4.598 -0.2092  0.4647  0.4132
  427MOL0     H57634   5.515   8.591   4.562  0.3288  0.9297  1.0892
  427MOL0     H57635   5.632   8.432   4.447 -1.2636  0.0078  0.1761
  427MOL0     H57636   5.740   8.473   4.575  0.8297  0.0079  0.1595
  427MOL0     H57637   5.821   8.218   4.554  2.4438 -0.2488 -2.3869
  427MOL0     H57638   5.863   8.321   4.420  1.7305 -2.6925 -1.1614
  427MOL0     H57639   5.602   8.190   4.405 -0.4491 -2.9050  1.9102
  427MOL0     H57640   5.754   8.093   4.372  1.6868  1.4154  1.2492
  427MOL0     H57641   5.825   8.228   4.190 -0.5382  0.3758 -0.3950
  427MOL0     H57642   5.680   8.332   4.199  2.0456  0.6715 -2.6175
  427MOL0     H57643   5.494   7.999   4.047 -0.0001 -0.7006  1.7598
  427MOL0     H57644   5.411   8.228   4.781  0.9821  0.9484  0.8259
  427MOL0     H57645   5.187   8.347   4.843  0.0886  3.3375  2.3165
  428MOL0     O57646   4.395   8.146   4.904 -0.0404 -1.0141 -0.3797
  428MOL0     C57647   4.376   8.051   4.973 -0.2219 -0.8107 -0.2049
  428MOL0     O57648   4.261   8.013   5.040 -0.0157  0.0216  0.0642
  428MOL0     C57649   4.139   8.075   5.013 -1.1993 -0.8118  0.7467
  428MOL0     C57650   4.097   8.108   4.881  0.3319 -0.4377  0.6851
  428MOL0     C57651   3.973   8.171   4.868  0.0316 -0.4900 -0.0166
  428MOL0     C57652   3.888   8.195   4.974  0.4569 -0.4540  0.7614
  428MOL0     O57653   3.768   8.249   4.938  0.5234 -0.4529 -0.7408
  428MOL0     C57654   3.662   8.260   5.037  0.0418  0.7432  0.0642
  428MOL0     C57655   3.528   8.322   4.971  0.8550  0.0903  0.0093
  428MOL0     C57656   3.404   8.327   5.058  0.3275  0.7303 -0.3050
  428MOL0     C57657   3.310   8.442   5.022  0.6750  0.0150 -0.0140
  428MOL0     C57658   3.158   8.389   5.013  0.1186  0.3498 -0.1697
  428MOL0     C57659   3.064   8.508   5.005 -1.0763 -0.5144  0.4932
  428MOL0     C57660   2.916   8.483   5.042 -0.7832 -0.5116  0.0561
  428MOL0     C57661   2.846   8.616   5.006  0.2397 -0.4424  0.6598
  428MOL0     N57662   2.708   8.610   5.061 -0.2361  0.0777  0.1726
  428MOL0     C57663   2.624   8.503   5.044  0.1322 -0.2152 -0.7987
  428MOL0     C57664   2.497   8.539   5.078  1.2899  0.5881  0.4380
  428MOL0     C57665   2.366   8.468   5.054 -0.5099 -0.1183 -0.3274
  428MOL0     C57666   2.290   8.447   5.188  0.1223  0.2954 -0.3871
  428MOL0     C57667   2.366   8.344   5.275  0.9079  0.3005 -0.1293
  428MOL0     C57668   2.282   8.318   5.397 -0.7185 -0.2595  0.6625
  428MOL0     O57669   2.264   8.439   5.476 -0.5171  0.2512 -0.1326
  428MOL0     C57670   2.135   8.455   5.529 -0.8558  0.1915 -0.2885
  428MOL0     C57671   2.080   8.578   5.498  0.1141  1.0537  0.4650
  428MOL0     C57672   1.948   8.608   5.536 -1.2178 -0.9444  0.3292
  428MOL0     C57673   1.898   8.749   5.491  0.4588 -0.0803  0.2007
  428MOL0     C57674   1.871   8.512   5.614 -0.5404  0.0169  0.1294
  428MOL0     C57675   1.733   8.531   5.671  0.1158  0.1460 -0.2735
  428MOL0     O57676   1.668   8.440   5.747  0.2272 -1.7127  0.1109
  428MOL0     C57677   1.531   8.458   5.763  0.3337  0.1301  0.0711
  428MOL0     C57678   1.485   8.545   5.869  0.0332 -0.2601  0.3778
  428MOL0     C57679   1.348   8.585   5.879 -0.1331 -0.6354  0.5125
  428MOL0     C57680   1.249   8.541   5.794  0.3750 -0.3601 -0.1549
  428MOL0     O57681   1.118   8.564   5.823  0.2235 -0.1866 -1.2316
  428MOL0     C57682   1.006   8.530   5.735  0.9106  1.0732 -0.9095
  428MOL0     C57683   0.885   8.594   5.791  0.3937  0.2395 -0.6608
  428MOL0     C57684   0.755   8.564   5.706  0.0873  0.3946  0.0009
  428MOL0     C57685   0.631   8.622   5.775  0.6298 -0.1907 -0.8793
  428MOL0     C57686   0.502   8.600   5.702 -0.5002 -0.0882  0.3131
  428MOL0     C57687   0.418   8.469   5.738  0.5440  0.2692  0.8775
  428MOL0     C57688   0.352   8.484   5.881 -0.2925 -0.3519 -0.0808
  428MOL0     C57689   0.220   8.413   5.882 -0.2772 -0.6983  0.6002
  428MOL0    Cl57690   0.098   8.470   5.768 -0.2380 -0.4930 -0.5718
  428MOL0     C57691   1.295   8.455   5.691  0.0384 -0.9249 -0.2924
  428MOL0     C57692   1.429   8.419   5.669  0.0596 -0.3182 -0.5831
  428MOL0     O57693   1.683   8.635   5.632  0.7560  0.6708  0.0696
  428MOL0     C57694   1.936   8.390   5.642  0.0933 -0.3546 -0.1627
  428MOL0     C57695   2.062   8.358   5.594 -0.7695 -0.3977  0.7649
  428MOL0     N57696   2.498   8.669   5.108 -0.6083 -0.2288 -0.5323
  428MOL0     N57697   2.626   8.708   5.105 -0.3738  0.0413 -0.2243
  428MOL0     C57698   3.930   8.158   5.101  0.1445 -0.2551 -0.1079
  428MOL0     C57699   4.053   8.093   5.126  0.1694  0.2367 -0.2479
  428MOL0     C57700   4.496   7.967   4.983  0.3116 -0.1131 -0.1500
  428MOL0     C57701   4.618   7.995   4.910  0.8958 -0.1811 -0.0132
  428MOL0     C57702   4.731   7.916   4.909 -0.0058  0.4824  0.0886
  428MOL0     C57703   4.727   7.803   4.995  0.9041  1.1692  0.0332
  428MOL0     O57704   4.838   7.725   4.991 -0.0702  0.7270  0.0279
  428MOL0     C57705   4.830   7.591   5.049 -0.3268 -0.0389 -0.5280
  428MOL0     C57706   4.966   7.518   5.045  0.6741  0.4347 -0.7412
  428MOL0     C57707   5.074   7.594   5.118  0.0981  0.0119 -0.0405
  428MOL0     C57708   5.069   7.571   5.271 -0.1816  0.0670  0.0130
  428MOL0     C57709   5.200   7.578   5.340 -0.5590  0.8857 -0.5794
  428MOL0     C57710   5.314   7.569   5.389  0.6480 -1.0475  0.1963
  428MOL0     C57711   4.614   7.783   5.077  0.5725  0.2019 -0.3657
  428MOL0     C57712   4.496   7.860   5.065 -0.1383 -0.1486 -0.6782
  428MOL0     H57713   4.168   8.084   4.803  1.3013  1.7321  0.8438
  428MOL0     H57714   3.935   8.183   4.767  2.8685  1.8905 -0.9087
  428MOL0     H57715   3.635   8.163   5.081 -0.5080 -0.4407 -2.6532
  428MOL0     H57716   3.691   8.330   5.116 -1.1798 -0.1398  1.3602
  428MOL0     H57717   3.556   8.422   4.935 -1.7895  0.6535 -0.6565
  428MOL0     H57718   3.509   8.260   4.883 -1.2712  0.1012  0.4152
  428MOL0     H57719   3.358   8.228   5.053 -1.6793  0.8308  6.3754
  428MOL0     H57720   3.444   8.347   5.158  1.1492 -3.4438  0.4077
  428MOL0     H57721   3.313   8.507   5.110 -0.3301  0.0847 -0.0255
  428MOL0     H57722   3.343   8.497   4.934 -1.2867 -0.1042 -0.8784
  428MOL0     H57723   3.156   8.328   4.923 -0.2124 -2.6322  1.7007
  428MOL0     H57724   3.141   8.330   5.104  0.0577  0.9480  0.2120
  428MOL0     H57725   3.100   8.595   5.061 -0.1153 -0.8491  0.4045
  428MOL0     H57726   3.077   8.536   4.900  3.2615 -1.0274  0.7127
  428MOL0     H57727   2.864   8.397   4.998  1.6914 -3.3043  2.2319
  428MOL0     H57728   2.913   8.471   5.150 -0.3444  1.2983  0.3005
  428MOL0     H57729   2.847   8.637   4.898 -1.7388  0.1061  0.7274
  428MOL0     H57730   2.909   8.699   5.038 -0.8467  0.7955 -0.3339
  428MOL0     H57731   2.657   8.407   5.004  3.4719  0.1775  0.6253
  428MOL0     H57732   2.307   8.512   4.973  0.3394  1.5273 -0.0786
  428MOL0     H57733   2.387   8.366   5.021 -0.7838 -0.9181  1.7941
  428MOL0     H57734   2.191   8.404   5.170 -0.5068  2.2622 -1.9506
  428MOL0     H57735   2.280   8.538   5.248 -1.0438 -0.5320  0.7329
  428MOL0     H57736   2.465   8.384   5.299  1.4740  0.0451 -1.8773
  428MOL0     H57737   2.385   8.253   5.216  2.3682 -0.5236  1.5231
  428MOL0     H57738   2.331   8.240   5.456  0.1067 -0.9782 -0.9354
  428MOL0     H57739   2.186   8.277   5.367 -0.7528  0.0350  0.3643
  428MOL0     H57740   2.147   8.650   5.453 -0.2209  0.2904 -1.3430
  428MOL0     H57741   1.853   8.808   5.571  0.5120  2.3505 -1.4368
  428MOL0     H57742   1.969   8.818   5.445 -0.9502 -0.1005 -2.2047
  428MOL0     H57743   1.824   8.722   5.415 -0.5370 -0.4265  1.2545
  428MOL0     H57744   1.561   8.591   5.932  0.4782 -1.5136  0.7723
  428MOL0     H57745   1.316   8.646   5.963  2.6423  0.7784  0.6567
  428MOL0     H57746   1.007   8.574   5.635 -1.2674  1.1383 -0.9451
  428MOL0     H57747   0.997   8.421   5.737  0.6195  1.1005  0.7134
  428MOL0     H57748   0.864   8.554   5.891 -1.2129 -1.2875 -1.5523
  428MOL0     H57749   0.898   8.701   5.808 -0.9301  0.2732  0.3086
  428MOL0     H57750   0.730   8.458   5.693 -1.0555  0.3723  2.0083
  428MOL0     H57751   0.778   8.613   5.611  0.2127 -0.2163 -0.2938
  428MOL0     H57752   0.616   8.577   5.873  0.1154 -1.9437 -1.7157
  428MOL0     H57753   0.644   8.730   5.780 -1.1442  0.0263 -0.2058
  428MOL0     H57754   0.521   8.583   5.595  0.9987 -1.3655  0.7412
  428MOL0     H57755   0.428   8.681   5.710 -1.9584 -1.4280  0.9332
  428MOL0     H57756   0.349   8.456   5.654  2.1313 -0.7324 -0.3319
  428MOL0     H57757   0.482   8.381   5.739  2.1906  1.4344  0.8336
  428MOL0     H57758   0.350   8.586   5.920  2.3225  0.2041 -1.1450
  428MOL0     H57759   0.416   8.426   5.948  0.8883  0.7653 -0.1936
  428MOL0     H57760   0.193   8.427   5.987 -3.1248 -0.7172 -0.0584
  428MOL0     H57761   0.239   8.306   5.867  1.2595 -0.2622 -0.9409
  428MOL0     H57762   1.222   8.422   5.619 -0.2037 -0.9293 -0.0438
  428MOL0     H57763   1.463   8.361   5.584  2.9063 -0.6186  0.6451
  428MOL0     H57764   1.899   8.307   5.702  2.6600  0.0235  2.1191
  428MOL0     H57765   2.112   8.267   5.626 -2.9806 -1.2503  1.9952
  428MOL0     H57766   3.867   8.179   5.187  1.6922  0.8953  0.7934
  428MOL0     H57767   4.094   8.046   5.215  2.5532  1.9154 -0.3729
  428MOL0     H57768   4.627   8.090   4.859 -0.9048 -0.2061 -0.4338
  428MOL0     H57769   4.816   7.949   4.849  0.2263 -2.8852 -1.6690
  428MOL0     H57770   4.791   7.595   5.151 -0.1858 -0.3743 -0.4582
  428MOL0     H57771   4.764   7.530   4.986  0.8517  1.3844 -3.3164
  428MOL0     H57772   4.988   7.508   4.938 -2.0161 -0.5478 -1.2767
  428MOL0     H57773   4.962   7.416   5.084  2.7577  0.1849 -1.0373
  428MOL0     H57774   5.062   7.702   5.113  0.3376 -0.0201 -1.8912
  428MOL0     H57775   5.171   7.565   5.076  0.8048  3.0499 -0.7291
  428MOL0     H57776   5.025   7.471   5.280 -0.7179  0.1745 -1.1968
  428MOL0     H57777   4.989   7.637   5.307 -0.5943 -0.7180  0.5732
  428MOL0     H57778   5.412   7.575   5.432  0.4837  1.0241  0.3808
  428MOL0     H57779   4.605   7.703   5.150 -2.3014  1.9388  1.3722
  428MOL0     H57780   4.416   7.846   5.136  0.1876  0.7427 -0.1118
  429MOL0     O57781   0.646   5.740   6.559 -0.4968 -0.2151 -0.4387
  429MOL0     C57782   0.685   5.791   6.449  0.2060  0.3989 -0.5472
  429MOL0     O57783   0.601   5.861   6.366 -0.6113 -0.2498  0.5713
  429MOL0     C57784   0.462   5.849   6.373  0.2525  0.0811 -0.2796
  429MOL0     C57785   0.372   5.907   6.466 -0.1813  0.0887 -0.1065
  429MOL0     C57786   0.237   5.887   6.445 -0.2541  0.1968 -0.1220
  429MOL0     C57787   0.187   5.798   6.343 -0.3233  0.2492 -0.4086
  429MOL0     O57788   0.056   5.777   6.344  0.1695  0.9176 -0.1895
  429MOL0     C57789  -0.005   5.645   6.299 -0.2461 -0.1643 -0.2410
  429MOL0     C57790  -0.135   5.617   6.372 -0.4417 -1.0385 -0.7155
  429MOL0     C57791  -0.232   5.736   6.353 -0.0431  0.3687  0.8607
  429MOL0     C57792  -0.371   5.688   6.410 -0.7313  0.3605 -0.6287
  429MOL0     C57793  -0.486   5.788   6.390 -0.6529  0.1574 -0.7445
  429MOL0     C57794  -0.621   5.740   6.425  0.1902  0.6642  0.0799
  429MOL0     C57795  -0.729   5.846   6.437 -0.5150 -0.3041  0.6583
  429MOL0     C57796  -0.853   5.781   6.481  0.3648  1.0157 -0.2838
  429MOL0     N57797  -0.966   5.870   6.481 -0.2140 -0.5672 -0.6271
  429MOL0     C57798  -1.016   5.948   6.585  0.4613 -0.7260 -0.4457
  429MOL0     C57799  -1.132   5.995   6.538 -0.0840  0.0129  0.4154
  429MOL0     C57800  -1.223   6.080   6.623  0.5911 -0.3026  0.1388
  429MOL0     C57801  -1.349   6.005   6.645  0.8505  0.4199  0.3167
  429MOL0     C57802  -1.448   6.088   6.736 -0.3019  0.4573 -0.4141
  429MOL0     C57803  -1.580   6.013   6.778  0.1787  0.1114 -0.2188
  429MOL0     O57804  -1.666   6.094   6.856  0.3775 -0.6223  0.1428
  429MOL0     C57805  -1.758   6.037   6.947 -0.0600  0.4366 -0.2107
  429MOL0     C57806  -1.799   6.132   7.044  0.8059 -0.1896 -0.3165
  429MOL0     C57807  -1.893   6.095   7.149 -0.3902  0.4716  0.0806
  429MOL0     C57808  -1.916   6.195   7.262  0.2037  0.5538 -0.4224
  429MOL0     C57809  -1.935   5.963   7.170  0.2933  0.3534  0.3655
  429MOL0     C57810  -2.039   5.919   7.267  0.2693  0.2765 -0.1200
  429MOL0     O57811  -2.023   5.800   7.321  0.7239 -0.4846 -1.1420
  429MOL0     C57812  -2.124   5.725   7.375  0.3393  0.5109 -1.0767
  429MOL0     C57813  -2.084   5.629   7.464  0.3587 -0.3030 -0.2490
  429MOL0     C57814  -2.173   5.542   7.512  0.0935  0.4122 -0.1419
  429MOL0     C57815  -2.312   5.559   7.505 -0.5740 -0.3185 -0.1588
  429MOL0     O57816  -2.397   5.475   7.571  0.5880  1.0701 -0.3871
  429MOL0     C57817  -2.536   5.461   7.528 -0.8356  0.5776 -0.3239
  429MOL0     C57818  -2.584   5.329   7.579 -0.3074 -0.0935  0.0277
  429MOL0     C57819  -2.721   5.289   7.516  0.4125 -0.5190  0.8677
  429MOL0     C57820  -2.814   5.248   7.629  0.5522 -0.7522 -0.4505
  429MOL0     C57821  -2.925   5.162   7.578 -0.5032  0.5709  0.0297
  429MOL0     C57822  -3.029   5.135   7.676 -0.2927  0.5604 -0.3125
  429MOL0     C57823  -3.077   4.991   7.674 -0.1273 -0.1135  0.4343
  429MOL0     C57824  -3.180   4.964   7.788  0.0551 -0.2344  0.2285
  429MOL0    Cl57825  -3.286   5.102   7.821 -0.2842 -0.0291  0.4425
  429MOL0     C57826  -2.352   5.658   7.416 -0.3184  1.5055 -0.2489
  429MOL0     C57827  -2.260   5.731   7.341  0.1785 -0.2292 -0.9506
  429MOL0     O57828  -2.138   5.995   7.293 -0.3888  0.2062 -0.3425
  429MOL0     C57829  -1.880   5.869   7.073  0.5167 -0.7882 -0.1716
  429MOL0     C57830  -1.801   5.906   6.960  0.3179  0.8008 -0.3225
  429MOL0     N57831  -1.148   5.960   6.404  0.3618  0.7612  0.3352
  429MOL0     N57832  -1.048   5.883   6.380  0.1522  0.2083  0.7675
  429MOL0     C57833   0.273   5.745   6.252 -0.1492  0.0241  1.3074
  429MOL0     C57834   0.416   5.774   6.262 -0.1579  0.2803 -0.1686
  429MOL0     C57835   0.826   5.765   6.409  1.0839  0.1530  1.0200
  429MOL0     C57836   0.876   5.818   6.293 -0.7266  0.7138  0.7378
  429MOL0     C57837   1.016   5.804   6.276  1.0728 -0.3928  0.0604
  429MOL0     C57838   1.094   5.720   6.352 -0.4338 -0.0014 -0.2557
  429MOL0     O57839   1.229   5.709   6.329 -0.6544  0.5570  0.3623
  429MOL0     C57840   1.293   5.751   6.201 -0.9483 -1.2243 -0.0199
  429MOL0     C57841   1.343   5.896   6.194  0.3660 -0.2386  0.2446
  429MOL0     C57842   1.405   5.942   6.333 -0.3470 -0.1865  0.4619
  429MOL0     C57843   1.446   6.087   6.331 -0.1567 -0.1994  0.4486
  429MOL0     C57844   1.556   6.108   6.233 -0.2020  0.7724 -0.0918
  429MOL0     C57845   1.660   6.123   6.164  0.6984  0.7741 -0.5476
  429MOL0     C57846   1.043   5.656   6.467  0.2371  0.1379 -0.0084
  429MOL0     C57847   0.911   5.689   6.497 -0.0709 -0.8146  0.0824
  429MOL0     H57848   0.408   5.959   6.553 -1.7497 -1.7896  1.7786
  429MOL0     H57849   0.168   5.930   6.516 -2.4043 -2.1208 -0.6593
  429MOL0     H57850  -0.021   5.644   6.191 -0.6278  0.3727 -0.1916
  429MOL0     H57851   0.062   5.560   6.319 -2.0933 -1.2298  1.8648
  429MOL0     H57852  -0.181   5.528   6.328  0.4851 -1.8129 -0.1321
  429MOL0     H57853  -0.116   5.604   6.479  1.6424  2.0514 -0.5781
  429MOL0     H57854  -0.196   5.830   6.396  0.0946  0.4747  0.5243
  429MOL0     H57855  -0.246   5.768   6.249 -0.7330 -2.0132  0.1466
  429MOL0     H57856  -0.395   5.585   6.379  0.7814 -0.3863  0.5516
  429MOL0     H57857  -0.363   5.668   6.518 -1.1560 -2.5677 -1.0422
  429MOL0     H57858  -0.454   5.887   6.423  1.1516  0.0570 -2.0121
  429MOL0     H57859  -0.485   5.803   6.281 -2.2139  0.9203 -0.6686
  429MOL0     H57860  -0.648   5.662   6.353 -1.1902  1.4594 -0.3054
  429MOL0     H57861  -0.618   5.682   6.518 -0.3629  0.0598 -0.2721
  429MOL0     H57862  -0.694   5.924   6.505  3.7895 -0.6414 -0.8571
  429MOL0     H57863  -0.759   5.890   6.342 -1.1408  3.2105  2.3293
  429MOL0     H57864  -0.844   5.746   6.584 -0.6903  1.0534 -0.1651
  429MOL0     H57865  -0.859   5.696   6.413  1.9913  1.5464 -1.1413
  429MOL0     H57866  -0.980   5.968   6.686 -3.9041 -1.2262  1.4447
  429MOL0     H57867  -1.172   6.110   6.715  2.3094  0.3144 -0.9640
  429MOL0     H57868  -1.249   6.175   6.575  1.6953  1.6733  3.1469
  429MOL0     H57869  -1.338   5.906   6.691 -1.9350 -1.4466 -2.6094
  429MOL0     H57870  -1.406   5.995   6.553 -0.2876 -0.1991  1.0585
  429MOL0     H57871  -1.475   6.188   6.701 -3.5561  0.7121  2.2885
  429MOL0     H57872  -1.390   6.105   6.827  0.2205  1.8432 -0.9810
  429MOL0     H57873  -1.564   5.930   6.848 -1.7064 -1.0081 -1.0342
  429MOL0     H57874  -1.635   5.973   6.692 -3.1357  1.2487  1.2073
  429MOL0     H57875  -1.759   6.232   7.030 -0.1741  0.8003  2.9876
  429MOL0     H57876  -2.017   6.228   7.284  0.8997  1.8381  1.0318
  429MOL0     H57877  -1.872   6.144   7.348  0.4056 -0.2320 -0.9771
  429MOL0     H57878  -1.852   6.283   7.251 -0.7438  1.2406 -0.5282
  429MOL0     H57879  -1.978   5.622   7.486  0.8079  1.2600 -1.6508
  429MOL0     H57880  -2.119   5.466   7.568  1.0681  0.9840 -0.3038
  429MOL0     H57881  -2.590   5.543   7.576 -0.8941 -0.2383  1.0535
  429MOL0     H57882  -2.543   5.457   7.419 -0.1772  0.2572 -0.3543
  429MOL0     H57883  -2.505   5.257   7.557  2.0837  1.6356  2.1800
  429MOL0     H57884  -2.597   5.333   7.688 -0.5012 -0.3551  0.0132
  429MOL0     H57885  -2.707   5.218   7.433  0.4016  0.1959  0.2409
  429MOL0     H57886  -2.769   5.374   7.467  0.1928 -2.1254 -1.9143
  429MOL0     H57887  -2.760   5.198   7.710  3.5099  0.6122 -1.4360
  429MOL0     H57888  -2.855   5.342   7.667 -0.3552 -0.5921 -1.7722
  429MOL0     H57889  -2.870   5.074   7.546  0.0732  0.4904  1.1749
  429MOL0     H57890  -2.976   5.215   7.497  0.3135  1.0620 -0.1765
  429MOL0     H57891  -2.991   5.156   7.777  0.8320  1.0363 -0.8231
  429MOL0     H57892  -3.114   5.201   7.656 -1.5585 -0.2454  2.0152
  429MOL0     H57893  -2.996   4.918   7.678 -0.7836 -0.8587  0.4081
  429MOL0     H57894  -3.129   4.979   7.578 -0.6639  0.8096  0.6022
  429MOL0     H57895  -3.121   4.962   7.881  0.6871 -2.3429 -0.1769
  429MOL0     H57896  -3.233   4.869   7.784  0.4782 -0.4263 -1.8781
  429MOL0     H57897  -2.455   5.659   7.382 -0.6925  1.1400  0.8289
  429MOL0     H57898  -2.289   5.794   7.258  2.1510  1.0787 -0.7248
  429MOL0     H57899  -1.917   5.768   7.080  0.3633 -0.7445 -0.3185
  429MOL0     H57900  -1.775   5.825   6.893 -1.4310  0.5536 -0.7544
  429MOL0     H57901   0.225   5.692   6.170 -3.1555  2.1849  1.5095
  429MOL0     H57902   0.485   5.738   6.187 -0.5319 -1.9309  0.4844
  429MOL0     H57903   0.829   5.902   6.244 -2.1902 -0.7372 -0.4648
  429MOL0     H57904   1.063   5.861   6.197 -2.1487  1.4241 -0.7073
  429MOL0     H57905   1.384   5.695   6.179  0.4444  1.2134 -0.8988
  429MOL0     H57906   1.228   5.730   6.115 -0.1667  0.8490 -1.1917
  429MOL0     H57907   1.260   5.963   6.166 -1.7903 -2.0976  1.8465
  429MOL0     H57908   1.420   5.907   6.117 -0.1577 -0.6791 -0.3500
  429MOL0     H57909   1.496   5.882   6.343 -0.9640 -1.4330 -0.9828
  429MOL0     H57910   1.337   5.929   6.418 -3.7230 -0.7970 -2.1170
  429MOL0     H57911   1.482   6.119   6.429 -0.4217 -2.6661  1.4486
  429MOL0     H57912   1.362   6.156   6.318  0.8728  1.1394  0.7702
  429MOL0     H57913   1.750   6.138   6.107  0.0331  0.6427 -1.6658
  429MOL0     H57914   1.094   5.579   6.524 -1.1486 -0.4575  0.4731
  429MOL0     H57915   0.877   5.663   6.597  0.6863  0.3963  0.6823
  430MOL0     O57916   2.384   0.114   1.320  0.6342  0.0464 -0.2374
  430MOL0     C57917   2.463   0.029   1.358 -0.3993 -0.6675  0.1846
  430MOL0     O57918   2.444  -0.107   1.355  0.7558  0.0820  0.4580
  430MOL0     C57919   2.325  -0.166   1.326  0.0751 -0.6026  0.1969
  430MOL0     C57920   2.281  -0.258   1.420  0.3063  0.0598  0.4876
  430MOL0     C57921   2.157  -0.330   1.407 -0.6158 -0.5737 -0.3004
  430MOL0     C57922   2.082  -0.299   1.294  0.3115 -0.5495 -0.4041
  430MOL0     O57923   1.952  -0.333   1.269 -0.5463 -0.0403 -0.1604
  430MOL0     C57924   1.878  -0.414   1.356 -0.2034  0.0324 -0.2962
  430MOL0     C57925   1.927  -0.566   1.357 -0.2774 -0.9952  0.2813
  430MOL0     C57926   1.837  -0.643   1.439 -0.7177  0.2781 -0.0412
  430MOL0     C57927   1.718  -0.693   1.365  1.1920  0.1937  0.1700
  430MOL0     C57928   1.640  -0.777   1.462  0.3915 -0.1125  0.5492
  430MOL0     C57929   1.517  -0.828   1.399  0.4296 -0.3731  0.2866
  430MOL0     C57930   1.422  -0.875   1.504 -0.0461 -0.1202 -1.1097
  430MOL0     C57931   1.286  -0.925   1.464 -0.1630  0.7438 -0.6539
  430MOL0     N57932   1.196  -0.830   1.399 -0.4055  0.6817 -0.6899
  430MOL0     C57933   1.120  -0.739   1.464  0.1155  0.2592 -0.2171
  430MOL0     C57934   1.053  -0.683   1.361  0.1308  0.0682  1.5084
  430MOL0     C57935   0.936  -0.591   1.375  0.5865 -0.4753 -0.7151
  430MOL0     C57936   0.805  -0.633   1.321  0.2289  0.3765 -0.1505
  430MOL0     C57937   0.705  -0.518   1.328  0.6837 -0.2739  0.1392
  430MOL0     C57938   0.562  -0.559   1.273  0.3738  0.9134  0.5560
  430MOL0     O57939   0.511  -0.670   1.334 -0.7116  0.8302 -0.1362
  430MOL0     C57940   0.396  -0.723   1.286 -0.2161 -0.1324 -0.4838
  430MOL0     C57941   0.296  -0.657   1.215 -0.6501 -0.0616  0.1350
  430MOL0     C57942   0.179  -0.730   1.187  0.8409  0.3643  0.1552
  430MOL0     C57943   0.081  -0.647   1.116 -0.1768  0.8002  0.7083
  430MOL0     C57944   0.159  -0.864   1.221  0.3362  0.1282 -0.2991
  430MOL0     C57945   0.057  -0.948   1.169  0.7118 -0.8173 -0.0309
  430MOL0     O57946   0.004  -1.045   1.252 -0.7206  0.1945  0.2363
  430MOL0     C57947  -0.082  -1.142   1.191 -0.5184  0.4130 -0.1100
  430MOL0     C57948  -0.033  -1.267   1.159 -0.1904  0.1447 -0.2975
  430MOL0     C57949  -0.126  -1.368   1.114 -0.1998  0.3208 -0.3404
  430MOL0     C57950  -0.260  -1.331   1.085 -0.1827 -0.0526 -0.1917
  430MOL0     O57951  -0.346  -1.420   1.033  0.5300 -0.2737  0.2802
  430MOL0     C57952  -0.301  -1.493   0.917  0.1763  0.4182  0.1941
  430MOL0     C57953  -0.408  -1.595   0.882 -0.8132  0.0875 -0.2661
  430MOL0     C57954  -0.542  -1.541   0.840  0.4501  0.1725  0.1199
  430MOL0     C57955  -0.547  -1.415   0.765  0.1801 -0.2198 -0.8111
  430MOL0     C57956  -0.503  -1.427   0.615 -0.2827 -0.1704 -0.0010
  430MOL0     C57957  -0.503  -1.287   0.544 -0.3925 -0.4744  0.0470
  430MOL0     C57958  -0.474  -1.291   0.391  0.0191 -0.2649  0.6740
  430MOL0     C57959  -0.455  -1.154   0.329  0.8548 -0.0438 -0.3014
  430MOL0    Cl57960  -0.310  -1.077   0.386 -0.1099  0.5550  0.3376
  430MOL0     C57961  -0.300  -1.192   1.097  0.3316  0.3385 -0.8671
  430MOL0     C57962  -0.209  -1.102   1.162  0.3422  0.2231 -1.2521
  430MOL0     O57963   0.018  -0.925   1.053 -0.3202  0.0581 -0.1445
  430MOL0     C57964   0.263  -0.926   1.291 -0.2851  0.2029  0.8953
  430MOL0     C57965   0.382  -0.855   1.320  0.8817  0.3297 -0.8268
  430MOL0     N57966   1.097  -0.735   1.239 -0.1841  0.7416  0.6764
  430MOL0     N57967   1.177  -0.832   1.257  0.4012 -0.4119 -0.6572
  430MOL0     C57968   2.130  -0.207   1.195  0.6284  0.1347  0.4469
  430MOL0     C57969   2.250  -0.146   1.218 -0.2229 -0.8532  0.4426
  430MOL0     C57970   2.598   0.060   1.403  0.4046  0.2417  0.5432
  430MOL0     C57971   2.688  -0.029   1.450 -0.8735  0.7320 -0.2846
  430MOL0     C57972   2.821   0.011   1.475 -0.5064  0.1709  0.2237
  430MOL0     C57973   2.870   0.136   1.461 -0.3289 -0.1199  0.0050
  430MOL0     O57974   3.000   0.183   1.487  0.1125 -0.3729  0.3468
  430MOL0     C57975   3.101   0.089   1.503  0.2195 -0.0960  0.4417
  430MOL0     C57976   3.227   0.168   1.526  0.0169  0.4294 -0.2090
  430MOL0     C57977   3.343   0.081   1.471  0.8336  0.5747  0.5074
  430MOL0     C57978   3.469   0.170   1.485  0.1008 -0.6915  0.0927
  430MOL0     C57979   3.578   0.088   1.438  0.7163 -0.3606 -0.9965
  430MOL0     C57980   3.658   0.002   1.423 -0.7608  0.0743  0.1213
  430MOL0     C57981   2.778   0.229   1.430  1.3389 -0.7252  0.3477
  430MOL0     C57982   2.646   0.192   1.392 -0.2613 -0.5517 -0.4865
  430MOL0     H57983   2.351  -0.273   1.501 -0.5831 -0.2587  1.2106
  430MOL0     H57984   2.132  -0.399   1.488  2.3044 -2.8347 -1.1233
  430MOL0     H57985   1.873  -0.356   1.449 -0.3230 -0.3071 -0.0907
  430MOL0     H57986   1.772  -0.412   1.327 -0.4828  0.7755  0.7182
  430MOL0     H57987   1.931  -0.602   1.254 -1.9592  1.4061 -0.7145
  430MOL0     H57988   2.030  -0.579   1.393  0.4465 -1.5797 -1.8580
  430MOL0     H57989   1.897  -0.731   1.462 -0.7675  0.1342 -0.4692
  430MOL0     H57990   1.805  -0.584   1.526 -0.0252  2.1487 -0.9891
  430MOL0     H57991   1.655  -0.608   1.338 -2.5155 -1.3364  3.0971
  430MOL0     H57992   1.735  -0.743   1.269 -0.8709 -0.5339  0.1204
  430MOL0     H57993   1.690  -0.870   1.492 -1.9002 -0.4515  3.8353
  430MOL0     H57994   1.615  -0.708   1.543 -0.5687  0.1677  0.0221
  430MOL0     H57995   1.472  -0.756   1.330 -1.0545 -1.4136  0.1229
  430MOL0     H57996   1.546  -0.915   1.340 -2.8636 -1.8177  0.5397
  430MOL0     H57997   1.474  -0.948   1.568 -0.8621 -0.1322 -0.4387
  430MOL0     H57998   1.407  -0.796   1.578  0.1542 -1.8708  0.9085
  430MOL0     H57999   1.236  -0.967   1.552 -0.0038  0.5829 -0.6405
  430MOL0     H58000   1.300  -1.007   1.393  1.0730  1.7232 -1.5957
  430MOL0     H58001   1.105  -0.734   1.572 -0.2018 -0.1463 -0.2384
  430MOL0     H58002   0.929  -0.583   1.484  0.6448 -0.2473 -0.7274
  430MOL0     H58003   0.962  -0.494   1.330  0.7623  1.8721  3.8412
  430MOL0     H58004   0.754  -0.714   1.374 -0.7950 -0.2873 -2.0608
  430MOL0     H58005   0.816  -0.662   1.216 -1.1446  0.5508 -0.3665
  430MOL0     H58006   0.740  -0.432   1.271 -1.5172  0.2622 -0.4827
  430MOL0     H58007   0.697  -0.494   1.435  1.9730  2.0178 -0.2274
  430MOL0     H58008   0.571  -0.582   1.166  1.5756 -0.0430  0.8410
  430MOL0     H58009   0.497  -0.473   1.293 -0.0428  0.5063  0.9713
  430MOL0     H58010   0.314  -0.559   1.174 -0.1606 -0.6900 -1.2020
  430MOL0     H58011  -0.021  -0.686   1.112  1.2204 -3.1963 -1.0116
  430MOL0     H58012   0.077  -0.546   1.157  0.7279  0.4513  1.7344
  430MOL0     H58013   0.114  -0.644   1.012 -0.5893  2.5564  0.5931
  430MOL0     H58014   0.074  -1.287   1.163 -0.0988  0.7815  0.8270
  430MOL0     H58015  -0.096  -1.469   1.086 -2.4242 -1.0212  1.6776
  430MOL0     H58016  -0.277  -1.426   0.834 -3.6183 -1.3350 -2.6283
  430MOL0     H58017  -0.217  -1.557   0.947  0.2399 -0.1351 -1.1263
  430MOL0     H58018  -0.376  -1.663   0.802 -2.4568  0.0354 -0.9164
  430MOL0     H58019  -0.408  -1.656   0.973 -1.5550  2.0227  1.0928
  430MOL0     H58020  -0.604  -1.539   0.930  1.1235  2.4660  0.6134
  430MOL0     H58021  -0.589  -1.616   0.777  2.6222 -0.3511 -0.9897
  430MOL0     H58022  -0.649  -1.377   0.766  0.4844  0.6166 -0.2560
  430MOL0     H58023  -0.480  -1.342   0.813  1.4794 -0.6002 -1.9764
  430MOL0     H58024  -0.563  -1.500   0.559  1.1642 -0.4293 -1.2754
  430MOL0     H58025  -0.402  -1.467   0.622  0.5507  1.8863  0.4555
  430MOL0     H58026  -0.598  -1.234   0.555  1.4057  2.7051  1.1866
  430MOL0     H58027  -0.429  -1.228   0.597 -1.1655 -1.6425  2.6112
  430MOL0     H58028  -0.544  -1.347   0.329  2.3209 -1.6106 -0.8855
  430MOL0     H58029  -0.383  -1.351   0.379 -0.2323 -0.8050  1.4544
  430MOL0     H58030  -0.525  -1.079   0.366  0.6438  1.3394 -3.1757
  430MOL0     H58031  -0.451  -1.142   0.220  0.8254  3.2473 -0.0563
  430MOL0     H58032  -0.400  -1.167   1.064  0.8708  2.1277 -1.2489
  430MOL0     H58033  -0.237  -0.999   1.181  0.1959 -0.2266  1.2937
  430MOL0     H58034   0.255  -1.030   1.319  1.8780 -0.7507 -1.6406
  430MOL0     H58035   0.461  -0.900   1.380 -2.4623 -3.2994  1.3404
  430MOL0     H58036   2.079  -0.205   1.099  1.7916 -2.1957 -0.3300
  430MOL0     H58037   2.276  -0.067   1.148 -1.2866 -2.3760 -1.8101
  430MOL0     H58038   2.655  -0.131   1.468  0.0637  0.0613 -2.1259
  430MOL0     H58039   2.880  -0.072   1.511 -1.5806  0.4039  2.7134
  430MOL0     H58040   3.080   0.017   1.582  0.7233  3.2302  3.9526
  430MOL0     H58041   3.109   0.038   1.406  2.2255  0.7496  0.1162
  430MOL0     H58042   3.249   0.184   1.631  1.2991 -2.1480 -0.0049
  430MOL0     H58043   3.225   0.259   1.466 -1.6177 -1.3212 -3.0761
  430MOL0     H58044   3.326   0.055   1.367  2.2679  2.3605 -0.2277
  430MOL0     H58045   3.354  -0.006   1.537  0.0407 -1.9569 -2.4675
  430MOL0     H58046   3.486   0.197   1.590  1.0098 -0.3440 -0.1345
  430MOL0     H58047   3.460   0.258   1.421 -1.0252  0.7043  2.0426
  430MOL0     H58048   3.728  -0.078   1.430 -2.1283 -1.1604  0.2488
  430MOL0     H58049   2.806   0.334   1.429 -0.5041 -0.1115 -2.8899
  430MOL0     H58050   2.584   0.272   1.353 -0.1213 -0.4670 -0.5396
  431MOL0     O58051   3.804   0.723   0.203 -0.3645 -0.1461  0.7472
  431MOL0     C58052   3.860   0.803   0.130  0.5246 -0.2194  0.3592
  431MOL0     O58053   3.803   0.883   0.049 -0.7353 -0.1557 -0.2582
  431MOL0     C58054   3.667   0.870   0.025 -0.5088 -0.4001  0.1806
  431MOL0     C58055   3.576   0.952   0.082  0.6641  0.2494  0.0824
  431MOL0     C58056   3.439   0.945   0.052  0.4822 -0.3977 -0.3525
  431MOL0     C58057   3.391   0.843  -0.027 -0.4952 -0.1970 -0.6015
  431MOL0     O58058   3.259   0.833  -0.052  0.3913 -0.1882  0.0851
  431MOL0     C58059   3.206   0.702  -0.063  0.2558  0.3656  0.8817
  431MOL0     C58060   3.058   0.706  -0.026 -0.2626 -0.4334 -0.1609
  431MOL0     C58061   2.988   0.561  -0.031 -0.3671  0.1023 -0.6549
  431MOL0     C58062   2.840   0.582  -0.030 -0.1177  0.5487  0.1913
  431MOL0     C58063   2.770   0.454  -0.007  0.1155 -0.3997 -1.0949
  431MOL0     C58064   2.620   0.472  -0.014  0.8567  0.0591 -0.3186
  431MOL0     C58065   2.558   0.432  -0.148 -0.3217  0.8955 -0.4136
  431MOL0     C58066   2.417   0.452  -0.145 -0.0659 -0.3672  0.4836
  431MOL0     N58067   2.363   0.458  -0.284 -0.3566 -0.0983 -0.0263
  431MOL0     C58068   2.243   0.431  -0.326  0.2900  0.5729 -0.0647
  431MOL0     C58069   2.217   0.497  -0.439  0.8461 -0.4743  0.6145
  431MOL0     C58070   2.087   0.480  -0.524  0.1618 -0.1978  0.7128
  431MOL0     C58071   2.091   0.546  -0.666  0.6431  0.2928 -0.7112
  431MOL0     C58072   2.203   0.507  -0.765 -0.4693 -0.1567 -0.7805
  431MOL0     C58073   2.180   0.370  -0.811 -0.1217 -0.5342 -0.1910
  431MOL0     O58074   2.308   0.309  -0.847 -0.8737  0.2745 -0.2379
  431MOL0     C58075   2.402   0.298  -0.750 -0.6740 -0.4290 -0.0919
  431MOL0     C58076   2.383   0.240  -0.626  0.5329  0.5280  0.0054
  431MOL0     C58077   2.484   0.235  -0.525  0.4460 -0.9310 -0.0943
  431MOL0     C58078   2.452   0.154  -0.401 -0.7803 -0.3672 -0.0113
  431MOL0     C58079   2.614   0.292  -0.553 -0.2374  0.0160 -0.7934
  431MOL0     C58080   2.731   0.288  -0.460 -0.0176  0.4694  0.7766
  431MOL0     O58081   2.840   0.360  -0.502  0.6445  0.1053  0.8096
  431MOL0     C58082   2.972   0.329  -0.461 -0.2046  0.7927 -0.5632
  431MOL0     C58083   3.029   0.205  -0.499  0.4350  0.5176 -0.3952
  431MOL0     C58084   3.162   0.170  -0.456  0.0824 -0.8205  0.4178
  431MOL0     C58085   3.241   0.268  -0.389 -0.0587 -0.0703 -0.3963
  431MOL0     O58086   3.371   0.260  -0.342 -0.7485  0.4976 -0.3596
  431MOL0     C58087   3.433   0.130  -0.351  0.3123  0.0995  0.4872
  431MOL0     C58088   3.572   0.151  -0.307 -0.0145 -1.3520 -0.0828
  431MOL0     C58089   3.675   0.032  -0.310  0.0140 -0.1530 -0.4931
  431MOL0     C58090   3.737   0.009  -0.445 -0.7160 -0.1869  0.5386
  431MOL0     C58091   3.835   0.118  -0.486  0.4661  0.1957  0.1697
  431MOL0     C58092   3.876   0.092  -0.635  0.2673  1.3338  0.9265
  431MOL0     C58093   3.968  -0.025  -0.652 -0.0238 -0.4671  0.1150
  431MOL0     C58094   4.014  -0.039  -0.792 -0.6710 -0.3746  0.7439
  431MOL0    Cl58095   4.114  -0.181  -0.794 -0.0567  0.0385  0.0276
  431MOL0     C58096   3.185   0.394  -0.364 -0.6906  0.1863 -0.6702
  431MOL0     C58097   3.047   0.422  -0.400 -1.1606  0.3899 -0.4427
  431MOL0     O58098   2.734   0.203  -0.372 -0.1159  0.5718 -0.1220
  431MOL0     C58099   2.629   0.351  -0.678 -0.6515  0.4726  0.8327
  431MOL0     C58100   2.523   0.358  -0.775  0.0220  0.6326  0.7478
  431MOL0     N58101   2.326   0.561  -0.479  0.0788 -0.5503 -0.6455
  431MOL0     N58102   2.409   0.526  -0.393 -0.0344 -0.3976 -0.1994
  431MOL0     C58103   3.481   0.751  -0.071 -0.0838  0.4211 -0.1080
  431MOL0     C58104   3.616   0.765  -0.053 -0.4538 -0.9413 -0.3706
  431MOL0     C58105   4.003   0.816   0.154  0.0878  0.3423  0.6554
  431MOL0     C58106   4.081   0.883   0.060 -1.0824 -0.4953 -0.2500
  431MOL0     C58107   4.220   0.902   0.081 -0.3905 -0.3242  0.0818
  431MOL0     C58108   4.278   0.859   0.203 -0.1572  0.5807  0.0106
  431MOL0     O58109   4.416   0.881   0.218  0.7894  0.2471  0.0990
  431MOL0     C58110   4.493   0.759   0.212 -0.1080  0.5070 -0.3471
  431MOL0     C58111   4.609   0.770   0.116  0.3907  0.3078  0.5626
  431MOL0     C58112   4.694   0.895   0.162  0.5531  0.4959 -0.4902
  431MOL0     C58113   4.837   0.885   0.112  0.4663 -0.4913  0.1248
  431MOL0     C58114   4.910   0.805   0.210 -0.1220 -0.6086 -0.0137
  431MOL0     C58115   4.968   0.746   0.293 -0.6010 -0.3557  0.1233
  431MOL0     C58116   4.206   0.788   0.299  0.4231  0.7602  0.2343
  431MOL0     C58117   4.065   0.771   0.278  0.2164 -0.0523 -0.4379
  431MOL0     H58118   3.613   1.037   0.139  0.3144  1.7139 -1.7651
  431MOL0     H58119   3.362   1.010   0.092  0.2799  0.0072 -1.3618
  431MOL0     H58120   3.209   0.652  -0.160  0.8274  2.7240 -0.3843
  431MOL0     H58121   3.256   0.637   0.010 -0.6198 -0.3918  0.8320
  431MOL0     H58122   3.050   0.731   0.080 -1.3175 -2.4022  0.2813
  431MOL0     H58123   3.006   0.781  -0.087  1.9792 -0.3758 -2.1567
  431MOL0     H58124   3.016   0.496  -0.115  1.9253 -0.6778  0.6165
  431MOL0     H58125   3.006   0.506   0.062 -1.4925  2.8185  1.3097
  431MOL0     H58126   2.802   0.653   0.044 -0.6108 -0.2872  0.7585
  431MOL0     H58127   2.818   0.616  -0.132  0.6514  0.1716 -0.1083
  431MOL0     H58128   2.811   0.380  -0.077  0.1360  0.2530 -1.7957
  431MOL0     H58129   2.779   0.420   0.096 -3.6559  0.3191 -0.3814
  431MOL0     H58130   2.574   0.417   0.068  3.5467  1.0512  2.0355
  431MOL0     H58131   2.596   0.574   0.020 -1.3871 -0.8828  1.1490
  431MOL0     H58132   2.595   0.496  -0.229 -0.3850  1.7495  0.2219
  431MOL0     H58133   2.582   0.326  -0.163  1.0844  1.0512  0.5117
  431MOL0     H58134   2.381   0.530  -0.077 -1.9486  2.3423 -3.2424
  431MOL0     H58135   2.379   0.359  -0.101  0.7834 -1.3017 -0.6937
  431MOL0     H58136   2.181   0.363  -0.268  2.7969 -1.0906  0.8171
  431MOL0     H58137   2.062   0.374  -0.536 -1.6821  0.3300 -0.3739
  431MOL0     H58138   2.015   0.535  -0.463  1.1894  0.0517  1.7475
  431MOL0     H58139   2.086   0.655  -0.656 -1.6326  0.0643  1.8107
  431MOL0     H58140   1.995   0.526  -0.713 -0.4808  0.1982  1.4923
  431MOL0     H58141   2.301   0.536  -0.725 -0.2272 -0.3646 -1.2089
  431MOL0     H58142   2.198   0.580  -0.845  1.4283  0.3710 -0.4701
  431MOL0     H58143   2.109   0.379  -0.894  0.3419  0.6388 -0.4728
  431MOL0     H58144   2.121   0.311  -0.740 -1.3017 -2.7812 -2.8447
  431MOL0     H58145   2.294   0.189  -0.591 -0.9172  2.1943 -1.1006
  431MOL0     H58146   2.530   0.078  -0.392 -2.2123 -2.1318 -1.5652
  431MOL0     H58147   2.435   0.203  -0.305 -0.9264 -2.7558  1.2570
  431MOL0     H58148   2.360   0.097  -0.419  0.0520 -1.3289 -1.4127
  431MOL0     H58149   2.966   0.133  -0.551  0.4804 -0.5672  0.9794
  431MOL0     H58150   3.208   0.075  -0.479  0.6991 -0.9443  2.0396
  431MOL0     H58151   3.385   0.055  -0.287 -0.1022 -1.0082 -1.0551
  431MOL0     H58152   3.435   0.093  -0.454 -3.3531  1.8729 -0.3774
  431MOL0     H58153   3.614   0.241  -0.353  1.4053 -1.5228  0.8138
  431MOL0     H58154   3.556   0.177  -0.202 -1.5549 -0.6219 -0.4780
  431MOL0     H58155   3.625  -0.057  -0.273  2.1142 -0.6716  1.3136
  431MOL0     H58156   3.757   0.053  -0.240 -1.4029  0.1321  1.1364
  431MOL0     H58157   3.789  -0.086  -0.431 -1.5327 -0.5033  1.5603
  431MOL0     H58158   3.659  -0.000  -0.521  0.0670 -1.6660 -0.1410
  431MOL0     H58159   3.919   0.118  -0.416  1.6013  0.7169 -1.1405
  431MOL0     H58160   3.789   0.217  -0.481 -1.7042 -0.7562  0.1413
  431MOL0     H58161   3.783   0.070  -0.690  0.9138  2.2686 -0.5934
  431MOL0     H58162   3.908   0.190  -0.670 -0.3310  1.2437  0.0816
  431MOL0     H58163   3.907  -0.116  -0.644  0.8479 -1.0035  0.8464
  431MOL0     H58164   4.050  -0.035  -0.581 -0.1178 -1.1596  0.1398
  431MOL0     H58165   4.074   0.049  -0.817 -1.0441 -0.2564  0.2671
  431MOL0     H58166   3.927  -0.041  -0.858 -1.2227  0.9880  1.3955
  431MOL0     H58167   3.255   0.462  -0.316  3.2303 -1.0558 -3.9912
  431MOL0     H58168   3.005   0.519  -0.377  0.2043  0.9381 -0.1914
  431MOL0     H58169   2.724   0.398  -0.704  1.4591 -1.9471  3.5357
  431MOL0     H58170   2.533   0.418  -0.865  1.5591 -2.1523 -1.0865
  431MOL0     H58171   3.439   0.685  -0.145 -0.7094 -0.7460  1.2439
  431MOL0     H58172   3.682   0.681  -0.072 -2.8270 -2.8692 -0.4168
  431MOL0     H58173   4.037   0.926  -0.029 -1.3920 -0.4668 -0.0837
  431MOL0     H58174   4.282   0.953   0.009 -0.2538 -0.0755  0.3742
  431MOL0     H58175   4.533   0.743   0.312 -0.9405 -1.2822 -0.2785
  431MOL0     H58176   4.426   0.676   0.191 -1.3552  0.9164  1.7682
  431MOL0     H58177   4.566   0.797   0.019  2.7770  0.2506 -0.5693
  431MOL0     H58178   4.668   0.678   0.116 -1.5258 -1.0014  0.0109
  431MOL0     H58179   4.685   0.912   0.269  0.3894  3.3239 -0.8670
  431MOL0     H58180   4.654   0.988   0.120  0.1386  0.4779 -0.1378
  431MOL0     H58181   4.894   0.978   0.111  0.7091 -0.6409 -0.0063
  431MOL0     H58182   4.836   0.848   0.009  1.8775  2.5375 -1.0995
  431MOL0     H58183   5.017   0.688   0.369  2.3542  1.5381 -0.1707
  431MOL0     H58184   4.246   0.760   0.395 -2.2692  0.0482  1.2511
  431MOL0     H58185   4.009   0.735   0.364  3.8295 -0.8892  1.7961
  432MOL0     O58186   5.712   8.679   1.022  0.1509 -0.2130  0.2260
  432MOL0     C58187   5.659   8.718   1.130 -0.0385  0.9175  0.8376
  432MOL0     O58188   5.526   8.739   1.148  0.4800  0.8344 -0.1743
  432MOL0     C58189   5.427   8.760   1.048 -0.2436 -1.1254  0.9412
  432MOL0     C58190   5.295   8.734   1.083  0.4802 -0.0095  0.4313
  432MOL0     C58191   5.197   8.723   0.988  0.1804  0.2885  0.5116
  432MOL0     C58192   5.212   8.749   0.848 -0.4557 -0.0462  0.0216
  432MOL0     O58193   5.115   8.730   0.760 -0.1973 -0.4529  0.2499
  432MOL0     C58194   5.124   8.754   0.620  0.7659  0.9412 -0.3854
  432MOL0     C58195   5.048   8.641   0.542 -0.2670  0.7047 -0.0664
  432MOL0     C58196   4.895   8.640   0.573 -0.0894 -0.0693 -0.8072
  432MOL0     C58197   4.811   8.545   0.480 -0.4520  0.5040 -0.9889
  432MOL0     C58198   4.668   8.516   0.517 -0.7080  0.3966  0.6130
  432MOL0     C58199   4.575   8.617   0.452  0.0111 -0.0047 -0.2278
  432MOL0     C58200   4.426   8.573   0.465  0.0634 -0.6211 -0.4364
  432MOL0     C58201   4.406   8.473   0.352  0.1677 -0.4326 -0.3888
  432MOL0     N58202   4.274   8.421   0.340  0.0421 -0.0171 -0.0601
  432MOL0     C58203   4.219   8.314   0.411 -0.0172  0.4437 -0.1885
  432MOL0     C58204   4.088   8.302   0.382  0.1322  0.2463  0.1217
  432MOL0     C58205   3.984   8.210   0.433 -0.2529  0.6218 -0.1510
  432MOL0     C58206   3.862   8.280   0.475  0.1891  0.0526  0.2486
  432MOL0     C58207   3.757   8.201   0.555 -0.0284 -0.0468  0.4514
  432MOL0     C58208   3.625   8.279   0.583  0.2115  0.2887 -0.2721
  432MOL0     O58209   3.524   8.183   0.631 -0.3392  1.1980 -0.6264
  432MOL0     C58210   3.393   8.225   0.645 -0.1955 -0.0842 -0.1389
  432MOL0     C58211   3.330   8.343   0.608  0.3521  0.2712  0.4760
  432MOL0     C58212   3.187   8.356   0.629  0.4202  0.2005  0.5311
  432MOL0     C58213   3.128   8.484   0.567  0.4757 -0.2895  0.3785
  432MOL0     C58214   3.111   8.251   0.684  0.6536  0.0508 -0.0696
  432MOL0     C58215   2.964   8.253   0.707  0.7891  0.6814 -0.0909
  432MOL0     O58216   2.902   8.132   0.725  0.1699 -0.3849  0.2416
  432MOL0     C58217   2.773   8.121   0.769 -0.1390 -0.1028 -0.7836
  432MOL0     C58218   2.745   8.065   0.895  0.0513  0.4421 -0.2256
  432MOL0     C58219   2.610   8.027   0.922 -1.1470  0.2204 -0.8166
  432MOL0     C58220   2.505   8.053   0.837  0.0922 -0.6717 -0.3170
  432MOL0     O58221   2.374   8.024   0.876 -0.7075  0.4062  0.2890
  432MOL0     C58222   2.268   8.113   0.848  0.2660 -0.1123 -0.5477
  432MOL0     C58223   2.141   8.060   0.927  0.3802 -0.1802  0.2930
  432MOL0     C58224   2.029   8.163   0.940  0.3306  0.0716  1.1763
  432MOL0     C58225   1.913   8.101   1.033 -0.3641 -0.4402  0.1389
  432MOL0     C58226   1.845   7.969   0.970  0.2323  0.3239 -0.1107
  432MOL0     C58227   1.740   7.896   1.066  0.0245 -0.3143  0.3224
  432MOL0     C58228   1.815   7.828   1.176  0.0255  1.7002 -0.8620
  432MOL0     C58229   1.720   7.761   1.277  0.5093  0.2422  0.0701
  432MOL0    Cl58230   1.640   7.625   1.205 -0.1123  0.4440 -0.0735
  432MOL0     C58231   2.536   8.099   0.710 -0.0371  0.3976 -0.5857
  432MOL0     C58232   2.668   8.141   0.675 -0.1585  0.4234  0.3427
  432MOL0     O58233   2.912   8.361   0.734  0.0233  0.1353 -0.1508
  432MOL0     C58234   3.175   8.130   0.711  0.2200 -0.4681  0.6048
  432MOL0     C58235   3.315   8.122   0.696  0.5966  0.1152 -0.3864
  432MOL0     N58236   4.054   8.399   0.291  0.3879  0.2990 -0.9042
  432MOL0     N58237   4.165   8.463   0.268 -0.0350 -0.0092  0.4051
  432MOL0     C58238   5.340   8.797   0.816  0.0784  0.7307 -0.0167
  432MOL0     C58239   5.450   8.796   0.905  0.7709  0.7354  0.8310
  432MOL0     C58240   5.758   8.734   1.239 -0.0306 -0.4969  0.4440
  432MOL0     C58241   5.705   8.769   1.363 -0.2293 -0.5970 -0.0329
  432MOL0     C58242   5.772   8.790   1.486 -0.3859 -0.1953 -0.0212
  432MOL0     C58243   5.903   8.765   1.479  0.6801  0.1224 -0.8226
  432MOL0     O58244   5.980   8.791   1.592 -0.1405  0.6547  0.0577
  432MOL0     C58245   6.114   8.738   1.613 -0.3861  0.0573 -0.1511
  432MOL0     C58246   6.154   8.748   1.762  0.2989 -0.7305  1.2104
  432MOL0     C58247   6.293   8.694   1.792  0.1173 -0.7974  0.2353
  432MOL0     C58248   6.375   8.816   1.820  0.0443  0.2661  0.2714
  432MOL0     C58249   6.506   8.760   1.861  0.1643  0.6506  0.5524
  432MOL0     C58250   6.614   8.713   1.898 -0.1694 -0.0495 -0.2309
  432MOL0     C58251   5.969   8.736   1.363 -0.9436  0.5024  0.0581
  432MOL0     C58252   5.907   8.719   1.243  0.1737  0.0069  0.5264
  432MOL0     H58253   5.266   8.722   1.186  1.3294 -1.8343  0.5015
  432MOL0     H58254   5.100   8.687   1.021  0.5855  1.5092  3.3724
  432MOL0     H58255   5.077   8.851   0.602 -1.0981 -0.0720 -1.2253
  432MOL0     H58256   5.227   8.760   0.584  0.4060  2.2079 -1.2830
  432MOL0     H58257   5.060   8.659   0.435  0.7893 -0.2091 -0.1133
  432MOL0     H58258   5.094   8.545   0.568  0.5253  1.0364 -0.2299
  432MOL0     H58259   4.879   8.600   0.673  0.6789 -1.9792 -1.4086
  432MOL0     H58260   4.854   8.740   0.556  0.3125 -0.3928 -4.3599
  432MOL0     H58261   4.812   8.585   0.378  3.1398 -0.7167 -1.5904
  432MOL0     H58262   4.858   8.448   0.495 -0.5518  0.6012 -0.0306
  432MOL0     H58263   4.650   8.413   0.485  0.5487  0.1052  0.8060
  432MOL0     H58264   4.670   8.521   0.626 -0.0589 -1.1539  0.7026
  432MOL0     H58265   4.599   8.710   0.503  0.8354 -1.2469  1.7812
  432MOL0     H58266   4.599   8.624   0.346 -1.2515 -2.5955 -0.7893
  432MOL0     H58267   4.411   8.547   0.570 -0.2103  2.2090  0.3215
  432MOL0     H58268   4.361   8.658   0.442 -0.3384 -0.2729  1.7637
  432MOL0     H58269   4.484   8.397   0.366  0.8644 -0.0603 -2.0416
  432MOL0     H58270   4.423   8.532   0.262  1.6014  1.9053  1.2912
  432MOL0     H58271   4.271   8.239   0.470  0.0225 -0.0486 -0.8358
  432MOL0     H58272   3.944   8.147   0.354 -2.6348  0.4277  1.1082
  432MOL0     H58273   4.020   8.144   0.513 -1.5338 -2.0960 -1.6482
  432MOL0     H58274   3.804   8.328   0.395  0.3764  0.7098  0.4977
  432MOL0     H58275   3.905   8.361   0.534 -1.0809 -0.1107  1.4340
  432MOL0     H58276   3.797   8.174   0.654 -0.2863  1.3441  0.9573
  432MOL0     H58277   3.725   8.108   0.507 -1.0566  0.6228 -0.1826
  432MOL0     H58278   3.586   8.330   0.495  0.6774 -0.3682 -0.8742
  432MOL0     H58279   3.648   8.358   0.655  1.0121 -0.0804 -0.1058
  432MOL0     H58280   3.384   8.430   0.571 -0.8575  1.7756  2.0832
  432MOL0     H58281   3.154   8.479   0.461  2.1167 -0.9790  0.7885
  432MOL0     H58282   3.021   8.493   0.590  0.7787  1.7165  1.2053
  432MOL0     H58283   3.174   8.574   0.608 -1.4233  1.4278 -1.0767
  432MOL0     H58284   2.821   8.056   0.972  0.6670  0.0608 -0.8692
  432MOL0     H58285   2.579   7.987   1.018 -1.1858 -0.1582 -0.9840
  432MOL0     H58286   2.301   8.211   0.884  3.4619 -0.5426 -1.9485
  432MOL0     H58287   2.239   8.135   0.745 -3.2953  2.1181  0.7238
  432MOL0     H58288   2.105   7.964   0.889  0.8174 -1.7357  3.4769
  432MOL0     H58289   2.170   8.039   1.030 -2.0998 -1.2743  0.8299
  432MOL0     H58290   1.986   8.187   0.842 -0.5620 -0.7744  1.3512
  432MOL0     H58291   2.067   8.254   0.986  2.9635  0.4642 -1.4778
  432MOL0     H58292   1.969   8.083   1.126  1.7779 -1.8488 -1.3343
  432MOL0     H58293   1.833   8.174   1.049 -0.0601 -0.2035  0.5878
  432MOL0     H58294   1.922   7.902   0.930  1.3774  1.2465  0.4967
  432MOL0     H58295   1.786   8.000   0.884 -1.2806 -1.7830  0.0855
  432MOL0     H58296   1.670   7.967   1.109  0.0550  0.7484 -1.2711
  432MOL0     H58297   1.690   7.819   1.006  1.2268  0.1779 -1.4216
  432MOL0     H58298   1.868   7.906   1.231  4.4289 -1.1357 -0.5713
  432MOL0     H58299   1.892   7.757   1.144 -0.4691  0.6947  0.1211
  432MOL0     H58300   1.637   7.823   1.312  1.4527 -0.1041  3.2717
  432MOL0     H58301   1.773   7.740   1.370 -0.5803 -1.6262  0.3324
  432MOL0     H58302   2.456   8.117   0.640 -0.6970 -0.1058  0.0281
  432MOL0     H58303   2.690   8.169   0.573  1.6170  2.9091  1.3342
  432MOL0     H58304   3.132   8.036   0.741 -0.6987 -0.5846 -0.9624
  432MOL0     H58305   3.355   8.026   0.727 -0.6977 -0.3066  0.0409
  432MOL0     H58306   5.375   8.826   0.718 -0.6182  0.6266 -0.3084
  432MOL0     H58307   5.546   8.832   0.871  1.3962 -2.3436 -0.9810
  432MOL0     H58308   5.601   8.797   1.376  0.1373 -0.1462  2.4604
  432MOL0     H58309   5.723   8.815   1.580  1.5723  0.4657  0.8819
  432MOL0     H58310   6.117   8.633   1.582 -2.6364 -0.3618  0.7996
  432MOL0     H58311   6.187   8.783   1.546 -2.9337  1.8871 -1.8774
  432MOL0     H58312   6.085   8.680   1.813  1.0316 -3.5261 -1.2185
  432MOL0     H58313   6.136   8.848   1.803 -1.7802 -1.5007  2.2673
  432MOL0     H58314   6.325   8.634   1.706 -1.4459  0.2441 -1.1304
  432MOL0     H58315   6.299   8.636   1.885  4.6100  2.1774  2.1356
  432MOL0     H58316   6.342   8.876   1.906  3.3802  3.9863 -0.7234
  432MOL0     H58317   6.408   8.871   1.732  0.2436  0.6781  0.5986
  432MOL0     H58318   6.710   8.687   1.938 -0.0635  0.3925 -0.1836
  432MOL0     H58319   6.078   8.743   1.361 -1.0078  2.2182  0.5261
  432MOL0     H58320   5.963   8.687   1.155 -1.1022  0.1314 -0.3580
  433MOL0     O58321   9.158   8.426   0.899  0.2264  0.2592 -0.0122
  433MOL0     C58322   9.162   8.445   1.018 -0.3169  0.1301 -0.8712
  433MOL0     O58323   9.104   8.368   1.111 -0.2231  0.3521  0.0576
  433MOL0     C58324   9.061   8.237   1.078  0.6113  0.1903  0.1223
  433MOL0     C58325   9.086   8.130   1.163  0.7114 -0.9044 -0.4578
  433MOL0     C58326   9.034   8.001   1.138 -0.1302 -0.0443  0.8679
  433MOL0     C58327   8.954   7.984   1.017  0.0308  0.5217  0.8979
  433MOL0     O58328   8.907   7.855   0.994  0.7242  0.3214 -0.3642
  433MOL0     C58329   8.805   7.817   0.900 -0.6530 -0.7110  0.1169
  433MOL0     C58330   8.662   7.873   0.934 -0.2536  0.0577  0.1602
  433MOL0     C58331   8.562   7.799   0.847  0.8684  0.6909  0.1959
  433MOL0     C58332   8.418   7.832   0.884 -0.0243 -0.2241 -0.0347
  433MOL0     C58333   8.310   7.789   0.779 -0.0937 -0.3108  0.2960
  433MOL0     C58334   8.183   7.879   0.808 -0.9348  0.9345  0.5188
  433MOL0     C58335   8.061   7.821   0.740 -0.2330  0.4483 -0.0183
  433MOL0     C58336   7.943   7.930   0.756 -0.8589  0.2722 -0.1515
  433MOL0     N58337   7.928   8.006   0.636 -0.0570  0.4533 -0.6414
  433MOL0     C58338   7.842   7.981   0.532  0.0194  0.4110 -0.1805
  433MOL0     C58339   7.869   8.082   0.452 -0.1536 -0.4002 -0.1204
  433MOL0     C58340   7.795   8.100   0.327  0.2799  0.8235  0.5117
  433MOL0     C58341   7.658   8.166   0.367  1.0365 -0.4192  0.5186
  433MOL0     C58342   7.548   8.159   0.265 -0.7146 -0.4494  0.1890
  433MOL0     C58343   7.432   8.246   0.302  0.3448  0.2522  0.0968
  433MOL0     O58344   7.352   8.254   0.184 -0.3559 -0.2509 -0.3115
  433MOL0     C58345   7.226   8.315   0.192 -0.7155 -0.3873  0.1917
  433MOL0     C58346   7.145   8.285   0.085  0.1760  0.0051 -0.3908
  433MOL0     C58347   7.017   8.333   0.079 -0.5739  0.0634 -0.2504
  433MOL0     C58348   6.928   8.285  -0.031  0.5128  0.2585 -0.3800
  433MOL0     C58349   6.962   8.416   0.184  0.4245 -0.3590  0.2441
  433MOL0     C58350   6.835   8.489   0.182  0.3434  0.4730  0.1546
  433MOL0     O58351   6.781   8.503   0.313  0.3671 -0.2993 -0.6308
  433MOL0     C58352   6.659   8.569   0.339 -0.4699 -0.1215 -0.6516
  433MOL0     C58353   6.603   8.668   0.260 -0.1008 -0.0901 -0.4992
  433MOL0     C58354   6.473   8.711   0.280 -0.2927  0.4741  0.2060
  433MOL0     C58355   6.402   8.685   0.404  1.1566  0.7271  0.3959
  433MOL0     O58356   6.279   8.729   0.447 -0.4699 -0.4558  0.0151
  433MOL0     C58357   6.192   8.773   0.334  0.6535  0.1283 -0.5264
  433MOL0     C58358   6.125   8.662   0.270 -0.4920  0.6250  1.0800
  433MOL0     C58359   6.038   8.580   0.371 -0.5111 -0.0495  0.3049
  433MOL0     C58360   5.924   8.502   0.307 -0.8554 -0.0255  0.1193
  433MOL0     C58361   5.966   8.385   0.227 -0.5806 -0.1787  0.4432
  433MOL0     C58362   5.847   8.346   0.139 -0.9482  0.3748  0.1349
  433MOL0     C58363   5.875   8.200   0.090  0.1960  0.1696  0.3723
  433MOL0     C58364   5.853   8.097   0.203 -0.1000 -0.5167 -0.4629
  433MOL0    Cl58365   5.849   7.929   0.126 -0.1221 -0.0659  0.7375
  433MOL0     C58366   6.471   8.602   0.489  0.2259 -0.1935 -0.4984
  433MOL0     C58367   6.589   8.538   0.453 -0.2181 -0.5872 -0.9844
  433MOL0     O58368   6.786   8.521   0.075  0.2051  0.4550  0.7058
  433MOL0     C58369   7.049   8.442   0.295 -0.0308  0.3945 -0.6804
  433MOL0     C58370   7.182   8.388   0.306  0.0612  0.7728 -0.6054
  433MOL0     N58371   7.981   8.148   0.495  0.2984  0.6296 -0.0809
  433MOL0     N58372   8.024   8.102   0.608  0.2403  0.0734 -0.7141
  433MOL0     C58373   8.920   8.090   0.938 -0.7434 -0.0635  0.5684
  433MOL0     C58374   8.972   8.215   0.973  0.2385  1.0591 -0.0287
  433MOL0     C58375   9.236   8.560   1.064  0.8639  0.1926 -0.1479
  433MOL0     C58376   9.245   8.678   0.991  0.2681 -0.0045 -0.0412
  433MOL0     C58377   9.314   8.790   1.037  0.1921  0.7771  1.5811
  433MOL0     C58378   9.407   8.776   1.138 -0.1890  0.2287  0.6954
  433MOL0     O58379   9.498   8.877   1.174  0.9882  0.2452 -0.2974
  433MOL0     C58380   9.493   8.996   1.097  0.4617 -0.4605  0.2714
  433MOL0     C58381   9.562   8.970   0.963 -0.1410 -0.4072 -0.1424
  433MOL0     C58382   9.548   9.082   0.859 -0.3768 -0.5555 -0.1260
  433MOL0     C58383   9.615   9.046   0.721  1.2239 -0.4557 -0.0182
  433MOL0     C58384   9.759   9.036   0.729  0.6353 -0.7170 -0.6939
  433MOL0     C58385   9.881   9.038   0.726 -0.2320 -0.2464 -0.4592
  433MOL0     C58386   9.409   8.646   1.202 -0.6880 -0.2900  0.5657
  433MOL0     C58387   9.312   8.550   1.171  0.0145  0.2471 -0.1770
  433MOL0     H58388   9.155   8.130   1.247  3.3407 -2.2263 -2.4690
  433MOL0     H58389   9.052   7.924   1.211  1.7497  0.3062  0.8138
  433MOL0     H58390   8.838   7.847   0.800  1.9152 -0.1793  1.0250
  433MOL0     H58391   8.805   7.708   0.901  3.3339 -0.9439  3.8378
  433MOL0     H58392   8.640   7.836   1.034 -2.2782  3.4076  1.1181
  433MOL0     H58393   8.669   7.982   0.934  2.7021 -0.0432  1.3456
  433MOL0     H58394   8.577   7.818   0.740  1.1444 -1.0094 -0.0947
  433MOL0     H58395   8.580   7.693   0.869 -3.5789 -0.0500  1.1361
  433MOL0     H58396   8.385   7.797   0.982  0.5560  1.3404  0.7387
  433MOL0     H58397   8.419   7.941   0.885  2.5674 -0.1783  0.0534
  433MOL0     H58398   8.351   7.817   0.681  0.4047 -1.3572  0.1907
  433MOL0     H58399   8.277   7.685   0.779  1.0814 -0.7404  2.5265
  433MOL0     H58400   8.165   7.896   0.915  1.2232  0.8032  0.9323
  433MOL0     H58401   8.203   7.982   0.775 -2.0433  1.6613  1.9895
  433MOL0     H58402   8.068   7.794   0.634 -1.7371 -2.9452  0.6202
  433MOL0     H58403   8.028   7.730   0.791  1.0433 -0.3863 -0.6211
  433MOL0     H58404   7.961   7.987   0.847 -2.3791  0.5731 -0.0180
  433MOL0     H58405   7.849   7.877   0.776 -2.1237  2.6338  0.4723
  433MOL0     H58406   7.767   7.903   0.523 -0.7107  1.0087  0.5082
  433MOL0     H58407   7.842   8.166   0.254 -0.0860  0.1763 -0.3307
  433MOL0     H58408   7.788   7.997   0.289  1.2994  1.6064 -1.9981
  433MOL0     H58409   7.669   8.271   0.396  1.5395 -0.4892  0.5966
  433MOL0     H58410   7.617   8.109   0.451 -0.1326 -0.2435  0.0789
  433MOL0     H58411   7.521   8.055   0.250 -0.9752 -0.8181  2.7126
  433MOL0     H58412   7.590   8.197   0.172 -0.2529 -2.4296 -0.4621
  433MOL0     H58413   7.462   8.347   0.330 -2.7029  2.1400 -2.7305
  433MOL0     H58414   7.372   8.197   0.379  0.1378  0.7481  0.2537
  433MOL0     H58415   7.195   8.241  -0.000 -1.1740  1.4003 -1.9704
  433MOL0     H58416   6.820   8.294  -0.015  0.1155  0.5823 -2.9383
  433MOL0     H58417   6.953   8.347  -0.117  1.4631  2.2401  1.2379
  433MOL0     H58418   6.937   8.178  -0.054 -2.4186  0.2245 -1.8650
  433MOL0     H58419   6.658   8.694   0.170  0.3833  0.2845 -0.0991
  433MOL0     H58420   6.428   8.759   0.193  0.5903 -0.8649 -1.0352
  433MOL0     H58421   6.105   8.827   0.371 -0.3496 -0.6228 -1.7200
  433MOL0     H58422   6.248   8.844   0.272  1.6557 -1.1551 -1.1608
  433MOL0     H58423   6.065   8.687   0.182  0.7821  0.9272  0.2724
  433MOL0     H58424   6.202   8.595   0.231  0.0677  1.4849  0.6778
  433MOL0     H58425   5.992   8.662   0.427 -0.8632 -0.0904  0.0760
  433MOL0     H58426   6.100   8.520   0.439  2.6189  1.3791 -1.0756
  433MOL0     H58427   5.862   8.452   0.382 -3.1932 -1.3480 -2.5260
  433MOL0     H58428   5.863   8.579   0.258 -0.0990  0.5307  0.0342
  433MOL0     H58429   5.995   8.296   0.284  0.7611  0.3205  0.5596
  433MOL0     H58430   6.050   8.410   0.163 -1.4042  0.6250 -0.3640
  433MOL0     H58431   5.757   8.337   0.201 -0.5534 -2.9137  0.4208
  433MOL0     H58432   5.834   8.414   0.055  0.5819 -1.5250 -1.7654
  433MOL0     H58433   5.973   8.188   0.043 -0.6732 -2.5872 -0.9602
  433MOL0     H58434   5.795   8.183   0.018 -0.2171  0.7157  0.6996
  433MOL0     H58435   5.771   8.119   0.273  1.9319 -3.1105  3.0337
  433MOL0     H58436   5.938   8.087   0.271  0.9302  2.0650 -1.2200
  433MOL0     H58437   6.423   8.578   0.583  2.2175  3.0145  1.5523
  433MOL0     H58438   6.627   8.473   0.531  0.3949 -0.3761 -1.1046
  433MOL0     H58439   7.012   8.506   0.375  0.0915 -1.2309  0.7303
  433MOL0     H58440   7.257   8.397   0.383  0.9980 -0.8519 -1.2766
  433MOL0     H58441   8.874   8.073   0.841  1.2587  0.2523 -0.5060
  433MOL0     H58442   8.937   8.300   0.916  0.2384  0.8204 -0.3847
  433MOL0     H58443   9.188   8.680   0.898  0.2855 -2.0374 -0.1480
  433MOL0     H58444   9.297   8.881   0.981 -1.9393  0.8958  2.3177
  433MOL0     H58445   9.393   9.039   1.082  0.9045 -0.1116 -2.1339
  433MOL0     H58446   9.560   9.069   1.144  0.9100  0.5271 -1.7528
  433MOL0     H58447   9.517   8.877   0.927 -1.6789  0.5721 -0.8785
  433MOL0     H58448   9.668   8.955   0.985 -0.3018  1.0689  1.9641
  433MOL0     H58449   9.583   9.180   0.895 -1.0856  0.0816 -1.1047
  433MOL0     H58450   9.442   9.111   0.851 -0.4824 -0.5188  1.2037
  433MOL0     H58451   9.589   9.128   0.654 -0.1355 -0.4331  0.5148
  433MOL0     H58452   9.567   8.955   0.683  0.3977 -0.1951  0.3873
  433MOL0     H58453   9.987   9.045   0.709 -0.3265  3.0284 -0.2573
  433MOL0     H58454   9.488   8.622   1.272 -0.4732  1.1795  0.8590
  433MOL0     H58455   9.304   8.460   1.231 -2.9357  0.8265  0.4381
  434MOL0     O58456   7.024   8.257   3.051  0.3057  0.2995  0.4342
  434MOL0     C58457   7.029   8.174   3.136 -0.1110  1.2833 -0.1640
  434MOL0     O58458   6.917   8.111   3.188  0.9272  0.8335  0.4467
  434MOL0     C58459   6.783   8.146   3.184 -0.4445  0.3315  0.0554
  434MOL0     C58460   6.689   8.044   3.214 -0.0037 -0.1518 -0.0750
  434MOL0     C58461   6.557   8.071   3.236 -0.4539 -0.1447 -0.0270
  434MOL0     C58462   6.509   8.205   3.223 -0.7220 -0.3514 -0.1803
  434MOL0     O58463   6.379   8.244   3.247  0.4148  0.6854 -0.6144
  434MOL0     C58464   6.284   8.155   3.305  0.4390 -0.5601  0.0731
  434MOL0     C58465   6.137   8.196   3.278  0.4197 -0.1663 -0.7454
  434MOL0     C58466   6.038   8.092   3.340  1.4401  0.4753  0.3531
  434MOL0     C58467   5.888   8.114   3.280 -0.7806  0.2547 -1.1436
  434MOL0     C58468   5.876   8.057   3.136  0.5347  0.0631 -0.2333
  434MOL0     C58469   5.792   8.144   3.047  0.0873 -0.5895  0.2009
  434MOL0     C58470   5.644   8.143   3.081 -0.4397 -0.0544  0.3913
  434MOL0     C58471   5.556   8.232   2.989  0.1159  0.3976  1.0107
  434MOL0     N58472   5.421   8.267   3.030 -0.3069 -0.2040 -0.0302
  434MOL0     C58473   5.392   8.363   3.115 -0.1402 -0.1854  0.3177
  434MOL0     C58474   5.273   8.334   3.152  0.5824 -0.7226  0.1264
  434MOL0     C58475   5.195   8.409   3.257 -0.3216  0.0675  0.3925
  434MOL0     C58476   5.142   8.548   3.205  0.2816 -0.4885 -1.2589
  434MOL0     C58477   5.243   8.662   3.171 -0.3798 -0.2800 -0.5093
  434MOL0     C58478   5.341   8.689   3.290 -0.1231  0.5727 -0.3364
  434MOL0     O58479   5.416   8.809   3.256  0.1788  0.4724 -0.0124
  434MOL0     C58480   5.362   8.938   3.273 -0.5482 -0.2863 -0.3199
  434MOL0     C58481   5.438   9.047   3.237 -0.0357 -0.4897 -0.3843
  434MOL0     C58482   5.392   9.176   3.270  0.8008 -0.0242  0.0442
  434MOL0     C58483   5.471   9.294   3.233  0.4060 -1.1501  0.0871
  434MOL0     C58484   5.262   9.185   3.332  0.1444  0.1056  0.4378
  434MOL0     C58485   5.212   9.317   3.368 -0.4337 -0.1788  0.7736
  434MOL0     O58486   5.116   9.315   3.464  0.3723  0.5583 -0.6445
  434MOL0     C58487   5.066   9.433   3.513  0.1836 -0.1415 -0.0608
  434MOL0     C58488   5.129   9.558   3.525 -0.7567 -0.5824 -0.6252
  434MOL0     C58489   5.068   9.670   3.560  0.1048 -0.5416 -0.0162
  434MOL0     C58490   4.930   9.673   3.592 -0.0760 -0.2716  0.2320
  434MOL0     O58491   4.856   9.776   3.645  0.5381 -0.1197 -0.5205
  434MOL0     C58492   4.903   9.910   3.635  0.7992 -0.6085 -0.1951
  434MOL0     C58493   4.780  10.007   3.626 -0.0821 -0.0261  0.0354
  434MOL0     C58494   4.713  10.005   3.486 -0.1430 -0.5817 -0.4617
  434MOL0     C58495   4.564  10.019   3.514  0.0996  0.3412  1.1209
  434MOL0     C58496   4.485  10.036   3.387  0.0620  0.1504 -0.1728
  434MOL0     C58497   4.345  10.057   3.428 -0.3937 -0.0158 -0.9098
  434MOL0     C58498   4.261  10.066   3.300  0.1536 -0.2157  0.5214
  434MOL0     C58499   4.118  10.104   3.329  1.2487 -0.4765  0.0642
  434MOL0    Cl58500   4.029   9.955   3.365 -0.3257  0.1791  0.1962
  434MOL0     C58501   4.867   9.541   3.581  0.6112 -0.8615  0.3079
  434MOL0     C58502   4.930   9.427   3.539  0.3024 -0.0074  0.1324
  434MOL0     O58503   5.244   9.414   3.305  0.5994 -0.1147  1.1371
  434MOL0     C58504   5.190   9.075   3.363 -0.2154 -0.3106 -0.0808
  434MOL0     C58505   5.233   8.954   3.341  0.7781 -0.1800 -0.4929
  434MOL0     N58506   5.221   8.226   3.085  0.1229  0.2673 -0.2623
  434MOL0     N58507   5.322   8.180   3.010  0.3173 -0.1161 -0.4506
  434MOL0     C58508   6.599   8.309   3.201 -0.5101 -0.1934 -0.5033
  434MOL0     C58509   6.738   8.282   3.174 -1.0918  0.4719  0.5759
  434MOL0     C58510   7.156   8.146   3.203  0.6690  0.7115 -0.6657
  434MOL0     C58511   7.194   8.025   3.271  0.0054  0.0110 -0.4523
  434MOL0     C58512   7.331   7.999   3.307 -0.4310 -0.0799  0.3087
  434MOL0     C58513   7.421   8.100   3.288  0.2558  0.3917 -0.1605
  434MOL0     O58514   7.553   8.079   3.338  0.3015 -0.1336  0.5287
  434MOL0     C58515   7.648   8.185   3.358 -0.5548  0.2134  0.3642
  434MOL0     C58516   7.764   8.172   3.255  0.1255  0.4742 -0.3288
  434MOL0     C58517   7.859   8.057   3.283 -0.3491 -0.5285 -0.0082
  434MOL0     C58518   7.977   8.061   3.187  1.4044 -0.5647  0.2326
  434MOL0     C58519   8.076   7.958   3.213  0.5905 -0.5703 -0.2614
  434MOL0     C58520   8.142   7.862   3.230 -0.1839  0.1999  0.3705
  434MOL0     C58521   7.388   8.218   3.224 -0.0154  0.1049 -0.4875
  434MOL0     C58522   7.260   8.246   3.183  0.0997 -0.5767 -0.6156
  434MOL0     H58523   6.731   7.944   3.224  1.6305  0.2809 -2.1010
  434MOL0     H58524   6.487   7.995   3.268 -1.3358  1.2609  1.5632
  434MOL0     H58525   6.284   8.055   3.261 -1.9567 -0.1302 -1.0902
  434MOL0     H58526   6.305   8.149   3.412  1.6960 -1.8062 -0.2209
  434MOL0     H58527   6.122   8.298   3.317 -0.2743 -0.7520  0.5916
  434MOL0     H58528   6.121   8.194   3.170 -2.6862 -4.9125 -0.4972
  434MOL0     H58529   6.059   7.986   3.325  1.1279  0.1957  1.7363
  434MOL0     H58530   6.036   8.107   3.448  1.7418  0.4691  0.3600
  434MOL0     H58531   5.820   8.074   3.356 -1.3081 -2.5933 -2.9661
  434MOL0     H58532   5.877   8.222   3.286  3.0477  0.8687 -2.3124
  434MOL0     H58533   5.970   8.045   3.081  0.6969  0.6477 -0.0917
  434MOL0     H58534   5.831   7.958   3.149  1.2388 -0.2270  0.0616
  434MOL0     H58535   5.833   8.245   3.040 -1.5242  0.2169  1.5783
  434MOL0     H58536   5.806   8.087   2.954  1.8458 -0.7221  0.5106
  434MOL0     H58537   5.603   8.041   3.078 -1.5943  0.3868  0.4929
  434MOL0     H58538   5.635   8.177   3.184  2.1537 -1.8449  1.2971
  434MOL0     H58539   5.556   8.183   2.892  0.6255  0.4064  1.0009
  434MOL0     H58540   5.605   8.330   2.986 -2.2474  1.6368 -0.5266
  434MOL0     H58541   5.460   8.439   3.150  1.1104  0.3052 -2.8310
  434MOL0     H58542   5.109   8.352   3.292 -0.1562  0.0461  0.7704
  434MOL0     H58543   5.258   8.423   3.345  1.1600 -1.4026 -0.3855
  434MOL0     H58544   5.077   8.581   3.286 -0.8098  0.2887 -2.4245
  434MOL0     H58545   5.074   8.530   3.122  1.3676  0.8082 -2.4892
  434MOL0     H58546   5.190   8.752   3.138  0.7489  1.3002  1.6956
  434MOL0     H58547   5.295   8.634   3.078 -0.9524 -0.5901 -0.7413
  434MOL0     H58548   5.414   8.608   3.297  0.5265  1.2274  0.6058
  434MOL0     H58549   5.281   8.685   3.382 -2.0139 -3.1496 -1.5159
  434MOL0     H58550   5.539   9.035   3.198  0.0892  0.3376 -0.3377
  434MOL0     H58551   5.575   9.265   3.213  0.0509 -0.4183 -3.3695
  434MOL0     H58552   5.440   9.330   3.135  0.7400 -0.1627  0.3320
  434MOL0     H58553   5.471   9.372   3.309  1.3968 -0.9791 -0.0717
  434MOL0     H58554   5.233   9.567   3.494 -0.0195 -2.8152  0.9138
  434MOL0     H58555   5.127   9.761   3.549  0.6759 -1.1583 -2.5997
  434MOL0     H58556   4.964   9.936   3.723  2.1572 -3.7048 -0.1208
  434MOL0     H58557   4.963   9.924   3.545  0.4175  1.0498 -0.2368
  434MOL0     H58558   4.703   9.976   3.697 -1.1322 -0.3825 -1.2090
  434MOL0     H58559   4.805  10.108   3.658  2.2100 -1.0101  1.5850
  434MOL0     H58560   4.739   9.914   3.430 -1.0782 -1.3345  0.2951
  434MOL0     H58561   4.747  10.092   3.430 -1.7272 -0.4504 -1.2639
  434MOL0     H58562   4.525   9.937   3.575 -0.3265 -0.3723 -0.0834
  434MOL0     H58563   4.552  10.113   3.570  0.6380  0.3485  1.2311
  434MOL0     H58564   4.504   9.938   3.342  2.7444  0.2607  0.5272
  434MOL0     H58565   4.526  10.121   3.332  0.5548  0.5992  0.8639
  434MOL0     H58566   4.316   9.976   3.496  2.2078  0.6346  1.1335
  434MOL0     H58567   4.332  10.155   3.474 -1.3585 -1.2512  1.6650
  434MOL0     H58568   4.271   9.968   3.254  1.8325 -0.7551  1.9448
  434MOL0     H58569   4.301  10.129   3.220 -2.7801  0.1765 -0.7826
  434MOL0     H58570   4.072  10.136   3.235  0.8668 -0.2312  0.3319
  434MOL0     H58571   4.102  10.187   3.399  1.7417 -0.1701 -0.1786
  434MOL0     H58572   4.762   9.545   3.610  0.7049 -0.5994  0.6128
  434MOL0     H58573   4.872   9.338   3.515 -0.5142  0.0591  1.7354
  434MOL0     H58574   5.087   9.088   3.394 -0.2711 -2.2959  0.7375
  434MOL0     H58575   5.184   8.866   3.383 -0.9125  0.7652 -0.3984
  434MOL0     H58576   6.567   8.412   3.213  0.7614  0.0126  1.5997
  434MOL0     H58577   6.805   8.367   3.183 -0.8302  0.3533 -0.1667
  434MOL0     H58578   7.115   7.952   3.290 -1.2193  1.3787 -0.1377
  434MOL0     H58579   7.368   7.907   3.351 -0.7119 -0.2863  0.1129
  434MOL0     H58580   7.605   8.286   3.358  1.1230  1.0211  2.2763
  434MOL0     H58581   7.691   8.166   3.457 -2.5106  1.0759  1.4460
  434MOL0     H58582   7.821   8.266   3.259  1.4313 -0.2836 -0.7361
  434MOL0     H58583   7.727   8.170   3.152  1.4277  0.7396 -0.8168
  434MOL0     H58584   7.797   7.968   3.266 -2.3034  1.0349 -1.6770
  434MOL0     H58585   7.903   8.069   3.382  2.0247  0.7710 -1.1524
  434MOL0     H58586   8.014   8.164   3.192 -0.1392 -0.0112  0.6172
  434MOL0     H58587   7.940   8.044   3.086 -0.6204 -0.1023  0.8603
  434MOL0     H58588   8.206   7.777   3.222 -1.7501 -1.2702  2.3923
  434MOL0     H58589   7.468   8.290   3.206 -0.2522  1.8902  4.2100
  434MOL0     H58590   7.237   8.339   3.133  2.1089  2.8602  4.0812
  435MOL0     O58591   1.339   5.572   5.966 -0.2745  0.5245  0.1294
  435MOL0     C58592   1.287   5.463   5.954  0.8956  0.7048  0.7614
  435MOL0     O58593   1.154   5.432   5.968  0.3670 -0.1040  0.6891
  435MOL0     C58594   1.053   5.523   5.967  0.1902  0.6741  0.4289
  435MOL0     C58595   1.062   5.654   5.919 -0.1753 -0.0846 -0.5586
  435MOL0     C58596   0.953   5.731   5.929  1.0255  0.0763  0.1888
  435MOL0     C58597   0.830   5.681   5.986  0.5730  0.5187 -0.1663
  435MOL0     O58598   0.715   5.750   6.007 -0.4243  0.1723 -0.4915
  435MOL0     C58599   0.699   5.868   5.937 -0.1140 -0.6976  0.3565
  435MOL0     C58600   0.554   5.930   5.956 -0.0885 -0.3390 -0.5796
  435MOL0     C58601   0.444   5.863   5.864  0.1846  0.1078  0.1150
  435MOL0     C58602   0.308   5.907   5.917  0.3593 -0.5538  0.3317
  435MOL0     C58603   0.191   5.865   5.832  0.4727  0.7639 -0.5250
  435MOL0     C58604   0.055   5.882   5.905  0.8104  0.3413 -0.0026
  435MOL0     C58605  -0.051   5.809   5.829  0.5357 -0.4080 -0.7635
  435MOL0     C58606  -0.180   5.778   5.898 -0.0936 -0.5560  0.6649
  435MOL0     N58607  -0.265   5.886   5.941  0.0359 -0.6563  0.4085
  435MOL0     C58608  -0.237   5.980   6.032  1.0851 -0.3225 -0.4653
  435MOL0     C58609  -0.348   6.053   6.042  0.1993 -0.2464 -0.2500
  435MOL0     C58610  -0.375   6.163   6.136  0.3800 -0.0477 -0.3386
  435MOL0     C58611  -0.414   6.301   6.071  0.2004 -0.4446 -0.4173
  435MOL0     C58612  -0.437   6.405   6.176  0.7374 -0.1318 -0.9686
  435MOL0     C58613  -0.458   6.549   6.127 -0.0418 -0.1586 -0.3980
  435MOL0     O58614  -0.543   6.560   6.011  0.7286  0.2163 -0.2089
  435MOL0     C58615  -0.679   6.567   6.027 -0.3522 -0.2924 -0.7439
  435MOL0     C58616  -0.750   6.659   6.100 -0.1597 -0.0100 -0.3449
  435MOL0     C58617  -0.882   6.674   6.091  1.0170 -0.4792  0.1097
  435MOL0     C58618  -0.947   6.785   6.176  0.0619  0.7339  0.2628
  435MOL0     C58619  -0.956   6.589   6.006 -0.5911  0.0033 -0.4873
  435MOL0     C58620  -1.104   6.578   6.002  0.6583  0.3270 -0.3531
  435MOL0     O58621  -1.152   6.490   5.918  0.3028 -0.2925  0.3552
  435MOL0     C58622  -1.288   6.492   5.901 -0.6197 -0.1568  0.3490
  435MOL0     C58623  -1.378   6.417   5.986  0.1239 -0.4592 -0.1669
  435MOL0     C58624  -1.511   6.420   5.948  0.1734 -0.6645  0.1610
  435MOL0     C58625  -1.556   6.503   5.843 -0.1603 -0.0943  0.0929
  435MOL0     O58626  -1.682   6.524   5.809  0.7328  0.5867 -0.6799
  435MOL0     C58627  -1.741   6.636   5.883  0.2530  0.2072  0.1493
  435MOL0     C58628  -1.887   6.644   5.863  0.8503 -0.7324  0.1335
  435MOL0     C58629  -1.946   6.749   5.947 -0.4056  0.4112  0.5935
  435MOL0     C58630  -2.098   6.763   5.923 -0.5090  0.5579  0.5464
  435MOL0     C58631  -2.182   6.836   6.025  0.1857  0.3994  0.1865
  435MOL0     C58632  -2.326   6.877   5.993 -0.5244  0.0534  0.4778
  435MOL0     C58633  -2.392   6.924   6.126 -0.6670  0.9332  0.4404
  435MOL0     C58634  -2.518   6.996   6.100 -0.2296 -0.0749  0.0848
  435MOL0    Cl58635  -2.639   6.928   5.978 -0.2656 -0.2893  0.2694
  435MOL0     C58636  -1.466   6.582   5.770 -0.7169  0.2338  0.4503
  435MOL0     C58637  -1.328   6.574   5.798  0.1603 -0.1405 -0.1453
  435MOL0     O58638  -1.175   6.647   6.069 -0.1147 -0.3988  0.0224
  435MOL0     C58639  -0.884   6.494   5.931  0.1500 -0.0295 -0.4916
  435MOL0     C58640  -0.744   6.479   5.947  0.1891  0.3606 -0.0427
  435MOL0     N58641  -0.453   5.996   5.969 -0.6153 -0.5220 -0.0725
  435MOL0     N58642  -0.399   5.894   5.912  0.1398  0.5126  0.1083
  435MOL0     C58643   0.822   5.554   6.041 -0.4852 -0.0183  0.2095
  435MOL0     C58644   0.933   5.475   6.024 -0.5033 -0.7631 -0.5752
  435MOL0     C58645   1.379   5.347   5.947  0.3224  0.1997  0.2401
  435MOL0     C58646   1.519   5.365   5.945 -0.7812 -0.4034  0.4845
  435MOL0     C58647   1.609   5.252   5.934  0.4163 -0.2745  0.0497
  435MOL0     C58648   1.554   5.123   5.917 -0.7559  0.7267  0.7669
  435MOL0     O58649   1.634   5.011   5.890 -0.1409 -0.5673 -0.2955
  435MOL0     C58650   1.774   5.019   5.911  0.0529 -0.8296  0.4615
  435MOL0     C58651   1.782   4.982   6.057 -0.4154  0.0109 -1.0024
  435MOL0     C58652   1.929   4.940   6.095 -0.1772  0.0368 -0.5448
  435MOL0     C58653   2.046   5.023   6.055 -0.4267  0.2749  0.2368
  435MOL0     C58654   2.039   5.155   6.116 -0.1631 -0.5081  0.0867
  435MOL0     C58655   2.058   5.251   6.177 -0.6316  0.0037 -1.4925
  435MOL0     C58656   1.419   5.110   5.915 -0.7505  0.2750 -0.6408
  435MOL0     C58657   1.329   5.210   5.927  0.9563 -0.7717 -0.3800
  435MOL0     H58658   1.159   5.694   5.889  0.4740  0.5042  2.1074
  435MOL0     H58659   0.964   5.838   5.923 -0.1297  0.3008  1.5312
  435MOL0     H58660   0.772   5.941   5.973 -1.2789  0.1049  1.1739
  435MOL0     H58661   0.719   5.841   5.833  1.5641  1.5739  0.0196
  435MOL0     H58662   0.522   5.921   6.060 -0.5403  2.5424 -0.3923
  435MOL0     H58663   0.550   6.040   5.951 -0.5109 -0.3754 -1.2244
  435MOL0     H58664   0.454   5.905   5.763  0.6077 -1.0435 -0.3444
  435MOL0     H58665   0.456   5.755   5.852 -1.0059  0.0783 -0.9923
  435MOL0     H58666   0.300   5.863   6.017 -0.1084 -1.5514 -0.1284
  435MOL0     H58667   0.307   6.016   5.929  0.6412 -0.8029  3.4787
  435MOL0     H58668   0.184   5.917   5.736 -1.4450 -0.2763 -0.9886
  435MOL0     H58669   0.204   5.760   5.803  4.3270  0.3266  2.0010
  435MOL0     H58670   0.052   5.838   6.005  1.5414  1.5199  0.5695
  435MOL0     H58671   0.038   5.990   5.900  3.3443  0.7732 -0.3884
  435MOL0     H58672  -0.068   5.866   5.737  0.9434 -1.0060 -1.2156
  435MOL0     H58673  -0.005   5.715   5.798  0.8772 -1.0109  1.4006
  435MOL0     H58674  -0.159   5.705   5.976  1.6815 -2.1534 -1.1850
  435MOL0     H58675  -0.237   5.724   5.822  0.9337  3.0659 -3.0629
  435MOL0     H58676  -0.139   6.003   6.072  1.8022 -0.6732 -1.9662
  435MOL0     H58677  -0.456   6.136   6.205 -1.4365  2.9549 -1.0937
  435MOL0     H58678  -0.288   6.189   6.198 -0.4980  2.7191 -0.1292
  435MOL0     H58679  -0.508   6.279   6.019  0.0356  1.0597 -0.7880
  435MOL0     H58680  -0.328   6.329   6.011  1.5278 -0.8786  1.2039
  435MOL0     H58681  -0.356   6.400   6.250  0.6926 -0.3111 -0.9322
  435MOL0     H58682  -0.535   6.378   6.217  1.1670  1.3217  1.1824
  435MOL0     H58683  -0.357   6.579   6.097  0.2196 -1.6612 -1.1687
  435MOL0     H58684  -0.489   6.614   6.209  1.1180  1.5443 -1.2582
  435MOL0     H58685  -0.697   6.724   6.169 -0.6237  2.0517 -1.8368
  435MOL0     H58686  -1.025   6.745   6.241 -2.3189  1.3237 -2.0805
  435MOL0     H58687  -0.866   6.828   6.235  1.7004  2.5805 -3.0530
  435MOL0     H58688  -0.995   6.862   6.115  3.3462  0.6030 -2.8521
  435MOL0     H58689  -1.343   6.351   6.065 -0.0568 -0.1424  0.1821
  435MOL0     H58690  -1.589   6.350   5.979  0.8726 -1.2273  0.6813
  435MOL0     H58691  -1.730   6.623   5.991 -0.4901  0.3579  0.2497
  435MOL0     H58692  -1.689   6.725   5.845  2.2732 -0.1936  1.8194
  435MOL0     H58693  -1.923   6.665   5.762  1.5923  2.0710  0.3565
  435MOL0     H58694  -1.926   6.550   5.905 -2.5978  0.0233 -1.0205
  435MOL0     H58695  -1.900   6.845   5.922  2.9682 -1.9026 -3.4016
  435MOL0     H58696  -1.933   6.726   6.054 -0.3235  2.8657  1.1742
  435MOL0     H58697  -2.101   6.805   5.822  3.3274  1.8869  0.8079
  435MOL0     H58698  -2.141   6.663   5.928  1.4120 -0.2672  3.2350
  435MOL0     H58699  -2.124   6.926   6.048 -0.0706  0.0211  2.5843
  435MOL0     H58700  -2.184   6.775   6.116 -0.8030 -1.1734 -0.8395
  435MOL0     H58701  -2.332   6.953   5.914  0.1673  0.2128  0.5672
  435MOL0     H58702  -2.384   6.786   5.971 -3.2623  0.6622  4.2627
  435MOL0     H58703  -2.334   6.983   6.197 -1.7089 -0.1016  2.2222
  435MOL0     H58704  -2.409   6.829   6.177  3.4079  0.0431  0.4685
  435MOL0     H58705  -2.484   7.091   6.059  3.1770 -1.2195 -0.0303
  435MOL0     H58706  -2.574   7.011   6.194 -0.7313  2.5050 -0.5466
  435MOL0     H58707  -1.503   6.645   5.690 -1.2383 -0.4428  0.1524
  435MOL0     H58708  -1.248   6.631   5.752 -0.7774 -0.0854 -1.7786
  435MOL0     H58709  -0.931   6.420   5.868 -0.7376  0.4102 -0.3672
  435MOL0     H58710  -0.690   6.405   5.889  1.6525  0.3207  1.3054
  435MOL0     H58711   0.734   5.507   6.084 -0.2632 -1.5790 -0.9105
  435MOL0     H58712   0.937   5.372   6.058  0.1591 -0.0728  1.6113
  435MOL0     H58713   1.562   5.463   5.928 -0.2375 -0.9077 -1.3128
  435MOL0     H58714   1.715   5.272   5.940  0.5041 -1.2383  3.5740
  435MOL0     H58715   1.823   4.939   5.855 -2.0029 -1.3799 -0.6447
  435MOL0     H58716   1.815   5.114   5.875 -3.1659 -0.3018 -2.3641
  435MOL0     H58717   1.697   4.922   6.088 -0.1323  1.6848  3.7630
  435MOL0     H58718   1.742   5.070   6.108  2.3391 -0.3901  2.2109
  435MOL0     H58719   1.941   4.842   6.048  0.8522  0.8286 -1.9831
  435MOL0     H58720   1.944   4.931   6.203  1.9203 -3.0522 -0.9720
  435MOL0     H58721   2.048   5.041   5.947 -0.2219  1.5810  0.4388
  435MOL0     H58722   2.138   4.966   6.069 -0.0385 -0.8639 -4.9447
  435MOL0     H58723   2.069   5.334   6.244  1.0968 -0.8718 -0.6357
  435MOL0     H58724   1.394   5.005   5.911  1.1680 -0.5631  3.4029
  435MOL0     H58725   1.222   5.189   5.926  0.7056  0.4025 -1.4072
  436MOL0     O58726   9.088  10.647   4.258 -0.0774  0.3479 -0.4018
  436MOL0     C58727   9.157  10.631   4.354 -0.4073  0.7453 -0.6053
  436MOL0     O58728   9.129  10.559   4.464 -0.7834  0.2519 -0.1328
  436MOL0     C58729   9.027  10.477   4.471  0.2880  0.3816  0.4373
  436MOL0     C58730   8.948  10.481   4.584 -0.4509  0.9139 -0.8423
  436MOL0     C58731   8.839  10.400   4.602  0.4852 -0.3141  0.7840
  436MOL0     C58732   8.796  10.319   4.499  0.2525  0.3809 -0.6661
  436MOL0     O58733   8.684  10.242   4.512  0.6475  0.9211 -0.4647
  436MOL0     C58734   8.689  10.153   4.628  0.3323  0.6034 -0.5677
  436MOL0     C58735   8.556  10.081   4.661  0.0601  0.6056  0.3615
  436MOL0     C58736   8.433  10.163   4.639  0.3529 -0.5344 -0.0792
  436MOL0     C58737   8.310  10.088   4.690  0.3015 -0.8012  0.3131
  436MOL0     C58738   8.179  10.167   4.698  1.2262  0.8715 -0.0727
  436MOL0     C58739   8.064  10.075   4.758 -1.0020  0.1594 -0.3530
  436MOL0     C58740   7.941  10.142   4.806 -0.4784 -0.2830  0.6233
  436MOL0     C58741   7.935  10.193   4.950 -1.1989  0.5399 -0.2778
  436MOL0     N58742   7.988  10.328   4.968 -0.8649 -0.8556 -0.0831
  436MOL0     C58743   8.105  10.362   5.017  0.2000 -0.9233  0.0486
  436MOL0     C58744   8.115  10.498   5.014 -0.2142 -0.5406  1.0487
  436MOL0     C58745   8.232  10.579   5.038  0.0173 -0.4023  0.2743
  436MOL0     C58746   8.303  10.608   4.913  0.6301  0.2666  0.6401
  436MOL0     C58747   8.411  10.713   4.938  0.5930 -0.6647 -0.5278
  436MOL0     C58748   8.473  10.775   4.811 -0.1005 -0.3776  0.3086
  436MOL0     O58749   8.563  10.885   4.849 -0.4797  0.3029 -0.0973
  436MOL0     C58750   8.528  11.012   4.800  0.1813 -0.4583 -0.0176
  436MOL0     C58751   8.607  11.076   4.706  0.3014 -0.2129  0.0069
  436MOL0     C58752   8.563  11.193   4.646 -0.6701 -1.0953 -0.0696
  436MOL0     C58753   8.654  11.267   4.548  0.9305  0.3260 -0.2239
  436MOL0     C58754   8.441  11.247   4.684 -0.3788 -0.8641 -0.1394
  436MOL0     C58755   8.375  11.376   4.633  0.7331 -0.2017 -0.2771
  436MOL0     O58756   8.383  11.487   4.707 -0.0804 -0.1666  0.3032
  436MOL0     C58757   8.305  11.592   4.683  1.1159  0.6237  0.2260
  436MOL0     C58758   8.342  11.683   4.591 -0.1345  0.2664 -0.0617
  436MOL0     C58759   8.274  11.798   4.570 -0.0076  0.5837  0.4306
  436MOL0     C58760   8.156  11.827   4.642 -0.0099  1.1425  0.5769
  436MOL0     O58761   8.088  11.948   4.631  0.1633 -0.2447  0.2873
  436MOL0     C58762   8.166  12.058   4.609  0.5511 -0.8753  0.3121
  436MOL0     C58763   8.082  12.175   4.644  0.9244 -0.3978  0.1196
  436MOL0     C58764   7.960  12.186   4.550  0.9395  0.0293  0.8188
  436MOL0     C58765   7.833  12.251   4.621  0.6293  0.1521  0.2779
  436MOL0     C58766   7.787  12.161   4.740 -0.5526 -0.2624  0.8808
  436MOL0     C58767   7.634  12.167   4.744 -0.3423 -0.0133  1.0319
  436MOL0     C58768   7.569  12.062   4.833  0.4875  0.3999  0.2399
  436MOL0     C58769   7.525  11.939   4.749  0.3538  0.1910  0.2219
  436MOL0    Cl58770   7.417  11.822   4.846  0.3763 -0.3048  0.1099
  436MOL0     C58771   8.108  11.732   4.733  0.0264 -0.6759  0.3764
  436MOL0     C58772   8.184  11.610   4.753 -0.5891  0.2083 -0.3740
  436MOL0     O58773   8.312  11.364   4.529 -0.6031 -0.8618  0.2053
  436MOL0     C58774   8.364  11.183   4.782 -0.3665  0.2017 -0.7750
  436MOL0     C58775   8.407  11.065   4.838 -0.0984  0.0827  0.0693
  436MOL0     N58776   7.991  10.535   4.967 -0.3762  0.5194  0.1348
  436MOL0     N58777   7.915  10.439   4.942  0.2396  0.8719  0.6290
  436MOL0     C58778   8.858  10.315   4.372 -0.7546 -0.0544  0.0264
  436MOL0     C58779   8.978  10.392   4.369  0.3533  0.3486 -0.7098
  436MOL0     C58780   9.284  10.703   4.351  0.6204  0.6666  0.6728
  436MOL0     C58781   9.306  10.797   4.239  0.0311  0.1262 -0.1517
  436MOL0     C58782   9.431  10.860   4.230  0.6557  0.1063  0.4580
  436MOL0     C58783   9.525  10.857   4.338  0.4336 -0.2699  0.0828
  436MOL0     O58784   9.648  10.907   4.330  0.4137 -0.2713 -0.1966
  436MOL0     C58785   9.697  10.930   4.198  0.3934  0.0226 -0.0533
  436MOL0     C58786   9.844  10.957   4.221 -0.5019  1.0740  0.8681
  436MOL0     C58787   9.926  10.826   4.242 -0.8349 -0.3595 -0.9314
  436MOL0     C58788  10.071  10.848   4.282  0.1818  1.0899 -0.0106
  436MOL0     C58789  10.132  10.718   4.325  0.0520  0.4840 -0.2007
  436MOL0     C58790  10.183  10.610   4.354 -1.0002 -0.5371  0.2936
  436MOL0     C58791   9.486  10.778   4.456  0.2576  0.5676  0.3884
  436MOL0     C58792   9.373  10.698   4.454  0.1711  0.8370  0.4299
  436MOL0     H58793   8.977  10.550   4.662 -1.9679  0.1006  0.5049
  436MOL0     H58794   8.789  10.408   4.698  1.8484  2.7856  1.3401
  436MOL0     H58795   8.767  10.079   4.609 -0.1744 -0.8908  2.5804
  436MOL0     H58796   8.722  10.213   4.713  1.5084  0.9962 -1.2768
  436MOL0     H58797   8.560   9.987   4.604  2.1183  0.4755  0.6294
  436MOL0     H58798   8.563  10.047   4.765 -0.1746 -0.6753 -0.0140
  436MOL0     H58799   8.442  10.254   4.698 -0.7689 -0.6211  0.2528
  436MOL0     H58800   8.416  10.194   4.536 -0.5685 -1.5708 -0.2632
  436MOL0     H58801   8.299   9.994   4.635 -1.1536  0.6393 -2.0082
  436MOL0     H58802   8.332  10.054   4.791  0.1397  3.4653  1.9981
  436MOL0     H58803   8.197  10.259   4.754  1.3959  2.0254 -1.9333
  436MOL0     H58804   8.148  10.191   4.595  1.3839 -2.7048 -1.0675
  436MOL0     H58805   8.031  10.000   4.685 -0.5953 -1.3884  1.0095
  436MOL0     H58806   8.109  10.016   4.838 -0.0954  2.1141  0.6567
  436MOL0     H58807   7.919  10.229   4.744 -0.7476 -2.8537 -3.2586
  436MOL0     H58808   7.857  10.072   4.798  1.0290 -1.9295 -2.3680
  436MOL0     H58809   7.984  10.118   5.012 -2.1958  1.1598  1.3030
  436MOL0     H58810   7.830  10.204   4.979 -0.7447 -0.6157  1.9863
  436MOL0     H58811   8.179  10.291   5.051  0.7964 -0.5143 -0.3684
  436MOL0     H58812   8.183  10.663   5.089 -0.5216 -0.6998  0.2577
  436MOL0     H58813   8.313  10.533   5.095  2.6350  0.2415 -2.7169
  436MOL0     H58814   8.230  10.654   4.846  0.3119  0.3317  1.0256
  436MOL0     H58815   8.342  10.515   4.871  0.4403  0.3595  0.2596
  436MOL0     H58816   8.493  10.668   4.995 -0.0488  0.0558  1.0338
  436MOL0     H58817   8.366  10.794   4.996 -2.6209 -0.1124 -3.4208
  436MOL0     H58818   8.399  10.815   4.741  1.0688 -2.3890 -2.2594
  436MOL0     H58819   8.533  10.704   4.754  0.7611  1.0461 -0.6263
  436MOL0     H58820   8.698  11.024   4.679  0.7311 -0.9193  2.5497
  436MOL0     H58821   8.658  11.373   4.575  2.7847  1.1268 -3.1891
  436MOL0     H58822   8.754  11.224   4.554  2.4125  3.5270  0.0886
  436MOL0     H58823   8.616  11.260   4.446 -0.9633 -0.6228  0.5046
  436MOL0     H58824   8.433  11.673   4.532  0.0002  2.8180 -0.4205
  436MOL0     H58825   8.290  11.859   4.482 -4.8491  2.2253  0.3597
  436MOL0     H58826   8.240  12.054   4.690 -0.1926 -1.4541  0.9789
  436MOL0     H58827   8.215  12.064   4.512  0.1963  3.0992  0.2258
  436MOL0     H58828   8.054  12.186   4.749 -0.5035  2.1785 -0.4346
  436MOL0     H58829   8.142  12.266   4.628 -1.1092  1.0794  0.5292
  436MOL0     H58830   7.934  12.093   4.499 -0.3742  1.3789 -1.1069
  436MOL0     H58831   7.983  12.240   4.458  2.8193 -3.3382 -0.8911
  436MOL0     H58832   7.860  12.347   4.665  0.1871  0.0013  0.8951
  436MOL0     H58833   7.757  12.270   4.544  2.8949 -0.6459 -2.3078
  436MOL0     H58834   7.823  12.171   4.843 -1.2474  2.1539  0.9560
  436MOL0     H58835   7.811  12.059   4.708 -1.5302  0.1018 -1.1561
  436MOL0     H58836   7.605  12.268   4.778  0.0694  0.4495  0.0295
  436MOL0     H58837   7.599  12.162   4.641 -0.8041  1.3469  1.0933
  436MOL0     H58838   7.478  12.100   4.880 -0.6039  0.3063 -1.6605
  436MOL0     H58839   7.639  12.034   4.912  1.1230 -0.6881 -0.6773
  436MOL0     H58840   7.609  11.875   4.721  0.8846  0.9224  0.1000
  436MOL0     H58841   7.462  11.973   4.667 -1.7275 -4.5063 -0.4296
  436MOL0     H58842   8.018  11.749   4.790 -1.0504 -0.3706 -1.3672
  436MOL0     H58843   8.159  11.529   4.820  1.0912 -0.3929 -0.4145
  436MOL0     H58844   8.270  11.226   4.815  0.2861  0.9028  0.2183
  436MOL0     H58845   8.346  11.011   4.910  3.3044  0.4903  3.5983
  436MOL0     H58846   8.822  10.249   4.294  2.9829  0.0141 -1.9980
  436MOL0     H58847   9.047  10.369   4.288  1.8440 -4.7632  1.6500
  436MOL0     H58848   9.244  10.820   4.153 -0.3954  4.6980  1.0808
  436MOL0     H58849   9.435  10.930   4.147 -0.1431 -0.9129 -0.4685
  436MOL0     H58850   9.699  10.837   4.139  1.8626 -1.8523  2.7272
  436MOL0     H58851   9.643  11.006   4.140  0.4227 -0.2870 -0.4926
  436MOL0     H58852   9.864  11.026   4.304  1.1288  2.5191 -0.6354
  436MOL0     H58853   9.873  11.000   4.124 -1.4986  0.1499  0.1400
  436MOL0     H58854   9.921  10.762   4.153 -2.0470 -1.3025 -0.2155
  436MOL0     H58855   9.875  10.761   4.314  0.4270 -1.5649 -1.0906
  436MOL0     H58856  10.063  10.907   4.374  2.4300 -1.0044  1.6802
  436MOL0     H58857  10.143  10.885   4.208  1.5483 -2.9295 -0.9562
  436MOL0     H58858  10.230  10.514   4.360  0.2129 -0.1123 -1.5843
  436MOL0     H58859   9.549  10.782   4.544  1.3780 -0.1413 -0.3631
  436MOL0     H58860   9.352  10.646   4.547  1.3970  2.6299  1.7937
  437MOL0     O58861   1.592   3.021  10.820 -0.9173 -0.5007 -0.0943
  437MOL0     C58862   1.610   2.902  10.798 -0.4588 -0.5726  0.9900
  437MOL0     O58863   1.520   2.804  10.812 -0.4955  0.3033  0.0727
  437MOL0     C58864   1.396   2.819  10.873 -0.4056  0.5302 -0.3224
  437MOL0     C58865   1.351   2.921  10.963  0.3940 -0.2315  0.9589
  437MOL0     C58866   1.219   2.932  11.008 -0.1506 -0.2199  0.2927
  437MOL0     C58867   1.125   2.831  10.990  0.6491  0.7577 -0.3636
  437MOL0     O58868   0.998   2.835  11.044  0.4584  0.0638 -0.4289
  437MOL0     C58869   0.918   2.941  10.987  0.4667 -0.7171 -0.3672
  437MOL0     C58870   0.773   2.929  11.035  0.2352  0.1369 -0.2468
  437MOL0     C58871   0.685   3.052  11.038  0.1739  0.1539  0.7660
  437MOL0     C58872   0.711   3.124  10.900 -0.3861  0.0427  0.2550
  437MOL0     C58873   0.611   3.243  10.869 -0.6520  0.6787  0.6130
  437MOL0     C58874   0.636   3.325  10.745 -1.0512 -0.1605  0.4880
  437MOL0     C58875   0.777   3.394  10.760  0.9693  0.8856  0.0319
  437MOL0     C58876   0.788   3.497  10.649  0.5598  0.0555  0.4193
  437MOL0     N58877   0.921   3.542  10.619 -1.0108 -0.2068 -0.4607
  437MOL0     C58878   1.006   3.489  10.521 -0.2009 -0.1820 -0.2376
  437MOL0     C58879   1.110   3.583  10.521  0.4060  0.1927 -0.4819
  437MOL0     C58880   1.223   3.589  10.415 -0.1963 -0.3124  0.0196
  437MOL0     C58881   1.341   3.664  10.476  0.2636  0.3361 -0.2259
  437MOL0     C58882   1.454   3.668  10.384 -0.4292  0.1747  0.4355
  437MOL0     C58883   1.578   3.713  10.467  0.0901 -0.7283  0.6529
  437MOL0     O58884   1.696   3.654  10.395  0.2947 -0.1613 -0.2326
  437MOL0     C58885   1.818   3.692  10.447  0.1064  0.5422 -0.4367
  437MOL0     C58886   1.831   3.719  10.583 -0.8332 -0.2809  0.2143
  437MOL0     C58887   1.958   3.761  10.639 -0.0402 -0.1410  0.1558
  437MOL0     C58888   1.953   3.827  10.776  0.0019 -0.1104  0.1530
  437MOL0     C58889   2.077   3.749  10.560  0.0127  0.2701 -0.4384
  437MOL0     C58890   2.212   3.786  10.605 -0.0791 -0.0767  0.3931
  437MOL0     O58891   2.243   3.768  10.734  0.2870  0.0004  0.1260
  437MOL0     C58892   2.368   3.808  10.778  0.1002 -0.1489  0.3385
  437MOL0     C58893   2.445   3.702  10.821  0.7568 -0.0343 -0.2025
  437MOL0     C58894   2.580   3.712  10.849  0.4624 -0.1517 -0.0347
  437MOL0     C58895   2.639   3.844  10.847 -0.5139 -0.2492  0.9784
  437MOL0     O58896   2.772   3.881  10.865  0.2090  0.8021  0.4481
  437MOL0     C58897   2.862   3.765  10.852 -0.5966 -1.1259 -0.4158
  437MOL0     C58898   3.006   3.807  10.832 -0.4206  0.7250 -0.5291
  437MOL0     C58899   3.106   3.706  10.893  0.5664 -0.7301  0.2463
  437MOL0     C58900   3.248   3.743  10.861 -1.2321 -0.6873  0.5305
  437MOL0     C58901   3.339   3.627  10.912 -0.7501 -0.4714 -0.1426
  437MOL0     C58902   3.492   3.661  10.918  0.1079 -0.2993 -0.2399
  437MOL0     C58903   3.575   3.555  10.976  0.3668 -0.1475 -0.4896
  437MOL0     C58904   3.723   3.576  10.927  0.5097 -0.4196 -0.1299
  437MOL0    Cl58905   3.805   3.722  10.985 -0.0878  0.1039 -0.0639
  437MOL0     C58906   2.557   3.946  10.807  0.5580 -0.3345  0.1656
  437MOL0     C58907   2.423   3.936  10.770  0.1126  0.6018 -0.7979
  437MOL0     O58908   2.290   3.834  10.522  0.0546 -0.2196  0.0144
  437MOL0     C58909   2.065   3.710  10.429  0.0275 -0.0493  1.2502
  437MOL0     C58910   1.942   3.688  10.372 -0.2720 -0.5567 -0.5628
  437MOL0     N58911   1.084   3.678  10.620 -0.3047  0.1791  0.6948
  437MOL0     N58912   0.967   3.654  10.676 -0.1278 -0.8778 -0.4519
  437MOL0     C58913   1.172   2.715  10.917  0.4560 -0.4875 -0.0094
  437MOL0     C58914   1.303   2.712  10.858 -0.0156  0.5645 -0.1521
  437MOL0     C58915   1.738   2.865  10.748 -1.1656  0.5890 -0.3407
  437MOL0     C58916   1.763   2.741  10.678 -0.0354  0.3623 -0.5624
  437MOL0     C58917   1.893   2.704  10.629 -0.5275 -0.3547  0.4772
  437MOL0     C58918   1.997   2.794  10.647 -0.1441 -0.8582 -0.2122
  437MOL0     O58919   2.128   2.775  10.616  0.6435  0.0018  0.3984
  437MOL0     C58920   2.155   2.683  10.515 -0.0087  0.2031 -0.0106
  437MOL0     C58921   2.301   2.684  10.465 -0.2834  0.4891  0.5977
  437MOL0     C58922   2.300   2.605  10.333 -1.2057 -0.5424 -0.3849
  437MOL0     C58923   2.454   2.603  10.300 -0.0307  0.3698 -0.1739
  437MOL0     C58924   2.490   2.481  10.238 -0.6776  1.0037  0.3505
  437MOL0     C58925   2.526   2.382  10.182  0.7814  0.3734  0.0387
  437MOL0     C58926   1.979   2.915  10.707 -0.9260 -0.4992 -0.8407
  437MOL0     C58927   1.851   2.956  10.753  0.2895  0.5085  0.6606
  437MOL0     H58928   1.423   2.989  11.009 -2.6312  2.6410  1.8859
  437MOL0     H58929   1.182   3.014  11.069 -2.6396  0.4410 -1.9183
  437MOL0     H58930   0.957   3.034  11.028 -1.4213  0.8776 -1.9810
  437MOL0     H58931   0.923   2.935  10.878  0.5097  2.6233 -0.6335
  437MOL0     H58932   0.722   2.854  10.974 -1.8790 -0.1952  1.7951
  437MOL0     H58933   0.776   2.906  11.142  1.3731  1.2473 -0.0164
  437MOL0     H58934   0.581   3.021  11.048  0.2014  0.2230  1.2477
  437MOL0     H58935   0.711   3.108  11.128  1.5887 -1.3963  1.3800
  437MOL0     H58936   0.814   3.158  10.881 -1.1646  0.7093 -3.7227
  437MOL0     H58937   0.701   3.045  10.824 -2.0112 -0.1755  0.6644
  437MOL0     H58938   0.513   3.194  10.862  0.9178 -2.5056 -1.4212
  437MOL0     H58939   0.616   3.316  10.951  0.4461 -0.4466  1.5941
  437MOL0     H58940   0.621   3.256  10.661  1.3357  3.1422 -2.9752
  437MOL0     H58941   0.567   3.409  10.742 -0.3906  0.3642 -0.7312
  437MOL0     H58942   0.782   3.441  10.859  0.4063  0.9476  0.0375
  437MOL0     H58943   0.857   3.320  10.761  0.9392  0.8272 -0.8907
  437MOL0     H58944   0.726   3.578  10.689 -0.9885 -0.9975  0.2307
  437MOL0     H58945   0.732   3.460  10.563 -1.1317 -0.7415  1.8148
  437MOL0     H58946   0.972   3.409  10.455 -0.1653 -1.9791  1.7916
  437MOL0     H58947   1.246   3.488  10.381  0.7896 -0.0580 -0.0799
  437MOL0     H58948   1.185   3.645  10.329 -0.6447 -0.9231 -0.1876
  437MOL0     H58949   1.367   3.609  10.567 -0.0207 -0.9290 -0.8935
  437MOL0     H58950   1.305   3.764  10.505  4.0184  1.4348  1.2068
  437MOL0     H58951   1.430   3.734  10.300 -3.5781 -2.4445 -0.9621
  437MOL0     H58952   1.473   3.566  10.349  0.4874 -0.0018  1.3981
  437MOL0     H58953   1.579   3.675  10.569  3.9830 -0.7809  0.7373
  437MOL0     H58954   1.599   3.821  10.465 -2.9552 -0.0099  1.3504
  437MOL0     H58955   1.749   3.719  10.654 -1.4668 -0.4263 -0.5058
  437MOL0     H58956   1.942   3.758  10.861  0.3081  1.2178  1.3004
  437MOL0     H58957   2.032   3.901  10.781  0.2553 -0.0286 -3.0802
  437MOL0     H58958   1.865   3.891  10.763 -0.3963 -0.8135 -0.7916
  437MOL0     H58959   2.409   3.600  10.828  1.6482 -0.3476 -0.0956
  437MOL0     H58960   2.634   3.627  10.890  1.0181  0.1825 -0.0667
  437MOL0     H58961   2.862   3.715  10.950 -0.5286  0.1460  0.2627
  437MOL0     H58962   2.840   3.697  10.770  0.5414  0.7353 -2.3780
  437MOL0     H58963   3.044   3.826  10.731  1.8698 -2.2428 -0.3771
  437MOL0     H58964   3.029   3.903  10.881  2.1446 -0.6217  1.1523
  437MOL0     H58965   3.089   3.607  10.851 -0.4956  0.6138 -2.8103
  437MOL0     H58966   3.081   3.710  10.999  0.0450 -0.6611  0.1233
  437MOL0     H58967   3.259   3.752  10.753 -1.5658 -0.1254  0.5420
  437MOL0     H58968   3.272   3.837  10.912  0.8370 -0.6995 -0.3293
  437MOL0     H58969   3.321   3.542  10.846 -1.9835  0.8708 -1.6048
  437MOL0     H58970   3.311   3.610  11.017  1.9765 -0.5731  0.6469
  437MOL0     H58971   3.521   3.670  10.813 -1.1444 -1.7794 -0.7592
  437MOL0     H58972   3.510   3.761  10.958 -4.5754  0.7808 -0.2198
  437MOL0     H58973   3.547   3.457  10.936 -1.9655 -0.4867  1.7353
  437MOL0     H58974   3.556   3.549  11.084  0.7077 -3.7779 -0.5203
  437MOL0     H58975   3.720   3.586  10.819 -2.3147 -1.3357 -0.2222
  437MOL0     H58976   3.782   3.491  10.964  0.3683  0.8165  3.3079
  437MOL0     H58977   2.607   4.041  10.793 -1.5061  1.0338  1.4569
  437MOL0     H58978   2.359   4.021  10.746 -2.9462 -1.0320  0.9538
  437MOL0     H58979   2.147   3.698  10.359 -1.1342  0.5945 -0.2655
  437MOL0     H58980   1.940   3.667  10.265  0.5008  1.2761 -0.9823
  437MOL0     H58981   1.108   2.628  10.914  1.0699 -1.0079  1.0838
  437MOL0     H58982   1.336   2.637  10.786 -2.8081  0.4270 -1.4241
  437MOL0     H58983   1.679   2.673  10.665 -2.2445  3.0208 -1.2704
  437MOL0     H58984   1.915   2.611  10.579  3.5252  2.0711 -2.9512
  437MOL0     H58985   2.126   2.592  10.568  0.9531 -0.1688 -0.0935
  437MOL0     H58986   2.093   2.706  10.428  0.9032  5.1039  0.3652
  437MOL0     H58987   2.352   2.628  10.544  0.3269 -0.6184 -0.5389
  437MOL0     H58988   2.328   2.789  10.458 -0.0088  0.4820  1.4328
  437MOL0     H58989   2.242   2.658  10.256 -4.5148  1.1473  2.9387
  437MOL0     H58990   2.262   2.505  10.353  0.8822 -2.6087 -5.1860
  437MOL0     H58991   2.519   2.625  10.385  0.5703  0.1147 -0.5593
  437MOL0     H58992   2.479   2.683  10.230  1.8916 -1.0403 -1.2117
  437MOL0     H58993   2.564   2.296  10.130 -0.8765 -0.5839  0.3194
  437MOL0     H58994   2.065   2.981  10.696 -1.2132  0.0297  0.0153
  437MOL0     H58995   1.840   3.056  10.794 -0.7082  1.3166 -1.4331
  438MOL0     O58996   2.466  10.710   7.539 -0.2526  0.0214 -0.0641
  438MOL0     C58997   2.526  10.795   7.472 -0.1277 -0.0243 -0.4872
  438MOL0     O58998   2.472  10.915   7.420  0.1429  0.7186  0.6995
  438MOL0     C58999   2.336  10.931   7.392  0.2495 -0.1380  0.2259
  438MOL0     C59000   2.222  10.873   7.457  0.2415  0.6986 -0.4448
  438MOL0     C59001   2.095  10.919   7.423 -0.1530 -0.6410 -0.3113
  438MOL0     C59002   2.074  11.025   7.328 -0.9724  0.2050 -0.6110
  438MOL0     O59003   1.941  11.057   7.313 -0.6652  0.2263 -0.0555
  438MOL0     C59004   1.897  11.114   7.187 -1.1709  0.6773  0.0934
  438MOL0     C59005   1.906  11.267   7.205  0.1812 -0.2717  0.5056
  438MOL0     C59006   1.826  11.310   7.333 -0.5316 -0.2278  0.2162
  438MOL0     C59007   1.680  11.260   7.349  1.3803  0.5402 -1.1980
  438MOL0     C59008   1.587  11.369   7.407  0.7926  0.7017 -0.0363
  438MOL0     C59009   1.542  11.476   7.313  0.1924 -0.3327  0.1894
  438MOL0     C59010   1.428  11.560   7.376 -0.0593  0.1033 -0.1286
  438MOL0     C59011   1.300  11.498   7.318  0.1172  0.3381  0.0978
  438MOL0     N59012   1.189  11.580   7.360  0.6340  0.1993  0.5600
  438MOL0     C59013   1.180  11.716   7.346 -0.3290  0.4448 -0.4184
  438MOL0     C59014   1.059  11.746   7.398  0.5761  0.3169 -0.4209
  438MOL0     C59015   1.008  11.881   7.442  0.4669  0.5742  0.0239
  438MOL0     C59016   0.859  11.914   7.401 -1.5550 -0.3523  0.4086
  438MOL0     C59017   0.748  11.849   7.486  1.1209 -0.0531 -0.2999
  438MOL0     C59018   0.620  11.907   7.445 -0.4859  0.0039  0.0297
  438MOL0     O59019   0.525  11.861   7.544  0.0456  0.5103 -0.6435
  438MOL0     C59020   0.400  11.846   7.509  0.1676  0.8062 -0.0257
  438MOL0     C59021   0.366  11.715   7.469 -0.0921  0.3110  0.0947
  438MOL0     C59022   0.238  11.681   7.445  0.2881  0.5569  0.2753
  438MOL0     C59023   0.211  11.531   7.430 -0.5118 -0.9210 -0.5249
  438MOL0     C59024   0.139  11.780   7.444  0.4106 -0.6923 -0.8661
  438MOL0     C59025  -0.003  11.753   7.399  0.6309  0.3862  0.3505
  438MOL0     O59026  -0.092  11.864   7.376 -0.1056 -0.0871  0.2063
  438MOL0     C59027  -0.228  11.836   7.375  0.2979 -0.1311  0.2939
  438MOL0     C59028  -0.314  11.912   7.458  0.6394 -0.5705 -0.2183
  438MOL0     C59029  -0.448  11.884   7.455 -0.6125  0.4540  0.9837
  438MOL0     C59030  -0.502  11.786   7.367 -0.8254 -0.4741 -0.0675
  438MOL0     O59031  -0.635  11.773   7.373 -0.4776  0.2290 -0.1447
  438MOL0     C59032  -0.699  11.886   7.305  0.0213  0.2535 -0.1436
  438MOL0     C59033  -0.849  11.863   7.317  0.5712 -0.1515  0.7481
  438MOL0     C59034  -0.913  11.971   7.227 -0.9989 -0.0675 -0.2603
  438MOL0     C59035  -1.065  11.987   7.267  0.2522 -0.0389  0.3296
  438MOL0     C59036  -1.138  12.059   7.155 -1.0031  0.1460  0.5704
  438MOL0     C59037  -1.277  12.097   7.204 -1.0544  0.1409 -0.2761
  438MOL0     C59038  -1.354  12.183   7.113 -0.0743  0.0059 -0.5265
  438MOL0     C59039  -1.346  12.130   6.968  0.4039 -0.0333 -0.5095
  438MOL0    Cl59040  -1.420  12.222   6.843  0.3598  0.0800 -0.3330
  438MOL0     C59041  -0.419  11.712   7.282  0.2977 -0.5103 -0.9952
  438MOL0     C59042  -0.287  11.740   7.282 -0.7145  0.4925 -0.0935
  438MOL0     O59043  -0.046  11.641   7.424  0.3074  0.4719  0.0050
  438MOL0     C59044   0.166  11.918   7.468  0.7633 -1.4040  0.4774
  438MOL0     C59045   0.299  11.951   7.503 -0.7254  0.5525  0.2393
  438MOL0     N59046   0.991  11.628   7.440 -0.6559 -0.1783  0.6116
  438MOL0     N59047   1.067  11.525   7.408 -1.3308  0.3597  1.2340
  438MOL0     C59048   2.185  11.071   7.267 -0.1810  0.1850  0.4178
  438MOL0     C59049   2.313  11.035   7.304  0.3958  0.0783  0.6152
  438MOL0     C59050   2.671  10.783   7.457  0.1521 -0.2025 -0.4769
  438MOL0     C59051   2.742  10.662   7.485  0.5152 -0.6172 -0.6170
  438MOL0     C59052   2.873  10.645   7.451  0.5252  0.8903 -0.3385
  438MOL0     C59053   2.946  10.749   7.399  0.8823  0.3852  0.6928
  438MOL0     O59054   3.079  10.739   7.355  0.0863  0.2756 -0.2319
  438MOL0     C59055   3.161  10.633   7.409  0.5284  0.4418  0.8332
  438MOL0     C59056   3.298  10.690   7.390 -0.0072 -0.9923  0.4360
  438MOL0     C59057   3.412  10.608   7.448 -0.2056  0.9359  0.1063
  438MOL0     C59058   3.456  10.673   7.578 -0.0884  0.2718 -0.0344
  438MOL0     C59059   3.592  10.629   7.612 -1.3580  0.2756  0.3043
  438MOL0     C59060   3.710  10.589   7.634  0.1923 -0.7901  0.1315
  438MOL0     C59061   2.878  10.871   7.371 -0.1507  0.5941  0.2512
  438MOL0     C59062   2.748  10.888   7.403  0.2842  0.7272 -0.0983
  438MOL0     H59063   2.225  10.789   7.525 -4.9459  1.5387  1.2138
  438MOL0     H59064   2.005  10.866   7.450  0.7981 -3.0340 -1.5249
  438MOL0     H59065   1.964  11.074   7.110  1.0200 -0.4892  2.4456
  438MOL0     H59066   1.795  11.087   7.159 -0.0917 -1.9134 -1.7068
  438MOL0     H59067   2.009  11.305   7.205 -0.5059  1.6619  0.2992
  438MOL0     H59068   1.861  11.316   7.118 -0.6834 -1.4367  0.2771
  438MOL0     H59069   1.882  11.277   7.421 -1.6146  2.9722  2.2532
  438MOL0     H59070   1.834  11.419   7.334  1.2120 -0.3446  1.4664
  438MOL0     H59071   1.640  11.245   7.248  1.3139  4.1948 -1.8445
  438MOL0     H59072   1.683  11.164   7.402  0.3315  0.8792 -0.4837
  438MOL0     H59073   1.505  11.319   7.459  2.4782 -0.2759  1.8365
  438MOL0     H59074   1.644  11.422   7.483  0.8702  2.4576 -1.2425
  438MOL0     H59075   1.621  11.550   7.294 -0.3005  0.7766  2.1964
  438MOL0     H59076   1.518  11.425   7.218  2.4526 -1.7428  0.2844
  438MOL0     H59077   1.420  11.559   7.485 -2.4708  1.7150 -0.1925
  438MOL0     H59078   1.453  11.660   7.339  4.1800 -0.4601  0.7787
  438MOL0     H59079   1.291  11.403   7.371  1.8840  0.3435  0.4713
  438MOL0     H59080   1.311  11.490   7.209  0.8857 -0.9508  0.2431
  438MOL0     H59081   1.257  11.787   7.319 -0.6800  0.5501 -1.1654
  438MOL0     H59082   1.020  11.878   7.550 -1.0911 -0.8586  0.2055
  438MOL0     H59083   1.061  11.969   7.405 -1.2034  1.2568 -0.8542
  438MOL0     H59084   0.851  11.884   7.296  3.4484 -0.6482 -0.1403
  438MOL0     H59085   0.844  12.022   7.415 -2.7066 -0.6037  1.1854
  438MOL0     H59086   0.761  11.879   7.591 -1.2661  2.6055 -0.6313
  438MOL0     H59087   0.744  11.741   7.495  0.4668  0.0635  1.2059
  438MOL0     H59088   0.587  11.881   7.344 -0.8018  0.7251 -0.0615
  438MOL0     H59089   0.625  12.016   7.447 -3.5610  0.2769 -1.4350
  438MOL0     H59090   0.446  11.642   7.467 -0.2325  0.1600  0.0755
  438MOL0     H59091   0.189  11.489   7.528  0.3703  1.6580  0.8581
  438MOL0     H59092   0.136  11.512   7.353 -1.8021  2.6967 -0.3365
  438MOL0     H59093   0.302  11.483   7.391 -0.8257 -1.0080 -1.1730
  438MOL0     H59094  -0.270  11.982   7.529  1.2653  0.0266 -1.1772
  438MOL0     H59095  -0.518  11.940   7.517 -1.6673  1.3151 -0.9153
  438MOL0     H59096  -0.674  11.973   7.367  1.9565 -0.5128  0.2346
  438MOL0     H59097  -0.659  11.886   7.204  1.2080 -3.5625  0.1362
  438MOL0     H59098  -0.872  11.761   7.286 -2.4906 -0.1781  2.7535
  438MOL0     H59099  -0.875  11.864   7.423  2.0880 -0.1444  1.1422
  438MOL0     H59100  -0.910  11.939   7.122  2.5605 -0.9770 -0.0117
  438MOL0     H59101  -0.853  12.062   7.227 -1.9714  0.6004 -1.3055
  438MOL0     H59102  -1.116  11.892   7.284  0.7098 -0.6208 -1.3443
  438MOL0     H59103  -1.078  12.046   7.359  2.6489 -3.0765  2.8718
  438MOL0     H59104  -1.135  12.004   7.060 -1.0321  2.1497 -0.6422
  438MOL0     H59105  -1.089  12.153   7.128  0.2452 -0.6484 -0.0361
  438MOL0     H59106  -1.335  12.007   7.225 -2.0708  1.4498  3.4447
  438MOL0     H59107  -1.269  12.154   7.297 -1.7781  1.5661 -1.0512
  438MOL0     H59108  -1.310  12.283   7.107  0.3954 -0.2263 -1.0841
  438MOL0     H59109  -1.459  12.186   7.144 -0.3815 -2.5384 -1.0998
  438MOL0     H59110  -1.393  12.032   6.954 -3.9256  2.1096 -3.0539
  438MOL0     H59111  -1.244  12.132   6.930  0.1017 -2.3449 -1.6102
  438MOL0     H59112  -0.452  11.645   7.203 -1.5158 -0.5914 -0.1989
  438MOL0     H59113  -0.218  11.681   7.221 -1.7271 -4.3828  2.8999
  438MOL0     H59114   0.092  11.997   7.466  0.4564 -1.7086 -0.5484
  438MOL0     H59115   0.336  12.051   7.522  0.9428  0.3210 -1.4994
  438MOL0     H59116   2.185  11.143   7.186  3.1043 -0.2007 -0.0982
  438MOL0     H59117   2.397  11.082   7.254 -0.5860 -1.1206 -2.3967
  438MOL0     H59118   2.697  10.570   7.521  5.4518 -2.7312  1.0794
  438MOL0     H59119   2.915  10.545   7.456 -4.7957 -1.6296  0.2617
  438MOL0     H59120   3.128  10.611   7.511 -0.1605 -0.9782  0.3307
  438MOL0     H59121   3.153  10.548   7.341 -0.0141 -0.2637  1.7592
  438MOL0     H59122   3.295  10.793   7.426  2.4619 -0.9274  0.6314
  438MOL0     H59123   3.308  10.697   7.281  1.2723  1.9479  0.6557
  438MOL0     H59124   3.496  10.610   7.378 -0.4296 -1.1179 -0.2923
  438MOL0     H59125   3.384  10.502   7.454 -0.8355  1.0915  0.0132
  438MOL0     H59126   3.392  10.638   7.660  2.2084 -2.9421  0.5951
  438MOL0     H59127   3.454  10.781   7.563  1.0026  0.1893 -0.8251
  438MOL0     H59128   3.811  10.563   7.660  1.1430  1.4437 -1.0448
  438MOL0     H59129   2.930  10.958   7.331  1.8212 -0.5473  0.1951
  438MOL0     H59130   2.698  10.982   7.384  0.1463  0.9064  1.0722
  439MOL0     O59131   5.083   7.186   4.141  0.2339  0.2716  0.1425
  439MOL0     C59132   5.103   7.260   4.043  0.3484 -0.0074 -0.3658
  439MOL0     O59133   5.036   7.254   3.928 -0.6635  0.4146  0.7097
  439MOL0     C59134   4.929   7.168   3.914  0.7931  1.2509 -0.8582
  439MOL0     C59135   4.907   7.097   3.796  0.8773 -0.4833  1.2041
  439MOL0     C59136   4.797   7.006   3.786 -0.6849  0.1821  0.8954
  439MOL0     C59137   4.709   6.996   3.888 -0.5420 -0.0648 -0.8084
  439MOL0     O59138   4.600   6.922   3.866  0.4456  0.3653  0.3976
  439MOL0     C59139   4.511   6.880   3.970  0.4012  0.3942  0.6274
  439MOL0     C59140   4.407   6.795   3.903  0.0023 -0.3691  0.0982
  439MOL0     C59141   4.261   6.793   3.971 -1.1115 -0.8431  0.2713
  439MOL0     C59142   4.163   6.692   3.913  0.7370  0.1252 -0.0435
  439MOL0     C59143   4.026   6.701   3.972  0.5801 -0.1525 -0.8363
  439MOL0     C59144   3.944   6.580   3.931 -0.3948 -0.6382  0.2981
  439MOL0     C59145   3.794   6.593   3.973 -0.4869 -0.3324  0.1468
  439MOL0     C59146   3.721   6.490   3.904 -0.3696  0.4135 -0.0636
  439MOL0     N59147   3.576   6.486   3.925  0.0900 -0.8624  0.3897
  439MOL0     C59148   3.516   6.419   4.025 -0.2424  0.2252 -0.2025
  439MOL0     C59149   3.389   6.428   3.988  0.0666  0.3779 -0.9393
  439MOL0     C59150   3.277   6.351   4.055  0.0898 -0.3021  0.2519
  439MOL0     C59151   3.191   6.431   4.153 -0.3135 -0.1625  0.2356
  439MOL0     C59152   3.252   6.489   4.289  0.9214 -0.2685  1.0928
  439MOL0     C59153   3.274   6.379   4.388 -0.2469  0.2290 -0.0044
  439MOL0     O59154   3.163   6.289   4.399  0.4879  0.0508 -0.0735
  439MOL0     C59155   3.058   6.329   4.482  0.1374  0.1141 -0.1507
  439MOL0     C59156   2.937   6.369   4.426  0.3735  0.1542  0.4831
  439MOL0     C59157   2.830   6.407   4.507  0.4228  0.7038  0.8681
  439MOL0     C59158   2.701   6.434   4.421 -0.3536  0.0806 -0.6472
  439MOL0     C59159   2.844   6.413   4.648 -0.0293 -0.7067 -0.8650
  439MOL0     C59160   2.729   6.442   4.738 -0.9004 -0.5699  0.4642
  439MOL0     O59161   2.602   6.465   4.676 -0.2701  0.0814  0.3123
  439MOL0     C59162   2.488   6.472   4.748  0.6954  0.0786  0.0703
  439MOL0     C59163   2.359   6.444   4.680  0.6931  0.1150 -0.6366
  439MOL0     C59164   2.238   6.440   4.750  0.8516  0.1773 -0.4540
  439MOL0     C59165   2.233   6.471   4.882 -1.0414 -0.6742 -0.0123
  439MOL0     O59166   2.115   6.477   4.947 -0.1122 -0.5724  0.0632
  439MOL0     C59167   2.071   6.366   5.022 -0.4507  0.2648 -0.0975
  439MOL0     C59168   1.996   6.261   4.939  0.0276  0.3456  0.1892
  439MOL0     C59169   1.877   6.334   4.881  0.1973  0.6241  0.3470
  439MOL0     C59170   1.776   6.231   4.830 -0.0041 -0.2142  0.1927
  439MOL0     C59171   1.702   6.266   4.694 -0.4081 -0.3944  0.6817
  439MOL0     C59172   1.631   6.406   4.690 -0.4572 -1.1254 -0.3901
  439MOL0     C59173   1.527   6.419   4.586  0.9001 -0.6365  0.9098
  439MOL0     C59174   1.450   6.550   4.603  0.7350 -0.0704 -0.1725
  439MOL0    Cl59175   1.371   6.579   4.764 -0.0924  0.6149 -0.2273
  439MOL0     C59176   2.353   6.511   4.948 -0.0247  0.7103 -0.0967
  439MOL0     C59177   2.476   6.512   4.882  0.2136 -1.2195 -0.2744
  439MOL0     O59178   2.753   6.425   4.863 -0.1172 -0.4383  0.6295
  439MOL0     C59179   2.974   6.381   4.706  0.4476 -0.4214  0.3862
  439MOL0     C59180   3.084   6.351   4.615  0.6494  1.1279 -0.5109
  439MOL0     N59181   3.370   6.524   3.884 -0.1195  1.0836 -0.6477
  439MOL0     N59182   3.483   6.557   3.845  0.0885  0.1524  0.1699
  439MOL0     C59183   4.719   7.082   4.001 -0.0262  0.0434  0.4881
  439MOL0     C59184   4.834   7.160   4.012  0.0263 -0.1432 -0.0095
  439MOL0     C59185   5.207   7.356   4.059 -0.7015 -0.0113  0.2928
  439MOL0     C59186   5.300   7.356   4.168 -0.1503 -0.1640  0.0119
  439MOL0     C59187   5.396   7.458   4.182 -0.5471  0.4201  0.3380
  439MOL0     C59188   5.403   7.562   4.091  0.4577 -0.0080 -0.4464
  439MOL0     O59189   5.508   7.652   4.083  0.2275  0.3957 -0.1827
  439MOL0     C59190   5.640   7.609   4.128 -0.5554 -0.1463  0.0339
  439MOL0     C59191   5.744   7.714   4.090 -0.1744 -0.6209  0.2928
  439MOL0     C59192   5.753   7.833   4.196  0.7088  0.1721  0.5975
  439MOL0     C59193   5.833   7.777   4.315  0.0783  0.2350 -0.0394
  439MOL0     C59194   5.970   7.767   4.259  0.0720 -0.0703 -0.3800
  439MOL0     C59195   6.081   7.763   4.205  0.1037  0.4562  0.7738
  439MOL0     C59196   5.299   7.570   3.993 -0.4869 -0.7380 -0.7112
  439MOL0     C59197   5.215   7.466   3.977  0.5468 -0.5875 -0.9351
  439MOL0     H59198   4.969   7.115   3.708 -0.5110  0.5125  0.3894
  439MOL0     H59199   4.792   6.953   3.692  0.1127 -1.5809  1.8065
  439MOL0     H59200   4.573   6.820   4.038  0.5252 -0.6432 -0.3825
  439MOL0     H59201   4.462   6.961   4.025 -0.5377  0.9998 -1.0318
  439MOL0     H59202   4.410   6.825   3.798  0.4476  2.4266  0.8318
  439MOL0     H59203   4.440   6.691   3.911  0.8694  0.0121  2.0355
  439MOL0     H59204   4.261   6.765   4.076  0.7218  0.9051  0.7840
  439MOL0     H59205   4.232   6.896   3.950  0.5964 -0.5999 -1.1689
  439MOL0     H59206   4.146   6.705   3.806  1.3789  0.2673 -0.1358
  439MOL0     H59207   4.199   6.589   3.925 -0.1084 -0.4674 -2.1577
  439MOL0     H59208   4.041   6.701   4.081  2.3008 -1.1100 -1.0288
  439MOL0     H59209   3.981   6.795   3.939 -0.5588 -0.1960  0.4999
  439MOL0     H59210   3.958   6.559   3.825 -1.3016 -3.4245  0.6535
  439MOL0     H59211   3.991   6.489   3.969  3.6644  0.2340 -2.0324
  439MOL0     H59212   3.782   6.585   4.081 -4.0773  2.0935  0.1124
  439MOL0     H59213   3.762   6.695   3.949 -0.4537 -0.3658 -0.0413
  439MOL0     H59214   3.766   6.394   3.933  0.3057  0.9253  0.6165
  439MOL0     H59215   3.735   6.505   3.796 -0.1889  0.6517 -0.0053
  439MOL0     H59216   3.563   6.356   4.099 -1.4968  1.7316  2.0120
  439MOL0     H59217   3.224   6.305   3.971 -0.7544  1.5559 -0.2836
  439MOL0     H59218   3.316   6.267   4.114 -1.9967 -1.5634 -0.0686
  439MOL0     H59219   3.100   6.373   4.170  0.7388 -2.0931 -0.4468
  439MOL0     H59220   3.163   6.516   4.090 -0.9837 -1.5851 -1.5047
  439MOL0     H59221   3.179   6.564   4.322  1.0616  0.5868 -0.4493
  439MOL0     H59222   3.346   6.543   4.273  0.2086  1.5965  2.7839
  439MOL0     H59223   3.309   6.410   4.487  0.2673  2.0543 -0.7134
  439MOL0     H59224   3.358   6.323   4.344  0.7566  0.1465  1.8847
  439MOL0     H59225   2.926   6.349   4.320  0.8416  2.4401 -0.0506
  439MOL0     H59226   2.622   6.361   4.440  0.5117 -1.1907 -1.8083
  439MOL0     H59227   2.670   6.535   4.450  2.4705  1.0001 -0.5161
  439MOL0     H59228   2.711   6.446   4.313 -1.6069 -0.6329 -0.8607
  439MOL0     H59229   2.362   6.428   4.573 -0.4411 -2.3388 -0.3648
  439MOL0     H59230   2.147   6.410   4.700  0.4889  1.8890 -0.9099
  439MOL0     H59231   2.159   6.314   5.061  0.4888  0.4644 -1.8561
  439MOL0     H59232   2.014   6.398   5.110  1.7976 -0.2910  1.6687
  439MOL0     H59233   2.070   6.223   4.869 -0.5297 -0.2907 -0.0629
  439MOL0     H59234   1.959   6.176   4.997  0.8250 -0.5806 -0.6271
  439MOL0     H59235   1.906   6.408   4.806  0.3079  0.0362 -0.2055
  439MOL0     H59236   1.824   6.394   4.956 -1.4587 -1.6757  1.1311
  439MOL0     H59237   1.826   6.135   4.817  0.6217  0.0472  0.6173
  439MOL0     H59238   1.702   6.208   4.908  0.0986 -0.7402  0.1356
  439MOL0     H59239   1.624   6.192   4.676 -0.4758 -0.0919 -0.3341
  439MOL0     H59240   1.776   6.262   4.613 -2.9600 -2.6736 -1.7069
  439MOL0     H59241   1.587   6.420   4.788 -0.4609  0.3681 -0.5857
  439MOL0     H59242   1.703   6.483   4.662 -1.4513 -0.0595 -0.0718
  439MOL0     H59243   1.454   6.339   4.589  0.2850 -0.2140 -1.1859
  439MOL0     H59244   1.582   6.416   4.492  1.2045 -1.7751  1.1128
  439MOL0     H59245   1.382   6.552   4.517  2.1851 -1.3847 -1.4013
  439MOL0     H59246   1.513   6.637   4.585  1.2337 -0.5399 -0.7345
  439MOL0     H59247   2.345   6.540   5.052  1.4308  1.6488 -0.2102
  439MOL0     H59248   2.568   6.535   4.935  0.4519 -0.5035 -0.9695
  439MOL0     H59249   2.996   6.384   4.812 -2.2846 -2.4898  1.1130
  439MOL0     H59250   3.177   6.338   4.669  0.4848  2.4119  0.1278
  439MOL0     H59251   4.650   7.078   4.085  0.5210 -3.5036  0.9000
  439MOL0     H59252   4.841   7.222   4.101  1.0850 -1.4293  0.8364
  439MOL0     H59253   5.298   7.285   4.250 -1.2089  1.0187  1.0582
  439MOL0     H59254   5.456   7.456   4.272 -1.1501  1.5695  0.7808
  439MOL0     H59255   5.634   7.597   4.237 -0.1610  0.1494  0.0907
  439MOL0     H59256   5.649   7.513   4.075 -5.8646 -0.4166 -0.9514
  439MOL0     H59257   5.724   7.752   3.990  3.6528 -1.6052 -1.0231
  439MOL0     H59258   5.841   7.665   4.074 -0.7531 -1.5651 -0.3707
  439MOL0     H59259   5.649   7.858   4.215  0.2387 -1.5451  0.4618
  439MOL0     H59260   5.808   7.915   4.148 -1.8217  0.9868 -1.1004
  439MOL0     H59261   5.784   7.684   4.344 -2.8157  1.4171 -0.8087
  439MOL0     H59262   5.826   7.844   4.401 -4.2586 -0.1305  0.1128
  439MOL0     H59263   6.175   7.783   4.158 -0.3907  0.6540 -0.1537
  439MOL0     H59264   5.316   7.662   3.938  0.5057 -0.9597 -0.7990
  439MOL0     H59265   5.129   7.481   3.913 -0.1853  0.8688  0.3311
  440MOL0     O59266   8.317   5.716   6.593 -0.6029  0.4144  0.2167
  440MOL0     C59267   8.332   5.672   6.707 -0.0396  0.2590 -0.0672
  440MOL0     O59268   8.446   5.666   6.775 -0.8236 -0.0919 -0.2603
  440MOL0     C59269   8.567   5.682   6.718  0.4548 -0.3423 -0.5008
  440MOL0     C59270   8.608   5.702   6.581 -0.6885 -0.1698 -0.0988
  440MOL0     C59271   8.748   5.710   6.547  0.1614 -0.1254 -1.7331
  440MOL0     C59272   8.845   5.714   6.646  0.0803  0.3465 -0.1054
  440MOL0     O59273   8.974   5.717   6.606  0.2390 -0.3412  0.1496
  440MOL0     C59274   9.072   5.759   6.701  0.7028  0.7909  0.3259
  440MOL0     C59275   9.212   5.772   6.641 -0.3606 -0.0801 -0.6154
  440MOL0     C59276   9.262   5.914   6.616  0.3111 -0.2566  0.1046
  440MOL0     C59277   9.186   5.962   6.493  0.1539  1.1682  0.7662
  440MOL0     C59278   9.232   6.096   6.435  0.2096  0.0969 -1.1014
  440MOL0     C59279   9.152   6.153   6.329  0.2821  0.5066 -0.3265
  440MOL0     C59280   9.221   6.266   6.254  0.0640 -0.0043 -0.2163
  440MOL0     C59281   9.178   6.264   6.107  0.6593  0.3966 -0.5885
  440MOL0     N59282   9.038   6.329   6.095 -0.1142 -0.5011  0.7299
  440MOL0     C59283   8.956   6.403   6.176 -0.3800 -0.0279  0.1295
  440MOL0     C59284   8.831   6.394   6.124  0.1255  0.5730  0.0729
  440MOL0     C59285   8.711   6.460   6.181 -1.3918 -0.0716  0.1286
  440MOL0     C59286   8.686   6.594   6.123  0.2944 -1.1582  0.3933
  440MOL0     C59287   8.540   6.632   6.143 -0.2807  0.2522 -0.1770
  440MOL0     C59288   8.516   6.690   6.283 -0.5288 -0.2253  0.0306
  440MOL0     O59289   8.541   6.835   6.279  0.1687  0.2043  0.5658
  440MOL0     C59290   8.476   6.910   6.375 -0.2657  0.3894  0.3740
  440MOL0     C59291   8.421   6.864   6.496 -0.0561  0.6351  0.1281
  440MOL0     C59292   8.367   6.938   6.598 -0.3214  0.9596  0.2652
  440MOL0     C59293   8.354   6.871   6.733 -0.0899  0.3410  1.1735
  440MOL0     C59294   8.336   7.070   6.569  0.4510  0.2354 -0.5173
  440MOL0     C59295   8.269   7.170   6.660  0.1448 -0.1861  0.2103
  440MOL0     O59296   8.189   7.267   6.615 -0.3883  0.1102 -0.0244
  440MOL0     C59297   8.095   7.336   6.696  0.1983  0.7239  0.5691
  440MOL0     C59298   8.084   7.348   6.830  0.2451  0.1820 -0.8539
  440MOL0     C59299   7.979   7.414   6.891  0.9957 -0.4334  0.2980
  440MOL0     C59300   7.892   7.485   6.806  0.2998 -0.1120 -0.8375
  440MOL0     O59301   7.794   7.565   6.853 -0.6483  0.2106 -0.3006
  440MOL0     C59302   7.692   7.500   6.938  0.1242 -0.5564 -0.7065
  440MOL0     C59303   7.559   7.579   6.925  0.1198 -0.2636 -0.5161
  440MOL0     C59304   7.549   7.692   7.031 -0.1095 -0.7453  0.0766
  440MOL0     C59305   7.410   7.749   7.039 -0.1716 -0.7494 -1.2712
  440MOL0     C59306   7.386   7.857   7.153 -0.3317 -0.3749 -0.5627
  440MOL0     C59307   7.477   7.975   7.151  0.6864 -1.1545  0.0189
  440MOL0     C59308   7.489   8.048   7.018  0.7840  0.1787  0.2022
  440MOL0     C59309   7.359   8.111   6.960 -0.2810  0.3124  1.1769
  440MOL0    Cl59310   7.284   8.215   7.072 -0.7296 -0.1248 -0.4197
  440MOL0     C59311   7.904   7.485   6.672  0.6510 -0.4527 -0.2972
  440MOL0     C59312   8.000   7.402   6.621 -0.2233  0.0083  0.2743
  440MOL0     O59313   8.314   7.165   6.772 -0.2411 -0.6858  0.0755
  440MOL0     C59314   8.378   7.126   6.448  0.4504  0.3974 -0.3008
  440MOL0     C59315   8.445   7.045   6.349  0.6583 -0.7884  0.4204
  440MOL0     N59316   8.840   6.324   6.003 -0.7816  1.1308  0.4510
  440MOL0     N59317   8.955   6.283   5.992 -0.6682 -0.3910 -0.1330
  440MOL0     C59318   8.804   5.694   6.779 -0.1130 -0.1521  0.0602
  440MOL0     C59319   8.667   5.675   6.815  0.3150 -0.3572  0.0919
  440MOL0     C59320   8.204   5.621   6.776 -0.0713  0.3550 -0.6955
  440MOL0     C59321   8.200   5.612   6.913  0.1423  0.1776  0.0157
  440MOL0     C59322   8.084   5.553   6.969 -0.2606 -0.3815 -0.2397
  440MOL0     C59323   7.975   5.523   6.889  0.6193  0.1069 -0.0328
  440MOL0     O59324   7.855   5.498   6.958 -1.0060  0.2435  0.0241
  440MOL0     C59325   7.727   5.478   6.900 -0.0236  0.9236 -0.0660
  440MOL0     C59326   7.611   5.461   6.996 -0.1993  0.1031 -0.0637
  440MOL0     C59327   7.644   5.356   7.102  0.0276  0.7250 -0.9631
  440MOL0     C59328   7.511   5.323   7.180 -0.0527 -0.7536 -0.0518
  440MOL0     C59329   7.531   5.216   7.277 -0.4109  0.1515  0.3479
  440MOL0     C59330   7.546   5.141   7.373  0.6437  0.8808  0.0531
  440MOL0     C59331   7.976   5.549   6.756  0.3528 -0.4555 -0.6496
  440MOL0     C59332   8.092   5.598   6.699  0.0278 -0.5895  0.8051
  440MOL0     H59333   8.541   5.707   6.496 -0.6015  4.3291 -0.1618
  440MOL0     H59334   8.773   5.719   6.442  0.8129  0.5124 -1.5338
  440MOL0     H59335   9.048   5.848   6.759  1.6574  0.7197  0.8445
  440MOL0     H59336   9.077   5.675   6.770 -3.9150  2.1859  2.7745
  440MOL0     H59337   9.274   5.731   6.722 -0.5112 -0.2739 -0.5972
  440MOL0     H59338   9.214   5.713   6.549  3.4298  1.9012 -1.9915
  440MOL0     H59339   9.231   5.976   6.701 -3.4468  0.2266 -1.4194
  440MOL0     H59340   9.371   5.911   6.610  0.3605  1.1098 -0.1004
  440MOL0     H59341   9.197   5.890   6.412  2.0888  0.3551  1.7048
  440MOL0     H59342   9.079   5.958   6.516 -0.0491 -3.1499 -0.0804
  440MOL0     H59343   9.237   6.168   6.517  0.1033 -0.8063 -0.2784
  440MOL0     H59344   9.335   6.074   6.408  0.6901 -2.1008  1.9223
  440MOL0     H59345   9.127   6.068   6.264 -0.5435 -0.6317  1.4130
  440MOL0     H59346   9.056   6.189   6.367  1.7237  4.2475  0.2697
  440MOL0     H59347   9.200   6.366   6.295  0.3496  1.0767 -2.5089
  440MOL0     H59348   9.327   6.246   6.268  0.1108  0.2958 -0.1420
  440MOL0     H59349   9.177   6.161   6.070  0.9203  1.2092 -3.0192
  440MOL0     H59350   9.250   6.328   6.055  2.6716 -0.7319  0.6754
  440MOL0     H59351   8.996   6.443   6.269  0.0792 -0.4361  0.1110
  440MOL0     H59352   8.624   6.395   6.166 -2.7941  2.0950 -1.7698
  440MOL0     H59353   8.723   6.476   6.289  0.4859 -0.3894  0.0011
  440MOL0     H59354   8.709   6.599   6.017  2.0672 -0.0602  0.7870
  440MOL0     H59355   8.751   6.672   6.165  2.9392 -2.0157 -1.8016
  440MOL0     H59356   8.474   6.545   6.141  1.1433 -0.8490 -1.3737
  440MOL0     H59357   8.516   6.707   6.067 -0.8147  0.4527  0.1816
  440MOL0     H59358   8.577   6.638   6.358  1.3144  0.5730 -0.8563
  440MOL0     H59359   8.412   6.679   6.314 -0.5176  0.5440  0.3460
  440MOL0     H59360   8.422   6.757   6.515  1.3735  0.3658 -1.2387
  440MOL0     H59361   8.256   6.822   6.737 -1.3528  2.3764 -1.7129
  440MOL0     H59362   8.427   6.791   6.745 -1.3897 -1.2604 -0.8619
  440MOL0     H59363   8.363   6.935   6.821 -0.1998  0.1133  1.3518
  440MOL0     H59364   8.161   7.302   6.891  1.1729  0.1248 -2.0316
  440MOL0     H59365   7.968   7.431   6.998 -1.6301  1.0960 -0.1276
  440MOL0     H59366   7.675   7.395   6.913 -0.9460 -0.6113  0.1869
  440MOL0     H59367   7.732   7.494   7.040  0.5934 -0.6887 -0.8923
  440MOL0     H59368   7.551   7.616   6.822  0.2050  0.3179 -0.3146
  440MOL0     H59369   7.479   7.507   6.946 -0.1511  0.6030  1.7108
  440MOL0     H59370   7.630   7.762   7.009 -1.0788  0.1909 -0.6575
  440MOL0     H59371   7.566   7.665   7.136 -0.9687 -2.4505 -0.1920
  440MOL0     H59372   7.388   7.797   6.943 -2.0242 -0.9581 -0.9790
  440MOL0     H59373   7.330   7.675   7.043 -0.2044 -0.6638 -0.0463
  440MOL0     H59374   7.406   7.806   7.247  1.3922  1.8615  0.3726
  440MOL0     H59375   7.284   7.891   7.131 -0.4017 -0.1139  0.1344
  440MOL0     H59376   7.453   8.054   7.223 -2.5438 -2.6918  0.8072
  440MOL0     H59377   7.581   7.952   7.176  2.0782 -0.7791 -4.5315
  440MOL0     H59378   7.525   7.972   6.948  0.9579 -0.2012  0.7015
  440MOL0     H59379   7.567   8.123   7.016  0.4734  0.5286  0.8995
  440MOL0     H59380   7.290   8.028   6.941 -0.5374  0.0765  2.9398
  440MOL0     H59381   7.380   8.156   6.863 -2.8083 -0.5749  0.1368
  440MOL0     H59382   7.847   7.551   6.607 -0.6119  0.9970  2.1267
  440MOL0     H59383   8.018   7.411   6.514 -3.4546  1.1187 -0.2870
  440MOL0     H59384   8.363   7.231   6.425  2.3015 -0.0161 -4.2432
  440MOL0     H59385   8.474   7.089   6.254 -1.5323  3.8359  1.6094
  440MOL0     H59386   8.884   5.705   6.852 -0.3287  3.1694 -0.0535
  440MOL0     H59387   8.637   5.653   6.917 -1.5365 -0.4804 -0.4328
  440MOL0     H59388   8.287   5.631   6.975 -0.0962 -0.2121  0.4790
  440MOL0     H59389   8.069   5.545   7.076 -0.7710  0.4722 -0.2361
  440MOL0     H59390   7.695   5.560   6.834  2.5853  0.8695 -1.5635
  440MOL0     H59391   7.727   5.392   6.833 -2.6996  0.9476 -0.2065
  440MOL0     H59392   7.523   5.435   6.936 -2.7851  0.0419  3.4679
  440MOL0     H59393   7.578   5.557   7.037  0.0213  0.0901  0.1475
  440MOL0     H59394   7.731   5.398   7.153  1.0244 -1.0217 -1.1436
  440MOL0     H59395   7.685   5.274   7.042  1.8253  0.8248  0.0570
  440MOL0     H59396   7.430   5.292   7.112 -1.8344 -0.0848  1.6727
  440MOL0     H59397   7.478   5.414   7.231 -1.0781 -0.9920 -0.2557
  440MOL0     H59398   7.548   5.080   7.461 -0.4212 -1.0444 -1.1694
  440MOL0     H59399   7.895   5.540   6.684 -0.5445 -1.9990  0.4923
  440MOL0     H59400   8.081   5.639   6.599 -0.6345 -0.4357  0.9354
  441MOL0     O59401   5.814   5.053   9.628  0.0392  0.3077  0.0638
  441MOL0     C59402   5.808   5.176   9.632 -0.0314 -0.0663  0.6151
  441MOL0     O59403   5.914   5.261   9.640  0.0606  0.7076 -0.3672
  441MOL0     C59404   6.046   5.210   9.613 -0.1345  1.1111  0.0788
  441MOL0     C59405   6.076   5.123   9.500 -0.2855 -0.0546  0.6918
  441MOL0     C59406   6.214   5.076   9.484 -0.1812  0.8477  0.0366
  441MOL0     C59407   6.311   5.103   9.577 -0.4678  0.4157  0.7392
  441MOL0     O59408   6.447   5.065   9.558 -0.0207 -0.2567  0.1691
  441MOL0     C59409   6.483   5.059   9.417 -0.7404 -0.4165  0.1247
  441MOL0     C59410   6.626   5.095   9.392  0.0676 -0.0418 -1.1435
  441MOL0     C59411   6.721   5.008   9.467  0.4438  0.2350 -0.1763
  441MOL0     C59412   6.854   5.094   9.478  0.7507 -0.0019 -0.9608
  441MOL0     C59413   6.975   5.016   9.530 -0.2845  0.0931 -0.8172
  441MOL0     C59414   7.040   4.919   9.440  0.0926  0.1918 -0.0547
  441MOL0     C59415   7.182   4.880   9.480  0.4970 -0.7053  0.2775
  441MOL0     C59416   7.270   4.786   9.399 -0.2217 -0.1116  0.6574
  441MOL0     N59417   7.415   4.797   9.443  1.2745  0.2487 -0.3124
  441MOL0     C59418   7.472   4.742   9.562 -0.0932  0.0391 -0.3318
  441MOL0     C59419   7.599   4.734   9.534  0.2738  0.1239  0.4328
  441MOL0     C59420   7.708   4.692   9.626 -0.2592  0.0196 -0.5201
  441MOL0     C59421   7.747   4.817   9.714  0.0035 -0.2528  0.0977
  441MOL0     C59422   7.857   4.773   9.799  0.2281 -0.3589 -0.4442
  441MOL0     C59423   7.901   4.875   9.906 -0.1599  0.2691 -0.0839
  441MOL0     O59424   8.032   4.855   9.959  0.4393 -0.0586 -0.8167
  441MOL0     C59425   8.048   4.765  10.064  0.1131 -0.1580 -0.4898
  441MOL0     C59426   7.950   4.694  10.133  0.1826 -0.7160  0.0397
  441MOL0     C59427   7.972   4.609  10.232  0.4178  0.2687 -0.5367
  441MOL0     C59428   7.846   4.550  10.284 -0.0988 -0.1803 -0.2812
  441MOL0     C59429   8.105   4.592  10.280  0.6189 -0.1006 -0.1522
  441MOL0     C59430   8.136   4.504  10.397  0.7471 -1.1107  1.0433
  441MOL0     O59431   8.253   4.428  10.389  0.1314  0.3213 -0.1412
  441MOL0     C59432   8.287   4.376  10.510 -0.1406  0.3045  0.5404
  441MOL0     C59433   8.383   4.455  10.579 -0.3977  0.3254  0.0916
  441MOL0     C59434   8.443   4.404  10.694  0.6206 -0.8106  0.7106
  441MOL0     C59435   8.408   4.279  10.740  0.5874  0.6277  0.5406
  441MOL0     O59436   8.466   4.212  10.855 -0.3589  0.2639  0.0874
  441MOL0     C59437   8.586   4.252  10.921 -0.8817 -0.2372 -0.0964
  441MOL0     C59438   8.698   4.221  10.828  0.4732 -0.0601  0.5887
  441MOL0     C59439   8.825   4.296  10.864  0.3206 -0.6409 -0.3963
  441MOL0     C59440   8.876   4.306  11.013 -0.1284  0.4420  0.3781
  441MOL0     C59441   9.020   4.336  11.042  0.0042 -0.5205 -0.5236
  441MOL0     C59442   9.058   4.483  11.011  0.9421  0.4949  0.6847
  441MOL0     C59443   9.199   4.522  11.055 -0.1923  1.0605  0.1403
  441MOL0     C59444   9.248   4.661  10.991  0.3311 -0.2059 -0.2855
  441MOL0    Cl59445   9.385   4.729  11.089  0.0924 -0.2304  0.4510
  441MOL0     C59446   8.318   4.198  10.670 -0.1409 -0.2841 -0.5249
  441MOL0     C59447   8.251   4.247  10.559  0.9783 -0.0446  0.1940
  441MOL0     O59448   8.055   4.503  10.487  0.0608  0.0682  0.3567
  441MOL0     C59449   8.204   4.655  10.210  0.0722  0.1102 -0.4813
  441MOL0     C59450   8.178   4.741  10.104  0.8388  0.4377  1.0794
  441MOL0     N59451   7.626   4.787   9.412  0.6674  0.7315  1.1757
  441MOL0     N59452   7.519   4.822   9.361  0.6607  0.3168 -0.6745
  441MOL0     C59453   6.270   5.179   9.688 -0.3106 -0.4567 -0.7135
  441MOL0     C59454   6.143   5.225   9.708 -0.6857  0.8266  0.4848
  441MOL0     C59455   5.664   5.217   9.651 -0.2159  0.8915 -0.0330
  441MOL0     C59456   5.632   5.350   9.667  0.1215  0.3853  0.3359
  441MOL0     C59457   5.500   5.400   9.658 -0.0614  0.2179  0.6412
  441MOL0     C59458   5.392   5.311   9.654 -0.3321  0.6832  1.0920
  441MOL0     O59459   5.274   5.367   9.660  0.0280  0.0750  0.1565
  441MOL0     C59460   5.169   5.288   9.717  0.4744 -0.5558  0.0692
  441MOL0     C59461   5.081   5.382   9.806  0.7860  0.2186  0.0806
  441MOL0     C59462   5.137   5.436   9.943 -0.1314  0.2242 -0.3177
  441MOL0     C59463   5.100   5.578   9.969  0.2223  0.1882 -0.8898
  441MOL0     C59464   5.181   5.657   9.878  0.6818 -0.3352 -0.1708
  441MOL0     C59465   5.240   5.719   9.797  0.4490  0.2218 -0.6283
  441MOL0     C59466   5.422   5.176   9.633 -0.2938  0.3785 -0.0888
  441MOL0     C59467   5.555   5.127   9.635 -0.4257 -0.1973  0.2338
  441MOL0     H59468   6.009   5.078   9.428  1.5094 -2.3592  0.3163
  441MOL0     H59469   6.232   5.018   9.394 -0.9541  3.5375 -1.9592
  441MOL0     H59470   6.461   4.957   9.383 -1.7795 -0.9557  2.2020
  441MOL0     H59471   6.428   5.136   9.363  0.3370 -0.1594 -0.6411
  441MOL0     H59472   6.647   5.075   9.286  3.2959  0.4303 -0.6798
  441MOL0     H59473   6.632   5.202   9.411 -0.9749  0.0543 -1.2953
  441MOL0     H59474   6.678   4.994   9.567 -0.6022  1.5503 -0.4081
  441MOL0     H59475   6.734   4.909   9.421  1.0594  0.5859 -0.7628
  441MOL0     H59476   6.866   5.155   9.388 -1.7796 -1.1474 -2.1617
  441MOL0     H59477   6.827   5.174   9.548  2.2651 -1.3790  1.3436
  441MOL0     H59478   7.052   5.088   9.559 -1.3228  1.1223 -0.5174
  441MOL0     H59479   6.948   4.957   9.618  0.3896 -0.5363 -1.0214
  441MOL0     H59480   6.982   4.826   9.435  2.0605 -1.0243 -1.9280
  441MOL0     H59481   7.040   4.962   9.340 -1.5911  1.7323  0.5432
  441MOL0     H59482   7.219   4.983   9.475 -1.3072 -0.0426 -0.3461
  441MOL0     H59483   7.182   4.846   9.584  1.0455 -3.1049 -0.4593
  441MOL0     H59484   7.268   4.813   9.293 -3.2232  0.8050  0.8778
  441MOL0     H59485   7.237   4.683   9.413 -1.6500  0.4351  1.4958
  441MOL0     H59486   7.421   4.718   9.655 -1.9186 -0.1115 -1.3140
  441MOL0     H59487   7.665   4.608   9.680 -2.1570  0.8841 -0.5784
  441MOL0     H59488   7.792   4.656   9.565 -0.8483 -1.0721 -0.7144
  441MOL0     H59489   7.660   4.850   9.771 -1.0522 -0.5064 -1.3046
  441MOL0     H59490   7.787   4.898   9.652  1.2108 -1.5256 -0.8502
  441MOL0     H59491   7.941   4.763   9.730  0.6729  2.2384 -0.3889
  441MOL0     H59492   7.837   4.684   9.860 -0.6807  0.1594  0.0350
  441MOL0     H59493   7.825   4.897   9.982  0.4069  0.6211  0.3789
  441MOL0     H59494   7.901   4.961   9.839 -2.4452 -1.5159 -2.6176
  441MOL0     H59495   7.847   4.696  10.099  0.8518  0.5868 -2.0589
  441MOL0     H59496   7.755   4.588  10.237  0.3959  0.9908 -0.3194
  441MOL0     H59497   7.851   4.444  10.258  2.0796 -0.5001  1.1789
  441MOL0     H59498   7.840   4.568  10.392 -1.2586  1.5776 -0.6068
  441MOL0     H59499   8.417   4.555  10.555  2.1864 -0.6210 -0.5270
  441MOL0     H59500   8.526   4.454  10.743  1.1106 -1.7564  0.8891
  441MOL0     H59501   8.594   4.358  10.947  2.8702 -0.0430 -1.4592
  441MOL0     H59502   8.600   4.197  11.015  0.3016 -0.5464 -0.4333
  441MOL0     H59503   8.714   4.113  10.834  1.2486  0.0722  1.0678
  441MOL0     H59504   8.674   4.246  10.724  1.4259 -1.3943  0.0032
  441MOL0     H59505   8.817   4.401  10.832 -0.1229 -0.4108  0.4632
  441MOL0     H59506   8.903   4.256  10.798 -0.4142  0.3522 -1.9229
  441MOL0     H59507   8.815   4.381  11.064  1.4040  0.9469  1.5530
  441MOL0     H59508   8.858   4.209  11.062  0.2629 -0.8442 -1.8801
  441MOL0     H59509   9.070   4.260  10.981 -0.3138 -4.2245  3.3458
  441MOL0     H59510   9.041   4.316  11.147 -0.0067  1.7808 -0.0345
  441MOL0     H59511   9.048   4.514  10.907 -1.8589  4.4855  1.8780
  441MOL0     H59512   8.980   4.548  11.054 -0.0351  2.3517 -3.4005
  441MOL0     H59513   9.274   4.448  11.027 -1.5651  0.1638 -1.2771
  441MOL0     H59514   9.211   4.558  11.158  1.0787  1.9232 -0.2864
  441MOL0     H59515   9.165   4.732  10.984  1.9708  1.6403 -4.4043
  441MOL0     H59516   9.272   4.654  10.884 -1.9827 -1.0052 -0.8101
  441MOL0     H59517   8.295   4.097  10.701 -0.1423  0.3326  1.6692
  441MOL0     H59518   8.187   4.185  10.496  2.2473  0.9570 -2.2332
  441MOL0     H59519   8.307   4.647  10.243  0.4025 -1.3295 -1.7633
  441MOL0     H59520   8.246   4.807  10.052 -1.6404  2.4235  0.1349
  441MOL0     H59521   6.346   5.203   9.761  0.1224  2.4386 -1.9801
  441MOL0     H59522   6.113   5.282   9.795 -0.2153  2.6886 -0.5301
  441MOL0     H59523   5.714   5.418   9.687 -0.1267  0.6437  0.4774
  441MOL0     H59524   5.472   5.504   9.672  1.6384  0.5117  2.2269
  441MOL0     H59525   5.112   5.259   9.629  2.8215 -0.9986 -1.3766
  441MOL0     H59526   5.199   5.198   9.771  0.9667 -0.8011 -0.6091
  441MOL0     H59527   4.997   5.320   9.839  0.2920  0.2817 -1.0064
  441MOL0     H59528   5.046   5.465   9.745 -2.9919 -1.1583  0.1323
  441MOL0     H59529   5.244   5.413   9.954 -0.4819 -1.8716 -0.8666
  441MOL0     H59530   5.088   5.370  10.016 -4.6602  1.5557 -1.8192
  441MOL0     H59531   5.136   5.605  10.068  0.6706  1.8915 -1.4787
  441MOL0     H59532   4.993   5.590   9.952 -0.1141  1.1594  1.5919
  441MOL0     H59533   5.286   5.789   9.731  1.1280  0.7590  0.3821
  441MOL0     H59534   5.327   5.123   9.631 -0.0354 -0.3396  2.4683
  441MOL0     H59535   5.583   5.023   9.622  0.9686  0.0124  1.3061
  442MOL0     O59536   9.598   5.366   8.330  0.3001 -0.3769 -0.5609
  442MOL0     C59537   9.686   5.361   8.420  0.2777  0.6083  0.3202
  442MOL0     O59538   9.666   5.343   8.554  0.8216  0.3374  0.7095
  442MOL0     C59539   9.531   5.344   8.601  0.1936  0.0692  0.0902
  442MOL0     C59540   9.443   5.249   8.559  0.1864  0.6419  0.6293
  442MOL0     C59541   9.309   5.254   8.594 -0.1663 -0.1798 -0.2809
  442MOL0     C59542   9.264   5.353   8.673  0.1078 -0.8135  1.0616
  442MOL0     O59543   9.126   5.348   8.702 -0.5547 -0.0771  0.1631
  442MOL0     C59544   9.068   5.480   8.713  0.6240  0.1487  0.0938
  442MOL0     C59545   9.038   5.523   8.860 -0.1829  0.3318 -0.5268
  442MOL0     C59546   8.928   5.628   8.867  0.0420  0.2400 -0.0989
  442MOL0     C59547   8.869   5.639   9.020 -0.0587  0.1330  0.1927
  442MOL0     C59548   8.804   5.771   9.064 -0.3796 -0.6516  0.0511
  442MOL0     C59549   8.772   5.781   9.218  0.4568 -0.3361  0.6114
  442MOL0     C59550   8.744   5.923   9.272  0.4398 -0.5774  0.3215
  442MOL0     C59551   8.618   5.989   9.207 -0.3002 -0.4182 -1.0201
  442MOL0     N59552   8.494   5.934   9.250 -0.8812 -0.2216 -1.2681
  442MOL0     C59553   8.475   5.893   9.377 -0.1636 -0.0908  0.3427
  442MOL0     C59554   8.361   5.816   9.370 -0.6263  0.0232  0.4003
  442MOL0     C59555   8.292   5.730   9.476  0.1611 -0.3412 -0.7271
  442MOL0     C59556   8.171   5.655   9.423  0.0360 -0.9347 -0.3065
  442MOL0     C59557   8.099   5.595   9.544 -0.6381 -0.5990 -0.2583
  442MOL0     C59558   7.992   5.490   9.495  0.3994  0.4269  0.3812
  442MOL0     O59559   7.958   5.406   9.606  0.4707  0.7276 -0.2837
  442MOL0     C59560   7.845   5.337   9.609  0.3201  0.7762  0.4464
  442MOL0     C59561   7.761   5.299   9.502  0.0855  0.0597  0.4881
  442MOL0     C59562   7.641   5.230   9.520 -0.6573  0.2425  0.0516
  442MOL0     C59563   7.564   5.198   9.392 -0.2420  0.0669 -1.0668
  442MOL0     C59564   7.602   5.198   9.650 -0.1672 -0.9921  0.4547
  442MOL0     C59565   7.482   5.131   9.691 -0.6303 -0.2488  0.0083
  442MOL0     O59566   7.480   5.041   9.802  0.7134  0.5139  0.5296
  442MOL0     C59567   7.352   4.994   9.849  0.3194  0.3464  0.2425
  442MOL0     C59568   7.228   5.062   9.846  0.3223 -0.3181  0.4806
  442MOL0     C59569   7.105   5.009   9.887 -0.4144 -0.0059 -0.4837
  442MOL0     C59570   7.105   4.874   9.926 -0.4572 -0.1264 -0.7130
  442MOL0     O59571   6.981   4.824   9.963 -0.4027  0.5316 -0.2359
  442MOL0     C59572   6.982   4.692  10.019 -0.2027  0.5376  0.5753
  442MOL0     C59573   6.844   4.659  10.054  0.2027 -0.1907 -0.5884
  442MOL0     C59574   6.845   4.507  10.095 -0.3815 -0.6686 -1.0041
  442MOL0     C59575   6.722   4.473  10.178 -0.1885  0.7136  0.7792
  442MOL0     C59576   6.725   4.327  10.224 -0.1793 -0.5508  0.0980
  442MOL0     C59577   6.591   4.288  10.303 -0.2611 -0.3833 -0.6900
  442MOL0     C59578   6.557   4.397  10.411 -0.2624  0.2120  0.8459
  442MOL0     C59579   6.438   4.355  10.508 -0.6191  0.2049 -0.0752
  442MOL0    Cl59580   6.456   4.178  10.559  0.0066  0.1098  0.1218
  442MOL0     C59581   7.223   4.798   9.921 -0.4582 -0.1540  0.0970
  442MOL0     C59582   7.347   4.857   9.880 -0.1642  0.0982 -0.0597
  442MOL0     O59583   7.385   5.169   9.628  0.4450  1.3213 -0.0691
  442MOL0     C59584   7.675   5.252   9.756 -0.0492 -0.1577  0.2471
  442MOL0     C59585   7.803   5.311   9.738 -0.0641 -0.2753  0.2154
  442MOL0     N59586   8.312   5.827   9.236  0.7292 -0.1223 -0.1791
  442MOL0     N59587   8.402   5.889   9.169  0.0086 -0.9568  0.9861
  442MOL0     C59588   9.350   5.451   8.726  0.7863  0.1328  0.2982
  442MOL0     C59589   9.487   5.439   8.689 -0.1581  0.0567  0.8111
  442MOL0     C59590   9.829   5.366   8.376 -0.5589 -0.2666 -0.1803
  442MOL0     C59591   9.861   5.375   8.241 -0.5843  0.7747 -0.5525
  442MOL0     C59592   9.994   5.366   8.199 -0.5581 -0.1461 -0.7626
  442MOL0     C59593  10.099   5.348   8.295 -0.3808  0.3567 -0.4326
  442MOL0     O59594  10.233   5.344   8.252  0.3115 -0.1943 -0.1998
  442MOL0     C59595  10.336   5.371   8.346  0.1881  0.3162 -0.1986
  442MOL0     C59596  10.478   5.345   8.294 -0.2380 -0.4308  0.2688
  442MOL0     C59597  10.507   5.198   8.284  0.3153  0.3523  0.6436
  442MOL0     C59598  10.653   5.159   8.259  0.5744 -0.8523 -0.1703
  442MOL0     C59599  10.688   5.172   8.122  0.3112  0.9878  0.1016
  442MOL0     C59600  10.729   5.210   8.017  0.0440 -0.0542 -0.6646
  442MOL0     C59601  10.066   5.327   8.433 -0.8350  0.0661 -0.2952
  442MOL0     C59602   9.934   5.344   8.466  0.2722  0.0363  0.1959
  442MOL0     H59603   9.484   5.168   8.499 -0.6232  1.2557 -0.8047
  442MOL0     H59604   9.239   5.180   8.554  0.7769 -0.1316 -2.1493
  442MOL0     H59605   9.120   5.554   8.650 -1.1916  1.8853  0.5423
  442MOL0     H59606   8.972   5.460   8.666  1.9980 -1.7391 -2.1232
  442MOL0     H59607   9.002   5.429   8.902  0.4107  0.6509  0.7281
  442MOL0     H59608   9.131   5.550   8.909  1.5765 -1.3777 -2.6724
  442MOL0     H59609   8.955   5.727   8.828 -2.1134  2.0784  2.7478
  442MOL0     H59610   8.842   5.598   8.807 -0.3080 -2.8475  1.7521
  442MOL0     H59611   8.817   5.546   9.042 -3.9487  2.1144  0.1530
  442MOL0     H59612   8.960   5.632   9.081  0.7804 -1.7452 -1.1618
  442MOL0     H59613   8.877   5.851   9.052 -0.4377 -0.7055 -0.7010
  442MOL0     H59614   8.712   5.780   9.004 -1.1124  1.4836  1.3526
  442MOL0     H59615   8.686   5.716   9.236  1.7455 -1.7964  1.8687
  442MOL0     H59616   8.856   5.740   9.275  0.9516  1.6405  1.3675
  442MOL0     H59617   8.743   5.921   9.382 -1.2150  3.4208  0.5410
  442MOL0     H59618   8.833   5.983   9.253  0.3416  0.4413  2.6773
  442MOL0     H59619   8.638   5.966   9.101  2.9041 -0.1990 -0.5552
  442MOL0     H59620   8.622   6.097   9.218 -0.4225 -0.4444 -0.7233
  442MOL0     H59621   8.546   5.900   9.458  2.5795  0.3589 -1.9522
  442MOL0     H59622   8.372   5.659   9.499  1.8124  1.1911 -1.5468
  442MOL0     H59623   8.265   5.791   9.563 -2.4136 -2.2132 -0.0752
  442MOL0     H59624   8.192   5.584   9.342  0.5551  1.8253 -2.7569
  442MOL0     H59625   8.105   5.726   9.373  0.4000  0.0217  0.5272
  442MOL0     H59626   8.057   5.671   9.610 -1.0251 -0.3427 -0.7891
  442MOL0     H59627   8.171   5.549   9.611 -0.0258  3.5143  2.2915
  442MOL0     H59628   8.037   5.440   9.409 -0.5290 -1.5117  0.9459
  442MOL0     H59629   7.907   5.544   9.453  1.3054 -1.0721 -3.8146
  442MOL0     H59630   7.790   5.328   9.401  2.3063  1.8741  1.5453
  442MOL0     H59631   7.458   5.182   9.416 -0.4060  0.0528 -1.7823
  442MOL0     H59632   7.578   5.289   9.333  0.2331  0.1970 -0.7610
  442MOL0     H59633   7.596   5.109   9.336  1.1713  0.1256 -0.3850
  442MOL0     H59634   7.228   5.166   9.815  4.4416  0.2891  1.9543
  442MOL0     H59635   7.011   5.063   9.883 -0.3991  0.0722  0.0761
  442MOL0     H59636   7.008   4.621   9.940  0.3139  2.1923 -0.8017
  442MOL0     H59637   7.047   4.681  10.107  0.1689  0.3817  0.2852
  442MOL0     H59638   6.803   4.711  10.141  1.9426 -4.4518  3.2584
  442MOL0     H59639   6.773   4.672   9.972 -0.3753  0.2734 -0.0185
  442MOL0     H59640   6.924   4.491  10.170 -3.8570  0.5365  3.3545
  442MOL0     H59641   6.854   4.440  10.009  2.5638 -2.7282  0.7183
  442MOL0     H59642   6.715   4.541  10.263 -1.7930  0.0938  1.1671
  442MOL0     H59643   6.631   4.488  10.121 -0.3198 -2.4840 -0.0359
  442MOL0     H59644   6.815   4.308  10.282 -0.6059 -5.5015 -0.4456
  442MOL0     H59645   6.737   4.254  10.144 -0.3704 -0.2086 -0.2487
  442MOL0     H59646   6.510   4.280  10.230  2.0661 -2.5575 -3.2527
  442MOL0     H59647   6.609   4.192  10.352  0.2010 -0.2984 -0.6864
  442MOL0     H59648   6.522   4.478  10.347  2.8472 -0.3876 -1.8969
  442MOL0     H59649   6.646   4.427  10.467  0.9139  2.3059 -1.9130
  442MOL0     H59650   6.342   4.363  10.456 -0.0346 -0.0169 -1.2232
  442MOL0     H59651   6.437   4.413  10.601  0.6221 -0.8924  0.6597
  442MOL0     H59652   7.228   4.698   9.961 -1.9619 -0.4239 -0.3297
  442MOL0     H59653   7.437   4.797   9.878  1.7555  2.6584  2.1195
  442MOL0     H59654   7.629   5.252   9.855 -0.0855 -0.3201  0.2311
  442MOL0     H59655   7.864   5.345   9.820 -1.1566  0.5279  0.7117
  442MOL0     H59656   9.316   5.531   8.791  0.2193 -0.8266  1.2116
  442MOL0     H59657   9.556   5.517   8.722 -0.2071 -0.7279  2.9269
  442MOL0     H59658   9.793   5.391   8.158 -0.0093  1.5920 -0.8839
  442MOL0     H59659  10.021   5.358   8.094  0.4740 -1.9244 -0.4078
  442MOL0     H59660  10.322   5.475   8.376 -0.4587 -0.0503  0.8012
  442MOL0     H59661  10.330   5.312   8.438 -0.5841  1.0741  0.2462
  442MOL0     H59662  10.551   5.396   8.357 -1.0494  1.1596 -0.0185
  442MOL0     H59663  10.483   5.392   8.195  0.1803 -0.7951  0.1143
  442MOL0     H59664  10.444   5.159   8.203  1.4060 -1.0674  0.4435
  442MOL0     H59665  10.480   5.148   8.377  0.8302  0.9134  1.1015
  442MOL0     H59666  10.671   5.067   8.316  0.7962 -0.2421  0.7578
  442MOL0     H59667  10.718   5.230   8.311  0.3883  0.0628 -1.1644
  442MOL0     H59668  10.768   5.258   7.929  1.5188 -1.0384 -0.5950
  442MOL0     H59669  10.146   5.310   8.505 -1.9509  0.3488  1.0381
  442MOL0     H59670   9.929   5.332   8.574  0.1325 -0.0460  0.1805
  443MOL0     O59671   3.516  11.114   0.918  0.2599  0.1357 -0.5600
  443MOL0     C59672   3.577  11.178   1.006 -0.2587  0.6969 -0.1088
  443MOL0     O59673   3.524  11.232   1.127 -0.2858  0.5655  0.9538
  443MOL0     C59674   3.395  11.198   1.149  0.0305 -0.0678  0.1475
  443MOL0     C59675   3.279  11.202   1.071 -0.5445  0.5100  0.5039
  443MOL0     C59676   3.155  11.171   1.125  0.2772 -0.8249  0.5085
  443MOL0     C59677   3.139  11.116   1.252  0.2518 -0.6176  0.0661
  443MOL0     O59678   3.027  11.055   1.292 -0.4260 -0.1992  0.1522
  443MOL0     C59679   2.913  11.056   1.208 -0.4266  0.2003  0.1602
  443MOL0     C59680   2.804  10.994   1.292  0.9044 -0.2671 -0.1454
  443MOL0     C59681   2.703  10.922   1.205 -0.0956 -0.0770  0.5734
  443MOL0     C59682   2.575  10.901   1.287  0.1043 -0.0799  0.5435
  443MOL0     C59683   2.469  10.816   1.212  0.0193  0.2619 -1.1804
  443MOL0     C59684   2.389  10.732   1.309  0.1759 -0.3790 -0.5799
  443MOL0     C59685   2.265  10.665   1.256  0.7993 -0.9750 -0.7198
  443MOL0     C59686   2.290  10.569   1.133  0.0685  0.2394 -0.0194
  443MOL0     N59687   2.166  10.496   1.096  0.1473  0.0979 -0.7736
  443MOL0     C59688   2.054  10.488   1.184 -0.0462  0.8064  0.0387
  443MOL0     C59689   1.993  10.374   1.151 -1.0237  0.7524 -0.4694
  443MOL0     C59690   1.874  10.311   1.228 -0.0272  0.0588  0.1948
  443MOL0     C59691   1.867  10.165   1.181 -0.4035 -0.2263  0.0012
  443MOL0     C59692   1.763  10.086   1.257  0.7404 -0.5526 -0.4700
  443MOL0     C59693   1.620  10.126   1.247 -0.3051  0.5474 -0.4096
  443MOL0     O59694   1.583  10.144   1.112  0.4700  0.4822  0.8756
  443MOL0     C59695   1.465  10.197   1.075 -0.1484 -0.3799  0.1107
  443MOL0     C59696   1.471  10.233   0.944 -0.2984 -0.4651  0.4670
  443MOL0     C59697   1.358  10.292   0.881 -0.3123  0.1951 -0.2627
  443MOL0     C59698   1.363  10.315   0.728 -0.4259 -0.0025  0.3335
  443MOL0     C59699   1.242  10.306   0.955 -0.1882 -0.3778  0.1470
  443MOL0     C59700   1.111  10.365   0.899 -0.2874  0.3086  0.5606
  443MOL0     O59701   0.996  10.308   0.929  0.6678 -0.3723 -0.2338
  443MOL0     C59702   0.883  10.371   0.903 -0.0384 -1.3026  0.4342
  443MOL0     C59703   0.810  10.350   0.784 -0.9305 -0.1577 -1.0893
  443MOL0     C59704   0.684  10.409   0.772 -0.3847 -0.5978  0.0998
  443MOL0     C59705   0.629  10.485   0.872  0.0489  0.0119  0.4511
  443MOL0     O59706   0.503  10.544   0.880  0.1566  0.0592  0.5760
  443MOL0     C59707   0.426  10.553   0.761 -0.5650 -0.2559 -0.5287
  443MOL0     C59708   0.273  10.563   0.805 -0.7495  0.5192  0.1103
  443MOL0     C59709   0.179  10.529   0.688 -0.7427  0.3191  0.5110
  443MOL0     C59710   0.034  10.545   0.724 -0.4744  0.6911  0.0682
  443MOL0     C59711  -0.056  10.525   0.599 -0.5462  0.0442  0.0162
  443MOL0     C59712  -0.016  10.603   0.475 -0.1949  0.3097 -0.3993
  443MOL0     C59713  -0.126  10.603   0.356  0.3148 -0.3208 -0.2164
  443MOL0     C59714  -0.124  10.722   0.247 -0.6590  0.2409  0.6078
  443MOL0    Cl59715   0.050  10.742   0.193 -0.2220 -0.1677 -0.1258
  443MOL0     C59716   0.712  10.513   0.986 -0.3585 -0.2819  0.1345
  443MOL0     C59717   0.836  10.454   1.001 -0.5664  0.8229  0.4176
  443MOL0     O59718   1.127  10.471   0.830 -0.1411  0.2636 -0.4614
  443MOL0     C59719   1.242  10.276   1.093 -0.1308  1.0686 -0.0285
  443MOL0     C59720   1.350  10.213   1.152 -0.3274 -1.1938 -0.1566
  443MOL0     N59721   2.069  10.315   1.049  0.3372  1.0275 -0.3901
  443MOL0     N59722   2.173  10.385   1.025 -0.4723 -0.2402  0.5922
  443MOL0     C59723   3.252  11.107   1.335  0.2040  0.2755  0.7748
  443MOL0     C59724   3.377  11.153   1.283  0.8182  0.1165  0.2525
  443MOL0     C59725   3.714  11.202   0.971 -0.2807 -0.4799  0.7291
  443MOL0     C59726   3.753  11.192   0.833  0.0997  0.7383 -0.4632
  443MOL0     C59727   3.885  11.213   0.792  0.7679  0.9359  0.0978
  443MOL0     C59728   3.981  11.261   0.879  0.2047  0.0908 -0.9019
  443MOL0     O59729   4.109  11.288   0.831  0.5909  0.6375  0.2402
  443MOL0     C59730   4.183  11.394   0.890  0.7236  0.0550  0.7026
  443MOL0     C59731   4.280  11.456   0.771 -0.1294  0.1707 -0.3733
  443MOL0     C59732   4.426  11.406   0.769  1.0266 -0.2874  0.0517
  443MOL0     C59733   4.508  11.501   0.854  0.5754  0.5554  0.2829
  443MOL0     C59734   4.485  11.516   0.999  0.2846 -0.2981  0.0378
  443MOL0     C59735   4.475  11.541   1.118  0.0668  0.5546  1.3156
  443MOL0     C59736   3.949  11.280   1.012  0.2285 -0.7488  0.0784
  443MOL0     C59737   3.811  11.254   1.053 -0.4041  0.0011 -0.2610
  443MOL0     H59738   3.292  11.245   0.972  2.1145  2.1464  1.4691
  443MOL0     H59739   3.065  11.194   1.069  1.1537 -0.0351 -0.6223
  443MOL0     H59740   2.871  11.150   1.172 -0.7658  0.2800  0.7661
  443MOL0     H59741   2.944  10.993   1.124  1.6290  0.8376  0.3766
  443MOL0     H59742   2.851  10.927   1.365  0.5458  1.3981  1.6975
  443MOL0     H59743   2.758  11.075   1.349 -0.0384 -0.8390 -0.0775
  443MOL0     H59744   2.691  10.986   1.117  1.9566  1.1105  1.0953
  443MOL0     H59745   2.750  10.833   1.162 -0.7169  0.6407 -1.7383
  443MOL0     H59746   2.604  10.845   1.376  0.7458 -2.2497 -0.9678
  443MOL0     H59747   2.534  10.997   1.321 -0.1098 -0.3124  0.9431
  443MOL0     H59748   2.413  10.883   1.146 -0.6124 -2.7679 -3.9800
  443MOL0     H59749   2.525  10.742   1.155  0.4693 -1.6260  1.4906
  443MOL0     H59750   2.450  10.655   1.356  1.3853  0.8546 -0.0797
  443MOL0     H59751   2.346  10.790   1.392 -0.4664 -1.6165 -0.0248
  443MOL0     H59752   2.218  10.605   1.334  0.3867  0.2047 -0.0364
  443MOL0     H59753   2.199  10.750   1.238  1.2967 -0.7868 -1.7051
  443MOL0     H59754   2.366  10.499   1.169 -1.7547 -0.4197  2.8556
  443MOL0     H59755   2.318  10.627   1.045 -2.4997  0.4858 -0.7573
  443MOL0     H59756   2.009  10.555   1.257  0.3660 -0.0328  1.0825
  443MOL0     H59757   1.878  10.321   1.336  3.1659  0.4563  0.1173
  443MOL0     H59758   1.777  10.358   1.210  0.4518  2.3466  2.9894
  443MOL0     H59759   1.964  10.118   1.200  1.3147  2.7613 -0.7618
  443MOL0     H59760   1.838  10.152   1.077 -0.6889 -1.8507  0.2588
  443MOL0     H59761   1.795  10.079   1.361 -2.1652 -1.0420  0.4838
  443MOL0     H59762   1.764   9.986   1.212  1.0673  0.2788 -2.3914
  443MOL0     H59763   1.593  10.213   1.308  0.9626  1.5111 -1.1647
  443MOL0     H59764   1.564  10.037   1.275  2.4072 -1.7799 -1.8492
  443MOL0     H59765   1.561  10.220   0.885 -1.3972 -0.9281 -1.1903
  443MOL0     H59766   1.298  10.252   0.667 -0.4029  1.8784 -1.7681
  443MOL0     H59767   1.330  10.419   0.715  1.9400  1.0795  2.0663
  443MOL0     H59768   1.465  10.324   0.688 -0.6300  1.0045 -0.0072
  443MOL0     H59769   0.838  10.279   0.706 -1.5268 -1.2023 -0.3744
  443MOL0     H59770   0.636  10.384   0.678  0.8187 -0.3804 -0.5871
  443MOL0     H59771   0.443  10.647   0.708 -1.5409 -0.2077 -0.7793
  443MOL0     H59772   0.432  10.465   0.696  0.4912 -1.7959  1.5369
  443MOL0     H59773   0.258  10.499   0.893 -2.6648 -0.1572 -0.6463
  443MOL0     H59774   0.247  10.666   0.831 -0.6046  0.0828  2.1766
  443MOL0     H59775   0.206  10.432   0.645 -1.4661  0.5174 -0.4059
  443MOL0     H59776   0.205  10.599   0.608  1.0049 -1.0662 -0.2089
  443MOL0     H59777   0.009  10.473   0.802 -4.7238 -0.3310 -1.9787
  443MOL0     H59778   0.021  10.647   0.760  1.6837  0.9301  0.3045
  443MOL0     H59779  -0.154  10.556   0.636  0.6325  0.9909  2.5949
  443MOL0     H59780  -0.062  10.417   0.581  1.0592 -0.5150  2.3585
  443MOL0     H59781  -0.009  10.701   0.521 -0.0115  0.3710 -0.5551
  443MOL0     H59782   0.078  10.566   0.431 -1.0071 -1.0308 -1.0742
  443MOL0     H59783  -0.223  10.595   0.404  0.7463 -3.8073  0.3041
  443MOL0     H59784  -0.120  10.510   0.298 -1.0012  0.2459 -1.3080
  443MOL0     H59785  -0.165  10.815   0.289  0.5327  0.7118  0.7782
  443MOL0     H59786  -0.189  10.704   0.161  1.5228 -0.4975 -0.9540
  443MOL0     H59787   0.663  10.572   1.062 -1.6608 -2.4752  1.0976
  443MOL0     H59788   0.896  10.460   1.091  0.7775 -1.9058 -0.1797
  443MOL0     H59789   1.150  10.273   1.150 -0.8874  1.1268 -1.2211
  443MOL0     H59790   1.338  10.185   1.257 -0.2889 -0.5900  0.0125
  443MOL0     H59791   3.259  11.068   1.436  3.6952 -0.5886  0.3236
  443MOL0     H59792   3.463  11.147   1.349 -0.1145 -0.8549  1.4292
  443MOL0     H59793   3.671  11.161   0.769 -0.1728 -1.2581  0.7634
  443MOL0     H59794   3.910  11.200   0.687  1.0751 -3.0270  0.5000
  443MOL0     H59795   4.118  11.468   0.938 -2.2055 -1.7155 -0.2813
  443MOL0     H59796   4.256  11.356   0.962  3.1883 -1.7934 -2.4777
  443MOL0     H59797   4.275  11.566   0.767 -0.4732  0.1466 -0.6367
  443MOL0     H59798   4.233  11.427   0.677 -0.2947 -0.8096  0.0021
  443MOL0     H59799   4.467  11.399   0.669 -0.6053 -3.1038 -0.5352
  443MOL0     H59800   4.439  11.303   0.804 -1.9582  0.2289  3.3676
  443MOL0     H59801   4.503  11.603   0.814  1.1436  0.9452  1.1482
  443MOL0     H59802   4.611  11.469   0.840  0.0617 -0.9879 -0.1386
  443MOL0     H59803   4.490  11.544   1.224  1.0371 -3.1904  1.4304
  443MOL0     H59804   4.022  11.318   1.082 -1.2922  3.3014 -0.2318
  443MOL0     H59805   3.786  11.271   1.157  2.6072 -1.0733  0.7472
  444MOL0     O59806   0.266   5.525   0.860 -0.7013  0.5413 -0.1102
  444MOL0     C59807   0.362   5.501   0.788 -0.0662 -1.2006  0.0129
  444MOL0     O59808   0.360   5.446   0.663  0.4349 -0.3048  0.9006
  444MOL0     C59809   0.246   5.423   0.595  0.1003  0.4501 -0.1287
  444MOL0     C59810   0.122   5.493   0.612  0.1331 -0.0671  0.2263
  444MOL0     C59811   0.016   5.476   0.516  1.2493  0.4286  0.0259
  444MOL0     C59812   0.038   5.393   0.403 -0.1070 -0.5085 -0.9459
  444MOL0     O59813  -0.063   5.391   0.312  0.2015  0.1510  0.3120
  444MOL0     C59814  -0.043   5.331   0.180 -0.1732 -0.3750 -0.5340
  444MOL0     C59815  -0.123   5.206   0.153  0.5422  1.6483  0.3953
  444MOL0     C59816  -0.060   5.081   0.209 -0.5477  0.0387 -0.5637
  444MOL0     C59817  -0.154   4.967   0.221 -0.0974  0.1276 -0.1119
  444MOL0     C59818  -0.074   4.852   0.277 -0.2304 -0.6286  1.3388
  444MOL0     C59819  -0.164   4.739   0.321 -0.4205 -0.4208  0.2714
  444MOL0     C59820  -0.098   4.634   0.408 -0.2063  0.3300 -0.0321
  444MOL0     C59821   0.001   4.694   0.511  0.6557  0.5713 -0.1717
  444MOL0     N59822   0.049   4.588   0.597  0.6857 -0.3385  0.3863
  444MOL0     C59823   0.095   4.463   0.562  0.3968  0.1677  0.5820
  444MOL0     C59824   0.065   4.382   0.664 -0.5422  0.5278 -0.4427
  444MOL0     C59825   0.090   4.236   0.680 -0.1056 -0.4295  0.2016
  444MOL0     C59826  -0.045   4.160   0.662 -0.3676 -0.5010 -0.5717
  444MOL0     C59827  -0.015   4.010   0.628  0.6294 -0.5278 -0.5859
  444MOL0     C59828  -0.148   3.937   0.608  1.2954  0.9193 -0.3804
  444MOL0     O59829  -0.167   3.856   0.725 -0.2034 -0.2384 -0.5875
  444MOL0     C59830  -0.287   3.792   0.740 -0.0304 -0.0424  0.0961
  444MOL0     C59831  -0.292   3.692   0.834  0.4364 -0.1586  0.1007
  444MOL0     C59832  -0.406   3.624   0.871 -0.3826  0.2800  0.1445
  444MOL0     C59833  -0.409   3.513   0.969  0.1240  0.9641 -1.2063
  444MOL0     C59834  -0.531   3.663   0.800 -0.8836 -0.8651 -0.4851
  444MOL0     C59835  -0.652   3.615   0.849 -1.0523 -0.4161 -0.0575
  444MOL0     O59836  -0.670   3.479   0.864  0.1150 -0.1889 -0.1651
  444MOL0     C59837  -0.790   3.430   0.897 -0.1290 -0.7551 -0.0091
  444MOL0     C59838  -0.817   3.410   1.033 -0.3284  0.3560 -0.1912
  444MOL0     C59839  -0.943   3.374   1.083  0.5662 -1.4875  0.4341
  444MOL0     C59840  -1.045   3.347   0.989  0.1863 -0.6084  0.5343
  444MOL0     O59841  -1.176   3.308   1.006 -0.0150 -0.5680 -0.2814
  444MOL0     C59842  -1.189   3.211   1.114 -0.2312  0.7993 -0.0817
  444MOL0     C59843  -1.323   3.123   1.105 -0.6635  0.3381  0.2779
  444MOL0     C59844  -1.443   3.214   1.130 -0.8740 -0.5355 -0.7042
  444MOL0     C59845  -1.561   3.129   1.133  0.4014 -0.0389 -0.2475
  444MOL0     C59846  -1.694   3.204   1.166 -0.7451  0.6079 -0.4182
  444MOL0     C59847  -1.807   3.102   1.170  0.3768  0.8060 -0.0875
  444MOL0     C59848  -1.930   3.163   1.235 -0.1994 -0.8314  0.1148
  444MOL0     C59849  -2.029   3.059   1.272  0.7656  0.1092 -0.5657
  444MOL0    Cl59850  -2.147   3.031   1.134 -0.0870 -0.1271 -0.2709
  444MOL0     C59851  -1.017   3.363   0.851  0.9540 -0.2308 -0.2411
  444MOL0     C59852  -0.889   3.405   0.806 -0.2565  0.3376 -0.3034
  444MOL0     O59853  -0.735   3.702   0.885  0.1132  0.1352  0.4478
  444MOL0     C59854  -0.527   3.772   0.709  0.0501 -0.3179  0.7450
  444MOL0     C59855  -0.405   3.832   0.683 -0.2787  0.4109  0.2278
  444MOL0     N59856   0.012   4.457   0.764 -0.0134 -0.5215  0.6005
  444MOL0     N59857   0.006   4.580   0.729  0.4398  0.7516  0.8084
  444MOL0     C59858   0.159   5.328   0.390  0.2328  1.1725 -0.3948
  444MOL0     C59859   0.259   5.341   0.485  0.0249 -0.5486  1.4861
  444MOL0     C59860   0.492   5.524   0.840 -0.2283  0.7425  0.3350
  444MOL0     C59861   0.611   5.508   0.757  0.3391  0.3132 -1.0742
  444MOL0     C59862   0.740   5.542   0.804  0.2962  0.4884  0.5352
  444MOL0     C59863   0.753   5.595   0.929  0.2044 -0.2505 -1.2304
  444MOL0     O59864   0.881   5.636   0.970  0.3501 -0.1949  0.2096
  444MOL0     C59865   0.899   5.692   1.101 -0.3470  0.8331  0.1716
  444MOL0     C59866   1.050   5.715   1.111 -0.0450  0.3890  0.5757
  444MOL0     C59867   1.099   5.806   1.005  0.0711 -0.0537 -0.0179
  444MOL0     C59868   1.249   5.801   1.000  0.0726 -0.2823  0.6947
  444MOL0     C59869   1.298   5.914   0.912  0.6352  0.4811 -0.7943
  444MOL0     C59870   1.325   5.997   0.834  0.5302 -0.6689  0.3317
  444MOL0     C59871   0.643   5.606   1.004  0.0402 -0.2020  0.3703
  444MOL0     C59872   0.520   5.569   0.962 -0.3572  0.1601  0.5460
  444MOL0     H59873   0.108   5.547   0.705  0.6755 -2.5950  1.8651
  444MOL0     H59874  -0.081   5.513   0.548  0.6165  0.0399 -1.4052
  444MOL0     H59875  -0.083   5.403   0.108 -2.3606 -1.2153 -0.2484
  444MOL0     H59876   0.063   5.319   0.156  0.1843 -1.2775  1.3515
  444MOL0     H59877  -0.228   5.200   0.181 -0.3482  2.8764 -2.3870
  444MOL0     H59878  -0.131   5.185   0.046 -2.2845  1.8973  0.4944
  444MOL0     H59879   0.021   5.046   0.144 -1.9956 -0.4708 -2.1850
  444MOL0     H59880  -0.021   5.112   0.306 -1.4381  2.9632 -1.0449
  444MOL0     H59881  -0.238   4.991   0.288  1.2797  0.0078  1.7356
  444MOL0     H59882  -0.197   4.936   0.125 -1.5630  4.5974 -1.1372
  444MOL0     H59883  -0.009   4.813   0.198 -0.1561  0.8072  0.6722
  444MOL0     H59884  -0.006   4.898   0.349 -1.2217  1.6374  0.9050
  444MOL0     H59885  -0.253   4.778   0.372 -0.6738  3.6078 -2.7546
  444MOL0     H59886  -0.207   4.685   0.236 -1.5205 -3.1265  2.3860
  444MOL0     H59887  -0.179   4.579   0.456  0.2786  0.7119  1.2446
  444MOL0     H59888  -0.037   4.563   0.352 -0.4293 -1.4288  1.8655
  444MOL0     H59889  -0.049   4.772   0.570  0.5879  0.2186  0.2460
  444MOL0     H59890   0.083   4.741   0.456 -0.9377  0.1503 -3.0657
  444MOL0     H59891   0.125   4.419   0.467  1.1357  1.0143  0.4076
  444MOL0     H59892   0.173   4.204   0.616  1.5256  3.6302  0.0318
  444MOL0     H59893   0.137   4.211   0.775 -0.4644 -0.4802  0.3672
  444MOL0     H59894  -0.108   4.210   0.588  0.5567  1.6536 -0.0002
  444MOL0     H59895  -0.102   4.159   0.756  1.3839 -0.2308  0.5377
  444MOL0     H59896   0.029   3.980   0.723  1.6505  2.8971  0.1538
  444MOL0     H59897   0.058   4.005   0.546  0.4539 -0.3369 -0.7540
  444MOL0     H59898  -0.132   3.877   0.518  1.1914 -1.4069  1.0689
  444MOL0     H59899  -0.228   4.011   0.597 -0.2421 -0.4510  0.9324
  444MOL0     H59900  -0.197   3.675   0.884 -1.2996 -1.3674  3.2898
  444MOL0     H59901  -0.319   3.508   1.030 -1.5114 -2.8619  1.3025
  444MOL0     H59902  -0.489   3.533   1.042  0.6201 -1.2295  0.0364
  444MOL0     H59903  -0.432   3.415   0.927 -0.5244  1.7698 -2.8012
  444MOL0     H59904  -0.731   3.443   1.090  0.8321 -1.5104 -0.7633
  444MOL0     H59905  -0.969   3.380   1.188  0.5795  0.3378  0.3572
  444MOL0     H59906  -1.107   3.138   1.103  0.5489  1.4755  1.0178
  444MOL0     H59907  -1.178   3.256   1.213 -1.4689 -0.3549  0.6176
  444MOL0     H59908  -1.326   3.086   1.002  1.2315 -1.0074  0.6684
  444MOL0     H59909  -1.317   3.036   1.171  1.8010  1.0784  1.1418
  444MOL0     H59910  -1.460   3.287   1.050  2.4756  1.3989  0.1369
  444MOL0     H59911  -1.424   3.255   1.229 -0.6422 -1.3797 -0.3887
  444MOL0     H59912  -1.572   3.083   1.034  0.7538 -1.7685  0.4823
  444MOL0     H59913  -1.551   3.043   1.201  1.0845 -2.7778 -3.5251
  444MOL0     H59914  -1.702   3.288   1.097 -1.7494  0.2804 -0.7188
  444MOL0     H59915  -1.679   3.251   1.264  1.5217  0.8002 -0.8060
  444MOL0     H59916  -1.832   3.054   1.075 -2.7704  2.2088 -0.0669
  444MOL0     H59917  -1.766   3.020   1.230 -2.0666 -2.5034 -2.5308
  444MOL0     H59918  -1.972   3.227   1.158  1.5470  0.5522  0.2584
  444MOL0     H59919  -1.905   3.225   1.322 -0.9457  1.2507 -1.0941
  444MOL0     H59920  -2.076   3.104   1.360  0.9494 -2.0177  0.6908
  444MOL0     H59921  -1.996   2.967   1.319  0.0811 -0.1973 -0.6653
  444MOL0     H59922  -1.100   3.339   0.785  0.3359 -0.4957  0.6211
  444MOL0     H59923  -0.851   3.405   0.705  0.0746 -1.7393 -0.2118
  444MOL0     H59924  -0.616   3.807   0.659 -0.8557  0.7390  2.9531
  444MOL0     H59925  -0.416   3.912   0.611 -2.0793 -0.9581 -1.1422
  444MOL0     H59926   0.197   5.266   0.309  3.0179  0.9820  0.9693
  444MOL0     H59927   0.353   5.287   0.478  0.2793 -0.0019  0.5913
  444MOL0     H59928   0.601   5.464   0.659 -1.9515  0.3087 -0.8899
  444MOL0     H59929   0.827   5.525   0.741  1.1662  0.5706  1.6831
  444MOL0     H59930   0.834   5.779   1.104 -4.0567 -1.6392 -1.5463
  444MOL0     H59931   0.872   5.622   1.181 -1.2710 -0.6953 -1.4189
  444MOL0     H59932   1.092   5.614   1.099 -0.0872  0.3416  0.8250
  444MOL0     H59933   1.070   5.758   1.210  0.1170  0.0739  0.6827
  444MOL0     H59934   1.063   5.909   1.015 -2.2079 -0.8272  0.3978
  444MOL0     H59935   1.060   5.770   0.909 -0.9642  1.3142 -0.1475
  444MOL0     H59936   1.283   5.708   0.953 -4.0225 -1.4467 -0.3976
  444MOL0     H59937   1.288   5.814   1.101  2.1717  2.4882 -0.3304
  444MOL0     H59938   1.352   6.075   0.765  2.0625 -1.0125  0.4929
  444MOL0     H59939   0.651   5.661   1.098  2.9587  0.9284 -0.4447
  444MOL0     H59940   0.431   5.565   1.025 -1.8187 -3.4717 -1.4145
  445MOL0     O59941   7.782   4.544   8.343  0.8681 -0.5451  0.2757
  445MOL0     C59942   7.712   4.639   8.388 -0.1874 -0.5790 -0.7061
  445MOL0     O59943   7.588   4.673   8.345  0.1053  0.7985 -0.6812
  445MOL0     C59944   7.513   4.587   8.273  0.3743 -0.0341 -0.1556
  445MOL0     C59945   7.446   4.632   8.163 -0.1353  0.0501 -0.7693
  445MOL0     C59946   7.355   4.558   8.088 -0.3542 -0.6164  0.3259
  445MOL0     C59947   7.337   4.426   8.119  0.2628  0.0386 -0.0140
  445MOL0     O59948   7.245   4.354   8.042  0.7168  0.2379 -0.5057
  445MOL0     C59949   7.160   4.254   8.097  0.1742 -0.3386 -0.3931
  445MOL0     C59950   7.079   4.299   8.218 -0.6496  0.1659  0.5913
  445MOL0     C59951   7.000   4.180   8.267  0.2615  0.3781 -0.2046
  445MOL0     C59952   6.870   4.150   8.196  0.6321  0.5566 -0.2082
  445MOL0     C59953   6.766   4.051   8.246  0.0277  0.2573  0.7123
  445MOL0     C59954   6.675   4.117   8.351 -1.0334 -0.3526  0.9637
  445MOL0     C59955   6.593   4.010   8.415  0.1353  0.2014 -0.1984
  445MOL0     C59956   6.476   3.961   8.326 -0.8756  0.4179 -0.1747
  445MOL0     N59957   6.418   3.862   8.421  0.0379 -0.3427  0.4092
  445MOL0     C59958   6.404   3.729   8.378  0.0331  0.7061 -0.4004
  445MOL0     C59959   6.326   3.665   8.468 -0.4142 -0.4140 -0.2082
  445MOL0     C59960   6.315   3.519   8.490  0.1515  0.2571  0.4785
  445MOL0     C59961   6.183   3.462   8.540  0.0073 -0.1675 -0.1567
  445MOL0     C59962   6.081   3.450   8.434 -0.2792  0.1034 -0.1920
  445MOL0     C59963   6.014   3.589   8.398  0.6393 -0.2023  0.1518
  445MOL0     O59964   5.903   3.595   8.307  0.5054  0.0573 -0.9662
  445MOL0     C59965   5.787   3.526   8.340 -0.9389  0.2380 -0.3954
  445MOL0     C59966   5.753   3.477   8.463 -0.5542 -0.0492  0.9662
  445MOL0     C59967   5.628   3.414   8.486 -0.2352  0.5249  0.5444
  445MOL0     C59968   5.605   3.352   8.619 -0.0102  0.5144  0.9235
  445MOL0     C59969   5.529   3.419   8.380  0.1913 -0.6193  0.2838
  445MOL0     C59970   5.393   3.362   8.396  0.5118  0.4450  0.3558
  445MOL0     O59971   5.326   3.341   8.272  0.9446  0.4431 -0.7232
  445MOL0     C59972   5.197   3.290   8.282 -0.1980 -0.1585 -0.2499
  445MOL0     C59973   5.087   3.370   8.311 -0.0040 -0.6461 -0.3021
  445MOL0     C59974   4.963   3.312   8.311 -0.8255 -0.3457 -0.1039
  445MOL0     C59975   4.944   3.174   8.279  0.1413  0.0703  1.3343
  445MOL0     O59976   4.824   3.104   8.285 -0.7668 -0.3080  0.8366
  445MOL0     C59977   4.753   3.116   8.405  0.1412 -1.5484 -0.2789
  445MOL0     C59978   4.809   3.041   8.525 -0.4164  0.4394  0.5884
  445MOL0     C59979   4.908   3.120   8.615 -0.0813  0.0675 -0.1075
  445MOL0     C59980   4.935   3.051   8.743  0.3316  0.3027 -0.4704
  445MOL0     C59981   5.065   3.101   8.806  0.1508 -0.0424 -0.4695
  445MOL0     C59982   5.182   3.037   8.741 -0.6974  0.9061  0.6426
  445MOL0     C59983   5.317   3.059   8.811  0.0574 -0.3414 -0.4536
  445MOL0     C59984   5.355   3.203   8.823  0.3496 -0.5012  0.2336
  445MOL0    Cl59985   5.500   3.233   8.926  0.2143 -0.0308  0.0599
  445MOL0     C59986   5.056   3.101   8.242 -0.0377  0.6811  0.6878
  445MOL0     C59987   5.178   3.164   8.241 -0.7910  0.1111 -0.1129
  445MOL0     O59988   5.343   3.332   8.503  0.2313  0.3908 -0.4019
  445MOL0     C59989   5.570   3.464   8.253 -0.1899 -0.5613 -0.0986
  445MOL0     C59990   5.699   3.509   8.235 -0.8777 -0.7797  0.6214
  445MOL0     N59991   6.281   3.764   8.565 -0.6183  1.2306 -0.5549
  445MOL0     N59992   6.338   3.871   8.534 -0.0344 -0.1002 -0.7697
  445MOL0     C59993   7.397   4.372   8.242 -0.9872 -0.3102  0.1646
  445MOL0     C59994   7.488   4.452   8.310  0.5543 -0.1435  0.2023
  445MOL0     C59995   7.781   4.751   8.458  0.0143  0.9101 -0.0148
  445MOL0     C59996   7.727   4.880   8.461 -1.2790 -0.1746  0.1009
  445MOL0     C59997   7.799   4.983   8.527  0.5367 -0.3458  0.4398
  445MOL0     C59998   7.905   4.959   8.609  0.1773  0.1756  0.6384
  445MOL0     O59999   7.953   5.069   8.678 -0.6368 -0.1168  0.3880
  445MOL0     C60000   8.054   5.042   8.779  0.2834 -0.3212  0.0899
  445MOL0     C60001   8.187   5.097   8.733 -0.2303  0.1089 -1.0056
  445MOL0     C60002   8.306   5.083   8.838  0.3377  0.6056  0.0713
  445MOL0     C60003   8.425   5.147   8.776 -0.0617 -0.1616 -0.6981
  445MOL0     C60004   8.538   5.136   8.874  0.1276  0.9390  0.8325
  445MOL0     C60005   8.630   5.136   8.951  0.9304 -0.6480 -0.9409
  445MOL0     C60006   7.958   4.831   8.601 -0.0789  0.2783 -0.0724
  445MOL0     C60007   7.899   4.731   8.523 -0.1681 -0.5059 -0.1767
  445MOL0     H60008   7.465   4.738   8.149 -0.8380  0.4211  0.8475
  445MOL0     H60009   7.300   4.606   8.008 -0.3664 -1.1100  0.0391
  445MOL0     H60010   7.086   4.215   8.027 -1.6975  2.1429  0.0473
  445MOL0     H60011   7.228   4.175   8.129 -0.0196 -1.3607 -2.3648
  445MOL0     H60012   7.145   4.338   8.296 -0.1819 -0.1185  0.3376
  445MOL0     H60013   7.018   4.380   8.176 -1.2597 -0.1788  0.7858
  445MOL0     H60014   7.065   4.093   8.279  0.6873  0.7577  0.2829
  445MOL0     H60015   6.970   4.206   8.369  0.3770 -1.0839  0.2329
  445MOL0     H60016   6.815   4.240   8.169 -1.5289 -0.9764 -1.2458
  445MOL0     H60017   6.898   4.106   8.100 -0.5310  1.0442 -0.7806
  445MOL0     H60018   6.702   4.017   8.165  0.5808 -1.3026  0.8954
  445MOL0     H60019   6.816   3.961   8.283  1.3160  0.6167 -0.0806
  445MOL0     H60020   6.741   4.166   8.423 -2.3729  0.9708  1.3464
  445MOL0     H60021   6.612   4.190   8.298 -0.1041 -0.4033 -0.2582
  445MOL0     H60022   6.663   3.932   8.445 -0.8695 -1.0985 -1.1023
  445MOL0     H60023   6.539   4.052   8.501 -2.2786 -2.4307 -0.2525
  445MOL0     H60024   6.520   3.922   8.234 -0.1006 -0.2766  0.4736
  445MOL0     H60025   6.400   4.037   8.306 -0.8416  0.5409  0.1660
  445MOL0     H60026   6.440   3.685   8.286 -0.9679 -0.5401 -0.2175
  445MOL0     H60027   6.329   3.473   8.392 -1.0730 -0.7350  0.7447
  445MOL0     H60028   6.394   3.480   8.556 -2.5484 -1.7826  2.7324
  445MOL0     H60029   6.142   3.512   8.629 -2.1677 -1.0153 -0.6248
  445MOL0     H60030   6.229   3.365   8.560  2.0567  0.8971  0.6240
  445MOL0     H60031   6.006   3.382   8.476  0.4206  0.0687  1.0323
  445MOL0     H60032   6.131   3.395   8.353  0.6017  0.4374  0.1111
  445MOL0     H60033   6.088   3.651   8.346  0.1456  0.8727  0.6929
  445MOL0     H60034   5.992   3.640   8.492  1.4677 -1.4244  1.0483
  445MOL0     H60035   5.827   3.472   8.542 -1.2682 -0.5491  1.6161
  445MOL0     H60036   5.540   3.416   8.679 -0.9664  0.1252  0.3338
  445MOL0     H60037   5.556   3.254   8.607 -1.1256  1.1987 -0.4687
  445MOL0     H60038   5.701   3.342   8.670  1.5038  4.1526 -0.8389
  445MOL0     H60039   5.088   3.477   8.329 -0.1716 -0.3678 -1.8146
  445MOL0     H60040   4.879   3.374   8.339 -0.3332  1.0325 -1.5246
  445MOL0     H60041   4.747   3.219   8.442 -1.5294 -2.3041  1.7757
  445MOL0     H60042   4.648   3.085   8.399 -1.4643  2.1780  3.6073
  445MOL0     H60043   4.724   2.997   8.577 -0.4424  1.6913  1.6312
  445MOL0     H60044   4.870   2.956   8.493 -0.3014  0.6503  0.2363
  445MOL0     H60045   4.870   3.219   8.640 -1.1276 -0.9191  2.6604
  445MOL0     H60046   5.002   3.142   8.564 -1.5539  0.7845 -2.6925
  445MOL0     H60047   4.853   3.092   8.803 -1.7396 -1.1571 -2.1519
  445MOL0     H60048   4.931   2.942   8.746 -0.5709  0.3286 -0.4727
  445MOL0     H60049   5.056   3.062   8.908 -0.7080 -0.9632 -0.8764
  445MOL0     H60050   5.061   3.210   8.814  2.0436 -0.0081  0.6179
  445MOL0     H60051   5.146   2.934   8.743 -2.3209  1.3344 -1.9730
  445MOL0     H60052   5.180   3.062   8.635 -2.4958  0.1272  0.4617
  445MOL0     H60053   5.403   3.024   8.752  0.7609  0.6317 -0.0460
  445MOL0     H60054   5.323   3.013   8.910 -1.3352 -0.9210 -0.6272
  445MOL0     H60055   5.278   3.269   8.865 -0.5552 -2.2059  1.3811
  445MOL0     H60056   5.373   3.249   8.726 -0.0560  1.2764  0.9512
  445MOL0     H60057   5.033   3.000   8.209 -2.3262  1.0030  1.1196
  445MOL0     H60058   5.257   3.104   8.198  2.9205  0.7157  4.9036
  445MOL0     H60059   5.505   3.484   8.168  1.6172  0.5390 -1.3010
  445MOL0     H60060   5.745   3.542   8.142 -1.5200  0.4681  0.7262
  445MOL0     H60061   7.373   4.276   8.286  0.8107 -0.5231  0.7497
  445MOL0     H60062   7.532   4.421   8.404  1.0341 -1.1518 -0.3448
  445MOL0     H60063   7.640   4.910   8.404 -1.1781  0.4096  0.2512
  445MOL0     H60064   7.748   5.078   8.520 -0.6078 -0.9680  0.2105
  445MOL0     H60065   8.027   5.103   8.866  0.1761  1.0789 -0.8926
  445MOL0     H60066   8.069   4.937   8.804  0.3231 -0.1807  0.6661
  445MOL0     H60067   8.172   5.204   8.712  3.8156  0.7956 -1.0648
  445MOL0     H60068   8.220   5.034   8.650  2.9705  1.5016 -0.9158
  445MOL0     H60069   8.327   4.980   8.864  0.6194  0.7518  0.4210
  445MOL0     H60070   8.283   5.141   8.928  1.4638  0.5223  0.4301
  445MOL0     H60071   8.410   5.253   8.752  0.2333 -0.4996 -2.4960
  445MOL0     H60072   8.440   5.079   8.692  1.4916 -1.7553  0.8045
  445MOL0     H60073   8.712   5.145   9.019  1.4560  1.9508 -1.8002
  445MOL0     H60074   8.052   4.810   8.652 -0.7645 -3.0431  0.0300
  445MOL0     H60075   7.952   4.636   8.528  1.0489  0.2111  2.1536
  446MOL0     O60076   9.029   2.444   1.855 -0.2628 -0.3970 -0.1519
  446MOL0     C60077   9.099   2.539   1.889 -0.2325  0.4015 -0.3672
  446MOL0     O60078   9.066   2.650   1.963 -0.0663 -0.3287  0.8985
  446MOL0     C60079   8.938   2.670   2.010 -0.0487  0.6425 -0.4567
  446MOL0     C60080   8.914   2.703   2.143 -0.2164  0.0958 -0.6118
  446MOL0     C60081   8.786   2.732   2.193  0.5824  0.6630 -0.0796
  446MOL0     C60082   8.675   2.712   2.115  0.5532 -0.1501 -0.3119
  446MOL0     O60083   8.550   2.714   2.181 -0.4221 -0.2195  0.7347
  446MOL0     C60084   8.524   2.846   2.239 -0.3835 -0.8243 -0.6467
  446MOL0     C60085   8.376   2.888   2.196 -0.0621 -0.4188  0.5116
  446MOL0     C60086   8.362   2.923   2.047 -0.1566  0.1621  0.3933
  446MOL0     C60087   8.208   2.899   2.018 -0.5211  0.2498  0.0557
  446MOL0     C60088   8.177   2.960   1.880  0.1799 -1.0207  0.3365
  446MOL0     C60089   8.053   2.901   1.815 -0.1889  0.8785 -0.0375
  446MOL0     C60090   8.015   2.981   1.682 -0.8365 -1.0129  0.8387
  446MOL0     C60091   7.890   2.928   1.621  0.6283 -0.0907 -0.4919
  446MOL0     N60092   7.770   2.939   1.706  0.4684 -0.1650  1.1485
  446MOL0     C60093   7.727   2.835   1.784 -0.2964 -0.6036  1.1029
  446MOL0     C60094   7.618   2.877   1.846  0.8976  0.1084 -0.6983
  446MOL0     C60095   7.551   2.823   1.969 -0.5001  0.2768  0.6356
  446MOL0     C60096   7.479   2.685   1.942  0.3603  0.3685  0.6806
  446MOL0     C60097   7.419   2.636   2.071 -0.6722 -0.2214 -0.4646
  446MOL0     C60098   7.298   2.546   2.051 -0.1643 -0.5223 -0.8544
  446MOL0     O60099   7.245   2.515   2.179 -0.4999  0.3236 -0.6310
  446MOL0     C60100   7.127   2.444   2.187  0.4115 -0.5223  0.3446
  446MOL0     C60101   7.108   2.342   2.275 -0.2598  1.0562 -0.8204
  446MOL0     C60102   6.992   2.252   2.283  0.5668 -0.3830 -0.3468
  446MOL0     C60103   6.989   2.135   2.382 -0.5872  0.2582  0.0402
  446MOL0     C60104   6.886   2.286   2.193  0.1816 -0.2521 -1.1882
  446MOL0     C60105   6.755   2.216   2.172 -0.4119  0.2202 -0.5025
  446MOL0     O60106   6.672   2.264   2.071  0.5668  0.2208 -0.4433
  446MOL0     C60107   6.548   2.205   2.050 -0.2582 -0.1693 -0.3823
  446MOL0     C60108   6.517   2.177   1.921 -0.7465 -0.4539  0.5363
  446MOL0     C60109   6.400   2.117   1.882  0.3942  0.2167 -0.0300
  446MOL0     C60110   6.307   2.073   1.979  0.0790  0.1264  0.0609
  446MOL0     O60111   6.205   1.999   1.937 -0.6534 -0.4487 -0.3366
  446MOL0     C60112   6.075   2.029   1.981  0.1358 -0.3256  0.0314
  446MOL0     C60113   6.012   2.137   1.892 -0.3616  0.1640  0.2818
  446MOL0     C60114   5.975   2.094   1.745 -0.4523 -0.4889 -0.3514
  446MOL0     C60115   5.854   2.002   1.721 -0.1055  0.0640  0.2901
  446MOL0     C60116   5.846   1.966   1.578 -0.2203 -0.0112  0.0037
  446MOL0     C60117   5.707   1.923   1.548 -0.7635  0.6635  0.5300
  446MOL0     C60118   5.696   1.805   1.443 -0.4325 -0.7200  0.0142
  446MOL0     C60119   5.564   1.748   1.394  0.4053  0.2984 -0.5830
  446MOL0    Cl60120   5.580   1.604   1.296 -0.1170  0.4203  0.4014
  446MOL0     C60121   6.334   2.095   2.117  0.6797  0.4237 -0.1535
  446MOL0     C60122   6.461   2.159   2.149  0.7296  0.0034 -0.3794
  446MOL0     O60123   6.737   2.111   2.236 -0.9109  0.5653 -0.5360
  446MOL0     C60124   6.897   2.399   2.109 -0.2798 -0.0709  0.1651
  446MOL0     C60125   7.016   2.469   2.104 -0.5449 -0.5588  0.7702
  446MOL0     N60126   7.577   3.003   1.793 -0.5796 -0.3689  0.2891
  446MOL0     N60127   7.667   3.032   1.708 -0.2068 -0.2407 -0.1715
  446MOL0     C60128   8.692   2.669   1.982  0.5825  1.7644 -0.3747
  446MOL0     C60129   8.825   2.659   1.932 -0.2123  0.3017 -0.3980
  446MOL0     C60130   9.236   2.519   1.843 -0.2118 -0.2753 -1.0227
  446MOL0     C60131   9.260   2.435   1.729  0.2126  0.2260 -0.7324
  446MOL0     C60132   9.393   2.393   1.694 -0.2974  0.4622  0.0337
  446MOL0     C60133   9.499   2.439   1.771 -0.1622 -0.4740  0.2535
  446MOL0     O60134   9.625   2.423   1.721  0.1115  0.5958  0.2813
  446MOL0     C60135   9.696   2.296   1.724  1.0613  0.3542 -0.3143
  446MOL0     C60136   9.813   2.309   1.632 -0.9453 -1.0133  0.3525
  446MOL0     C60137   9.778   2.315   1.487 -0.3021 -0.1465  0.2457
  446MOL0     C60138   9.882   2.378   1.381 -0.3138  0.1928 -0.0670
  446MOL0     C60139   9.975   2.272   1.341  0.0007  0.8961  0.1386
  446MOL0     C60140  10.067   2.193   1.306  1.1239  0.0222  0.0787
  446MOL0     C60141   9.479   2.514   1.888 -0.3528  0.3604 -0.3193
  446MOL0     C60142   9.352   2.552   1.922  0.5451 -0.7589  0.8805
  446MOL0     H60143   8.994   2.688   2.215 -1.7510  1.4348  1.4720
  446MOL0     H60144   8.785   2.755   2.299  3.2802  0.7367  0.0013
  446MOL0     H60145   8.535   2.837   2.348  3.3853  0.3441 -0.7800
  446MOL0     H60146   8.593   2.923   2.203 -3.0966  1.6962 -0.8243
  446MOL0     H60147   8.305   2.807   2.219 -0.4991  0.2824  1.7657
  446MOL0     H60148   8.339   2.972   2.256 -0.5270  2.0813 -2.9929
  446MOL0     H60149   8.386   3.028   2.026 -1.8098  0.4520 -0.2075
  446MOL0     H60150   8.423   2.857   1.985 -2.2570 -0.7258 -0.8433
  446MOL0     H60151   8.189   2.792   2.022 -2.0515  0.5046 -0.1146
  446MOL0     H60152   8.147   2.938   2.100 -0.5670  2.8369 -1.0956
  446MOL0     H60153   8.172   3.066   1.905 -0.7409 -1.1276  0.6281
  446MOL0     H60154   8.256   2.943   1.806 -1.2887  1.4593 -1.9871
  446MOL0     H60155   8.054   2.792   1.806 -1.7229  0.9988 -2.5932
  446MOL0     H60156   7.969   2.916   1.884 -1.0175 -0.7165 -0.6614
  446MOL0     H60157   7.994   3.086   1.706  1.6212 -0.0744 -0.7322
  446MOL0     H60158   8.099   2.969   1.613  2.3938  0.9073  4.0383
  446MOL0     H60159   7.899   2.821   1.601  0.4730 -0.4444  1.1921
  446MOL0     H60160   7.876   2.986   1.529 -1.6438  0.8553  0.3560
  446MOL0     H60161   7.776   2.738   1.794 -0.4979 -0.8920 -0.3988
  446MOL0     H60162   7.616   2.812   2.057 -1.3345 -0.6174  1.1659
  446MOL0     H60163   7.481   2.903   1.994 -0.4564  1.1463 -1.7899
  446MOL0     H60164   7.536   2.599   1.906 -0.3261 -1.9208  4.4942
  446MOL0     H60165   7.391   2.692   1.876  0.7825 -0.7502 -0.0439
  446MOL0     H60166   7.385   2.721   2.130 -0.2105 -1.5268  1.7874
  446MOL0     H60167   7.494   2.588   2.135 -1.3807  0.3031  0.7985
  446MOL0     H60168   7.324   2.449   2.008 -0.3930 -1.1080  0.2785
  446MOL0     H60169   7.218   2.595   1.995 -0.4070  0.6923  0.4901
  446MOL0     H60170   7.199   2.313   2.327  0.2102 -1.7838 -2.9627
  446MOL0     H60171   7.081   2.115   2.437  0.2503 -1.4093 -1.8501
  446MOL0     H60172   6.905   2.169   2.443  0.9974  2.8064  0.9746
  446MOL0     H60173   6.975   2.049   2.316 -1.4297 -0.0150  0.5509
  446MOL0     H60174   6.589   2.211   1.846 -4.5622  2.6210 -2.1315
  446MOL0     H60175   6.386   2.094   1.777 -0.6251  1.1071 -0.1078
  446MOL0     H60176   6.018   1.937   1.973  2.7168 -1.8656 -2.2692
  446MOL0     H60177   6.075   2.052   2.089  0.1367 -0.4466  0.0571
  446MOL0     H60178   5.917   2.160   1.942 -0.1106  1.0836  0.3548
  446MOL0     H60179   6.084   2.219   1.895  1.4920 -1.1024 -3.2744
  446MOL0     H60180   6.060   2.045   1.697 -1.4708 -0.9977 -1.7153
  446MOL0     H60181   5.959   2.194   1.701  2.9839 -0.4469 -1.8328
  446MOL0     H60182   5.880   1.915   1.782 -1.1029 -1.9760 -2.0104
  446MOL0     H60183   5.758   2.041   1.757 -0.7777  1.2456 -2.5100
  446MOL0     H60184   5.924   1.890   1.574  0.5210  0.7849 -1.0173
  446MOL0     H60185   5.868   2.045   1.507 -1.3023  0.0268 -0.3095
  446MOL0     H60186   5.666   1.871   1.635 -1.0776  1.8070  1.0730
  446MOL0     H60187   5.636   2.005   1.547 -0.4317  0.9534  0.4636
  446MOL0     H60188   5.746   1.718   1.487 -2.6481 -3.0791 -1.8196
  446MOL0     H60189   5.761   1.835   1.361  1.3055  0.9914  1.8895
  446MOL0     H60190   5.507   1.818   1.332 -0.3578  0.3223  0.1316
  446MOL0     H60191   5.502   1.735   1.483  0.3573  1.1830 -0.4799
  446MOL0     H60192   6.264   2.061   2.192  0.5481  1.0106 -0.0090
  446MOL0     H60193   6.494   2.177   2.250  0.9273  2.6613 -0.8539
  446MOL0     H60194   6.823   2.426   2.035 -0.6703 -1.8172 -0.1298
  446MOL0     H60195   7.012   2.557   2.041  0.4228 -0.3398  0.9888
  446MOL0     H60196   8.606   2.643   1.922  0.1550  0.3117  0.7938
  446MOL0     H60197   8.831   2.618   1.832 -1.4871  0.0466 -0.3814
  446MOL0     H60198   9.180   2.402   1.664 -0.2771 -3.4770  1.4875
  446MOL0     H60199   9.415   2.343   1.601 -0.4446  1.3876 -0.5108
  446MOL0     H60200   9.717   2.261   1.826 -1.1913 -1.1821 -0.2947
  446MOL0     H60201   9.625   2.223   1.684  0.0349  0.4620  1.2244
  446MOL0     H60202   9.879   2.225   1.653 -1.4236 -2.0132 -1.9204
  446MOL0     H60203   9.867   2.403   1.649 -1.6391  0.5999 -4.7623
  446MOL0     H60204   9.682   2.366   1.470 -0.4072 -1.1809 -2.7527
  446MOL0     H60205   9.753   2.214   1.456 -2.8536  1.6720 -4.6800
  446MOL0     H60206   9.934   2.461   1.431  1.5805 -0.7850 -0.3267
  446MOL0     H60207   9.825   2.415   1.296  0.0455 -2.0360 -1.3382
  446MOL0     H60208  10.136   2.115   1.281  1.5869 -0.7608  3.3694
  446MOL0     H60209   9.567   2.525   1.952 -0.7415 -1.0801  0.5059
  446MOL0     H60210   9.348   2.603   2.017  2.2631  0.3022  0.4237
  447MOL0     O60211   6.066   9.288  10.473 -0.3195 -0.0564 -0.3273
  447MOL0     C60212   6.059   9.380  10.553 -0.3684  0.4348  0.4278
  447MOL0     O60213   5.944   9.413  10.615  0.0238 -0.1221 -0.4786
  447MOL0     C60214   5.824   9.351  10.592  0.5644 -0.6506 -0.6615
  447MOL0     C60215   5.770   9.339  10.464 -0.6601  1.3509 -0.5192
  447MOL0     C60216   5.645   9.281  10.436  0.0606 -0.4560  0.1863
  447MOL0     C60217   5.561   9.246  10.542  0.7554  0.0004  0.2214
  447MOL0     O60218   5.434   9.190  10.534  0.4604 -0.0372  0.0989
  447MOL0     C60219   5.380   9.167  10.398  0.0660 -0.2682 -0.0858
  447MOL0     C60220   5.244   9.096  10.417  0.0686 -0.1209  0.4186
  447MOL0     C60221   5.185   9.009  10.304 -0.3780 -0.4972 -0.2639
  447MOL0     C60222   5.136   9.090  10.184  0.5855 -0.1079 -0.0331
  447MOL0     C60223   5.046   8.993  10.097 -0.7152 -0.3248 -0.0422
  447MOL0     C60224   5.065   9.029   9.947  0.4208  0.6880 -0.2080
  447MOL0     C60225   4.950   8.982   9.856 -0.9153  0.4157 -0.4141
  447MOL0     C60226   4.851   9.089   9.807 -0.2097  1.0057 -0.9301
  447MOL0     N60227   4.769   9.149   9.913 -0.3537  0.6180 -0.2913
  447MOL0     C60228   4.781   9.272   9.968 -0.6873 -0.4002 -0.5874
  447MOL0     C60229   4.703   9.273  10.080  0.1752  0.3112  0.1078
  447MOL0     C60230   4.696   9.370  10.204 -0.4277  0.5902  0.2164
  447MOL0     C60231   4.592   9.482  10.190  0.3472  0.4761  0.4959
  447MOL0     C60232   4.568   9.573  10.303 -0.4122 -0.7082  0.4650
  447MOL0     C60233   4.537   9.513  10.434 -0.2219  0.3755 -0.3434
  447MOL0     O60234   4.514   9.625  10.526  0.0657  0.1934 -0.6165
  447MOL0     C60235   4.430   9.595  10.631 -0.6098  0.3701 -0.1521
  447MOL0     C60236   4.328   9.681  10.657  0.3436  0.0983 -1.1960
  447MOL0     C60237   4.236   9.651  10.761  0.8501 -0.7091 -0.5848
  447MOL0     C60238   4.120   9.744  10.783  1.0413 -0.2068 -0.1210
  447MOL0     C60239   4.252   9.537  10.837 -0.0393 -0.5853 -0.5324
  447MOL0     C60240   4.151   9.497  10.942  0.8210 -0.2498  0.1116
  447MOL0     O60241   4.090   9.373  10.916 -0.1318 -0.5884  0.8043
  447MOL0     C60242   4.002   9.310  10.994  0.6645 -0.2235 -0.3330
  447MOL0     C60243   3.991   9.167  10.993 -0.0755 -0.6021 -0.2766
  447MOL0     C60244   3.892   9.104  11.071  0.0994 -0.2265  0.5804
  447MOL0     C60245   3.811   9.171  11.165 -0.4105 -0.3005 -0.6132
  447MOL0     O60246   3.731   9.089  11.238 -0.0350 -0.1546  0.1487
  447MOL0     C60247   3.653   9.146  11.340 -0.6033  0.4002 -0.9929
  447MOL0     C60248   3.729   9.196  11.460 -0.0341 -0.7492 -0.1394
  447MOL0     C60249   3.802   9.085  11.536  0.4897  0.9695 -0.6953
  447MOL0     C60250   3.826   9.104  11.690 -0.2943  0.3320 -0.2899
  447MOL0     C60251   3.875   8.981  11.768 -0.5087  0.5320 -0.3424
  447MOL0     C60252   3.781   8.862  11.757  1.1131  0.3477  0.4300
  447MOL0     C60253   3.798   8.763  11.871  0.7308 -0.6339  0.0856
  447MOL0     C60254   3.714   8.638  11.859 -0.0130  0.1143  0.0208
  447MOL0    Cl60255   3.543   8.674  11.877 -0.2359 -0.1809 -0.3210
  447MOL0     C60256   3.830   9.313  11.171 -0.6363  0.2878 -0.8656
  447MOL0     C60257   3.922   9.371  11.083 -0.0847 -0.2989 -0.8520
  447MOL0     O60258   4.121   9.569  11.034 -0.2347  0.0527  0.6079
  447MOL0     C60259   4.356   9.446  10.812 -0.0276 -0.2079  0.3828
  447MOL0     C60260   4.438   9.474  10.706 -0.1707 -0.9081  0.4153
  447MOL0     N60261   4.636   9.155  10.076 -0.1040  0.4974 -0.5678
  447MOL0     N60262   4.672   9.075   9.983 -0.7538  0.4258  0.2689
  447MOL0     C60263   5.603   9.293  10.675  0.1023 -0.4725 -0.0691
  447MOL0     C60264   5.727   9.339  10.692  0.0129 -0.1995  0.1207
  447MOL0     C60265   6.180   9.467  10.578  0.0370  0.3862  0.3627
  447MOL0     C60266   6.163   9.593  10.637  0.6002 -0.4337  0.2729
  447MOL0     C60267   6.280   9.668  10.659  0.7351 -0.3838  0.0521
  447MOL0     C60268   6.405   9.631  10.625 -0.5326  0.0977  0.1946
  447MOL0     O60269   6.498   9.727  10.658 -0.6859  0.1300  0.2424
  447MOL0     C60270   6.634   9.687  10.676 -0.0996  0.2843 -0.2955
  447MOL0     C60271   6.705   9.797  10.748  0.0317 -0.3147  0.3379
  447MOL0     C60272   6.742   9.916  10.668  0.2170  0.1645 -0.3766
  447MOL0     C60273   6.803   9.892  10.535 -0.3289 -0.2736 -0.0823
  447MOL0     C60274   6.923   9.800  10.562  1.1732 -0.5180  0.0739
  447MOL0     C60275   7.005   9.719  10.583 -0.1998 -0.7559 -0.1969
  447MOL0     C60276   6.426   9.498  10.574 -0.1263  0.2383 -0.2033
  447MOL0     C60277   6.307   9.415  10.550 -1.2275  0.2165 -1.0292
  447MOL0     H60278   5.823   9.371  10.376 -2.8327  0.4810 -2.2344
  447MOL0     H60279   5.613   9.268  10.333  4.6691 -1.4973 -1.3435
  447MOL0     H60280   5.371   9.266  10.353 -0.2673  0.9139  2.4166
  447MOL0     H60281   5.443   9.106  10.333 -1.9069 -1.0493 -1.3477
  447MOL0     H60282   5.245   9.035  10.508 -3.3552 -4.9151 -2.2832
  447MOL0     H60283   5.171   9.177  10.423  1.5855  1.4720 -1.3111
  447MOL0     H60284   5.269   8.948  10.269  0.8222  2.5907 -3.2635
  447MOL0     H60285   5.105   8.950  10.349  0.1345 -2.4378 -1.7743
  447MOL0     H60286   5.070   9.172  10.213 -0.1578  0.4056 -2.9221
  447MOL0     H60287   5.227   9.123  10.132  0.5673 -0.6304 -0.3954
  447MOL0     H60288   5.053   8.888  10.128 -0.6053 -0.7982 -1.5936
  447MOL0     H60289   4.938   9.005  10.113 -0.4330 -0.4920  2.4836
  447MOL0     H60290   5.076   9.137   9.935  2.7869  0.7760  1.8966
  447MOL0     H60291   5.159   8.983   9.914  0.1866 -1.0338  1.3325
  447MOL0     H60292   5.004   8.937   9.773 -1.0205  1.1416 -0.8846
  447MOL0     H60293   4.884   8.904   9.896 -0.0144 -0.6990 -1.0541
  447MOL0     H60294   4.788   9.028   9.741  1.4458 -0.2166 -1.4464
  447MOL0     H60295   4.907   9.162   9.749  3.0350 -1.6929 -1.4866
  447MOL0     H60296   4.861   9.340   9.940  1.3485 -0.7611  3.5750
  447MOL0     H60297   4.667   9.305  10.287  0.6492 -1.1959 -0.7472
  447MOL0     H60298   4.796   9.410  10.223 -0.5498  1.1857 -0.3346
  447MOL0     H60299   4.498   9.431  10.168  0.6120  0.9944 -2.1702
  447MOL0     H60300   4.622   9.539  10.102  1.4901 -0.3828  0.3191
  447MOL0     H60301   4.482   9.628  10.264 -0.6292 -0.4048  1.3446
  447MOL0     H60302   4.649   9.645  10.321  0.8499 -2.1573  0.7536
  447MOL0     H60303   4.630   9.459  10.455 -2.0153 -2.0111  2.0806
  447MOL0     H60304   4.454   9.446  10.411 -3.4528  2.4906  3.8471
  447MOL0     H60305   4.325   9.771  10.596 -0.5236 -0.4121 -1.9500
  447MOL0     H60306   4.063   9.755  10.690 -0.9775  1.7657  1.2308
  447MOL0     H60307   4.053   9.719  10.866  0.4809 -0.8903 -0.7580
  447MOL0     H60308   4.175   9.837  10.794  2.5757 -1.0257 -0.4764
  447MOL0     H60309   4.054   9.115  10.921  2.1458 -0.4882  1.4533
  447MOL0     H60310   3.886   8.996  11.069 -4.3261 -0.1348  0.1386
  447MOL0     H60311   3.591   9.228  11.302  1.1692  2.4303  0.3013
  447MOL0     H60312   3.587   9.065  11.372 -0.3805 -0.3583 -2.3911
  447MOL0     H60313   3.782   9.291  11.448  0.7552 -0.8921  1.8484
  447MOL0     H60314   3.663   9.236  11.537  3.8286  3.0547  1.6054
  447MOL0     H60315   3.899   9.075  11.486  1.3484 -0.7576  1.1800
  447MOL0     H60316   3.746   8.991  11.530  1.3771  0.4356 -0.7980
  447MOL0     H60317   3.906   9.177  11.701  1.9614 -1.8889 -0.9834
  447MOL0     H60318   3.733   9.144  11.731  0.6888  2.2642  0.1887
  447MOL0     H60319   3.875   9.021  11.870 -2.2023 -0.3433  0.0282
  447MOL0     H60320   3.980   8.956  11.748 -0.1016  1.0173  1.0398
  447MOL0     H60321   3.682   8.908  11.754  1.3676  0.8788 -0.3630
  447MOL0     H60322   3.803   8.807  11.665  0.4312  0.4321  0.2127
  447MOL0     H60323   3.781   8.813  11.967  0.8368 -0.0731 -0.1831
  447MOL0     H60324   3.898   8.718  11.869 -0.2725 -3.0781  0.5652
  447MOL0     H60325   3.741   8.565  11.937  0.7817  0.5420  0.1586
  447MOL0     H60326   3.725   8.584  11.765  0.0168 -0.4913  0.3664
  447MOL0     H60327   3.772   9.371  11.242  0.2693 -0.7186  0.7471
  447MOL0     H60328   3.931   9.479  11.093 -3.3360  0.1835 -1.9037
  447MOL0     H60329   4.369   9.360  10.876 -1.6912 -2.5878 -2.2182
  447MOL0     H60330   4.521   9.407  10.688 -0.4385 -1.0921 -0.1547
  447MOL0     H60331   5.538   9.295  10.762 -0.2375 -1.2188 -0.3007
  447MOL0     H60332   5.749   9.370  10.793 -0.1482 -2.1090  0.7977
  447MOL0     H60333   6.068   9.634  10.669  1.4827  0.1916  2.2311
  447MOL0     H60334   6.265   9.767  10.702 -1.1876 -1.8591  3.1028
  447MOL0     H60335   6.620   9.605  10.747 -3.0698 -0.2246 -1.3592
  447MOL0     H60336   6.670   9.647  10.580 -0.1439 -3.1448  0.9788
  447MOL0     H60337   6.791   9.758  10.803  0.3395  1.3387  1.0860
  447MOL0     H60338   6.641   9.838  10.826  0.5069 -0.7672  0.9720
  447MOL0     H60339   6.799   9.983  10.732 -2.2234  2.6727 -0.6433
  447MOL0     H60340   6.652   9.976  10.651 -0.0117 -0.5103 -1.7142
  447MOL0     H60341   6.844   9.987  10.497  1.9177 -1.5192 -1.0175
  447MOL0     H60342   6.738   9.851  10.457  0.5829  0.9381 -1.5529
  447MOL0     H60343   7.082   9.644  10.590 -1.0930 -1.6478  0.3478
  447MOL0     H60344   6.525   9.457  10.559 -1.4861 -2.6645 -1.9601
  447MOL0     H60345   6.318   9.318  10.504  1.2238  1.4974 -3.4557
  448MOL0     O60346  10.498   5.114  10.890  0.2030 -0.5780  0.0967
  448MOL0     C60347  10.401   5.167  10.941 -0.7739  0.4202 -0.2815
  448MOL0     O60348  10.405   5.232  11.064  0.0032  0.3237  0.7588
  448MOL0     C60349  10.515   5.210  11.152  0.8253 -0.6058  0.3492
  448MOL0     C60350  10.483   5.181  11.281  0.0212  0.2904  0.6858
  448MOL0     C60351  10.580   5.135  11.374 -0.9115 -0.0935 -0.2595
  448MOL0     C60352  10.714   5.125  11.338 -0.9296  0.4138 -0.7201
  448MOL0     O60353  10.810   5.098  11.437  0.1843 -0.2161  0.0617
  448MOL0     C60354  10.794   4.965  11.498  0.5981 -0.0272 -0.0155
  448MOL0     C60355  10.808   4.850  11.401 -0.5801  0.0979  0.0389
  448MOL0     C60356  10.769   4.706  11.453  0.0256  0.0228  0.0145
  448MOL0     C60357  10.817   4.671  11.590  0.4223 -0.4016  0.4107
  448MOL0     C60358  10.726   4.563  11.641  0.4896 -0.2060 -0.4446
  448MOL0     C60359  10.799   4.490  11.757  0.7728  0.0026  1.1278
  448MOL0     C60360  10.826   4.578  11.875 -0.5874  0.1587 -0.8861
  448MOL0     C60361  10.909   4.506  11.986 -0.6149 -0.2695  0.5544
  448MOL0     N60362  10.855   4.393  12.053  0.0384 -0.1667 -0.2589
  448MOL0     C60363  10.729   4.382  12.109 -0.3087  0.5334  0.4935
  448MOL0     C60364  10.730   4.264  12.179 -0.7266 -0.1155  0.4844
  448MOL0     C60365  10.625   4.199  12.263  0.1372 -0.2063 -0.2662
  448MOL0     C60366  10.611   4.283  12.392  0.9659 -0.1225  1.1838
  448MOL0     C60367  10.503   4.217  12.488 -0.1793 -0.0722 -0.1966
  448MOL0     C60368  10.363   4.200  12.430 -0.3031 -0.9073 -0.0296
  448MOL0     O60369  10.279   4.131  12.521 -0.1320  0.2085 -0.4301
  448MOL0     C60370  10.148   4.092  12.486 -0.2408  0.2641  0.0118
  448MOL0     C60371  10.083   4.125  12.372  0.2982 -0.5125 -0.3559
  448MOL0     C60372   9.951   4.077  12.341  0.0779 -0.3653 -0.0819
  448MOL0     C60373   9.893   4.129  12.204  0.1224 -0.4315  0.4841
  448MOL0     C60374   9.889   3.986  12.432 -0.3982  0.9524  0.0988
  448MOL0     C60375   9.756   3.925  12.403  0.7112  0.4317 -0.6037
  448MOL0     O60376   9.724   3.819  12.483  0.3049 -0.4979 -0.4721
  448MOL0     C60377   9.608   3.749  12.460 -0.1488  0.0663  0.0497
  448MOL0     C60378   9.602   3.651  12.360 -0.0465  0.1727 -0.1030
  448MOL0     C60379   9.490   3.566  12.350 -0.4223  0.9433 -0.0397
  448MOL0     C60380   9.379   3.577  12.435 -0.1146 -0.2260 -0.4285
  448MOL0     O60381   9.270   3.490  12.429 -0.1258 -0.8381 -0.3967
  448MOL0     C60382   9.248   3.404  12.316  0.3242  0.5935  0.1329
  448MOL0     C60383   9.099   3.407  12.287  0.7894 -0.7258  0.1697
  448MOL0     C60384   9.082   3.316  12.162  0.0003  1.1124  0.6731
  448MOL0     C60385   8.931   3.280  12.137 -0.3518  0.2917 -0.5157
  448MOL0     C60386   8.894   3.197  12.023 -0.2743  0.5650  0.6506
  448MOL0     C60387   8.747   3.155  12.031 -0.2612  0.2208  0.3172
  448MOL0     C60388   8.647   3.270  12.004  0.1034  0.0493  0.2503
  448MOL0     C60389   8.511   3.219  12.019  1.6915 -0.4094  0.5410
  448MOL0    Cl60390   8.406   3.363  11.972  0.5968  0.0310  0.1916
  448MOL0     C60391   9.379   3.676  12.528  0.0553 -0.4810 -0.3548
  448MOL0     C60392   9.498   3.756  12.548 -0.0433 -0.2026  0.8193
  448MOL0     O60393   9.683   3.967  12.312  0.5086  0.3637  0.2884
  448MOL0     C60394   9.965   3.950  12.550  0.7130 -0.3021  0.5578
  448MOL0     C60395  10.088   4.006  12.574  0.3873 -0.7254 -0.4953
  448MOL0     N60396  10.854   4.212  12.168  0.5445  0.5650 -0.2407
  448MOL0     N60397  10.936   4.284  12.092  0.4832 -0.5097  0.5283
  448MOL0     C60398  10.748   5.169  11.211 -1.0961  0.1701  0.4029
  448MOL0     C60399  10.656   5.208  11.121  0.7333  0.1923 -0.2508
  448MOL0     C60400  10.257   5.141  10.897  0.0831 -0.2425  0.9859
  448MOL0     C60401  10.145   5.201  10.959 -0.5981  0.5134  0.7268
  448MOL0     C60402  10.012   5.178  10.919 -0.7989  0.8134  0.1940
  448MOL0     C60403   9.988   5.092  10.809  0.2912  0.4566  0.2679
  448MOL0     O60404   9.880   5.030  10.769  0.0665 -0.3343 -0.4558
  448MOL0     C60405   9.752   5.056  10.844 -0.4793 -0.2346 -0.1808
  448MOL0     C60406   9.655   4.972  10.764  0.1505  0.3468 -0.5291
  448MOL0     C60407   9.516   5.000  10.826  0.0932  0.0673  0.1498
  448MOL0     C60408   9.429   4.896  10.768  0.5288 -0.3399 -0.1263
  448MOL0     C60409   9.409   4.909  10.618 -0.2574  0.5890  0.2554
  448MOL0     C60410   9.379   4.940  10.502  0.3674  0.4704  0.0660
  448MOL0     C60411  10.098   5.040  10.737 -0.1932  0.1914 -0.5976
  448MOL0     C60412  10.236   5.068  10.779  0.4367 -0.1802 -0.2718
  448MOL0     H60413  10.379   5.171  11.312 -0.1700 -0.4062 -0.1368
  448MOL0     H60414  10.556   5.111  11.477 -1.1449  2.2205  0.2784
  448MOL0     H60415  10.868   4.949  11.577  1.2787 -1.3797 -0.9000
  448MOL0     H60416  10.695   4.956  11.542 -0.1701  3.0150 -0.8439
  448MOL0     H60417  10.743   4.863  11.314  1.9143 -1.1623 -2.1819
  448MOL0     H60418  10.915   4.840  11.378 -0.4780 -0.0191  0.5358
  448MOL0     H60419  10.661   4.693  11.442 -0.1137  2.6592 -3.0512
  448MOL0     H60420  10.814   4.633  11.385 -1.9636 -1.8375  0.5402
  448MOL0     H60421  10.919   4.631  11.585 -0.1840 -1.8822 -0.7688
  448MOL0     H60422  10.809   4.752  11.664  1.5684  1.2466 -1.1605
  448MOL0     H60423  10.639   4.615  11.683 -0.3408 -1.9709  0.0891
  448MOL0     H60424  10.708   4.488  11.564 -1.2385 -0.2255 -0.0742
  448MOL0     H60425  10.730   4.407  11.776 -0.4893  1.0303  1.1223
  448MOL0     H60426  10.895   4.454  11.719 -0.7933 -1.6671 -1.6201
  448MOL0     H60427  10.885   4.664  11.846  0.5187 -0.3021 -0.0763
  448MOL0     H60428  10.725   4.614  11.898 -2.0047 -1.9831 -3.2222
  448MOL0     H60429  10.930   4.575  12.068  1.6825  1.8724 -1.6636
  448MOL0     H60430  11.008   4.475  11.951 -1.8576 -1.7682 -1.9470
  448MOL0     H60431  10.644   4.449  12.103 -0.5573  0.0872 -2.4796
  448MOL0     H60432  10.536   4.205  12.200  0.6183  1.0930 -0.8416
  448MOL0     H60433  10.652   4.100  12.302  0.4917  0.5689  1.5455
  448MOL0     H60434  10.579   4.386  12.371  2.0997  0.0056 -0.0485
  448MOL0     H60435  10.711   4.296  12.436  1.0252 -3.3869  2.3002
  448MOL0     H60436  10.483   4.287  12.571 -6.5491 -0.4210 -0.9701
  448MOL0     H60437  10.538   4.120  12.525  0.7724  1.1680  2.5076
  448MOL0     H60438  10.369   4.151  12.333  0.3990  2.6478 -1.9696
  448MOL0     H60439  10.307   4.293  12.413 -0.8259 -1.2234 -0.0562
  448MOL0     H60440  10.137   4.197  12.311 -0.0816  1.5472  1.6271
  448MOL0     H60441   9.964   4.192  12.152  3.1643 -1.4824  3.0459
  448MOL0     H60442   9.878   4.045  12.136  1.4204 -0.1852 -0.1198
  448MOL0     H60443   9.800   4.186  12.199  1.3352  1.8536 -6.6578
  448MOL0     H60444   9.685   3.644  12.290 -1.6994 -1.6959 -1.9986
  448MOL0     H60445   9.487   3.495  12.268 -0.1120  2.7012 -1.6438
  448MOL0     H60446   9.292   3.444  12.224 -1.7106  2.6867 -0.0191
  448MOL0     H60447   9.258   3.298  12.342 -1.3439  0.4851  0.4735
  448MOL0     H60448   9.049   3.364  12.375  0.6255 -0.7397  0.0706
  448MOL0     H60449   9.050   3.501  12.259 -0.7601 -2.1717 -2.3207
  448MOL0     H60450   9.139   3.226  12.186  1.2109  1.9895  1.1835
  448MOL0     H60451   9.124   3.363  12.073 -0.1213 -2.9023 -1.6974
  448MOL0     H60452   8.896   3.226  12.225  2.1438 -1.7433 -0.6679
  448MOL0     H60453   8.874   3.373  12.125  0.7995  1.0123 -0.6140
  448MOL0     H60454   8.945   3.100  12.017  0.9283  1.1546  1.1853
  448MOL0     H60455   8.912   3.242  11.925  0.9466 -4.6309 -1.9191
  448MOL0     H60456   8.723   3.078  11.957  0.9565 -1.7791  1.9018
  448MOL0     H60457   8.729   3.111  12.129  1.8190 -0.8539  0.2688
  448MOL0     H60458   8.652   3.302  11.899 -1.8166 -0.5710 -0.0783
  448MOL0     H60459   8.665   3.353  12.073  0.9861 -0.4613  0.6448
  448MOL0     H60460   8.495   3.191  12.123 -2.2228  0.3817  0.2949
  448MOL0     H60461   8.480   3.139  11.952 -2.0214  0.1646  1.3443
  448MOL0     H60462   9.288   3.675  12.587  1.7469 -1.5209  2.4146
  448MOL0     H60463   9.499   3.826  12.631  0.6080  2.2729 -1.1517
  448MOL0     H60464   9.934   3.881  12.627 -1.8090  2.3205  2.0979
  448MOL0     H60465  10.141   3.982  12.666 -0.2943 -0.5903 -0.0628
  448MOL0     H60466  10.855   5.181  11.194 -0.9796  0.0572  1.0370
  448MOL0     H60467  10.684   5.237  11.020  1.5642 -2.4209 -0.8385
  448MOL0     H60468  10.163   5.266  11.044  2.5749  1.1697 -0.3120
  448MOL0     H60469   9.937   5.224  10.982 -1.8409  0.9677 -1.1139
  448MOL0     H60470   9.761   5.024  10.949 -0.5486  1.0957  0.2443
  448MOL0     H60471   9.740   5.164  10.855  5.4224  0.5702  2.2014
  448MOL0     H60472   9.681   4.865  10.769 -0.3110  0.2759  3.3805
  448MOL0     H60473   9.656   5.010  10.661  0.1454 -0.9075 -1.0115
  448MOL0     H60474   9.479   5.100  10.801 -0.4373 -0.5721 -1.8945
  448MOL0     H60475   9.519   4.987  10.934  1.3208  0.1131  0.1326
  448MOL0     H60476   9.328   4.906  10.809 -0.4865 -0.2615 -2.5028
  448MOL0     H60477   9.474   4.797  10.786 -0.6762 -0.5430  2.2871
  448MOL0     H60478   9.359   4.970  10.401 -0.1789 -2.2063 -0.7089
  448MOL0     H60479  10.078   4.973  10.654  2.1210 -1.4089  0.0178
  448MOL0     H60480  10.322   5.020  10.734  2.3291  0.4813  2.3931
  449MOL0     O60481  10.544  11.223   1.311 -0.0606  0.5120 -0.0658
  449MOL0     C60482  10.636  11.196   1.229 -0.7699 -0.5233  0.4351
  449MOL0     O60483  10.627  11.174   1.094 -0.4292 -1.0188 -0.1781
  449MOL0     C60484  10.502  11.151   1.047  0.1573  0.3071 -0.8789
  449MOL0     C60485  10.408  11.060   1.104 -0.0484 -1.0243  0.5039
  449MOL0     C60486  10.287  11.048   1.034  0.1841  0.2382  0.4314
  449MOL0     C60487  10.257  11.115   0.920 -0.7668  1.0977 -0.7426
  449MOL0     O60488  10.142  11.111   0.849  0.7962 -0.3490 -0.5402
  449MOL0     C60489  10.040  11.037   0.926  0.9423 -0.1706  0.5195
  449MOL0     C60490   9.904  11.050   0.845  0.9547 -0.4161 -0.6031
  449MOL0     C60491   9.791  10.983   0.927 -0.6929 -0.4218  0.8202
  449MOL0     C60492   9.650  11.010   0.862 -0.4086 -0.9212  0.6051
  449MOL0     C60493   9.542  10.949   0.956 -0.2715 -0.0644 -0.1123
  449MOL0     C60494   9.539  10.801   0.976 -0.2215  0.8165  0.3706
  449MOL0     C60495   9.408  10.759   1.044  0.5785 -0.8829 -0.3226
  449MOL0     C60496   9.412  10.614   1.096 -0.0478  0.1095  0.3053
  449MOL0     N60497   9.278  10.561   1.151 -0.3768 -0.8458  0.2206
  449MOL0     C60498   9.180  10.628   1.217 -0.8821 -0.8635 -0.2664
  449MOL0     C60499   9.097  10.526   1.256 -0.9336 -0.1349  0.3046
  449MOL0     C60500   8.972  10.532   1.339 -0.6343 -0.3356  0.0055
  449MOL0     C60501   8.866  10.635   1.272  0.2787 -0.4534 -0.6907
  449MOL0     C60502   8.732  10.635   1.348 -0.6077  0.6657 -0.0037
  449MOL0     C60503   8.639  10.743   1.287 -0.6039  0.2199  0.0994
  449MOL0     O60504   8.506  10.751   1.344  0.8396 -0.2355 -0.3827
  449MOL0     C60505   8.414  10.699   1.260  0.5835  0.3679 -0.0109
  449MOL0     C60506   8.345  10.581   1.292  0.8797 -0.2493 -0.8003
  449MOL0     C60507   8.248  10.524   1.211  0.5763  0.3588  0.2647
  449MOL0     C60508   8.170  10.402   1.257  0.3349 -0.1020  0.9136
  449MOL0     C60509   8.210  10.595   1.090 -0.0966 -0.6230  0.5327
  449MOL0     C60510   8.111  10.561   0.991 -0.3172 -0.6488 -1.0341
  449MOL0     O60511   8.117  10.611   0.864 -0.5787 -0.6894  0.1871
  449MOL0     C60512   8.030  10.553   0.773  0.7185 -0.0816 -0.6942
  449MOL0     C60513   8.079  10.469   0.678 -0.0148  0.3979 -0.5422
  449MOL0     C60514   7.998  10.402   0.584  0.1274 -0.7461  0.4104
  449MOL0     C60515   7.855  10.424   0.583 -0.5749  0.4791 -0.4773
  449MOL0     O60516   7.787  10.368   0.479  0.4183 -0.0829 -0.4183
  449MOL0     C60517   7.645  10.397   0.460  0.0895 -0.3202 -0.7376
  449MOL0     C60518   7.590  10.326   0.338  0.3158  0.0855 -0.6427
  449MOL0     C60519   7.446  10.342   0.323 -0.0128  0.4750 -0.0499
  449MOL0     C60520   7.413  10.295   0.185  0.4800  0.4271  0.4704
  449MOL0     C60521   7.268  10.311   0.140  0.0525 -0.5364 -0.1052
  449MOL0     C60522   7.181  10.210   0.218 -0.5960  0.0509 -0.0048
  449MOL0     C60523   7.041  10.204   0.162  1.4426 -0.1429  0.6430
  449MOL0     C60524   6.942  10.129   0.255  1.2076  1.1137  0.1810
  449MOL0    Cl60525   6.773  10.146   0.189 -0.2794  0.1712  0.5285
  449MOL0     C60526   7.809  10.528   0.668  0.2784  0.4819  0.5011
  449MOL0     C60527   7.896  10.586   0.764 -0.6923  0.9868  0.4875
  449MOL0     O60528   8.017  10.496   1.040 -0.3529 -0.3651 -0.4505
  449MOL0     C60529   8.286  10.707   1.059  0.0031  0.3248  0.2175
  449MOL0     C60530   8.382  10.767   1.141  0.4391 -0.1575 -0.3669
  449MOL0     N60531   9.149  10.406   1.216  0.3765 -0.5519  0.3968
  449MOL0     N60532   9.258  10.428   1.152  0.5828 -0.3145 -0.7023
  449MOL0     C60533  10.354  11.199   0.864  0.1110  0.5074 -0.6884
  449MOL0     C60534  10.473  11.218   0.929 -0.0675 -0.1343  0.1551
  449MOL0     C60535  10.775  11.194   1.286  0.4169  0.8395  0.3158
  449MOL0     C60536  10.887  11.127   1.214  0.2100 -1.1636  0.3995
  449MOL0     C60537  11.020  11.120   1.262 -0.0170  0.0136 -0.2077
  449MOL0     C60538  11.046  11.188   1.378 -0.7929  0.0256 -0.2626
  449MOL0     O60539  11.175  11.178   1.443 -0.1947  0.2515  0.0899
  449MOL0     C60540  11.285  11.174   1.352 -0.2351 -0.1056 -0.0348
  449MOL0     C60541  11.406  11.155   1.441 -0.6451 -0.3201 -0.4154
  449MOL0     C60542  11.425  11.001   1.468  0.2643 -0.4245 -0.5707
  449MOL0     C60543  11.529  10.953   1.573 -0.1823  0.1769  0.1850
  449MOL0     C60544  11.490  10.938   1.710  0.5783 -0.2086  0.0654
  449MOL0     C60545  11.450  10.926   1.826  0.2061 -0.1899 -0.6458
  449MOL0     C60546  10.949  11.252   1.459  0.0880 -0.9204  0.6110
  449MOL0     C60547  10.814  11.259   1.408  0.3610  0.0522  0.7226
  449MOL0     H60548  10.437  10.999   1.188 -3.0581 -1.0092  1.7038
  449MOL0     H60549  10.214  10.972   1.060 -0.2128 -0.4319 -2.2975
  449MOL0     H60550  10.050  10.929   0.943  1.7182  0.0740  1.7298
  449MOL0     H60551  10.024  11.083   1.024  3.8655  2.4325 -0.0820
  449MOL0     H60552   9.885  11.157   0.838  0.4830 -0.5108 -0.7972
  449MOL0     H60553   9.919  11.012   0.743 -1.9516 -1.3654 -0.7617
  449MOL0     H60554   9.813  10.876   0.922 -0.1323 -0.3317  1.3136
  449MOL0     H60555   9.790  11.021   1.029  2.6433 -0.9517  1.1665
  449MOL0     H60556   9.645  11.118   0.841 -0.4802 -1.2488 -1.2626
  449MOL0     H60557   9.656  10.947   0.773  0.1596 -0.7623  0.5300
  449MOL0     H60558   9.562  10.980   1.059 -1.6072  0.9261 -0.1292
  449MOL0     H60559   9.445  10.982   0.917 -0.2909 -1.0707 -0.9709
  449MOL0     H60560   9.538  10.757   0.875 -3.8646  2.3483 -0.4177
  449MOL0     H60561   9.615  10.759   1.043  2.4838 -0.2482 -3.0630
  449MOL0     H60562   9.389  10.830   1.125 -1.9461 -2.2804  0.4403
  449MOL0     H60563   9.325  10.775   0.975  0.8884 -0.1098 -0.5238
  449MOL0     H60564   9.484  10.620   1.177  0.2580 -2.5769  0.3260
  449MOL0     H60565   9.442  10.555   1.009  1.5785 -0.4714  1.2307
  449MOL0     H60566   9.179  10.735   1.236 -1.1690 -0.7339 -0.9647
  449MOL0     H60567   8.929  10.431   1.339 -0.5180 -0.4682  2.6607
  449MOL0     H60568   8.999  10.565   1.440 -0.3420  0.2038 -0.2470
  449MOL0     H60569   8.855  10.590   1.172 -1.5520 -2.6103  0.3985
  449MOL0     H60570   8.918  10.731   1.264  2.7635 -1.6477  0.1543
  449MOL0     H60571   8.743  10.656   1.455 -0.2223 -0.6497  0.2217
  449MOL0     H60572   8.689  10.537   1.325 -0.9417  0.8387 -0.1291
  449MOL0     H60573   8.639  10.729   1.178  1.4944  0.2768  0.0386
  449MOL0     H60574   8.694  10.836   1.304  0.9652 -0.7916  0.8976
  449MOL0     H60575   8.380  10.531   1.383  2.6985  1.7589 -0.3057
  449MOL0     H60576   8.081  10.433   1.313 -1.6464 -0.1322 -1.9412
  449MOL0     H60577   8.141  10.345   1.168  1.4284  0.2137  0.3438
  449MOL0     H60578   8.231  10.336   1.319  2.8341  0.4570 -0.8042
  449MOL0     H60579   8.185  10.451   0.674  0.3727  2.1761  0.2884
  449MOL0     H60580   8.022  10.329   0.508 -2.8455 -1.7486  0.2868
  449MOL0     H60581   7.586  10.344   0.535  1.1520  0.1701  0.4664
  449MOL0     H60582   7.634  10.505   0.469  1.6614  0.1006 -2.9967
  449MOL0     H60583   7.646  10.361   0.251 -1.0740 -3.6467 -3.3096
  449MOL0     H60584   7.609  10.219   0.351  1.7542  0.5559  1.4200
  449MOL0     H60585   7.433  10.451   0.329  1.3802  0.7014 -0.8697
  449MOL0     H60586   7.392  10.286   0.399  2.6294 -3.6985 -0.9336
  449MOL0     H60587   7.460  10.355   0.107 -3.4944  2.0873 -0.9412
  449MOL0     H60588   7.451  10.194   0.168  1.0859  1.2084 -3.8180
  449MOL0     H60589   7.247  10.303   0.034  0.7381  2.3706 -0.5448
  449MOL0     H60590   7.220  10.407   0.159 -0.0980 -0.7001  0.3568
  449MOL0     H60591   7.221  10.108   0.212  3.0158  1.2966  0.8080
  449MOL0     H60592   7.184  10.237   0.324  1.9458 -1.1952  0.2978
  449MOL0     H60593   7.047  10.144   0.071 -2.2651 -0.9870  0.8379
  449MOL0     H60594   7.006  10.302   0.126  3.1469  0.8359  1.5004
  449MOL0     H60595   6.950  10.166   0.358  0.8518 -2.7110  1.7482
  449MOL0     H60596   6.967  10.022   0.259 -1.6414  0.3839  0.3370
  449MOL0     H60597   7.706  10.563   0.660  0.1391  0.0654  0.4660
  449MOL0     H60598   7.849  10.662   0.826 -2.1809  0.5659 -0.0917
  449MOL0     H60599   8.264  10.754   0.964  1.0270  1.0285  0.3038
  449MOL0     H60600   8.439  10.858   1.121  3.7013 -1.4769  1.9882
  449MOL0     H60601  10.328  11.253   0.773  0.0803 -1.9436 -2.2418
  449MOL0     H60602  10.544  11.293   0.896  0.9424  1.0945  4.4356
  449MOL0     H60603  10.854  11.093   1.117 -1.6507  0.1162  0.5097
  449MOL0     H60604  11.097  11.075   1.200 -0.5355  2.1003 -2.5199
  449MOL0     H60605  11.279  11.098   1.274  1.3185 -1.8463  1.4435
  449MOL0     H60606  11.294  11.276   1.314  2.7871 -0.8203 -1.5568
  449MOL0     H60607  11.401  11.216   1.532 -2.5228 -1.4902  0.3161
  449MOL0     H60608  11.486  11.196   1.379 -0.7737  2.7417  1.2229
  449MOL0     H60609  11.451  10.961   1.369 -0.4985  0.2453 -1.0536
  449MOL0     H60610  11.322  10.971   1.492  0.3251  0.0755  0.3356
  449MOL0     H60611  11.606  11.031   1.573  0.1835 -0.0558 -3.3300
  449MOL0     H60612  11.556  10.852   1.541 -2.3613 -0.4191  0.1174
  449MOL0     H60613  11.404  10.921   1.923 -0.0413 -1.7740 -0.8262
  449MOL0     H60614  10.973  11.306   1.550  1.0263  0.8575 -0.6389
  449MOL0     H60615  10.729  11.301   1.460 -0.9611 -0.6514 -0.7757
  450MOL0     O60616   3.807   6.160   3.336  0.3938  0.6078  0.4705
  450MOL0     C60617   3.823   6.257   3.400  0.5003 -0.0893 -0.0461
  450MOL0     O60618   3.763   6.283   3.520  0.1590 -0.7151  0.3221
  450MOL0     C60619   3.661   6.196   3.569  0.3676 -0.9619  0.2847
  450MOL0     C60620   3.653   6.055   3.559 -0.6316  0.5673 -1.4672
  450MOL0     C60621   3.544   5.981   3.609 -0.2368  0.4393  0.4363
  450MOL0     C60622   3.445   6.046   3.681 -0.8513  0.0133 -0.7824
  450MOL0     O60623   3.350   5.966   3.729  0.2635  0.0830 -0.0238
  450MOL0     C60624   3.211   6.004   3.729 -0.2444  0.5610 -0.4841
  450MOL0     C60625   3.121   5.884   3.743 -0.5453 -0.0186  0.1399
  450MOL0     C60626   3.136   5.796   3.618  0.6664  1.0527  0.0525
  450MOL0     C60627   3.056   5.846   3.502 -0.8636  0.1731 -0.5905
  450MOL0     C60628   3.071   5.753   3.377 -0.5542  0.2832 -0.3111
  450MOL0     C60629   2.966   5.767   3.269 -0.3970 -0.1773 -0.1911
  450MOL0     C60630   2.991   5.673   3.150 -0.2535  0.1554  0.3605
  450MOL0     C60631   2.899   5.701   3.041 -0.3152 -0.4727 -0.0612
  450MOL0     N60632   2.762   5.645   3.066 -0.7888 -0.2588  0.6169
  450MOL0     C60633   2.730   5.517   3.056  0.4999  0.2826  0.1609
  450MOL0     C60634   2.600   5.517   3.085 -0.1755 -0.1537  0.3501
  450MOL0     C60635   2.519   5.392   3.083  0.3758  1.1837  1.1753
  450MOL0     C60636   2.441   5.378   2.948  1.0679 -0.5365 -0.7278
  450MOL0     C60637   2.507   5.287   2.841  0.4431  0.2702  0.1279
  450MOL0     C60638   2.620   5.352   2.762  0.8112 -0.3331  0.4322
  450MOL0     O60639   2.575   5.454   2.662  0.4671  0.5229  0.0337
  450MOL0     C60640   2.666   5.508   2.580 -0.6635  0.0969 -0.1049
  450MOL0     C60641   2.623   5.587   2.476 -0.7140  0.2481  0.7944
  450MOL0     C60642   2.710   5.630   2.371 -0.4603  0.1077 -0.6454
  450MOL0     C60643   2.637   5.682   2.255 -0.2572 -0.0601  0.1653
  450MOL0     C60644   2.852   5.613   2.371  0.8456 -0.4620  0.4574
  450MOL0     C60645   2.952   5.643   2.261  0.1119  0.1392 -0.2179
  450MOL0     O60646   3.071   5.685   2.305 -0.0227  0.9435  0.3836
  450MOL0     C60647   3.165   5.739   2.215  0.4222  0.6322 -0.3154
  450MOL0     C60648   3.130   5.812   2.100 -0.6226 -0.3223 -0.0940
  450MOL0     C60649   3.230   5.863   2.014 -0.1996  0.4742  0.8105
  450MOL0     C60650   3.365   5.844   2.035  0.2090  0.2063 -0.2575
  450MOL0     O60651   3.438   5.896   1.940 -0.1457 -0.7688  0.1486
  450MOL0     C60652   3.559   5.834   1.897 -0.4343 -0.2681 -0.3131
  450MOL0     C60653   3.537   5.706   1.819  0.0959 -0.7873  0.7472
  450MOL0     C60654   3.423   5.710   1.714  0.3529  1.0380  0.0667
  450MOL0     C60655   3.442   5.808   1.598  1.2468  0.0140 -0.1669
  450MOL0     C60656   3.316   5.789   1.491  0.1028  0.5807  0.3240
  450MOL0     C60657   3.361   5.851   1.359 -0.4334 -0.6085  0.8481
  450MOL0     C60658   3.262   5.850   1.243  0.2014 -0.6597  0.1672
  450MOL0     C60659   3.129   5.906   1.285  0.2273 -0.0408  0.5931
  450MOL0    Cl60660   3.017   5.897   1.138  0.0834 -0.2736  0.2302
  450MOL0     C60661   3.404   5.752   2.138  0.3042 -0.2654  0.2697
  450MOL0     C60662   3.306   5.704   2.236  0.6284 -0.3270 -0.0822
  450MOL0     O60663   2.924   5.605   2.149  0.5858  0.2284 -0.7458
  450MOL0     C60664   2.894   5.547   2.490 -0.2115  0.3515  0.4762
  450MOL0     C60665   2.802   5.502   2.587  0.1076  0.6505 -0.0914
  450MOL0     N60666   2.547   5.637   3.107 -0.1535  0.1332  0.3754
  450MOL0     N60667   2.649   5.719   3.096  0.4711  0.4051 -0.5499
  450MOL0     C60668   3.448   6.188   3.694 -0.1922 -0.5527  1.1505
  450MOL0     C60669   3.562   6.258   3.643 -0.4928  0.4558 -0.5249
  450MOL0     C60670   3.934   6.343   3.364  0.1179  0.7275  0.3415
  450MOL0     C60671   3.946   6.470   3.435 -0.1648  0.2070 -0.3082
  450MOL0     C60672   4.048   6.559   3.393 -0.5098  0.3641  0.3654
  450MOL0     C60673   4.142   6.523   3.293 -0.3353  0.2256 -0.6607
  450MOL0     O60674   4.251   6.590   3.241 -0.6506  0.7040 -0.1868
  450MOL0     C60675   4.285   6.719   3.291 -0.1577  0.4629  0.0180
  450MOL0     C60676   4.402   6.792   3.208  0.4111  0.4115 -0.2641
  450MOL0     C60677   4.434   6.932   3.268  0.0836  0.2055  0.1108
  450MOL0     C60678   4.362   7.045   3.198  0.3685 -0.3664  0.0714
  450MOL0     C60679   4.414   7.063   3.062  0.1797  0.1980 -0.1746
  450MOL0     C60680   4.456   7.083   2.945  0.1696 -0.2574 -0.5509
  450MOL0     C60681   4.129   6.401   3.222 -0.2006  0.1104 -0.1477
  450MOL0     C60682   4.019   6.311   3.255  0.5874 -0.2413  0.3816
  450MOL0     H60683   3.738   5.993   3.533 -1.1716 -0.9111  0.0689
  450MOL0     H60684   3.531   5.874   3.592 -2.0002  0.5951  0.6042
  450MOL0     H60685   3.183   6.072   3.809 -0.5339 -1.1091  0.9047
  450MOL0     H60686   3.211   6.062   3.636 -0.9671 -0.3031 -1.0479
  450MOL0     H60687   3.149   5.821   3.828  1.1977  1.2480  0.5683
  450MOL0     H60688   3.016   5.910   3.755 -0.4800  0.1647  0.3139
  450MOL0     H60689   3.242   5.796   3.589  0.3641  3.0699 -1.2729
  450MOL0     H60690   3.108   5.692   3.638  4.3589 -0.4748 -1.6689
  450MOL0     H60691   2.951   5.853   3.532 -1.0496  1.9724 -1.5343
  450MOL0     H60692   3.088   5.948   3.476  4.7395 -1.3748 -1.0379
  450MOL0     H60693   3.171   5.773   3.336 -0.6673  0.2375 -0.6117
  450MOL0     H60694   3.068   5.651   3.416 -3.1893 -0.7022 -2.6897
  450MOL0     H60695   2.869   5.737   3.311 -0.2552  2.6673  2.5169
  450MOL0     H60696   2.965   5.873   3.243  0.3081 -0.0493  0.2752
  450MOL0     H60697   3.094   5.693   3.118  0.4594 -1.0083  1.8058
  450MOL0     H60698   2.988   5.570   3.187  1.2807 -0.5932 -1.4254
  450MOL0     H60699   2.941   5.650   2.954  1.3278  0.7196 -0.0227
  450MOL0     H60700   2.886   5.809   3.031 -2.2459 -0.5874  0.8351
  450MOL0     H60701   2.780   5.427   3.021 -1.9445 -0.5712 -1.3937
  450MOL0     H60702   2.576   5.301   3.103 -4.4363 -2.0222  1.9214
  450MOL0     H60703   2.445   5.406   3.162  1.9075 -0.0065  2.9069
  450MOL0     H60704   2.407   5.474   2.906  0.7629  1.2609  3.1651
  450MOL0     H60705   2.350   5.324   2.972 -0.7921  2.2864 -0.9455
  450MOL0     H60706   2.433   5.266   2.763  0.9447 -1.6228  0.1149
  450MOL0     H60707   2.544   5.199   2.894 -1.2996  1.3082  3.3731
  450MOL0     H60708   2.662   5.262   2.716 -1.8750 -3.0869  2.9574
  450MOL0     H60709   2.689   5.408   2.825 -0.1236  3.0554 -1.2674
  450MOL0     H60710   2.517   5.600   2.452  0.0713  1.8736 -2.3340
  450MOL0     H60711   2.692   5.742   2.181 -1.7835  1.1001 -0.0842
  450MOL0     H60712   2.609   5.593   2.198 -1.3583 -0.1500  0.8238
  450MOL0     H60713   2.546   5.737   2.280  0.1991  0.0994  1.5311
  450MOL0     H60714   3.023   5.828   2.089 -1.3705 -0.8238  4.3488
  450MOL0     H60715   3.196   5.924   1.931 -1.4230  2.2765  2.5318
  450MOL0     H60716   3.612   5.899   1.828 -1.0878  2.0032  1.2234
  450MOL0     H60717   3.632   5.825   1.978  1.2733 -2.5338 -1.9566
  450MOL0     H60718   3.634   5.686   1.771  0.6958  0.7055  1.2985
  450MOL0     H60719   3.518   5.621   1.885 -0.0669 -0.1409  1.5430
  450MOL0     H60720   3.332   5.738   1.768 -0.2599 -0.6244 -0.0627
  450MOL0     H60721   3.409   5.608   1.678  3.4031 -0.1476  1.7973
  450MOL0     H60722   3.425   5.905   1.647 -0.9583 -1.1845  1.5947
  450MOL0     H60723   3.538   5.805   1.546  2.4885  0.7393  1.9499
  450MOL0     H60724   3.224   5.840   1.521 -0.9796  0.7593 -2.9277
  450MOL0     H60725   3.302   5.681   1.483  1.2043  0.5572 -2.3472
  450MOL0     H60726   3.402   5.949   1.385 -0.7646 -0.4665  0.8479
  450MOL0     H60727   3.445   5.786   1.333  0.7277  1.1681 -0.0658
  450MOL0     H60728   3.269   5.748   1.203  2.4669 -0.1068 -1.0672
  450MOL0     H60729   3.304   5.916   1.166 -0.8442 -0.9937 -0.7123
  450MOL0     H60730   3.134   6.013   1.303 -0.7462  0.5160 -1.9458
  450MOL0     H60731   3.084   5.853   1.370 -0.5400  0.4696  0.5134
  450MOL0     H60732   3.509   5.728   2.150  1.2759  3.0431 -0.3953
  450MOL0     H60733   3.331   5.643   2.323  0.1947  0.7373  0.8024
  450MOL0     H60734   2.995   5.517   2.517 -0.3656 -1.8097 -1.1061
  450MOL0     H60735   2.855   5.437   2.657 -1.0031 -0.3604 -0.1623
  450MOL0     H60736   3.384   6.234   3.769 -1.9716  0.3086 -0.7748
  450MOL0     H60737   3.578   6.363   3.666 -0.6133  0.7541 -1.7204
  450MOL0     H60738   3.882   6.499   3.517 -1.3347 -0.1148 -1.0869
  450MOL0     H60739   4.061   6.652   3.446 -0.7795  0.8969 -0.4830
  450MOL0     H60740   4.197   6.784   3.278  1.1953  1.8756 -3.1696
  450MOL0     H60741   4.315   6.712   3.396  0.1220  1.0942 -0.0090
  450MOL0     H60742   4.374   6.802   3.103  2.8289 -0.4068 -1.0332
  450MOL0     H60743   4.494   6.737   3.226 -0.0470  0.0129  0.9745
  450MOL0     H60744   4.541   6.953   3.266  0.0493  1.2294  3.2543
  450MOL0     H60745   4.403   6.935   3.373  0.5450  1.3421  0.2269
  450MOL0     H60746   4.384   7.130   3.263 -1.4250 -1.0475  1.6540
  450MOL0     H60747   4.253   7.040   3.195  0.2337  0.7910  1.9287
  450MOL0     H60748   4.496   7.087   2.846 -1.7218 -3.9021 -1.6345
  450MOL0     H60749   4.193   6.371   3.139  1.4334  0.1089  1.0666
  450MOL0     H60750   3.993   6.224   3.195  0.2314 -0.2186  0.4976
  451MOL0     O60751   7.269   0.355   4.538  0.9887  0.0902  0.0173
  451MOL0     C60752   7.352   0.268   4.526  0.6650 -0.2393  0.1279
  451MOL0     O60753   7.344   0.142   4.582 -0.1272 -0.3350 -0.3194
  451MOL0     C60754   7.235   0.115   4.664 -0.0144 -0.5455 -0.1718
  451MOL0     C60755   7.196   0.184   4.768  0.6984 -0.4252  0.0770
  451MOL0     C60756   7.096   0.127   4.855 -0.2098  0.3073 -0.4874
  451MOL0     C60757   7.028   0.009   4.829  0.3607 -0.7128  0.7034
  451MOL0     O60758   6.925  -0.004   4.906 -0.3358 -0.4146 -0.3276
  451MOL0     C60759   6.805  -0.060   4.863 -0.6520 -0.3304  0.1315
  451MOL0     C60760   6.701  -0.101   4.974 -0.2507 -0.1192 -0.0737
  451MOL0     C60761   6.594  -0.187   4.911  0.0931 -0.0514  0.1558
  451MOL0     C60762   6.509  -0.247   5.031  0.0620 -0.8698  0.2246
  451MOL0     C60763   6.383  -0.311   4.968  1.3346  0.2774  1.2070
  451MOL0     C60764   6.286  -0.344   5.087 -0.8163  0.1766  0.4807
  451MOL0     C60765   6.145  -0.386   5.066 -0.0448 -0.9237  0.1190
  451MOL0     C60766   6.070  -0.403   5.193 -0.7276  0.6715  0.5695
  451MOL0     N60767   5.931  -0.441   5.173  0.4245 -0.3793  0.0616
  451MOL0     C60768   5.829  -0.351   5.134  0.7618 -0.1240  0.4909
  451MOL0     C60769   5.709  -0.412   5.159 -0.3836 -0.6813  0.2172
  451MOL0     C60770   5.564  -0.362   5.144 -0.3997  1.2477  0.6134
  451MOL0     C60771   5.494  -0.311   5.269  0.3062 -0.5535 -0.1530
  451MOL0     C60772   5.343  -0.313   5.259  0.0920  0.1597  0.3376
  451MOL0     C60773   5.272  -0.217   5.354  0.9804  0.3687  1.1285
  451MOL0     O60774   5.145  -0.191   5.305  0.3291  0.1830  0.0550
  451MOL0     C60775   5.070  -0.110   5.384 -0.3034 -0.3367  0.0531
  451MOL0     C60776   5.095  -0.065   5.521  0.3776 -0.4835  0.1111
  451MOL0     C60777   4.985  -0.012   5.598  0.2371 -0.3272 -0.3374
  451MOL0     C60778   5.011   0.010   5.744  0.4689  0.3818  0.1544
  451MOL0     C60779   4.859   0.022   5.536 -0.3142 -0.2721 -0.3174
  451MOL0     C60780   4.741   0.095   5.591  0.1829  0.6270 -0.4989
  451MOL0     O60781   4.628   0.112   5.511  0.2968 -0.4162  0.7502
  451MOL0     C60782   4.508   0.141   5.564  1.1228 -0.2964  0.4924
  451MOL0     C60783   4.414   0.177   5.463  0.3147  0.0120 -0.5528
  451MOL0     C60784   4.277   0.197   5.491 -0.1311 -0.0681  0.5505
  451MOL0     C60785   4.228   0.173   5.620  0.4627 -0.1772  0.3483
  451MOL0     O60786   4.091   0.184   5.667 -0.1082 -0.2732  0.3961
  451MOL0     C60787   3.986   0.184   5.576  0.6268 -0.5132  0.3902
  451MOL0     C60788   3.855   0.199   5.642 -0.0667 -0.0269  0.6233
  451MOL0     C60789   3.836   0.336   5.709 -0.3614 -0.1194  0.5781
  451MOL0     C60790   3.762   0.418   5.610 -0.1576 -0.7786  1.2331
  451MOL0     C60791   3.719   0.558   5.656  0.1233 -0.0235  0.2725
  451MOL0     C60792   3.620   0.616   5.557  0.7098  0.4650 -0.0485
  451MOL0     C60793   3.563   0.734   5.624  0.1787 -0.4695 -0.4912
  451MOL0     C60794   3.462   0.805   5.531  0.9765  0.5280  0.4706
  451MOL0    Cl60795   3.402   0.950   5.613  0.4810  0.0590 -0.0318
  451MOL0     C60796   4.324   0.159   5.721  0.9759  0.8523 -0.5018
  451MOL0     C60797   4.459   0.147   5.697 -0.3601 -0.0165  0.0065
  451MOL0     O60798   4.758   0.134   5.704 -0.0631  0.0565  0.6062
  451MOL0     C60799   4.852  -0.014   5.397  0.2153  0.1967  0.1875
  451MOL0     C60800   4.953  -0.068   5.325 -0.4221 -0.2252 -1.0234
  451MOL0     N60801   5.732  -0.533   5.231 -0.1120  0.4282 -0.0543
  451MOL0     N60802   5.861  -0.551   5.228 -0.0314 -0.0620  0.2712
  451MOL0     C60803   7.068  -0.059   4.715 -0.2034 -0.4467  0.6291
  451MOL0     C60804   7.167  -0.001   4.632 -0.1240 -0.2876 -0.7323
  451MOL0     C60805   7.474   0.296   4.451 -0.5827  0.2228 -0.5493
  451MOL0     C60806   7.562   0.196   4.409 -0.3567 -0.3391  0.3185
  451MOL0     C60807   7.683   0.232   4.340  0.1753  0.5667 -0.0298
  451MOL0     C60808   7.722   0.368   4.321  0.9578  0.2599  0.9350
  451MOL0     O60809   7.844   0.400   4.276 -0.7378 -0.7415  0.6487
  451MOL0     C60810   7.955   0.318   4.263  0.8298 -0.1127 -0.1108
  451MOL0     C60811   8.081   0.405   4.263 -0.7465 -0.0464  0.7256
  451MOL0     C60812   8.094   0.483   4.129 -0.2071 -0.4293 -0.6034
  451MOL0     C60813   8.195   0.602   4.131  0.6454  0.2814 -0.3359
  451MOL0     C60814   8.333   0.557   4.141 -0.6848 -0.8182 -0.7947
  451MOL0     C60815   8.448   0.525   4.163 -0.1371  0.0797 -0.2095
  451MOL0     C60816   7.630   0.464   4.360 -0.0477 -0.1372  0.4297
  451MOL0     C60817   7.513   0.431   4.427 -0.6478  0.7996  0.3065
  451MOL0     H60818   7.245   0.277   4.794  1.5586 -1.3099  1.7546
  451MOL0     H60819   7.072   0.173   4.950 -1.1625 -4.4321  1.9024
  451MOL0     H60820   6.760   0.004   4.787  0.2371 -0.9082 -0.9007
  451MOL0     H60821   6.835  -0.151   4.810  0.8027 -0.4504  1.1084
  451MOL0     H60822   6.733  -0.172   5.050 -1.5234 -0.5964  0.0256
  451MOL0     H60823   6.659  -0.010   5.018  1.5796  0.7846 -0.0915
  451MOL0     H60824   6.536  -0.122   4.844  0.8198 -0.0608 -0.4904
  451MOL0     H60825   6.635  -0.271   4.856 -1.5651 -1.9963  1.7278
  451MOL0     H60826   6.572  -0.323   5.078  0.3504  0.3195  1.8450
  451MOL0     H60827   6.485  -0.171   5.105 -2.2719  2.9309 -3.9457
  451MOL0     H60828   6.347  -0.233   4.900  0.3811 -0.5672  0.7066
  451MOL0     H60829   6.405  -0.394   4.900 -1.8402  0.6479 -0.4569
  451MOL0     H60830   6.337  -0.418   5.150 -3.1732  1.3299  4.0425
  451MOL0     H60831   6.291  -0.253   5.147 -0.0566  1.3448 -1.2695
  451MOL0     H60832   6.111  -0.295   5.015  0.8100 -0.4908  0.3133
  451MOL0     H60833   6.147  -0.471   4.997 -1.8459 -1.1944  0.3519
  451MOL0     H60834   6.070  -0.305   5.242 -1.4519  1.3985 -0.8104
  451MOL0     H60835   6.112  -0.477   5.262 -0.8189  0.3962  0.3321
  451MOL0     H60836   5.824  -0.254   5.086 -1.8338  0.2584  1.3659
  451MOL0     H60837   5.567  -0.282   5.069 -0.2062  1.9127  1.3234
  451MOL0     H60838   5.501  -0.444   5.107 -0.7207  0.8382  2.0075
  451MOL0     H60839   5.521  -0.207   5.289 -1.0424 -0.1038 -0.5838
  451MOL0     H60840   5.524  -0.368   5.358 -1.0151 -2.1662 -0.7039
  451MOL0     H60841   5.320  -0.416   5.287 -0.4289 -0.2896 -1.5825
  451MOL0     H60842   5.309  -0.309   5.155  0.0182 -0.4549  0.3318
  451MOL0     H60843   5.327  -0.122   5.354 -0.8169  1.5852  4.5012
  451MOL0     H60844   5.272  -0.258   5.456  1.8130 -0.0734  0.9610
  451MOL0     H60845   5.187  -0.090   5.573  1.7216 -0.2358 -2.0150
  451MOL0     H60846   4.966  -0.068   5.806  1.3619 -2.5994 -2.6691
  451MOL0     H60847   5.117  -0.010   5.762  0.9716  1.9998 -0.8437
  451MOL0     H60848   4.973   0.108   5.775  0.9042  0.2420  1.1754
  451MOL0     H60849   4.447   0.186   5.360  1.3160 -3.0271 -0.5787
  451MOL0     H60850   4.210   0.212   5.407  1.5855  3.1181 -0.3954
  451MOL0     H60851   3.992   0.257   5.495 -1.8796 -0.8441 -0.1928
  451MOL0     H60852   4.001   0.095   5.514  0.7645 -2.2266  2.7613
  451MOL0     H60853   3.774   0.182   5.570  0.5692  2.2026 -0.6883
  451MOL0     H60854   3.848   0.124   5.721 -0.8716 -0.8953 -0.2353
  451MOL0     H60855   3.929   0.378   5.748 -1.2124  2.6568 -0.1429
  451MOL0     H60856   3.772   0.324   5.797 -2.8771  2.5811 -0.7270
  451MOL0     H60857   3.815   0.431   5.515 -2.3863  0.3821  0.0695
  451MOL0     H60858   3.677   0.356   5.581  0.9139 -1.2080 -1.2598
  451MOL0     H60859   3.804   0.624   5.677  0.1764 -0.6068  2.1283
  451MOL0     H60860   3.661   0.556   5.749 -0.4733  1.3728 -0.0446
  451MOL0     H60861   3.663   0.632   5.458 -0.1546  0.0241 -0.5086
  451MOL0     H60862   3.536   0.547   5.549  1.0643 -0.2880  2.1027
  451MOL0     H60863   3.639   0.807   5.655 -1.0674  0.7465 -0.1772
  451MOL0     H60864   3.512   0.711   5.718 -1.9711  1.2232 -1.1384
  451MOL0     H60865   3.373   0.745   5.511  0.4100  0.8585  1.8819
  451MOL0     H60866   3.517   0.834   5.441  1.9652  0.7890  1.1395
  451MOL0     H60867   4.296   0.154   5.825  1.3715 -0.3730 -0.4403
  451MOL0     H60868   4.528   0.147   5.781  1.1335  0.5079 -1.1899
  451MOL0     H60869   4.757   0.000   5.347  0.7685 -2.1269 -1.7120
  451MOL0     H60870   4.936  -0.068   5.218 -1.1614  1.6391 -0.9378
  451MOL0     H60871   7.014  -0.150   4.691  0.8735 -1.2521  1.1653
  451MOL0     H60872   7.202  -0.058   4.546 -0.8549 -3.1428  0.7598
  451MOL0     H60873   7.539   0.092   4.431  1.3543 -0.3678  2.3590
  451MOL0     H60874   7.747   0.147   4.317  2.2492  1.7654  1.0317
  451MOL0     H60875   7.965   0.250   4.348 -0.5253 -0.0540  0.1170
  451MOL0     H60876   7.938   0.262   4.171 -2.3382  1.1944 -0.4513
  451MOL0     H60877   8.162   0.331   4.264 -0.0985  0.6355 -0.1899
  451MOL0     H60878   8.089   0.476   4.346  2.2013  1.0892 -0.4079
  451MOL0     H60879   7.998   0.534   4.113 -0.3921 -0.9827 -1.3489
  451MOL0     H60880   8.119   0.411   4.050  0.6903  1.1561 -1.8318
  451MOL0     H60881   8.172   0.651   4.226  2.0408 -0.9707  0.6903
  451MOL0     H60882   8.176   0.666   4.045  0.2686 -0.6578 -0.9719
  451MOL0     H60883   8.544   0.492   4.198 -0.7390 -0.3207  1.1437
  451MOL0     H60884   7.665   0.567   4.363  2.6670 -1.0031  1.9809
  451MOL0     H60885   7.451   0.511   4.466 -1.1284  0.0636  1.0947
  452MOL0     O60886   4.152   3.984   6.518 -0.1153  0.1093 -0.1350
  452MOL0     C60887   4.270   4.007   6.491 -0.5948  0.2163  0.1401
  452MOL0     O60888   4.318   4.039   6.364 -0.3013  0.0372  0.3866
  452MOL0     C60889   4.230   4.004   6.266  1.1029  0.8066  0.0828
  452MOL0     C60890   4.192   3.873   6.242  0.2322  0.3442  0.5262
  452MOL0     C60891   4.097   3.842   6.139  0.8942  0.0414 -0.0019
  452MOL0     C60892   4.045   3.936   6.051 -0.4222  0.7530 -0.0659
  452MOL0     O60893   3.957   3.898   5.948  0.9812 -0.4429 -0.4101
  452MOL0     C60894   3.853   3.995   5.935  0.4903  0.4573  0.4412
  452MOL0     C60895   3.713   3.929   5.943  0.2015 -0.2108 -0.0192
  452MOL0     C60896   3.597   4.024   5.895  0.0454 -0.3107  0.8032
  452MOL0     C60897   3.455   3.972   5.927 -0.0025 -1.2455  0.5172
  452MOL0     C60898   3.346   4.078   5.921  0.3970  0.2744 -1.3806
  452MOL0     C60899   3.358   4.190   6.022 -0.3182  0.5090  0.2692
  452MOL0     C60900   3.221   4.262   6.046 -0.0289 -0.2482  0.4108
  452MOL0     C60901   3.229   4.349   6.174 -0.1451 -0.4997  0.1151
  452MOL0     N60902   3.104   4.406   6.226  0.2688 -0.9353  0.2480
  452MOL0     C60903   3.029   4.505   6.161  0.6407  0.6913 -0.5986
  452MOL0     C60904   2.917   4.510   6.241 -0.1905  0.1402  0.2264
  452MOL0     C60905   2.799   4.590   6.209  0.8080  0.0701 -0.2186
  452MOL0     C60906   2.743   4.603   6.070 -0.5133 -0.5230  0.1802
  452MOL0     C60907   2.742   4.462   5.994 -0.9258 -0.6691  0.1259
  452MOL0     C60908   2.672   4.484   5.854 -0.3221  0.1094 -0.7529
  452MOL0     O60909   2.698   4.388   5.758 -0.2208 -0.6667  0.1191
  452MOL0     C60910   2.827   4.373   5.704  0.5960  0.4386  0.0131
  452MOL0     C60911   2.853   4.265   5.618 -0.4404 -0.2881  0.2567
  452MOL0     C60912   2.984   4.239   5.560  0.1828 -0.8389 -0.5426
  452MOL0     C60913   2.995   4.121   5.467  0.3377 -0.8321  0.2571
  452MOL0     C60914   3.082   4.326   5.596 -0.0946  0.5627  0.6275
  452MOL0     C60915   3.224   4.310   5.550  1.0012  0.8118  0.0510
  452MOL0     O60916   3.254   4.296   5.416  0.1746 -0.2313  0.4035
  452MOL0     C60917   3.391   4.272   5.389  0.8334  0.6200  0.5927
  452MOL0     C60918   3.504   4.346   5.436 -0.5141  0.1753  0.3356
  452MOL0     C60919   3.638   4.314   5.385  0.5646 -0.1968 -0.0443
  452MOL0     C60920   3.656   4.210   5.298 -0.1543 -0.1601 -0.3217
  452MOL0     O60921   3.783   4.161   5.250 -0.0107 -0.9231  0.0650
  452MOL0     C60922   3.798   4.025   5.230 -0.5255 -0.4231  0.4408
  452MOL0     C60923   3.949   3.998   5.257 -0.9756  0.5186 -0.4051
  452MOL0     C60924   4.057   4.042   5.153  0.2575  0.3262  0.4572
  452MOL0     C60925   4.188   4.058   5.225  0.6678 -0.5258  0.5136
  452MOL0     C60926   4.308   4.077   5.127  0.7580  0.3013 -0.3819
  452MOL0     C60927   4.445   4.101   5.200  0.3985  0.0500  0.6752
  452MOL0     C60928   4.564   4.063   5.108  0.0254 -1.1126  0.4111
  452MOL0     C60929   4.676   4.163   5.145  0.3762 -0.7272 -0.5360
  452MOL0    Cl60930   4.794   4.099   5.270  0.4171  0.3385 -0.1519
  452MOL0     C60931   3.543   4.134   5.255 -0.8105 -0.3879  0.0317
  452MOL0     C60932   3.409   4.173   5.296 -0.5888  0.2903  0.7142
  452MOL0     O60933   3.308   4.303   5.641  0.3224  0.0413  0.2828
  452MOL0     C60934   3.058   4.444   5.670 -0.1661 -0.4774 -0.0363
  452MOL0     C60935   2.931   4.467   5.726 -0.1174  0.6583  0.1195
  452MOL0     N60936   2.928   4.413   6.347  0.0683 -0.3887  1.0922
  452MOL0     N60937   3.038   4.344   6.330  0.0410 -0.1725 -0.3434
  452MOL0     C60938   4.097   4.063   6.062  0.1256 -0.1662  0.1252
  452MOL0     C60939   4.182   4.096   6.169  0.7557  0.1475  0.0993
  452MOL0     C60940   4.374   3.979   6.599 -0.0927  0.4708 -0.3379
  452MOL0     C60941   4.333   3.987   6.728 -0.8636 -0.4556  0.3714
  452MOL0     C60942   4.425   3.964   6.833  0.2472  0.2573  0.2589
  452MOL0     C60943   4.561   3.941   6.802 -0.6381 -0.4387  0.4912
  452MOL0     O60944   4.642   3.894   6.904 -0.2245 -0.0296 -0.7401
  452MOL0     C60945   4.737   3.778   6.891  0.9629 -0.1346 -1.1234
  452MOL0     C60946   4.656   3.652   6.867  0.3800 -0.2215  0.1784
  452MOL0     C60947   4.601   3.605   6.995  1.3194  0.1583 -0.4355
  452MOL0     C60948   4.478   3.510   6.981  0.1169 -0.0086 -0.6328
  452MOL0     C60949   4.376   3.563   6.891  0.5845 -0.2522  0.1118
  452MOL0     C60950   4.281   3.599   6.831 -0.2850 -1.0398 -0.6520
  452MOL0     C60951   4.601   3.925   6.667 -0.2823  0.1282  0.1433
  452MOL0     C60952   4.502   3.941   6.566 -0.3570  0.6603  0.4045
  452MOL0     H60953   4.219   3.796   6.313 -1.7192 -0.2533  0.6881
  452MOL0     H60954   4.065   3.739   6.127  1.2300 -0.0228 -0.3584
  452MOL0     H60955   3.849   4.079   6.006 -1.2302 -0.8575  2.0273
  452MOL0     H60956   3.858   4.035   5.834  0.9423  0.5347  0.4918
  452MOL0     H60957   3.710   3.836   5.886  1.9686 -0.2481 -0.1189
  452MOL0     H60958   3.705   3.903   6.050  1.3884 -1.4181 -0.1987
  452MOL0     H60959   3.608   4.116   5.953  3.6788  0.2504 -0.5081
  452MOL0     H60960   3.600   4.054   5.790  1.4518  0.9279  1.1594
  452MOL0     H60961   3.426   3.899   5.852  2.0183  0.5981 -2.2416
  452MOL0     H60962   3.450   3.927   6.027 -1.7789  0.3175  1.2019
  452MOL0     H60963   3.337   4.127   5.824  0.1627  0.7999 -1.0945
  452MOL0     H60964   3.254   4.019   5.937 -0.0570  1.0674 -1.0094
  452MOL0     H60965   3.378   4.140   6.117 -2.4407  3.0530  2.1929
  452MOL0     H60966   3.440   4.258   5.997 -2.0536  1.8090 -2.3175
  452MOL0     H60967   3.194   4.326   5.961 -0.8121 -0.4088  0.5317
  452MOL0     H60968   3.138   4.191   6.057 -0.3317 -0.5041 -2.6081
  452MOL0     H60969   3.301   4.428   6.153 -0.8366 -0.2453 -1.4861
  452MOL0     H60970   3.265   4.281   6.252 -1.9264 -1.3981  0.2206
  452MOL0     H60971   3.054   4.565   6.074 -1.2057  1.1876 -0.8223
  452MOL0     H60972   2.715   4.552   6.268 -0.8891  3.2942 -0.3343
  452MOL0     H60973   2.812   4.690   6.252 -1.8838  0.7620 -0.7880
  452MOL0     H60974   2.786   4.686   6.013  0.7796 -0.8423  0.6543
  452MOL0     H60975   2.639   4.635   6.084 -1.2307 -0.2106 -4.3383
  452MOL0     H60976   2.668   4.389   6.029 -2.5458 -0.8552 -3.2487
  452MOL0     H60977   2.838   4.410   5.991  1.4850  3.3986 -2.3324
  452MOL0     H60978   2.703   4.585   5.826  2.0722  0.1001  1.5245
  452MOL0     H60979   2.565   4.477   5.874 -0.0658  0.0862  0.7032
  452MOL0     H60980   2.765   4.204   5.602 -0.1364 -0.6683  0.0077
  452MOL0     H60981   3.065   4.043   5.499 -1.1002 -1.0459  3.2533
  452MOL0     H60982   2.893   4.081   5.460 -0.0215 -0.0650  0.9355
  452MOL0     H60983   3.017   4.158   5.367  2.7228 -2.7011  0.0019
  452MOL0     H60984   3.482   4.424   5.509  1.7391 -0.5224  1.8356
  452MOL0     H60985   3.729   4.365   5.414  0.5512  1.0589 -2.0131
  452MOL0     H60986   3.742   3.954   5.291 -0.0826 -4.6284 -3.4712
  452MOL0     H60987   3.778   4.002   5.125 -0.6166 -0.3006  0.4317
  452MOL0     H60988   3.972   4.057   5.346 -0.7469  3.2099 -2.1376
  452MOL0     H60989   3.958   3.891   5.278 -1.8345  0.8169  1.7142
  452MOL0     H60990   4.025   4.136   5.108 -0.6675  0.3297  1.1037
  452MOL0     H60991   4.072   3.966   5.076 -0.3119 -1.1502  1.7403
  452MOL0     H60992   4.185   4.140   5.297  0.0762  1.4258 -1.6310
  452MOL0     H60993   4.200   3.964   5.281 -0.7545  0.1689  2.0705
  452MOL0     H60994   4.300   4.151   5.047  2.7167 -0.0457 -0.9598
  452MOL0     H60995   4.314   3.981   5.074 -0.5763  0.4337 -0.7910
  452MOL0     H60996   4.456   4.196   5.252 -0.7386  0.1213  0.8053
  452MOL0     H60997   4.450   4.033   5.286 -0.3895  2.4635  2.7272
  452MOL0     H60998   4.538   4.095   5.007  0.9024  1.4482  0.8936
  452MOL0     H60999   4.597   3.961   5.131 -1.2842 -1.4573  0.8172
  452MOL0     H61000   4.644   4.265   5.168  2.8376  0.3408 -1.4365
  452MOL0     H61001   4.746   4.167   5.061  1.0060 -1.1857 -0.0503
  452MOL0     H61002   3.550   4.054   5.183  4.0765 -2.1782  2.1242
  452MOL0     H61003   3.324   4.121   5.254  1.8771 -1.3463 -2.7212
  452MOL0     H61004   3.133   4.521   5.685  0.0992 -0.5788 -0.8101
  452MOL0     H61005   2.923   4.550   5.795 -0.4179  1.1422 -0.4919
  452MOL0     H61006   4.079   4.139   5.987 -3.1788 -1.9469 -1.0802
  452MOL0     H61007   4.216   4.197   6.188 -1.3225  0.6641  1.3436
  452MOL0     H61008   4.230   4.009   6.756 -0.0453  2.5832  1.3781
  452MOL0     H61009   4.399   3.971   6.938 -0.6815 -0.7775  0.1192
  452MOL0     H61010   4.811   3.786   6.811  3.0275 -1.2570  0.5723
  452MOL0     H61011   4.801   3.761   6.979  1.3391 -0.1427 -1.3980
  452MOL0     H61012   4.714   3.569   6.824  0.8435  1.1343 -2.0103
  452MOL0     H61013   4.579   3.663   6.791 -0.1362  0.2077  0.7602
  452MOL0     H61014   4.570   3.692   7.053  0.2320  0.3117 -1.2090
  452MOL0     H61015   4.678   3.550   7.049  0.9951 -2.3701 -2.3665
  452MOL0     H61016   4.428   3.491   7.077 -2.2798 -2.1930 -2.1841
  452MOL0     H61017   4.508   3.409   6.952 -0.8239 -1.0835  1.8347
  452MOL0     H61018   4.207   3.640   6.764 -0.1634  1.8656  0.8044
  452MOL0     H61019   4.704   3.901   6.645 -1.1010 -2.5331 -1.1965
  452MOL0     H61020   4.531   3.926   6.462  1.4136  1.1778  0.7922
  453MOL0     O61021   4.522   6.157   2.209  0.7056  0.7850 -0.2641
  453MOL0     C61022   4.540   6.172   2.333  0.5684  0.0854  0.7294
  453MOL0     O61023   4.459   6.228   2.426  0.7807 -0.2294 -0.4037
  453MOL0     C61024   4.347   6.289   2.368 -0.1210  0.0860 -0.9007
  453MOL0     C61025   4.337   6.431   2.374  0.4844 -0.6551  0.4816
  453MOL0     C61026   4.219   6.487   2.309  0.1932  0.1042  0.0512
  453MOL0     C61027   4.116   6.405   2.261  0.3732 -0.3449  0.5165
  453MOL0     O61028   3.994   6.447   2.211 -0.3832 -0.2043 -0.1215
  453MOL0     C61029   3.923   6.560   2.267  0.3735 -0.0369  0.3987
  453MOL0     C61030   3.836   6.625   2.155 -0.1978  0.1434 -0.4550
  453MOL0     C61031   3.753   6.515   2.081  0.6851  0.2482  0.4277
  453MOL0     C61032   3.673   6.565   1.959  0.3423 -0.6281 -0.7925
  453MOL0     C61033   3.532   6.488   1.960  0.3470  0.2959  0.6685
  453MOL0     C61034   3.468   6.504   1.821 -0.8507  0.5329 -0.9771
  453MOL0     C61035   3.372   6.384   1.797  0.2027 -0.3408  0.4525
  453MOL0     C61036   3.419   6.257   1.726  0.6431 -0.0754 -0.6242
  453MOL0     N61037   3.295   6.192   1.674 -0.7705 -0.6935  0.6079
  453MOL0     C61038   3.180   6.162   1.745  0.0886  0.4560 -0.3646
  453MOL0     C61039   3.089   6.125   1.650  0.1245  1.0434  0.1559
  453MOL0     C61040   2.951   6.088   1.677 -0.0283  0.1616  0.1198
  453MOL0     C61041   2.939   5.940   1.725  0.2531  0.1800  0.2853
  453MOL0     C61042   2.804   5.897   1.779 -0.6563 -0.0421  0.2918
  453MOL0     C61043   2.785   5.748   1.802  0.8519  0.3920  1.2559
  453MOL0     O61044   2.673   5.716   1.880 -0.3075 -0.3492  0.4435
  453MOL0     C61045   2.570   5.651   1.827  0.8023  0.7240 -1.0539
  453MOL0     C61046   2.577   5.526   1.758  1.1542 -0.3670  0.1789
  453MOL0     C61047   2.463   5.460   1.708  0.2023 -0.5975  0.0888
  453MOL0     C61048   2.492   5.341   1.613  0.7054 -0.4240  0.2888
  453MOL0     C61049   2.334   5.507   1.736  0.1969 -0.4237 -0.0023
  453MOL0     C61050   2.204   5.441   1.697  0.0042 -0.3015 -0.0809
  453MOL0     O61051   2.089   5.502   1.752 -0.7589  0.0828 -0.8417
  453MOL0     C61052   1.963   5.462   1.717 -0.5358  0.1197  0.8235
  453MOL0     C61053   1.923   5.417   1.584 -1.5223 -0.3025 -0.4606
  453MOL0     C61054   1.786   5.408   1.549 -0.2873  1.0102 -0.4747
  453MOL0     C61055   1.685   5.415   1.658 -0.1235 -0.0001  0.1053
  453MOL0     O61056   1.562   5.379   1.619  0.2737  0.0600  0.2439
  453MOL0     C61057   1.459   5.432   1.703 -0.2942  0.2214 -0.1128
  453MOL0     C61058   1.326   5.414   1.633 -0.0224 -0.8239  0.8732
  453MOL0     C61059   1.286   5.264   1.622  0.1250  0.3367 -0.4669
  453MOL0     C61060   1.144   5.225   1.596  0.3153 -0.2977  0.4077
  453MOL0     C61061   1.115   5.093   1.666  0.4585 -0.1026 -0.4824
  453MOL0     C61062   0.974   5.044   1.636 -0.0837  0.6962  0.4020
  453MOL0     C61063   0.856   5.136   1.679 -0.0135 -0.1597  0.5359
  453MOL0     C61064   0.728   5.054   1.699  0.4815  0.1742  0.8492
  453MOL0    Cl61065   0.727   4.944   1.825  0.3017  0.2570  0.1612
  453MOL0     C61066   1.729   5.444   1.786 -0.2093  0.4813 -0.1708
  453MOL0     C61067   1.861   5.470   1.815 -0.3007 -0.2911 -0.2064
  453MOL0     O61068   2.201   5.344   1.617 -0.0538 -0.2500 -0.0173
  453MOL0     C61069   2.328   5.619   1.827 -0.9347  0.0489 -0.1278
  453MOL0     C61070   2.443   5.686   1.865  0.5476 -0.9433  0.5636
  453MOL0     N61071   3.157   6.111   1.529  0.1403  1.3342  0.0079
  453MOL0     N61072   3.281   6.163   1.544  0.1415  0.7880  0.7027
  453MOL0     C61073   4.139   6.267   2.257 -0.2174  0.0310 -0.5477
  453MOL0     C61074   4.249   6.205   2.310  0.0960  0.0909  0.1318
  453MOL0     C61075   4.676   6.128   2.373 -0.7193 -0.5521  0.2967
  453MOL0     C61076   4.716   6.139   2.502  0.3005  0.7797  0.0169
  453MOL0     C61077   4.848   6.108   2.544 -0.0663  0.0473  0.2204
  453MOL0     C61078   4.940   6.047   2.459 -0.2063  0.0548  0.5346
  453MOL0     O61079   5.067   6.029   2.501 -0.2723  0.1374 -0.4612
  453MOL0     C61080   5.163   5.975   2.415  0.3253  0.3565 -0.9015
  453MOL0     C61081   5.306   5.970   2.482  0.2181 -0.9034  0.6647
  453MOL0     C61082   5.306   5.892   2.622 -0.3213 -0.8939  0.2969
  453MOL0     C61083   5.451   5.874   2.676 -0.6463  0.0626 -0.1955
  453MOL0     C61084   5.509   6.004   2.696 -0.3995 -0.7076  0.2729
  453MOL0     C61085   5.553   6.123   2.703  0.2281  0.0656 -0.3622
  453MOL0     C61086   4.893   6.021   2.323  0.0011  0.0214 -0.2417
  453MOL0     C61087   4.766   6.062   2.285  0.0365 -0.1204  0.1350
  453MOL0     H61088   4.402   6.499   2.427 -0.2952  0.5876 -0.1284
  453MOL0     H61089   4.201   6.592   2.330 -0.6709 -0.1364  0.5438
  453MOL0     H61090   3.854   6.516   2.339  1.4033  0.0004  1.4450
  453MOL0     H61091   3.992   6.628   2.319  1.7166 -0.4822 -0.7424
  453MOL0     H61092   3.765   6.694   2.202  0.5519  1.8583 -1.7246
  453MOL0     H61093   3.901   6.674   2.082 -0.8380  0.9833 -0.4898
  453MOL0     H61094   3.805   6.421   2.057 -0.8548 -1.0542  1.9390
  453MOL0     H61095   3.676   6.479   2.150 -0.2518  2.1992  0.4386
  453MOL0     H61096   3.665   6.674   1.960  1.2480 -0.5540  0.4859
  453MOL0     H61097   3.728   6.544   1.867  2.8530  0.1841  0.4311
  453MOL0     H61098   3.558   6.382   1.964  2.2413  0.7442  1.8931
  453MOL0     H61099   3.456   6.519   2.032 -3.6283 -4.0728 -1.0936
  453MOL0     H61100   3.417   6.599   1.807  0.9775  1.9782  1.2811
  453MOL0     H61101   3.540   6.511   1.739 -1.6122  0.5582 -1.6457
  453MOL0     H61102   3.322   6.362   1.892 -0.8247 -1.9458 -0.4222
  453MOL0     H61103   3.293   6.425   1.734 -0.5982  1.2601  2.3839
  453MOL0     H61104   3.472   6.190   1.794  0.0003 -1.2135 -1.2225
  453MOL0     H61105   3.480   6.287   1.640  2.0266  0.8136  0.6136
  453MOL0     H61106   3.167   6.165   1.853  2.3446  1.0199 -0.0645
  453MOL0     H61107   2.903   6.153   1.751 -2.5248  1.9011 -2.7951
  453MOL0     H61108   2.885   6.099   1.590 -0.3147  0.9128  0.4247
  453MOL0     H61109   3.020   5.916   1.795  0.2641 -0.3689  0.0891
  453MOL0     H61110   2.960   5.885   1.633 -0.1410 -2.5858  1.7370
  453MOL0     H61111   2.729   5.925   1.705  1.1031  2.3350 -0.7401
  453MOL0     H61112   2.791   5.960   1.868  3.6964  0.4386  0.8250
  453MOL0     H61113   2.865   5.717   1.870  1.2823  2.3446  1.7089
  453MOL0     H61114   2.792   5.713   1.699 -0.3119  1.7290  0.6889
  453MOL0     H61115   2.672   5.477   1.743  0.6418 -2.9540  4.0801
  453MOL0     H61116   2.445   5.373   1.519 -1.5166 -2.3033  0.6774
  453MOL0     H61117   2.597   5.321   1.591  1.2272 -0.0062  2.2174
  453MOL0     H61118   2.431   5.254   1.640 -1.1175  0.5860 -0.3867
  453MOL0     H61119   2.002   5.400   1.511 -0.6515  1.5380 -0.0204
  453MOL0     H61120   1.751   5.370   1.454  1.0510  2.8292 -1.7910
  453MOL0     H61121   1.451   5.369   1.792 -0.9511 -2.4014 -1.8949
  453MOL0     H61122   1.473   5.538   1.725  5.1444 -0.0001 -0.9632
  453MOL0     H61123   1.249   5.474   1.682 -0.9307  2.1485 -3.5889
  453MOL0     H61124   1.334   5.454   1.532  5.2467  2.2190  2.0584
  453MOL0     H61125   1.316   5.215   1.715 -2.6713 -0.0368  0.3061
  453MOL0     H61126   1.347   5.220   1.543  0.6852  1.6966 -0.8250
  453MOL0     H61127   1.074   5.298   1.636  1.6542  0.8500  0.7266
  453MOL0     H61128   1.137   5.210   1.488  1.8548  0.7804  0.1300
  453MOL0     H61129   1.135   5.093   1.774  0.6217 -0.4893 -0.5091
  453MOL0     H61130   1.179   5.014   1.625 -0.0199 -2.0881  2.2562
  453MOL0     H61131   0.965   5.012   1.532 -1.9107  2.2142  0.0223
  453MOL0     H61132   0.957   4.951   1.692 -1.6982 -0.9169 -2.5281
  453MOL0     H61133   0.844   5.206   1.596  1.2730  2.2046  2.1948
  453MOL0     H61134   0.878   5.186   1.774  0.4528 -1.4581  1.1331
  453MOL0     H61135   0.704   5.016   1.599 -0.3805 -0.3468  1.2386
  453MOL0     H61136   0.647   5.125   1.719  1.1242  1.3833 -0.6121
  453MOL0     H61137   1.664   5.449   1.873  0.9267 -0.2256  0.7560
  453MOL0     H61138   1.883   5.498   1.917 -1.6950 -1.3144  0.4060
  453MOL0     H61139   2.238   5.664   1.867 -2.7687 -2.1805 -1.5486
  453MOL0     H61140   2.428   5.772   1.930  2.6240  1.3452 -1.7486
  453MOL0     H61141   4.066   6.192   2.229 -1.1190  0.0529  1.6028
  453MOL0     H61142   4.249   6.097   2.321  1.2140  0.0154 -0.4762
  453MOL0     H61143   4.650   6.184   2.574 -0.8727  0.2875 -0.7232
  453MOL0     H61144   4.880   6.138   2.643 -1.0597  2.8271 -0.2076
  453MOL0     H61145   5.139   5.870   2.395  1.3098  0.0222 -0.3758
  453MOL0     H61146   5.170   6.034   2.324 -1.2879  2.8824  0.4973
  453MOL0     H61147   5.346   6.071   2.489  1.7585 -1.6093  3.0493
  453MOL0     H61148   5.365   5.914   2.409 -0.5384  0.8422 -1.4021
  453MOL0     H61149   5.257   5.795   2.608  0.8791 -1.3168 -1.2516
  453MOL0     H61150   5.237   5.935   2.695 -0.6852  0.7129 -0.9500
  453MOL0     H61151   5.511   5.830   2.596 -0.7892  3.1495 -2.1386
  453MOL0     H61152   5.445   5.819   2.771  0.0741  0.7535  0.2626
  453MOL0     H61153   5.603   6.218   2.693  1.0040 -0.1301  1.3252
  453MOL0     H61154   4.961   5.983   2.247 -0.4369  2.9081 -2.2156
  453MOL0     H61155   4.730   6.041   2.185 -1.5879 -0.3187  0.7202
  454MOL0     O61156   9.409   7.043   3.954  0.9220 -0.6152  0.0834
  454MOL0     C61157   9.463   7.111   4.041  0.6121  0.2053 -0.1780
  454MOL0     O61158   9.404   7.138   4.164 -0.2797  0.9622 -0.4706
  454MOL0     C61159   9.283   7.084   4.203 -0.0444  0.3704 -0.5340
  454MOL0     C61160   9.165   7.068   4.132 -0.3865 -0.3016 -0.4846
  454MOL0     C61161   9.047   7.018   4.189 -0.1607 -0.6179 -0.6143
  454MOL0     C61162   9.042   6.984   4.323 -0.1594 -0.6085 -0.2857
  454MOL0     O61163   8.920   6.946   4.374  0.1275  0.1825  0.4779
  454MOL0     C61164   8.823   6.888   4.290 -0.9127 -0.6692  0.5160
  454MOL0     C61165   8.717   6.844   4.382 -0.5778  0.0401 -0.1395
  454MOL0     C61166   8.628   6.734   4.325 -0.2074 -1.0946  0.7001
  454MOL0     C61167   8.499   6.720   4.387 -0.3603 -0.4855  0.5164
  454MOL0     C61168   8.419   6.604   4.320 -0.7640 -0.0781  0.7635
  454MOL0     C61169   8.312   6.650   4.216 -0.6356 -0.7330 -0.8359
  454MOL0     C61170   8.221   6.534   4.173 -0.0563 -0.0817  0.5614
  454MOL0     C61171   8.295   6.411   4.102 -0.1680  0.4419  0.3825
  454MOL0     N61172   8.214   6.329   4.019 -0.1016 -0.7398  0.9374
  454MOL0     C61173   8.135   6.226   4.066 -0.0744 -0.1321  0.3232
  454MOL0     C61174   8.062   6.184   3.961 -0.5131 -0.5209  0.1343
  454MOL0     C61175   7.947   6.084   3.950 -0.2124  0.0628  1.3353
  454MOL0     C61176   7.835   6.134   3.863 -0.0029 -0.3667 -0.5508
  454MOL0     C61177   7.713   6.037   3.858 -0.3727  1.3716 -1.1007
  454MOL0     C61178   7.589   6.098   3.791  0.4001 -0.4891  0.2580
  454MOL0     O61179   7.576   6.240   3.823 -0.2028  0.0751 -0.1786
  454MOL0     C61180   7.462   6.307   3.783  0.5716  0.0511 -0.7505
  454MOL0     C61181   7.430   6.430   3.838 -0.3665 -0.2716 -0.0750
  454MOL0     C61182   7.317   6.511   3.804 -0.2995  1.0254 -0.2007
  454MOL0     C61183   7.296   6.653   3.865  0.8446  0.4679  0.9047
  454MOL0     C61184   7.223   6.449   3.713 -0.4732 -0.3795  0.6407
  454MOL0     C61185   7.086   6.513   3.666 -0.6910  0.5000 -0.2953
  454MOL0     O61186   7.061   6.636   3.708 -0.5359 -0.2425 -0.2765
  454MOL0     C61187   6.927   6.683   3.713 -0.7710  0.2015 -0.1269
  454MOL0     C61188   6.837   6.675   3.602 -0.7062 -0.4468  0.1205
  454MOL0     C61189   6.713   6.735   3.611 -0.7302 -0.0755  0.1668
  454MOL0     C61190   6.667   6.783   3.740 -0.2992 -0.5125  0.2342
  454MOL0     O61191   6.550   6.826   3.765 -0.2176  0.0755 -0.0718
  454MOL0     C61192   6.438   6.738   3.731  1.0789  0.0936 -0.1876
  454MOL0     C61193   6.460   6.581   3.746  0.6706  0.0302 -0.5334
  454MOL0     C61194   6.463   6.522   3.894 -0.0333 -0.0500 -0.0359
  454MOL0     C61195   6.341   6.547   3.984  0.3245 -0.8013  0.3676
  454MOL0     C61196   6.213   6.475   3.945 -1.2567 -0.5151  0.4305
  454MOL0     C61197   6.096   6.510   4.040  0.5062 -0.1790  0.6274
  454MOL0     C61198   5.955   6.480   3.982  0.5152  1.0849  0.9447
  454MOL0     C61199   5.837   6.514   4.072  0.2218  0.4787 -0.2800
  454MOL0    Cl61200   5.833   6.690   4.150  0.1344  0.0279  0.1790
  454MOL0     C61201   6.752   6.792   3.845  0.2783  0.0410  1.0839
  454MOL0     C61202   6.884   6.750   3.827 -0.9419  0.1126 -0.7073
  454MOL0     O61203   7.009   6.438   3.599 -0.4218 -0.0283 -0.9368
  454MOL0     C61204   7.247   6.325   3.656 -0.5016  0.3064 -0.0542
  454MOL0     C61205   7.372   6.259   3.689 -0.0187  0.1556  0.0124
  454MOL0     N61206   8.116   6.243   3.850 -0.0637  0.2020  0.6301
  454MOL0     N61207   8.199   6.334   3.888 -0.1068 -0.4151  0.0240
  454MOL0     C61208   9.156   7.008   4.406  0.9016  1.2630 -0.3288
  454MOL0     C61209   9.268   7.052   4.337 -0.5213 -0.0301  0.5641
  454MOL0     C61210   9.599   7.157   4.004 -0.7864  0.5944  0.0405
  454MOL0     C61211   9.657   7.127   3.883  0.5275 -0.3200 -0.1364
  454MOL0     C61212   9.791   7.154   3.851  0.5836  0.0989 -0.2143
  454MOL0     C61213   9.878   7.196   3.954 -0.6451 -0.4344  0.2033
  454MOL0     O61214  10.013   7.222   3.934  0.4251  0.5979 -0.4988
  454MOL0     C61215  10.056   7.325   3.852  0.2949 -0.3787 -0.0534
  454MOL0     C61216  10.183   7.281   3.783 -0.8533  0.2827 -0.7421
  454MOL0     C61217  10.296   7.245   3.880  0.5133 -0.1256  0.2201
  454MOL0     C61218  10.405   7.173   3.807  0.2966  0.5773 -0.1467
  454MOL0     C61219  10.377   7.029   3.792  0.1802  0.0974 -0.2479
  454MOL0     C61220  10.338   6.914   3.775  0.7868 -0.2316 -0.0163
  454MOL0     C61221   9.825   7.219   4.078  0.5512 -0.0189  0.2486
  454MOL0     C61222   9.683   7.199   4.103 -0.0830  0.5736 -1.0885
  454MOL0     H61223   9.168   7.090   4.026  5.2515  0.9974 -0.3773
  454MOL0     H61224   8.969   7.005   4.116  0.2921  0.0166 -1.2193
  454MOL0     H61225   8.783   6.945   4.205 -2.2551 -3.5496 -0.9165
  454MOL0     H61226   8.872   6.803   4.242  0.4887 -0.6099  1.7933
  454MOL0     H61227   8.761   6.786   4.463 -2.0911 -1.4325 -0.2895
  454MOL0     H61228   8.659   6.925   4.426  3.0164  0.5741  4.2559
  454MOL0     H61229   8.610   6.758   4.220  1.9122  0.6338  0.6762
  454MOL0     H61230   8.687   6.642   4.319  1.6906  0.0571 -5.1433
  454MOL0     H61231   8.518   6.692   4.491 -2.2116 -1.6404  0.5870
  454MOL0     H61232   8.436   6.809   4.380 -0.3402 -0.5003  0.1357
  454MOL0     H61233   8.490   6.546   4.260 -0.9506  0.0838  0.3862
  454MOL0     H61234   8.374   6.542   4.398 -4.0758  1.4549  0.2266
  454MOL0     H61235   8.262   6.739   4.255  2.8893  0.6813  0.9125
  454MOL0     H61236   8.353   6.695   4.125  0.7330 -1.9591 -0.8780
  454MOL0     H61237   8.169   6.489   4.258 -1.0237 -0.4143 -0.1828
  454MOL0     H61238   8.146   6.572   4.103 -0.9916  0.0565  1.6262
  454MOL0     H61239   8.344   6.349   4.179 -1.8229 -1.1535  0.2225
  454MOL0     H61240   8.372   6.462   4.043 -0.2310  1.6408  1.3041
  454MOL0     H61241   8.118   6.200   4.170  3.3140  1.5581  1.4336
  454MOL0     H61242   7.983   5.986   3.916  0.8105  0.0150  2.4872
  454MOL0     H61243   7.906   6.067   4.050 -0.5197 -2.0192  0.8934
  454MOL0     H61244   7.862   6.148   3.758 -2.3201 -0.8881 -1.2648
  454MOL0     H61245   7.806   6.232   3.902  0.7912  0.1486 -1.2138
  454MOL0     H61246   7.688   6.005   3.960 -0.3970  1.6880 -1.0073
  454MOL0     H61247   7.744   5.947   3.803 -1.1980  0.1488  0.3369
  454MOL0     H61248   7.499   6.047   3.827 -0.3241 -1.1013 -2.2283
  454MOL0     H61249   7.588   6.080   3.683  0.2433  1.4660 -0.0968
  454MOL0     H61250   7.505   6.477   3.902 -0.0857 -0.0601 -0.5523
  454MOL0     H61251   7.320   6.732   3.794  1.1680 -1.2470 -0.9788
  454MOL0     H61252   7.197   6.652   3.912 -1.4858 -0.1778 -3.4968
  454MOL0     H61253   7.364   6.658   3.951 -1.1640 -3.1914  2.9735
  454MOL0     H61254   6.864   6.633   3.506 -2.5952  1.7899 -1.4935
  454MOL0     H61255   6.646   6.743   3.526 -0.6276  0.6549  0.1547
  454MOL0     H61256   6.357   6.764   3.799  2.2971 -0.4847  1.5448
  454MOL0     H61257   6.404   6.760   3.629 -2.9600 -1.2654  0.7063
  454MOL0     H61258   6.386   6.525   3.688  2.2153 -1.1720 -1.4498
  454MOL0     H61259   6.554   6.543   3.704  0.4126 -0.5781 -0.5656
  454MOL0     H61260   6.549   6.566   3.946 -0.6349  2.1426 -0.7611
  454MOL0     H61261   6.482   6.415   3.886  1.2166  0.2883 -2.8790
  454MOL0     H61262   6.374   6.514   4.083  2.8874 -1.8454 -0.7519
  454MOL0     H61263   6.324   6.655   3.991 -1.3963 -1.1206  2.4906
  454MOL0     H61264   6.231   6.368   3.933 -0.1348 -0.5776  2.3340
  454MOL0     H61265   6.194   6.518   3.846  1.0423 -0.5063 -0.0438
  454MOL0     H61266   6.115   6.449   4.129 -0.6935 -3.2079 -1.0453
  454MOL0     H61267   6.099   6.615   4.070  2.0535  0.5409 -1.7528
  454MOL0     H61268   5.948   6.374   3.954 -0.7198  1.7506 -1.6401
  454MOL0     H61269   5.938   6.548   3.898  0.7876  2.3265  1.8704
  454MOL0     H61270   5.841   6.447   4.159 -1.1382 -1.7692 -1.8555
  454MOL0     H61271   5.737   6.495   4.032  0.4667 -0.9722 -0.2658
  454MOL0     H61272   6.719   6.833   3.940  0.1253 -1.5119  1.7389
  454MOL0     H61273   6.956   6.761   3.908 -1.4186  2.5076 -0.5218
  454MOL0     H61274   7.186   6.286   3.575  0.0852  1.5744 -1.1418
  454MOL0     H61275   7.387   6.165   3.636  1.4811  1.5949 -2.2586
  454MOL0     H61276   9.153   6.987   4.512 -2.8445 -1.1497 -0.7285
  454MOL0     H61277   9.351   7.064   4.406 -0.3728  1.4170  0.1571
  454MOL0     H61278   9.595   7.087   3.804 -0.5774  0.8029  0.1363
  454MOL0     H61279   9.816   7.132   3.747  2.0279 -1.0734  0.3424
  454MOL0     H61280   9.985   7.341   3.771  1.0498 -0.7108 -0.7960
  454MOL0     H61281  10.061   7.418   3.910  2.2967 -0.0195 -0.7357
  454MOL0     H61282  10.207   7.361   3.713  0.1942 -0.1574 -0.9105
  454MOL0     H61283  10.159   7.190   3.727  0.5348 -1.8769  1.8760
  454MOL0     H61284  10.253   7.181   3.958 -1.3041  2.1468  1.2210
  454MOL0     H61285  10.336   7.333   3.931 -0.1369  0.2945  0.0305
  454MOL0     H61286  10.498   7.174   3.866 -0.2785  1.0617  0.7801
  454MOL0     H61287  10.429   7.214   3.709  2.2030 -1.3504 -0.5636
  454MOL0     H61288  10.307   6.813   3.755  2.4121 -1.0123  1.1918
  454MOL0     H61289   9.894   7.241   4.159  0.6924  0.6391 -0.0423
  454MOL0     H61290   9.651   7.207   4.206  1.4391 -1.2824 -0.4143
  455MOL0     O61291   8.527   5.171   2.635  0.0156  0.6253  0.7799
  455MOL0     C61292   8.581   5.171   2.742 -0.3820 -0.3563 -0.3647
  455MOL0     O61293   8.527   5.122   2.858  1.1111 -0.5181 -0.8351
  455MOL0     C61294   8.390   5.095   2.861 -0.7116  1.0676 -0.3450
  455MOL0     C61295   8.352   4.981   2.942  0.0458  0.3685 -0.1022
  455MOL0     C61296   8.218   4.949   2.957  0.0201  0.9146 -1.2007
  455MOL0     C61297   8.120   5.029   2.896  0.0148 -0.5752  0.0104
  455MOL0     O61298   7.993   4.988   2.906 -0.7232 -0.3470 -0.3812
  455MOL0     C61299   7.918   5.046   3.015 -0.2241  0.2839  0.4818
  455MOL0     C61300   7.772   4.987   3.024 -0.5596  0.7272 -0.0714
  455MOL0     C61301   7.682   5.073   2.941 -0.3799 -0.5901 -0.2548
  455MOL0     C61302   7.545   5.019   2.951  0.4418  0.4271 -0.7046
  455MOL0     C61303   7.446   5.090   2.846  0.0358 -0.6279 -0.1742
  455MOL0     C61304   7.426   5.244   2.877 -0.3296 -0.5384 -0.0043
  455MOL0     C61305   7.285   5.287   2.851 -0.9025 -0.3684 -0.1165
  455MOL0     C61306   7.265   5.439   2.868  0.2058  0.1043 -0.3105
  455MOL0     N61307   7.136   5.489   2.821 -0.1780 -0.2069  0.2812
  455MOL0     C61308   7.082   5.473   2.702 -0.2792  0.1455  0.0020
  455MOL0     C61309   6.968   5.548   2.698 -0.6831 -0.9897 -0.6360
  455MOL0     C61310   6.876   5.576   2.595  0.3860 -0.3941  0.9087
  455MOL0     C61311   6.948   5.609   2.466  0.0257 -0.5564 -0.0122
  455MOL0     C61312   6.860   5.646   2.346  0.0562 -1.1862  0.3445
  455MOL0     C61313   6.763   5.541   2.307  0.2220 -0.5377  0.8869
  455MOL0     O61314   6.820   5.412   2.313  0.3328  0.6484 -0.9624
  455MOL0     C61315   6.751   5.310   2.367 -0.4017 -0.3527 -0.2220
  455MOL0     C61316   6.826   5.229   2.449 -0.0837 -0.9317  0.0158
  455MOL0     C61317   6.777   5.132   2.534 -0.1770 -0.8313 -0.8792
  455MOL0     C61318   6.874   5.065   2.624 -0.5733  1.1400 -0.4893
  455MOL0     C61319   6.639   5.105   2.522  0.2168  0.2898  1.0893
  455MOL0     C61320   6.581   4.991   2.603 -1.3074 -1.1948 -0.2938
  455MOL0     O61321   6.456   5.005   2.648 -0.3587  0.3910 -0.6014
  455MOL0     C61322   6.369   4.902   2.651 -0.1800 -0.3574  0.9418
  455MOL0     C61323   6.370   4.780   2.578  0.2565 -0.5086  0.2035
  455MOL0     C61324   6.274   4.690   2.590  0.0480 -0.8364  0.9727
  455MOL0     C61325   6.165   4.718   2.667 -0.1599 -0.3494 -0.8502
  455MOL0     O61326   6.061   4.630   2.669 -0.5846  0.2580 -0.0740
  455MOL0     C61327   6.077   4.493   2.623 -0.2674 -0.4508  0.1328
  455MOL0     C61328   5.953   4.412   2.645 -0.3415  0.4747  0.4059
  455MOL0     C61329   5.824   4.475   2.581  0.5304 -0.0168  0.4197
  455MOL0     C61330   5.713   4.373   2.568  0.1827  0.7295  0.2828
  455MOL0     C61331   5.581   4.439   2.517 -0.0692  0.8945  0.3379
  455MOL0     C61332   5.475   4.335   2.479  0.5642 -0.7521 -0.1376
  455MOL0     C61333   5.337   4.396   2.442 -0.5622 -0.2080  0.1454
  455MOL0     C61334   5.291   4.355   2.295  0.1793 -0.3252  0.3539
  455MOL0    Cl61335   5.215   4.193   2.314 -0.1764 -0.1053 -0.4410
  455MOL0     C61336   6.154   4.838   2.744 -0.1324  0.3776  0.6759
  455MOL0     C61337   6.257   4.930   2.731  0.2533 -0.2202 -0.1935
  455MOL0     O61338   6.648   4.888   2.613 -0.0514 -0.3709  0.3579
  455MOL0     C61339   6.557   5.189   2.436  0.0497  0.2223  0.5305
  455MOL0     C61340   6.613   5.292   2.363  0.2726  0.4458  0.6609
  455MOL0     N61341   6.949   5.608   2.820  0.5169  0.4383  0.1523
  455MOL0     N61342   7.057   5.575   2.889  0.0667 -0.9354 -1.0174
  455MOL0     C61343   8.150   5.140   2.819  0.0918  0.3939  0.5507
  455MOL0     C61344   8.288   5.178   2.802 -0.4840 -0.3715 -0.1853
  455MOL0     C61345   8.723   5.229   2.750  0.0343 -0.2178  0.7763
  455MOL0     C61346   8.806   5.200   2.859 -0.1654 -0.2214  0.1489
  455MOL0     C61347   8.939   5.243   2.872 -0.1862 -0.1401 -0.3129
  455MOL0     C61348   8.995   5.311   2.767  0.4950  0.2458  0.7388
  455MOL0     O61349   9.124   5.354   2.781  0.4105  0.1489 -0.7751
  455MOL0     C61350   9.168   5.462   2.702  0.7483 -0.4217  0.2563
  455MOL0     C61351   9.305   5.495   2.740  0.0763 -0.1631  0.5273
  455MOL0     C61352   9.398   5.368   2.705  0.3353 -0.5577 -0.9664
  455MOL0     C61353   9.545   5.421   2.737  0.0733  0.5919 -0.0771
  455MOL0     C61354   9.595   5.513   2.630 -0.1383 -0.6515  0.5315
  455MOL0     C61355   9.645   5.593   2.549 -0.5603  0.5622  0.3587
  455MOL0     C61356   8.914   5.330   2.648  0.1697  0.5216  0.7104
  455MOL0     C61357   8.782   5.292   2.637 -0.4867  0.9188  0.3627
  455MOL0     H61358   8.425   4.927   3.002 -0.2807  0.7533  0.6679
  455MOL0     H61359   8.196   4.866   3.024  0.0689  3.9903  3.0389
  455MOL0     H61360   7.969   5.020   3.108  1.8250 -0.2977 -0.7536
  455MOL0     H61361   7.924   5.154   3.030  1.6615  0.1154  1.1026
  455MOL0     H61362   7.762   4.879   3.014 -0.8867  0.7673 -0.1826
  455MOL0     H61363   7.745   5.003   3.129 -1.0774 -0.5600  0.0135
  455MOL0     H61364   7.689   5.171   2.988  1.7004 -1.4991  1.4693
  455MOL0     H61365   7.709   5.075   2.835  0.0917  1.6942 -0.1335
  455MOL0     H61366   7.545   4.915   2.917 -0.1256  0.0225  0.4853
  455MOL0     H61367   7.505   5.033   3.052 -2.4227  0.0004 -1.6898
  455MOL0     H61368   7.480   5.078   2.743  1.1538 -0.6925  0.1878
  455MOL0     H61369   7.349   5.040   2.847  0.7919 -2.4393 -3.5870
  455MOL0     H61370   7.452   5.262   2.982 -1.1269  0.9061 -0.0329
  455MOL0     H61371   7.489   5.317   2.826  0.4222  0.2894  1.9884
  455MOL0     H61372   7.240   5.262   2.754 -1.4566  1.6133 -0.4262
  455MOL0     H61373   7.221   5.243   2.927 -1.3265  1.1072  0.4052
  455MOL0     H61374   7.346   5.500   2.827 -0.8682  1.0153 -1.1348
  455MOL0     H61375   7.275   5.443   2.977 -0.4894 -1.9973 -0.1181
  455MOL0     H61376   7.126   5.420   2.618 -1.6735  0.2165 -0.7998
  455MOL0     H61377   6.807   5.491   2.589 -0.1254 -0.0693  2.0320
  455MOL0     H61378   6.807   5.655   2.626  0.0678 -0.6989  0.9838
  455MOL0     H61379   7.004   5.521   2.433  0.9883 -0.1575  0.5192
  455MOL0     H61380   7.012   5.697   2.481  2.1630 -0.7995 -5.2536
  455MOL0     H61381   6.925   5.659   2.259 -0.7048 -1.7343 -0.3260
  455MOL0     H61382   6.807   5.740   2.365  0.7924 -0.8250  0.6418
  455MOL0     H61383   6.718   5.551   2.207  1.7717  1.6181  0.3350
  455MOL0     H61384   6.680   5.536   2.378  1.5992 -2.3121  2.4816
  455MOL0     H61385   6.929   5.257   2.470 -0.1952 -0.6347  0.1668
  455MOL0     H61386   6.921   4.979   2.576 -0.4918  1.1700 -0.4645
  455MOL0     H61387   6.949   5.138   2.656  0.5155 -0.8108  1.6817
  455MOL0     H61388   6.839   5.011   2.712  0.7684 -1.2773 -1.3531
  455MOL0     H61389   6.458   4.751   2.521 -0.8608  2.2729 -3.3764
  455MOL0     H61390   6.297   4.599   2.535  0.1215 -2.0780  2.9454
  455MOL0     H61391   6.094   4.493   2.515 -0.1879  2.5412  0.0800
  455MOL0     H61392   6.171   4.449   2.656  0.3053 -1.0406 -2.1294
  455MOL0     H61393   5.967   4.310   2.607  3.0548  1.1610 -0.4544
  455MOL0     H61394   5.946   4.409   2.754 -1.7655  0.7154  0.3416
  455MOL0     H61395   5.856   4.505   2.481  0.8719 -2.1422 -0.1657
  455MOL0     H61396   5.792   4.560   2.642  0.9532 -0.2305  0.9480
  455MOL0     H61397   5.740   4.285   2.509 -3.7328 -0.5559  0.1375
  455MOL0     H61398   5.690   4.313   2.656 -0.6759  0.9180  0.1917
  455MOL0     H61399   5.612   4.490   2.425  3.3961 -1.2074  0.1726
  455MOL0     H61400   5.535   4.507   2.589 -0.2885 -0.2067  1.2568
  455MOL0     H61401   5.504   4.272   2.394  0.3369 -0.2659 -0.5744
  455MOL0     H61402   5.453   4.277   2.569 -1.2031 -2.0406 -1.3252
  455MOL0     H61403   5.352   4.505   2.442 -1.2299 -0.0585 -2.2341
  455MOL0     H61404   5.266   4.367   2.520  1.5832 -0.6731  2.0517
  455MOL0     H61405   5.379   4.345   2.230  1.6524 -0.6615  2.3062
  455MOL0     H61406   5.210   4.416   2.253 -2.4845 -3.6344  0.2783
  455MOL0     H61407   6.070   4.855   2.810  0.4029 -0.1209  1.5107
  455MOL0     H61408   6.252   5.020   2.792  1.1433  0.2190 -0.7424
  455MOL0     H61409   6.451   5.166   2.431  0.2212 -0.2619 -2.0979
  455MOL0     H61410   6.547   5.357   2.307 -3.5430  0.1492  4.3554
  455MOL0     H61411   8.069   5.197   2.774  1.6798  2.4526  0.1301
  455MOL0     H61412   8.325   5.266   2.752  1.1789 -0.8727  0.0860
  455MOL0     H61413   8.774   5.141   2.944 -0.0372 -1.4148 -0.6102
  455MOL0     H61414   8.998   5.245   2.964 -0.3994 -1.3756 -0.1348
  455MOL0     H61415   9.166   5.424   2.600 -2.2293 -0.7458  0.3618
  455MOL0     H61416   9.104   5.551   2.710 -2.0883 -2.2590 -0.6060
  455MOL0     H61417   9.318   5.513   2.847  0.3565 -0.9429  0.6298
  455MOL0     H61418   9.334   5.588   2.688 -3.5228  0.5301 -0.4935
  455MOL0     H61419   9.372   5.347   2.601 -2.7679  2.5410 -1.0110
  455MOL0     H61420   9.361   5.287   2.767 -0.7967 -0.8869 -2.0276
  455MOL0     H61421   9.607   5.332   2.747  0.4584  0.8221 -0.4032
  455MOL0     H61422   9.550   5.462   2.838  1.4717 -1.1721  0.6066
  455MOL0     H61423   9.673   5.671   2.481  0.2057  0.5087  0.6011
  455MOL0     H61424   8.962   5.385   2.567  0.0834  1.5815  1.3647
  455MOL0     H61425   8.732   5.301   2.541  1.8314 -0.1838 -1.0402
  456MOL0     O61426  10.583   6.656   3.982 -0.5210  0.1101 -0.1611
  456MOL0     C61427  10.704   6.646   3.977  0.1003  0.0951  0.6649
  456MOL0     O61428  10.786   6.623   4.086 -0.5317  0.0547 -1.0088
  456MOL0     C61429  10.736   6.630   4.213  0.7643  0.0278 -0.4378
  456MOL0     C61430  10.772   6.726   4.306  0.1934  0.5702  0.3063
  456MOL0     C61431  10.720   6.719   4.435 -0.2492 -0.3710 -0.3558
  456MOL0     C61432  10.628   6.632   4.480 -0.8301 -0.4530 -0.1742
  456MOL0     O61433  10.595   6.643   4.612 -0.0165 -0.5313  0.1016
  456MOL0     C61434  10.503   6.552   4.666  0.0831  0.4274 -0.4940
  456MOL0     C61435  10.573   6.415   4.686  0.3753 -0.6127 -0.0542
  456MOL0     C61436  10.488   6.344   4.791  0.1272  0.4522  0.8476
  456MOL0     C61437  10.505   6.188   4.758  0.1187  0.8638  0.4923
  456MOL0     C61438  10.417   6.106   4.854  0.1745  0.2608  0.5693
  456MOL0     C61439  10.417   5.959   4.819 -0.2987  0.3969  0.3819
  456MOL0     C61440  10.362   5.871   4.924  1.2026  0.3389  0.5531
  456MOL0     C61441  10.397   5.728   4.912 -0.4085  0.3557 -0.6126
  456MOL0     N61442  10.316   5.650   5.003 -0.1013  0.9875  0.0842
  456MOL0     C61443  10.178   5.637   5.002 -0.3664 -0.2767 -0.0525
  456MOL0     C61444  10.147   5.563   5.111 -1.1996 -0.0807 -0.5421
  456MOL0     C61445  10.002   5.536   5.151  0.1240 -1.0131 -0.8980
  456MOL0     C61446   9.976   5.387   5.188  0.6817 -0.0078  0.8677
  456MOL0     C61447   9.830   5.351   5.244 -0.2222 -0.3943 -0.4274
  456MOL0     C61448   9.793   5.199   5.244  0.1858  0.3306  0.0167
  456MOL0     O61449   9.651   5.184   5.248  0.3062  0.0191 -0.1717
  456MOL0     C61450   9.603   5.054   5.241  0.1586  0.3740  0.3509
  456MOL0     C61451   9.676   4.932   5.226  0.3430 -1.0700 -0.0479
  456MOL0     C61452   9.607   4.808   5.244 -0.1504  0.2498 -0.5016
  456MOL0     C61453   9.707   4.690   5.236  0.3860  0.7222 -0.2249
  456MOL0     C61454   9.461   4.802   5.274 -0.4165 -0.6085  0.2864
  456MOL0     C61455   9.387   4.676   5.302 -1.1978 -0.0788  0.1217
  456MOL0     O61456   9.246   4.682   5.314  0.0196  0.3252  0.1148
  456MOL0     C61457   9.172   4.565   5.316  0.3149 -0.3632 -0.1601
  456MOL0     C61458   9.061   4.551   5.394  0.1302 -0.0344  0.1458
  456MOL0     C61459   8.985   4.438   5.398 -0.5569 -0.3197  0.5487
  456MOL0     C61460   9.020   4.320   5.337 -0.2517  0.4545 -0.6410
  456MOL0     O61461   8.929   4.215   5.361  0.2105 -0.8964  0.0774
  456MOL0     C61462   8.927   4.114   5.261 -0.1624 -0.1379  1.3285
  456MOL0     C61463   8.814   4.019   5.280  0.4624  0.8689  0.7188
  456MOL0     C61464   8.676   4.087   5.276  0.4387  0.4536  0.0369
  456MOL0     C61465   8.558   3.982   5.294 -0.1634 -0.3523  0.1172
  456MOL0     C61466   8.425   4.049   5.308 -0.7395 -0.3103 -0.5094
  456MOL0     C61467   8.400   4.135   5.435 -1.0333  0.5747  0.0443
  456MOL0     C61468   8.379   4.036   5.552 -0.6431  0.6705  0.7370
  456MOL0     C61469   8.370   4.095   5.689  0.2174 -0.4534  0.1467
  456MOL0    Cl61470   8.232   4.217   5.708 -0.0248  0.3093 -0.1900
  456MOL0     C61471   9.133   4.327   5.257 -0.3408 -1.4129  0.3530
  456MOL0     C61472   9.209   4.445   5.249 -0.2210  0.9469 -0.0389
  456MOL0     O61473   9.459   4.578   5.324 -0.7960  0.5892 -0.8403
  456MOL0     C61474   9.391   4.925   5.267  0.4011  0.4226 -0.4291
  456MOL0     C61475   9.463   5.049   5.256 -0.0167  0.0047  0.7029
  456MOL0     N61476  10.267   5.538   5.180 -0.0311 -0.1692  0.2145
  456MOL0     N61477  10.369   5.579   5.107 -0.3925  0.3085 -0.2732
  456MOL0     C61478  10.592   6.533   4.388 -0.1361  0.1406  0.0176
  456MOL0     C61479  10.631   6.536   4.251  0.8121 -0.7439 -0.4878
  456MOL0     C61480  10.770   6.630   3.853 -0.0606 -0.6692  0.1799
  456MOL0     C61481  10.701   6.654   3.729  0.1978  0.3644 -0.0659
  456MOL0     C61482  10.758   6.628   3.607 -0.5227  0.1062  0.1316
  456MOL0     C61483  10.899   6.618   3.589  0.0753  1.3101  0.6942
  456MOL0     O61484  10.949   6.622   3.456  0.2537 -0.8134  0.2007
  456MOL0     C61485  11.091   6.635   3.431 -0.3333 -1.1908 -0.1775
  456MOL0     C61486  11.110   6.669   3.284  0.1015 -0.4604 -0.2238
  456MOL0     C61487  11.096   6.554   3.188 -0.1504 -0.6500 -1.0698
  456MOL0     C61488  11.091   6.580   3.040  0.5093  0.1139  0.6534
  456MOL0     C61489  10.963   6.646   3.001  0.4699 -0.5969  0.3548
  456MOL0     C61490  10.869   6.704   2.946  1.3705 -0.2615 -0.1192
  456MOL0     C61491  10.970   6.602   3.711  0.2585 -0.0316  0.1615
  456MOL0     C61492  10.903   6.595   3.835  0.1685  0.2218 -0.6518
  456MOL0     H61493  10.841   6.804   4.278  1.1688  0.4278  2.1730
  456MOL0     H61494  10.768   6.793   4.499 -0.5062  1.9239 -2.6470
  456MOL0     H61495  10.482   6.587   4.767  0.7472  0.3139 -0.3130
  456MOL0     H61496  10.406   6.556   4.616 -0.0971  2.9487 -0.0532
  456MOL0     H61497  10.578   6.358   4.593  0.9996 -0.4856 -0.1063
  456MOL0     H61498  10.673   6.427   4.728  0.5528 -0.2656 -0.5658
  456MOL0     H61499  10.522   6.369   4.892 -1.0217  2.5733  0.7665
  456MOL0     H61500  10.383   6.375   4.785  0.0984  0.7265  2.3957
  456MOL0     H61501  10.470   6.166   4.657 -0.2108 -2.2040  1.1766
  456MOL0     H61502  10.611   6.165   4.763 -0.3047 -1.5335 -0.3773
  456MOL0     H61503  10.462   6.107   4.954 -2.1543  2.4540  1.7174
  456MOL0     H61504  10.312   6.136   4.846  0.4055  0.5799 -1.8916
  456MOL0     H61505  10.355   5.946   4.729  2.1695 -1.0598 -1.2127
  456MOL0     H61506  10.520   5.929   4.802 -1.4779 -2.9564 -2.0572
  456MOL0     H61507  10.394   5.902   5.024 -1.3389 -0.2399  1.6259
  456MOL0     H61508  10.253   5.873   4.917  0.8861 -2.9815  2.5392
  456MOL0     H61509  10.504   5.711   4.924 -0.5054  1.1032  2.0802
  456MOL0     H61510  10.383   5.691   4.810  4.6964 -1.2629 -1.0179
  456MOL0     H61511  10.109   5.693   4.940 -0.4259 -0.1371  0.1400
  456MOL0     H61512   9.980   5.599   5.238 -0.9933  0.4826 -2.2217
  456MOL0     H61513   9.930   5.570   5.077  0.3250  1.5650 -0.0198
  456MOL0     H61514  10.051   5.345   5.256  0.4590 -2.3354 -0.2216
  456MOL0     H61515   9.975   5.336   5.090 -2.1902 -0.7382  1.1907
  456MOL0     H61516   9.753   5.399   5.183 -0.9364  0.8752  1.3563
  456MOL0     H61517   9.814   5.400   5.341  0.5492  0.2372 -0.6080
  456MOL0     H61518   9.837   5.138   5.324 -2.1564 -0.0089  1.1385
  456MOL0     H61519   9.828   5.153   5.151 -2.3948 -0.2532 -0.7333
  456MOL0     H61520   9.782   4.926   5.204  0.4666 -0.6277  0.4015
  456MOL0     H61521   9.656   4.609   5.182  2.5326  0.3902 -1.9060
  456MOL0     H61522   9.805   4.708   5.192 -0.4602  3.1645 -1.2700
  456MOL0     H61523   9.724   4.645   5.335 -0.0665 -1.9027 -1.2620
  456MOL0     H61524   9.025   4.629   5.460 -0.5876 -1.4424  1.4808
  456MOL0     H61525   8.893   4.438   5.457 -0.4148  1.0364  0.8080
  456MOL0     H61526   8.922   4.166   5.165 -0.1295  0.7063  1.7739
  456MOL0     H61527   9.010   4.043   5.265 -0.6096 -0.6834  1.0747
  456MOL0     H61528   8.821   3.932   5.213 -1.4322  0.1560  1.3864
  456MOL0     H61529   8.817   3.972   5.379  0.6172 -0.6872  0.0125
  456MOL0     H61530   8.674   4.154   5.190 -2.1328  2.4022  1.4503
  456MOL0     H61531   8.672   4.158   5.359 -0.9667  0.3543  0.0798
  456MOL0     H61532   8.550   3.902   5.220  0.9663 -2.0188  1.6717
  456MOL0     H61533   8.582   3.932   5.389  2.2092  0.8502  0.2391
  456MOL0     H61534   8.344   3.975   5.299 -0.0947 -1.0378 -0.4724
  456MOL0     H61535   8.419   4.124   5.229  3.7245  1.3338  0.4142
  456MOL0     H61536   8.482   4.202   5.462 -0.7441  0.2071  0.0836
  456MOL0     H61537   8.308   4.194   5.426  0.7521  4.1207  2.8595
  456MOL0     H61538   8.464   3.968   5.556 -3.2937 -2.9000  5.0533
  456MOL0     H61539   8.289   3.975   5.540  0.3761 -1.2046  2.0924
  456MOL0     H61540   8.464   4.139   5.723 -0.1476  0.0896  0.4819
  456MOL0     H61541   8.343   4.010   5.752 -1.8522 -0.2365 -0.3503
  456MOL0     H61542   9.159   4.231   5.213 -2.3496 -1.8713  0.0350
  456MOL0     H61543   9.293   4.456   5.180  0.5607  1.5731  0.9750
  456MOL0     H61544   9.287   4.940   5.292  0.3177  1.4674 -1.3411
  456MOL0     H61545   9.413   5.145   5.254  0.3471  0.2033  0.9560
  456MOL0     H61546  10.522   6.456   4.418  0.2276  0.3128  1.3759
  456MOL0     H61547  10.582   6.474   4.176 -0.5532  0.2388 -0.4305
  456MOL0     H61548  10.597   6.682   3.741 -0.4429 -1.1949 -1.5303
  456MOL0     H61549  10.697   6.642   3.518 -0.0318  3.5981  0.1952
  456MOL0     H61550  11.134   6.710   3.499  0.5827 -1.6934 -0.1802
  456MOL0     H61551  11.145   6.541   3.446  2.1505  0.3253  1.0983
  456MOL0     H61552  11.210   6.712   3.275 -0.0803 -0.0233 -0.2209
  456MOL0     H61553  11.037   6.750   3.270 -1.9506 -1.8923  1.5192
  456MOL0     H61554  11.002   6.505   3.216 -0.0785  0.2776  0.9393
  456MOL0     H61555  11.174   6.481   3.210  1.1636  1.2616  0.8653
  456MOL0     H61556  11.094   6.485   2.986  2.0040  1.0648 -1.0558
  456MOL0     H61557  11.176   6.643   3.012  2.2543 -1.4005  2.3351
  456MOL0     H61558  10.797   6.772   2.908  0.0141 -0.0140  2.6103
  456MOL0     H61559  11.076   6.582   3.699  0.2855 -0.8456  1.5028
  456MOL0     H61560  10.962   6.572   3.923  2.8143  0.9200 -2.1204
  457MOL0     O61561   8.195   1.000   2.509  0.3086 -0.5156 -0.3380
  457MOL0     C61562   8.182   1.099   2.580  0.1198 -0.9494 -0.4067
  457MOL0     O61563   8.082   1.131   2.660 -0.4756 -0.4420  0.6209
  457MOL0     C61564   7.975   1.043   2.668  0.2108 -0.6812  0.1597
  457MOL0     C61565   7.938   0.983   2.791 -0.1458  0.2334  0.4900
  457MOL0     C61566   7.820   0.904   2.806 -1.0249  0.2686 -0.0724
  457MOL0     C61567   7.738   0.890   2.687 -0.4423  0.7530 -0.9946
  457MOL0     O61568   7.637   0.801   2.703  0.8687  0.2563 -0.2268
  457MOL0     C61569   7.527   0.796   2.611 -0.8182  0.4007 -0.3278
  457MOL0     C61570   7.429   0.710   2.679  0.5610  0.1110 -0.9819
  457MOL0     C61571   7.307   0.676   2.584  0.0433  0.3787 -0.5271
  457MOL0     C61572   7.348   0.620   2.447 -0.3352 -0.9633  0.0104
  457MOL0     C61573   7.247   0.518   2.399  0.4946  0.5601  0.4326
  457MOL0     C61574   7.235   0.398   2.494  0.5553 -0.1609  0.7690
  457MOL0     C61575   7.373   0.323   2.523  0.5984 -0.6951 -0.5545
  457MOL0     C61576   7.372   0.217   2.643 -0.7418 -0.5943 -0.1414
  457MOL0     N61577   7.232   0.184   2.678 -0.2348 -0.5330  0.1500
  457MOL0     C61578   7.144   0.115   2.603 -0.2766  0.0976  0.1186
  457MOL0     C61579   7.029   0.109   2.672 -0.3961  0.0127  0.2368
  457MOL0     C61580   6.899   0.056   2.616 -0.2007  0.7840  0.7051
  457MOL0     C61581   6.782   0.124   2.688  0.1860  0.1940 -0.1118
  457MOL0     C61582   6.744   0.261   2.637 -0.6770  0.4382  0.5181
  457MOL0     C61583   6.612   0.321   2.697  0.2833 -0.6912  0.6254
  457MOL0     O61584   6.496   0.221   2.693 -0.3216  0.0945 -1.1784
  457MOL0     C61585   6.414   0.219   2.577 -0.0447  0.7897 -0.7275
  457MOL0     C61586   6.434   0.309   2.472  0.4649 -0.5090 -0.7493
  457MOL0     C61587   6.356   0.303   2.352  0.3557 -0.5168 -0.8611
  457MOL0     C61588   6.367   0.413   2.249 -0.1127  1.0081  0.3058
  457MOL0     C61589   6.248   0.204   2.349 -0.1926  0.2117  1.0892
  457MOL0     C61590   6.164   0.179   2.233 -0.0269 -0.2030 -0.0182
  457MOL0     O61591   6.102   0.066   2.226 -0.6391  0.4486 -0.0301
  457MOL0     C61592   5.991   0.052   2.150  0.3527 -0.0481  0.1574
  457MOL0     C61593   5.869   0.015   2.204  0.5028  0.5976  0.2133
  457MOL0     C61594   5.755  -0.006   2.124 -1.6642  0.1788  0.5621
  457MOL0     C61595   5.774   0.010   1.984 -0.0057  0.4273  0.4235
  457MOL0     O61596   5.665  -0.020   1.898 -0.5056  0.6301 -0.0632
  457MOL0     C61597   5.535  -0.017   1.955 -0.6740 -0.2176  0.6323
  457MOL0     C61598   5.456  -0.028   1.828 -0.3089  0.1734  0.7332
  457MOL0     C61599   5.304  -0.030   1.859 -0.5897 -0.1596 -0.1199
  457MOL0     C61600   5.265  -0.131   1.968  0.8609 -0.3269 -0.0178
  457MOL0     C61601   5.114  -0.143   1.980 -0.2144 -0.1089 -0.0711
  457MOL0     C61602   5.089  -0.248   2.103  0.0002 -0.7087  0.4610
  457MOL0     C61603   4.941  -0.279   2.140  0.0428  0.3350  0.2365
  457MOL0     C61604   4.939  -0.382   2.245 -0.4620  1.3796  0.0673
  457MOL0    Cl61605   4.768  -0.404   2.278 -0.0830  0.0722  0.2634
  457MOL0     C61606   5.897   0.039   1.927 -0.2986 -1.2457 -0.1912
  457MOL0     C61607   5.996   0.078   2.015 -0.8333  0.1865 -0.7571
  457MOL0     O61608   6.157   0.265   2.150  0.4798  0.3196  0.1756
  457MOL0     C61609   6.229   0.119   2.456 -0.1589  0.0586  0.5804
  457MOL0     C61610   6.311   0.129   2.563 -0.6220  0.9764 -1.0598
  457MOL0     N61611   7.052   0.183   2.788 -1.1073  0.7939 -0.2736
  457MOL0     N61612   7.173   0.231   2.791 -0.3975 -0.1029  0.6402
  457MOL0     C61613   7.778   0.958   2.569 -0.1347 -0.2040 -0.4430
  457MOL0     C61614   7.887   1.039   2.566 -0.0513 -0.7830 -0.5587
  457MOL0     C61615   8.288   1.204   2.570  0.4391 -0.3633  0.2556
  457MOL0     C61616   8.324   1.273   2.685  0.6862  0.4051  0.1907
  457MOL0     C61617   8.431   1.357   2.701  1.2407 -0.4731  0.9639
  457MOL0     C61618   8.515   1.384   2.594 -0.6904 -0.4895  0.4315
  457MOL0     O61619   8.630   1.458   2.615 -0.5710 -0.7370  0.3967
  457MOL0     C61620   8.679   1.547   2.514 -0.7123 -0.3112 -0.0676
  457MOL0     C61621   8.778   1.496   2.401 -0.2479  1.0548  0.3814
  457MOL0     C61622   8.902   1.426   2.450 -0.0674  0.6873 -0.3928
  457MOL0     C61623   8.950   1.328   2.340  0.1534  1.4687  0.3120
  457MOL0     C61624   9.019   1.404   2.234 -0.1167  0.4569  0.2448
  457MOL0     C61625   9.068   1.463   2.141  0.0915  0.0975 -0.1498
  457MOL0     C61626   8.478   1.327   2.467  0.6848 -0.9370 -0.2067
  457MOL0     C61627   8.363   1.240   2.451  0.2515 -0.3384  0.3231
  457MOL0     H61628   7.996   0.992   2.882 -0.5352 -0.7298  0.8367
  457MOL0     H61629   7.801   0.851   2.899  3.0942  1.0546  1.4553
  457MOL0     H61630   7.485   0.895   2.591  2.1520  1.1963 -3.8288
  457MOL0     H61631   7.572   0.758   2.518 -2.0600  2.1453 -1.7106
  457MOL0     H61632   7.477   0.615   2.706  4.4956  2.3242  0.5666
  457MOL0     H61633   7.397   0.749   2.776  3.1441 -0.7793  0.3213
  457MOL0     H61634   7.233   0.614   2.635 -2.7038  0.9094 -3.5407
  457MOL0     H61635   7.253   0.769   2.563  0.5151  0.3147 -2.1675
  457MOL0     H61636   7.354   0.694   2.366 -0.9637  0.1800  0.9810
  457MOL0     H61637   7.443   0.568   2.436  0.7167  0.8561  0.0609
  457MOL0     H61638   7.146   0.557   2.384  0.9286  0.7452 -2.4127
  457MOL0     H61639   7.281   0.488   2.300 -0.6151 -0.2974  0.2991
  457MOL0     H61640   7.178   0.425   2.583 -0.9617 -0.1704 -0.1618
  457MOL0     H61641   7.174   0.324   2.442 -1.2121  2.5678 -1.2510
  457MOL0     H61642   7.429   0.281   2.438  3.3821 -0.6713  1.1424
  457MOL0     H61643   7.448   0.397   2.553  0.0714 -0.5887  0.5318
  457MOL0     H61644   7.426   0.257   2.729  1.4685 -1.6999 -0.9301
  457MOL0     H61645   7.423   0.125   2.614 -1.8844 -1.0602 -0.7039
  457MOL0     H61646   7.168   0.067   2.509  1.6161 -2.1701  1.6415
  457MOL0     H61647   6.895   0.071   2.508 -1.8359  0.0388  0.6398
  457MOL0     H61648   6.896  -0.052   2.633  0.1011  1.0648  2.8853
  457MOL0     H61649   6.814   0.141   2.791  1.7903 -1.7087 -0.2253
  457MOL0     H61650   6.696   0.058   2.675  1.1232 -1.1339  0.2019
  457MOL0     H61651   6.725   0.242   2.531 -1.3677  2.2506  0.2834
  457MOL0     H61652   6.827   0.332   2.644 -1.2537  1.3380 -1.1564
  457MOL0     H61653   6.593   0.422   2.661  1.3712 -0.2451  1.2657
  457MOL0     H61654   6.630   0.347   2.802 -4.3642  3.3443  0.7649
  457MOL0     H61655   6.492   0.398   2.495  1.4240 -1.8570  2.4187
  457MOL0     H61656   6.274   0.468   2.232  1.1909  3.5602  0.9635
  457MOL0     H61657   6.436   0.486   2.292  0.6884  1.4741 -1.6701
  457MOL0     H61658   6.413   0.381   2.155 -0.7165 -1.0518  0.6618
  457MOL0     H61659   5.868  -0.021   2.306  2.7443 -1.1639 -0.2982
  457MOL0     H61660   5.662  -0.035   2.172 -1.8566  1.4514  1.0012
  457MOL0     H61661   5.507  -0.106   2.012 -1.4783 -0.7999 -0.6140
  457MOL0     H61662   5.522   0.081   2.001  0.0586 -0.1107  0.6186
  457MOL0     H61663   5.486   0.056   1.766 -1.0425 -1.1622 -1.5591
  457MOL0     H61664   5.489  -0.115   1.770  0.7203  1.0407 -0.0076
  457MOL0     H61665   5.254  -0.054   1.764 -0.7702 -3.9331  0.7680
  457MOL0     H61666   5.259   0.062   1.896 -1.1091 -0.7706  0.8137
  457MOL0     H61667   5.320  -0.221   1.941  1.2116 -0.7583  2.0312
  457MOL0     H61668   5.294  -0.093   2.066 -2.5813  0.4072  0.8550
  457MOL0     H61669   5.076  -0.182   1.885 -2.2013 -2.6439  1.6034
  457MOL0     H61670   5.071  -0.044   1.995  2.4756  1.1146 -0.0112
  457MOL0     H61671   5.135  -0.343   2.073  0.6399 -0.4986  0.7518
  457MOL0     H61672   5.138  -0.206   2.192  0.2319 -1.4217  0.6787
  457MOL0     H61673   4.884  -0.313   2.053  0.3666 -2.0565  0.9087
  457MOL0     H61674   4.884  -0.190   2.168 -0.4883  0.2136 -0.4198
  457MOL0     H61675   4.979  -0.343   2.339 -1.2309  0.3412  0.8543
  457MOL0     H61676   4.986  -0.477   2.216 -3.4810 -0.0280 -0.6435
  457MOL0     H61677   5.919   0.041   1.821  0.4297 -2.7973 -0.0967
  457MOL0     H61678   6.092   0.112   1.979 -0.0833 -2.5046 -1.5282
  457MOL0     H61679   6.153   0.042   2.464  1.1464 -1.2288  1.1710
  457MOL0     H61680   6.277   0.073   2.650 -1.2773  3.5629  0.4566
  457MOL0     H61681   7.727   0.935   2.477 -0.7606  1.2742 -0.5036
  457MOL0     H61682   7.895   1.102   2.478  0.6301  0.0368  0.0739
  457MOL0     H61683   8.282   1.257   2.783  4.2085  0.0356  1.7823
  457MOL0     H61684   8.461   1.402   2.795 -0.2612  1.0387  0.7708
  457MOL0     H61685   8.586   1.582   2.468  0.0380  0.5715 -0.9547
  457MOL0     H61686   8.721   1.631   2.571 -1.7954 -0.6211  1.2467
  457MOL0     H61687   8.809   1.582   2.342 -0.1120 -0.5406 -2.0056
  457MOL0     H61688   8.725   1.425   2.336  3.4484  0.2847 -2.0776
  457MOL0     H61689   8.886   1.388   2.551 -1.2040  1.1984 -0.3610
  457MOL0     H61690   8.984   1.498   2.459 -0.8657  1.5845 -0.1254
  457MOL0     H61691   8.872   1.257   2.310  1.3580  0.4881 -0.6403
  457MOL0     H61692   9.026   1.257   2.373 -0.1485  0.7941 -0.4067
  457MOL0     H61693   9.110   1.529   2.068 -1.8427  0.0880 -1.3586
  457MOL0     H61694   8.546   1.345   2.385  0.0391 -0.3974 -0.6238
  457MOL0     H61695   8.346   1.180   2.362 -0.9044  1.0652 -0.4606
  458MOL0     O61696   6.089   1.337   8.989  0.3739 -0.7085  0.0347
  458MOL0     C61697   6.118   1.452   8.941 -0.6492 -0.7961 -0.2250
  458MOL0     O61698   6.025   1.550   8.892 -0.3854 -0.2152 -0.1852
  458MOL0     C61699   5.889   1.525   8.881 -0.6403  0.3616 -0.5708
  458MOL0     C61700   5.803   1.425   8.938  1.2213 -0.3232 -0.7633
  458MOL0     C61701   5.663   1.430   8.928 -0.6751  0.1032 -0.4516
  458MOL0     C61702   5.603   1.525   8.850  0.5812 -0.4473 -0.1065
  458MOL0     O61703   5.465   1.518   8.854  0.3628 -0.0390  0.3809
  458MOL0     C61704   5.394   1.624   8.784  0.1392 -0.1653  0.0677
  458MOL0     C61705   5.245   1.586   8.796 -0.5801 -0.4920  0.5658
  458MOL0     C61706   5.156   1.657   8.686 -0.6853  0.3305  1.0883
  458MOL0     C61707   5.013   1.630   8.718  0.4667 -0.2220  0.1536
  458MOL0     C61708   4.936   1.717   8.621 -0.0048  0.4643  0.2316
  458MOL0     C61709   4.790   1.717   8.651 -0.3377  1.0706 -0.7266
  458MOL0     C61710   4.718   1.575   8.645 -0.3435  0.2543 -0.1729
  458MOL0     C61711   4.563   1.586   8.633 -0.3914  0.0306 -0.7873
  458MOL0     N61712   4.499   1.651   8.746 -0.1796  0.1463  0.0757
  458MOL0     C61713   4.451   1.594   8.861 -1.0549  0.5038 -0.5073
  458MOL0     C61714   4.371   1.690   8.910 -0.2143  0.0200  0.4814
  458MOL0     C61715   4.274   1.675   9.020 -0.1355  0.5182 -0.0950
  458MOL0     C61716   4.130   1.648   8.971 -0.2583  0.2710 -1.1825
  458MOL0     C61717   4.084   1.745   8.859  0.1641  0.4663 -0.0873
  458MOL0     C61718   3.934   1.765   8.862  0.5187  0.7022  0.4431
  458MOL0     O61719   3.871   1.646   8.817  0.0729 -0.2450 -0.3038
  458MOL0     C61720   3.746   1.674   8.757 -1.0102  0.6714 -0.4969
  458MOL0     C61721   3.662   1.778   8.782 -0.8165 -0.1280  0.3089
  458MOL0     C61722   3.542   1.791   8.716  0.3164 -0.5936 -0.3215
  458MOL0     C61723   3.470   1.923   8.734 -0.4493 -0.2051 -1.1699
  458MOL0     C61724   3.494   1.688   8.625  0.6598 -0.8242  0.5124
  458MOL0     C61725   3.354   1.679   8.581 -0.1492  0.6400 -0.7787
  458MOL0     O61726   3.260   1.726   8.665  0.1070  0.2897  0.1785
  458MOL0     C61727   3.136   1.761   8.605  0.7957  0.0742  0.2540
  458MOL0     C61728   3.022   1.742   8.673  0.4034 -0.6303  0.2729
  458MOL0     C61729   2.899   1.800   8.637  0.6737 -0.1930 -0.4714
  458MOL0     C61730   2.892   1.889   8.530 -0.3603  0.2803 -0.7795
  458MOL0     O61731   2.771   1.955   8.517  0.5210  0.2314 -0.1221
  458MOL0     C61732   2.749   1.996   8.388  0.2433  0.1737 -0.1481
  458MOL0     C61733   2.605   2.072   8.381 -0.3449  0.3521 -0.2855
  458MOL0     C61734   2.495   1.981   8.358 -0.1936  0.3811  0.0407
  458MOL0     C61735   2.370   2.058   8.306 -0.7064  0.8823 -1.2497
  458MOL0     C61736   2.272   1.951   8.246  0.3438 -0.2585 -0.3213
  458MOL0     C61737   2.146   2.010   8.177  0.1787  0.2932  0.3965
  458MOL0     C61738   2.055   2.069   8.281 -0.1176  0.5174  0.1134
  458MOL0     C61739   1.908   2.097   8.236 -0.5935  0.3276 -0.3320
  458MOL0    Cl61740   1.915   2.221   8.101 -0.1202  0.4022 -0.2107
  458MOL0     C61741   3.012   1.917   8.451 -0.8474  0.9533  0.4784
  458MOL0     C61742   3.127   1.842   8.484  0.0496  0.5008 -0.2087
  458MOL0     O61743   3.337   1.630   8.474  0.6442 -0.0528  0.3555
  458MOL0     C61744   3.583   1.582   8.608 -0.2167  0.3115 -0.0927
  458MOL0     C61745   3.710   1.574   8.665  0.1954 -1.1873  0.3941
  458MOL0     N61746   4.380   1.801   8.827  0.1897 -0.4511  0.2715
  458MOL0     N61747   4.473   1.784   8.741 -0.0753  1.0711 -0.2046
  458MOL0     C61748   5.683   1.625   8.783 -0.9443  0.5173  0.5307
  458MOL0     C61749   5.827   1.621   8.798  0.4307  0.0196 -0.8571
  458MOL0     C61750   6.270   1.468   8.937 -0.5495 -1.0314 -0.3130
  458MOL0     C61751   6.325   1.590   8.893  0.8492  1.0189 -0.9709
  458MOL0     C61752   6.465   1.607   8.881 -0.0584  0.2475  0.2337
  458MOL0     C61753   6.554   1.509   8.912 -0.5133 -0.4587 -0.2175
  458MOL0     O61754   6.689   1.534   8.923  0.1503 -0.2055  0.3032
  458MOL0     C61755   6.791   1.441   8.876  0.1926 -0.0927 -0.3061
  458MOL0     C61756   6.915   1.509   8.815  0.7191 -0.6846 -0.2574
  458MOL0     C61757   6.869   1.617   8.712 -0.2976 -0.2827 -0.3335
  458MOL0     C61758   6.988   1.669   8.636 -1.1849 -0.1310 -0.3888
  458MOL0     C61759   7.088   1.740   8.721  0.8717  0.7063  0.3891
  458MOL0     C61760   7.168   1.794   8.788 -0.5905 -0.9518  0.2630
  458MOL0     C61761   6.497   1.385   8.944  0.1208 -0.7885  0.8905
  458MOL0     C61762   6.362   1.367   8.968  1.3937 -0.7494 -0.8441
  458MOL0     H61763   5.849   1.355   9.006 -0.0646  0.1474  0.6453
  458MOL0     H61764   5.611   1.355   8.987  1.7073  0.1620  1.9197
  458MOL0     H61765   5.412   1.723   8.829 -0.8260  0.4247 -0.7970
  458MOL0     H61766   5.428   1.618   8.681 -2.1102 -1.3373 -0.6691
  458MOL0     H61767   5.236   1.477   8.791  1.8673 -0.8340  1.8763
  458MOL0     H61768   5.216   1.604   8.900  2.0802  1.4632  1.0929
  458MOL0     H61769   5.177   1.764   8.687  1.0121  0.0318  0.5375
  458MOL0     H61770   5.178   1.627   8.584 -1.8524  1.5175  0.4627
  458MOL0     H61771   4.988   1.523   8.715  1.1889 -0.5166  2.4607
  458MOL0     H61772   4.991   1.661   8.821  2.1429 -0.9216  0.7484
  458MOL0     H61773   4.977   1.818   8.619 -1.4060  1.2471  3.8289
  458MOL0     H61774   4.956   1.677   8.521  0.4471  1.5627 -0.1254
  458MOL0     H61775   4.775   1.738   8.757  2.3066 -2.3405  0.5114
  458MOL0     H61776   4.725   1.782   8.591 -2.0273  0.3430  0.2202
  458MOL0     H61777   4.756   1.515   8.561  1.0979  1.7885 -0.6713
  458MOL0     H61778   4.749   1.511   8.728  0.2688  2.4012  1.3518
  458MOL0     H61779   4.521   1.486   8.621  2.0695 -1.0123 -1.3522
  458MOL0     H61780   4.545   1.647   8.544 -3.1385  0.2532 -0.1616
  458MOL0     H61781   4.476   1.493   8.892  0.4600  0.9035 -0.3604
  458MOL0     H61782   4.311   1.603   9.092  3.7537  4.1160  1.9787
  458MOL0     H61783   4.284   1.771   9.071 -0.0599 -0.2087  1.2876
  458MOL0     H61784   4.067   1.672   9.057 -0.2113 -1.1566 -0.7112
  458MOL0     H61785   4.116   1.540   8.959 -0.1721  0.0474  0.4679
  458MOL0     H61786   4.104   1.704   8.760 -2.1086 -1.6883  0.2456
  458MOL0     H61787   4.123   1.843   8.890 -1.7308  1.0882  0.4480
  458MOL0     H61788   3.912   1.838   8.783  0.2335 -0.7271 -0.8533
  458MOL0     H61789   3.901   1.798   8.961 -1.9335 -0.2511  0.0064
  458MOL0     H61790   3.698   1.863   8.839 -0.1584  0.5108 -1.0188
  458MOL0     H61791   3.399   1.952   8.656  0.6085 -3.0564 -3.3855
  458MOL0     H61792   3.422   1.914   8.832  0.3986  0.3148 -0.6877
  458MOL0     H61793   3.543   2.004   8.742  0.6620 -1.1886 -0.9159
  458MOL0     H61794   3.029   1.688   8.767 -0.0852  1.6279  1.6869
  458MOL0     H61795   2.810   1.782   8.697  1.3556  0.9802  0.9655
  458MOL0     H61796   2.824   2.071   8.360 -0.4380  0.3548 -1.5748
  458MOL0     H61797   2.753   1.917   8.312  0.1506  0.2511 -0.2351
  458MOL0     H61798   2.592   2.134   8.469  1.8874 -2.8340  2.5626
  458MOL0     H61799   2.607   2.136   8.292 -0.1121 -1.4058 -1.6082
  458MOL0     H61800   2.468   1.933   8.453  2.1477  0.0342  0.5949
  458MOL0     H61801   2.519   1.896   8.294 -0.5134  0.1757  0.1908
  458MOL0     H61802   2.312   2.117   8.377  1.6590 -0.3104  1.9200
  458MOL0     H61803   2.401   2.130   8.229  1.2775  0.0693 -1.2850
  458MOL0     H61804   2.242   1.878   8.321 -0.3314  0.8768  0.5465
  458MOL0     H61805   2.318   1.890   8.167 -2.5440 -0.4526 -2.0123
  458MOL0     H61806   2.158   2.077   8.092 -0.5545 -2.6126 -2.1758
  458MOL0     H61807   2.082   1.927   8.145 -1.2118  0.3312  2.8134
  458MOL0     H61808   2.102   2.165   8.307  2.4035 -0.7365  0.4875
  458MOL0     H61809   2.046   2.009   8.371 -1.8731  1.5233  0.6614
  458MOL0     H61810   1.854   2.142   8.320 -0.9233 -1.5250  0.5087
  458MOL0     H61811   1.854   2.005   8.212  1.1798 -0.5490 -1.1311
  458MOL0     H61812   3.021   1.976   8.361 -1.4604 -0.2878 -0.4325
  458MOL0     H61813   3.216   1.852   8.423  0.5120 -0.2454  0.3220
  458MOL0     H61814   3.536   1.503   8.551 -0.1635  0.0634  0.2064
  458MOL0     H61815   3.772   1.488   8.640 -0.7253 -1.9246  0.6152
  458MOL0     H61816   5.647   1.702   8.716  0.3324  1.3407  0.7826
  458MOL0     H61817   5.895   1.676   8.734 -0.7304  1.6999 -0.7066
  458MOL0     H61818   6.261   1.673   8.868  3.2113  2.7181 -1.6630
  458MOL0     H61819   6.494   1.709   8.859 -0.0830  0.0016 -0.9772
  458MOL0     H61820   6.837   1.382   8.955 -0.2157  2.5939  2.1186
  458MOL0     H61821   6.743   1.372   8.807 -1.4668  2.8402 -2.3401
  458MOL0     H61822   6.975   1.429   8.770 -0.1285 -0.9021 -1.0245
  458MOL0     H61823   6.982   1.559   8.886  1.2931  0.3048 -1.4593
  458MOL0     H61824   6.793   1.684   8.753 -1.2784 -1.4075 -0.2611
  458MOL0     H61825   6.806   1.567   8.638  0.0951  1.7902 -2.1481
  458MOL0     H61826   6.967   1.755   8.572  2.4754  0.0646 -1.5560
  458MOL0     H61827   7.040   1.593   8.579  2.2372  2.1611 -0.5978
  458MOL0     H61828   7.258   1.830   8.834 -1.7025  3.3199 -0.4946
  458MOL0     H61829   6.567   1.308   8.975 -1.2138 -3.7709 -2.6393
  458MOL0     H61830   6.339   1.269   9.009  3.6320 -0.2994  1.7781
  459MOL0     O61831   9.913   7.633   4.843 -0.3597 -0.2575 -0.2146
  459MOL0     C61832   9.945   7.515   4.830  0.1182 -0.7186 -0.1338
  459MOL0     O61833   9.862   7.413   4.830 -0.3192 -0.0289 -0.5595
  459MOL0     C61834   9.726   7.430   4.836 -0.6078 -0.3464  0.9673
  459MOL0     C61835   9.655   7.548   4.880  0.0402 -0.7488 -0.1983
  459MOL0     C61836   9.511   7.546   4.877 -0.4637  0.0670  0.5617
  459MOL0     C61837   9.434   7.433   4.843 -0.5438 -0.0256 -0.0224
  459MOL0     O61838   9.299   7.439   4.831  0.0008  0.1955 -0.5142
  459MOL0     C61839   9.222   7.325   4.868 -0.2573 -0.1190 -0.2128
  459MOL0     C61840   9.217   7.218   4.761  0.3269  0.0432  0.1781
  459MOL0     C61841   9.076   7.182   4.720  0.2711  0.2846  0.1090
  459MOL0     C61842   9.025   7.298   4.636 -0.7239 -0.0291  0.8270
  459MOL0     C61843   8.892   7.252   4.584  0.1005 -0.7483  0.0471
  459MOL0     C61844   8.836   7.332   4.463 -0.7340 -0.3718 -0.2401
  459MOL0     C61845   8.697   7.269   4.429  0.9383  0.0638  0.9424
  459MOL0     C61846   8.597   7.389   4.406  0.4516  1.0460 -0.4522
  459MOL0     N61847   8.466   7.331   4.403 -0.0953  0.8985  0.7407
  459MOL0     C61848   8.431   7.231   4.308  0.2447 -0.5296 -0.2091
  459MOL0     C61849   8.300   7.206   4.323  0.1106 -0.9559 -0.3483
  459MOL0     C61850   8.227   7.098   4.256  0.0159  0.6628 -0.8113
  459MOL0     C61851   8.079   7.106   4.257  0.8978 -0.6122 -0.7095
  459MOL0     C61852   8.015   7.117   4.392 -0.5593  0.3048 -0.7901
  459MOL0     C61853   7.929   7.000   4.421 -0.6648  0.6130 -0.0443
  459MOL0     O61854   7.844   7.020   4.529 -0.1408 -0.1132 -0.1577
  459MOL0     C61855   7.729   6.944   4.537 -0.1485 -0.5100  0.1468
  459MOL0     C61856   7.704   6.817   4.489  0.3024 -0.5198 -0.9361
  459MOL0     C61857   7.575   6.755   4.503 -1.4623 -0.1929  0.8175
  459MOL0     C61858   7.544   6.629   4.441 -0.9765 -0.5705  0.5084
  459MOL0     C61859   7.481   6.824   4.592 -0.5720 -0.2064 -0.4451
  459MOL0     C61860   7.356   6.759   4.643  0.2929 -0.6519 -0.3509
  459MOL0     O61861   7.250   6.845   4.667 -0.0124  0.0104 -0.1699
  459MOL0     C61862   7.133   6.783   4.698 -0.5503 -0.1217  0.2846
  459MOL0     C61863   7.033   6.808   4.609  0.6526 -0.1830 -0.0836
  459MOL0     C61864   6.905   6.758   4.637 -0.2151 -0.2285  0.4450
  459MOL0     C61865   6.873   6.708   4.762  0.3363  0.3992  0.1957
  459MOL0     O61866   6.762   6.635   4.785 -0.1930  0.3068  0.0759
  459MOL0     C61867   6.714   6.649   4.922  0.8471 -0.6747 -0.3087
  459MOL0     C61868   6.564   6.611   4.927 -0.3233  0.2164 -0.0317
  459MOL0     C61869   6.503   6.654   5.064 -0.2108 -0.5630  0.3861
  459MOL0     C61870   6.342   6.644   5.064 -0.2979  0.2669  0.8496
  459MOL0     C61871   6.285   6.668   5.203  0.0123 -0.1238 -0.5218
  459MOL0     C61872   6.136   6.674   5.193  1.1116 -0.9507  0.2805
  459MOL0     C61873   6.067   6.541   5.203 -0.2799  0.1015 -0.2147
  459MOL0     C61874   5.924   6.533   5.165 -0.0149  0.0998 -0.8583
  459MOL0    Cl61875   5.909   6.538   4.989  0.3533 -0.0401 -0.0029
  459MOL0     C61876   6.975   6.696   4.857 -0.2429 -0.0350  0.4262
  459MOL0     C61877   7.109   6.726   4.820 -0.9322 -0.3152  0.1955
  459MOL0     O61878   7.354   6.641   4.674 -0.1559  0.0565 -0.6728
  459MOL0     C61879   7.511   6.951   4.643 -0.0550 -0.4517  0.0371
  459MOL0     C61880   7.634   7.006   4.620 -0.5402  0.6591  0.3627
  459MOL0     N61881   8.254   7.297   4.423  0.2681  0.1830  0.0483
  459MOL0     N61882   8.356   7.364   4.470 -0.2539  0.0939  0.3552
  459MOL0     C61883   9.506   7.318   4.808 -0.5448  0.1019 -0.7489
  459MOL0     C61884   9.642   7.324   4.799 -0.0943  0.5105  0.0305
  459MOL0     C61885  10.092   7.485   4.851 -1.3045 -0.2310 -0.1047
  459MOL0     C61886  10.161   7.392   4.778 -0.0206  0.6278 -0.2665
  459MOL0     C61887  10.299   7.372   4.807 -0.4923  0.2672  0.9435
  459MOL0     C61888  10.375   7.449   4.897  0.0635  0.2767  0.0468
  459MOL0     O61889  10.507   7.415   4.916 -0.6202 -0.4162  0.1931
  459MOL0     C61890  10.601   7.514   4.961 -0.3930 -0.6965  1.5415
  459MOL0     C61891  10.739   7.474   4.931 -0.4317 -0.6170 -0.2356
  459MOL0     C61892  10.823   7.604   4.946  0.0968  0.1271 -0.8987
  459MOL0     C61893  10.968   7.575   4.980  0.0847  0.2897  0.0967
  459MOL0     C61894  11.050   7.619   4.869  0.0597 -0.9056 -0.6308
  459MOL0     C61895  11.110   7.684   4.786 -0.2844  0.0487 -0.5813
  459MOL0     C61896  10.302   7.551   4.960  0.4177  0.2064  0.2810
  459MOL0     C61897  10.160   7.563   4.949 -0.0304 -0.0147  0.8278
  459MOL0     H61898   9.690   7.643   4.919 -5.7697  0.5534  3.1238
  459MOL0     H61899   9.449   7.631   4.904  0.6187  1.6122 -1.5495
  459MOL0     H61900   9.246   7.279   4.964  0.7850 -0.7989 -0.7880
  459MOL0     H61901   9.120   7.363   4.878  0.1131  1.1678 -1.0273
  459MOL0     H61902   9.266   7.257   4.671 -0.8568 -2.5504 -1.7087
  459MOL0     H61903   9.266   7.130   4.803  2.1960  0.3338 -1.2571
  459MOL0     H61904   9.069   7.098   4.650  0.9429 -0.9956  1.5346
  459MOL0     H61905   9.008   7.174   4.806  1.6489  3.9405  1.7137
  459MOL0     H61906   9.007   7.390   4.694  0.4606  1.0034 -0.3833
  459MOL0     H61907   9.088   7.316   4.549 -0.8064 -1.8634  0.3453
  459MOL0     H61908   8.889   7.147   4.554 -5.3567 -1.3076  1.4039
  459MOL0     H61909   8.826   7.260   4.671  0.8226  1.0112  0.4925
  459MOL0     H61910   8.830   7.440   4.479  0.0008 -0.3400 -0.1458
  459MOL0     H61911   8.901   7.308   4.378  1.0518 -0.1495  1.0140
  459MOL0     H61912   8.706   7.203   4.342 -0.9338 -1.5863  1.9251
  459MOL0     H61913   8.655   7.212   4.512 -0.6369 -1.0661 -0.5658
  459MOL0     H61914   8.609   7.444   4.312 -1.0057 -0.0578 -1.3272
  459MOL0     H61915   8.604   7.463   4.486 -0.9300  2.3103 -1.4509
  459MOL0     H61916   8.495   7.161   4.256  1.0544 -1.3661  1.8068
  459MOL0     H61917   8.243   7.095   4.148  3.5007  2.7014 -0.4984
  459MOL0     H61918   8.266   7.000   4.284 -0.9425  0.7775  1.0258
  459MOL0     H61919   8.026   7.025   4.206  1.1858 -0.4972 -1.2004
  459MOL0     H61920   8.049   7.191   4.194 -3.2506 -1.7561 -0.6038
  459MOL0     H61921   7.954   7.207   4.404  0.5737  1.5977 -3.6709
  459MOL0     H61922   8.092   7.126   4.469 -1.8345  0.0643  0.5600
  459MOL0     H61923   7.992   6.916   4.451  0.1186  2.0940  2.8814
  459MOL0     H61924   7.868   6.974   4.334 -1.2053  0.6587  0.3173
  459MOL0     H61925   7.775   6.765   4.425  0.6929 -0.5861 -0.4543
  459MOL0     H61926   7.450   6.651   4.389  0.7103  3.6474 -1.1840
  459MOL0     H61927   7.622   6.600   4.370 -0.8451  0.1553  0.3471
  459MOL0     H61928   7.520   6.545   4.507 -1.6549 -1.2907 -0.6044
  459MOL0     H61929   7.063   6.842   4.510 -1.0273 -0.4670 -0.7273
  459MOL0     H61930   6.829   6.768   4.560 -0.7963  0.0441  1.0427
  459MOL0     H61931   6.764   6.571   4.982 -1.1247 -1.5599  0.2486
  459MOL0     H61932   6.735   6.749   4.959  0.4322 -0.1821 -1.3844
  459MOL0     H61933   6.519   6.671   4.847 -0.5159 -0.2877 -0.3034
  459MOL0     H61934   6.553   6.506   4.901  1.4551  0.3329 -1.3857
  459MOL0     H61935   6.530   6.760   5.075  0.2560 -0.6480  0.1165
  459MOL0     H61936   6.551   6.599   5.145  0.1892  1.6870  1.7652
  459MOL0     H61937   6.299   6.704   4.983  1.8750  0.0285 -0.5972
  459MOL0     H61938   6.321   6.539   5.042 -1.9561  0.3835  1.7533
  459MOL0     H61939   6.322   6.767   5.232 -0.9811  0.4731 -1.2377
  459MOL0     H61940   6.320   6.588   5.269  0.9203  1.0940  0.5286
  459MOL0     H61941   6.091   6.746   5.262  1.1205 -2.6177  2.1062
  459MOL0     H61942   6.105   6.708   5.094 -1.7899 -0.1722  1.3354
  459MOL0     H61943   6.074   6.511   5.308  1.0522  2.6664  0.5030
  459MOL0     H61944   6.124   6.468   5.145  0.4360 -1.1625  1.9782
  459MOL0     H61945   5.858   6.606   5.212 -1.1804 -0.5111 -1.5004
  459MOL0     H61946   5.878   6.439   5.200 -0.3299  0.5801  0.0455
  459MOL0     H61947   6.971   6.654   4.957  0.3065  1.0714  0.9253
  459MOL0     H61948   7.192   6.705   4.887 -2.3163 -1.5608  1.5934
  459MOL0     H61949   7.438   7.010   4.699  1.5374 -0.8330  2.6574
  459MOL0     H61950   7.669   7.097   4.667 -0.9168  0.0632  1.8247
  459MOL0     H61951   9.472   7.223   4.770  0.3124 -0.2507 -0.6626
  459MOL0     H61952   9.706   7.238   4.784  0.0612  0.8345 -1.3376
  459MOL0     H61953  10.114   7.328   4.704  1.4131 -3.5360  2.1038
  459MOL0     H61954  10.354   7.295   4.754 -1.6436  0.8788 -1.2382
  459MOL0     H61955  10.572   7.600   4.900  2.2102 -1.6511 -1.3023
  459MOL0     H61956  10.586   7.529   5.068  0.0801 -0.7105  1.6105
  459MOL0     H61957  10.754   7.428   4.833  0.2495 -1.6273  0.3145
  459MOL0     H61958  10.766   7.393   5.000  1.2127 -0.0346 -0.1448
  459MOL0     H61959  10.772   7.668   5.019  2.3591  0.6400  0.3085
  459MOL0     H61960  10.814   7.658   4.851  1.4186 -0.6048 -1.4690
  459MOL0     H61961  10.987   7.470   5.007  1.8166 -0.2349 -2.7028
  459MOL0     H61962  10.994   7.643   5.062 -0.9682  2.9080 -1.6273
  459MOL0     H61963  11.170   7.732   4.711  1.6584 -0.0292  0.8468
  459MOL0     H61964  10.345   7.611   5.040 -2.8822  2.6894  0.3570
  459MOL0     H61965  10.099   7.631   5.007 -0.9337 -0.0100 -0.0901
  460MOL0     O61966   8.645   8.076  10.322 -0.0923 -0.3593  0.1923
  460MOL0     C61967   8.752   8.107  10.272 -0.1316 -0.0870  0.0307
  460MOL0     O61968   8.763   8.174  10.153  0.2910  0.0452 -0.2745
  460MOL0     C61969   8.652   8.194  10.076  0.0187 -0.8532  0.3371
  460MOL0     C61970   8.656   8.173   9.939  0.3635  0.0783 -0.0180
  460MOL0     C61971   8.537   8.174   9.865 -0.3407  0.8067 -0.6469
  460MOL0     C61972   8.421   8.228   9.908 -0.2370  0.0204 -0.5302
  460MOL0     O61973   8.302   8.248   9.832 -0.2221 -0.6160  0.0954
  460MOL0     C61974   8.324   8.279   9.688  0.4465  0.4002  0.4935
  460MOL0     C61975   8.195   8.274   9.604 -0.8540  0.2739 -0.2696
  460MOL0     C61976   8.102   8.395   9.623  0.3725  0.1697 -0.2589
  460MOL0     C61977   7.951   8.348   9.624  0.1575  0.5389  0.1913
  460MOL0     C61978   7.852   8.465   9.624  0.5286  0.0390 -0.2168
  460MOL0     C61979   7.707   8.415   9.597  0.8503  0.5035  0.2466
  460MOL0     C61980   7.597   8.527   9.596  0.0056  0.5819  0.3687
  460MOL0     C61981   7.459   8.475   9.569 -0.1377 -0.2211  0.3169
  460MOL0     N61982   7.455   8.446   9.429  0.8738  0.1112 -0.6677
  460MOL0     C61983   7.454   8.541   9.337  0.3616 -0.0588  0.0708
  460MOL0     C61984   7.472   8.471   9.216  0.2633  0.2044 -0.3473
  460MOL0     C61985   7.470   8.533   9.079 -0.7042  0.5455 -0.2432
  460MOL0     C61986   7.341   8.501   9.010  0.6835  1.0112 -0.3002
  460MOL0     C61987   7.221   8.566   9.083  0.5662 -0.2715  0.0359
  460MOL0     C61988   7.089   8.534   9.005 -0.3617  0.4166 -0.7228
  460MOL0     O61989   6.981   8.594   9.083  0.6588 -0.0257 -0.3274
  460MOL0     C61990   6.851   8.546   9.055 -0.3473 -0.2166  0.8044
  460MOL0     C61991   6.771   8.528   9.162  0.0241  0.3196 -0.0649
  460MOL0     C61992   6.642   8.483   9.158 -0.2390  0.7303  0.4045
  460MOL0     C61993   6.571   8.486   9.288  0.0756  0.7578 -0.3697
  460MOL0     C61994   6.586   8.456   9.033  0.5083  0.0653 -0.3658
  460MOL0     C61995   6.450   8.403   9.020  0.6737  0.2056 -0.0327
  460MOL0     O61996   6.429   8.320   8.915 -0.2163  0.3165 -0.1017
  460MOL0     C61997   6.298   8.299   8.886 -0.8314  0.2615 -0.3890
  460MOL0     C61998   6.238   8.190   8.958  0.3232 -0.2969 -0.2486
  460MOL0     C61999   6.117   8.141   8.919  0.2149  0.9057  0.2620
  460MOL0     C62000   6.039   8.204   8.818 -0.1689  0.9368  0.0367
  460MOL0     O62001   5.912   8.173   8.777 -0.0591  0.1573 -0.2719
  460MOL0     C62002   5.865   8.036   8.811 -0.8891 -0.7228 -0.3688
  460MOL0     C62003   5.739   8.010   8.727 -0.7738  0.7399 -0.2892
  460MOL0     C62004   5.603   8.051   8.792 -0.4465 -0.0364 -0.5617
  460MOL0     C62005   5.480   7.985   8.726 -0.5873 -0.5986  1.3516
  460MOL0     C62006   5.351   8.060   8.748  0.5067 -0.3554 -0.2327
  460MOL0     C62007   5.227   7.960   8.741 -0.0081 -1.1841 -0.0762
  460MOL0     C62008   5.095   8.033   8.778  0.2734  0.4881  0.7911
  460MOL0     C62009   4.975   7.938   8.775 -0.1759  0.5664  0.2636
  460MOL0    Cl62010   4.977   7.840   8.918 -0.3961  0.1057  0.1146
  460MOL0     C62011   6.093   8.319   8.754 -0.2049  0.2693 -0.3212
  460MOL0     C62012   6.226   8.361   8.778  0.2135  1.4074 -0.3703
  460MOL0     O62013   6.362   8.441   9.104  0.5575  0.7221  0.1731
  460MOL0     C62014   6.670   8.465   8.919 -0.1528 -0.2383  0.1657
  460MOL0     C62015   6.797   8.513   8.933 -0.8502 -0.1419 -0.1472
  460MOL0     N62016   7.481   8.334   9.241  0.2337  0.4027 -0.2337
  460MOL0     N62017   7.469   8.326   9.368  0.6197  0.0858 -0.3100
  460MOL0     C62018   8.419   8.270  10.043  0.5312 -1.0291 -0.0019
  460MOL0     C62019   8.529   8.253  10.122  0.0516  0.3124  0.5285
  460MOL0     C62020   8.871   8.065  10.349 -1.1079  0.1327  0.0095
  460MOL0     C62021   8.987   8.033  10.277 -0.1551 -0.5228  1.0335
  460MOL0     C62022   9.104   7.991  10.351  0.1024  0.5844 -0.0420
  460MOL0     C62023   9.100   7.962  10.488 -1.0538  0.1245  0.2446
  460MOL0     O62024   9.213   7.917  10.551 -0.6824  0.3102 -0.4982
  460MOL0     C62025   9.198   7.814  10.655  0.3859 -0.6770  0.5155
  460MOL0     C62026   9.326   7.729  10.673  0.7770 -0.2204 -0.1285
  460MOL0     C62027   9.305   7.607  10.777 -1.4875  0.3370  0.0513
  460MOL0     C62028   9.280   7.650  10.917 -0.1253  0.2736  0.4353
  460MOL0     C62029   9.397   7.719  10.972  0.0568  0.4318 -0.0121
  460MOL0     C62030   9.499   7.768  11.004  0.3727 -0.2816  0.2371
  460MOL0     C62031   8.981   7.994  10.557 -0.2217 -0.4787 -0.1867
  460MOL0     C62032   8.867   8.048  10.487 -0.4077 -0.7159  0.3821
  460MOL0     H62033   8.747   8.137   9.891  1.4608  3.2342 -0.5145
  460MOL0     H62034   8.543   8.146   9.760  0.4971 -0.1634 -0.3619
  460MOL0     H62035   8.389   8.367   9.678  0.6924  0.6533  3.4499
  460MOL0     H62036   8.377   8.194   9.644 -0.6156 -0.6311  1.1802
  460MOL0     H62037   8.223   8.263   9.498 -1.2862  0.2511 -0.3833
  460MOL0     H62038   8.156   8.180   9.643  2.0834 -0.1092  2.1455
  460MOL0     H62039   8.125   8.449   9.716 -1.2209  1.6799 -0.6886
  460MOL0     H62040   8.106   8.473   9.546 -0.2251 -0.6308 -1.1148
  460MOL0     H62041   7.922   8.283   9.541 -0.4583  0.7922  0.2034
  460MOL0     H62042   7.929   8.284   9.710 -0.0354  1.9614  1.2400
  460MOL0     H62043   7.862   8.524   9.715  1.5472 -1.2716  0.5499
  460MOL0     H62044   7.882   8.543   9.553  0.6968 -0.4062 -0.6384
  460MOL0     H62045   7.704   8.363   9.500  0.6743 -2.1824  1.5861
  460MOL0     H62046   7.673   8.342   9.671 -1.9198  0.2193 -1.2011
  460MOL0     H62047   7.610   8.564   9.699  1.9510  2.5906 -0.5175
  460MOL0     H62048   7.619   8.615   9.536 -2.8446  1.2522  0.1778
  460MOL0     H62049   7.381   8.541   9.609  0.7312 -0.7061  3.0194
  460MOL0     H62050   7.461   8.382   9.625 -0.3723 -1.8890 -2.2692
  460MOL0     H62051   7.442   8.648   9.351 -0.8369 -0.1970  0.1613
  460MOL0     H62052   7.493   8.639   9.093 -2.2706  0.6700  1.7993
  460MOL0     H62053   7.543   8.480   9.017 -0.4547  1.1342 -0.4564
  460MOL0     H62054   7.327   8.392   9.019  3.2439  0.5932 -0.7416
  460MOL0     H62055   7.349   8.517   8.902  1.1332 -0.0467 -0.4363
  460MOL0     H62056   7.240   8.673   9.093 -1.0037 -0.1660  2.8145
  460MOL0     H62057   7.211   8.530   9.186 -0.6209 -0.9350 -0.2922
  460MOL0     H62058   7.074   8.426   9.010  0.2086  0.3908  2.9746
  460MOL0     H62059   7.092   8.567   8.901  2.8496 -1.3515 -1.3264
  460MOL0     H62060   6.816   8.563   9.255 -0.4393 -1.5623  0.9253
  460MOL0     H62061   6.640   8.478   9.373 -1.0608  0.4102  0.5520
  460MOL0     H62062   6.525   8.586   9.293 -0.8926  0.3453 -0.8204
  460MOL0     H62063   6.505   8.401   9.304  1.3325  0.0953  1.8701
  460MOL0     H62064   6.287   8.130   9.034  1.0816  0.8045  0.1513
  460MOL0     H62065   6.077   8.063   8.982 -3.4546 -1.0034 -3.8561
  460MOL0     H62066   5.937   7.956   8.791  0.6395 -0.1585  2.4129
  460MOL0     H62067   5.850   8.027   8.919  0.9140 -0.5918 -0.0842
  460MOL0     H62068   5.759   8.061   8.633  1.2954  1.9675  0.7596
  460MOL0     H62069   5.739   7.901   8.717  0.8775  0.5352  1.4617
  460MOL0     H62070   5.595   8.160   8.784 -1.5634 -0.1291 -0.9820
  460MOL0     H62071   5.602   8.025   8.898 -3.5372  0.6538 -0.3316
  460MOL0     H62072   5.498   7.978   8.618 -2.1263 -1.2194  1.1079
  460MOL0     H62073   5.475   7.881   8.758  1.5388 -0.4918  2.1478
  460MOL0     H62074   5.335   8.146   8.682 -0.7249 -0.9366 -0.7291
  460MOL0     H62075   5.358   8.106   8.847 -0.2995 -1.7590  0.5096
  460MOL0     H62076   5.229   7.922   8.639  0.3637  1.2855 -1.0502
  460MOL0     H62077   5.247   7.878   8.811  1.4986 -0.8476 -0.0759
  460MOL0     H62078   5.076   8.115   8.707  1.4371 -0.7697 -1.0799
  460MOL0     H62079   5.112   8.077   8.876 -2.4202 -0.1855  1.6561
  460MOL0     H62080   4.988   7.873   8.688  0.9446  1.4079 -0.2259
  460MOL0     H62081   4.879   7.989   8.776 -1.8448 -2.2063 -2.0403
  460MOL0     H62082   6.037   8.374   8.680  0.9468  0.4787 -1.0619
  460MOL0     H62083   6.262   8.449   8.725 -1.8452  1.3844 -1.9569
  460MOL0     H62084   6.627   8.432   8.825 -0.8621 -1.3556  0.8520
  460MOL0     H62085   6.862   8.522   8.846 -0.3180 -0.4568  0.2124
  460MOL0     H62086   8.334   8.318  10.089  0.2429  0.2040 -1.7215
  460MOL0     H62087   8.527   8.297  10.221 -1.3675 -2.0222  1.5980
  460MOL0     H62088   9.005   8.042  10.170 -1.3219 -0.1911  0.8505
  460MOL0     H62089   9.191   7.963  10.292 -1.4045 -2.7646 -0.8891
  460MOL0     H62090   9.170   7.864  10.748 -0.3159 -0.4339  0.1825
  460MOL0     H62091   9.115   7.746  10.633  0.6619 -0.7174 -0.4655
  460MOL0     H62092   9.410   7.793  10.702  1.9761 -1.0402 -1.6603
  460MOL0     H62093   9.354   7.688  10.576  2.4146  0.9263 -0.1762
  460MOL0     H62094   9.391   7.541  10.788 -2.4901 -1.5143 -2.2185
  460MOL0     H62095   9.228   7.542  10.735  0.6368 -2.1941 -0.1785
  460MOL0     H62096   9.256   7.562  10.976 -3.1402  1.1749  0.7300
  460MOL0     H62097   9.189   7.711  10.917  0.1697  0.7573  1.6308
  460MOL0     H62098   9.594   7.810  11.030  1.6920 -3.8469  1.8465
  460MOL0     H62099   8.981   7.986  10.665 -0.3155 -2.5564 -0.2962
  460MOL0     H62100   8.773   8.071  10.534 -1.1645 -0.5412 -1.1456
  461MOL0     O62101   5.622   8.453   2.520  0.5189 -0.3545  0.2745
  461MOL0     C62102   5.576   8.340   2.551  0.1274  0.1946 -0.5089
  461MOL0     O62103   5.653   8.243   2.616  0.0843 -0.7084  0.6800
  461MOL0     C62104   5.782   8.258   2.658 -0.4605 -0.0045 -0.3745
  461MOL0     C62105   5.865   8.151   2.636 -0.0596  0.3126 -0.0593
  461MOL0     C62106   5.996   8.159   2.682  0.0995  0.4170 -0.3634
  461MOL0     C62107   6.044   8.267   2.754 -0.5396  0.6346 -0.7287
  461MOL0     O62108   6.180   8.274   2.777  0.0116 -0.4297 -0.2708
  461MOL0     C62109   6.217   8.352   2.897 -0.3171  0.7094  0.0238
  461MOL0     C62110   6.370   8.340   2.925  0.4657 -0.0132 -0.8220
  461MOL0     C62111   6.457   8.399   2.814  0.3240 -0.1365 -0.5155
  461MOL0     C62112   6.604   8.388   2.843  0.3484  0.2206 -0.1209
  461MOL0     C62113   6.685   8.434   2.719  0.0060 -0.4817  0.5929
  461MOL0     C62114   6.828   8.476   2.757  0.4606  0.5572  0.3951
  461MOL0     C62115   6.910   8.497   2.621  0.0383 -0.3564 -0.4600
  461MOL0     C62116   7.050   8.565   2.634  0.8972 -0.4684  0.0472
  461MOL0     N62117   7.056   8.694   2.691  0.0679 -0.5539  0.8083
  461MOL0     C62118   6.951   8.785   2.680  0.8457  0.2650  0.5447
  461MOL0     C62119   6.969   8.876   2.776  0.7671  0.0971  0.3725
  461MOL0     C62120   6.870   8.989   2.812  0.1297  0.3933  0.6158
  461MOL0     C62121   6.897   9.123   2.729 -1.1834 -0.0199  0.6724
  461MOL0     C62122   6.853   9.138   2.578 -0.3116 -0.0824  0.6340
  461MOL0     C62123   6.698   9.152   2.563 -0.6450 -0.0932  0.2459
  461MOL0     O62124   6.618   9.047   2.625  0.2439 -0.2231  1.2371
  461MOL0     C62125   6.572   8.947   2.540 -0.3202  0.3807 -0.8730
  461MOL0     C62126   6.654   8.892   2.441  0.0448  0.6968 -0.1330
  461MOL0     C62127   6.611   8.780   2.369 -0.4874  0.2993  0.4390
  461MOL0     C62128   6.706   8.710   2.279 -0.4216  0.2063  0.2193
  461MOL0     C62129   6.482   8.728   2.386 -0.0566 -0.0440  0.0873
  461MOL0     C62130   6.428   8.606   2.325 -0.2564 -0.1508 -0.1742
  461MOL0     O62131   6.346   8.530   2.401  0.4939 -0.2682  0.0964
  461MOL0     C62132   6.281   8.426   2.341 -0.9905  0.4410  0.1519
  461MOL0     C62133   6.201   8.433   2.228 -0.0792 -0.5276 -1.0799
  461MOL0     C62134   6.144   8.314   2.185  0.0213 -0.2464 -0.0486
  461MOL0     C62135   6.169   8.189   2.243  0.6140  0.0965  0.3861
  461MOL0     O62136   6.113   8.064   2.194 -0.3740 -0.5695  0.0590
  461MOL0     C62137   5.987   8.070   2.126 -0.1173 -0.3660  0.6363
  461MOL0     C62138   5.886   8.132   2.225 -0.2121  0.3105 -0.3432
  461MOL0     C62139   5.742   8.094   2.174 -0.2141 -0.0665 -0.0847
  461MOL0     C62140   5.648   8.213   2.197  0.0030 -0.0446 -0.0861
  461MOL0     C62141   5.498   8.180   2.158 -0.3396  0.3116  0.0076
  461MOL0     C62142   5.440   8.061   2.244 -0.4643 -0.2421  0.0297
  461MOL0     C62143   5.291   8.072   2.244  1.0582 -0.2351  0.6982
  461MOL0     C62144   5.226   7.946   2.313 -0.6316 -0.4528 -0.0992
  461MOL0    Cl62145   5.043   7.986   2.289  0.0429 -0.0932 -0.6520
  461MOL0     C62146   6.246   8.186   2.354  0.2717  0.0959 -0.1660
  461MOL0     C62147   6.297   8.304   2.398  0.6783  0.5082  0.3566
  461MOL0     O62148   6.464   8.575   2.211 -0.0100 -0.3570  0.1247
  461MOL0     C62149   6.401   8.789   2.482 -0.0044  0.2549 -0.1163
  461MOL0     C62150   6.447   8.896   2.566 -0.9340 -0.0232  0.2025
  461MOL0     N62151   7.091   8.848   2.830 -0.1629  0.7187 -0.4120
  461MOL0     N62152   7.146   8.742   2.777 -0.1522 -0.8524  0.0890
  461MOL0     C62153   5.955   8.365   2.781  0.3499 -0.7860 -0.3169
  461MOL0     C62154   5.827   8.376   2.726 -0.1838  0.5634  0.5716
  461MOL0     C62155   5.435   8.306   2.545 -0.2002 -0.8253  0.6777
  461MOL0     C62156   5.346   8.380   2.473 -1.0961  0.0677  0.4013
  461MOL0     C62157   5.208   8.373   2.496  0.4735 -0.9480 -1.0916
  461MOL0     C62158   5.150   8.289   2.593  0.1163  0.3863 -1.0129
  461MOL0     O62159   5.016   8.297   2.619  0.4348 -0.5082  1.2504
  461MOL0     C62160   4.960   8.235   2.734  0.7065  1.1847  0.2252
  461MOL0     C62161   4.816   8.259   2.751  0.0135  0.1246  0.3032
  461MOL0     C62162   4.768   8.206   2.893 -0.2847 -0.5019 -0.2677
  461MOL0     C62163   4.621   8.237   2.909 -0.8655  0.2422 -0.3320
  461MOL0     C62164   4.599   8.209   3.049 -0.0398 -0.3253 -0.3289
  461MOL0     C62165   4.558   8.197   3.167  0.1472  0.4335 -0.1261
  461MOL0     C62166   5.238   8.201   2.654  1.3926 -0.9067  1.2878
  461MOL0     C62167   5.380   8.214   2.635 -0.0806  0.1427  0.3065
  461MOL0     H62168   5.831   8.070   2.572  2.5156 -0.0233 -1.1174
  461MOL0     H62169   6.069   8.080   2.670 -0.7320 -0.4823  0.3982
  461MOL0     H62170   6.196   8.459   2.897 -0.8566  0.6132  1.4868
  461MOL0     H62171   6.169   8.296   2.978 -1.5374  0.4603 -0.8431
  461MOL0     H62172   6.393   8.393   3.018  0.0937  1.0594 -1.3348
  461MOL0     H62173   6.391   8.234   2.947  2.4777  0.0749 -2.0802
  461MOL0     H62174   6.432   8.350   2.719  1.4391  0.0611 -0.9257
  461MOL0     H62175   6.426   8.503   2.801  1.5135  0.3806  0.6700
  461MOL0     H62176   6.619   8.449   2.933 -0.5257 -1.2837  1.0778
  461MOL0     H62177   6.628   8.284   2.867  0.8394  0.8876  2.6567
  461MOL0     H62178   6.692   8.353   2.645 -0.2153  0.9258 -1.0354
  461MOL0     H62179   6.637   8.522   2.676  1.8629 -0.8948 -2.7207
  461MOL0     H62180   6.820   8.570   2.813  0.1284  0.0808  1.1761
  461MOL0     H62181   6.879   8.398   2.815 -0.4739 -0.6459 -0.3518
  461MOL0     H62182   6.921   8.398   2.576 -0.9640 -1.7460  2.1514
  461MOL0     H62183   6.855   8.562   2.554 -2.4922  0.7565  2.4597
  461MOL0     H62184   7.075   8.581   2.528  0.7415  0.3883  0.1294
  461MOL0     H62185   7.131   8.503   2.674  1.4910 -0.2846 -0.8209
  461MOL0     H62186   6.863   8.776   2.617  1.6360  2.8880 -1.0926
  461MOL0     H62187   6.770   8.950   2.795 -0.1523 -1.9760  5.7958
  461MOL0     H62188   6.878   9.015   2.918 -2.1336  0.8738  0.7168
  461MOL0     H62189   7.002   9.152   2.740 -0.8624  0.3250 -2.5053
  461MOL0     H62190   6.835   9.196   2.781  0.1894 -0.0706  2.5116
  461MOL0     H62191   6.884   9.057   2.511  1.5472  0.6941  0.4860
  461MOL0     H62192   6.898   9.234   2.550 -2.7929  1.2968  1.1772
  461MOL0     H62193   6.668   9.162   2.458  0.3623  1.7173  0.0879
  461MOL0     H62194   6.685   9.249   2.612 -0.6449 -1.5451  3.3156
  461MOL0     H62195   6.759   8.920   2.431  0.5650 -0.8116  0.7168
  461MOL0     H62196   6.793   8.773   2.259 -1.0221  0.7719 -0.6680
  461MOL0     H62197   6.720   8.606   2.309  3.9146  0.9283  1.3524
  461MOL0     H62198   6.656   8.713   2.181 -2.4527  1.8960  1.2320
  461MOL0     H62199   6.184   8.529   2.182 -0.5899  0.4086  0.9442
  461MOL0     H62200   6.091   8.338   2.093  0.1861  3.7926  0.7259
  461MOL0     H62201   5.996   8.120   2.029  1.4233 -0.2239  0.8257
  461MOL0     H62202   5.954   7.966   2.115 -3.1516  0.5378  0.4401
  461MOL0     H62203   5.899   8.083   2.322  1.3303  0.4569 -0.4450
  461MOL0     H62204   5.897   8.239   2.244 -1.7825  0.4155  0.1068
  461MOL0     H62205   5.702   8.006   2.225  1.1132 -0.5830  0.1110
  461MOL0     H62206   5.750   8.076   2.066 -2.0078 -2.4177  0.1143
  461MOL0     H62207   5.635   8.235   2.304 -2.2529 -0.2017 -0.2751
  461MOL0     H62208   5.690   8.293   2.136 -3.2525  2.5623  0.7642
  461MOL0     H62209   5.502   8.159   2.050 -0.4468  0.0438  0.0570
  461MOL0     H62210   5.434   8.265   2.183  1.1356  1.5408 -0.2321
  461MOL0     H62211   5.475   7.965   2.204 -1.4493 -0.8930  0.6910
  461MOL0     H62212   5.480   8.067   2.346  2.7617 -2.5190 -0.9309
  461MOL0     H62213   5.248   8.074   2.143  1.9935 -3.0423  0.1801
  461MOL0     H62214   5.255   8.159   2.301  0.5135  0.3120 -0.4568
  461MOL0     H62215   5.247   7.931   2.419 -3.4866  1.2554  0.8151
  461MOL0     H62216   5.239   7.854   2.256 -0.4352  0.5010 -1.6548
  461MOL0     H62217   6.278   8.089   2.392  0.8325  0.1026 -0.6057
  461MOL0     H62218   6.355   8.307   2.490 -1.7388  0.7120  1.9962
  461MOL0     H62219   6.297   8.764   2.499 -0.7817  2.1782 -1.6268
  461MOL0     H62220   6.398   8.950   2.647  1.9505  0.1434  1.9647
  461MOL0     H62221   5.994   8.456   2.827 -1.5419  0.8702 -1.7916
  461MOL0     H62222   5.769   8.467   2.743  1.2995  1.1643  2.8395
  461MOL0     H62223   5.381   8.463   2.413 -4.0657  1.8891  0.9680
  461MOL0     H62224   5.132   8.434   2.448 -1.8910 -1.4557  1.7544
  461MOL0     H62225   4.977   8.127   2.733 -2.4319  0.5830  0.4897
  461MOL0     H62226   4.991   8.276   2.831  0.4733  1.6661  0.0996
  461MOL0     H62227   4.755   8.210   2.675  1.1636 -0.0361 -0.5390
  461MOL0     H62228   4.792   8.365   2.739 -1.2199 -0.2656 -0.8942
  461MOL0     H62229   4.827   8.251   2.973  0.5122  2.0374 -2.1678
  461MOL0     H62230   4.775   8.097   2.890 -2.4431 -0.7097  0.0668
  461MOL0     H62231   4.580   8.166   2.837  1.4643 -0.2681 -1.2422
  461MOL0     H62232   4.607   8.340   2.874 -0.5794 -0.2830 -2.0648
  461MOL0     H62233   4.526   8.204   3.269  0.9762  1.0939  0.0894
  461MOL0     H62234   5.199   8.118   2.712  1.0951 -1.2219  0.6503
  461MOL0     H62235   5.447   8.141   2.680 -0.8638 -2.0902 -1.9392
  462MOL0     O62236   7.785   0.182   9.976  0.0180  0.8006  0.1355
  462MOL0     C62237   7.836   0.070   9.991 -0.3571 -0.5618  0.1440
  462MOL0     O62238   7.777  -0.047  10.014  0.1086  0.1285  0.6193
  462MOL0     C62239   7.647  -0.054  10.023  0.4421  0.2529  0.8361
  462MOL0     C62240   7.572  -0.008  10.135 -0.4214 -0.6631  0.9049
  462MOL0     C62241   7.434  -0.018  10.129  0.5663  0.1108  0.0958
  462MOL0     C62242   7.371  -0.080  10.017 -0.3532  0.3035 -0.6791
  462MOL0     O62243   7.240  -0.103  10.001  0.7935  0.2519  0.7352
  462MOL0     C62244   7.144  -0.014  10.054  0.1621 -0.9770  0.2775
  462MOL0     C62245   7.021  -0.028   9.968 -0.2750 -0.1151 -0.3745
  462MOL0     C62246   6.889   0.019  10.033  0.4741 -0.5460 -0.7514
  462MOL0     C62247   6.815   0.127   9.945  0.5169 -0.0527  0.3415
  462MOL0     C62248   6.664   0.137   9.967  0.1633 -0.3251  0.3193
  462MOL0     C62249   6.620   0.236   9.854 -0.0987  0.0522  0.0495
  462MOL0     C62250   6.471   0.266   9.869  0.8186  0.7082  0.2515
  462MOL0     C62251   6.420   0.317  10.000 -0.2320  0.3551  0.5483
  462MOL0     N62252   6.277   0.342   9.992  0.0666 -0.8319 -0.1589
  462MOL0     C62253   6.186   0.245   9.950  0.1774 -0.6053 -0.9228
  462MOL0     C62254   6.075   0.311   9.935 -0.1508 -0.1535 -0.0338
  462MOL0     C62255   5.949   0.257   9.888  0.6052 -0.2508 -0.3195
  462MOL0     C62256   5.898   0.158   9.987  0.3852 -0.3326 -0.1284
  462MOL0     C62257   5.770   0.091   9.939  0.3161 -0.5362  0.4093
  462MOL0     C62258   5.741  -0.040  10.010 -0.2634  0.3389 -0.4638
  462MOL0     O62259   5.606  -0.085   9.988 -0.0826  0.8925 -0.3101
  462MOL0     C62260   5.567  -0.205  10.035 -0.0513 -0.2229 -0.3769
  462MOL0     C62261   5.598  -0.266  10.154  0.3689  0.8065 -0.6416
  462MOL0     C62262   5.545  -0.399  10.187 -1.0426 -0.2972  0.0305
  462MOL0     C62263   5.576  -0.452  10.331  0.9425  0.1447  1.1455
  462MOL0     C62264   5.471  -0.469  10.096 -0.6875 -0.6473 -0.3845
  462MOL0     C62265   5.418  -0.608  10.133 -0.8894 -1.1853  0.3478
  462MOL0     O62266   5.499  -0.703  10.189 -0.0948 -0.5008 -0.0618
  462MOL0     C62267   5.437  -0.803  10.259 -0.2892  0.1751  0.5687
  462MOL0     C62268   5.350  -0.894  10.204  0.1251  0.2612  1.6756
  462MOL0     C62269   5.314  -1.015  10.268  0.0955 -0.3325  0.5154
  462MOL0     C62270   5.376  -1.060  10.383 -0.7739  0.3526  0.8181
  462MOL0     O62271   5.348  -1.190  10.419  0.0485  0.0710  0.1111
  462MOL0     C62272   5.307  -1.213  10.560 -0.3549  0.0103  0.3619
  462MOL0     C62273   5.157  -1.204  10.586  0.2354  0.1673  0.0317
  462MOL0     C62274   5.106  -1.068  10.573 -0.1036 -0.6559 -0.6392
  462MOL0     C62275   4.956  -1.045  10.623 -0.2578  1.1250  0.9191
  462MOL0     C62276   4.869  -1.157  10.583  0.5562  0.0389  1.1898
  462MOL0     C62277   4.720  -1.118  10.595  0.0067 -0.1925 -0.0266
  462MOL0     C62278   4.664  -1.096  10.741  0.7884 -0.1297 -0.5934
  462MOL0     C62279   4.515  -1.070  10.735 -0.3348  0.0865  0.7081
  462MOL0    Cl62280   4.510  -0.903  10.685  0.3434 -0.0185  0.0098
  462MOL0     C62281   5.464  -0.970  10.440 -0.3846 -0.8221 -0.1017
  462MOL0     C62282   5.488  -0.837  10.386  0.2259 -0.5140  0.4141
  462MOL0     O62283   5.298  -0.605  10.121 -0.4287 -0.1274  1.0060
  462MOL0     C62284   5.437  -0.399   9.979 -0.3711 -1.0452 -0.5124
  462MOL0     C62285   5.484  -0.274   9.952  0.6933 -0.9440  0.3055
  462MOL0     N62286   6.088   0.439   9.987 -0.3423 -0.6362  0.2517
  462MOL0     N62287   6.211   0.454  10.022 -0.8626 -0.7564 -0.2834
  462MOL0     C62288   7.441  -0.130   9.909  0.4349 -0.2903  0.5460
  462MOL0     C62289   7.583  -0.114   9.910 -0.8133 -0.6624  0.3471
  462MOL0     C62290   7.979   0.068   9.980  0.4215 -0.0087 -0.3428
  462MOL0     C62291   8.044   0.165   9.902 -0.3582 -0.8384  0.0652
  462MOL0     C62292   8.178   0.156   9.869  0.5221 -0.6629 -0.5345
  462MOL0     C62293   8.251   0.044   9.920 -0.4537  0.3650 -0.0324
  462MOL0     O62294   8.383   0.042   9.895  0.3365 -0.0757 -0.0435
  462MOL0     C62295   8.463   0.076  10.011 -0.8879 -0.0383 -0.2473
  462MOL0     C62296   8.600   0.099   9.934  0.0294 -1.1466  0.0222
  462MOL0     C62297   8.712   0.176  10.004  0.4759  0.1484 -0.2942
  462MOL0     C62298   8.827   0.197   9.912 -0.1000  0.8731 -0.1280
  462MOL0     C62299   8.902   0.075   9.903 -0.5515  0.7427  0.6162
  462MOL0     C62300   8.987  -0.014   9.898 -0.3051  0.0288 -0.1067
  462MOL0     C62301   8.187  -0.053   9.999  0.3366 -0.2769  0.1957
  462MOL0     C62302   8.048  -0.043  10.028 -0.0172 -0.2068  0.0513
  462MOL0     H62303   7.618   0.042  10.220  1.5630 -0.7521 -0.0496
  462MOL0     H62304   7.371   0.027  10.205 -2.4224 -0.3255 -1.9216
  462MOL0     H62305   7.124  -0.026  10.161  0.8933 -1.2132  0.3974
  462MOL0     H62306   7.185   0.086  10.039  0.7007 -1.0051  1.4636
  462MOL0     H62307   7.044   0.029   9.877  1.7295 -1.9169 -1.0913
  462MOL0     H62308   7.016  -0.131   9.930  1.5726  0.0594 -1.1995
  462MOL0     H62309   6.832  -0.075  10.032  2.5470 -1.8705 -1.8484
  462MOL0     H62310   6.894   0.059  10.134 -3.0875 -0.2250 -0.5757
  462MOL0     H62311   6.860   0.226   9.955  0.9755 -0.2204  0.0070
  462MOL0     H62312   6.838   0.093   9.843  0.5903 -0.7040  0.5664
  462MOL0     H62313   6.605   0.045   9.963  0.8836 -0.7574 -1.5202
  462MOL0     H62314   6.647   0.176  10.068  0.4953  2.1116 -0.4780
  462MOL0     H62315   6.678   0.329   9.853  0.1342 -0.0846  0.6726
  462MOL0     H62316   6.628   0.197   9.752  1.4949  1.8356 -0.5634
  462MOL0     H62317   6.441   0.344   9.798  1.4572  0.7127 -0.0189
  462MOL0     H62318   6.416   0.173   9.850 -1.6464  1.8015  1.5465
  462MOL0     H62319   6.471   0.411  10.019 -1.1335  0.7431  1.1662
  462MOL0     H62320   6.434   0.235  10.071 -1.0274 -2.0834 -1.9447
  462MOL0     H62321   6.219   0.150   9.909  0.2518 -0.4751 -1.1662
  462MOL0     H62322   5.878   0.340   9.882 -0.7654 -1.1687  1.6580
  462MOL0     H62323   5.968   0.211   9.791  1.0990 -1.8657  0.5001
  462MOL0     H62324   5.874   0.203  10.083  0.4746  0.6785 -0.5671
  462MOL0     H62325   5.974   0.080   9.999  1.0454  0.3593  0.2624
  462MOL0     H62326   5.785   0.070   9.832 -0.4104 -2.1228  0.5940
  462MOL0     H62327   5.677   0.148   9.947  0.0235 -0.5697 -1.8959
  462MOL0     H62328   5.756  -0.014  10.115 -1.5473 -1.9487  0.3391
  462MOL0     H62329   5.810  -0.119   9.978 -0.4187 -0.7099  1.6288
  462MOL0     H62330   5.654  -0.205  10.224 -0.9055  1.7370 -0.3911
  462MOL0     H62331   5.643  -0.538  10.322  0.8525  0.0045  1.8193
  462MOL0     H62332   5.631  -0.380  10.393  0.7091  1.1399  0.2307
  462MOL0     H62333   5.489  -0.495  10.380 -1.3711  1.4632 -1.4976
  462MOL0     H62334   5.327  -0.863  10.103 -0.9081 -3.2416  0.7018
  462MOL0     H62335   5.243  -1.080  10.218  0.1686 -0.4451  0.5570
  462MOL0     H62336   5.345  -1.312  10.587  1.2003  0.3441 -0.4903
  462MOL0     H62337   5.358  -1.150  10.634  0.3627 -0.3975  0.2228
  462MOL0     H62338   5.112  -1.271  10.512  3.3635  0.8540 -2.7283
  462MOL0     H62339   5.153  -1.246  10.687 -1.6842 -0.1209 -0.1270
  462MOL0     H62340   5.119  -1.032  10.471  1.1220  0.7750 -0.0116
  462MOL0     H62341   5.163  -1.002  10.639 -2.2575  1.5301 -0.8116
  462MOL0     H62342   4.953  -1.034  10.732  0.4714 -1.0519  1.2143
  462MOL0     H62343   4.907  -0.955  10.584 -2.2699 -0.5850 -0.7074
  462MOL0     H62344   4.891  -1.245  10.644 -0.0085 -1.7209 -0.9971
  462MOL0     H62345   4.891  -1.192  10.482 -2.6968  1.3564 -0.1040
  462MOL0     H62346   4.695  -1.033  10.532  0.1794  0.2840  0.5328
  462MOL0     H62347   4.670  -1.210  10.565  0.6528 -0.7666  0.6052
  462MOL0     H62348   4.700  -1.009  10.796  1.5186  0.2016 -1.5582
  462MOL0     H62349   4.690  -1.184  10.801 -1.6829 -0.8162 -0.4435
  462MOL0     H62350   4.475  -1.078  10.836  0.7148 -1.7190  1.0111
  462MOL0     H62351   4.457  -1.136  10.670 -0.3150 -1.5184  2.2744
  462MOL0     H62352   5.530  -1.007  10.518 -0.4388 -0.7915 -0.0417
  462MOL0     H62353   5.565  -0.777  10.432  0.4065 -0.8726  0.5815
  462MOL0     H62354   5.380  -0.448   9.901  0.0475 -1.6280 -0.4572
  462MOL0     H62355   5.457  -0.229   9.857  0.7826 -1.5612 -0.0181
  462MOL0     H62356   7.397  -0.168   9.817  0.4669  0.3093  0.2716
  462MOL0     H62357   7.643  -0.154   9.829  0.5100  1.0041  0.4326
  462MOL0     H62358   7.996   0.256   9.869  0.2083  0.3612  2.3679
  462MOL0     H62359   8.224   0.238   9.814  1.0597  1.9310  3.3275
  462MOL0     H62360   8.421   0.162  10.063 -1.4396  1.5816 -3.1895
  462MOL0     H62361   8.469   0.001  10.091 -1.5146  0.4388  0.2568
  462MOL0     H62362   8.576   0.162   9.847 -1.6154 -0.0284  1.2328
  462MOL0     H62363   8.635   0.001   9.900  0.9346 -1.3896  1.5536
  462MOL0     H62364   8.747   0.122  10.092  1.1442  1.8542  0.5254
  462MOL0     H62365   8.658   0.268  10.026  2.6779  1.2750  0.7034
  462MOL0     H62366   8.898   0.272   9.950  0.6027 -0.5314  1.4487
  462MOL0     H62367   8.785   0.222   9.814  0.1206  1.8259  0.0039
  462MOL0     H62368   9.060  -0.092   9.897 -1.5003 -1.1496  0.7385
  462MOL0     H62369   8.254  -0.130  10.037  0.8115  0.5473  1.0722
  462MOL0     H62370   7.990  -0.117  10.083 -1.4647 -0.3389 -1.5714
  463MOL0     O62371   8.741   4.894   0.019 -0.3224 -0.3943 -0.3690
  463MOL0     C62372   8.813   4.807   0.063 -0.3500 -0.2420  0.8155
  463MOL0     O62373   8.778   4.675   0.073 -0.4337  0.3613 -0.1367
  463MOL0     C62374   8.643   4.660   0.058 -0.4047  0.1996  0.4583
  463MOL0     C62375   8.556   4.665   0.161  0.6797  0.3078 -0.1311
  463MOL0     C62376   8.419   4.649   0.145  0.3560 -0.0235  0.1725
  463MOL0     C62377   8.372   4.609   0.022 -0.4485 -1.0401  0.3795
  463MOL0     O62378   8.244   4.556  -0.011  0.4554 -0.1028 -0.5886
  463MOL0     C62379   8.142   4.590   0.086 -0.0021 -0.2575 -0.2706
  463MOL0     C62380   8.006   4.573   0.026 -0.2748 -0.3690  0.0535
  463MOL0     C62381   7.974   4.425  -0.013  0.0518  0.7685  0.1079
  463MOL0     C62382   7.907   4.336   0.093  0.8178 -0.0394  0.0902
  463MOL0     C62383   7.771   4.377   0.145 -0.7608  0.2859 -0.7661
  463MOL0     C62384   7.696   4.259   0.209  0.1776 -0.2307 -0.5027
  463MOL0     C62385   7.545   4.260   0.210 -0.3535  0.1450 -0.2831
  463MOL0     C62386   7.478   4.400   0.229 -0.2026  0.3124 -0.4674
  463MOL0     N62387   7.330   4.382   0.226  1.0803  0.6427 -0.4595
  463MOL0     C62388   7.242   4.332   0.328 -0.3437 -0.1901  0.1976
  463MOL0     C62389   7.123   4.360   0.280 -0.8326  0.1620  0.2984
  463MOL0     C62390   6.994   4.327   0.352  0.5991  0.1393 -0.0192
  463MOL0     C62391   6.982   4.411   0.480 -0.8863  0.1435  0.5138
  463MOL0     C62392   6.862   4.371   0.559  0.2020  1.4686  0.0630
  463MOL0     C62393   6.740   4.466   0.552 -0.3678 -0.0894  0.4331
  463MOL0     O62394   6.638   4.426   0.643 -0.4488 -1.1183  0.0183
  463MOL0     C62395   6.520   4.496   0.648 -0.6787 -0.1752  0.6247
  463MOL0     C62396   6.482   4.595   0.563  0.1413  0.6129 -0.1659
  463MOL0     C62397   6.350   4.650   0.555 -0.5531 -0.0517 -0.2542
  463MOL0     C62398   6.325   4.759   0.451 -0.2957 -0.9440  0.1674
  463MOL0     C62399   6.257   4.617   0.663  0.1141 -0.7293 -0.9365
  463MOL0     C62400   6.124   4.677   0.671  0.6995  0.1461  0.4799
  463MOL0     O62401   6.041   4.612   0.751 -0.3253  0.5527  0.4279
  463MOL0     C62402   5.908   4.650   0.762 -0.5753 -0.6923  0.1561
  463MOL0     C62403   5.867   4.729   0.873  0.4269  0.5613 -0.3080
  463MOL0     C62404   5.739   4.779   0.884  0.5922 -0.5296  0.8463
  463MOL0     C62405   5.650   4.770   0.778  0.1478  0.8651  0.0169
  463MOL0     O62406   5.528   4.822   0.797  0.0219 -0.7268  0.0803
  463MOL0     C62407   5.430   4.825   0.687 -0.5496 -0.4947  0.2892
  463MOL0     C62408   5.303   4.911   0.730 -0.9691  0.3760 -0.0522
  463MOL0     C62409   5.353   5.060   0.750 -0.5269  0.5464  0.2841
  463MOL0     C62410   5.243   5.161   0.778 -0.7737  0.9075  0.6384
  463MOL0     C62411   5.242   5.280   0.673  0.5911 -0.4168 -0.0790
  463MOL0     C62412   5.108   5.346   0.669  1.0035  0.3097  0.4102
  463MOL0     C62413   5.095   5.442   0.546 -0.4488  0.1306 -0.0213
  463MOL0     C62414   5.036   5.354   0.431 -0.1263  1.1740  0.0360
  463MOL0    Cl62415   5.062   5.420   0.267  0.1608  0.2454 -0.0483
  463MOL0     C62416   5.687   4.694   0.668 -0.6154  0.3248  1.1865
  463MOL0     C62417   5.815   4.636   0.656  0.0907 -0.2794 -0.3943
  463MOL0     O62418   6.088   4.777   0.610 -0.2802 -0.0804  0.4993
  463MOL0     C62419   6.307   4.525   0.760 -0.0294 -0.1666  0.2838
  463MOL0     C62420   6.429   4.457   0.744  0.6082 -0.1515 -0.3313
  463MOL0     N62421   7.137   4.427   0.162 -0.6834 -0.2678 -0.6820
  463MOL0     N62422   7.259   4.441   0.126  0.0100 -0.0132  0.7359
  463MOL0     C62423   8.460   4.608  -0.090 -1.1973 -0.0713 -0.7256
  463MOL0     C62424   8.599   4.637  -0.070 -0.2977  0.4492 -0.2200
  463MOL0     C62425   8.955   4.839   0.069  0.4982  0.1408 -0.0673
  463MOL0     C62426   9.054   4.746   0.087 -0.9144  0.8071 -0.2569
  463MOL0     C62427   9.190   4.778   0.092 -1.3320  0.1087 -0.0330
  463MOL0     C62428   9.236   4.910   0.067  0.3008  0.0830  0.0599
  463MOL0     O62429   9.367   4.944   0.068 -0.2097 -0.4180 -0.4560
  463MOL0     C62430   9.471   4.849   0.074  0.2781  0.3074  0.0156
  463MOL0     C62431   9.612   4.899   0.065 -0.2013  0.1668  0.2651
  463MOL0     C62432   9.661   4.976   0.192 -0.0237 -0.6423  0.5122
  463MOL0     C62433   9.805   5.016   0.213 -0.1680  0.7415  0.3144
  463MOL0     C62434   9.891   4.899   0.228  0.7183 -0.3450  0.4047
  463MOL0     C62435   9.958   4.812   0.274 -0.7804  0.0660  0.3552
  463MOL0     C62436   9.131   5.006   0.046  0.2116 -1.0882 -0.4111
  463MOL0     C62437   8.994   4.976   0.046  0.0502 -0.5581 -0.1349
  463MOL0     H62438   8.591   4.678   0.263 -2.0124  1.5975  0.7252
  463MOL0     H62439   8.353   4.659   0.231  1.1753  0.8653  0.7186
  463MOL0     H62440   8.153   4.558   0.190 -0.7286  2.1055  0.5874
  463MOL0     H62441   8.149   4.699   0.089 -1.7258 -0.0608 -1.7030
  463MOL0     H62442   7.924   4.598   0.095 -2.1100 -5.0098 -0.0862
  463MOL0     H62443   8.000   4.630  -0.067 -1.3881 -1.4857 -0.5819
  463MOL0     H62444   7.907   4.420  -0.099 -1.9890 -0.1388  1.6383
  463MOL0     H62445   8.060   4.362  -0.037 -1.3296 -1.2988  0.2891
  463MOL0     H62446   7.893   4.236   0.049 -0.5785 -0.9850  2.5003
  463MOL0     H62447   7.977   4.318   0.174  0.3108 -2.9255  0.0264
  463MOL0     H62448   7.777   4.467   0.207  1.4067  1.6200 -2.7675
  463MOL0     H62449   7.713   4.402   0.056  1.4693  0.9134 -2.1305
  463MOL0     H62450   7.724   4.164   0.163 -0.8496  0.4159 -2.5866
  463MOL0     H62451   7.725   4.267   0.314  0.3634  0.5910 -0.6064
  463MOL0     H62452   7.508   4.212   0.119 -0.1878 -1.1770  0.3147
  463MOL0     H62453   7.505   4.191   0.285  0.6920  1.0197  1.1452
  463MOL0     H62454   7.498   4.474   0.150  0.5522  1.7260  0.9941
  463MOL0     H62455   7.496   4.451   0.324 -0.8094  0.8425 -0.6242
  463MOL0     H62456   7.263   4.276   0.419 -1.8170 -2.2954 -0.6657
  463MOL0     H62457   6.913   4.347   0.282  1.2306 -2.5712 -1.6888
  463MOL0     H62458   6.980   4.221   0.375 -0.9525  0.5626  1.1525
  463MOL0     H62459   6.994   4.517   0.460  0.1459 -0.2494 -1.1173
  463MOL0     H62460   7.076   4.382   0.529  0.7872  1.5919 -1.6375
  463MOL0     H62461   6.893   4.358   0.663  0.7786  2.4301  0.0203
  463MOL0     H62462   6.818   4.276   0.526 -0.4257  1.7924 -0.0467
  463MOL0     H62463   6.720   4.476   0.445  1.7532 -1.0182 -0.0979
  463MOL0     H62464   6.760   4.569   0.581  2.3071  0.3135 -2.3052
  463MOL0     H62465   6.563   4.632   0.502  0.2171  0.3969 -0.1939
  463MOL0     H62466   6.327   4.855   0.503 -0.5599  0.7995 -2.8263
  463MOL0     H62467   6.404   4.754   0.376  0.2972 -1.0266  0.7856
  463MOL0     H62468   6.227   4.744   0.405 -1.1797  1.8387  0.9720
  463MOL0     H62469   5.949   4.746   0.942 -1.1272  0.9694  1.5257
  463MOL0     H62470   5.716   4.846   0.966 -4.2779  1.1428 -1.4830
  463MOL0     H62471   5.473   4.860   0.592 -2.5986  1.6465  0.0737
  463MOL0     H62472   5.386   4.726   0.669  0.3983 -0.8493 -0.1360
  463MOL0     H62473   5.236   4.912   0.644 -1.2656 -3.7063 -0.0541
  463MOL0     H62474   5.258   4.862   0.817  2.6579  0.0843  1.8475
  463MOL0     H62475   5.425   5.090   0.674 -2.6508 -0.9142 -2.4617
  463MOL0     H62476   5.418   5.053   0.839 -1.1103  1.1790  0.7660
  463MOL0     H62477   5.150   5.102   0.776 -2.1052  2.8941  1.3882
  463MOL0     H62478   5.259   5.192   0.881  0.7086  0.2126  0.6398
  463MOL0     H62479   5.262   5.243   0.572  1.0310 -2.8970  0.8461
  463MOL0     H62480   5.317   5.350   0.710 -1.1470 -0.6461  4.5757
  463MOL0     H62481   5.025   5.276   0.662 -0.9110  2.5305 -0.3059
  463MOL0     H62482   5.097   5.413   0.755 -0.1226 -1.8278  2.0053
  463MOL0     H62483   5.191   5.493   0.532 -0.2106 -0.2668  0.1744
  463MOL0     H62484   5.033   5.530   0.566 -1.8408 -1.3007  2.3005
  463MOL0     H62485   4.927   5.338   0.434  0.1190 -0.8204 -0.0226
  463MOL0     H62486   5.070   5.250   0.443 -1.2980  0.9721  2.0512
  463MOL0     H62487   5.623   4.693   0.580  1.1662  1.0427 -0.1997
  463MOL0     H62488   5.849   4.591   0.563  0.0855  0.6414 -0.8563
  463MOL0     H62489   6.252   4.495   0.848  1.8902  0.8460  1.9220
  463MOL0     H62490   6.447   4.382   0.820 -0.3749  0.4612  0.5423
  463MOL0     H62491   8.425   4.588  -0.190  0.3082 -1.5837 -0.9861
  463MOL0     H62492   8.664   4.639  -0.157  1.7203  1.7413  1.2388
  463MOL0     H62493   9.035   4.640   0.101  4.5106 -0.1917  1.7067
  463MOL0     H62494   9.260   4.697   0.106 -2.3012 -0.9697 -1.1987
  463MOL0     H62495   9.448   4.802   0.170 -0.4340 -0.0757 -0.3347
  463MOL0     H62496   9.469   4.771  -0.002  1.6108  0.4906 -0.2376
  463MOL0     H62497   9.619   4.963  -0.024  1.2137  0.0002  0.2270
  463MOL0     H62498   9.684   4.821   0.037  0.4815  1.1724 -0.8851
  463MOL0     H62499   9.624   4.918   0.278 -0.0995 -0.8226  0.3570
  463MOL0     H62500   9.614   5.075   0.197  0.9543 -0.2112  2.0316
  463MOL0     H62501   9.819   5.081   0.300  2.3889  1.4256 -0.5245
  463MOL0     H62502   9.829   5.073   0.122 -3.1166  0.9439 -0.4318
  463MOL0     H62503  10.012   4.726   0.307 -0.0355  0.6484  0.6924
  463MOL0     H62504   9.152   5.107   0.015  2.3387 -1.4978 -0.4588
  463MOL0     H62505   8.934   5.058   0.008 -1.4447 -0.3275  2.4781
  464MOL0     O62506   8.075   5.733   3.899 -0.5202  0.0111  0.2425
  464MOL0     C62507   8.148   5.788   3.981  0.3754 -0.6631  0.2225
  464MOL0     O62508   8.129   5.784   4.118  0.3040 -0.0351  0.3677
  464MOL0     C62509   8.021   5.725   4.174 -0.2607  0.5079 -0.3009
  464MOL0     C62510   7.886   5.765   4.134  0.0075  0.2490 -0.7735
  464MOL0     C62511   7.772   5.688   4.177 -0.2099  0.8977  0.1657
  464MOL0     C62512   7.801   5.580   4.257  0.2936  0.6866 -0.2605
  464MOL0     O62513   7.699   5.503   4.321 -0.4290 -0.6919  0.1434
  464MOL0     C62514   7.570   5.505   4.249 -0.9217 -0.7687 -0.8338
  464MOL0     C62515   7.487   5.391   4.295 -0.1310  0.3531 -0.6523
  464MOL0     C62516   7.353   5.394   4.217  0.8172  0.6023 -0.5394
  464MOL0     C62517   7.366   5.409   4.064  0.2060  0.1284 -0.2893
  464MOL0     C62518   7.237   5.380   3.977  0.0082 -0.1746  0.2322
  464MOL0     C62519   7.125   5.479   3.994  0.8456 -0.2222 -0.8584
  464MOL0     C62520   6.995   5.425   3.937  0.9138  0.0510 -0.2752
  464MOL0     C62521   6.871   5.459   4.020  0.1074  1.0487  0.5036
  464MOL0     N62522   6.850   5.595   4.002 -0.4697 -0.4901 -0.6777
  464MOL0     C62523   6.782   5.645   3.895  0.7051 -0.0718  0.0392
  464MOL0     C62524   6.750   5.769   3.931  0.2156  0.0128 -0.1945
  464MOL0     C62525   6.677   5.870   3.846  0.8688  0.2813 -0.3935
  464MOL0     C62526   6.706   5.870   3.694 -0.3928 -0.5326 -0.5051
  464MOL0     C62527   6.853   5.857   3.652 -0.0134  0.6505 -0.3781
  464MOL0     C62528   6.944   5.984   3.687 -0.4584 -0.3749  0.6176
  464MOL0     O62529   7.058   6.008   3.607  0.0273 -0.2658 -0.1656
  464MOL0     C62530   7.166   5.928   3.622  0.0979 -0.3614  0.3985
  464MOL0     C62531   7.206   5.856   3.733 -0.4058 -0.0262 -1.4055
  464MOL0     C62532   7.328   5.795   3.746 -0.3374  0.8151  0.6296
  464MOL0     C62533   7.369   5.735   3.873 -0.3818 -0.8045 -0.2987
  464MOL0     C62534   7.412   5.792   3.634 -1.0305  0.5723 -0.0458
  464MOL0     C62535   7.548   5.737   3.620 -0.4254  0.2566 -0.2429
  464MOL0     O62536   7.648   5.816   3.581  0.2054 -0.5002 -0.7558
  464MOL0     C62537   7.776   5.776   3.567 -0.1189  0.0906 -0.5639
  464MOL0     C62538   7.855   5.861   3.495  0.0628  0.3265 -0.0754
  464MOL0     C62539   7.992   5.842   3.475 -0.2575 -0.0867  0.0031
  464MOL0     C62540   8.048   5.727   3.531 -0.4997  0.5248  0.0029
  464MOL0     O62541   8.189   5.712   3.515  0.3190  0.2237 -0.2057
  464MOL0     C62542   8.243   5.580   3.515  0.7174 -0.1374 -0.4565
  464MOL0     C62543   8.372   5.593   3.439  0.3390  1.3095  0.8136
  464MOL0     C62544   8.468   5.688   3.499 -0.0413  0.2007  0.6760
  464MOL0     C62545   8.592   5.706   3.410  0.0414 -0.8334 -0.8651
  464MOL0     C62546   8.671   5.833   3.445  0.0282 -0.5924 -0.3543
  464MOL0     C62547   8.828   5.820   3.415  0.7328 -0.0893  0.5809
  464MOL0     C62548   8.897   5.924   3.503 -0.5341  0.8311 -0.0496
  464MOL0     C62549   9.044   5.934   3.460 -0.2035  0.5520  0.8448
  464MOL0    Cl62550   9.135   6.041   3.564 -0.1951 -0.4666 -1.0372
  464MOL0     C62551   7.975   5.637   3.608 -0.2663 -1.0165  0.1305
  464MOL0     C62552   7.842   5.664   3.624 -0.1750 -0.7487 -0.7074
  464MOL0     O62553   7.569   5.622   3.662 -0.2767  0.7548 -0.0937
  464MOL0     C62554   7.376   5.860   3.525  0.2144  0.1709 -0.2606
  464MOL0     C62555   7.253   5.926   3.515 -0.1012 -0.6816  0.3071
  464MOL0     N62556   6.803   5.796   4.061  0.4050  0.4435  0.7125
  464MOL0     N62557   6.862   5.687   4.102 -0.8236 -0.5466 -0.9492
  464MOL0     C62558   7.934   5.551   4.308  0.5957  0.0741  0.2595
  464MOL0     C62559   8.044   5.620   4.263 -0.3941 -0.1644  0.7462
  464MOL0     C62560   8.249   5.878   3.922  0.1910 -1.0255  0.2526
  464MOL0     C62561   8.259   5.909   3.790 -0.1714  0.0278  0.2816
  464MOL0     C62562   8.345   6.003   3.742 -0.5827 -0.7435 -0.3828
  464MOL0     C62563   8.435   6.069   3.830  0.3354  0.3402  0.0612
  464MOL0     O62564   8.528   6.151   3.772  0.1020  0.5827 -0.1616
  464MOL0     C62565   8.654   6.086   3.763  0.7621 -0.2286 -0.4576
  464MOL0     C62566   8.751   6.156   3.857  0.4580  0.1670  0.3718
  464MOL0     C62567   8.894   6.117   3.830 -0.8302  0.5674 -0.2502
  464MOL0     C62568   8.993   6.207   3.899  0.3703 -1.0572 -0.3154
  464MOL0     C62569   9.003   6.205   4.046  0.1183  0.5467 -0.2941
  464MOL0     C62570   9.016   6.203   4.167  0.0792  0.6116  0.0557
  464MOL0     C62571   8.438   6.041   3.965  0.5127 -0.1454 -0.1472
  464MOL0     C62572   8.334   5.950   4.017  0.0745  0.1728  0.7102
  464MOL0     H62573   7.863   5.849   4.069  2.5399  0.6826 -1.2152
  464MOL0     H62574   7.671   5.719   4.153 -0.9820 -2.3003 -1.3039
  464MOL0     H62575   7.528   5.606   4.256  0.4179 -0.2709  0.7331
  464MOL0     H62576   7.600   5.485   4.146 -0.4889  0.8135 -1.0484
  464MOL0     H62577   7.544   5.299   4.279  0.6623  0.2037  2.4277
  464MOL0     H62578   7.468   5.393   4.403 -1.8621 -0.6481 -0.8994
  464MOL0     H62579   7.313   5.295   4.240  1.2182  0.6263  0.3157
  464MOL0     H62580   7.290   5.468   4.267  0.0702 -1.6923  2.2224
  464MOL0     H62581   7.395   5.515   4.060 -2.0024  0.8192  0.5984
  464MOL0     H62582   7.446   5.342   4.031  1.9199  1.3213  1.2599
  464MOL0     H62583   7.278   5.368   3.876 -3.5115  0.4297 -1.4113
  464MOL0     H62584   7.215   5.277   4.006  1.4112  0.5728  4.6977
  464MOL0     H62585   7.106   5.510   4.097  0.2901 -4.0134  0.3374
  464MOL0     H62586   7.148   5.568   3.934 -2.2373  2.2668  1.2688
  464MOL0     H62587   6.990   5.477   3.841  1.0623  0.7032  0.0616
  464MOL0     H62588   7.002   5.316   3.927 -1.1988 -0.1997  0.5455
  464MOL0     H62589   6.875   5.422   4.122 -3.2850 -0.0111  0.3848
  464MOL0     H62590   6.784   5.408   3.977  3.0037 -0.9643 -3.6606
  464MOL0     H62591   6.746   5.597   3.804 -1.9525  3.1951 -0.8100
  464MOL0     H62592   6.571   5.847   3.856  0.7207  1.5189  1.4032
  464MOL0     H62593   6.684   5.967   3.895  1.1715  0.1640 -0.2055
  464MOL0     H62594   6.659   5.948   3.634 -1.4432 -1.6282 -1.1588
  464MOL0     H62595   6.660   5.777   3.658  2.1416 -2.2428  0.3359
  464MOL0     H62596   6.856   5.856   3.542 -0.7463  1.7267 -0.4325
  464MOL0     H62597   6.897   5.763   3.684  0.7776  0.7053 -1.2538
  464MOL0     H62598   6.970   5.989   3.793  3.1495 -4.9498  0.2350
  464MOL0     H62599   6.882   6.073   3.672  2.1927  1.3856 -0.6735
  464MOL0     H62600   7.145   5.861   3.823 -1.2286  1.3143 -2.0143
  464MOL0     H62601   7.402   5.632   3.854  1.6932 -0.3692  0.6369
  464MOL0     H62602   7.440   5.794   3.932 -1.1221 -1.1246  0.9518
  464MOL0     H62603   7.280   5.732   3.936 -1.7525 -0.6722 -2.1544
  464MOL0     H62604   7.811   5.952   3.455 -4.8540 -1.2875  1.0055
  464MOL0     H62605   8.056   5.910   3.421  0.4083 -2.3398 -2.2228
  464MOL0     H62606   8.264   5.577   3.623  1.4251  3.3300 -0.3609
  464MOL0     H62607   8.179   5.496   3.489 -2.2683  1.2241  1.8370
  464MOL0     H62608   8.424   5.498   3.422 -1.4535  0.0959  1.7245
  464MOL0     H62609   8.332   5.626   3.343 -4.3988 -0.7348  1.7888
  464MOL0     H62610   8.515   5.642   3.586  3.8015 -1.0485 -1.7897
  464MOL0     H62611   8.419   5.784   3.520 -1.7434 -0.7768  1.3728
  464MOL0     H62612   8.656   5.617   3.416  2.4745  0.8241 -0.9169
  464MOL0     H62613   8.566   5.723   3.306 -0.2771  0.8536 -0.5389
  464MOL0     H62614   8.671   5.854   3.552 -1.2542 -0.9648 -0.2742
  464MOL0     H62615   8.638   5.920   3.388 -0.1050 -2.1167 -2.7860
  464MOL0     H62616   8.864   5.720   3.439  0.0012 -0.2171  1.1765
  464MOL0     H62617   8.847   5.835   3.308 -4.3667 -1.2412 -0.7953
  464MOL0     H62618   8.878   5.905   3.609 -2.1904  1.1881 -0.2577
  464MOL0     H62619   8.858   6.025   3.485 -0.9094  1.2018  2.4819
  464MOL0     H62620   9.061   5.971   3.359  1.7361 -2.7093 -0.1712
  464MOL0     H62621   9.087   5.833   3.463 -3.7552 -1.1611 -0.2271
  464MOL0     H62622   8.024   5.552   3.653  5.2037  1.5213 -0.2423
  464MOL0     H62623   7.788   5.590   3.683  0.7188 -1.5495 -0.8715
  464MOL0     H62624   7.435   5.856   3.433 -1.3028  2.3162 -1.4300
  464MOL0     H62625   7.220   5.982   3.428  0.3671  1.1733  1.2499
  464MOL0     H62626   7.961   5.468   4.373 -0.0784  0.0944  0.5850
  464MOL0     H62627   8.146   5.590   4.289 -1.2392 -1.5803  2.6644
  464MOL0     H62628   8.185   5.867   3.722  2.1792  0.2579 -2.6295
  464MOL0     H62629   8.349   6.045   3.641  4.8089  1.6357  0.4503
  464MOL0     H62630   8.652   5.977   3.774  0.0965 -0.1762 -0.0062
  464MOL0     H62631   8.683   6.107   3.660 -1.4944  3.4674 -0.5106
  464MOL0     H62632   8.727   6.125   3.959 -2.7757  1.6841  0.2125
  464MOL0     H62633   8.733   6.263   3.841 -3.4028 -0.8063 -3.7169
  464MOL0     H62634   8.917   6.107   3.723  3.1584 -0.6419  0.5383
  464MOL0     H62635   8.926   6.023   3.876  1.8719  2.0453  1.2061
  464MOL0     H62636   8.953   6.308   3.887 -0.2672 -1.4421 -1.5559
  464MOL0     H62637   9.092   6.222   3.857  0.3663  0.7682  0.2655
  464MOL0     H62638   9.034   6.195   4.273  1.5979 -4.4286 -0.2952
  464MOL0     H62639   8.497   6.102   4.032 -0.4883 -0.1935  0.7997
  464MOL0     H62640   8.302   5.958   4.121 -2.3768  0.0583  0.0271
  465MOL0     O62641   7.375   0.521   6.415  0.4518  0.2055 -0.0581
  465MOL0     C62642   7.391   0.628   6.473 -0.4214 -0.5756 -0.1578
  465MOL0     O62643   7.297   0.717   6.512  0.4270 -0.1578 -0.1802
  465MOL0     C62644   7.169   0.696   6.457 -0.0778 -0.5605  0.7746
  465MOL0     C62645   7.062   0.661   6.538  0.9494  0.3189 -0.8672
  465MOL0     C62646   6.930   0.632   6.487  0.2637 -0.7378  0.2974
  465MOL0     C62647   6.913   0.645   6.347 -0.7929  0.2815  0.3037
  465MOL0     O62648   6.799   0.612   6.280  0.1965  0.2340  0.6423
  465MOL0     C62649   6.683   0.562   6.347 -0.1821 -0.3046 -1.0032
  465MOL0     C62650   6.570   0.515   6.261 -0.5394 -0.2918  0.2107
  465MOL0     C62651   6.516   0.627   6.171 -0.1552 -0.5193  1.0099
  465MOL0     C62652   6.416   0.592   6.056  0.4423 -0.9405 -0.0154
  465MOL0     C62653   6.399   0.715   5.965  0.0230  0.1369  0.3369
  465MOL0     C62654   6.260   0.714   5.895 -0.4021 -0.0955  0.1234
  465MOL0     C62655   6.152   0.745   5.993  0.4652 -0.3876 -0.7126
  465MOL0     C62656   6.032   0.782   5.918  1.2483  0.7450 -0.2125
  465MOL0     N62657   5.916   0.797   6.018  0.4899 -0.2590 -0.1377
  465MOL0     C62658   5.841   0.697   6.067  0.1902  0.3426  0.1757
  465MOL0     C62659   5.730   0.765   6.122  0.7670 -0.7585  0.4825
  465MOL0     C62660   5.618   0.690   6.190  0.9680 -0.2293 -0.3249
  465MOL0     C62661   5.479   0.768   6.187  0.1276  0.4961 -0.1507
  465MOL0     C62662   5.363   0.695   6.255 -0.1874  0.0810  0.4751
  465MOL0     C62663   5.224   0.759   6.258  0.1846  0.2229  0.2591
  465MOL0     O62664   5.227   0.900   6.295 -0.0347 -0.5800  0.3017
  465MOL0     C62665   5.102   0.961   6.307 -0.2190 -0.2798 -0.6695
  465MOL0     C62666   4.979   0.899   6.297  0.4731 -0.1123 -0.2848
  465MOL0     C62667   4.848   0.961   6.316  0.3903 -0.1493 -0.6751
  465MOL0     C62668   4.729   0.862   6.309 -0.0888 -0.0237 -0.1217
  465MOL0     C62669   4.841   1.106   6.326 -0.1861 -0.2183  0.5267
  465MOL0     C62670   4.715   1.188   6.335  0.4507  0.4023 -0.7014
  465MOL0     O62671   4.595   1.131   6.300  0.1408 -0.4951 -0.2370
  465MOL0     C62672   4.475   1.193   6.335 -0.6838  0.4890  0.5114
  465MOL0     C62673   4.410   1.285   6.252 -0.6476 -0.2816  0.4111
  465MOL0     C62674   4.295   1.352   6.290 -0.1256  0.4278 -0.7944
  465MOL0     C62675   4.247   1.342   6.423  0.2309 -0.2438  0.4232
  465MOL0     O62676   4.140   1.405   6.477  0.9931 -0.2462  0.5143
  465MOL0     C62677   4.078   1.512   6.395 -0.1432 -0.0943 -0.4047
  465MOL0     C62678   3.995   1.598   6.483  0.0425 -0.7316  1.6375
  465MOL0     C62679   3.908   1.707   6.417  0.4212  0.6858 -0.3256
  465MOL0     C62680   3.761   1.687   6.475 -0.1016  0.5408 -0.1013
  465MOL0     C62681   3.675   1.805   6.447  0.2578 -0.4385 -0.1930
  465MOL0     C62682   3.543   1.821   6.523 -0.3873 -0.0316 -0.1542
  465MOL0     C62683   3.449   1.711   6.537  0.6470  0.3974 -0.6008
  465MOL0     C62684   3.310   1.768   6.584 -0.5907  1.4094  0.5793
  465MOL0    Cl62685   3.344   1.869   6.730 -0.1631  0.0355  0.0492
  465MOL0     C62686   4.315   1.256   6.505  0.4965  0.2540 -0.7614
  465MOL0     C62687   4.418   1.177   6.465  1.0609  0.3467 -0.2160
  465MOL0     O62688   4.725   1.302   6.365  0.0555 -0.2039 -0.4049
  465MOL0     C62689   4.966   1.170   6.331 -0.3941 -0.5119  0.0921
  465MOL0     C62690   5.089   1.101   6.320  0.2786 -0.0808  0.6904
  465MOL0     N62691   5.744   0.900   6.087 -0.2172 -0.7846  0.5677
  465MOL0     N62692   5.851   0.915   6.040  0.0347 -0.5057 -0.2031
  465MOL0     C62693   7.023   0.681   6.267  0.6296 -0.2578 -0.4405
  465MOL0     C62694   7.150   0.705   6.319  0.0693  0.2313 -0.2050
  465MOL0     C62695   7.528   0.659   6.516 -0.4120 -0.3955  0.5404
  465MOL0     C62696   7.551   0.723   6.639  0.2101 -0.7163 -0.0516
  465MOL0     C62697   7.683   0.738   6.682 -0.1142  0.3699  0.4491
  465MOL0     C62698   7.786   0.689   6.612  0.5295  0.4490  0.4087
  465MOL0     O62699   7.903   0.696   6.687  1.2218 -0.0084  0.1595
  465MOL0     C62700   8.029   0.729   6.621  0.5159 -0.8794 -0.1168
  465MOL0     C62701   8.090   0.839   6.705  0.4666 -0.8059 -0.0779
  465MOL0     C62702   8.116   0.809   6.850 -0.2327  1.0638 -0.2344
  465MOL0     C62703   8.231   0.709   6.862  0.1406  0.3500  0.0998
  465MOL0     C62704   8.197   0.568   6.904 -0.1197  0.7688  0.1364
  465MOL0     C62705   8.151   0.459   6.946 -0.8434 -0.3101 -0.1685
  465MOL0     C62706   7.768   0.634   6.488  0.2363 -0.1751 -0.2531
  465MOL0     C62707   7.637   0.620   6.436 -0.9595  0.8640  0.2584
  465MOL0     H62708   7.071   0.655   6.646 -2.7755 -3.2716 -0.5186
  465MOL0     H62709   6.852   0.625   6.562 -1.5334  0.9710 -1.3056
  465MOL0     H62710   6.704   0.472   6.407 -1.8871 -0.6071 -0.8075
  465MOL0     H62711   6.649   0.636   6.420  1.4981 -1.1300  0.6989
  465MOL0     H62712   6.606   0.432   6.200 -0.3923 -0.5735  0.6780
  465MOL0     H62713   6.485   0.489   6.325 -1.7186  2.5911 -0.0375
  465MOL0     H62714   6.467   0.698   6.238 -2.4430 -0.5621 -0.5162
  465MOL0     H62715   6.603   0.680   6.131 -0.2038 -2.4023 -1.9219
  465MOL0     H62716   6.447   0.502   6.002  0.9296 -1.0712  0.4661
  465MOL0     H62717   6.325   0.554   6.103 -1.0967 -1.4144 -3.1362
  465MOL0     H62718   6.411   0.803   6.029 -0.8266 -0.8777  1.9365
  465MOL0     H62719   6.480   0.711   5.891 -1.4881 -0.0409 -1.3864
  465MOL0     H62720   6.265   0.795   5.822 -0.4828 -1.0673 -0.9896
  465MOL0     H62721   6.235   0.621   5.844  3.0292 -0.6097 -0.8981
  465MOL0     H62722   6.127   0.656   6.052  0.2547  0.0348 -0.1515
  465MOL0     H62723   6.177   0.824   6.064 -0.8839 -1.1931  0.7273
  465MOL0     H62724   5.998   0.711   5.842  0.6439  0.1969  0.5483
  465MOL0     H62725   6.043   0.871   5.855 -3.5021 -0.5378 -3.3233
  465MOL0     H62726   5.855   0.590   6.078  2.5702  0.4970 -0.7966
  465MOL0     H62727   5.611   0.596   6.134  1.9357  0.6421 -1.9707
  465MOL0     H62728   5.635   0.678   6.297  0.5484  4.1282  0.4164
  465MOL0     H62729   5.450   0.785   6.083  0.1627  0.6193 -0.1404
  465MOL0     H62730   5.489   0.865   6.237 -0.1990  1.2029 -1.4031
  465MOL0     H62731   5.388   0.686   6.362  0.0874  0.1901  0.4215
  465MOL0     H62732   5.353   0.595   6.212 -2.8115  1.1331 -1.6340
  465MOL0     H62733   5.161   0.707   6.330  0.1907  1.4124  1.1580
  465MOL0     H62734   5.161   0.745   6.169 -3.5273  1.3788  2.4881
  465MOL0     H62735   4.969   0.791   6.286 -3.1357  0.0871 -0.1584
  465MOL0     H62736   4.753   0.759   6.283  1.6028  0.9819 -2.9436
  465MOL0     H62737   4.679   0.863   6.406 -3.9632  2.8780 -1.8807
  465MOL0     H62738   4.665   0.903   6.230 -0.6821 -4.4917 -2.2612
  465MOL0     H62739   4.458   1.303   6.157 -0.2875 -0.8117  0.4843
  465MOL0     H62740   4.248   1.428   6.229  0.7410  1.0293 -0.7297
  465MOL0     H62741   4.153   1.569   6.341  1.1590 -1.7243 -0.3824
  465MOL0     H62742   4.018   1.453   6.326 -0.4514 -1.7631  1.1967
  465MOL0     H62743   3.935   1.523   6.535 -0.6558 -1.7749 -0.5496
  465MOL0     H62744   4.070   1.647   6.545  1.3545 -1.2994  0.5705
  465MOL0     H62745   3.911   1.691   6.309  0.0734 -1.7060 -0.0302
  465MOL0     H62746   3.949   1.806   6.443  0.5726  1.1194 -2.1208
  465MOL0     H62747   3.721   1.595   6.432 -0.7153  0.1513  1.2528
  465MOL0     H62748   3.774   1.668   6.582 -0.8907 -2.2545 -0.4296
  465MOL0     H62749   3.645   1.809   6.342  0.7172 -2.5759 -0.4495
  465MOL0     H62750   3.728   1.899   6.468 -1.9517  1.2546 -1.6802
  465MOL0     H62751   3.573   1.844   6.626 -0.1105  0.0523 -0.2522
  465MOL0     H62752   3.493   1.907   6.477 -0.0793 -0.6202 -1.6436
  465MOL0     H62753   3.483   1.631   6.604  1.1878  0.6697 -0.5433
  465MOL0     H62754   3.434   1.659   6.442 -1.7874 -0.6846  0.2692
  465MOL0     H62755   3.249   1.684   6.617  1.9839 -0.6805  0.3856
  465MOL0     H62756   3.258   1.826   6.507 -3.3644  0.0715  1.3129
  465MOL0     H62757   4.294   1.245   6.611 -0.6723 -0.1228 -1.0150
  465MOL0     H62758   4.470   1.106   6.528  1.8365  0.4430 -0.7260
  465MOL0     H62759   4.973   1.278   6.321  1.5597 -0.7344 -1.5737
  465MOL0     H62760   5.181   1.158   6.315  0.4231 -0.3354  0.4352
  465MOL0     H62761   7.005   0.683   6.160  0.0488 -0.6816 -0.3566
  465MOL0     H62762   7.225   0.726   6.243 -0.0949  0.7823 -0.2219
  465MOL0     H62763   7.469   0.767   6.696  0.3416  0.9020 -1.0425
  465MOL0     H62764   7.695   0.779   6.782  2.0259 -2.9639  1.7209
  465MOL0     H62765   8.096   0.643   6.618 -0.5193 -1.7162  0.4093
  465MOL0     H62766   8.020   0.758   6.515 -0.4908  1.5149  0.5616
  465MOL0     H62767   8.016   0.920   6.712  0.2200 -1.0290 -0.1076
  465MOL0     H62768   8.176   0.881   6.653  1.1665 -2.4719 -0.3081
  465MOL0     H62769   8.032   0.766   6.906 -0.1582 -0.7038 -1.4156
  465MOL0     H62770   8.142   0.901   6.904  0.8007  0.5790  0.1189
  465MOL0     H62771   8.287   0.762   6.939 -1.1761  1.3026  0.4353
  465MOL0     H62772   8.289   0.707   6.769 -0.3677 -1.3200 -0.2293
  465MOL0     H62773   8.115   0.369   6.991  1.0131  0.7154  3.8255
  465MOL0     H62774   7.850   0.604   6.424  0.0904  0.5771 -0.8132
  465MOL0     H62775   7.617   0.578   6.338 -1.5891  0.2283  0.6445
  466MOL0     O62776   7.456   3.327   5.687  0.0424 -0.3307  0.0891
  466MOL0     C62777   7.550   3.300   5.617  0.7619 -0.2757 -0.0775
  466MOL0     O62778   7.559   3.189   5.535 -0.6748 -0.3885  0.0716
  466MOL0     C62779   7.466   3.084   5.511 -0.2605 -1.2965  0.0981
  466MOL0     C62780   7.518   2.964   5.469 -0.1669 -0.1383 -0.4192
  466MOL0     C62781   7.426   2.867   5.433  0.0541  0.0875  0.3996
  466MOL0     C62782   7.282   2.885   5.431  0.3957 -0.1728 -0.1874
  466MOL0     O62783   7.194   2.785   5.404  0.3080 -0.1944 -0.8325
  466MOL0     C62784   7.242   2.697   5.309  0.3621  0.3407  0.8954
  466MOL0     C62785   7.124   2.610   5.268 -0.9867 -1.0489 -0.3483
  466MOL0     C62786   7.072   2.511   5.371  0.3802 -0.4052  0.1697
  466MOL0     C62787   6.977   2.395   5.324  0.1152  0.3000  0.1936
  466MOL0     C62788   6.966   2.286   5.433 -1.0236 -0.7641 -0.0805
  466MOL0     C62789   6.861   2.177   5.411  0.4676  0.7088 -0.0253
  466MOL0     C62790   6.718   2.226   5.436  0.2441  0.4277  0.2869
  466MOL0     C62791   6.707   2.256   5.584  0.8351 -0.4722  0.4080
  466MOL0     N62792   6.563   2.288   5.615  1.0613  0.7449  0.1529
  466MOL0     C62793   6.451   2.211   5.608  0.6357 -0.6268  0.3687
  466MOL0     C62794   6.351   2.295   5.660  0.1722 -1.5388  0.3194
  466MOL0     C62795   6.209   2.246   5.692  0.0824  0.0087 -0.9603
  466MOL0     C62796   6.099   2.315   5.612  0.2143  0.3578 -0.5373
  466MOL0     C62797   5.959   2.299   5.670 -0.1051 -0.0456  0.2266
  466MOL0     C62798   5.896   2.161   5.651 -0.8074  0.2418 -0.8669
  466MOL0     O62799   5.784   2.162   5.737  0.0526  0.9193  0.0027
  466MOL0     C62800   5.664   2.156   5.671  0.9861 -0.4051 -0.0178
  466MOL0     C62801   5.619   2.058   5.578 -0.8997  0.0696  0.4203
  466MOL0     C62802   5.490   2.081   5.520  0.6126  0.3270 -0.4255
  466MOL0     C62803   5.465   1.991   5.402  0.7598 -0.6241 -0.4623
  466MOL0     C62804   5.394   2.177   5.563 -0.6419 -0.1359  0.2809
  466MOL0     C62805   5.260   2.198   5.503  0.6135 -0.3561 -0.7923
  466MOL0     O62806   5.202   2.088   5.461  0.7974 -0.0070 -0.1041
  466MOL0     C62807   5.071   2.091   5.402 -0.5631 -0.5600 -0.1205
  466MOL0     C62808   5.019   2.192   5.320 -0.1475  0.6805 -0.2415
  466MOL0     C62809   4.885   2.187   5.269 -0.6269 -0.1737 -0.2016
  466MOL0     C62810   4.807   2.068   5.284 -0.3050 -0.4854 -0.9291
  466MOL0     O62811   4.675   2.060   5.256 -0.3678 -0.0654  0.0607
  466MOL0     C62812   4.612   2.154   5.163 -0.3253  0.7198 -0.1748
  466MOL0     C62813   4.459   2.121   5.163 -0.2411 -0.4542 -0.0317
  466MOL0     C62814   4.397   2.176   5.033 -0.7768  0.1207 -0.3773
  466MOL0     C62815   4.249   2.131   5.026 -0.4582 -0.3158  0.7163
  466MOL0     C62816   4.172   2.235   5.095  0.3881 -0.3953  0.5940
  466MOL0     C62817   4.024   2.192   5.111 -0.1792 -0.4001  0.0768
  466MOL0     C62818   3.942   2.311   5.166 -0.0818 -0.4838 -0.0488
  466MOL0     C62819   3.788   2.277   5.165  0.6962  0.0666  0.6880
  466MOL0    Cl62820   3.719   2.268   4.986 -0.0792 -0.0248  0.0296
  466MOL0     C62821   4.863   1.963   5.358  0.0954  0.6628 -0.9465
  466MOL0     C62822   4.987   1.982   5.416  0.2998  0.0405  0.5760
  466MOL0     O62823   5.209   2.313   5.506  0.0685  0.0052  0.0291
  466MOL0     C62824   5.439   2.257   5.672  0.4748  0.4243  0.3894
  466MOL0     C62825   5.569   2.251   5.716 -0.8949 -0.0420  0.4242
  466MOL0     N62826   6.404   2.422   5.691 -0.1153  0.0322 -0.1334
  466MOL0     N62827   6.536   2.411   5.671  0.4546 -0.3540 -0.1190
  466MOL0     C62828   7.236   3.012   5.474  0.0745  0.3444 -0.6781
  466MOL0     C62829   7.334   3.105   5.514 -0.2301 -0.2263 -0.1627
  466MOL0     C62830   7.671   3.387   5.626  0.8491  0.4342 -0.1437
  466MOL0     C62831   7.779   3.363   5.543 -0.2288 -0.0159  0.0434
  466MOL0     C62832   7.897   3.436   5.560  0.0878 -0.1507 -0.1255
  466MOL0     C62833   7.900   3.535   5.666 -0.9104  0.5714  0.6190
  466MOL0     O62834   8.020   3.598   5.674 -0.1039 -0.5517  0.2100
  466MOL0     C62835   8.035   3.703   5.774 -0.0118  0.6597 -0.4837
  466MOL0     C62836   8.168   3.764   5.760 -1.7732  0.3050 -0.2848
  466MOL0     C62837   8.287   3.659   5.792  0.0529 -0.3336 -0.8247
  466MOL0     C62838   8.418   3.728   5.818 -0.6712  0.4008 -0.3143
  466MOL0     C62839   8.522   3.642   5.874 -1.0825 -0.1543 -0.2087
  466MOL0     C62840   8.603   3.575   5.937  0.6839 -0.6719 -0.7632
  466MOL0     C62841   7.792   3.561   5.744  0.9534  0.6700 -0.7279
  466MOL0     C62842   7.675   3.487   5.730  0.6815 -0.1270  0.2402
  466MOL0     H62843   7.624   2.940   5.468 -0.3700 -1.1733  0.6758
  466MOL0     H62844   7.463   2.765   5.433 -0.3161 -0.1361  2.9834
  466MOL0     H62845   7.280   2.753   5.223 -0.4393 -1.4783 -0.7050
  466MOL0     H62846   7.310   2.623   5.352 -1.5743 -0.2672  3.1535
  466MOL0     H62847   7.051   2.679   5.223  2.9079  1.7994 -3.0303
  466MOL0     H62848   7.155   2.542   5.188 -0.8558 -0.0991 -1.1260
  466MOL0     H62849   7.166   2.476   5.414  0.5752  0.2140  0.2610
  466MOL0     H62850   7.031   2.568   5.455  0.9733 -1.4156  1.1766
  466MOL0     H62851   6.880   2.441   5.303 -1.3983 -1.3051  2.9802
  466MOL0     H62852   7.032   2.356   5.238 -0.0044  0.8635 -0.1461
  466MOL0     H62853   7.067   2.246   5.442 -0.0801  1.3768 -0.3959
  466MOL0     H62854   6.947   2.332   5.530 -0.5665  0.0538 -0.3692
  466MOL0     H62855   6.860   2.139   5.309 -4.3099  4.5778 -1.8037
  466MOL0     H62856   6.881   2.095   5.481 -2.1198  0.8632  1.0304
  466MOL0     H62857   6.701   2.313   5.372  1.2588  0.6691  0.3330
  466MOL0     H62858   6.647   2.148   5.409  1.5090 -0.5490 -0.3250
  466MOL0     H62859   6.771   2.338   5.618  0.2563 -0.4137  1.3894
  466MOL0     H62860   6.735   2.162   5.633  1.2810 -0.9883 -0.8062
  466MOL0     H62861   6.441   2.115   5.557  2.8927 -0.0896 -1.2363
  466MOL0     H62862   6.201   2.137   5.682 -0.9753  0.1042 -1.2928
  466MOL0     H62863   6.183   2.260   5.798 -0.8079  0.4643 -1.2257
  466MOL0     H62864   6.103   2.269   5.513  2.2662  1.4662 -1.0274
  466MOL0     H62865   6.121   2.420   5.590 -0.1036  0.3132 -1.1057
  466MOL0     H62866   5.899   2.378   5.624  1.2863  0.9432  0.0253
  466MOL0     H62867   5.963   2.329   5.776 -0.9984 -0.0539  0.2671
  466MOL0     H62868   5.965   2.084   5.685 -1.2874  0.5608  0.9253
  466MOL0     H62869   5.867   2.147   5.547 -1.4108  1.0283 -0.8175
  466MOL0     H62870   5.679   1.973   5.546 -0.6789  0.6056 -0.6094
  466MOL0     H62871   5.370   1.940   5.420 -0.5242  1.2182 -1.6837
  466MOL0     H62872   5.464   2.047   5.308  1.5800  1.4097  0.6831
  466MOL0     H62873   5.539   1.911   5.390  1.8703  0.0448  1.4454
  466MOL0     H62874   5.084   2.276   5.296  0.2409  0.6237  0.5858
  466MOL0     H62875   4.840   2.273   5.221 -0.9882  0.4172  1.1508
  466MOL0     H62876   4.628   2.260   5.187  0.0222  0.9964 -1.5057
  466MOL0     H62877   4.662   2.136   5.067  2.2126 -0.7939  1.3191
  466MOL0     H62878   4.442   2.018   5.193  2.4117  0.4768  6.2912
  466MOL0     H62879   4.411   2.174   5.246  0.2728 -1.2128  0.7536
  466MOL0     H62880   4.443   2.124   4.949 -1.2939 -0.9085 -0.0458
  466MOL0     H62881   4.409   2.283   5.015 -0.4363  0.1513  0.0351
  466MOL0     H62882   4.218   2.137   4.921  4.4726  2.6409 -0.8934
  466MOL0     H62883   4.235   2.031   5.068  1.8850 -1.5307 -1.1706
  466MOL0     H62884   4.180   2.328   5.037  3.1571 -1.5192 -0.9893
  466MOL0     H62885   4.217   2.248   5.194  1.0193  0.9473  0.1552
  466MOL0     H62886   3.986   2.164   5.012  1.5535  2.2459 -1.4705
  466MOL0     H62887   4.025   2.112   5.186 -0.8544  0.4042  0.9790
  466MOL0     H62888   3.951   2.401   5.105  0.2868 -0.2633  0.3280
  466MOL0     H62889   3.968   2.337   5.269  2.2237  1.8908 -1.1206
  466MOL0     H62890   3.731   2.352   5.222  0.9205  0.1194  0.8426
  466MOL0     H62891   3.772   2.182   5.216 -1.7068  1.3908  2.6491
  466MOL0     H62892   4.803   1.876   5.382  1.7336  0.4904  3.5322
  466MOL0     H62893   5.030   1.899   5.471  1.6491  2.1173  2.8343
  466MOL0     H62894   5.360   2.311   5.724  0.3059  4.1715 -3.2172
  466MOL0     H62895   5.589   2.303   5.809 -0.0248 -2.7607  1.9002
  466MOL0     H62896   7.134   3.045   5.492  0.4510  1.5570 -0.7246
  466MOL0     H62897   7.296   3.199   5.553  1.8822  0.4214  0.4901
  466MOL0     H62898   7.775   3.276   5.479 -3.1272 -0.4220  0.6498
  466MOL0     H62899   7.979   3.417   5.491 -0.2646  0.9755 -0.8829
  466MOL0     H62900   7.953   3.772   5.750 -0.1649  0.5314 -0.3402
  466MOL0     H62901   8.029   3.669   5.878  2.4100  1.2399 -0.1116
  466MOL0     H62902   8.167   3.857   5.817  0.1292  0.4264 -0.3822
  466MOL0     H62903   8.197   3.800   5.661  1.0997  1.9483  1.0371
  466MOL0     H62904   8.302   3.589   5.709  0.7621  0.6388 -1.5421
  466MOL0     H62905   8.254   3.604   5.880 -0.4478 -0.8901 -1.3470
  466MOL0     H62906   8.407   3.801   5.899  2.1720 -0.3068  0.8316
  466MOL0     H62907   8.457   3.771   5.726 -0.2974 -1.6411 -1.1682
  466MOL0     H62908   8.669   3.504   5.984 -1.5781 -3.5339 -1.6158
  466MOL0     H62909   7.787   3.628   5.829 -0.8153 -0.4057  0.0691
  466MOL0     H62910   7.598   3.502   5.805  0.0805  0.5665 -0.4912
  467MOL0     O62911   3.890   8.651   6.017  0.3573  0.0459 -0.4910
  467MOL0     C62912   3.907   8.545   5.953  0.0285 -0.2376  0.2363
  467MOL0     O62913   3.812   8.474   5.888 -0.1147  0.0479 -0.5094
  467MOL0     C62914   3.676   8.507   5.896 -0.4988 -0.3961 -0.2236
  467MOL0     C62915   3.608   8.605   5.979  0.9723 -0.1867  0.0466
  467MOL0     C62916   3.470   8.607   5.985  0.2425 -0.3970 -0.1814
  467MOL0     C62917   3.390   8.529   5.902  0.8025  0.4552  0.5966
  467MOL0     O62918   3.252   8.522   5.894 -0.4269  0.3326 -0.1849
  467MOL0     C62919   3.170   8.599   5.985 -0.5550 -0.2126 -0.2721
  467MOL0     C62920   3.021   8.578   5.947 -0.5191 -0.0767 -0.1686
  467MOL0     C62921   2.921   8.652   6.047 -0.2548 -0.5564  0.0820
  467MOL0     C62922   2.780   8.657   5.990  0.2359  0.2539 -0.6441
  467MOL0     C62923   2.694   8.707   6.103 -0.0554 -0.4278  0.7781
  467MOL0     C62924   2.547   8.709   6.055 -0.4782  0.1118  0.1077
  467MOL0     C62925   2.473   8.799   6.147  0.4059 -0.4723  0.5818
  467MOL0     C62926   2.471   8.762   6.296  0.0457 -0.2636  0.6061
  467MOL0     N62927   2.355   8.820   6.365  0.7373  0.2653 -0.3869
  467MOL0     C62928   2.220   8.787   6.355 -0.3387 -0.6636 -0.1543
  467MOL0     C62929   2.158   8.853   6.457 -0.1138 -0.5378 -0.6270
  467MOL0     C62930   2.015   8.829   6.492 -0.4944 -0.0123 -1.7592
  467MOL0     C62931   1.927   8.939   6.439 -0.5756 -0.6963  0.8656
  467MOL0     C62932   1.781   8.918   6.485  0.3818 -0.2030  0.4183
  467MOL0     C62933   1.701   9.045   6.479 -0.0572  0.6864 -0.3511
  467MOL0     O62934   1.558   9.035   6.502 -0.2090  0.0587  0.2109
  467MOL0     C62935   1.492   9.055   6.617 -0.3622 -0.2354 -0.1200
  467MOL0     C62936   1.548   9.048   6.737  0.4781  0.0467 -0.6003
  467MOL0     C62937   1.473   9.039   6.862 -0.9925 -0.8820  0.2406
  467MOL0     C62938   1.543   9.035   6.989 -0.9898 -0.0283 -0.4138
  467MOL0     C62939   1.332   9.032   6.853 -0.0319  0.1959  0.3438
  467MOL0     C62940   1.237   8.996   6.963  0.4994 -0.3701 -0.6366
  467MOL0     O62941   1.104   8.994   6.925  0.3322  0.5092  0.3030
  467MOL0     C62942   1.014   8.961   7.022 -0.2262 -0.4817  1.0915
  467MOL0     C62943   1.016   9.039   7.142  0.1102  0.4377 -0.3441
  467MOL0     C62944   0.909   9.025   7.230 -0.4954  0.5648 -0.4697
  467MOL0     C62945   0.792   8.949   7.198 -0.1371 -0.4000 -0.0799
  467MOL0     O62946   0.681   8.938   7.272 -0.2293 -0.2913 -1.0520
  467MOL0     C62947   0.687   8.923   7.408  0.0954 -0.4696 -0.0285
  467MOL0     C62948   0.632   9.052   7.475 -0.4367 -0.9341  0.1254
  467MOL0     C62949   0.478   9.073   7.469 -0.4535 -0.1303 -0.4342
  467MOL0     C62950   0.440   9.156   7.350  0.0636  1.2665 -0.7975
  467MOL0     C62951   0.301   9.210   7.347 -0.3886 -0.7313 -0.1090
  467MOL0     C62952   0.204   9.107   7.303  0.0572 -0.7129 -0.0909
  467MOL0     C62953   0.062   9.156   7.313 -0.2506 -0.2428  0.3458
  467MOL0     C62954  -0.043   9.050   7.275  0.6287  0.1585  0.6403
  467MOL0    Cl62955  -0.208   9.116   7.292 -0.0633  0.0108 -0.5307
  467MOL0     C62956   0.795   8.876   7.073 -0.1166  0.6251  0.7713
  467MOL0     C62957   0.905   8.880   6.991  0.0181 -0.3118  0.9700
  467MOL0     O62958   1.280   8.960   7.076 -0.1136 -0.1503  0.6080
  467MOL0     C62959   1.274   9.057   6.726 -0.7767 -0.9333 -0.3785
  467MOL0     C62960   1.354   9.056   6.611  1.1510 -0.2687  0.3327
  467MOL0     N62961   2.250   8.938   6.514 -0.1624  0.4327  0.2298
  467MOL0     N62962   2.369   8.911   6.460  0.0741 -0.1566 -0.1907
  467MOL0     C62963   3.450   8.448   5.812  0.3475 -0.5490 -0.4152
  467MOL0     C62964   3.591   8.430   5.819 -0.4656 -0.7172  0.7747
  467MOL0     C62965   4.040   8.496   5.934 -0.7004  0.6956  0.7291
  467MOL0     C62966   4.063   8.382   5.852 -0.6143 -0.2098  0.0707
  467MOL0     C62967   4.199   8.357   5.823 -0.7904  0.2792  0.7415
  467MOL0     C62968   4.308   8.431   5.872 -0.3278  0.2651 -0.2400
  467MOL0     O62969   4.443   8.412   5.828  0.3771 -0.0099  0.4796
  467MOL0     C62970   4.486   8.295   5.747 -0.4415 -1.2836  0.3470
  467MOL0     C62971   4.646   8.278   5.751  0.4899 -0.9221 -0.2108
  467MOL0     C62972   4.718   8.392   5.673 -0.1711  0.5712 -0.4719
  467MOL0     C62973   4.867   8.372   5.677  0.1195  1.0543 -0.0483
  467MOL0     C62974   4.946   8.473   5.750  0.0880  0.0383 -0.1556
  467MOL0     C62975   5.034   8.533   5.806  0.4738  0.8062 -0.1640
  467MOL0     C62976   4.278   8.526   5.967 -0.2141  0.5777 -0.1407
  467MOL0     C62977   4.149   8.568   5.999  0.5136  1.0236 -0.8919
  467MOL0     H62978   3.662   8.678   6.038  0.5370  2.6605 -2.7801
  467MOL0     H62979   3.423   8.675   6.055 -0.1114  0.1974 -0.9791
  467MOL0     H62980   3.191   8.571   6.089 -0.7268  1.1193  0.1357
  467MOL0     H62981   3.193   8.706   5.988 -3.3500  0.4744 -0.9099
  467MOL0     H62982   2.996   8.608   5.845 -0.7391 -0.4228 -0.2168
  467MOL0     H62983   2.990   8.474   5.947 -0.9634  0.0525 -0.5311
  467MOL0     H62984   2.926   8.600   6.143 -1.8618 -2.3474 -0.7328
  467MOL0     H62985   2.968   8.746   6.074 -0.1885 -0.1307 -1.3959
  467MOL0     H62986   2.771   8.727   5.906  1.2483  0.2669 -0.7478
  467MOL0     H62987   2.760   8.553   5.965  0.6835  0.0833 -0.3044
  467MOL0     H62988   2.715   8.646   6.191  3.8572 -1.4204 -0.6094
  467MOL0     H62989   2.736   8.808   6.114 -0.6350 -0.2950  1.8768
  467MOL0     H62990   2.533   8.737   5.950 -1.8981 -0.9045 -0.0106
  467MOL0     H62991   2.503   8.609   6.065  3.9534 -2.0148  0.4826
  467MOL0     H62992   2.532   8.891   6.154  0.4719 -0.6567  3.6302
  467MOL0     H62993   2.369   8.816   6.118  0.5288  0.4406  0.6339
  467MOL0     H62994   2.558   8.807   6.345 -0.2609  0.2860  0.6489
  467MOL0     H62995   2.471   8.654   6.309 -0.9914 -0.0790  2.4752
  467MOL0     H62996   2.175   8.716   6.287 -1.5518  2.6387 -3.0821
  467MOL0     H62997   1.989   8.727   6.462  2.3380 -1.3274 -0.1668
  467MOL0     H62998   2.007   8.840   6.601  0.8535  2.0651 -1.8187
  467MOL0     H62999   1.940   8.946   6.331 -0.1046  0.0034  0.9569
  467MOL0     H63000   1.956   9.040   6.470 -4.8631  0.1323  2.9184
  467MOL0     H63001   1.775   8.896   6.592 -0.9355  0.4389  0.5043
  467MOL0     H63002   1.725   8.844   6.428  1.2978  0.3264 -1.2144
  467MOL0     H63003   1.716   9.072   6.374 -0.8570 -0.2117 -0.7056
  467MOL0     H63004   1.737   9.125   6.546 -4.8171  1.7467  1.3528
  467MOL0     H63005   1.656   9.040   6.741  0.7376  1.9961 -2.2503
  467MOL0     H63006   1.530   9.115   7.062  1.6418 -3.0189  3.8235
  467MOL0     H63007   1.525   8.943   7.046  2.8571 -1.3630 -1.0587
  467MOL0     H63008   1.651   9.027   6.975 -0.8445 -0.3759  0.7533
  467MOL0     H63009   1.101   9.097   7.178 -1.0416  0.6542  2.2803
  467MOL0     H63010   0.922   9.065   7.330  1.3096 -3.7577  1.2462
  467MOL0     H63011   0.638   8.832   7.444 -0.2662 -0.4656 -0.4930
  467MOL0     H63012   0.791   8.916   7.440 -0.7088  2.8182  4.2013
  467MOL0     H63013   0.659   9.042   7.581  1.2463  2.5854  0.1746
  467MOL0     H63014   0.685   9.139   7.436  2.7672 -3.4475 -1.5706
  467MOL0     H63015   0.447   9.131   7.556 -0.7611 -0.7541 -0.1284
  467MOL0     H63016   0.425   8.978   7.463  0.3877 -0.7497  1.4756
  467MOL0     H63017   0.508   9.242   7.349  0.3616  1.0320 -0.8468
  467MOL0     H63018   0.472   9.088   7.269 -0.7184  0.0607 -0.1271
  467MOL0     H63019   0.295   9.297   7.282 -0.8366 -1.4355 -1.0392
  467MOL0     H63020   0.275   9.241   7.449 -0.4776  1.6279 -0.7992
  467MOL0     H63021   0.232   9.075   7.202 -0.0033 -0.9312 -0.0383
  467MOL0     H63022   0.217   9.021   7.369  1.3679 -2.3608 -2.3409
  467MOL0     H63023   0.046   9.234   7.238 -0.2695  1.5806  2.1507
  467MOL0     H63024   0.053   9.186   7.418  1.0645 -1.7589  0.9438
  467MOL0     H63025  -0.034   8.967   7.345  2.3541 -1.0842 -0.9343
  467MOL0     H63026  -0.025   9.018   7.172 -0.4501  0.0465  0.4686
  467MOL0     H63027   0.710   8.810   7.058  0.3633  0.3793 -0.9799
  467MOL0     H63028   0.907   8.840   6.891  2.2819  1.7293  0.0999
  467MOL0     H63029   1.169   9.072   6.701 -0.8551  0.6428  0.7373
  467MOL0     H63030   1.304   9.044   6.515 -2.0295 -1.6812  2.0299
  467MOL0     H63031   3.380   8.403   5.743 -1.5970  1.3412  0.1705
  467MOL0     H63032   3.637   8.344   5.773  2.3835  0.4566  1.1870
  467MOL0     H63033   3.990   8.315   5.808  0.8276 -1.1580 -0.9595
  467MOL0     H63034   4.209   8.261   5.774  0.2056  0.8179 -0.1220
  467MOL0     H63035   4.431   8.207   5.780 -3.8390  0.2619 -0.7463
  467MOL0     H63036   4.476   8.322   5.641  1.0192  1.8076  0.8819
  467MOL0     H63037   4.665   8.184   5.699 -0.1310 -1.1951  0.0461
  467MOL0     H63038   4.672   8.265   5.857 -0.8204  2.9203  0.7405
  467MOL0     H63039   4.703   8.488   5.723 -0.6107  1.8584 -2.8822
  467MOL0     H63040   4.682   8.408   5.571  2.3422 -1.9590 -1.8925
  467MOL0     H63041   4.906   8.371   5.575 -1.4806  0.3916 -0.6916
  467MOL0     H63042   4.885   8.274   5.723  1.2498  1.0962 -0.3700
  467MOL0     H63043   5.102   8.612   5.831  1.9847 -0.4469 -0.1537
  467MOL0     H63044   4.367   8.571   6.011  0.9532 -1.5331 -0.2016
  467MOL0     H63045   4.128   8.645   6.071  0.8150 -0.7910  1.2502
  468MOL0     O63046   9.516   2.209  10.329  0.1680 -0.5387  0.1465
  468MOL0     C63047   9.591   2.259  10.405  0.5210  0.6152  0.1786
  468MOL0     O63048   9.718   2.294  10.368 -0.2873  0.0558  0.4647
  468MOL0     C63049   9.743   2.303  10.229  0.0770 -0.0043 -0.3512
  468MOL0     C63050   9.832   2.211  10.167  0.2174  0.6631  0.1060
  468MOL0     C63051   9.871   2.224  10.036 -0.2870  0.6290 -0.6437
  468MOL0     C63052   9.821   2.330   9.959  0.1955  0.1495  0.0905
  468MOL0     O63053   9.864   2.338   9.818  0.4625 -0.1368 -0.5048
  468MOL0     C63054   9.815   2.445   9.741 -1.0410  0.3430 -0.3632
  468MOL0     C63055   9.878   2.453   9.599  0.5833  0.2952 -0.5678
  468MOL0     C63056   9.802   2.546   9.504 -0.9972 -1.0992 -0.0322
  468MOL0     C63057   9.876   2.549   9.370 -0.5550  0.0319 -1.1472
  468MOL0     C63058   9.829   2.625   9.258 -0.7750  0.8514 -0.7021
  468MOL0     C63059   9.682   2.609   9.213  0.7377  0.3483  0.7316
  468MOL0     C63060   9.665   2.667   9.061 -0.1986 -1.1812 -0.4490
  468MOL0     C63061   9.512   2.647   9.019  0.8929  0.5340 -0.0300
  468MOL0     N63062   9.469   2.717   8.896  0.3239 -0.2237 -0.2949
  468MOL0     C63063   9.526   2.693   8.773  0.3815  0.0077  0.0212
  468MOL0     C63064   9.426   2.689   8.680 -0.8784  0.6432 -0.1795
  468MOL0     C63065   9.426   2.640   8.538 -0.4106 -0.2424 -0.1688
  468MOL0     C63066   9.466   2.486   8.524 -0.6872  0.1949  0.5431
  468MOL0     C63067   9.460   2.429   8.382  0.4190 -0.3674 -0.7216
  468MOL0     C63068   9.321   2.417   8.316 -0.2359 -0.7453  0.1856
  468MOL0     O63069   9.228   2.334   8.389 -0.5591 -0.3925 -0.1961
  468MOL0     C63070   9.120   2.293   8.321 -0.2255 -0.8222 -0.1302
  468MOL0     C63071   9.084   2.296   8.189 -0.3398  0.2775  0.6148
  468MOL0     C63072   8.960   2.261   8.138 -0.0833  0.6536  0.7712
  468MOL0     C63073   8.925   2.291   7.994 -0.4587  0.2315  0.7280
  468MOL0     C63074   8.856   2.209   8.233  0.0196  0.2264  0.4402
  468MOL0     C63075   8.726   2.144   8.192  0.5560 -0.7192 -0.4792
  468MOL0     O63076   8.692   2.142   8.059  0.1818  0.0925  0.0532
  468MOL0     C63077   8.572   2.083   8.019  0.5684 -0.1404 -0.2564
  468MOL0     C63078   8.449   2.098   8.083  0.7915 -0.1196 -0.8074
  468MOL0     C63079   8.333   2.043   8.030  0.2941 -0.3583 -0.5868
  468MOL0     C63080   8.334   1.957   7.915 -0.0220  0.0529 -0.5650
  468MOL0     O63081   8.210   1.902   7.873  0.7857  0.3160 -0.7042
  468MOL0     C63082   8.192   1.870   7.733 -0.1859  0.7552 -0.8492
  468MOL0     C63083   8.229   1.721   7.710  0.6897 -0.0836  0.3298
  468MOL0     C63084   8.113   1.631   7.733 -0.2416  0.7916  0.4377
  468MOL0     C63085   7.997   1.643   7.626 -0.7680 -0.4306 -0.1188
  468MOL0     C63086   7.892   1.539   7.647 -0.1606 -0.3478 -0.0446
  468MOL0     C63087   7.893   1.425   7.543 -0.7663 -0.8438 -0.1980
  468MOL0     C63088   7.786   1.311   7.567 -0.2980  0.0174  0.3182
  468MOL0     C63089   7.830   1.235   7.696 -0.4447 -0.1478  1.4595
  468MOL0    Cl63090   7.728   1.093   7.733 -0.8023 -0.2226  0.1470
  468MOL0     C63091   8.462   1.936   7.862  0.5236  0.2151  1.5252
  468MOL0     C63092   8.580   2.000   7.911  0.0985  0.3659  0.3637
  468MOL0     O63093   8.667   2.086   8.284 -0.5332 -0.1661  0.3910
  468MOL0     C63094   8.900   2.205   8.370 -0.3074 -0.6823  0.1889
  468MOL0     C63095   9.029   2.249   8.410  0.8640  0.0958 -0.7678
  468MOL0     N63096   9.317   2.737   8.747 -0.7122  0.5484 -0.7066
  468MOL0     N63097   9.341   2.757   8.864  0.4015  0.0034  0.4528
  468MOL0     C63098   9.719   2.412  10.017  1.3496 -0.2615 -0.3853
  468MOL0     C63099   9.683   2.404  10.152 -0.4809  0.7128 -1.1664
  468MOL0     C63100   9.566   2.261  10.551  0.3106 -0.3977  0.3465
  468MOL0     C63101   9.450   2.202  10.611 -0.3556  0.5662 -0.3616
  468MOL0     C63102   9.429   2.194  10.749  0.3668 -0.2719  0.3642
  468MOL0     C63103   9.531   2.239  10.836  0.0303 -0.2608 -0.7509
  468MOL0     O63104   9.536   2.208  10.966 -0.0109  0.8735  0.8942
  468MOL0     C63105   9.417   2.161  11.030  0.2947 -0.3114 -0.4880
  468MOL0     C63106   9.432   2.183  11.182  0.3138 -0.0830  0.6501
  468MOL0     C63107   9.303   2.153  11.276 -0.6673 -0.4594  0.4523
  468MOL0     C63108   9.203   2.043  11.224 -0.9066 -0.7825 -0.3501
  468MOL0     C63109   9.101   2.027  11.332 -0.0020 -0.8947  0.8414
  468MOL0     C63110   9.005   2.009  11.403 -0.1751  0.3840 -0.0235
  468MOL0     C63111   9.652   2.281  10.780 -0.0500  0.1241  0.3549
  468MOL0     C63112   9.668   2.293  10.645  0.2704 -0.6562  1.2914
  468MOL0     H63113   9.881   2.125  10.214  0.8971  1.1285  0.2635
  468MOL0     H63114   9.938   2.151   9.990 -1.3606 -0.1831 -0.9575
  468MOL0     H63115   9.711   2.434   9.707 -0.2515 -0.4186 -2.7066
  468MOL0     H63116   9.832   2.536   9.799  0.7472 -0.6272  0.7109
  468MOL0     H63117   9.973   2.506   9.607 -1.1131  3.2758  1.6108
  468MOL0     H63118   9.888   2.355   9.550 -4.0236  0.1795 -1.7652
  468MOL0     H63119   9.697   2.514   9.495 -2.0936  1.4428  2.2832
  468MOL0     H63120   9.801   2.648   9.543  0.1829 -0.1982 -2.2265
  468MOL0     H63121   9.979   2.582   9.384 -0.6827  0.7380 -1.8443
  468MOL0     H63122   9.887   2.442   9.349  0.8230 -1.0900  3.8499
  468MOL0     H63123   9.832   2.729   9.292 -0.2755  2.1464 -4.3439
  468MOL0     H63124   9.898   2.610   9.175  0.2409  0.9425  0.1034
  468MOL0     H63125   9.658   2.502   9.210  1.0126  0.2740  1.0927
  468MOL0     H63126   9.617   2.662   9.283 -2.2649 -2.0680  0.0255
  468MOL0     H63127   9.693   2.772   9.064 -0.7912 -1.0363  1.4864
  468MOL0     H63128   9.727   2.619   8.985  1.3564  1.6687 -1.1233
  468MOL0     H63129   9.457   2.701   9.097  2.2567  0.5905  0.9454
  468MOL0     H63130   9.482   2.542   9.016  0.0935  0.7679 -3.2489
  468MOL0     H63131   9.631   2.673   8.752  1.3359  3.3154  0.9322
  468MOL0     H63132   9.329   2.664   8.493 -0.6207  1.0366  0.9119
  468MOL0     H63133   9.507   2.697   8.492  0.2478 -1.5763 -0.7345
  468MOL0     H63134   9.393   2.436   8.588 -0.7289  0.3089  0.5839
  468MOL0     H63135   9.561   2.477   8.578 -2.5062  0.3808  4.0835
  468MOL0     H63136   9.508   2.331   8.389 -2.2084 -1.9935 -3.2235
  468MOL0     H63137   9.535   2.480   8.321  2.2540 -0.3871  1.3945
  468MOL0     H63138   9.326   2.381   8.212  2.5500  0.0511 -0.0135
  468MOL0     H63139   9.277   2.517   8.317 -4.5048 -2.3891  0.6911
  468MOL0     H63140   9.148   2.343   8.115  1.1953 -1.2884  0.8927
  468MOL0     H63141   8.909   2.194   7.946 -2.4586  0.3653  1.0270
  468MOL0     H63142   8.830   2.344   7.980 -0.2550  1.2111  2.7804
  468MOL0     H63143   9.004   2.348   7.944 -3.0849  3.9780  0.4322
  468MOL0     H63144   8.428   2.143   8.178  0.1532 -2.2844  0.1461
  468MOL0     H63145   8.235   2.065   8.073  1.1403  1.8419  0.3954
  468MOL0     H63146   8.085   1.887   7.721 -0.6766 -0.1458  1.7196
  468MOL0     H63147   8.252   1.929   7.663  0.3486 -0.3540 -1.3608
  468MOL0     H63148   8.250   1.710   7.604  2.8500  0.0396  0.6804
  468MOL0     H63149   8.319   1.691   7.766  0.4843  2.5529  2.2895
  468MOL0     H63150   8.064   1.640   7.830  0.5289 -4.3034  1.5893
  468MOL0     H63151   8.155   1.531   7.721  4.0090  2.2182  1.5907
  468MOL0     H63152   7.942   1.738   7.632  1.1909  0.7591 -0.0362
  468MOL0     H63153   8.046   1.625   7.530  1.9706 -2.4878  1.5133
  468MOL0     H63154   7.799   1.596   7.638  0.0674 -0.0796 -0.7814
  468MOL0     H63155   7.901   1.505   7.750  0.6886  0.3940  0.1340
  468MOL0     H63156   7.881   1.468   7.443  1.5468  0.0500 -0.1571
  468MOL0     H63157   7.995   1.384   7.551 -0.2343  0.7377  2.0196
  468MOL0     H63158   7.801   1.234   7.492  2.0864  1.3991 -0.7282
  468MOL0     H63159   7.683   1.349   7.573 -1.0127 -1.2693 -2.3522
  468MOL0     H63160   7.822   1.307   7.779 -0.6096  1.7271 -0.1107
  468MOL0     H63161   7.934   1.200   7.698  0.2755  1.0138 -3.6212
  468MOL0     H63162   8.475   1.859   7.787  0.0596  0.2817  1.3671
  468MOL0     H63163   8.679   1.983   7.871  0.5371 -0.7810  1.8705
  468MOL0     H63164   8.821   2.189   8.443 -0.7023  0.6131  0.0762
  468MOL0     H63165   9.049   2.242   8.516  0.5530  0.3964 -0.6900
  468MOL0     H63166   9.662   2.485   9.959 -0.8384 -1.2606  0.3747
  468MOL0     H63167   9.616   2.477  10.196  0.9033  1.9923 -1.0755
  468MOL0     H63168   9.371   2.153  10.557 -0.9768  0.7282  0.3820
  468MOL0     H63169   9.337   2.142  10.775 -0.1305  1.6050  2.7942
  468MOL0     H63170   9.340   2.230  10.995  1.4980  1.3457  0.0127
  468MOL0     H63171   9.407   2.056  10.998  0.1305 -0.5251  0.2552
  468MOL0     H63172   9.462   2.286  11.199 -1.4239  0.2780  1.7694
  468MOL0     H63173   9.506   2.112  11.220 -0.0544  0.8391  3.3145
  468MOL0     H63174   9.243   2.243  11.292  0.0242 -0.2579  2.0267
  468MOL0     H63175   9.337   2.125  11.376 -0.1025  3.2667  1.4499
  468MOL0     H63176   9.260   1.949  11.227  1.9618  0.8623  1.2584
  468MOL0     H63177   9.159   2.063  11.126 -2.1983 -1.1493  0.1317
  468MOL0     H63178   8.920   1.989  11.465  0.2075 -0.6487  0.1868
  468MOL0     H63179   9.738   2.312  10.838  0.6151 -0.7880 -0.1180
  468MOL0     H63180   9.765   2.328  10.612 -0.0237  0.0908  1.2085
  469MOL0     O63181   0.808   1.217   6.156  0.2722  0.1035 -0.5168
  469MOL0     C63182   0.850   1.112   6.195  0.3584 -0.5453  0.1530
  469MOL0     O63183   0.781   1.026   6.272 -0.3024  0.3391 -0.7072
  469MOL0     C63184   0.645   1.048   6.294 -0.2455  0.3418  0.4470
  469MOL0     C63185   0.596   1.136   6.391  0.1837  0.0402 -0.0271
  469MOL0     C63186   0.453   1.164   6.395  0.1188  0.2292 -0.0926
  469MOL0     C63187   0.361   1.105   6.308 -0.3543  0.2682  0.1957
  469MOL0     O63188   0.222   1.135   6.303  0.0035  0.2387  0.2051
  469MOL0     C63189   0.153   1.229   6.389 -0.4688  0.7429 -0.4380
  469MOL0     C63190   0.150   1.376   6.336  0.2843  0.0508  0.1156
  469MOL0     C63191   0.040   1.390   6.231  0.0947 -0.6387  0.3353
  469MOL0     C63192   0.026   1.535   6.193 -0.0229  0.3549  0.7582
  469MOL0     C63193  -0.079   1.553   6.082 -0.8662  0.4567 -0.5900
  469MOL0     C63194  -0.057   1.683   6.016  0.4732 -0.2355  0.7040
  469MOL0     C63195  -0.163   1.706   5.902  0.1014 -0.7453 -0.0963
  469MOL0     C63196  -0.290   1.766   5.954  0.3264  0.4647 -0.4633
  469MOL0     N63197  -0.370   1.802   5.836 -0.9367 -0.6229  0.7364
  469MOL0     C63198  -0.383   1.926   5.779  0.1459 -0.3939  0.4642
  469MOL0     C63199  -0.460   1.898   5.669  0.0541 -0.7581 -0.0827
  469MOL0     C63200  -0.518   1.987   5.564  0.7128  0.4828 -0.9574
  469MOL0     C63201  -0.621   2.081   5.639 -0.1652  0.4847 -0.3905
  469MOL0     C63202  -0.752   2.104   5.559  0.8593  0.8975  0.1096
  469MOL0     C63203  -0.855   2.179   5.644 -0.0860  0.1303 -0.0390
  469MOL0     O63204  -0.935   2.081   5.714 -0.1692 -1.0464  0.4748
  469MOL0     C63205  -1.072   2.107   5.716  0.1197  0.6351 -0.2077
  469MOL0     C63206  -1.153   2.033   5.632 -0.0558  0.8647 -0.6110
  469MOL0     C63207  -1.298   2.037   5.643 -0.3114 -0.1914  0.9293
  469MOL0     C63208  -1.375   1.957   5.533  0.7404 -0.7606 -0.0978
  469MOL0     C63209  -1.362   2.119   5.727  0.5873  0.1622 -0.7462
  469MOL0     C63210  -1.510   2.135   5.743 -0.8647 -0.2053 -0.4498
  469MOL0     O63211  -1.569   2.247   5.808  0.2066  0.0290  0.2041
  469MOL0     C63212  -1.698   2.247   5.845 -0.8115  0.4470  0.7136
  469MOL0     C63213  -1.804   2.218   5.764 -0.5787 -0.5359  0.5111
  469MOL0     C63214  -1.940   2.223   5.805 -0.3654 -0.0653 -0.4836
  469MOL0     C63215  -1.971   2.264   5.940  0.1513  0.0663  0.3543
  469MOL0     O63216  -2.102   2.258   5.985 -0.3053  0.0326 -0.0127
  469MOL0     C63217  -2.147   2.347   6.083 -0.1545 -0.6991  0.1645
  469MOL0     C63218  -2.302   2.370   6.094 -0.2625 -0.3342  0.9236
  469MOL0     C63219  -2.365   2.253   6.158  0.7081  0.3787  0.4981
  469MOL0     C63220  -2.516   2.275   6.186 -0.1262  0.0318  0.1296
  469MOL0     C63221  -2.562   2.215   6.311 -0.6398  0.7511 -0.1879
  469MOL0     C63222  -2.709   2.220   6.320 -0.2302 -0.2872 -0.1162
  469MOL0     C63223  -2.755   2.143   6.439 -0.3153 -0.0802 -0.1671
  469MOL0     C63224  -2.908   2.127   6.443 -0.6145  0.2559  0.0750
  469MOL0    Cl63225  -3.001   2.280   6.471  0.4363  0.3655  0.6255
  469MOL0     C63226  -1.856   2.308   6.017  0.3692  0.5386 -0.1592
  469MOL0     C63227  -1.726   2.304   5.969  0.0166 -0.1602 -0.2306
  469MOL0     O63228  -1.578   2.041   5.705  0.4967  0.7638 -0.5349
  469MOL0     C63229  -1.277   2.192   5.813  0.0084 -0.1252  0.0859
  469MOL0     C63230  -1.136   2.186   5.808  0.5804  0.0985 -0.6300
  469MOL0     N63231  -0.498   1.771   5.671  0.1920  0.0729  1.1855
  469MOL0     N63232  -0.452   1.711   5.777  0.6224 -0.0378  0.3450
  469MOL0     C63233   0.420   1.014   6.215  0.7277 -0.4416 -0.6845
  469MOL0     C63234   0.552   0.987   6.210  0.3592  0.4459  0.4179
  469MOL0     C63235   0.988   1.076   6.163  0.0681  0.4803 -0.9740
  469MOL0     C63236   1.069   1.160   6.091  0.3980 -0.9490  0.0020
  469MOL0     C63237   1.197   1.130   6.058  0.1800 -0.1103 -1.0632
  469MOL0     C63238   1.248   1.008   6.101 -0.2929  0.7714 -0.5748
  469MOL0     O63239   1.380   0.976   6.059  0.0298  0.3856  0.3927
  469MOL0     C63240   1.450   0.862   6.098  0.0373  0.0306 -0.5029
  469MOL0     C63241   1.592   0.864   6.051 -0.3750 -0.5669 -0.8607
  469MOL0     C63242   1.690   0.949   6.135  0.1114 -0.6507  0.0341
  469MOL0     C63243   1.718   0.893   6.272 -0.4225 -0.4664 -0.7787
  469MOL0     C63244   1.802   0.773   6.274  0.3564  0.2620 -0.5539
  469MOL0     C63245   1.880   0.687   6.280  0.1636 -0.4897 -0.2208
  469MOL0     C63246   1.168   0.914   6.177 -0.3048  0.3578 -0.0530
  469MOL0     C63247   1.037   0.952   6.211 -0.1177  0.0608  0.6348
  469MOL0     H63248   0.674   1.185   6.449  2.0033  0.4022 -2.6522
  469MOL0     H63249   0.422   1.244   6.461 -3.7961 -1.6630  0.6627
  469MOL0     H63250   0.053   1.186   6.402  0.4905 -1.9774 -1.3859
  469MOL0     H63251   0.190   1.232   6.492  0.9851  0.2495 -0.9315
  469MOL0     H63252   0.130   1.452   6.412 -1.0867  0.9329 -1.0519
  469MOL0     H63253   0.244   1.398   6.285 -0.4477 -1.6680 -2.1617
  469MOL0     H63254   0.063   1.329   6.144 -2.0493 -2.9482  1.2435
  469MOL0     H63255  -0.057   1.363   6.275 -1.0768  1.1844 -1.0115
  469MOL0     H63256   0.015   1.604   6.278 -3.4587  0.5036  0.3207
  469MOL0     H63257   0.125   1.573   6.166 -0.1346  0.3445  0.3312
  469MOL0     H63258  -0.073   1.471   6.009 -1.6489  0.4220 -0.6184
  469MOL0     H63259  -0.180   1.537   6.121  0.6273 -0.8467  3.2062
  469MOL0     H63260  -0.062   1.762   6.092 -2.0608 -0.9269  1.3535
  469MOL0     H63261   0.046   1.684   5.979  1.1717 -0.1536  2.5632
  469MOL0     H63262  -0.130   1.765   5.817  0.3062  0.3893  0.7415
  469MOL0     H63263  -0.180   1.608   5.857 -0.3384 -1.0168  0.6457
  469MOL0     H63264  -0.283   1.853   6.019 -1.2738  1.0206 -0.9961
  469MOL0     H63265  -0.342   1.688   6.012  0.9414  1.8092  2.0039
  469MOL0     H63266  -0.346   2.024   5.809  1.4774 -1.0365  0.9712
  469MOL0     H63267  -0.443   2.052   5.519  1.4095  0.7836  0.5545
  469MOL0     H63268  -0.577   1.925   5.497 -1.0744 -2.4310  2.8938
  469MOL0     H63269  -0.570   2.172   5.671 -0.1268 -0.6150  3.0897
  469MOL0     H63270  -0.652   2.041   5.736  0.3246  1.3417  0.1310
  469MOL0     H63271  -0.791   2.004   5.537  1.4996  0.0205  2.6232
  469MOL0     H63272  -0.745   2.163   5.468 -2.0105  2.3929  0.7758
  469MOL0     H63273  -0.921   2.243   5.584 -1.1504  0.0215  0.9600
  469MOL0     H63274  -0.797   2.240   5.713 -0.9404  0.7515  0.1536
  469MOL0     H63275  -1.109   1.967   5.558 -0.2059 -0.0341  0.0754
  469MOL0     H63276  -1.428   1.877   5.586  0.1457 -1.9463 -2.3655
  469MOL0     H63277  -1.457   2.013   5.487  0.9352 -0.9659 -0.6931
  469MOL0     H63278  -1.322   1.902   5.455  2.1826  0.5856 -0.0916
  469MOL0     H63279  -1.777   2.181   5.665 -2.1104  3.6140 -1.6930
  469MOL0     H63280  -2.013   2.178   5.740  1.4513 -1.2731 -1.7962
  469MOL0     H63281  -2.101   2.315   6.177  3.5355 -1.1949 -1.5892
  469MOL0     H63282  -2.097   2.441   6.055 -1.6985  0.6879  1.8174
  469MOL0     H63283  -2.315   2.468   6.141 -0.3401  0.5066 -0.7715
  469MOL0     H63284  -2.349   2.383   5.996 -1.8103  0.2809  1.7109
  469MOL0     H63285  -2.317   2.220   6.251  0.9269 -2.9962 -0.6628
  469MOL0     H63286  -2.346   2.164   6.096  1.3120 -1.0846  2.6540
  469MOL0     H63287  -2.540   2.381   6.196 -0.5523 -0.1806  1.5309
  469MOL0     H63288  -2.579   2.231   6.109  0.1716  0.1756 -0.2043
  469MOL0     H63289  -2.515   2.259   6.399 -0.1016 -0.5438  0.2043
  469MOL0     H63290  -2.529   2.110   6.308 -1.0912  0.5905  0.3389
  469MOL0     H63291  -2.742   2.324   6.327 -0.7898 -0.5003  0.3886
  469MOL0     H63292  -2.749   2.183   6.225  0.8487 -1.1592 -0.2578
  469MOL0     H63293  -2.711   2.192   6.527  0.8382 -2.1467  0.4610
  469MOL0     H63294  -2.716   2.041   6.438 -0.0211  0.0380 -1.5975
  469MOL0     H63295  -2.921   2.055   6.524  1.3945  0.1932  0.3995
  469MOL0     H63296  -2.939   2.064   6.359  2.5522 -0.7511 -0.4753
  469MOL0     H63297  -1.876   2.365   6.108 -1.4228  0.4048 -0.4436
  469MOL0     H63298  -1.648   2.353   6.027  0.7208 -2.3043  0.7353
  469MOL0     H63299  -1.323   2.261   5.882  0.1553 -0.3874  0.4475
  469MOL0     H63300  -1.081   2.246   5.880  0.9835 -2.5915  1.4722
  469MOL0     H63301   0.368   0.979   6.126  1.5232 -0.4516 -1.1546
  469MOL0     H63302   0.596   0.924   6.133 -0.0124  0.4015  0.2397
  469MOL0     H63303   1.027   1.254   6.058 -2.5101 -1.6001  1.4879
  469MOL0     H63304   1.263   1.202   6.013  0.6611  1.6626  2.1563
  469MOL0     H63305   1.442   0.843   6.206  0.2080 -1.9356 -0.8015
  469MOL0     H63306   1.400   0.774   6.055 -0.9312  1.6042 -2.7786
  469MOL0     H63307   1.596   0.909   5.951 -0.7579  1.4726 -0.0095
  469MOL0     H63308   1.622   0.759   6.052 -2.2644 -1.4463  5.4194
  469MOL0     H63309   1.653   1.051   6.148  0.1558 -0.7619  1.2078
  469MOL0     H63310   1.786   0.969   6.087  0.6920  1.3319  1.8614
  469MOL0     H63311   1.633   0.864   6.336 -0.9405  1.3531 -0.5759
  469MOL0     H63312   1.764   0.974   6.330 -2.5624  0.1605  0.1523
  469MOL0     H63313   1.955   0.612   6.270 -0.6511 -1.1879 -1.3922
  469MOL0     H63314   1.200   0.812   6.196 -0.2333  0.0275 -1.7809
  469MOL0     H63315   0.996   0.880   6.281  0.0339 -0.1798  0.4774
  470MOL0     O63316   7.145   4.380   4.100  0.1724  0.0175  0.6421
  470MOL0     C63317   7.168   4.277   4.031  0.5815  0.3333 -1.0815
  470MOL0     O63318   7.073   4.197   3.962 -0.0127 -0.1472 -0.3028
  470MOL0     C63319   6.948   4.250   3.924  0.0930  0.6103 -0.5851
  470MOL0     C63320   6.935   4.381   3.894 -0.5736  0.0967 -0.1198
  470MOL0     C63321   6.813   4.433   3.849  0.6429  0.6005 -0.1398
  470MOL0     C63322   6.701   4.353   3.834  0.5472  0.0740 -0.2928
  470MOL0     O63323   6.572   4.393   3.796 -0.6461  0.2641 -0.0362
  470MOL0     C63324   6.549   4.521   3.742 -0.8913 -0.0979  0.1734
  470MOL0     C63325   6.603   4.547   3.593 -0.4877 -0.3104  0.7593
  470MOL0     C63326   6.546   4.664   3.520 -0.2898 -0.1666  1.1371
  470MOL0     C63327   6.551   4.797   3.603  0.7787 -0.5072 -0.2212
  470MOL0     C63328   6.683   4.858   3.647  0.3016 -0.1595  0.2319
  470MOL0     C63329   6.666   5.004   3.701 -0.9139 -0.6329 -0.0828
  470MOL0     C63330   6.796   5.085   3.708  0.0687 -0.4132 -0.3810
  470MOL0     C63331   6.774   5.233   3.736 -0.9857 -0.5932 -1.2986
  470MOL0     N63332   6.694   5.302   3.634  0.7063  0.0767 -0.3751
  470MOL0     C63333   6.563   5.349   3.651 -0.9638  0.5497 -0.0068
  470MOL0     C63334   6.550   5.438   3.554 -0.0667 -0.0037 -0.1299
  470MOL0     C63335   6.438   5.535   3.542  0.6065  1.0106 -0.2620
  470MOL0     C63336   6.450   5.634   3.424  0.4658  0.1053 -0.7234
  470MOL0     C63337   6.330   5.731   3.421 -0.4344  0.6726 -0.1181
  470MOL0     C63338   6.192   5.666   3.397 -1.2022  0.3649 -0.0268
  470MOL0     O63339   6.139   5.633   3.531 -0.6404  0.1362  0.3098
  470MOL0     C63340   6.012   5.600   3.544 -0.4456  0.5922 -0.0360
  470MOL0     C63341   5.968   5.589   3.677 -0.2117 -0.6620  0.0404
  470MOL0     C63342   5.840   5.565   3.716  0.2234 -0.3839  0.2963
  470MOL0     C63343   5.811   5.552   3.861 -0.0235 -0.2821  0.0109
  470MOL0     C63344   5.745   5.540   3.612  0.2788 -0.1281 -0.0873
  470MOL0     C63345   5.610   5.494   3.643  0.7967  0.1657  0.2674
  470MOL0     O63346   5.558   5.407   3.542  0.1181 -0.7585 -1.3322
  470MOL0     C63347   5.426   5.374   3.552  0.2072  1.1503  0.2298
  470MOL0     C63348   5.349   5.399   3.440  0.3678  0.4071 -0.1333
  470MOL0     C63349   5.210   5.364   3.439 -0.8169  0.7082  0.7339
  470MOL0     C63350   5.161   5.289   3.547  1.0083 -0.1380 -1.1328
  470MOL0     O63351   5.028   5.245   3.549  0.0670 -0.5300  0.0842
  470MOL0     C63352   4.968   5.248   3.675 -0.3221 -0.7531 -0.0750
  470MOL0     C63353   4.826   5.264   3.648 -0.5601 -0.4325  0.2731
  470MOL0     C63354   4.754   5.262   3.775 -0.1202  0.4199 -1.0199
  470MOL0     C63355   4.602   5.277   3.746  0.9559 -0.6422 -1.0923
  470MOL0     C63356   4.506   5.279   3.870  0.9817 -0.3293  0.5219
  470MOL0     C63357   4.359   5.303   3.844  0.5365  0.2558 -0.5392
  470MOL0     C63358   4.288   5.296   3.977 -0.6209  0.7178 -0.0256
  470MOL0     C63359   4.152   5.363   3.984  0.4231 -0.3302 -0.1370
  470MOL0    Cl63360   4.030   5.277   3.889  0.0475 -0.3980 -0.3678
  470MOL0     C63361   5.240   5.261   3.659  0.0755 -0.5269  0.2909
  470MOL0     C63362   5.374   5.298   3.662 -0.5820  0.3112 -0.1604
  470MOL0     O63363   5.548   5.530   3.747 -0.5418 -0.3576  0.3903
  470MOL0     C63364   5.781   5.559   3.477  0.2080  0.2263  0.3390
  470MOL0     C63365   5.913   5.595   3.445  1.1025 -0.9935  0.6940
  470MOL0     N63366   6.667   5.450   3.491 -2.1422  0.1884 -0.3323
  470MOL0     N63367   6.759   5.382   3.543  0.1103  0.1765  0.2551
  470MOL0     C63368   6.710   4.217   3.864 -1.3304 -0.5258  0.4213
  470MOL0     C63369   6.840   4.167   3.902  0.6352  0.4286  0.1308
  470MOL0     C63370   7.312   4.226   4.029  0.0870 -0.8973 -0.5190
  470MOL0     C63371   7.351   4.143   3.932  0.2769 -0.0231  0.0425
  470MOL0     C63372   7.489   4.104   3.916  1.0204  0.0288  0.5915
  470MOL0     C63373   7.575   4.139   4.020  0.4944 -0.0285 -0.0964
  470MOL0     O63374   7.704   4.095   4.009 -0.1624 -0.6410  0.7039
  470MOL0     C63375   7.809   4.159   4.083  0.0149  1.0628  0.6883
  470MOL0     C63376   7.952   4.118   4.028 -0.7731  0.0632 -0.8864
  470MOL0     C63377   8.065   4.102   4.140  0.1632  0.7758  1.1392
  470MOL0     C63378   8.211   4.105   4.078  0.2166 -0.4152 -1.0434
  470MOL0     C63379   8.320   4.079   4.172 -0.0153  0.0398  0.4564
  470MOL0     C63380   8.421   4.025   4.221  0.3014 -0.6668 -0.7397
  470MOL0     C63381   7.530   4.205   4.129  0.0838  0.3206 -0.3090
  470MOL0     C63382   7.406   4.254   4.130  0.6636 -0.7783  0.0893
  470MOL0     H63383   7.011   4.457   3.908 -0.6453  0.5987 -2.1272
  470MOL0     H63384   6.798   4.538   3.825 -0.4745  0.6285  0.5811
  470MOL0     H63385   6.442   4.545   3.749 -0.8634 -0.1179  0.7375
  470MOL0     H63386   6.589   4.601   3.805  2.2181  0.0726 -1.8476
  470MOL0     H63387   6.708   4.566   3.617 -0.7469 -0.7177  2.3231
  470MOL0     H63388   6.597   4.455   3.533 -0.9320 -0.0191  0.3461
  470MOL0     H63389   6.616   4.686   3.438 -0.2941  0.4554  1.2976
  470MOL0     H63390   6.447   4.635   3.483 -0.5795  0.6747  1.2255
  470MOL0     H63391   6.519   4.878   3.536 -4.9799 -1.4084  0.9242
  470MOL0     H63392   6.484   4.791   3.689 -2.4598 -2.4339 -2.6735
  470MOL0     H63393   6.714   4.790   3.727 -3.0683  0.2435  2.0467
  470MOL0     H63394   6.752   4.853   3.562 -0.1202 -1.8135 -0.0541
  470MOL0     H63395   6.591   5.049   3.636  1.3256 -1.9428 -3.8619
  470MOL0     H63396   6.621   4.990   3.800 -2.1343 -2.4816 -0.8510
  470MOL0     H63397   6.851   5.048   3.795 -0.1114 -3.6679 -1.5263
  470MOL0     H63398   6.860   5.078   3.620  0.5383  0.5543 -0.1279
  470MOL0     H63399   6.870   5.283   3.752 -0.5537 -1.2946 -1.6311
  470MOL0     H63400   6.726   5.247   3.833  0.8916  0.1042 -0.4200
  470MOL0     H63401   6.503   5.322   3.736 -0.5373  0.8295  0.3851
  470MOL0     H63402   6.342   5.483   3.536 -0.0030  2.1657 -0.8269
  470MOL0     H63403   6.428   5.595   3.633 -1.8217  0.8265 -0.3316
  470MOL0     H63404   6.452   5.563   3.341  1.2237 -2.1519  1.0952
  470MOL0     H63405   6.548   5.683   3.424  1.8708 -2.2960  2.3712
  470MOL0     H63406   6.344   5.800   3.337  0.7542  4.0496  2.6164
  470MOL0     H63407   6.333   5.780   3.519 -0.1798 -0.7874  0.6350
  470MOL0     H63408   6.190   5.579   3.331 -2.0836  0.3394  0.0189
  470MOL0     H63409   6.120   5.737   3.354 -2.3941 -1.1017 -0.5448
  470MOL0     H63410   6.038   5.597   3.760  0.3812  0.7609 -0.5676
  470MOL0     H63411   5.753   5.633   3.907 -1.0229 -0.5334 -0.7543
  470MOL0     H63412   5.758   5.461   3.891 -0.2877  0.7183  2.9704
  470MOL0     H63413   5.904   5.550   3.918  0.2700  0.5068 -0.4284
  470MOL0     H63414   5.397   5.450   3.356 -0.7199  3.5094  0.9682
  470MOL0     H63415   5.154   5.399   3.352  0.1878  3.0080  0.9457
  470MOL0     H63416   4.982   5.154   3.730 -3.9449 -0.6320  1.2930
  470MOL0     H63417   4.990   5.344   3.722 -0.1310 -0.1675 -1.3189
  470MOL0     H63418   4.800   5.354   3.591 -2.6294 -1.0127  0.2084
  470MOL0     H63419   4.796   5.176   3.592 -0.3127  0.0206 -0.5899
  470MOL0     H63420   4.790   5.344   3.838 -1.6391  2.1897 -2.3403
  470MOL0     H63421   4.763   5.165   3.824 -4.0740 -0.8585 -2.4524
  470MOL0     H63422   4.582   5.367   3.688  1.0916  0.2028  0.1254
  470MOL0     H63423   4.560   5.191   3.693 -2.7630 -0.4383  1.1128
  470MOL0     H63424   4.543   5.359   3.935 -0.4590  1.0210 -0.2311
  470MOL0     H63425   4.506   5.180   3.915 -0.6256  0.0099  1.3725
  470MOL0     H63426   4.337   5.399   3.797 -1.6997  0.6932  1.2088
  470MOL0     H63427   4.322   5.223   3.780 -0.9288 -0.1818  0.7857
  470MOL0     H63428   4.340   5.338   4.064  1.1313  1.6242 -1.4539
  470MOL0     H63429   4.269   5.192   4.006  0.6480  0.7817  1.1599
  470MOL0     H63430   4.147   5.465   3.946 -2.9771 -0.1933  0.3235
  470MOL0     H63431   4.103   5.373   4.081  0.5607 -2.3865  0.1910
  470MOL0     H63432   5.196   5.225   3.751  1.1083 -2.1083  0.2110
  470MOL0     H63433   5.435   5.284   3.750 -1.4608 -0.6616  0.2993
  470MOL0     H63434   5.704   5.545   3.402 -0.6755 -0.9844  1.4200
  470MOL0     H63435   5.936   5.609   3.340  1.0022  3.5043  1.0961
  470MOL0     H63436   6.631   4.146   3.843 -0.1546 -2.4225  2.0503
  470MOL0     H63437   6.854   4.060   3.916 -2.6757 -0.4239 -2.0596
  470MOL0     H63438   7.270   4.118   3.864  0.4613  0.5949 -0.4167
  470MOL0     H63439   7.510   4.031   3.839  1.0955 -0.8976  1.4658
  470MOL0     H63440   7.810   4.268   4.072  1.1857  0.8400 -2.6852
  470MOL0     H63441   7.809   4.129   4.188 -0.3061  0.9639  0.6613
  470MOL0     H63442   7.986   4.184   3.948  1.5928 -1.9553 -1.6629
  470MOL0     H63443   7.952   4.019   3.983 -0.6365  0.3985 -1.6342
  470MOL0     H63444   8.045   4.005   4.185 -1.4949 -0.1689 -1.3883
  470MOL0     H63445   8.065   4.181   4.215  2.0199  3.4495 -1.4300
  470MOL0     H63446   8.216   4.205   4.034 -1.0092  1.0758  1.8903
  470MOL0     H63447   8.207   4.026   4.003  0.7199 -0.3768 -1.1139
  470MOL0     H63448   8.517   3.993   4.257  1.1013  1.2944 -0.9710
  470MOL0     H63449   7.587   4.236   4.216  0.4208  2.5949 -1.2807
  470MOL0     H63450   7.371   4.314   4.213  0.3640  0.3995 -0.8620
  471MOL0     O63451   8.280   5.241   0.307  0.0688  0.0193  0.2623
  471MOL0     C63452   8.336   5.132   0.305  0.5068 -0.6924 -0.3167
  471MOL0     O63453   8.274   5.012   0.279  0.3989  0.2965  0.0756
  471MOL0     C63454   8.138   5.010   0.272 -0.7287 -0.1928  0.0269
  471MOL0     C63455   8.076   4.919   0.361 -0.5477 -0.2188  0.1906
  471MOL0     C63456   7.937   4.909   0.376 -0.4852  0.7232  0.5308
  471MOL0     C63457   7.853   4.983   0.294  1.0160 -0.2361  0.7023
  471MOL0     O63458   7.716   4.975   0.292  0.7184 -1.2776  0.5248
  471MOL0     C63459   7.655   4.854   0.327  0.1913  0.4634  0.4863
  471MOL0     C63460   7.504   4.851   0.283 -0.1908  0.1244  0.2459
  471MOL0     C63461   7.488   4.844   0.135  0.4832 -0.9909 -0.2184
  471MOL0     C63462   7.336   4.834   0.109 -0.2248  0.0645 -0.7677
  471MOL0     C63463   7.313   4.841  -0.042  0.3061  0.5298 -0.0643
  471MOL0     C63464   7.162   4.813  -0.064 -0.8973 -0.6211 -0.2355
  471MOL0     C63465   7.131   4.814  -0.213  0.1308 -0.3503  0.4288
  471MOL0     C63466   6.976   4.829  -0.207  0.0195  0.2959  0.0034
  471MOL0     N63467   6.915   4.746  -0.313 -0.9040  0.9822 -0.1648
  471MOL0     C63468   6.795   4.677  -0.294 -0.5271 -0.1634  0.0610
  471MOL0     C63469   6.753   4.648  -0.419 -0.1362  0.0184 -0.0594
  471MOL0     C63470   6.630   4.564  -0.449 -0.6442  0.0469  0.2149
  471MOL0     C63471   6.618   4.439  -0.359  0.1608  0.2074 -0.6991
  471MOL0     C63472   6.517   4.342  -0.428  0.5776 -0.1332  0.0288
  471MOL0     C63473   6.366   4.380  -0.436 -0.0750  0.5557  0.0845
  471MOL0     O63474   6.297   4.274  -0.488 -0.0235  0.2227  0.3834
  471MOL0     C63475   6.219   4.195  -0.411  0.4797 -0.0098  0.4284
  471MOL0     C63476   6.090   4.162  -0.453  0.6768 -0.9933  0.0168
  471MOL0     C63477   6.003   4.082  -0.373 -0.4197  0.0140 -0.2721
  471MOL0     C63478   5.869   4.052  -0.440  0.6272  0.2291 -0.5842
  471MOL0     C63479   6.047   4.037  -0.246 -0.1419  0.0661  0.0772
  471MOL0     C63480   5.953   3.954  -0.159  0.3396 -0.1853  0.2522
  471MOL0     O63481   5.819   3.985  -0.158  0.1107  0.6938  0.4997
  471MOL0     C63482   5.716   3.890  -0.122 -0.7044 -0.5580  0.1468
  471MOL0     C63483   5.595   3.915  -0.183 -0.4875 -0.3125  0.3121
  471MOL0     C63484   5.486   3.824  -0.174 -0.4899  0.4692 -0.3964
  471MOL0     C63485   5.507   3.714  -0.089  0.0912 -0.1011 -0.0964
  471MOL0     O63486   5.404   3.624  -0.062  0.5811 -0.5032 -0.0950
  471MOL0     C63487   5.281   3.634  -0.134 -0.2270  0.6335 -0.3263
  471MOL0     C63488   5.295   3.571  -0.269  0.7785 -0.9436 -0.1548
  471MOL0     C63489   5.288   3.422  -0.259 -0.9747  0.5834 -0.4370
  471MOL0     C63490   5.154   3.358  -0.267  0.2329  0.1467  0.8615
  471MOL0     C63491   5.087   3.358  -0.406  0.9672  0.9251 -0.1099
  471MOL0     C63492   4.967   3.262  -0.403  0.1091 -0.5269  0.1462
  471MOL0     C63493   4.888   3.267  -0.533  0.4560  0.3773  0.3255
  471MOL0     C63494   4.773   3.171  -0.539  0.2795 -0.3597 -0.1815
  471MOL0    Cl63495   4.704   3.173  -0.703 -0.4511 -0.0423  0.4187
  471MOL0     C63496   5.624   3.688  -0.032 -0.6068 -0.5718 -0.5050
  471MOL0     C63497   5.733   3.777  -0.044 -0.5271  0.1658 -0.7074
  471MOL0     O63498   6.012   3.857  -0.103  0.8270 -0.4809  0.6671
  471MOL0     C63499   6.178   4.061  -0.214 -0.2630  0.3918  0.0922
  471MOL0     C63500   6.263   4.144  -0.294 -0.7956  0.5408 -0.0509
  471MOL0     N63501   6.841   4.699  -0.514 -0.4658 -0.4941  0.0832
  471MOL0     N63502   6.930   4.759  -0.448  0.6842 -0.1611  0.1263
  471MOL0     C63503   7.915   5.076   0.200 -0.2746 -0.2140  0.6761
  471MOL0     C63504   8.062   5.086   0.192  0.0017  0.0017 -0.6433
  471MOL0     C63505   8.479   5.140   0.347 -0.1234 -0.5817 -0.0694
  471MOL0     C63506   8.551   5.265   0.337  0.4318  0.6231 -0.2223
  471MOL0     C63507   8.685   5.267   0.366 -0.3922  0.3444 -0.5440
  471MOL0     C63508   8.757   5.157   0.415 -0.9173 -0.5504  0.3925
  471MOL0     O63509   8.889   5.170   0.457 -0.4118  0.3549  0.4378
  471MOL0     C63510   8.967   5.047   0.461 -0.4742 -0.9778 -0.7028
  471MOL0     C63511   9.118   5.079   0.490 -0.2107  0.4750 -0.4051
  471MOL0     C63512   9.184   5.168   0.384  0.3770 -0.1422 -0.3544
  471MOL0     C63513   9.336   5.148   0.390 -0.3035 -0.4828  0.2835
  471MOL0     C63514   9.392   5.228   0.499  1.1918  0.1564 -0.4812
  471MOL0     C63515   9.437   5.275   0.600  0.0965  0.0182 -0.0258
  471MOL0     C63516   8.682   5.037   0.426  0.5065  0.0083  0.1693
  471MOL0     C63517   8.546   5.023   0.404 -0.0069 -0.8410  1.0718
  471MOL0     H63518   8.143   4.876   0.436  2.1907 -1.1715 -2.5670
  471MOL0     H63519   7.901   4.827   0.437 -1.0254  0.0521 -0.6561
  471MOL0     H63520   7.710   4.774   0.278 -0.2227  0.0583  0.6824
  471MOL0     H63521   7.661   4.850   0.436  0.1112  1.5146  0.5429
  471MOL0     H63522   7.456   4.755   0.303  0.3835 -0.5595 -1.4297
  471MOL0     H63523   7.451   4.935   0.328 -0.5646  1.0442 -1.7618
  471MOL0     H63524   7.528   4.936   0.090 -2.1360  0.6284  0.5731
  471MOL0     H63525   7.539   4.757   0.091 -1.4410 -2.8001  0.9819
  471MOL0     H63526   7.305   4.738   0.153  1.9173  1.7835  5.5188
  471MOL0     H63527   7.280   4.908   0.167  2.8922  0.6555  1.7831
  471MOL0     H63528   7.337   4.938  -0.086  0.1911 -0.8943 -3.6540
  471MOL0     H63529   7.369   4.765  -0.098 -1.7832 -0.4467 -0.9417
  471MOL0     H63530   7.124   4.728  -0.005  1.4658 -1.4096  0.2733
  471MOL0     H63531   7.115   4.899  -0.015  0.2197 -0.3124  0.3305
  471MOL0     H63532   7.176   4.890  -0.276  1.2991 -0.0163  1.6202
  471MOL0     H63533   7.153   4.716  -0.256 -2.4977 -0.7090 -0.2373
  471MOL0     H63534   6.933   4.928  -0.224 -1.9435 -0.5394 -0.1876
  471MOL0     H63535   6.935   4.788  -0.114  0.2669 -3.0745 -1.2352
  471MOL0     H63536   6.750   4.649  -0.199 -1.6962  2.6303  0.4125
  471MOL0     H63537   6.545   4.630  -0.433  0.2209  1.2766 -0.1167
  471MOL0     H63538   6.634   4.540  -0.556  1.8048  0.2700  0.1968
  471MOL0     H63539   6.589   4.455  -0.255 -0.3345  0.6707 -0.8989
  471MOL0     H63540   6.721   4.404  -0.359  0.9751  2.4209 -0.3355
  471MOL0     H63541   6.542   4.249  -0.376  1.7946 -0.3099 -0.8140
  471MOL0     H63542   6.554   4.330  -0.531 -1.6041 -0.2361 -0.7931
  471MOL0     H63543   6.356   4.466  -0.503  2.8838 -2.2276 -4.4952
  471MOL0     H63544   6.321   4.408  -0.340  3.6306  1.6318  1.7278
  471MOL0     H63545   6.057   4.205  -0.547  3.3679 -0.4821 -0.7864
  471MOL0     H63546   5.827   3.961  -0.395 -1.8452  0.5866 -1.9961
  471MOL0     H63547   5.804   4.138  -0.424 -0.0988 -0.6556  1.5773
  471MOL0     H63548   5.885   4.047  -0.548  0.6329 -0.5610 -0.5566
  471MOL0     H63549   5.591   3.993  -0.258  0.8267 -1.7035 -1.3001
  471MOL0     H63550   5.401   3.843  -0.238 -1.2230 -0.6853  0.2066
  471MOL0     H63551   5.208   3.585  -0.070 -0.8584  2.6675  0.5620
  471MOL0     H63552   5.249   3.738  -0.145 -0.8710  0.5716  0.8604
  471MOL0     H63553   5.219   3.619  -0.332  0.8294  1.5746  1.5455
  471MOL0     H63554   5.387   3.606  -0.316 -0.7472  0.6083 -2.2000
  471MOL0     H63555   5.345   3.383  -0.173  0.1141 -0.1215 -1.4384
  471MOL0     H63556   5.339   3.381  -0.347  0.1555  0.4547  0.2549
  471MOL0     H63557   5.147   3.255  -0.231 -0.9006 -0.1282 -0.0747
  471MOL0     H63558   5.093   3.411  -0.193 -0.0954 -0.5071  1.0710
  471MOL0     H63559   5.157   3.329  -0.484 -0.1823 -0.1351 -0.7968
  471MOL0     H63560   5.061   3.459  -0.440 -0.8268  0.9638  1.1930
  471MOL0     H63561   5.011   3.162  -0.404  1.2241 -0.1069  2.3308
  471MOL0     H63562   4.908   3.269  -0.311  1.6224  0.6181  1.0751
  471MOL0     H63563   4.960   3.249  -0.614  1.5371 -1.0352  1.5503
  471MOL0     H63564   4.839   3.364  -0.546  0.7407  0.1483 -4.5057
  471MOL0     H63565   4.688   3.196  -0.475  1.4483  1.7402  0.6256
  471MOL0     H63566   4.798   3.068  -0.513 -1.8752 -1.0636 -0.7243
  471MOL0     H63567   5.627   3.606   0.038  2.4780  1.6576  2.2957
  471MOL0     H63568   5.833   3.744  -0.015 -0.5552  0.5885 -0.1211
  471MOL0     H63569   6.208   4.028  -0.115  1.8186  0.7903 -0.3463
  471MOL0     H63570   6.365   4.176  -0.273 -0.8246  0.9533 -0.5202
  471MOL0     H63571   7.856   5.141   0.135  1.2165  0.8210  0.3172
  471MOL0     H63572   8.115   5.154   0.126 -0.1671 -0.8855 -1.7086
  471MOL0     H63573   8.513   5.356   0.292  0.4870  0.4209 -0.6918
  471MOL0     H63574   8.744   5.358   0.358  2.7367 -1.6921 -2.9323
  471MOL0     H63575   8.930   4.997   0.551  0.0197 -0.5362 -0.2516
  471MOL0     H63576   8.943   4.988   0.371  1.6840 -2.1871 -0.5603
  471MOL0     H63577   9.172   4.985   0.501 -1.6024 -0.0777  3.0657
  471MOL0     H63578   9.127   5.129   0.587 -1.0112 -2.2862  1.1982
  471MOL0     H63579   9.155   5.272   0.400 -0.2261 -0.1092 -1.5851
  471MOL0     H63580   9.157   5.142   0.281  0.7495  0.0878 -0.5141
  471MOL0     H63581   9.384   5.183   0.298 -0.8546  0.4599  0.3412
  471MOL0     H63582   9.372   5.046   0.405  2.8084  0.6855  1.6330
  471MOL0     H63583   9.469   5.337   0.681 -2.6184  0.9264  0.4390
  471MOL0     H63584   8.737   4.959   0.477 -0.1951 -0.1465  0.7073
  471MOL0     H63585   8.488   4.935   0.430  0.2441 -1.2735  0.1979
  472MOL0     O63586   2.963   2.410   1.404  0.1379  0.0993  0.5012
  472MOL0     C63587   2.863   2.342   1.413 -0.5204  0.6788 -0.1088
  472MOL0     O63588   2.835   2.245   1.501 -0.5553 -0.3377  0.0768
  472MOL0     C63589   2.932   2.235   1.600  0.4277  1.1995 -0.2923
  472MOL0     C63590   2.958   2.337   1.693  0.0899  0.2648  0.4005
  472MOL0     C63591   3.053   2.290   1.792 -0.5187  0.0346  0.2538
  472MOL0     C63592   3.109   2.163   1.802  0.4794  0.2053  0.7109
  472MOL0     O63593   3.200   2.144   1.903  0.3114  0.3473  0.7922
  472MOL0     C63594   3.291   2.027   1.895 -0.3983  0.9267  0.0845
  472MOL0     C63595   3.382   2.009   2.017  0.2647 -0.2052  0.1326
  472MOL0     C63596   3.289   1.957   2.133 -0.0710 -0.7905  0.1337
  472MOL0     C63597   3.374   1.991   2.261 -0.0542  0.1795  1.2112
  472MOL0     C63598   3.515   1.920   2.257  0.2508  0.3148  0.2590
  472MOL0     C63599   3.601   1.982   2.373 -0.7542 -0.1957 -0.4229
  472MOL0     C63600   3.512   1.982   2.508 -0.4340 -0.0134  0.3162
  472MOL0     C63601   3.592   2.065   2.609  0.3672 -0.6958  0.5752
  472MOL0     N63602   3.576   2.217   2.588 -0.1351 -0.4884  0.8236
  472MOL0     C63603   3.469   2.288   2.628  0.9285 -0.7490 -0.6940
  472MOL0     C63604   3.503   2.415   2.596  0.9691  0.0946  0.2856
  472MOL0     C63605   3.420   2.544   2.603 -0.0316  0.2390  0.8016
  472MOL0     C63606   3.436   2.603   2.746  0.3650 -0.4437 -0.3432
  472MOL0     C63607   3.383   2.740   2.752  0.2331  0.0855 -1.2587
  472MOL0     C63608   3.229   2.742   2.733 -1.0826  0.4182 -0.0966
  472MOL0     O63609   3.202   2.882   2.710 -0.5286  0.8610 -0.4035
  472MOL0     C63610   3.081   2.918   2.754 -0.0012  0.0791 -0.6573
  472MOL0     C63611   2.964   2.842   2.776 -0.0309 -0.2369 -0.7102
  472MOL0     C63612   2.832   2.890   2.791 -0.6710 -0.0837 -0.7695
  472MOL0     C63613   2.724   2.794   2.846  0.2408 -0.4990 -0.6899
  472MOL0     C63614   2.820   3.032   2.803 -0.3972  0.0914  0.1327
  472MOL0     C63615   2.687   3.090   2.820 -0.0105  0.7451 -0.1767
  472MOL0     O63616   2.576   3.007   2.801  0.1887 -0.2287 -0.1308
  472MOL0     C63617   2.454   3.075   2.812  0.1988 -0.0017 -0.2410
  472MOL0     C63618   2.357   2.997   2.881  0.0386 -0.4490 -0.0953
  472MOL0     C63619   2.228   3.055   2.918 -0.4700 -0.4065  0.6187
  472MOL0     C63620   2.197   3.183   2.872  1.0831 -0.6366  0.2794
  472MOL0     O63621   2.077   3.243   2.914 -0.5283  0.4940  0.1732
  472MOL0     C63622   1.990   3.188   3.018  0.4455  0.4031  0.2157
  472MOL0     C63623   1.880   3.289   3.060 -0.0147  0.3694 -0.0616
  472MOL0     C63624   1.915   3.383   3.178 -0.7140 -0.3656  0.3803
  472MOL0     C63625   1.989   3.510   3.136  0.9721 -0.5564  0.1041
  472MOL0     C63626   2.002   3.612   3.242 -0.5738  0.0884 -0.1457
  472MOL0     C63627   1.888   3.722   3.229  0.1075  0.5108  0.0961
  472MOL0     C63628   1.917   3.825   3.343  0.7342  0.0902  0.7165
  472MOL0     C63629   1.816   3.935   3.351  0.6493  1.1137 -0.4013
  472MOL0    Cl63630   1.808   4.018   3.193 -0.3124  0.1177  0.5029
  472MOL0     C63631   2.287   3.248   2.791 -0.8611  0.7911  0.4399
  472MOL0     C63632   2.413   3.198   2.772  0.0390 -0.0409 -0.3113
  472MOL0     O63633   2.688   3.208   2.844 -0.3385 -0.8219  0.2382
  472MOL0     C63634   2.931   3.105   2.785 -0.1534  0.0998 -0.0671
  472MOL0     C63635   3.059   3.053   2.744  0.0348  1.0469  0.0566
  472MOL0     N63636   3.625   2.410   2.530  0.1843 -0.7702 -1.2396
  472MOL0     N63637   3.665   2.293   2.518 -0.4320 -0.0454  0.1315
  472MOL0     C63638   3.073   2.069   1.711 -0.8227  0.3322  0.0640
  472MOL0     C63639   2.973   2.102   1.624 -0.5852  0.9598 -0.1003
  472MOL0     C63640   2.757   2.369   1.311  0.6389  0.2353  0.5827
  472MOL0     C63641   2.643   2.288   1.311 -0.3659 -0.0420  0.0688
  472MOL0     C63642   2.545   2.316   1.210  0.9863 -0.8574 -0.5817
  472MOL0     C63643   2.556   2.420   1.113 -0.5092 -0.6498 -0.6809
  472MOL0     O63644   2.452   2.447   1.025 -0.1334  0.3107  0.0553
  472MOL0     C63645   2.482   2.533   0.913  0.2529 -0.4992  1.7607
  472MOL0     C63646   2.354   2.537   0.816 -0.3979  0.3258  0.2942
  472MOL0     C63647   2.261   2.642   0.877  0.1804  0.1135  0.0091
  472MOL0     C63648   2.124   2.643   0.808 -0.4138  0.3481 -0.0702
  472MOL0     C63649   2.128   2.662   0.666 -0.1483 -0.5826 -0.7914
  472MOL0     C63650   2.140   2.681   0.545  0.1721 -0.4315 -0.2911
  472MOL0     C63651   2.682   2.502   1.118 -0.9163  1.2597  0.3175
  472MOL0     C63652   2.774   2.473   1.215 -0.1227  0.3268 -0.4622
  472MOL0     H63653   2.930   2.442   1.690 -0.8661  0.1813  3.3816
  472MOL0     H63654   3.078   2.355   1.875 -0.1233  0.6898 -0.3564
  472MOL0     H63655   3.236   1.933   1.894  1.0601  0.0368  0.7170
  472MOL0     H63656   3.356   2.041   1.808 -1.2218  4.1044 -0.1508
  472MOL0     H63657   3.459   1.936   1.987  0.5602 -0.9967  2.5918
  472MOL0     H63658   3.440   2.097   2.044 -0.5807  0.4620 -0.1986
  472MOL0     H63659   3.194   2.009   2.147  0.4701  0.0220  0.8807
  472MOL0     H63660   3.266   1.850   2.124 -0.5870 -0.8061  1.4128
  472MOL0     H63661   3.386   2.100   2.263 -2.0002  0.4312  1.7489
  472MOL0     H63662   3.314   1.957   2.346 -1.7846  0.1713  0.0385
  472MOL0     H63663   3.491   1.813   2.267 -2.0201  0.9849  4.2158
  472MOL0     H63664   3.566   1.939   2.163  0.3751 -1.7109 -0.1175
  472MOL0     H63665   3.703   1.942   2.376 -0.6896 -0.2412 -2.0142
  472MOL0     H63666   3.611   2.084   2.335  3.9583 -0.2593  0.0781
  472MOL0     H63667   3.412   2.025   2.508  1.0152  3.8153 -0.5973
  472MOL0     H63668   3.514   1.877   2.537  1.3428 -0.1127 -0.0175
  472MOL0     H63669   3.700   2.055   2.602  0.3958 -0.0886  0.0863
  472MOL0     H63670   3.556   2.047   2.711  1.7695  2.2843  1.7189
  472MOL0     H63671   3.388   2.236   2.678  1.5080 -0.0848  1.0126
  472MOL0     H63672   3.478   2.611   2.539 -0.7518 -0.1330 -0.2685
  472MOL0     H63673   3.318   2.546   2.562 -0.1147  0.4549  1.0151
  472MOL0     H63674   3.540   2.597   2.780 -0.0173 -0.3962  0.8669
  472MOL0     H63675   3.381   2.549   2.823 -1.8576  0.7155 -1.0286
  472MOL0     H63676   3.438   2.806   2.685  2.7982  0.2773  0.8388
  472MOL0     H63677   3.393   2.769   2.857  0.9749 -0.6124 -1.1241
  472MOL0     H63678   3.181   2.691   2.816 -0.8615  3.0363  1.7436
  472MOL0     H63679   3.202   2.693   2.639  0.7619  0.5278 -0.7399
  472MOL0     H63680   2.972   2.734   2.771  1.3410 -0.1570 -0.4222
  472MOL0     H63681   2.775   2.703   2.880  0.7803 -0.4988 -1.4715
  472MOL0     H63682   2.690   2.852   2.933  0.7798  0.2329 -0.9553
  472MOL0     H63683   2.642   2.779   2.776  0.0768 -1.9307 -0.2176
  472MOL0     H63684   2.387   2.901   2.921  3.1677  0.8871  1.0847
  472MOL0     H63685   2.172   2.990   2.984  1.9138  0.3433  3.6165
  472MOL0     H63686   1.936   3.103   2.977  0.1638  0.1544  1.0961
  472MOL0     H63687   2.035   3.154   3.111 -0.1248 -0.7847  0.0711
  472MOL0     H63688   1.851   3.350   2.974 -2.3864  1.4795  1.4213
  472MOL0     H63689   1.792   3.231   3.087  0.1551 -0.1758 -0.6681
  472MOL0     H63690   1.980   3.322   3.242 -1.1541 -0.8263  0.3864
  472MOL0     H63691   1.827   3.407   3.237 -2.0191 -1.3802 -1.0742
  472MOL0     H63692   2.085   3.480   3.092  1.8434 -0.4546  1.8411
  472MOL0     H63693   1.932   3.559   3.056  2.8087  2.1291  0.3207
  472MOL0     H63694   2.098   3.663   3.240 -0.2345 -0.5434 -1.9645
  472MOL0     H63695   2.014   3.570   3.343  3.2567  0.1077 -0.4417
  472MOL0     H63696   1.875   3.771   3.132 -4.9496  1.2737  0.8793
  472MOL0     H63697   1.792   3.677   3.255  0.6699 -1.0560 -0.3917
  472MOL0     H63698   2.017   3.867   3.327 -0.1947  1.9146 -0.5719
  472MOL0     H63699   1.920   3.774   3.440  2.7736  4.0066  2.9681
  472MOL0     H63700   1.827   4.003   3.436 -0.5394  1.3250 -0.4010
  472MOL0     H63701   1.715   3.893   3.355  0.7324  0.8522 -0.9008
  472MOL0     H63702   2.262   3.346   2.751 -1.5578 -0.1065 -1.4624
  472MOL0     H63703   2.489   3.258   2.722  0.8333 -1.3363 -0.7146
  472MOL0     H63704   2.922   3.213   2.780 -3.7101 -0.0354  0.4742
  472MOL0     H63705   3.129   3.115   2.689 -0.9619  1.1571 -1.1439
  472MOL0     H63706   3.117   1.971   1.720  0.1012  0.3642 -3.0610
  472MOL0     H63707   2.936   2.022   1.560  0.7593  0.1687  0.0771
  472MOL0     H63708   2.618   2.199   1.367 -0.5198 -1.7818 -2.5601
  472MOL0     H63709   2.459   2.253   1.193  1.3746 -1.6712  0.3666
  472MOL0     H63710   2.505   2.636   0.941 -0.9814 -0.0538  1.2454
  472MOL0     H63711   2.563   2.490   0.853 -0.0142  1.8930 -0.5098
  472MOL0     H63712   2.312   2.437   0.825  2.5397 -0.8195  3.6631
  472MOL0     H63713   2.395   2.553   0.715  2.3569 -1.2576  1.0535
  472MOL0     H63714   2.294   2.745   0.864  1.0347 -0.4579 -3.2401
  472MOL0     H63715   2.255   2.612   0.983 -0.3900 -2.8097 -0.7528
  472MOL0     H63716   2.075   2.730   0.851 -0.7623 -0.2413  0.7457
  472MOL0     H63717   2.065   2.554   0.830 -2.5142  1.9228  0.9359
  472MOL0     H63718   2.135   2.682   0.438 -2.3844 -1.0561 -0.2627
  472MOL0     H63719   2.704   2.576   1.042  3.7581  1.1549  1.2916
  472MOL0     H63720   2.868   2.528   1.220 -1.3328  2.3931  2.7900
  473MOL0     O63721   9.964   4.475   6.585 -0.1702  0.3389 -0.3918
  473MOL0     C63722   9.961   4.443   6.460  0.3984 -0.5160 -0.2087
  473MOL0     O63723   9.873   4.501   6.364 -0.1711 -0.1371 -0.6404
  473MOL0     C63724   9.763   4.575   6.410 -0.8365  0.8661  0.5321
  473MOL0     C63725   9.694   4.567   6.539 -0.0906 -1.5621  0.2939
  473MOL0     C63726   9.573   4.640   6.574 -1.1276  0.4970  0.4005
  473MOL0     C63727   9.514   4.717   6.471 -1.0361 -0.5095 -0.0444
  473MOL0     O63728   9.401   4.791   6.483  0.1604  0.1325  0.0784
  473MOL0     C63729   9.341   4.794   6.613 -0.4098 -0.2069  0.5859
  473MOL0     C63730   9.218   4.893   6.618  0.1227  0.4516 -0.5833
  473MOL0     C63731   9.090   4.823   6.565 -0.2182  0.1566  0.6753
  473MOL0     C63732   8.960   4.908   6.578 -0.0820  0.4280 -0.2070
  473MOL0     C63733   8.838   4.818   6.558 -0.3115  0.5337  0.8662
  473MOL0     C63734   8.696   4.887   6.578  0.9515 -0.8278 -0.3087
  473MOL0     C63735   8.575   4.790   6.578  0.6118  0.3626  0.0681
  473MOL0     C63736   8.568   4.708   6.446  0.0952  0.6423 -0.0634
  473MOL0     N63737   8.540   4.798   6.334  1.4467  0.6020 -0.1642
  473MOL0     C63738   8.412   4.811   6.283 -0.5919 -0.6450  0.1705
  473MOL0     C63739   8.442   4.883   6.169 -0.0985 -0.2567  0.9201
  473MOL0     C63740   8.358   4.930   6.059 -0.8567  0.0150  0.2362
  473MOL0     C63741   8.302   5.066   6.084  0.2748 -0.7646 -0.1535
  473MOL0     C63742   8.407   5.176   6.097 -0.1403 -0.0110  0.2055
  473MOL0     C63743   8.341   5.314   6.116 -0.0660  0.4693 -0.1548
  473MOL0     O63744   8.263   5.310   6.229  0.1276  0.9088  0.4054
  473MOL0     C63745   8.194   5.430   6.265  0.1426  0.2884 -0.8903
  473MOL0     C63746   8.246   5.559   6.251 -0.0901 -0.2564 -0.4269
  473MOL0     C63747   8.172   5.676   6.284  0.6643  0.0616 -0.3379
  473MOL0     C63748   8.251   5.806   6.273  1.3510 -0.7417 -0.6269
  473MOL0     C63749   8.040   5.665   6.336  0.3031 -0.3628  0.4728
  473MOL0     C63750   7.952   5.780   6.379 -0.5756 -0.2762  0.6894
  473MOL0     O63751   7.862   5.753   6.481 -0.0372  1.1757 -0.5460
  473MOL0     C63752   7.754   5.830   6.497  0.3137  0.2504 -0.1595
  473MOL0     C63753   7.675   5.884   6.393 -0.4536  0.4380  0.0886
  473MOL0     C63754   7.561   5.953   6.420 -0.0302 -0.1715  0.7947
  473MOL0     C63755   7.506   5.968   6.551  0.3343 -0.7717 -0.3063
  473MOL0     O63756   7.378   6.022   6.581  0.2436  0.3995  0.1329
  473MOL0     C63757   7.305   6.098   6.487 -0.1976 -0.4908 -1.2457
  473MOL0     C63758   7.201   6.178   6.567  0.4479 -0.8488  0.1008
  473MOL0     C63759   7.124   6.277   6.477 -0.0936 -0.1892  0.7643
  473MOL0     C63760   7.035   6.200   6.379 -0.1607 -0.6472  1.0658
  473MOL0     C63761   6.894   6.267   6.388 -0.2851  0.2213  0.5486
  473MOL0     C63762   6.807   6.235   6.518  0.5120 -1.4650 -0.4373
  473MOL0     C63763   6.668   6.288   6.507  1.2580  0.1921  0.1098
  473MOL0     C63764   6.603   6.306   6.643  0.6893 -0.2997  0.1166
  473MOL0    Cl63765   6.444   6.365   6.646  0.3114 -0.3602  0.0493
  473MOL0     C63766   7.578   5.903   6.653 -0.3483  0.3595  0.4771
  473MOL0     C63767   7.696   5.836   6.623 -0.0773  0.5480  0.2466
  473MOL0     O63768   7.963   5.880   6.313  0.9295  0.4564  0.5703
  473MOL0     C63769   7.999   5.530   6.366 -0.0326 -0.1771  0.2661
  473MOL0     C63770   8.073   5.418   6.332  0.2524 -0.8249 -0.8138
  473MOL0     N63771   8.579   4.920   6.163  0.6633  0.4984 -0.0720
  473MOL0     N63772   8.632   4.860   6.261 -0.6821  0.0067 -0.2720
  473MOL0     C63773   9.588   4.730   6.350  0.1917 -0.3483  0.2040
  473MOL0     C63774   9.700   4.658   6.318  0.3557 -0.6369  0.3782
  473MOL0     C63775  10.089   4.383   6.412  1.2924  0.2889 -0.4429
  473MOL0     C63776  10.210   4.373   6.495 -0.0893  0.0049  0.3175
  473MOL0     C63777  10.324   4.311   6.446 -0.3640 -0.1857  0.8384
  473MOL0     C63778  10.324   4.265   6.314  0.1221 -0.0253 -0.8129
  473MOL0     O63779  10.425   4.198   6.259 -0.1763  0.2513  0.1591
  473MOL0     C63780  10.550   4.265   6.254 -0.3208  0.8890 -0.9831
  473MOL0     C63781  10.643   4.206   6.367 -0.8721  0.1340 -0.1980
  473MOL0     C63782  10.707   4.084   6.307  0.9361 -0.3352 -0.9386
  473MOL0     C63783  10.834   4.062   6.398 -0.2603  0.1261  0.4595
  473MOL0     C63784  10.862   3.920   6.370 -1.0507  0.1122 -1.3296
  473MOL0     C63785  10.884   3.803   6.360  0.1530 -0.6424 -0.5425
  473MOL0     C63786  10.219   4.287   6.228 -0.9582  0.0713 -0.8491
  473MOL0     C63787  10.100   4.339   6.286 -0.6328 -0.3723  0.0828
  473MOL0     H63788   9.734   4.519   6.628 -1.9205  1.2749  2.8166
  473MOL0     H63789   9.537   4.629   6.676 -1.4909  0.1542  0.2400
  473MOL0     H63790   9.315   4.698   6.658 -1.1118  0.3051  1.2978
  473MOL0     H63791   9.416   4.828   6.685  1.2933  0.3134 -1.3486
  473MOL0     H63792   9.193   4.908   6.724 -3.3745 -2.0133 -0.8829
  473MOL0     H63793   9.251   4.988   6.574  1.7879  0.5192  0.7041
  473MOL0     H63794   9.108   4.816   6.457 -0.6036 -4.0921  0.7548
  473MOL0     H63795   9.077   4.723   6.607  2.2714 -0.1213  0.9454
  473MOL0     H63796   8.967   4.948   6.680  1.4980  3.6481 -1.4359
  473MOL0     H63797   8.954   4.988   6.504  0.5768  0.9943  0.3306
  473MOL0     H63798   8.837   4.779   6.456 -0.3957 -0.7246  1.3329
  473MOL0     H63799   8.849   4.733   6.625  1.9998  1.9156  2.3865
  473MOL0     H63800   8.700   4.928   6.680  1.7479  0.4589 -0.8372
  473MOL0     H63801   8.672   4.964   6.505 -0.8270 -0.2899  0.7908
  473MOL0     H63802   8.571   4.723   6.665  1.0182  0.5470  0.2318
  473MOL0     H63803   8.478   4.835   6.600  0.6988  1.4578 -1.5907
  473MOL0     H63804   8.490   4.631   6.457  0.1500  0.6825  0.6437
  473MOL0     H63805   8.662   4.655   6.428  0.4295  0.9469  0.7170
  473MOL0     H63806   8.317   4.776   6.323 -0.8897  0.5153  0.5075
  473MOL0     H63807   8.419   4.918   5.969 -1.0516  1.7320 -0.1548
  473MOL0     H63808   8.272   4.862   6.060 -0.3184 -0.7348  2.7764
  473MOL0     H63809   8.259   5.060   6.184 -1.5986 -0.0871 -0.8789
  473MOL0     H63810   8.227   5.106   6.015  3.5575  0.8425 -3.1415
  473MOL0     H63811   8.464   5.196   6.006 -2.3451  0.8473 -1.0475
  473MOL0     H63812   8.480   5.150   6.174  2.4947  1.2626 -1.7225
  473MOL0     H63813   8.273   5.332   6.032 -1.2533 -1.1166  0.4190
  473MOL0     H63814   8.416   5.394   6.116 -2.5475  3.0679  2.9340
  473MOL0     H63815   8.341   5.596   6.215  1.1776  0.8239  3.5564
  473MOL0     H63816   8.209   5.874   6.198 -0.0775 -1.4860 -0.5267
  473MOL0     H63817   8.240   5.856   6.370  0.2125 -1.9260 -0.1096
  473MOL0     H63818   8.360   5.793   6.266  1.8161 -1.8993  4.4469
  473MOL0     H63819   7.711   5.886   6.290  0.7916 -0.5619  0.4795
  473MOL0     H63820   7.514   5.995   6.331  1.3380 -0.9762 -0.3420
  473MOL0     H63821   7.371   6.164   6.430  1.3057  0.8228  1.8049
  473MOL0     H63822   7.254   6.022   6.427 -1.9241 -2.3163  2.2763
  473MOL0     H63823   7.129   6.108   6.611 -1.6480  0.8938 -0.3985
  473MOL0     H63824   7.249   6.243   6.640 -0.2556  0.2746 -0.4066
  473MOL0     H63825   7.187   6.341   6.413 -2.1875 -1.6859 -3.1104
  473MOL0     H63826   7.074   6.348   6.543  0.6534  2.2826 -1.1527
  473MOL0     H63827   7.083   6.189   6.282 -2.0177 -2.8915  0.2972
  473MOL0     H63828   7.026   6.094   6.408 -0.4354 -0.5847  1.2130
  473MOL0     H63829   6.833   6.221   6.310  0.0169 -1.5069  1.2776
  473MOL0     H63830   6.900   6.375   6.374 -0.3845  0.2057  0.3920
  473MOL0     H63831   6.800   6.129   6.545  0.9667 -1.5190 -0.5176
  473MOL0     H63832   6.853   6.278   6.607 -1.4841 -0.6948  0.2738
  473MOL0     H63833   6.606   6.215   6.455 -0.5205  0.7365  1.3579
  473MOL0     H63834   6.670   6.383   6.451 -1.3071  0.0124 -0.4405
  473MOL0     H63835   6.658   6.370   6.712 -0.0845 -0.7830  1.2084
  473MOL0     H63836   6.601   6.206   6.688  1.0535  0.7806  2.6878
  473MOL0     H63837   7.541   5.907   6.755  0.4164  2.6036  0.7225
  473MOL0     H63838   7.759   5.792   6.699  1.2690  1.4179 -0.3245
  473MOL0     H63839   7.900   5.514   6.407  0.6397 -2.1875  1.2614
  473MOL0     H63840   8.014   5.330   6.356  1.1751 -1.5709 -1.2122
  473MOL0     H63841   9.531   4.789   6.279 -0.6461  0.7312  1.7024
  473MOL0     H63842   9.750   4.676   6.223  0.5640  2.7895  1.0461
  473MOL0     H63843  10.214   4.414   6.596 -2.2431  0.2115  0.3588
  473MOL0     H63844  10.408   4.279   6.507  3.2226  2.8340 -2.0671
  473MOL0     H63845  10.583   4.242   6.152  0.6008 -2.9169 -0.0160
  473MOL0     H63846  10.553   4.372   6.273  5.2040  0.9454 -0.3545
  473MOL0     H63847  10.597   4.183   6.463  0.1691  1.2407  0.5922
  473MOL0     H63848  10.712   4.289   6.389 -2.5245  0.8156  2.8936
  473MOL0     H63849  10.733   4.092   6.201  2.8612 -0.8806 -0.5503
  473MOL0     H63850  10.647   3.994   6.324  0.0478  0.0997 -1.7081
  473MOL0     H63851  10.818   4.079   6.505 -1.4891  1.8804  0.0217
  473MOL0     H63852  10.920   4.121   6.364  1.3781 -1.7460  1.1206
  473MOL0     H63853  10.919   3.703   6.343  2.6365  0.3259 -1.5981
  473MOL0     H63854  10.220   4.251   6.126  0.9883  2.4559 -1.7552
  473MOL0     H63855  10.017   4.350   6.217 -0.4493  2.0663  0.1842
  474MOL0     O63856   6.135  10.220   8.001  0.1612  0.0481  0.0634
  474MOL0     C63857   6.203  10.322   8.012 -0.3972  0.6351 -0.2000
  474MOL0     O63858   6.166  10.443   7.971 -0.2100 -0.4706  0.4081
  474MOL0     C63859   6.043  10.481   7.922  0.8553 -0.0817 -0.9518
  474MOL0     C63860   5.944  10.395   7.865  0.5259 -0.2054  0.1366
  474MOL0     C63861   5.821  10.444   7.826 -0.4599  0.6775 -0.7331
  474MOL0     C63862   5.797  10.583   7.848  0.6438  0.5279  0.8650
  474MOL0     O63863   5.683  10.644   7.810  0.7301  0.1546 -0.0664
  474MOL0     C63864   5.596  10.582   7.717  0.6988  0.3981 -0.1641
  474MOL0     C63865   5.511  10.687   7.647  0.2237  1.0219 -0.1067
  474MOL0     C63866   5.366  10.689   7.691  0.0885  0.3340 -0.1741
  474MOL0     C63867   5.353  10.727   7.836  0.1866 -0.0381 -0.0416
  474MOL0     C63868   5.201  10.769   7.858 -0.0808 -0.0410  0.4465
  474MOL0     C63869   5.191  10.816   8.000 -0.1944  0.3867  0.1074
  474MOL0     C63870   5.052  10.823   8.035  0.2965  0.5431  0.8534
  474MOL0     C63871   5.032  10.851   8.184 -0.3253  0.5529 -0.5695
  474MOL0     N63872   4.889  10.867   8.215  0.1398  0.2069 -0.0166
  474MOL0     C63873   4.789  10.771   8.182  0.3804 -0.2911 -0.2676
  474MOL0     C63874   4.677  10.815   8.234 -0.8331  0.2897 -0.0936
  474MOL0     C63875   4.547  10.746   8.242  0.2154  0.8248 -0.2040
  474MOL0     C63876   4.522  10.685   8.377 -0.2377  0.2173 -0.6583
  474MOL0     C63877   4.400  10.593   8.374 -0.4559 -0.0270 -0.2806
  474MOL0     C63878   4.280  10.674   8.331  0.2982 -0.1152 -0.0768
  474MOL0     O63879   4.272  10.791   8.419 -0.1638  0.4903 -0.0601
  474MOL0     C63880   4.188  10.887   8.376  0.0537  0.5268 -0.0162
  474MOL0     C63881   4.226  11.017   8.391  0.4414  0.1613 -0.4126
  474MOL0     C63882   4.148  11.118   8.340  0.0506  1.4413  0.2593
  474MOL0     C63883   4.212  11.248   8.366  0.4356 -0.6770 -0.0443
  474MOL0     C63884   4.030  11.094   8.272 -0.2652  0.3452 -0.3790
  474MOL0     C63885   3.933  11.200   8.232  0.6003  1.3613 -0.5753
  474MOL0     O63886   3.811  11.145   8.187 -0.3072 -0.0795 -0.3600
  474MOL0     C63887   3.720  11.238   8.143  0.8700  1.2645  0.0492
  474MOL0     C63888   3.716  11.379   8.125 -0.2642 -1.0524  0.2857
  474MOL0     C63889   3.596  11.444   8.085 -0.3823  1.0703 -0.7201
  474MOL0     C63890   3.491  11.370   8.044  0.6410  0.0333 -0.4048
  474MOL0     O63891   3.372  11.431   8.011 -0.4409  0.5595 -0.3853
  474MOL0     C63892   3.373  11.544   7.918  0.4046  0.5579  0.7104
  474MOL0     C63893   3.226  11.576   7.879  0.3867 -0.1333  0.4842
  474MOL0     C63894   3.163  11.485   7.764  0.3971 -0.2769 -1.1468
  474MOL0     C63895   3.125  11.345   7.805  0.9577 -0.3907 -0.4386
  474MOL0     C63896   3.067  11.275   7.685 -0.3097  0.0164  0.2172
  474MOL0     C63897   3.007  11.130   7.708  0.3980  0.1246 -0.1105
  474MOL0     C63898   3.113  11.025   7.746  0.2921  0.0498  0.2167
  474MOL0     C63899   3.056  10.879   7.753  0.2736 -0.5752 -0.4579
  474MOL0    Cl63900   3.186  10.771   7.823  0.1808  0.1346  0.4343
  474MOL0     C63901   3.498  11.237   8.042 -0.2496  0.1326  0.1642
  474MOL0     C63902   3.612  11.167   8.087  0.6972 -0.9466 -0.3205
  474MOL0     O63903   3.965  11.315   8.229 -0.1235  1.0572  0.0342
  474MOL0     C63904   3.994  10.960   8.265  1.1960  0.3395  0.2815
  474MOL0     C63905   4.062  10.858   8.322  0.1755 -1.0197 -0.9092
  474MOL0     N63906   4.698  10.938   8.298  0.0551 -0.1354 -0.9556
  474MOL0     N63907   4.824  10.961   8.289 -0.2472  0.0837  0.4707
  474MOL0     C63908   5.888  10.665   7.901 -0.4582  0.0909 -0.3862
  474MOL0     C63909   6.021  10.616   7.931 -0.2794  0.4574 -0.3398
  474MOL0     C63910   6.339  10.300   8.059  0.4411  0.0651 -0.2991
  474MOL0     C63911   6.398  10.164   8.076 -0.0442 -0.3478  0.6149
  474MOL0     C63912   6.538  10.158   8.072 -0.3594 -0.5165 -0.6428
  474MOL0     C63913   6.622  10.263   8.093  0.6934  0.3222 -0.0379
  474MOL0     O63914   6.763  10.251   8.109  0.0744 -0.2993  0.0990
  474MOL0     C63915   6.843  10.133   8.111 -0.7888 -0.9403  0.2469
  474MOL0     C63916   6.982  10.160   8.051 -0.3286  0.1238  0.9746
  474MOL0     C63917   7.045  10.021   8.022  0.2057 -0.1160 -0.2662
  474MOL0     C63918   7.081   9.943   8.161 -0.3415 -0.2501  0.6167
  474MOL0     C63919   7.153  10.016   8.267  0.2913  0.1497 -0.6018
  474MOL0     C63920   7.205  10.086   8.360 -0.2107 -0.1189  0.9063
  474MOL0     C63921   6.562  10.392   8.088  0.1205  0.7462 -0.7581
  474MOL0     C63922   6.425  10.413   8.070 -0.5115  0.2058 -0.0490
  474MOL0     H63923   5.975  10.295   7.835  0.2121 -1.3557  3.3390
  474MOL0     H63924   5.751  10.381   7.772 -0.4669  2.3375 -2.8038
  474MOL0     H63925   5.648  10.528   7.638 -0.8662 -2.1519  0.4302
  474MOL0     H63926   5.536  10.517   7.780 -0.5985  1.1646 -0.5766
  474MOL0     H63927   5.562  10.783   7.659 -0.7480  1.4440  0.8108
  474MOL0     H63928   5.510  10.668   7.539  1.7066  0.0840  0.0184
  474MOL0     H63929   5.320  10.757   7.619 -1.2758 -0.8924 -0.5252
  474MOL0     H63930   5.319  10.591   7.675  1.0935 -0.0539 -0.9107
  474MOL0     H63931   5.377  10.642   7.901 -0.9610  1.4701  2.5168
  474MOL0     H63932   5.417  10.811   7.864  0.6770 -0.3159 -0.3149
  474MOL0     H63933   5.180  10.852   7.790  4.4104 -0.4395 -1.7656
  474MOL0     H63934   5.148  10.678   7.829 -0.8733  0.7042 -0.4829
  474MOL0     H63935   5.243  10.748   8.068 -0.5663  3.6310  4.0205
  474MOL0     H63936   5.250  10.907   8.006  0.2949  0.2445 -1.8057
  474MOL0     H63937   5.013  10.903   7.970  1.7067  0.1175 -0.5735
  474MOL0     H63938   5.002  10.732   8.002 -2.8664  1.8749  1.5852
  474MOL0     H63939   5.091  10.939   8.210  0.3790 -0.3960  1.1695
  474MOL0     H63940   5.070  10.758   8.226 -0.9314  0.2620 -0.6529
  474MOL0     H63941   4.803  10.681   8.123 -0.4184  0.3862 -1.5230
  474MOL0     H63942   4.468  10.819   8.223 -0.4442  1.6901  4.6418
  474MOL0     H63943   4.545  10.664   8.169  0.5440  1.7895 -1.3268
  474MOL0     H63944   4.522  10.762   8.456  3.9874  0.6418 -0.8079
  474MOL0     H63945   4.606  10.622   8.407 -0.7009  0.6679  1.7873
  474MOL0     H63946   4.384  10.554   8.475 -0.5539 -0.9390 -0.6381
  474MOL0     H63947   4.421  10.508   8.308 -2.9146  0.7656 -2.2153
  474MOL0     H63948   4.190  10.613   8.340 -0.3033  0.5091 -1.6190
  474MOL0     H63949   4.286  10.706   8.227  2.7285 -0.1544 -0.0155
  474MOL0     H63950   4.318  11.031   8.446 -0.4967 -0.2911  1.3782
  474MOL0     H63951   4.212  11.295   8.267  1.7906  1.2758  0.8238
  474MOL0     H63952   4.147  11.304   8.434 -0.7218 -3.8244  1.6311
  474MOL0     H63953   4.311  11.250   8.412 -0.8944  0.1637  3.0430
  474MOL0     H63954   3.792  11.455   8.142  0.8666 -1.9231 -0.6698
  474MOL0     H63955   3.603  11.552   8.081 -0.6883  1.0704 -1.4128
  474MOL0     H63956   3.429  11.627   7.961  3.0373  0.8372 -2.7938
  474MOL0     H63957   3.429  11.510   7.830 -0.0557 -0.1007  0.6633
  474MOL0     H63958   3.172  11.572   7.974  1.6214  0.8362  1.2729
  474MOL0     H63959   3.223  11.678   7.840  1.0372 -0.4151 -0.3297
  474MOL0     H63960   3.235  11.474   7.682 -0.8843 -2.1053 -2.1092
  474MOL0     H63961   3.074  11.534   7.726  1.7851  0.9612 -2.9939
  474MOL0     H63962   3.210  11.285   7.839  1.7022  1.7265  1.8118
  474MOL0     H63963   3.059  11.352   7.893  0.7917  0.7863 -0.6333
  474MOL0     H63964   3.146  11.266   7.611 -1.4217 -0.2474 -0.9682
  474MOL0     H63965   2.985  11.332   7.640 -1.3272 -2.6018 -1.5046
  474MOL0     H63966   2.924  11.143   7.777  1.0447  0.9383  0.5397
  474MOL0     H63967   2.975  11.092   7.610  0.5516  0.9855 -0.5130
  474MOL0     H63968   3.141  11.051   7.849  2.7366 -0.8698 -0.1690
  474MOL0     H63969   3.200  11.022   7.681 -0.3187 -0.2360 -0.6070
  474MOL0     H63970   3.024  10.847   7.654 -0.1184  0.8583 -0.8237
  474MOL0     H63971   2.963  10.889   7.812  0.2425  4.8405 -0.8979
  474MOL0     H63972   3.422  11.176   7.996 -1.0143  1.9074 -1.0238
  474MOL0     H63973   3.617  11.059   8.081  0.4015 -1.2142  2.7805
  474MOL0     H63974   3.903  10.917   8.225  0.6889  1.2716  0.3873
  474MOL0     H63975   4.032  10.754   8.320 -0.2024 -0.9413  0.0312
  474MOL0     H63976   5.857  10.768   7.917 -2.5197 -0.6711  0.9691
  474MOL0     H63977   6.101  10.678   7.970 -1.0637  0.7982  0.7931
  474MOL0     H63978   6.338  10.073   8.081 -1.8361  0.7291 -0.1949
  474MOL0     H63979   6.576  10.057   8.057  2.9211 -0.0062  2.7714
  474MOL0     H63980   6.854  10.088   8.210 -0.0629  1.5078  1.3703
  474MOL0     H63981   6.797  10.061   8.043  1.7824 -1.9564 -0.5747
  474MOL0     H63982   7.047  10.220   8.114 -0.8968  1.1037  0.6456
  474MOL0     H63983   6.971  10.213   7.956  0.8849 -0.8926  0.2329
  474MOL0     H63984   7.138  10.047   7.970 -0.4001 -0.0757 -1.3523
  474MOL0     H63985   6.982   9.956   7.961 -1.1664  1.0684 -0.1565
  474MOL0     H63986   7.148   9.860   8.134 -0.4644 -0.3278  0.5488
  474MOL0     H63987   6.988   9.900   8.200 -0.8418 -1.0090 -1.2793
  474MOL0     H63988   7.248  10.143   8.440  0.5665 -0.1012  0.4864
  474MOL0     H63989   6.633  10.473   8.100  0.8149 -0.0195  0.4664
  474MOL0     H63990   6.383  10.512   8.057  2.9100  1.9508  0.9138
  475MOL0     O63991   9.046   5.248   3.435  0.4195 -1.0286  0.5127
  475MOL0     C63992   9.051   5.221   3.315  0.2460  0.2847 -0.1540
  475MOL0     O63993   8.942   5.165   3.252  0.5935 -0.0964  0.7101
  475MOL0     C63994   8.815   5.168   3.311 -0.4760  0.1367  0.2104
  475MOL0     C63995   8.760   5.265   3.397  0.2096  0.5183  0.8516
  475MOL0     C63996   8.630   5.257   3.448 -0.0056 -0.2782 -0.2141
  475MOL0     C63997   8.541   5.156   3.413 -0.5265  0.0863 -0.2470
  475MOL0     O63998   8.423   5.164   3.462 -0.3430  0.3541  0.3855
  475MOL0     C63999   8.319   5.091   3.413 -0.0291 -0.4139  0.1725
  475MOL0     C64000   8.202   5.109   3.511 -0.6121  0.4198 -0.0120
  475MOL0     C64001   8.081   5.053   3.445  1.2225  0.5062  0.0381
  475MOL0     C64002   7.957   5.127   3.502  1.3439 -0.3864  0.5382
  475MOL0     C64003   7.940   5.258   3.421 -1.0121 -0.6084  0.3500
  475MOL0     C64004   7.789   5.276   3.400  0.1990 -0.3008  0.6381
  475MOL0     C64005   7.707   5.303   3.532  0.3808 -0.7788 -0.6736
  475MOL0     C64006   7.562   5.346   3.509  0.3254  0.1726  0.2012
  475MOL0     N64007   7.480   5.248   3.427 -0.7006  0.0378 -1.0896
  475MOL0     C64008   7.420   5.136   3.472 -0.7533 -0.2616  0.3235
  475MOL0     C64009   7.362   5.085   3.358  0.6722  0.1566 -1.2258
  475MOL0     C64010   7.276   4.962   3.358  0.3459  0.0671  0.4999
  475MOL0     C64011   7.127   4.980   3.369 -0.3895 -0.7757  0.0197
  475MOL0     C64012   7.083   5.096   3.270  0.0959 -0.7264  1.0539
  475MOL0     C64013   6.942   5.082   3.222 -1.2761  0.2317 -0.4211
  475MOL0     O64014   6.913   5.202   3.144  0.1700  1.1683 -0.4532
  475MOL0     C64015   6.785   5.217   3.132  0.9019 -1.4146 -0.1262
  475MOL0     C64016   6.737   5.216   3.003 -0.2871 -0.2165  0.7582
  475MOL0     C64017   6.599   5.245   2.971 -0.4578 -1.1611 -0.4566
  475MOL0     C64018   6.583   5.270   2.823 -0.0651  0.1567  0.2016
  475MOL0     C64019   6.503   5.265   3.073 -0.5492 -0.1482 -0.0588
  475MOL0     C64020   6.365   5.302   3.052  0.4723  0.0178  0.3899
  475MOL0     O64021   6.317   5.271   2.927  0.0292  0.0387 -0.0545
  475MOL0     C64022   6.207   5.338   2.884  0.0228 -0.8055  0.9962
  475MOL0     C64023   6.216   5.480   2.853  0.3284  0.0327 -0.0003
  475MOL0     C64024   6.103   5.546   2.801  0.5946 -0.0176  0.1225
  475MOL0     C64025   5.989   5.472   2.774  0.0526  1.5269 -0.0380
  475MOL0     O64026   5.885   5.548   2.725  0.8172  0.1059  0.1065
  475MOL0     C64027   5.766   5.483   2.683 -0.3286 -0.4676 -0.1808
  475MOL0     C64028   5.685   5.588   2.595  0.2499  0.2141 -1.0311
  475MOL0     C64029   5.547   5.523   2.567  0.1964 -0.7318  0.6989
  475MOL0     C64030   5.531   5.508   2.412  0.0680  0.0667  0.1211
  475MOL0     C64031   5.394   5.472   2.360  0.1064  0.3931  0.5006
  475MOL0     C64032   5.403   5.455   2.202  0.0192 -0.4561 -0.2512
  475MOL0     C64033   5.285   5.388   2.139  0.1896  0.2184  0.3642
  475MOL0     C64034   5.324   5.316   2.011  0.4103  0.9739 -0.2910
  475MOL0    Cl64035   5.197   5.312   1.887 -0.5667 -0.5896  0.4699
  475MOL0     C64036   5.986   5.319   2.794  0.1755 -0.4159 -0.1566
  475MOL0     C64037   6.098   5.264   2.855 -0.2015  0.5787  1.3475
  475MOL0     O64038   6.308   5.376   3.135  0.8356 -0.4609  0.4261
  475MOL0     C64039   6.554   5.249   3.210  0.2062 -0.1486  1.0499
  475MOL0     C64040   6.690   5.234   3.232 -0.2836 -0.2243 -0.7397
  475MOL0     N64041   7.392   5.159   3.244 -0.0105  0.6665 -0.1384
  475MOL0     N64042   7.470   5.260   3.286 -0.1985 -0.5365  0.3651
  475MOL0     C64043   8.595   5.065   3.323  0.6369  0.1459  0.2857
  475MOL0     C64044   8.730   5.068   3.275  0.2909 -0.3059 -0.2138
  475MOL0     C64045   9.179   5.222   3.248 -0.1508 -0.1180 -0.6196
  475MOL0     C64046   9.208   5.134   3.140  0.4075 -1.1076 -0.0181
  475MOL0     C64047   9.314   5.152   3.065 -0.2042  0.5448  0.6436
  475MOL0     C64048   9.423   5.230   3.102 -0.2283 -0.5784  0.0203
  475MOL0     O64049   9.535   5.228   3.020  0.0182 -0.6696 -0.0169
  475MOL0     C64050   9.655   5.285   3.068  0.5458 -0.0886 -0.5896
  475MOL0     C64051   9.739   5.192   3.153  0.0567  0.6908 -0.2459
  475MOL0     C64052   9.853   5.264   3.228  0.3627 -0.7103 -0.5963
  475MOL0     C64053   9.971   5.290   3.123 -0.6677  0.1666  0.2489
  475MOL0     C64054  10.052   5.165   3.102 -0.3287 -0.5664 -0.6010
  475MOL0     C64055  10.121   5.066   3.080  0.1244  0.2775 -0.2876
  475MOL0     C64056   9.407   5.294   3.221 -1.1655 -1.0208  0.9894
  475MOL0     C64057   9.282   5.302   3.285  0.4282  0.4783  0.1517
  475MOL0     H64058   8.819   5.349   3.432  1.5151 -1.0821  2.6882
  475MOL0     H64059   8.588   5.343   3.499 -2.4738 -1.8484  0.6020
  475MOL0     H64060   8.298   5.135   3.315  2.4588  0.8814  0.1388
  475MOL0     H64061   8.342   4.984   3.409  2.0487 -0.2641  3.7252
  475MOL0     H64062   8.239   5.052   3.597  3.0944  1.8316 -0.5166
  475MOL0     H64063   8.192   5.214   3.543  0.5217 -0.0736  2.1536
  475MOL0     H64064   8.099   5.051   3.337  4.1037 -0.9514  0.4564
  475MOL0     H64065   8.069   4.949   3.475 -0.5412  1.0213  1.2526
  475MOL0     H64066   7.868   5.069   3.475  0.7277  1.1799 -0.9664
  475MOL0     H64067   7.961   5.142   3.610 -0.9561 -2.4948  1.0251
  475MOL0     H64068   7.973   5.346   3.478  1.6650  0.1488 -2.1353
  475MOL0     H64069   7.998   5.252   3.329  1.0048  0.2062  1.4922
  475MOL0     H64070   7.779   5.360   3.331 -3.7806 -2.6505 -2.0174
  475MOL0     H64071   7.751   5.188   3.347  1.8380  0.6360 -2.3456
  475MOL0     H64072   7.701   5.216   3.598 -1.2243 -0.3183 -0.1822
  475MOL0     H64073   7.758   5.385   3.584  2.1126 -3.0047  1.3833
  475MOL0     H64074   7.568   5.445   3.463  2.1071  0.0975  0.2029
  475MOL0     H64075   7.505   5.353   3.602  0.9304  0.7235  0.5379
  475MOL0     H64076   7.417   5.101   3.574  2.1810 -1.7931 -0.0217
  475MOL0     H64077   7.311   4.926   3.261 -1.1889  0.4909 -0.2520
  475MOL0     H64078   7.305   4.897   3.442  2.1609  0.7981  0.4819
  475MOL0     H64079   7.096   5.006   3.470 -1.3151 -0.3258 -0.3677
  475MOL0     H64080   7.080   4.882   3.354  0.7597 -1.4235  0.5108
  475MOL0     H64081   7.134   5.095   3.173  0.8112  1.4469  1.3442
  475MOL0     H64082   7.097   5.186   3.331  0.6038 -0.1436  0.1114
  475MOL0     H64083   6.878   5.073   3.310 -1.6709 -1.4514 -0.8292
  475MOL0     H64084   6.928   4.996   3.155 -1.4405  0.7695 -1.0927
  475MOL0     H64085   6.811   5.198   2.926 -1.3053 -0.6058 -0.1549
  475MOL0     H64086   6.672   5.271   2.758  0.2133  0.9972  0.5787
  475MOL0     H64087   6.516   5.187   2.802  0.6484 -1.0864  2.5058
  475MOL0     H64088   6.548   5.373   2.805  0.0774  0.6103  2.3050
  475MOL0     H64089   6.309   5.532   2.875  0.1094  0.7505 -0.7251
  475MOL0     H64090   6.112   5.649   2.769  1.2882 -0.3160 -0.6956
  475MOL0     H64091   5.791   5.385   2.644  1.0660 -1.1086  2.0972
  475MOL0     H64092   5.707   5.461   2.773 -0.3539 -0.7944 -0.2794
  475MOL0     H64093   5.665   5.679   2.653 -1.1526 -0.7300  0.0465
  475MOL0     H64094   5.739   5.611   2.503  1.4592 -0.2098 -0.4545
  475MOL0     H64095   5.462   5.577   2.611 -0.9867 -1.8163 -0.1624
  475MOL0     H64096   5.530   5.420   2.599 -0.0167 -0.6171  0.9616
  475MOL0     H64097   5.568   5.593   2.355 -0.3703 -2.1761 -3.8729
  475MOL0     H64098   5.605   5.434   2.379 -2.6040 -2.8077  0.0824
  475MOL0     H64099   5.319   5.545   2.390 -0.0809  0.6806 -0.6357
  475MOL0     H64100   5.374   5.379   2.414  0.4642 -0.9990 -1.6130
  475MOL0     H64101   5.429   5.549   2.150  1.6636 -0.8413 -0.1756
  475MOL0     H64102   5.491   5.398   2.170  0.8981  0.9580 -0.4706
  475MOL0     H64103   5.211   5.463   2.110  2.8851  2.7635 -0.5829
  475MOL0     H64104   5.241   5.314   2.205 -1.6906 -0.4103 -1.4930
  475MOL0     H64105   5.351   5.216   2.044  1.0149  1.5568  1.0570
  475MOL0     H64106   5.416   5.363   1.977 -0.6919  1.2125 -3.1975
  475MOL0     H64107   5.908   5.246   2.775  1.8702 -2.7110  1.1211
  475MOL0     H64108   6.093   5.159   2.882 -2.0169  0.3305  0.2694
  475MOL0     H64109   6.485   5.274   3.290 -0.1218  2.4687  0.0629
  475MOL0     H64110   6.717   5.222   3.336 -1.5316  3.0505  0.0758
  475MOL0     H64111   8.531   4.993   3.274  0.5564  1.2593 -1.3011
  475MOL0     H64112   8.771   4.991   3.210  1.0464 -0.7120  0.7273
  475MOL0     H64113   9.130   5.066   3.109  0.6067 -0.5190 -1.9389
  475MOL0     H64114   9.331   5.103   2.969  1.5250 -0.9419  1.6477
  475MOL0     H64115   9.719   5.303   2.980 -0.0475 -0.0824 -1.0286
  475MOL0     H64116   9.635   5.376   3.124 -0.7392  1.4231 -3.2809
  475MOL0     H64117   9.779   5.104   3.101 -0.5924 -0.6529  1.4193
  475MOL0     H64118   9.670   5.146   3.224 -1.2787 -1.1660 -2.5854
  475MOL0     H64119   9.874   5.202   3.316 -1.3707 -0.9423 -0.3235
  475MOL0     H64120   9.808   5.354   3.272  1.6743 -0.1051 -0.4249
  475MOL0     H64121  10.035   5.368   3.164  1.1754 -0.9594 -0.3587
  475MOL0     H64122   9.933   5.323   3.025  0.0147 -0.7275 -0.3332
  475MOL0     H64123  10.178   4.982   3.047 -1.0023 -0.3856 -0.6138
  475MOL0     H64124   9.494   5.343   3.264 -2.0632  1.9383 -0.2784
  475MOL0     H64125   9.276   5.374   3.366 -2.2382 -1.7126  2.1039
  476MOL0     O64126   9.736   4.453   7.168 -0.1123 -0.0773  0.8375
  476MOL0     C64127   9.728   4.331   7.182  0.1958 -0.2823 -0.7614
  476MOL0     O64128   9.622   4.259   7.237 -0.2630  0.6717  0.1758
  476MOL0     C64129   9.490   4.303   7.253  0.1062  0.1102  1.2564
  476MOL0     C64130   9.395   4.207   7.232  0.6256 -0.5824  0.2083
  476MOL0     C64131   9.258   4.237   7.262 -1.4042 -0.5491  0.2779
  476MOL0     C64132   9.214   4.359   7.314  0.9065  0.0309  0.1419
  476MOL0     O64133   9.079   4.382   7.333  0.4897  0.1882 -0.0657
  476MOL0     C64134   9.047   4.464   7.447  0.4051 -0.8390 -0.4969
  476MOL0     C64135   8.896   4.502   7.424 -0.7484  0.0117 -0.6256
  476MOL0     C64136   8.808   4.378   7.408  0.3172 -0.4593  0.0755
  476MOL0     C64137   8.666   4.409   7.452  0.2535 -0.3357 -0.1787
  476MOL0     C64138   8.574   4.291   7.465  0.1424 -0.5727 -0.1387
  476MOL0     C64139   8.429   4.334   7.512 -0.1710  1.1784 -0.6012
  476MOL0     C64140   8.343   4.208   7.533 -0.1787 -1.3620  0.0379
  476MOL0     C64141   8.208   4.233   7.466 -0.2447 -0.2186  0.4980
  476MOL0     N64142   8.112   4.125   7.484 -0.9572 -0.2964  0.0161
  476MOL0     C64143   8.136   3.994   7.447  0.5725 -1.4301  0.0513
  476MOL0     C64144   8.007   3.936   7.444 -0.1160 -0.7405 -0.5947
  476MOL0     C64145   7.980   3.789   7.409  0.6556 -0.8441 -0.3779
  476MOL0     C64146   8.043   3.700   7.521  0.5034  0.3453  0.1073
  476MOL0     C64147   8.073   3.561   7.468  0.1153  0.7386 -0.1703
  476MOL0     C64148   7.938   3.480   7.460 -0.0263 -0.4801  0.8650
  476MOL0     O64149   7.857   3.521   7.346  0.2100  0.3920  0.5564
  476MOL0     C64150   7.734   3.458   7.321 -0.2976 -0.4359  1.6195
  476MOL0     C64151   7.664   3.355   7.394  0.4596  0.4314  0.7688
  476MOL0     C64152   7.552   3.285   7.341  0.2659  1.2548 -0.2992
  476MOL0     C64153   7.486   3.174   7.422  0.2368  0.3426 -0.3891
  476MOL0     C64154   7.500   3.325   7.216 -1.0284 -0.1814 -0.3909
  476MOL0     C64155   7.388   3.254   7.149  0.3841 -0.2263  0.1348
  476MOL0     O64156   7.344   3.326   7.037 -0.6134  0.4920  0.6276
  476MOL0     C64157   7.255   3.260   6.959  1.1816  0.9176 -0.3708
  476MOL0     C64158   7.120   3.240   6.997  0.8911 -0.2479  0.7482
  476MOL0     C64159   7.029   3.176   6.915 -0.5863 -0.1398  0.3230
  476MOL0     C64160   7.081   3.115   6.806  0.2987 -0.1624  0.8993
  476MOL0     O64161   6.999   3.035   6.728  0.3378 -0.3744  0.3240
  476MOL0     C64162   7.038   2.963   6.606  0.4501  0.2701  0.6891
  476MOL0     C64163   6.920   2.866   6.559 -1.2451  0.2593 -1.5322
  476MOL0     C64164   6.780   2.914   6.563  0.1368  1.1459  0.1426
  476MOL0     C64165   6.754   3.025   6.463  0.3240  0.2145 -0.8662
  476MOL0     C64166   6.608   3.059   6.443  0.0017 -0.1211 -0.3743
  476MOL0     C64167   6.542   3.129   6.559  0.4531 -0.4659 -0.4042
  476MOL0     C64168   6.392   3.155   6.529  0.1722  0.1096  0.2734
  476MOL0     C64169   6.308   3.137   6.653  0.1423 -1.0774  0.4779
  476MOL0    Cl64170   6.307   2.969   6.715  0.0851 -0.0447  0.0926
  476MOL0     C64171   7.217   3.132   6.760  0.1676  0.3013  0.1639
  476MOL0     C64172   7.300   3.202   6.838 -0.5262  0.2482 -0.2929
  476MOL0     O64173   7.339   3.154   7.191 -0.2678 -0.3014  0.9160
  476MOL0     C64174   7.568   3.424   7.147 -0.2068  0.2240 -0.8928
  476MOL0     C64175   7.679   3.489   7.201 -0.1773  0.0778  0.3208
  476MOL0     N64176   7.917   4.030   7.490 -0.0447  0.1720  0.1603
  476MOL0     N64177   7.979   4.145   7.502  0.2149 -0.3705 -0.0956
  476MOL0     C64178   9.311   4.463   7.322  0.6374 -1.2096  0.2662
  476MOL0     C64179   9.447   4.436   7.289 -0.2552 -0.1531 -0.6715
  476MOL0     C64180   9.854   4.254   7.159 -0.2372 -0.2767  0.1397
  476MOL0     C64181   9.855   4.115   7.144  0.4648 -0.3511  0.2390
  476MOL0     C64182   9.968   4.040   7.116 -0.1506  0.3614  0.4566
  476MOL0     C64183  10.093   4.102   7.100  0.6439  0.6503  0.5234
  476MOL0     O64184  10.202   4.021   7.088 -0.0943  0.3771  0.2869
  476MOL0     C64185  10.322   4.058   7.145  0.2248  0.2273 -1.5641
  476MOL0     C64186  10.413   4.142   7.052 -0.0567  1.1838 -0.6692
  476MOL0     C64187  10.525   4.047   6.998  0.2703 -0.6393  0.9963
  476MOL0     C64188  10.580   4.100   6.862  0.6077 -0.7035 -0.3846
  476MOL0     C64189  10.684   4.012   6.810 -0.0775  0.2433 -0.6584
  476MOL0     C64190  10.776   3.942   6.767  0.2235 -0.5603  0.1481
  476MOL0     C64191  10.095   4.240   7.110  1.8149  0.0768  1.1713
  476MOL0     C64192   9.979   4.321   7.143 -0.1137 -0.1174 -0.0038
  476MOL0     H64193   9.423   4.106   7.203 -3.2835 -1.5297 -0.8331
  476MOL0     H64194   9.187   4.162   7.228 -0.6867 -0.8836 -0.5177
  476MOL0     H64195   9.059   4.408   7.540  0.3241 -0.2198 -0.1075
  476MOL0     H64196   9.108   4.554   7.455  2.1658 -1.6769 -3.0407
  476MOL0     H64197   8.868   4.562   7.511 -0.8952  1.7148 -1.8020
  476MOL0     H64198   8.901   4.563   7.334 -2.8307 -0.4854 -1.1179
  476MOL0     H64199   8.802   4.357   7.301 -1.5864  0.3940 -0.0327
  476MOL0     H64200   8.841   4.288   7.461  0.8818 -1.1930 -1.4559
  476MOL0     H64201   8.651   4.472   7.541 -1.8419  0.4265 -0.9900
  476MOL0     H64202   8.625   4.479   7.378 -0.5579 -0.9674 -0.3498
  476MOL0     H64203   8.574   4.246   7.365 -4.6562 -1.9389  0.2759
  476MOL0     H64204   8.625   4.218   7.528 -0.3460 -2.9291 -2.2865
  476MOL0     H64205   8.446   4.374   7.612  0.6522  0.7238 -0.5479
  476MOL0     H64206   8.381   4.411   7.452 -2.0931  0.1416 -0.4864
  476MOL0     H64207   8.386   4.113   7.500 -1.5656 -3.1331  2.8403
  476MOL0     H64208   8.321   4.194   7.639 -1.9177  0.0154 -0.0954
  476MOL0     H64209   8.223   4.250   7.359 -0.0864  0.8098  0.6757
  476MOL0     H64210   8.164   4.322   7.510  1.2495  1.9571 -2.1348
  476MOL0     H64211   8.227   3.942   7.417  1.2978 -1.5057  2.2072
  476MOL0     H64212   7.872   3.770   7.404 -0.4012  3.2971  1.7649
  476MOL0     H64213   8.023   3.774   7.310  0.8108 -0.3413 -0.3911
  476MOL0     H64214   7.972   3.693   7.603 -1.7146 -1.0829 -1.7801
  476MOL0     H64215   8.138   3.744   7.554  1.6256 -1.5408 -0.4371
  476MOL0     H64216   8.137   3.504   7.535  0.8958  2.1779  0.3449
  476MOL0     H64217   8.119   3.569   7.369  0.3066  0.9222 -0.0665
  476MOL0     H64218   7.880   3.505   7.549 -0.0179  2.4037  0.1631
  476MOL0     H64219   7.972   3.376   7.448  1.0541  0.0157 -0.8611
  476MOL0     H64220   7.703   3.329   7.491 -0.4928 -1.0643  0.7786
  476MOL0     H64221   7.544   3.146   7.509 -0.0425  0.8016 -0.0490
  476MOL0     H64222   7.386   3.209   7.450  0.7380  0.6343  1.0903
  476MOL0     H64223   7.480   3.081   7.365  0.5909  0.2764 -0.3176
  476MOL0     H64224   7.072   3.278   7.086  0.0859  1.1266 -0.2438
  476MOL0     H64225   6.922   3.164   6.933 -0.7101  0.5578  0.0876
  476MOL0     H64226   7.054   3.037   6.527 -1.9844 -0.4163 -0.5381
  476MOL0     H64227   7.125   2.899   6.616 -0.6153 -2.1988 -3.5397
  476MOL0     H64228   6.954   2.836   6.459  0.8248 -0.6699 -0.6184
  476MOL0     H64229   6.919   2.775   6.620 -4.2996  0.5053 -1.0763
  476MOL0     H64230   6.740   2.939   6.662 -1.6441 -3.7949  0.9475
  476MOL0     H64231   6.724   2.828   6.525  1.9799  0.8975 -2.2243
  476MOL0     H64232   6.806   3.118   6.490 -0.2096  0.0883  0.7697
  476MOL0     H64233   6.780   2.988   6.364 -2.0442 -2.6083 -0.5844
  476MOL0     H64234   6.554   2.976   6.398  3.3096 -1.7672 -1.6204
  476MOL0     H64235   6.615   3.132   6.361  0.0648 -2.2858 -2.3910
  476MOL0     H64236   6.548   3.063   6.647  1.3143 -0.4829 -0.4696
  476MOL0     H64237   6.591   3.220   6.594 -1.3533 -0.1066  1.4086
  476MOL0     H64238   6.348   3.098   6.446  0.6090 -1.2729  0.9544
  476MOL0     H64239   6.390   3.257   6.490  2.4280 -0.1488 -0.6275
  476MOL0     H64240   6.203   3.166   6.640  0.9583  1.4898 -0.8843
  476MOL0     H64241   6.341   3.209   6.729 -5.3292  3.7593 -1.0146
  476MOL0     H64242   7.260   3.098   6.667  1.2625  4.2957 -0.9917
  476MOL0     H64243   7.403   3.231   6.817 -0.1770 -0.2645  0.6317
  476MOL0     H64244   7.556   3.448   7.042  1.9525 -0.1363 -1.2593
  476MOL0     H64245   7.721   3.564   7.134 -1.8865 -0.1995 -1.1481
  476MOL0     H64246   9.290   4.567   7.345 -0.4649 -0.8743 -1.9545
  476MOL0     H64247   9.514   4.517   7.315 -0.1357  0.0626 -1.6160
  476MOL0     H64248   9.769   4.049   7.152  0.4087 -0.2188  0.7656
  476MOL0     H64249   9.974   3.932   7.107  0.0553  0.1401  2.6810
  476MOL0     H64250  10.296   4.103   7.241  1.2710  0.0677 -1.1932
  476MOL0     H64251  10.378   3.972   7.184 -0.4024  0.0514 -1.0404
  476MOL0     H64252  10.457   4.215   7.121 -0.2280 -2.9570  4.3915
  476MOL0     H64253  10.361   4.190   6.969 -1.8936  0.1420 -0.1613
  476MOL0     H64254  10.475   3.954   6.971 -0.3729  0.2090 -0.9238
  476MOL0     H64255  10.600   4.023   7.075 -0.8799 -1.4809  1.8983
  476MOL0     H64256  10.607   4.205   6.874 -1.4099 -0.1591 -0.2631
  476MOL0     H64257  10.496   4.106   6.792 -0.4025 -0.8553  0.7903
  476MOL0     H64258  10.864   3.903   6.720 -0.2602  2.4743 -3.9466
  476MOL0     H64259  10.193   4.288   7.108  1.0608  1.6919  0.4501
  476MOL0     H64260   9.997   4.427   7.157 -1.5688  0.2058 -0.4338
  477MOL0     O64261   7.288   7.537   5.316 -0.4800  0.5559  0.2284
  477MOL0     C64262   7.204   7.565   5.400 -0.2399 -0.8372  0.7594
  477MOL0     O64263   7.220   7.665   5.490  0.1578 -0.1220 -0.3381
  477MOL0     C64264   7.324   7.748   5.514  0.1874  0.5347  0.3106
  477MOL0     C64265   7.326   7.818   5.632 -0.3523  0.8113 -0.2627
  477MOL0     C64266   7.435   7.908   5.664 -0.6163 -0.2605  0.0945
  477MOL0     C64267   7.534   7.921   5.570 -0.6465 -0.1005 -0.0155
  477MOL0     O64268   7.634   8.013   5.596 -0.0152  0.1212 -0.2190
  477MOL0     C64269   7.779   7.987   5.582  0.9873 -0.4544 -0.4317
  477MOL0     C64270   7.834   7.932   5.716 -0.3438  0.2081 -0.2213
  477MOL0     C64271   7.822   8.030   5.833 -0.7562 -0.0733 -1.3133
  477MOL0     C64272   7.903   7.983   5.960  0.6238 -0.2715  0.2924
  477MOL0     C64273   7.901   8.092   6.068  0.4371  0.3213 -0.1613
  477MOL0     C64274   7.968   8.052   6.197 -0.2678 -0.0073  1.4593
  477MOL0     C64275   7.975   8.163   6.298  0.1474 -0.2388  0.8240
  477MOL0     C64276   8.025   8.140   6.438 -0.4682  0.0356 -0.3750
  477MOL0     N64277   8.008   8.264   6.523  0.3527  0.3300 -0.4744
  477MOL0     C64278   8.111   8.336   6.577  0.6216 -0.0831  0.4777
  477MOL0     C64279   8.045   8.434   6.642 -0.5533  0.0042  0.3137
  477MOL0     C64280   8.108   8.542   6.721 -0.8350  0.0928  0.8473
  477MOL0     C64281   8.170   8.490   6.844  0.1368  0.1569 -0.5666
  477MOL0     C64282   8.115   8.536   6.976  0.0510  0.7685 -0.0821
  477MOL0     C64283   7.965   8.505   6.985 -0.5216 -0.6462 -1.3031
  477MOL0     O64284   7.901   8.538   7.119 -0.3888 -0.1778  0.0684
  477MOL0     C64285   7.767   8.542   7.128 -0.5177  0.0617 -0.1538
  477MOL0     C64286   7.720   8.612   7.235  0.0337 -0.8995  0.0900
  477MOL0     C64287   7.581   8.640   7.254 -0.8701  0.4896  0.0948
  477MOL0     C64288   7.547   8.726   7.372 -0.0769  0.3262 -0.3596
  477MOL0     C64289   7.487   8.575   7.169 -0.1510 -0.4231  0.1381
  477MOL0     C64290   7.341   8.576   7.182  0.7917  0.1519  0.3564
  477MOL0     O64291   7.265   8.517   7.080  0.1278  0.5413 -0.3399
  477MOL0     C64292   7.129   8.522   7.069 -0.0535  0.4074  0.6914
  477MOL0     C64293   7.040   8.556   7.171  0.1867  0.2419 -0.4404
  477MOL0     C64294   6.900   8.555   7.150 -0.1014 -0.4312  0.4199
  477MOL0     C64295   6.855   8.522   7.022  0.1829  1.2010  0.6451
  477MOL0     O64296   6.721   8.548   6.989 -0.8905 -0.6962  0.3030
  477MOL0     C64297   6.693   8.583   6.849 -0.1729  0.2257 -0.9771
  477MOL0     C64298   6.542   8.577   6.810  0.6079 -0.2751 -0.9795
  477MOL0     C64299   6.466   8.673   6.899 -0.1347  0.4180  0.2845
  477MOL0     C64300   6.312   8.646   6.890 -0.1977 -0.1518 -0.0792
  477MOL0     C64301   6.241   8.741   6.986  0.1495  0.1268  0.4540
  477MOL0     C64302   6.096   8.752   6.941  0.5016 -0.3629 -0.1313
  477MOL0     C64303   6.012   8.838   7.038 -0.1313  0.3476 -0.2832
  477MOL0     C64304   5.873   8.880   6.992 -0.1022  0.3510 -0.7703
  477MOL0    Cl64305   5.885   8.990   6.855 -0.2667 -0.2370  0.0532
  477MOL0     C64306   6.945   8.489   6.919 -0.0773  0.6685 -0.7182
  477MOL0     C64307   7.080   8.493   6.940 -0.4662  0.1218 -0.4827
  477MOL0     O64308   7.299   8.648   7.270  0.0680  0.2718 -1.9054
  477MOL0     C64309   7.543   8.498   7.067  0.0088 -0.0768  0.3353
  477MOL0     C64310   7.676   8.474   7.047 -0.8174 -0.6513  0.2204
  477MOL0     N64311   7.913   8.422   6.612  0.0239  0.0504  0.0090
  477MOL0     N64312   7.889   8.330   6.534  0.0690 -0.1362  0.7718
  477MOL0     C64313   7.536   7.856   5.448 -0.2755  0.0288 -0.6399
  477MOL0     C64314   7.428   7.772   5.424  0.5847 -0.3944 -0.1741
  477MOL0     C64315   7.069   7.498   5.381  0.6913 -0.7830  0.5119
  477MOL0     C64316   7.066   7.358   5.353  0.3237 -0.5835 -0.2203
  477MOL0     C64317   6.943   7.290   5.340  0.7605  0.5466  0.4681
  477MOL0     C64318   6.826   7.355   5.367  1.3226  0.0783 -0.2588
  477MOL0     O64319   6.709   7.280   5.359  0.6665 -0.3956 -0.9197
  477MOL0     C64320   6.634   7.346   5.256 -0.2056  0.4516 -0.0139
  477MOL0     C64321   6.507   7.269   5.248  0.3999 -1.3583 -0.0273
  477MOL0     C64322   6.434   7.247   5.373  0.4379 -0.2157  0.0188
  477MOL0     C64323   6.327   7.142   5.350  0.7365  0.3240 -0.3644
  477MOL0     C64324   6.225   7.205   5.269  1.0958 -0.3037  0.3788
  477MOL0     C64325   6.136   7.269   5.206 -1.2255  0.1015  0.0142
  477MOL0     C64326   6.827   7.488   5.421 -0.0415  0.1060  0.2786
  477MOL0     C64327   6.947   7.562   5.418  0.8086 -0.3991  0.2729
  477MOL0     H64328   7.253   7.800   5.710  1.5704  0.1622  1.4487
  477MOL0     H64329   7.452   7.963   5.757  3.9263 -1.0880 -0.0294
  477MOL0     H64330   7.790   7.922   5.494 -1.9584  0.7140 -1.8104
  477MOL0     H64331   7.829   8.083   5.570  0.8833 -0.4401 -0.7678
  477MOL0     H64332   7.775   7.844   5.743 -1.0367  1.3579  2.3185
  477MOL0     H64333   7.939   7.903   5.702 -0.2921  0.3546 -0.1397
  477MOL0     H64334   7.861   8.128   5.804 -1.7540  0.9619  0.6110
  477MOL0     H64335   7.718   8.036   5.865 -1.0574  1.1836 -2.4406
  477MOL0     H64336   7.850   7.896   6.000  0.0246  0.7510  1.8209
  477MOL0     H64337   8.008   7.963   5.935  1.9458  4.1969  1.4147
  477MOL0     H64338   7.949   8.184   6.032 -2.9294  1.4393 -2.1993
  477MOL0     H64339   7.799   8.116   6.098  0.6373  2.3521 -0.9458
  477MOL0     H64340   7.923   7.962   6.241  1.8685 -2.2490 -0.6775
  477MOL0     H64341   8.071   8.022   6.178  0.5506  1.0577  3.8014
  477MOL0     H64342   8.028   8.247   6.253 -1.4913  0.1183 -0.5221
  477MOL0     H64343   7.870   8.194   6.294  0.0625 -0.5649 -2.2196
  477MOL0     H64344   8.132   8.120   6.433  0.0929  2.8408 -1.4005
  477MOL0     H64345   7.977   8.059   6.494 -0.7514  0.3835 -0.1069
  477MOL0     H64346   8.216   8.312   6.564  0.3003 -0.3326 -2.4152
  477MOL0     H64347   8.187   8.594   6.666 -0.1282  0.8344  2.4811
  477MOL0     H64348   8.020   8.601   6.749 -1.8966 -2.5352  3.5605
  477MOL0     H64349   8.277   8.512   6.847  0.2478 -0.2505 -1.3421
  477MOL0     H64350   8.166   8.381   6.853  0.5331  0.1754 -0.1108
  477MOL0     H64351   8.128   8.644   6.981  1.9528  0.6257 -1.1452
  477MOL0     H64352   8.172   8.474   7.047  1.0532  1.4075 -0.3047
  477MOL0     H64353   7.946   8.400   6.961 -0.5675 -0.6051 -1.4522
  477MOL0     H64354   7.906   8.554   6.907  0.4774  5.1555  1.0602
  477MOL0     H64355   7.795   8.658   7.299  0.8281  0.3071 -1.6334
  477MOL0     H64356   7.507   8.823   7.340 -1.8024 -1.0115 -2.5380
  477MOL0     H64357   7.475   8.675   7.437  2.5154 -0.6873  1.9683
  477MOL0     H64358   7.635   8.755   7.431 -0.1261 -0.3119  0.0326
  477MOL0     H64359   7.081   8.573   7.269 -0.8645 -0.6676  0.1879
  477MOL0     H64360   6.829   8.578   7.228 -1.0896  0.0066 -0.5777
  477MOL0     H64361   6.733   8.683   6.830 -4.0953  1.9701 -0.9621
  477MOL0     H64362   6.735   8.516   6.773 -1.0299 -0.0533 -1.2187
  477MOL0     H64363   6.526   8.611   6.708 -0.0079  0.2231 -0.7206
  477MOL0     H64364   6.508   8.474   6.825  1.8280 -0.5193  0.3945
  477MOL0     H64365   6.496   8.772   6.863  2.2713 -0.6189 -0.7469
  477MOL0     H64366   6.502   8.654   7.000  0.2743  1.0648  0.2670
  477MOL0     H64367   6.281   8.658   6.785  0.9955  0.6146 -0.3649
  477MOL0     H64368   6.281   8.546   6.922 -2.6773  0.1468 -1.2984
  477MOL0     H64369   6.288   8.840   6.988 -1.3363  0.8864 -0.2970
  477MOL0     H64370   6.246   8.701   7.088  0.4724  0.2305  0.4785
  477MOL0     H64371   6.093   8.799   6.842  1.0890 -0.2870 -0.1205
  477MOL0     H64372   6.044   8.656   6.933 -2.5493  0.9598  2.0860
  477MOL0     H64373   6.065   8.930   7.061  0.2010  0.0797  0.0379
  477MOL0     H64374   6.001   8.788   7.134 -2.1470  1.7367  0.2668
  477MOL0     H64375   5.823   8.931   7.075  0.7867  0.3458 -0.2187
  477MOL0     H64376   5.822   8.788   6.963  3.0958 -1.4381 -1.1269
  477MOL0     H64377   6.919   8.463   6.817 -1.9313 -1.5501  0.2028
  477MOL0     H64378   7.141   8.468   6.855 -0.6462  0.7729 -0.8124
  477MOL0     H64379   7.480   8.439   7.001 -0.0301 -0.9314  1.1045
  477MOL0     H64380   7.717   8.408   6.971  2.7207 -1.4443  2.5888
  477MOL0     H64381   7.613   7.865   5.372  0.1179  0.3915 -0.2123
  477MOL0     H64382   7.438   7.720   5.329 -0.1722 -0.8280 -0.0293
  477MOL0     H64383   7.166   7.321   5.331  2.6597  3.9154  1.4747
  477MOL0     H64384   6.943   7.186   5.308 -0.5907  0.3311  1.0767
  477MOL0     H64385   6.612   7.450   5.279 -1.7044  0.8764 -2.9755
  477MOL0     H64386   6.683   7.334   5.159  2.4319  1.3552  1.1268
  477MOL0     H64387   6.528   7.170   5.206  1.1886 -1.1438 -0.1373
  477MOL0     H64388   6.450   7.321   5.171  0.5594 -1.6352 -0.3321
  477MOL0     H64389   6.385   7.334   5.420  2.1144  1.9744 -2.0921
  477MOL0     H64390   6.497   7.201   5.450  2.3516 -0.9036 -1.8912
  477MOL0     H64391   6.291   7.109   5.447  1.8995 -1.3297 -0.4596
  477MOL0     H64392   6.361   7.049   5.303  2.4080  0.7914 -0.1514
  477MOL0     H64393   6.061   7.328   5.157 -0.5225  2.9436  2.1156
  477MOL0     H64394   6.740   7.542   5.457  1.1730  2.0741  0.3988
  477MOL0     H64395   6.940   7.662   5.459  1.0355 -1.1578  2.2906
  478MOL0     O64396   2.614   7.409   8.126 -0.1662  0.3898  0.0682
  478MOL0     C64397   2.690   7.390   8.220  0.1651  0.1817 -0.5261
  478MOL0     O64398   2.662   7.371   8.349  0.0885  0.1644 -0.3158
  478MOL0     C64399   2.530   7.393   8.380  0.6593  0.0616  0.3150
  478MOL0     C64400   2.472   7.521   8.383  0.1739 -0.4750  0.2266
  478MOL0     C64401   2.335   7.529   8.424 -0.4010  0.7312 -0.4243
  478MOL0     C64402   2.259   7.423   8.463 -0.1675  0.0841 -0.5630
  478MOL0     O64403   2.119   7.443   8.491  0.4634 -0.3733 -0.4808
  478MOL0     C64404   2.021   7.346   8.482 -0.6612  0.1806  0.2059
  478MOL0     C64405   1.890   7.395   8.522  0.5498 -0.2921  0.4627
  478MOL0     C64406   1.783   7.296   8.481 -0.4886  0.6385  0.0744
  478MOL0     C64407   1.651   7.360   8.492  0.5054  0.8789  0.2204
  478MOL0     C64408   1.541   7.272   8.451  0.2314  0.7068  0.7340
  478MOL0     C64409   1.399   7.342   8.472 -0.1832 -0.4289 -0.4225
  478MOL0     C64410   1.290   7.235   8.466  0.5427 -0.1596 -0.8601
  478MOL0     C64411   1.268   7.161   8.601  0.4995  0.1644  0.1743
  478MOL0     N64412   1.145   7.081   8.606 -1.3380 -0.3049  0.3578
  478MOL0     C64413   1.021   7.127   8.594  0.7179 -0.8188  0.6709
  478MOL0     C64414   0.939   7.026   8.573  0.3247  0.4910  0.1499
  478MOL0     C64415   0.790   7.037   8.569 -0.5049  0.1932  0.5016
  478MOL0     C64416   0.722   6.945   8.459  0.1401  0.2877  0.8392
  478MOL0     C64417   0.694   6.799   8.506  0.7329 -0.1769 -0.8322
  478MOL0     C64418   0.551   6.755   8.482  0.8328 -0.0488  0.0629
  478MOL0     O64419   0.470   6.828   8.571 -0.0599 -0.4613  0.2262
  478MOL0     C64420   0.335   6.832   8.540  0.6290 -0.4612 -0.6350
  478MOL0     C64421   0.276   6.728   8.470  0.6015 -0.1329  0.0827
  478MOL0     C64422   0.149   6.740   8.406 -0.4136  0.4020 -0.0994
  478MOL0     C64423   0.099   6.614   8.331 -0.7460 -0.3427  0.8419
  478MOL0     C64424   0.069   6.847   8.452 -0.3468 -0.2971 -0.9195
  478MOL0     C64425  -0.083   6.856   8.431 -0.1419  0.2508  0.4338
  478MOL0     O64426  -0.137   6.795   8.317 -0.2576 -0.3544  0.1369
  478MOL0     C64427  -0.271   6.794   8.312 -0.7408 -0.1217  0.5749
  478MOL0     C64428  -0.349   6.887   8.242 -0.4829 -0.5186 -0.0393
  478MOL0     C64429  -0.483   6.873   8.237 -0.1545  0.6726  0.2149
  478MOL0     C64430  -0.543   6.755   8.283 -0.3000  0.4300  0.1818
  478MOL0     O64431  -0.668   6.725   8.250  0.4983 -0.2932 -0.0039
  478MOL0     C64432  -0.724   6.774   8.117 -1.2832  0.2910 -0.1937
  478MOL0     C64433  -0.816   6.899   8.142  0.5534 -0.2472 -0.2037
  478MOL0     C64434  -0.934   6.855   8.237  0.3739  0.1061 -0.1073
  478MOL0     C64435  -1.064   6.839   8.150 -0.3563  0.2625  0.3859
  478MOL0     C64436  -1.185   6.817   8.247  0.0069 -0.3936  0.9321
  478MOL0     C64437  -1.316   6.780   8.184  0.1838  0.2117 -0.5753
  478MOL0     C64438  -1.423   6.754   8.292  0.0013 -0.1640  0.1756
  478MOL0     C64439  -1.537   6.674   8.238 -0.7843 -0.7319  0.5868
  478MOL0    Cl64440  -1.669   6.673   8.356 -0.0033 -0.2685  0.5082
  478MOL0     C64441  -0.469   6.680   8.375  0.2755  0.2299 -0.8195
  478MOL0     C64442  -0.329   6.688   8.380  0.2373  0.1385 -0.3123
  478MOL0     O64443  -0.145   6.921   8.512  0.2160  0.1446  0.4985
  478MOL0     C64444   0.123   6.946   8.526  0.4431 -0.3358 -0.3091
  478MOL0     C64445   0.253   6.938   8.569  0.0559 -0.2864 -0.1005
  478MOL0     N64446   1.017   6.905   8.573  0.3307 -0.0905 -0.4181
  478MOL0     N64447   1.144   6.945   8.586  0.2436  0.0371  0.1834
  478MOL0     C64448   2.321   7.289   8.458  0.1704 -0.5162 -1.1957
  478MOL0     C64449   2.457   7.282   8.419  0.7234  0.1105  0.4699
  478MOL0     C64450   2.834   7.374   8.184 -0.0551  0.3463 -0.4058
  478MOL0     C64451   2.887   7.432   8.068 -0.1848 -0.0499  0.7178
  478MOL0     C64452   3.024   7.411   8.036 -0.2282 -0.2822  0.5059
  478MOL0     C64453   3.117   7.337   8.109 -0.3273  0.8142 -0.2036
  478MOL0     O64454   3.236   7.316   8.054 -0.0478  1.1489 -1.2052
  478MOL0     C64455   3.341   7.259   8.137 -0.1905 -0.3760  0.2025
  478MOL0     C64456   3.455   7.262   8.029  0.4138  0.0328  0.1783
  478MOL0     C64457   3.598   7.267   8.083  0.1676 -0.0648 -0.9985
  478MOL0     C64458   3.706   7.238   7.986 -0.4992  0.0629 -0.2352
  478MOL0     C64459   3.835   7.202   8.042  0.0726 -0.5711 -0.6605
  478MOL0     C64460   3.954   7.193   8.079  1.1073  0.7560 -1.2290
  478MOL0     C64461   3.064   7.295   8.240  0.1672  0.1623  0.0963
  478MOL0     C64462   2.924   7.302   8.262 -0.7567  0.2422  0.1426
  478MOL0     H64463   2.528   7.607   8.348 -2.4731  0.2834 -2.5999
  478MOL0     H64464   2.275   7.620   8.425 -0.7918  0.4856 -0.9409
  478MOL0     H64465   2.022   7.313   8.378 -2.4502 -1.2681  0.5945
  478MOL0     H64466   2.048   7.254   8.535 -1.8166 -1.2011 -1.4562
  478MOL0     H64467   1.883   7.423   8.627  1.0509 -1.4440  0.8241
  478MOL0     H64468   1.865   7.485   8.465 -2.5089  0.0340  2.1403
  478MOL0     H64469   1.790   7.257   8.379 -1.0251 -0.2211  0.3521
  478MOL0     H64470   1.794   7.215   8.554  2.5722 -0.0063 -0.9523
  478MOL0     H64471   1.620   7.390   8.592  0.2193  0.3807  0.2821
  478MOL0     H64472   1.648   7.453   8.433 -1.3312  2.0206  1.9813
  478MOL0     H64473   1.540   7.233   8.350  1.2698 -0.6363  1.2197
  478MOL0     H64474   1.541   7.183   8.514  1.4394  1.1652  1.4145
  478MOL0     H64475   1.396   7.372   8.577 -0.3935  0.0128 -0.5536
  478MOL0     H64476   1.385   7.423   8.401  0.2545 -2.3147 -2.7820
  478MOL0     H64477   1.197   7.289   8.443 -0.2130 -0.4170  1.3407
  478MOL0     H64478   1.304   7.169   8.380 -0.2283 -0.7957 -0.5135
  478MOL0     H64479   1.246   7.232   8.681 -0.8955  1.5425 -1.3379
  478MOL0     H64480   1.354   7.098   8.624  0.5002  0.4778  1.0420
  478MOL0     H64481   0.999   7.233   8.598  2.2052 -0.3016 -2.1425
  478MOL0     H64482   0.746   7.019   8.668 -0.0869  0.9322  0.8360
  478MOL0     H64483   0.770   7.138   8.530 -1.6995 -1.4595 -3.7362
  478MOL0     H64484   0.792   6.942   8.374 -3.2343 -0.3588 -2.1632
  478MOL0     H64485   0.626   6.992   8.440  0.4119  0.5422  0.0752
  478MOL0     H64486   0.719   6.775   8.610  0.6331 -0.1625 -0.8053
  478MOL0     H64487   0.748   6.723   8.448  2.3388  0.1196  0.1962
  478MOL0     H64488   0.540   6.648   8.502 -2.1987  0.2550  0.5359
  478MOL0     H64489   0.522   6.771   8.378 -0.1494  1.3176  0.5083
  478MOL0     H64490   0.334   6.637   8.461  3.4324  1.4848  0.5142
  478MOL0     H64491   0.186   6.550   8.311  0.7022  0.2857  4.3580
  478MOL0     H64492   0.028   6.568   8.401 -3.0906 -2.1066 -2.4136
  478MOL0     H64493   0.044   6.642   8.241  0.0299  3.1806  1.3271
  478MOL0     H64494  -0.300   6.979   8.210 -0.2371  0.7844  3.5896
  478MOL0     H64495  -0.540   6.956   8.196 -0.1875 -0.9493 -3.3991
  478MOL0     H64496  -0.645   6.805   8.048 -3.1243  0.1978 -2.4723
  478MOL0     H64497  -0.788   6.698   8.071  0.6679 -1.9365  0.5850
  478MOL0     H64498  -0.777   6.990   8.190 -3.5388  1.2950  0.6246
  478MOL0     H64499  -0.851   6.934   8.045 -1.4366 -0.4694  0.3922
  478MOL0     H64500  -0.957   6.928   8.316 -0.1212  2.1955 -2.0718
  478MOL0     H64501  -0.910   6.756   8.275  3.3887 -0.5104 -3.0722
  478MOL0     H64502  -1.093   6.918   8.080  0.1090  0.5320  0.4985
  478MOL0     H64503  -1.057   6.746   8.093  0.4570  1.3923 -1.4291
  478MOL0     H64504  -1.189   6.903   8.314 -0.6435 -0.4958  1.0300
  478MOL0     H64505  -1.155   6.734   8.312 -0.2121  0.4553  2.1583
  478MOL0     H64506  -1.349   6.874   8.139  3.0518  2.1800  1.0882
  478MOL0     H64507  -1.320   6.689   8.124 -4.0023 -1.3130  1.6426
  478MOL0     H64508  -1.458   6.844   8.343 -0.5338  1.8868 -3.5178
  478MOL0     H64509  -1.374   6.701   8.375  0.8576 -1.4778 -1.1157
  478MOL0     H64510  -1.509   6.570   8.224 -1.8049 -1.3429  2.6817
  478MOL0     H64511  -1.579   6.703   8.141  0.2436 -3.7708 -0.8751
  478MOL0     H64512  -0.510   6.594   8.428  0.9506  1.0203  1.0531
  478MOL0     H64513  -0.267   6.625   8.443 -0.5596 -1.0013 -0.6567
  478MOL0     H64514   0.060   7.033   8.547 -1.4007 -1.6726 -0.0567
  478MOL0     H64515   0.297   7.022   8.621 -0.8496  0.0330  0.1568
  478MOL0     H64516   2.261   7.198   8.462  0.5464 -0.7371 -0.2956
  478MOL0     H64517   2.510   7.187   8.413  0.2049 -0.2194  0.9940
  478MOL0     H64518   2.826   7.487   7.997 -1.7228 -0.4235  1.6940
  478MOL0     H64519   3.059   7.463   7.947 -1.6566 -1.2760 -0.6910
  478MOL0     H64520   3.353   7.321   8.226  1.6249  0.9853 -0.9153
  478MOL0     H64521   3.312   7.155   8.158 -0.1774 -0.6209 -0.8937
  478MOL0     H64522   3.446   7.350   7.964  0.4956 -0.1989 -0.1494
  478MOL0     H64523   3.437   7.179   7.961 -0.4280 -2.0215  2.7410
  478MOL0     H64524   3.612   7.196   8.165  1.4383 -1.6680 -2.5278
  478MOL0     H64525   3.613   7.367   8.124 -2.7356 -0.1437  0.5043
  478MOL0     H64526   3.717   7.318   7.911 -0.1945 -0.8813 -1.2243
  478MOL0     H64527   3.674   7.150   7.929 -1.5356 -0.0580  0.5112
  478MOL0     H64528   4.053   7.168   8.110  0.9165  0.3531 -0.9363
  478MOL0     H64529   3.129   7.263   8.321 -0.6405  1.9555  1.5210
  478MOL0     H64530   2.900   7.255   8.357  2.7383 -0.9691  0.5604
  479MOL0     O64531  10.350   4.766   4.233 -0.0673 -0.1221  0.4778
  479MOL0     C64532  10.382   4.800   4.116  0.4989  0.0039  0.4446
  479MOL0     O64533  10.300   4.830   4.016  0.5334 -0.3250  0.2506
  479MOL0     C64534  10.168   4.819   4.031 -0.2175 -0.4218  0.1153
  479MOL0     C64535  10.114   4.743   3.933 -0.2747 -0.2963 -0.6711
  479MOL0     C64536   9.973   4.719   3.935  1.6282 -0.1430 -0.7818
  479MOL0     C64537   9.893   4.777   4.038 -0.4900 -0.5755 -0.9111
  479MOL0     O64538   9.760   4.779   4.050  0.0492 -0.2713 -0.2149
  479MOL0     C64539   9.702   4.653   3.997  0.3073  0.2247  0.6131
  479MOL0     C64540   9.560   4.632   4.062 -0.2462 -0.7470  0.4493
  479MOL0     C64541   9.443   4.736   4.013 -0.0106  0.2261 -0.5801
  479MOL0     C64542   9.312   4.722   4.078  0.0310  1.1516 -0.5157
  479MOL0     C64543   9.207   4.640   3.993 -0.8829 -0.6349 -0.6152
  479MOL0     C64544   9.163   4.516   4.063 -0.0338 -0.3301 -0.6040
  479MOL0     C64545   9.059   4.436   3.992  0.8233 -0.1274  0.4054
  479MOL0     C64546   8.927   4.518   3.982  0.6634  0.8112 -0.9404
  479MOL0     N64547   8.802   4.436   3.964  0.5944  0.0261 -0.2032
  479MOL0     C64548   8.795   4.298   3.968  0.2093  1.1983  0.4328
  479MOL0     C64549   8.671   4.264   3.921  0.3616  0.1088 -0.0653
  479MOL0     C64550   8.614   4.127   3.917  0.4012  0.1451 -0.2416
  479MOL0     C64551   8.551   4.078   3.780 -0.2536  0.0885 -0.2011
  479MOL0     C64552   8.400   4.079   3.781  0.6027  1.2596  0.2599
  479MOL0     C64553   8.336   4.084   3.637 -0.2877  0.4773 -0.9374
  479MOL0     O64554   8.195   4.083   3.658  0.2248 -0.2661  0.0426
  479MOL0     C64555   8.114   4.100   3.543 -0.1560  0.4135 -0.2508
  479MOL0     C64556   7.976   4.123   3.566 -0.3097 -1.0976  1.2163
  479MOL0     C64557   7.897   4.167   3.458 -0.2902  0.1543  0.1492
  479MOL0     C64558   7.753   4.181   3.499  0.2997 -0.1908 -0.2519
  479MOL0     C64559   7.944   4.179   3.322  0.2072 -1.1301 -0.7322
  479MOL0     C64560   7.866   4.231   3.208 -0.8599  0.6867 -0.4726
  479MOL0     O64561   7.928   4.237   3.089  0.1485 -0.1457 -0.0122
  479MOL0     C64562   7.882   4.325   2.996  0.0316  0.4599 -0.4832
  479MOL0     C64563   7.759   4.311   2.932  1.1460 -0.0837 -0.1944
  479MOL0     C64564   7.716   4.409   2.843  0.0574  0.6372 -0.1143
  479MOL0     C64565   7.798   4.517   2.812 -0.6051 -0.1361  0.5367
  479MOL0     O64566   7.743   4.616   2.735  0.3310 -0.4470 -0.9907
  479MOL0     C64567   7.819   4.726   2.699  0.8368 -0.6901 -0.3487
  479MOL0     C64568   7.718   4.813   2.628  0.2449 -1.2374 -0.1848
  479MOL0     C64569   7.780   4.923   2.545 -0.2326 -0.4097 -0.2184
  479MOL0     C64570   7.678   4.992   2.450 -0.3230 -0.6716 -0.5480
  479MOL0     C64571   7.759   5.059   2.340  0.2943  0.2393 -0.0455
  479MOL0     C64572   7.672   5.165   2.271  0.1839  0.0448 -0.5945
  479MOL0     C64573   7.740   5.237   2.156 -0.6618  0.5288  0.2913
  479MOL0     C64574   7.865   5.301   2.198  0.0769 -0.4985 -0.6080
  479MOL0    Cl64575   7.913   5.442   2.089  0.7042 -0.0772 -0.0469
  479MOL0     C64576   7.926   4.526   2.863 -0.4462 -0.2274 -0.3793
  479MOL0     C64577   7.972   4.435   2.957  0.0500  0.6719  1.0346
  479MOL0     O64578   7.747   4.251   3.222  0.3352  0.1357 -0.5391
  479MOL0     C64579   8.081   4.154   3.308 -0.2727  0.0839  0.8005
  479MOL0     C64580   8.167   4.119   3.419 -0.5759  1.0996 -0.6135
  479MOL0     N64581   8.607   4.383   3.893 -0.2706 -0.4332 -0.7139
  479MOL0     N64582   8.683   4.489   3.927  0.2855  0.1489 -0.5855
  479MOL0     C64583   9.962   4.855   4.135 -0.5257 -0.5128 -0.4193
  479MOL0     C64584  10.101   4.862   4.139  0.5991  0.0361  0.4815
  479MOL0     C64585  10.526   4.829   4.097  0.1771  0.8848  0.3095
  479MOL0     C64586  10.572   4.903   3.987  0.5970  0.1814  0.1597
  479MOL0     C64587  10.701   4.953   3.980 -0.1583  0.2961 -0.5163
  479MOL0     C64588  10.796   4.907   4.064  0.5874  0.0038  0.7512
  479MOL0     O64589  10.927   4.938   4.063  0.1376  0.6824 -0.6920
  479MOL0     C64590  10.984   5.012   3.955 -0.9016 -0.4276  0.6577
  479MOL0     C64591  11.001   4.932   3.827 -0.0845  0.6182  0.6504
  479MOL0     C64592  11.056   5.026   3.721 -0.0200  0.6064  0.1862
  479MOL0     C64593  10.968   5.154   3.683  0.6766 -0.0571 -0.2636
  479MOL0     C64594  10.825   5.115   3.650  0.0203 -0.6005  0.0385
  479MOL0     C64595  10.707   5.096   3.631 -0.4497 -0.3641 -1.5322
  479MOL0     C64596  10.763   4.833   4.174 -0.0644  0.3434  0.3676
  479MOL0     C64597  10.625   4.792   4.190 -0.0840  0.1245 -0.4843
  479MOL0     H64598  10.178   4.698   3.859 -1.9324 -3.5976 -0.2482
  479MOL0     H64599   9.928   4.648   3.866  0.3780  1.4691 -1.6828
  479MOL0     H64600   9.702   4.653   3.888 -1.2904 -3.1085  0.4774
  479MOL0     H64601   9.757   4.563   4.027  3.2454  1.2771 -1.2138
  479MOL0     H64602   9.524   4.534   4.028  1.4024 -0.9332 -0.8876
  479MOL0     H64603   9.570   4.631   4.171  3.2720 -0.5022  0.2384
  479MOL0     H64604   9.480   4.836   4.040  3.2655 -0.5610 -1.6358
  479MOL0     H64605   9.439   4.736   3.904 -2.4393  1.6343 -0.5645
  479MOL0     H64606   9.325   4.686   4.180  0.2283  0.2157 -0.8633
  479MOL0     H64607   9.280   4.826   4.087 -1.7645  0.6203 -0.3336
  479MOL0     H64608   9.124   4.709   3.974 -0.9506  0.4263  2.8674
  479MOL0     H64609   9.255   4.616   3.897  2.1389  0.1054  0.5970
  479MOL0     H64610   9.249   4.449   4.058 -0.3447 -0.6673 -2.0583
  479MOL0     H64611   9.131   4.548   4.162  0.5603  1.6482 -1.0130
  479MOL0     H64612   9.103   4.412   3.895 -0.8218 -1.6870  0.0027
  479MOL0     H64613   9.044   4.347   4.054 -1.1737 -1.7829 -2.2843
  479MOL0     H64614   8.934   4.603   3.913 -0.0772  0.8783 -0.9368
  479MOL0     H64615   8.892   4.548   4.081 -3.3346 -0.7046 -1.6958
  479MOL0     H64616   8.870   4.230   4.009  0.1867 -0.5519 -2.1910
  479MOL0     H64617   8.680   4.053   3.963  0.1069  0.5933  0.9361
  479MOL0     H64618   8.532   4.137   3.989 -2.1970  0.1930 -2.9787
  479MOL0     H64619   8.596   3.981   3.758  1.2427  0.5086  0.8066
  479MOL0     H64620   8.586   4.150   3.706  0.0087  1.0508  0.8253
  479MOL0     H64621   8.355   4.166   3.830  1.8948  2.5204 -0.7111
  479MOL0     H64622   8.365   3.987   3.830 -1.4745  1.0001 -1.5112
  479MOL0     H64623   8.382   4.004   3.579  2.4602  2.9312 -2.3891
  479MOL0     H64624   8.364   4.181   3.593 -2.8169  3.6532  3.5924
  479MOL0     H64625   7.945   4.106   3.668 -2.9266 -1.5088  0.4312
  479MOL0     H64626   7.693   4.094   3.471 -0.5684 -0.9427  3.3661
  479MOL0     H64627   7.750   4.180   3.609  0.0670 -0.8933 -0.2576
  479MOL0     H64628   7.704   4.277   3.478 -2.5349 -1.2629  0.9882
  479MOL0     H64629   7.697   4.229   2.966  1.9610 -1.3724 -1.6882
  479MOL0     H64630   7.614   4.406   2.806 -0.7432 -0.7279  2.0023
  479MOL0     H64631   7.850   4.784   2.787  0.9904  0.8269 -1.3614
  479MOL0     H64632   7.897   4.696   2.629  1.4067 -1.2598  0.5158
  479MOL0     H64633   7.648   4.756   2.566 -0.3655 -1.1392  0.3927
  479MOL0     H64634   7.644   4.847   2.702 -1.1118  0.1617 -2.0892
  479MOL0     H64635   7.876   4.905   2.494 -0.0585  1.0482 -0.4525
  479MOL0     H64636   7.818   5.002   2.610 -2.6475 -1.2532  2.3749
  479MOL0     H64637   7.610   4.926   2.396  1.6684 -1.4256 -2.2663
  479MOL0     H64638   7.619   5.067   2.503 -0.0396 -0.4080 -0.5976
  479MOL0     H64639   7.793   4.982   2.270 -0.4524 -2.5598  2.4427
  479MOL0     H64640   7.846   5.113   2.379  0.2442  0.5783 -0.3969
  479MOL0     H64641   7.575   5.121   2.248  0.4213 -1.2545  0.7645
  479MOL0     H64642   7.656   5.239   2.350 -1.7026 -0.4641 -0.4537
  479MOL0     H64643   7.667   5.310   2.121 -1.6214 -0.1728  0.7657
  479MOL0     H64644   7.764   5.178   2.067 -0.6511  1.5083 -0.3598
  479MOL0     H64645   7.946   5.227   2.205 -0.1769 -0.6312  4.2246
  479MOL0     H64646   7.863   5.345   2.298  0.8719  1.8014 -1.5122
  479MOL0     H64647   7.991   4.609   2.836 -0.0398 -0.7651 -1.0839
  479MOL0     H64648   8.070   4.440   3.002  1.6280  0.4104 -2.1019
  479MOL0     H64649   8.127   4.180   3.213 -1.3494  1.0462  0.5260
  479MOL0     H64650   8.268   4.109   3.380 -0.6498  3.5193 -1.5949
  479MOL0     H64651   9.902   4.887   4.219  0.1920 -1.0503  0.3210
  479MOL0     H64652  10.141   4.906   4.230 -1.7370  2.0564  0.6163
  479MOL0     H64653  10.494   4.935   3.919 -1.6178 -2.8551  1.0215
  479MOL0     H64654  10.721   5.030   3.905  1.5322 -0.1135 -0.5284
  479MOL0     H64655  10.931   5.106   3.937  2.3819  1.4905  0.3261
  479MOL0     H64656  11.083   5.048   3.982 -0.3727  0.9800 -2.7343
  479MOL0     H64657  10.909   4.880   3.798  0.2865  0.1469  0.3225
  479MOL0     H64658  11.077   4.857   3.851 -1.7836 -1.5043 -0.2535
  479MOL0     H64659  11.063   4.966   3.630  2.4201  0.4729  0.3910
  479MOL0     H64660  11.157   5.058   3.750  0.1207  0.1978  0.1494
  479MOL0     H64661  11.016   5.210   3.602  2.6570 -0.8404  0.3009
  479MOL0     H64662  10.978   5.227   3.764 -1.3150  0.3089 -0.2933
  479MOL0     H64663  10.606   5.072   3.606 -1.4774  2.9948 -1.2250
  479MOL0     H64664  10.833   4.796   4.248 -1.8003  0.1383  1.9770
  479MOL0     H64665  10.608   4.725   4.273 -0.1428 -2.1984 -2.2621
  480MOL0     O64666   9.556   3.921   0.036 -0.3121  0.2328  0.3814
  480MOL0     C64667   9.559   3.845   0.137 -0.2118 -0.8499  0.0972
  480MOL0     O64668   9.463   3.845   0.235 -0.0670 -0.0750 -0.3060
  480MOL0     C64669   9.365   3.934   0.241  0.8007 -0.0606  0.0219
  480MOL0     C64670   9.361   4.067   0.186  0.5591 -0.1277 -0.4794
  480MOL0     C64671   9.239   4.145   0.205 -0.5607 -0.0749  0.0495
  480MOL0     C64672   9.125   4.106   0.274  0.1825  0.4754 -0.2632
  480MOL0     O64673   9.006   4.178   0.290  0.2175 -0.1352 -0.5013
  480MOL0     C64674   8.999   4.319   0.236 -0.1527 -0.0163 -0.2778
  480MOL0     C64675   8.993   4.310   0.078  0.3219  0.2617  0.0182
  480MOL0     C64676   8.885   4.216   0.037  0.4559 -0.9721 -0.2937
  480MOL0     C64677   8.750   4.276   0.047 -0.1676  0.3258  1.0844
  480MOL0     C64678   8.650   4.170  -0.006 -0.6058  0.2796  0.2337
  480MOL0     C64679   8.510   4.220   0.006 -0.4851  0.3721 -0.4971
  480MOL0     C64680   8.419   4.109  -0.041  0.0513 -0.2921 -0.5473
  480MOL0     C64681   8.274   4.153  -0.083 -1.0771  0.2227 -0.1278
  480MOL0     N64682   8.185   4.045  -0.126 -0.5991  0.0426  0.1498
  480MOL0     C64683   8.148   3.934  -0.059  0.1828  0.1035  0.0652
  480MOL0     C64684   8.072   3.863  -0.149 -1.0194  0.5040  0.4857
  480MOL0     C64685   8.039   3.723  -0.104  0.2997  0.6054 -0.6713
  480MOL0     C64686   7.914   3.712  -0.010 -0.0375 -1.0522 -0.3976
  480MOL0     C64687   7.782   3.750  -0.089  0.3497  0.7151 -0.6541
  480MOL0     C64688   7.659   3.698  -0.013 -0.7543  0.2825  0.2864
  480MOL0     O64689   7.539   3.689  -0.086 -0.2705  0.0398 -0.2925
  480MOL0     C64690   7.431   3.631  -0.021  0.8389  0.3223  0.5633
  480MOL0     C64691   7.425   3.583   0.104  0.0730  0.6457 -0.2196
  480MOL0     C64692   7.308   3.522   0.148 -0.1601  1.1472  0.6304
  480MOL0     C64693   7.307   3.475   0.293  0.2212 -0.3947 -0.3284
  480MOL0     C64694   7.193   3.499   0.061  1.0583  0.5200  0.6518
  480MOL0     C64695   7.054   3.449   0.094 -0.5102 -0.0517  0.0357
  480MOL0     O64696   6.954   3.452  -0.000  0.2332 -0.1708 -0.1343
  480MOL0     C64697   6.823   3.442   0.031  0.3734 -0.2640 -0.1940
  480MOL0     C64698   6.767   3.484   0.150 -0.0336  0.4779  0.4654
  480MOL0     C64699   6.628   3.462   0.177  0.2480  0.3545  0.3999
  480MOL0     C64700   6.545   3.405   0.077  0.6548  0.2324 -0.3113
  480MOL0     O64701   6.415   3.378   0.091  0.8394 -0.0843  0.5140
  480MOL0     C64702   6.370   3.313   0.213  0.2276  0.5074  0.2878
  480MOL0     C64703   6.396   3.162   0.185 -0.4201  0.0531  0.7731
  480MOL0     C64704   6.291   3.083   0.267  0.0866  0.2149 -0.4508
  480MOL0     C64705   6.301   2.932   0.262 -0.1900  0.0515  0.3125
  480MOL0     C64706   6.218   2.885   0.388 -0.0835  0.4441 -0.1491
  480MOL0     C64707   6.251   2.731   0.413 -0.2269 -0.5738 -0.1570
  480MOL0     C64708   6.181   2.661   0.531 -0.9932 -0.0271 -0.0997
  480MOL0     C64709   6.243   2.522   0.550  0.6525 -0.3951 -0.8657
  480MOL0    Cl64710   6.427   2.500   0.586  0.3082 -0.0609 -0.0338
  480MOL0     C64711   6.608   3.364  -0.039  1.0463  0.1174  0.9373
  480MOL0     C64712   6.739   3.375  -0.062 -0.6637 -0.3318 -0.1680
  480MOL0     O64713   7.040   3.403   0.209 -0.0763 -0.4915 -0.4052
  480MOL0     C64714   7.201   3.557  -0.065 -0.5009  0.7949  0.1557
  480MOL0     C64715   7.312   3.631  -0.110  0.5515  0.4461  0.3821
  480MOL0     N64716   8.056   3.941  -0.266 -0.3167  0.5176 -0.6845
  480MOL0     N64717   8.119   4.053  -0.246  0.8330 -0.2033 -0.3889
  480MOL0     C64718   9.130   3.971   0.310  0.5185  0.2486 -0.1649
  480MOL0     C64719   9.248   3.889   0.294  0.8756 -0.1845 -0.1119
  480MOL0     C64720   9.665   3.744   0.160  0.2567  0.5250 -0.2750
  480MOL0     C64721   9.651   3.644   0.255  0.9198 -0.0211 -0.2561
  480MOL0     C64722   9.759   3.555   0.284  0.4336 -1.1332  0.3044
  480MOL0     C64723   9.871   3.553   0.202 -0.0899  0.4713  0.6015
  480MOL0     O64724   9.975   3.468   0.225  0.1289 -0.8733 -0.3335
  480MOL0     C64725   9.980   3.399   0.350 -0.7170 -0.1841  0.5513
  480MOL0     C64726  10.118   3.345   0.343  0.4139  0.7945 -0.5245
  480MOL0     C64727  10.236   3.433   0.360  0.5547  0.2615  0.4992
  480MOL0     C64728  10.243   3.486   0.503  0.3961 -0.2425  0.6190
  480MOL0     C64729  10.365   3.564   0.541  0.7254  0.2263 -0.0811
  480MOL0     C64730  10.451   3.649   0.567  0.2435  0.7382  0.5549
  480MOL0     C64731   9.880   3.653   0.110  0.4762 -0.5038  0.3717
  480MOL0     C64732   9.778   3.743   0.084  0.6059  0.9838  0.1594
  480MOL0     H64733   9.435   4.128   0.135 -0.2766  1.1158 -0.2533
  480MOL0     H64734   9.256   4.249   0.179 -0.7031 -0.1517 -0.3686
  480MOL0     H64735   8.906   4.367   0.269 -1.3903 -0.4743 -2.8204
  480MOL0     H64736   9.080   4.385   0.270 -0.0370 -0.0244 -0.5335
  480MOL0     H64737   8.983   4.407   0.029  0.2370  0.2640  0.0395
  480MOL0     H64738   9.085   4.267   0.038 -0.4111 -1.2411 -0.1378
  480MOL0     H64739   8.895   4.186  -0.068  1.1267 -2.9007  0.2670
  480MOL0     H64740   8.892   4.119   0.087 -1.4442 -0.4805  1.0221
  480MOL0     H64741   8.717   4.300   0.148 -2.0650 -1.1225  0.8661
  480MOL0     H64742   8.748   4.370  -0.010  0.4054 -0.1813  0.2035
  480MOL0     H64743   8.681   4.140  -0.106 -1.0180 -6.0944  1.5675
  480MOL0     H64744   8.662   4.077   0.050  0.3859 -0.8130 -1.7121
  480MOL0     H64745   8.491   4.257   0.107  0.2866 -0.8262  0.1036
  480MOL0     H64746   8.504   4.309  -0.058 -0.0926  1.1065  0.4680
  480MOL0     H64747   8.471   4.074  -0.131  1.2570  1.4658 -0.5673
  480MOL0     H64748   8.408   4.025   0.029 -4.3056 -0.7704 -1.4713
  480MOL0     H64749   8.277   4.227  -0.163 -2.2843  0.3778 -0.0430
  480MOL0     H64750   8.228   4.205   0.001 -0.6542  1.3662 -0.5925
  480MOL0     H64751   8.193   3.904   0.036  1.4896  1.1586 -0.1897
  480MOL0     H64752   8.029   3.668  -0.198 -1.6266 -0.8669  0.3339
  480MOL0     H64753   8.123   3.678  -0.051  0.6659 -0.0845 -1.8189
  480MOL0     H64754   7.923   3.783   0.073  1.6997 -0.0301 -1.3912
  480MOL0     H64755   7.910   3.614   0.037  0.5241  0.0954  2.1905
  480MOL0     H64756   7.785   3.698  -0.186  1.9546  1.0099 -0.7952
  480MOL0     H64757   7.778   3.856  -0.113 -0.1910  0.6219 -0.9838
  480MOL0     H64758   7.636   3.770   0.066  2.4491  2.1635 -0.2762
  480MOL0     H64759   7.681   3.600   0.030  1.3946  0.5563 -0.0553
  480MOL0     H64760   7.504   3.586   0.178  0.8781  0.7514 -1.0639
  480MOL0     H64761   7.232   3.522   0.357  1.9467  0.6810  0.9845
  480MOL0     H64762   7.285   3.369   0.304  2.2624 -1.1161 -2.4012
  480MOL0     H64763   7.400   3.486   0.348 -1.8570  0.7213  3.3508
  480MOL0     H64764   6.829   3.531   0.225  3.4977 -1.1983 -1.1230
  480MOL0     H64765   6.579   3.503   0.264  0.2420  1.0481  0.0767
  480MOL0     H64766   6.414   3.355   0.304 -2.8190  1.9572  1.2193
  480MOL0     H64767   6.263   3.328   0.229  0.4890  1.1136  1.6563
  480MOL0     H64768   6.378   3.153   0.078 -0.0178  1.6102  0.5493
  480MOL0     H64769   6.494   3.125   0.217 -0.2554 -1.7588 -1.5927
  480MOL0     H64770   6.190   3.109   0.237  0.7199  2.8583 -0.5486
  480MOL0     H64771   6.295   3.127   0.367 -3.1310  1.5061 -0.7732
  480MOL0     H64772   6.259   2.903   0.165 -0.1573  1.1484 -0.0414
  480MOL0     H64773   6.403   2.898   0.278 -0.2905 -0.8162 -0.7310
  480MOL0     H64774   6.113   2.911   0.376 -0.0718  0.0943 -1.0427
  480MOL0     H64775   6.251   2.930   0.482 -0.4993  0.0908  0.1694
  480MOL0     H64776   6.237   2.666   0.326 -1.0115 -2.8424  1.5408
  480MOL0     H64777   6.358   2.728   0.435  0.6064 -0.6703 -3.6389
  480MOL0     H64778   6.074   2.650   0.510 -0.7185 -1.5942 -0.8718
  480MOL0     H64779   6.196   2.715   0.624  2.2676 -0.3656 -0.3067
  480MOL0     H64780   6.216   2.462   0.463  0.9946 -2.6016  0.4775
  480MOL0     H64781   6.185   2.492   0.638 -0.8471 -0.8669 -1.9907
  480MOL0     H64782   6.543   3.327  -0.117  1.4782  1.1604  0.0554
  480MOL0     H64783   6.772   3.338  -0.158 -1.4479  0.5613 -0.8007
  480MOL0     H64784   7.116   3.553  -0.133  0.5394  2.2227 -1.3011
  480MOL0     H64785   7.314   3.667  -0.212  1.5593  1.7539  0.8194
  480MOL0     H64786   9.041   3.920   0.344  0.2634 -0.4242 -1.7527
  480MOL0     H64787   9.238   3.792   0.342 -0.5287 -0.3595 -0.7191
  480MOL0     H64788   9.560   3.634   0.313  1.3999 -1.3237  0.3024
  480MOL0     H64789   9.738   3.486   0.365 -2.8191  0.6926  1.2133
  480MOL0     H64790   9.966   3.473   0.429  0.3121 -2.0018  2.5433
  480MOL0     H64791   9.899   3.326   0.335 -0.5999  0.0853 -1.8966
  480MOL0     H64792  10.125   3.309   0.240  1.8570  1.0906 -0.5575
  480MOL0     H64793  10.128   3.260   0.412  0.6189  1.9450  0.9192
  480MOL0     H64794  10.230   3.518   0.291 -2.2305 -1.9414 -2.3033
  480MOL0     H64795  10.331   3.382   0.343  2.0573  2.5569  1.5110
  480MOL0     H64796  10.228   3.405   0.575 -1.3627  0.8239  1.5061
  480MOL0     H64797  10.161   3.552   0.530  1.1275  1.6286 -1.3775
  480MOL0     H64798  10.530   3.721   0.574  0.0446  0.8324  2.1788
  480MOL0     H64799   9.976   3.672   0.061 -0.4647  2.8922 -0.4499
  480MOL0     H64800   9.790   3.814   0.003 -0.0723 -0.9070 -1.7059
  481MOL0     O64801   6.307   7.993   1.079  0.3380 -0.3935  0.8811
  481MOL0     C64802   6.409   7.924   1.102  0.4830 -0.0258 -0.4299
  481MOL0     O64803   6.424   7.789   1.089  0.0908 -0.3981  0.0055
  481MOL0     C64804   6.314   7.703   1.081 -0.7118 -1.0541 -0.1590
  481MOL0     C64805   6.201   7.740   1.007  0.5859  0.6751  0.2533
  481MOL0     C64806   6.108   7.645   0.986  0.5213 -0.0958 -0.0950
  481MOL0     C64807   6.120   7.514   1.040  0.2785  0.6012 -0.4461
  481MOL0     O64808   6.032   7.408   1.040 -0.0692 -0.3755 -0.0468
  481MOL0     C64809   5.896   7.438   1.008  0.5913  0.2926 -0.6062
  481MOL0     C64810   5.800   7.313   1.048  0.2891 -0.6987  0.4207
  481MOL0     C64811   5.670   7.321   0.976 -0.4443  0.3673  0.2028
  481MOL0     C64812   5.558   7.233   1.047 -0.2789  0.6733  0.5437
  481MOL0     C64813   5.437   7.228   0.960 -1.0334 -0.9703  0.8773
  481MOL0     C64814   5.385   7.368   0.924 -0.7262 -0.1053  0.7347
  481MOL0     C64815   5.256   7.366   0.847 -0.1369  0.3071 -0.1772
  481MOL0     C64816   5.247   7.320   0.707  0.2262 -0.0701  1.1123
  481MOL0     N64817   5.137   7.377   0.630  0.1117  0.8761  0.2235
  481MOL0     C64818   5.008   7.339   0.664  0.3484 -0.4194  0.3434
  481MOL0     C64819   4.927   7.377   0.561 -0.2745  0.0216 -0.3318
  481MOL0     C64820   4.778   7.348   0.545 -0.6371  0.1368 -0.3861
  481MOL0     C64821   4.695   7.456   0.603  0.4750 -0.0805  0.5423
  481MOL0     C64822   4.688   7.443   0.760  0.0543 -0.5729  0.3521
  481MOL0     C64823   4.586   7.544   0.812 -0.7571 -0.2889 -0.6317
  481MOL0     O64824   4.457   7.515   0.768  0.1582  0.5232  0.9276
  481MOL0     C64825   4.354   7.516   0.854 -0.0162  0.2985 -0.4046
  481MOL0     C64826   4.253   7.421   0.837 -0.0911 -0.5152  0.4042
  481MOL0     C64827   4.163   7.397   0.946  0.1623 -0.5540 -0.9286
  481MOL0     C64828   4.077   7.277   0.949  0.1180 -0.0338  0.3560
  481MOL0     C64829   4.150   7.493   1.044  0.2982  0.0982  0.0520
  481MOL0     C64830   4.037   7.486   1.141  0.0163 -0.5352  0.4199
  481MOL0     O64831   3.923   7.561   1.107 -0.0956  0.6560 -0.0487
  481MOL0     C64832   3.824   7.564   1.190  0.4084 -0.0859 -0.2641
  481MOL0     C64833   3.824   7.634   1.306  0.3944 -0.5437 -0.3577
  481MOL0     C64834   3.713   7.640   1.384  1.1489  0.4855  0.0482
  481MOL0     C64835   3.589   7.587   1.338 -0.0058 -0.0637  0.2736
  481MOL0     O64836   3.476   7.610   1.417 -0.3075  0.2545 -0.0986
  481MOL0     C64837   3.344   7.606   1.361 -0.3476  0.0471 -0.2488
  481MOL0     C64838   3.256   7.618   1.474  0.7017  0.0700 -0.2833
  481MOL0     C64839   3.113   7.629   1.407 -0.2917 -0.5060  0.1486
  481MOL0     C64840   2.990   7.628   1.493  1.2322  0.1626 -0.1354
  481MOL0     C64841   2.857   7.631   1.418  0.2413  0.0688 -0.7217
  481MOL0     C64842   2.726   7.645   1.501  0.1662  0.7311 -0.2315
  481MOL0     C64843   2.646   7.513   1.522  1.0437  0.2453 -0.4656
  481MOL0     C64844   2.515   7.540   1.592  0.1364  0.1357 -0.1156
  481MOL0    Cl64845   2.407   7.405   1.570  0.5517  0.5338  0.0391
  481MOL0     C64846   3.590   7.523   1.216 -0.0603  0.1104 -0.2867
  481MOL0     C64847   3.704   7.510   1.144 -0.4009  0.1136 -0.0359
  481MOL0     O64848   4.053   7.408   1.233  0.5856 -0.7835 -0.0840
  481MOL0     C64849   4.247   7.595   1.055 -0.2090 -0.3596  0.8167
  481MOL0     C64850   4.347   7.609   0.963 -0.0067 -0.3549  1.6779
  481MOL0     N64851   5.013   7.436   0.468 -0.1036 -0.2605  0.0938
  481MOL0     N64852   5.137   7.435   0.507 -0.4855 -0.7044  0.0369
  481MOL0     C64853   6.234   7.481   1.120 -0.2984 -0.5078 -0.6451
  481MOL0     C64854   6.327   7.582   1.143 -0.3170 -1.4978 -0.3016
  481MOL0     C64855   6.523   8.003   1.156 -0.4901  0.5690  0.0538
  481MOL0     C64856   6.509   8.137   1.185 -0.5871  0.2084 -1.4823
  481MOL0     C64857   6.618   8.217   1.223  0.0193  0.4594 -0.1937
  481MOL0     C64858   6.737   8.159   1.245 -0.7981  0.3311 -0.6077
  481MOL0     O64859   6.843   8.243   1.286 -0.4375  0.3710 -0.3443
  481MOL0     C64860   6.879   8.338   1.187 -0.3252 -0.2983 -0.0956
  481MOL0     C64861   7.023   8.376   1.183  0.0998 -0.5137  0.5049
  481MOL0     C64862   7.117   8.255   1.160 -0.2059 -0.8369  0.4574
  481MOL0     C64863   7.251   8.278   1.085  0.6585 -0.2891  0.3237
  481MOL0     C64864   7.327   8.369   1.175  0.0995 -0.1547 -0.7898
  481MOL0     C64865   7.401   8.432   1.248 -0.7111  0.1648 -0.3158
  481MOL0     C64866   6.761   8.022   1.233 -0.3937  0.6625  0.7607
  481MOL0     C64867   6.655   7.947   1.175 -0.7980  0.2332 -0.9788
  481MOL0     H64868   6.182   7.837   0.963 -2.2400  0.9886  1.9354
  481MOL0     H64869   6.026   7.676   0.923  0.7391 -0.9317 -0.8092
  481MOL0     H64870   5.866   7.522   1.072  0.8979 -0.9156  1.2077
  481MOL0     H64871   5.890   7.455   0.901 -0.1367  0.3890 -0.5573
  481MOL0     H64872   5.845   7.218   1.018 -0.0053 -1.0468  1.0572
  481MOL0     H64873   5.778   7.316   1.155 -1.1456  1.9518  0.1420
  481MOL0     H64874   5.643   7.427   0.976  1.1083  0.8030  0.9666
  481MOL0     H64875   5.677   7.286   0.872  2.6417 -2.4407  1.1428
  481MOL0     H64876   5.608   7.136   1.059 -0.1114  0.7984  0.8680
  481MOL0     H64877   5.525   7.274   1.142  1.6607  1.9690  0.7205
  481MOL0     H64878   5.458   7.178   0.865  1.5949 -2.1533  1.9775
  481MOL0     H64879   5.363   7.167   1.013 -3.1388  1.4100  0.8364
  481MOL0     H64880   5.370   7.422   1.017 -0.6986 -1.7909  1.7539
  481MOL0     H64881   5.456   7.426   0.864  0.2439 -0.1058  1.8657
  481MOL0     H64882   5.188   7.293   0.893  0.4193 -0.9776 -1.3130
  481MOL0     H64883   5.220   7.469   0.855 -0.2728  0.5066 -2.7008
  481MOL0     H64884   5.235   7.212   0.690  0.2488  0.1881 -0.6897
  481MOL0     H64885   5.346   7.335   0.664 -0.5282 -0.1952 -0.7285
  481MOL0     H64886   4.980   7.276   0.748  1.4378 -1.7837 -0.2640
  481MOL0     H64887   4.754   7.335   0.439  3.5195  1.4836 -1.6652
  481MOL0     H64888   4.766   7.254   0.599  2.5292  0.6429  1.4363
  481MOL0     H64889   4.595   7.455   0.560  1.4505  1.2419 -1.9902
  481MOL0     H64890   4.742   7.553   0.582 -0.8766  0.1822 -1.5220
  481MOL0     H64891   4.784   7.457   0.811 -0.2100  0.1918  0.6527
  481MOL0     H64892   4.645   7.349   0.796 -1.9531  1.2571  3.0267
  481MOL0     H64893   4.619   7.647   0.796 -2.6403  0.5468  0.4080
  481MOL0     H64894   4.593   7.535   0.920 -3.3165  0.2444 -0.3538
  481MOL0     H64895   4.256   7.356   0.750  0.8950 -0.4768  0.4042
  481MOL0     H64896   4.001   7.301   0.874  0.0341  2.0570  1.0694
  481MOL0     H64897   4.119   7.190   0.897 -0.6156  0.5868 -1.3750
  481MOL0     H64898   4.033   7.246   1.044  1.1059 -1.0880  0.4970
  481MOL0     H64899   3.913   7.694   1.324 -0.4991  2.0970 -3.6713
  481MOL0     H64900   3.729   7.690   1.479  1.5906 -0.3370  0.4122
  481MOL0     H64901   3.339   7.695   1.298 -0.4643  1.7166  2.0393
  481MOL0     H64902   3.331   7.519   1.295 -0.1170 -0.1246 -0.0660
  481MOL0     H64903   3.261   7.532   1.541  0.8836  0.3337  0.0434
  481MOL0     H64904   3.268   7.710   1.531 -0.4611  0.3976 -0.5518
  481MOL0     H64905   3.094   7.542   1.343  1.4625 -0.4632 -0.4819
  481MOL0     H64906   3.120   7.712   1.336  0.3185 -1.1013 -0.5150
  481MOL0     H64907   2.981   7.544   1.562 -1.2555 -0.2237 -0.8515
  481MOL0     H64908   2.992   7.713   1.563  0.2797  0.0925 -0.0143
  481MOL0     H64909   2.854   7.540   1.357 -0.1257 -0.5238  0.1696
  481MOL0     H64910   2.872   7.723   1.361 -1.6728  0.2664 -0.9540
  481MOL0     H64911   2.747   7.688   1.599  1.7816 -0.5682  0.0294
  481MOL0     H64912   2.655   7.704   1.443 -1.7640 -1.5877 -0.3669
  481MOL0     H64913   2.699   7.444   1.589 -0.3996 -0.5839 -0.1372
  481MOL0     H64914   2.625   7.475   1.422 -1.9281 -0.7725  0.4594
  481MOL0     H64915   2.473   7.631   1.548  0.6524 -0.3540 -1.6824
  481MOL0     H64916   2.536   7.553   1.699  3.0731  1.9383 -0.8006
  481MOL0     H64917   3.500   7.482   1.170 -0.9249  1.7836 -0.1685
  481MOL0     H64918   3.715   7.443   1.059  3.5376 -1.2628  1.3145
  481MOL0     H64919   4.238   7.663   1.139  0.0715  1.7047 -0.7571
  481MOL0     H64920   4.421   7.688   0.978  2.3017 -1.4843 -2.3281
  481MOL0     H64921   6.244   7.376   1.147 -0.0270 -0.7268 -1.5647
  481MOL0     H64922   6.425   7.558   1.184  0.5158  1.5942 -0.2066
  481MOL0     H64923   6.413   8.187   1.180 -0.8952 -0.4628 -3.8019
  481MOL0     H64924   6.612   8.323   1.243  3.0269  0.8790 -1.0841
  481MOL0     H64925   6.844   8.304   1.089 -2.3610  0.9810  0.1278
  481MOL0     H64926   6.818   8.428   1.195  0.1231 -0.0522  0.6810
  481MOL0     H64927   7.044   8.434   1.273  1.5279 -1.2344  0.6656
  481MOL0     H64928   7.038   8.443   1.098 -0.1605 -2.4942 -1.2042
  481MOL0     H64929   7.062   8.182   1.101 -2.3788  0.9159  0.1916
  481MOL0     H64930   7.144   8.204   1.253  2.2528 -1.4943 -0.5226
  481MOL0     H64931   7.246   8.328   0.988 -1.6502  0.9230  0.9818
  481MOL0     H64932   7.308   8.189   1.058 -1.2371 -1.2457 -0.7256
  481MOL0     H64933   7.474   8.493   1.297 -2.3682 -0.0456  2.5952
  481MOL0     H64934   6.860   7.986   1.258 -1.2068 -3.0890 -0.6344
  481MOL0     H64935   6.665   7.840   1.156  1.2921  0.4349 -1.3241
  482MOL0     O64936   3.483   1.860   1.699  0.5555 -0.3163  0.4351
  482MOL0     C64937   3.541   1.752   1.661  0.7288  0.4710 -0.0604
  482MOL0     O64938   3.492   1.670   1.557 -0.4130  0.2888  0.0612
  482MOL0     C64939   3.370   1.687   1.505  0.4837  0.0405  0.5871
  482MOL0     C64940   3.358   1.655   1.377  0.5322 -0.1222 -0.2562
  482MOL0     C64941   3.233   1.655   1.315 -0.1102  0.1749 -0.5744
  482MOL0     C64942   3.115   1.685   1.386 -0.0049  0.3972  0.6001
  482MOL0     O64943   2.990   1.700   1.339 -0.6802  0.2710  1.2142
  482MOL0     C64944   2.964   1.689   1.198  0.0335  0.0386 -0.2842
  482MOL0     C64945   2.810   1.659   1.176 -0.8621  0.1956 -0.1286
  482MOL0     C64946   2.781   1.608   1.033  0.4242 -1.1665  0.2929
  482MOL0     C64947   2.634   1.564   1.047 -0.2166 -0.5800  0.3173
  482MOL0     C64948   2.552   1.505   0.925 -0.9207 -0.3350  0.8386
  482MOL0     C64949   2.410   1.467   0.959 -0.1702 -0.8849  0.6456
  482MOL0     C64950   2.316   1.464   0.835  0.6366  0.2475  0.8178
  482MOL0     C64951   2.181   1.419   0.870 -0.1132 -0.6710  0.1111
  482MOL0     N64952   2.108   1.517   0.953 -0.2699 -0.0619 -0.9029
  482MOL0     C64953   2.000   1.594   0.917 -0.0114  0.1103 -0.1927
  482MOL0     C64954   1.971   1.656   1.034  0.2434  0.2363  0.2283
  482MOL0     C64955   1.865   1.776   1.043  0.6234  0.5496 -0.0403
  482MOL0     C64956   1.722   1.746   1.018  0.4808  0.4595  0.3380
  482MOL0     C64957   1.628   1.859   1.049 -0.0456  0.4017  0.2945
  482MOL0     C64958   1.477   1.806   1.053  0.0757  0.0072 -0.1818
  482MOL0     O64959   1.393   1.907   1.109 -0.7789  0.6289 -0.5831
  482MOL0     C64960   1.257   1.887   1.093 -0.4859 -0.2578  0.6297
  482MOL0     C64961   1.189   1.832   0.983  0.4065 -0.1080 -0.0101
  482MOL0     C64962   1.051   1.801   0.986 -1.6272 -0.6376 -0.2230
  482MOL0     C64963   1.009   1.725   0.868  0.6648  0.7718 -0.2560
  482MOL0     C64964   0.979   1.829   1.106 -0.2871 -0.6884 -1.3954
  482MOL0     C64965   0.843   1.784   1.121  0.7879 -0.5719 -0.1196
  482MOL0     O64966   0.747   1.827   1.030  0.5154 -0.0175 -0.2678
  482MOL0     C64967   0.622   1.774   1.034  0.2557  0.4012 -0.9250
  482MOL0     C64968   0.614   1.646   0.979  0.3727 -0.5299 -0.3885
  482MOL0     C64969   0.495   1.565   0.988 -1.1223  0.1928  0.1969
  482MOL0     C64970   0.386   1.610   1.058 -0.5389 -0.4890  0.1727
  482MOL0     O64971   0.262   1.560   1.072 -0.5888 -0.3172  0.9453
  482MOL0     C64972   0.231   1.437   1.004 -0.4131  0.1107  1.1129
  482MOL0     C64973   0.095   1.382   1.043 -0.2254 -0.6839 -0.6293
  482MOL0     C64974  -0.024   1.483   1.032 -0.7887 -0.4443  0.0295
  482MOL0     C64975  -0.155   1.414   1.070  0.1898  0.2424  0.4361
  482MOL0     C64976  -0.283   1.498   1.085  0.5238 -0.3828 -0.2403
  482MOL0     C64977  -0.274   1.604   1.197 -1.0010  0.7045  0.0153
  482MOL0     C64978  -0.380   1.716   1.164  0.2335 -0.9973  0.0565
  482MOL0     C64979  -0.358   1.826   1.270  0.4500  0.0589  0.6479
  482MOL0    Cl64980  -0.390   1.766   1.441 -0.3973 -0.2017 -0.1975
  482MOL0     C64981   0.401   1.744   1.120 -0.9752  0.7459  0.3730
  482MOL0     C64982   0.516   1.834   1.096  0.3362 -0.4247  0.9381
  482MOL0     O64983   0.824   1.701   1.211 -0.3173  0.5697  0.5590
  482MOL0     C64984   1.046   1.882   1.218 -0.7883 -0.6309 -0.3769
  482MOL0     C64985   1.185   1.911   1.206  0.4924  0.4355  0.0156
  482MOL0     N64986   2.054   1.607   1.138 -1.1439  0.2435  0.0359
  482MOL0     N64987   2.132   1.521   1.091  0.8776  0.0475  1.2012
  482MOL0     C64988   3.124   1.715   1.518 -0.4833  0.4258 -0.1595
  482MOL0     C64989   3.249   1.713   1.580 -0.9629 -0.8860 -0.4501
  482MOL0     C64990   3.654   1.707   1.747 -0.0892  0.0826 -0.3886
  482MOL0     C64991   3.727   1.797   1.837  0.2864  0.0360  0.4009
  482MOL0     C64992   3.833   1.744   1.913 -0.1181  0.6848 -0.0856
  482MOL0     C64993   3.879   1.614   1.901 -0.6823  0.8281 -1.0197
  482MOL0     O64994   3.995   1.563   1.960 -0.3139 -0.8931  0.2481
  482MOL0     C64995   4.018   1.619   2.093 -0.3905  0.8408  0.2220
  482MOL0     C64996   4.100   1.522   2.178 -0.7827  0.8308  0.1230
  482MOL0     C64997   4.114   1.576   2.324  0.6706 -0.0142  1.2318
  482MOL0     C64998   4.209   1.488   2.405 -0.1837  0.3897  0.0952
  482MOL0     C64999   4.145   1.361   2.442 -0.2127  0.3728  0.0292
  482MOL0     C65000   4.100   1.255   2.474 -0.7690 -0.3280  0.6618
  482MOL0     C65001   3.816   1.528   1.820  0.0609 -0.1519  0.7819
  482MOL0     C65002   3.705   1.577   1.747 -0.2620  0.2212 -0.0543
  482MOL0     H65003   3.448   1.642   1.318  0.6857 -0.9030  0.1412
  482MOL0     H65004   3.223   1.632   1.209 -0.4854 -3.0265  0.0549
  482MOL0     H65005   2.987   1.789   1.160  1.6152 -0.3255 -0.3661
  482MOL0     H65006   3.034   1.621   1.150  1.3638 -0.2578  1.9231
  482MOL0     H65007   2.768   1.586   1.247 -2.1466  1.1380  0.1278
  482MOL0     H65008   2.753   1.750   1.198  0.3210  0.4524  2.0813
  482MOL0     H65009   2.788   1.686   0.957 -2.5790 -1.9110 -0.8879
  482MOL0     H65010   2.842   1.525   0.995  0.9410 -0.6846  0.0481
  482MOL0     H65011   2.632   1.481   1.119 -1.9178 -0.6375  0.2465
  482MOL0     H65012   2.572   1.633   1.105 -0.0503 -1.3276  1.4347
  482MOL0     H65013   2.547   1.574   0.840  3.2347 -3.9738 -2.8294
  482MOL0     H65014   2.618   1.421   0.901 -0.3470  0.8245 -2.0336
  482MOL0     H65015   2.406   1.375   1.018 -1.3282 -0.9992  0.4160
  482MOL0     H65016   2.374   1.552   1.018 -0.2089 -0.1182 -0.4396
  482MOL0     H65017   2.303   1.560   0.785 -0.3741  0.2304  1.0119
  482MOL0     H65018   2.354   1.396   0.759 -1.3198  0.5372 -0.4981
  482MOL0     H65019   2.181   1.319   0.914  2.3791 -1.0605 -0.6282
  482MOL0     H65020   2.122   1.419   0.778  1.6241  0.7545 -1.0711
  482MOL0     H65021   1.948   1.606   0.823 -1.0634 -1.8109  0.1006
  482MOL0     H65022   1.873   1.817   1.144 -0.1085  2.0070 -0.5402
  482MOL0     H65023   1.901   1.850   0.971  1.9333 -0.3895 -0.3869
  482MOL0     H65024   1.680   1.659   1.070 -1.3049  0.9545 -0.1763
  482MOL0     H65025   1.698   1.720   0.915 -1.5305  2.9924  0.0568
  482MOL0     H65026   1.637   1.938   0.974  2.7569  1.5298  1.6563
  482MOL0     H65027   1.659   1.894   1.148  0.9352  0.4927 -0.0328
  482MOL0     H65028   1.479   1.711   1.108 -0.2683 -1.2594 -2.2426
  482MOL0     H65029   1.440   1.774   0.955 -0.3102  0.7328 -0.2796
  482MOL0     H65030   1.233   1.800   0.889 -0.4557  1.3481 -0.9676
  482MOL0     H65031   0.900   1.717   0.861  0.8528 -1.5812 -1.5395
  482MOL0     H65032   1.040   1.774   0.775 -2.9112 -0.0771 -2.0763
  482MOL0     H65033   1.035   1.619   0.874  1.1308  0.8245 -1.1159
  482MOL0     H65034   0.697   1.618   0.915  1.2947 -3.4969  1.8530
  482MOL0     H65035   0.502   1.483   0.918  1.4888  1.6761 -1.4613
  482MOL0     H65036   0.232   1.460   0.897 -1.9528  0.9932  1.2569
  482MOL0     H65037   0.304   1.357   1.021  1.7516  1.7771  0.1956
  482MOL0     H65038   0.080   1.296   0.977 -1.1448  0.3713 -1.8430
  482MOL0     H65039   0.104   1.345   1.145  0.7807 -0.8170 -0.7561
  482MOL0     H65040  -0.036   1.538   0.938  1.4997  1.4242  0.7210
  482MOL0     H65041   0.002   1.561   1.104 -0.5514 -2.0316  1.7538
  482MOL0     H65042  -0.169   1.355   0.979  1.6868  3.8059 -2.3332
  482MOL0     H65043  -0.136   1.341   1.150  0.6432 -0.2218 -0.0798
  482MOL0     H65044  -0.370   1.433   1.101  0.7548  0.1894  4.5898
  482MOL0     H65045  -0.301   1.556   0.994  1.2599  1.0497  0.4994
  482MOL0     H65046  -0.279   1.555   1.294 -3.6943  1.1830  0.1919
  482MOL0     H65047  -0.172   1.643   1.194  0.2911 -2.4156 -0.9134
  482MOL0     H65048  -0.485   1.688   1.175 -0.0285  0.9005  4.5071
  482MOL0     H65049  -0.368   1.757   1.063 -0.5452  0.6333  0.5921
  482MOL0     H65050  -0.412   1.916   1.237  1.2452 -0.1766 -1.4505
  482MOL0     H65051  -0.255   1.862   1.258  1.4767 -2.8619  0.0294
  482MOL0     H65052   0.310   1.784   1.164 -0.6385  1.2278  0.6296
  482MOL0     H65053   0.519   1.930   1.146 -2.8624  0.7636 -0.8673
  482MOL0     H65054   0.984   1.907   1.304  1.6774  1.2507  0.9793
  482MOL0     H65055   1.229   1.939   1.302 -0.1800 -1.3035  0.8745
  482MOL0     H65056   3.039   1.743   1.581 -0.0092  1.1698  0.1572
  482MOL0     H65057   3.261   1.730   1.686  1.0010  2.0580 -1.0313
  482MOL0     H65058   3.710   1.904   1.842  1.6450  0.2052  3.1790
  482MOL0     H65059   3.886   1.812   1.979 -2.4247  0.6739  1.9115
  482MOL0     H65060   4.074   1.712   2.083  2.4547 -0.7999 -0.1484
  482MOL0     H65061   3.927   1.635   2.152  0.5421 -1.0024  2.2706
  482MOL0     H65062   4.200   1.500   2.140 -1.1670 -4.9201  1.4639
  482MOL0     H65063   4.056   1.422   2.183  3.5498 -1.4451 -1.2700
  482MOL0     H65064   4.019   1.584   2.376  0.4120  1.0405  0.6361
  482MOL0     H65065   4.163   1.674   2.325  2.9880 -1.0870  1.1580
  482MOL0     H65066   4.229   1.533   2.503 -0.0337 -0.4833  0.4767
  482MOL0     H65067   4.311   1.481   2.364  0.8330  3.8933  1.5753
  482MOL0     H65068   4.069   1.156   2.501 -0.0145 -0.6259  0.4772
  482MOL0     H65069   3.862   1.432   1.801  0.7970  0.3650 -0.1955
  482MOL0     H65070   3.664   1.516   1.667 -0.4656  0.7767 -0.3734
  483MOL0     O65071   7.887   4.487   0.454  0.3415  0.3354 -0.1545
  483MOL0     C65072   7.894   4.561   0.551 -0.1034  0.6932  0.3870
  483MOL0     O65073   7.786   4.626   0.608 -0.0609 -0.1413 -0.5253
  483MOL0     C65074   7.669   4.561   0.620  0.5609  0.0731  0.1287
  483MOL0     C65075   7.557   4.642   0.651  0.1975 -0.2517 -1.4395
  483MOL0     C65076   7.430   4.586   0.685 -0.3213  0.0014 -0.1051
  483MOL0     C65077   7.400   4.445   0.671 -0.2377 -0.0928  1.2328
  483MOL0     O65078   7.283   4.381   0.695  0.0161 -0.3288  0.1229
  483MOL0     C65079   7.199   4.447   0.788  0.1582  0.3891  0.1160
  483MOL0     C65080   7.122   4.341   0.854 -0.6348  0.1370 -0.3023
  483MOL0     C65081   7.059   4.395   0.982  0.4975 -0.0214 -0.8229
  483MOL0     C65082   6.958   4.290   1.040  0.5172 -0.4801  0.2519
  483MOL0     C65083   6.869   4.332   1.159 -0.0180  0.5677  0.4158
  483MOL0     C65084   6.770   4.448   1.141 -0.3636  0.2286  0.2161
  483MOL0     C65085   6.697   4.476   1.278  0.8775  0.0608 -0.1073
  483MOL0     C65086   6.554   4.545   1.258  0.2930 -0.3373 -0.4276
  483MOL0     N65087   6.457   4.446   1.227 -0.5113  0.2025  0.0799
  483MOL0     C65088   6.414   4.342   1.301 -0.0148 -0.4633 -0.4859
  483MOL0     C65089   6.319   4.282   1.234  0.3721  1.2322 -0.9261
  483MOL0     C65090   6.233   4.170   1.296 -0.4831 -0.7001  0.3729
  483MOL0     C65091   6.112   4.134   1.207 -0.9478  0.9192  0.1029
  483MOL0     C65092   6.015   4.252   1.199  0.1147  0.3168 -0.6083
  483MOL0     C65093   5.882   4.181   1.190  1.1355 -0.7378  0.3357
  483MOL0     O65094   5.789   4.284   1.168  0.2059 -0.1208  0.9153
  483MOL0     C65095   5.661   4.271   1.148  0.9549  0.9896  0.0660
  483MOL0     C65096   5.595   4.142   1.140 -0.1437 -0.4203  0.0353
  483MOL0     C65097   5.473   4.135   1.083  0.6857  0.1008 -0.6721
  483MOL0     C65098   5.428   4.004   1.025 -0.6854 -0.2125 -0.2858
  483MOL0     C65099   5.390   4.259   1.061  0.1297 -0.1821 -0.1748
  483MOL0     C65100   5.244   4.263   1.009  0.9190 -0.9659 -0.3243
  483MOL0     O65101   5.176   4.146   0.989  0.5502  0.5298  0.5874
  483MOL0     C65102   5.044   4.164   0.962  0.3941  0.4578 -0.3183
  483MOL0     C65103   5.001   4.196   0.836 -0.4061  0.2517 -0.8869
  483MOL0     C65104   4.861   4.199   0.814 -0.4230 -0.2773  0.8219
  483MOL0     C65105   4.762   4.178   0.918 -0.7555  0.3037  0.1644
  483MOL0     O65106   4.626   4.181   0.899 -0.5597 -0.2994 -0.0699
  483MOL0     C65107   4.571   4.226   0.773 -1.0588  0.2394 -0.3704
  483MOL0     C65108   4.421   4.208   0.777  0.3949  0.3826 -0.2967
  483MOL0     C65109   4.358   4.258   0.644  0.7758 -0.8279 -0.7625
  483MOL0     C65110   4.207   4.258   0.665  0.4176  0.4493  0.2982
  483MOL0     C65111   4.123   4.298   0.545 -0.3227 -0.4726  0.0753
  483MOL0     C65112   3.975   4.278   0.582  0.2872  0.6502 -0.3654
  483MOL0     C65113   3.881   4.315   0.463  0.2119 -0.0404 -0.0162
  483MOL0     C65114   3.733   4.303   0.506 -0.4516  0.3140 -0.1033
  483MOL0    Cl65115   3.712   4.401   0.660  0.2213  0.2899 -0.4340
  483MOL0     C65116   4.812   4.148   1.046  0.4324  0.0116 -0.0972
  483MOL0     C65117   4.953   4.135   1.069  0.6150 -0.0741  0.7058
  483MOL0     O65118   5.188   4.375   1.007 -0.2672 -0.1502  0.0993
  483MOL0     C65119   5.454   4.384   1.084  0.3693  0.8494  0.0928
  483MOL0     C65120   5.587   4.389   1.117 -0.1870  0.7581 -0.6105
  483MOL0     N65121   6.298   4.344   1.113 -0.5903  0.3549 -0.7090
  483MOL0     N65122   6.388   4.437   1.108 -0.0693 -0.5303  0.8289
  483MOL0     C65123   7.507   4.380   0.607  0.3003 -0.2665 -0.0118
  483MOL0     C65124   7.636   4.426   0.585  0.1950  0.0892 -0.0465
  483MOL0     C65125   8.027   4.603   0.598 -0.1294 -0.3004  0.9756
  483MOL0     C65126   8.054   4.693   0.702  0.3399 -1.2667  0.0877
  483MOL0     C65127   8.189   4.728   0.733  0.4781  0.1840  0.3518
  483MOL0     C65128   8.296   4.681   0.665 -0.6129 -0.8605  0.2363
  483MOL0     O65129   8.423   4.718   0.706  0.0435 -0.7332 -0.1714
  483MOL0     C65130   8.524   4.740   0.605 -0.0268 -0.6588 -0.7788
  483MOL0     C65131   8.639   4.635   0.650 -0.0862  0.2139 -0.7544
  483MOL0     C65132   8.757   4.619   0.545  1.1382  0.3374 -0.2031
  483MOL0     C65133   8.869   4.714   0.586  0.0552  0.0976 -0.2094
  483MOL0     C65134   8.985   4.688   0.500 -0.4450 -0.3651  0.4850
  483MOL0     C65135   9.074   4.674   0.425  0.5757  0.2629  0.1439
  483MOL0     C65136   8.276   4.587   0.570 -0.0532 -0.1905 -0.4462
  483MOL0     C65137   8.144   4.546   0.530 -0.4371 -0.3868 -0.6893
  483MOL0     H65138   7.566   4.749   0.670 -1.9468 -0.4334  1.4470
  483MOL0     H65139   7.343   4.641   0.722  0.5375  0.6432  1.0409
  483MOL0     H65140   7.255   4.502   0.864  1.7943  0.2332 -0.9257
  483MOL0     H65141   7.128   4.512   0.737 -1.7888 -1.4301  0.3467
  483MOL0     H65142   7.042   4.321   0.782 -1.4871  1.3220  0.2734
  483MOL0     H65143   7.190   4.258   0.875  0.5003  0.4389 -2.4720
  483MOL0     H65144   7.138   4.409   1.057 -0.4466  0.5822  0.0801
  483MOL0     H65145   7.007   4.489   0.964 -0.6843 -0.0321  2.0360
  483MOL0     H65146   6.892   4.263   0.957  0.4581 -2.5312  0.8981
  483MOL0     H65147   7.012   4.199   1.066 -0.0903 -0.9445 -0.0732
  483MOL0     H65148   6.812   4.244   1.188  2.3689 -0.7742  1.3483
  483MOL0     H65149   6.939   4.354   1.240 -0.2260 -1.5220  1.2125
  483MOL0     H65150   6.829   4.532   1.103 -0.8432 -0.7246 -2.9560
  483MOL0     H65151   6.704   4.419   1.059  1.4280  2.3637 -2.1609
  483MOL0     H65152   6.685   4.377   1.322 -0.4648 -0.0249 -0.6169
  483MOL0     H65153   6.758   4.543   1.339 -1.0025  2.0207 -0.2418
  483MOL0     H65154   6.565   4.629   1.188 -1.8850 -0.2659 -0.7362
  483MOL0     H65155   6.523   4.599   1.347 -0.4895  1.1899 -1.5800
  483MOL0     H65156   6.439   4.330   1.406 -0.8710 -0.6795 -0.3032
  483MOL0     H65157   6.284   4.078   1.327 -1.4186 -0.4161  3.1063
  483MOL0     H65158   6.190   4.209   1.389  0.2362 -2.7862  1.6530
  483MOL0     H65159   6.066   4.046   1.251 -0.3137  0.9881  0.9268
  483MOL0     H65160   6.142   4.110   1.104  0.3759 -0.7203  0.8367
  483MOL0     H65161   6.034   4.305   1.105  2.5644 -0.2664 -0.5220
  483MOL0     H65162   6.022   4.310   1.291 -2.9422 -2.0016  1.2634
  483MOL0     H65163   5.854   4.135   1.285 -2.0216  2.6944  1.3346
  483MOL0     H65164   5.872   4.118   1.101  2.2464  2.0210 -1.9143
  483MOL0     H65165   5.645   4.046   1.149 -3.3156 -2.3577 -1.2490
  483MOL0     H65166   5.395   4.014   0.922 -2.4762  0.6939  0.3291
  483MOL0     H65167   5.519   3.946   1.009  0.6218  1.0536  1.9108
  483MOL0     H65168   5.352   3.949   1.081 -1.4738  0.4622 -0.6757
  483MOL0     H65169   5.079   4.203   0.761 -1.0711 -2.1666 -1.8895
  483MOL0     H65170   4.820   4.238   0.721  0.5734  2.3829  1.4109
  483MOL0     H65171   4.586   4.334   0.764  1.9933  0.2064  2.3509
  483MOL0     H65172   4.609   4.164   0.692 -0.9934  1.4717 -1.3001
  483MOL0     H65173   4.399   4.102   0.789  4.2477 -0.6672 -1.0254
  483MOL0     H65174   4.380   4.257   0.866  0.4442  1.9110 -1.0700
  483MOL0     H65175   4.392   4.200   0.557 -0.4280  1.3510 -2.8151
  483MOL0     H65176   4.383   4.361   0.617 -2.1174  1.2919  3.5632
  483MOL0     H65177   4.170   4.158   0.690 -0.4131  1.4047  3.3580
  483MOL0     H65178   4.172   4.314   0.752  1.4504 -0.0945  1.0901
  483MOL0     H65179   4.147   4.239   0.456 -0.8014  2.5182 -2.1810
  483MOL0     H65180   4.144   4.403   0.520  0.1860 -0.4421  0.6015
  483MOL0     H65181   3.958   4.177   0.619  2.0149  0.8462  1.1204
  483MOL0     H65182   3.947   4.340   0.667  1.4049 -0.9610  1.2366
  483MOL0     H65183   3.903   4.251   0.377  0.2846  1.7928 -1.4348
  483MOL0     H65184   3.893   4.420   0.434  0.2873 -0.0740 -0.1043
  483MOL0     H65185   3.703   4.200   0.526 -1.6586  0.8864  1.2032
  483MOL0     H65186   3.662   4.343   0.433  0.0459  4.0810  1.2221
  483MOL0     H65187   4.731   4.139   1.118 -1.1422  3.5052 -1.2056
  483MOL0     H65188   4.998   4.108   1.164 -1.2495 -4.7738  0.5266
  483MOL0     H65189   5.397   4.474   1.065 -0.8919 -0.0540 -0.5949
  483MOL0     H65190   5.629   4.489   1.117  0.0607  0.6614 -0.0598
  483MOL0     H65191   7.483   4.276   0.587  0.0425 -0.4852  1.3606
  483MOL0     H65192   7.702   4.352   0.542 -0.7492  0.8476 -3.0694
  483MOL0     H65193   7.976   4.745   0.756  1.3846  1.2412 -0.6880
  483MOL0     H65194   8.208   4.785   0.823 -0.4702 -1.5426  1.7149
  483MOL0     H65195   8.496   4.713   0.503 -0.1043 -4.5427  0.1025
  483MOL0     H65196   8.547   4.846   0.616 -2.8571  0.0481 -0.9358
  483MOL0     H65197   8.591   4.537   0.653 -2.9559  1.4895  2.1937
  483MOL0     H65198   8.673   4.669   0.749 -1.5532 -0.4980  0.0374
  483MOL0     H65199   8.730   4.629   0.439  1.8026  0.1044 -0.3974
  483MOL0     H65200   8.797   4.518   0.553  2.0085  0.5876 -1.1698
  483MOL0     H65201   8.904   4.689   0.686  1.7377 -2.5904 -1.3422
  483MOL0     H65202   8.831   4.816   0.589  2.6824  1.1319  1.7155
  483MOL0     H65203   9.159   4.670   0.360 -1.3907  0.8677 -2.6691
  483MOL0     H65204   8.362   4.539   0.523 -0.7096  0.1297 -2.0204
  483MOL0     H65205   8.136   4.476   0.448  0.6843 -1.3680  0.0066
  484MOL0     O65206   9.029   0.136   1.500  0.1607 -0.7890  0.7738
  484MOL0     C65207   8.971   0.064   1.579 -0.6216  0.0047  0.1274
  484MOL0     O65208   9.028  -0.015   1.669 -0.5004  0.0694  0.2027
  484MOL0     C65209   9.164  -0.050   1.652  0.3709 -0.0937  0.3580
  484MOL0     C65210   9.206  -0.128   1.535 -0.1318 -0.7733  0.1057
  484MOL0     C65211   9.338  -0.170   1.536  0.3115  0.4237 -0.5151
  484MOL0     C65212   9.424  -0.129   1.637 -0.1349  0.1299  0.6073
  484MOL0     O65213   9.556  -0.163   1.615 -0.2990 -0.0676 -0.2343
  484MOL0     C65214   9.666  -0.096   1.692  0.3911  0.1239 -1.0967
  484MOL0     C65215   9.798  -0.163   1.664 -0.3424  0.2540 -0.1244
  484MOL0     C65216   9.912  -0.065   1.693  0.8640 -0.2399 -0.5669
  484MOL0     C65217  10.056  -0.126   1.683 -0.2488 -0.3300 -0.2014
  484MOL0     C65218  10.165  -0.019   1.714 -0.4362 -0.5299 -0.1879
  484MOL0     C65219  10.159   0.056   1.856 -0.5423 -0.4676 -0.3754
  484MOL0     C65220  10.213  -0.035   1.963 -0.1615  0.5308  0.7356
  484MOL0     C65221  10.182  -0.005   2.109 -0.3645 -0.7531 -0.2180
  484MOL0     N65222  10.223   0.129   2.144  0.8670  0.5634 -0.2793
  484MOL0     C65223  10.348   0.166   2.187 -0.7380  0.0396 -0.1130
  484MOL0     C65224  10.339   0.301   2.193 -0.5604 -0.4977 -0.1230
  484MOL0     C65225  10.447   0.409   2.229  0.0677 -0.3988 -0.4214
  484MOL0     C65226  10.544   0.380   2.340 -0.1955  0.3610 -0.3497
  484MOL0     C65227  10.466   0.337   2.467 -0.3082  0.2643  0.2389
  484MOL0     C65228  10.366   0.442   2.523 -0.6917 -0.4673  0.7300
  484MOL0     O65229  10.293   0.406   2.643 -0.3264 -0.0361  0.2939
  484MOL0     C65230  10.178   0.335   2.624  1.2429 -0.0423 -0.2163
  484MOL0     C65231  10.117   0.287   2.509 -0.4618  0.1598 -1.1581
  484MOL0     C65232   9.992   0.224   2.519 -0.2713 -0.1048 -0.2550
  484MOL0     C65233   9.930   0.174   2.391 -0.6155 -0.7678  0.3496
  484MOL0     C65234   9.922   0.207   2.644  0.2217  0.4644  1.0559
  484MOL0     C65235   9.778   0.148   2.669 -1.2109  0.3747  0.3139
  484MOL0     O65236   9.732   0.164   2.791 -0.2424 -0.2013 -0.6866
  484MOL0     C65237   9.597   0.195   2.806  0.6337  0.8943 -0.0972
  484MOL0     C65238   9.505   0.099   2.845 -0.7688  0.3875  0.4990
  484MOL0     C65239   9.375   0.129   2.861  0.7460 -0.2155  0.3063
  484MOL0     C65240   9.325   0.259   2.853  0.2333 -0.5937 -0.1030
  484MOL0     O65241   9.195   0.282   2.892 -0.4626  0.6937  0.2731
  484MOL0     C65242   9.110   0.363   2.811 -0.0225  0.0262  0.6445
  484MOL0     C65243   9.037   0.453   2.905  0.7086 -0.0046 -0.2623
  484MOL0     C65244   8.907   0.528   2.833 -0.0957  0.1935  0.5776
  484MOL0     C65245   8.807   0.603   2.925 -0.1505  0.4190 -0.1883
  484MOL0     C65246   8.721   0.513   3.016 -0.4967 -0.8320 -0.1053
  484MOL0     C65247   8.614   0.604   3.089 -0.2876  0.4036  1.1932
  484MOL0     C65248   8.500   0.514   3.142 -0.6023 -1.0997  0.0621
  484MOL0     C65249   8.519   0.459   3.283 -0.2867  0.4354 -0.1250
  484MOL0    Cl65250   8.482   0.595   3.386 -0.2944  0.0382  0.0935
  484MOL0     C65251   9.418   0.357   2.806  0.0919 -0.3853 -0.1170
  484MOL0     C65252   9.555   0.328   2.791 -0.0345  0.0711 -0.3374
  484MOL0     O65253   9.722   0.096   2.577  0.3487 -0.0226 -0.0142
  484MOL0     C65254   9.984   0.263   2.751 -0.3339  0.2984  0.0740
  484MOL0     C65255  10.108   0.323   2.744  0.1449  0.0355 -0.6954
  484MOL0     N65256  10.217   0.349   2.156  0.5924 -0.0849 -0.1065
  484MOL0     N65257  10.142   0.243   2.136  0.2586  0.9537 -0.0832
  484MOL0     C65258   9.382  -0.056   1.745  0.6348  0.6200  0.2500
  484MOL0     C65259   9.247  -0.027   1.762 -0.6906 -0.4421  0.7035
  484MOL0     C65260   8.829   0.064   1.571  0.6549 -0.1749 -0.0519
  484MOL0     C65261   8.755  -0.021   1.655  0.0497  1.4252  0.0765
  484MOL0     C65262   8.614  -0.026   1.650 -0.4949 -0.3162  0.0694
  484MOL0     C65263   8.544   0.054   1.562 -0.1505 -0.3184  0.9747
  484MOL0     O65264   8.413   0.022   1.569  0.5172  0.1732  0.7485
  484MOL0     C65265   8.311   0.094   1.480 -0.3713 -0.2217 -0.2822
  484MOL0     C65266   8.173   0.080   1.548 -0.0611 -0.0552  0.4415
  484MOL0     C65267   8.134  -0.068   1.548  0.0218  0.4670 -0.3548
  484MOL0     C65268   7.985  -0.079   1.519 -0.0273  0.9838 -1.0849
  484MOL0     C65269   7.927  -0.202   1.578 -0.0869 -0.2796  1.1139
  484MOL0     C65270   7.850  -0.292   1.604 -0.5546 -0.0382  0.4449
  484MOL0     C65271   8.614   0.140   1.479 -1.1934 -0.2864  0.7292
  484MOL0     C65272   8.754   0.148   1.484  0.1532  0.6292  0.3778
  484MOL0     H65273   9.138  -0.141   1.452  0.4179 -0.5758 -0.3795
  484MOL0     H65274   9.377  -0.243   1.466 -3.0212  1.0383 -3.2853
  484MOL0     H65275   9.671   0.012   1.675 -1.3072 -0.0156 -3.0002
  484MOL0     H65276   9.642  -0.111   1.797 -2.3560  0.0643 -1.6494
  484MOL0     H65277   9.818  -0.254   1.721 -1.5128 -0.4551 -0.7973
  484MOL0     H65278   9.794  -0.189   1.557  0.4225  1.2155 -0.4011
  484MOL0     H65279   9.907   0.021   1.625 -1.3233  0.1108 -0.0458
  484MOL0     H65280   9.884  -0.026   1.792 -1.7077 -0.1608 -1.2509
  484MOL0     H65281  10.067  -0.211   1.752 -0.4148  0.5674  0.9705
  484MOL0     H65282  10.070  -0.158   1.580 -0.7806 -2.1367  0.2376
  484MOL0     H65283  10.266  -0.060   1.701  0.0969  0.0648  1.7346
  484MOL0     H65284  10.158   0.062   1.641 -2.6468 -0.7680 -0.3219
  484MOL0     H65285  10.213   0.151   1.863 -0.0190 -0.8694  4.0620
  484MOL0     H65286  10.054   0.078   1.877 -0.6165 -1.0121 -0.1520
  484MOL0     H65287  10.181  -0.137   1.936 -1.5705  1.3613 -0.9583
  484MOL0     H65288  10.322  -0.033   1.955 -0.2179 -0.8747 -1.2002
  484MOL0     H65289  10.236  -0.076   2.172 -0.3083  0.5460  1.2564
  484MOL0     H65290  10.074  -0.017   2.120 -0.7343 -1.4241 -3.5706
  484MOL0     H65291  10.432   0.101   2.208 -0.2409  0.1025 -1.8196
  484MOL0     H65292  10.506   0.424   2.139 -3.3491  1.7901 -2.5247
  484MOL0     H65293  10.400   0.506   2.245  0.3894 -0.2311 -0.4870
  484MOL0     H65294  10.600   0.466   2.379 -0.0237  0.0790  0.0286
  484MOL0     H65295  10.619   0.312   2.300  1.0299  1.2573  0.3237
  484MOL0     H65296  10.544   0.322   2.542  0.0421  0.5912 -0.0616
  484MOL0     H65297  10.415   0.241   2.453  0.4494 -0.4899  2.2380
  484MOL0     H65298  10.294   0.468   2.446 -0.5941  0.3845  0.9168
  484MOL0     H65299  10.428   0.530   2.544  0.7624 -1.4556  0.7422
  484MOL0     H65300  10.167   0.289   2.413  2.6807  0.1325  0.3539
  484MOL0     H65301   9.999   0.175   2.306 -0.2782 -0.4260  0.6259
  484MOL0     H65302   9.921   0.066   2.408  0.3693 -0.7855  0.8510
  484MOL0     H65303   9.835   0.214   2.354 -2.3329 -2.3989  2.6662
  484MOL0     H65304   9.549   0.001   2.863  2.7845  1.5340 -1.0159
  484MOL0     H65305   9.306   0.055   2.899  1.3243 -0.2458  1.3578
  484MOL0     H65306   9.173   0.425   2.745 -0.2344  0.7846  1.1377
  484MOL0     H65307   9.043   0.300   2.752  1.2765  0.2944 -1.2152
  484MOL0     H65308   9.000   0.398   2.993 -1.5386  1.0227 -0.4973
  484MOL0     H65309   9.102   0.526   2.952 -1.5550  0.1992  2.9161
  484MOL0     H65310   8.855   0.463   2.763  1.2626  0.2525 -0.5225
  484MOL0     H65311   8.950   0.601   2.763 -1.3672 -0.0294 -0.4638
  484MOL0     H65312   8.860   0.671   2.992 -0.9759 -0.5181  1.4705
  484MOL0     H65313   8.733   0.648   2.859 -1.1356 -2.1324 -0.9352
  484MOL0     H65314   8.791   0.465   3.086 -1.1901  1.3863  2.2757
  484MOL0     H65315   8.673   0.442   2.949  1.8358 -0.7488 -2.0085
  484MOL0     H65316   8.663   0.656   3.172  2.0416  1.1086 -0.5312
  484MOL0     H65317   8.569   0.672   3.016  2.3362  0.1076 -0.8538
  484MOL0     H65318   8.497   0.423   3.081 -1.8597 -0.2466 -1.1844
  484MOL0     H65319   8.402   0.561   3.140 -0.8599 -1.4875  1.6375
  484MOL0     H65320   8.615   0.413   3.306 -0.5730  0.2647  0.7700
  484MOL0     H65321   8.455   0.376   3.312  0.6368  0.0262  0.7762
  484MOL0     H65322   9.380   0.459   2.804 -0.4196 -0.5765 -2.0158
  484MOL0     H65323   9.636   0.394   2.762 -0.1979 -0.2739 -1.6274
  484MOL0     H65324   9.959   0.248   2.856  0.0499 -0.6644  0.0353
  484MOL0     H65325  10.153   0.350   2.839 -0.1079  1.4423 -0.9643
  484MOL0     H65326   9.450  -0.021   1.822 -1.0627  0.9244  1.6622
  484MOL0     H65327   9.217   0.029   1.850 -1.6893  0.1753 -0.0093
  484MOL0     H65328   8.794  -0.085   1.733 -3.9433 -2.2850 -0.5825
  484MOL0     H65329   8.565  -0.091   1.722 -2.3315 -0.2599 -1.0849
  484MOL0     H65330   8.341   0.198   1.461 -0.8694  0.2417  1.3064
  484MOL0     H65331   8.307   0.055   1.378  3.4953  1.5534 -1.3117
  484MOL0     H65332   8.093   0.137   1.499  3.0727  2.5850 -1.9862
  484MOL0     H65333   8.175   0.120   1.649  1.0721 -2.1214  1.3029
  484MOL0     H65334   8.156  -0.112   1.646 -2.9420  1.2079  0.7667
  484MOL0     H65335   8.177  -0.131   1.470 -0.8776 -2.8159  1.6110
  484MOL0     H65336   7.971  -0.072   1.411 -0.1770  1.1859 -1.0539
  484MOL0     H65337   7.934   0.007   1.564 -1.2950  0.2036 -0.9849
  484MOL0     H65338   7.788  -0.376   1.626  1.1927 -2.4367 -2.9099
  484MOL0     H65339   8.553   0.196   1.409  0.3493  1.8903  1.0211
  484MOL0     H65340   8.794   0.208   1.403 -1.0890  1.7238  0.5206
  485MOL0     O65341   3.883   6.342   0.350  0.6377  0.0867 -0.0482
  485MOL0     C65342   3.858   6.257   0.435  0.1726 -0.6000  0.6636
  485MOL0     O65343   3.741   6.238   0.490 -0.0605 -0.5014 -0.2083
  485MOL0     C65344   3.618   6.294   0.445 -0.5051  0.0749  0.1490
  485MOL0     C65345   3.511   6.274   0.534  0.1614 -0.5485  0.0334
  485MOL0     C65346   3.377   6.325   0.504 -0.3887 -0.1754  0.3304
  485MOL0     C65347   3.363   6.412   0.394 -0.5038  0.2143 -0.7642
  485MOL0     O65348   3.239   6.471   0.359  0.0770  0.0677 -0.5087
  485MOL0     C65349   3.119   6.404   0.406 -0.9911 -0.4840  0.0784
  485MOL0     C65350   3.000   6.489   0.367  0.1112 -0.5848  0.3098
  485MOL0     C65351   2.873   6.431   0.428 -0.4358 -0.2485 -0.1525
  485MOL0     C65352   2.750   6.524   0.407 -1.1322 -0.3929  0.7366
  485MOL0     C65353   2.626   6.481   0.480 -0.0933  0.4818 -0.1828
  485MOL0     C65354   2.494   6.519   0.401 -0.7614  0.2675 -0.4728
  485MOL0     C65355   2.376   6.438   0.449 -0.1545 -0.7124  1.0156
  485MOL0     C65356   2.317   6.519   0.566 -0.4451  0.6325 -0.2676
  485MOL0     N65357   2.218   6.441   0.636 -0.5564  0.2095 -0.6094
  485MOL0     C65358   2.085   6.434   0.610  0.5896  0.6279  0.2931
  485MOL0     C65359   2.029   6.353   0.708 -0.2685 -1.3194  0.0344
  485MOL0     C65360   1.878   6.327   0.721 -0.2283 -0.0874  0.5564
  485MOL0     C65361   1.812   6.291   0.586 -0.6145  0.1921 -0.1096
  485MOL0     C65362   1.662   6.260   0.606 -0.1805  0.8437  0.6976
  485MOL0     C65363   1.569   6.377   0.605  0.0740  0.2310  0.0391
  485MOL0     O65364   1.587   6.443   0.729  0.1867 -0.1258 -0.6424
  485MOL0     C65365   1.472   6.458   0.800  1.2465  0.0845 -0.6842
  485MOL0     C65366   1.410   6.361   0.874 -0.4717  0.3338  0.0096
  485MOL0     C65367   1.297   6.385   0.950 -0.2530  0.1116 -0.4331
  485MOL0     C65368   1.241   6.266   1.025  0.0008  0.7123 -0.9348
  485MOL0     C65369   1.232   6.514   0.951  0.0793  0.8891 -0.5532
  485MOL0     C65370   1.099   6.544   1.020  0.0558 -0.0407 -0.4039
  485MOL0     O65371   1.004   6.440   1.040 -0.4514  0.1420 -0.4143
  485MOL0     C65372   0.892   6.468   1.106  0.6628 -0.4845 -0.0066
  485MOL0     C65373   0.769   6.433   1.052 -0.1489  0.4263  0.0593
  485MOL0     C65374   0.649   6.446   1.121 -0.2033 -0.3403  0.2275
  485MOL0     C65375   0.634   6.514   1.245  0.5637  0.6704 -0.2630
  485MOL0     O65376   0.508   6.515   1.297 -0.2921  0.6632 -0.6487
  485MOL0     C65377   0.508   6.521   1.441  0.4953  0.5610  0.2002
  485MOL0     C65378   0.365   6.487   1.496 -0.5137  0.2777 -0.9527
  485MOL0     C65379   0.300   6.360   1.432  0.6616  0.0762 -0.0735
  485MOL0     C65380   0.159   6.351   1.489  0.4260  0.2110 -0.0427
  485MOL0     C65381   0.083   6.227   1.445 -0.6823 -0.1017 -0.1424
  485MOL0     C65382   0.020   6.246   1.309  0.2373 -0.0244  0.3576
  485MOL0     C65383  -0.086   6.137   1.279 -0.3122  0.6625 -0.2426
  485MOL0     C65384  -0.013   6.001   1.303 -0.2312  0.1410  0.3284
  485MOL0    Cl65385  -0.133   5.869   1.298  0.2072 -0.3117 -0.2042
  485MOL0     C65386   0.759   6.555   1.306  0.4434  0.4063 -0.4630
  485MOL0     C65387   0.882   6.524   1.235  0.7922  0.0104  0.4733
  485MOL0     O65388   1.080   6.662   1.056 -0.0179 -0.5944  0.2967
  485MOL0     C65389   1.292   6.616   0.877  0.3608  0.5437 -0.0260
  485MOL0     C65390   1.409   6.585   0.805 -0.2816  0.3666 -0.4606
  485MOL0     N65391   2.127   6.323   0.799 -1.0187  0.2026  0.1653
  485MOL0     N65392   2.237   6.376   0.754 -0.1883 -0.3189 -0.0815
  485MOL0     C65393   3.476   6.434   0.313 -0.5414 -0.3254  0.1456
  485MOL0     C65394   3.594   6.382   0.343  0.4603 -1.0812  0.0364
  485MOL0     C65395   3.968   6.173   0.488 -0.5133 -0.3777  0.3041
  485MOL0     C65396   3.946   6.083   0.589 -0.2384  0.4565 -1.0049
  485MOL0     C65397   4.050   6.007   0.646 -0.4647  1.1260 -0.0307
  485MOL0     C65398   4.181   6.027   0.609  0.1397 -0.3798  1.2804
  485MOL0     O65399   4.289   5.981   0.677  0.0687  0.9438  0.0843
  485MOL0     C65400   4.286   5.843   0.699 -0.7925  0.7841  0.2895
  485MOL0     C65401   4.278   5.832   0.851 -0.4557 -1.0038 -0.4636
  485MOL0     C65402   4.246   5.697   0.912 -0.4384  0.2235 -0.2707
  485MOL0     C65403   4.241   5.695   1.068 -0.0988  0.5137 -0.6020
  485MOL0     C65404   4.371   5.687   1.142  0.1714 -0.5430  0.9370
  485MOL0     C65405   4.481   5.681   1.192 -0.0756 -0.7573  0.0814
  485MOL0     C65406   4.205   6.120   0.506 -0.2779 -0.3340 -0.1562
  485MOL0     C65407   4.102   6.199   0.450 -0.6881 -0.1917  0.3012
  485MOL0     H65408   3.521   6.206   0.617 -0.9458 -2.8305 -1.5731
  485MOL0     H65409   3.298   6.291   0.570 -2.8259  2.0798 -1.2280
  485MOL0     H65410   3.100   6.306   0.361 -2.6346  0.8049 -2.2263
  485MOL0     H65411   3.120   6.405   0.515 -1.3565  0.7287  0.0878
  485MOL0     H65412   3.022   6.591   0.400  1.9872 -1.6787  2.7874
  485MOL0     H65413   2.994   6.482   0.258 -2.0508  1.1320  0.2402
  485MOL0     H65414   2.864   6.331   0.385  0.0402 -0.2119 -0.3443
  485MOL0     H65415   2.876   6.417   0.537  0.2941  1.3059  0.0561
  485MOL0     H65416   2.780   6.622   0.446 -1.3636  0.5476 -1.3497
  485MOL0     H65417   2.731   6.527   0.300  3.4793 -1.2960 -0.3207
  485MOL0     H65418   2.625   6.375   0.504  0.9375  0.1893 -1.3188
  485MOL0     H65419   2.619   6.534   0.576 -0.6934  3.9003 -1.9292
  485MOL0     H65420   2.474   6.626   0.408 -1.6459  0.0415  0.9117
  485MOL0     H65421   2.513   6.495   0.296  0.4439 -0.4466 -0.1113
  485MOL0     H65422   2.303   6.441   0.368  0.9765  0.1463 -0.0154
  485MOL0     H65423   2.410   6.336   0.467  0.6720 -0.5684  0.3299
  485MOL0     H65424   2.263   6.606   0.527 -1.0863  0.1498 -0.4815
  485MOL0     H65425   2.400   6.547   0.632 -0.2976  0.8914 -0.5610
  485MOL0     H65426   2.025   6.456   0.523 -1.6808 -1.3988  1.2133
  485MOL0     H65427   1.864   6.256   0.803  2.6398  0.3830  1.5841
  485MOL0     H65428   1.841   6.425   0.752  0.4618  0.2190  0.4397
  485MOL0     H65429   1.859   6.199   0.550  0.8223  1.4081 -1.4823
  485MOL0     H65430   1.830   6.367   0.509  0.2422 -0.8010 -0.9068
  485MOL0     H65431   1.653   6.206   0.701 -0.6795 -2.5346 -1.0971
  485MOL0     H65432   1.629   6.195   0.524  1.4003 -0.0105  0.7110
  485MOL0     H65433   1.468   6.338   0.595  0.9192 -1.6833 -1.7008
  485MOL0     H65434   1.586   6.437   0.515 -0.0512  0.6989  0.3273
  485MOL0     H65435   1.462   6.266   0.867 -0.0405  0.6745 -1.8393
  485MOL0     H65436   1.206   6.297   1.124  2.9322 -1.3030  0.9056
  485MOL0     H65437   1.157   6.230   0.964 -0.1171  2.8726 -2.1411
  485MOL0     H65438   1.323   6.195   1.041  0.3479  0.7404 -2.4571
  485MOL0     H65439   0.765   6.386   0.954  2.9317  2.1882 -1.0658
  485MOL0     H65440   0.557   6.408   1.077  0.4012 -0.9887 -0.5121
  485MOL0     H65441   0.583   6.451   1.480  0.0296 -0.8429 -1.2994
  485MOL0     H65442   0.534   6.619   1.483  1.2604  0.7423 -0.6638
  485MOL0     H65443   0.377   6.475   1.604  2.9713 -1.4147 -1.3961
  485MOL0     H65444   0.306   6.578   1.481 -1.0210  0.4535  1.6526
  485MOL0     H65445   0.362   6.274   1.460  0.9467  0.8006  1.6618
  485MOL0     H65446   0.300   6.376   1.324  3.5827  2.6213  0.1483
  485MOL0     H65447   0.158   6.345   1.598 -0.7648 -1.2798 -0.0948
  485MOL0     H65448   0.108   6.441   1.454 -0.9959  0.7562  3.0615
  485MOL0     H65449   0.004   6.206   1.518  0.1946 -2.0535  0.3235
  485MOL0     H65450   0.156   6.146   1.457 -0.4918  0.2223  1.0916
  485MOL0     H65451  -0.028   6.344   1.301 -2.3726 -1.1036  1.4988
  485MOL0     H65452   0.092   6.244   1.227  0.0220 -3.2356  0.1353
  485MOL0     H65453  -0.125   6.167   1.181 -4.2198  0.1295  0.9771
  485MOL0     H65454  -0.170   6.139   1.348 -0.7067  0.4958 -0.7159
  485MOL0     H65455   0.030   5.997   1.403  2.6592 -1.4273 -0.8412
  485MOL0     H65456   0.072   6.001   1.233 -1.6945  2.1249 -1.6019
  485MOL0     H65457   0.761   6.616   1.396  0.6617  2.9472 -2.0930
  485MOL0     H65458   0.974   6.559   1.279  0.9024 -0.0193  0.2696
  485MOL0     H65459   1.251   6.716   0.865 -0.2221  0.3414  0.2548
  485MOL0     H65460   1.461   6.669   0.761 -1.0233  0.8681 -0.4045
  485MOL0     H65461   3.486   6.512   0.238  1.0009 -0.7464 -0.1372
  485MOL0     H65462   3.676   6.412   0.279  0.2841  0.4619  0.4974
  485MOL0     H65463   3.847   6.076   0.633 -0.0464 -1.0304 -0.7597
  485MOL0     H65464   4.016   5.940   0.724  0.7479  0.2334 -0.2440
  485MOL0     H65465   4.204   5.789   0.650  0.1544 -0.7542  0.3559
  485MOL0     H65466   4.385   5.806   0.671  0.5559  1.8112  3.2782
  485MOL0     H65467   4.204   5.900   0.894 -0.3397 -1.3360  0.2767
  485MOL0     H65468   4.377   5.860   0.890 -1.8251  3.1381  0.4404
  485MOL0     H65469   4.308   5.616   0.872 -0.8475 -0.7048  0.9065
  485MOL0     H65470   4.146   5.671   0.878 -0.5482  1.8591 -1.2989
  485MOL0     H65471   4.193   5.602   1.101 -1.2910  1.2803 -0.0648
  485MOL0     H65472   4.178   5.773   1.112  0.3875  0.9202 -0.6258
  485MOL0     H65473   4.580   5.668   1.229  0.4461 -0.0697 -1.0229
  485MOL0     H65474   4.296   6.123   0.447 -1.1799 -0.5996 -1.6136
  485MOL0     H65475   4.132   6.268   0.372 -3.3828 -0.0488 -0.7217
  486MOL0     O65476   5.340   3.855   5.293  0.0767  0.0968 -0.4450
  486MOL0     C65477   5.451   3.874   5.249 -1.0044  0.0104  0.3273
  486MOL0     O65478   5.478   3.945   5.144  0.3911  0.0973  0.7498
  486MOL0     C65479   5.385   4.003   5.057  0.0623  0.8354 -0.6990
  486MOL0     C65480   5.243   3.989   5.069  0.0206  0.0510  0.0996
  486MOL0     C65481   5.160   4.055   4.981  0.2412 -0.2651  0.0642
  486MOL0     C65482   5.215   4.138   4.878 -0.6723  0.2972  0.1322
  486MOL0     O65483   5.141   4.186   4.776 -0.7746  1.4220 -0.4527
  486MOL0     C65484   5.007   4.149   4.768  0.3891  0.3098  0.3034
  486MOL0     C65485   4.954   4.200   4.637  0.9415  0.0152 -0.9133
  486MOL0     C65486   4.951   4.350   4.608  0.7107 -0.0730  0.0268
  486MOL0     C65487   4.929   4.376   4.456 -0.4067  0.1699 -0.9745
  486MOL0     C65488   4.941   4.521   4.401 -0.2260 -0.2585  0.3277
  486MOL0     C65489   4.853   4.621   4.472 -0.0851  0.0784  0.0115
  486MOL0     C65490   4.696   4.596   4.470  0.6911  0.4359 -0.7532
  486MOL0     C65491   4.645   4.558   4.326 -0.4596 -0.3480 -0.0117
  486MOL0     N65492   4.499   4.561   4.321 -0.7025  0.6199  0.0143
  486MOL0     C65493   4.421   4.447   4.359 -0.1269 -0.4809 -0.6707
  486MOL0     C65494   4.295   4.499   4.349 -0.4917 -0.2615  0.1487
  486MOL0     C65495   4.174   4.423   4.376 -0.2849  0.4687 -0.7772
  486MOL0     C65496   4.060   4.503   4.440 -0.0096  0.6086 -0.0076
  486MOL0     C65497   3.948   4.396   4.474 -0.4668 -0.4944 -0.5228
  486MOL0     C65498   3.823   4.444   4.539 -0.3492 -0.1286 -0.2473
  486MOL0     O65499   3.750   4.528   4.452 -0.9982 -0.8545  0.3721
  486MOL0     C65500   3.613   4.536   4.483 -0.7822 -0.6187  0.0341
  486MOL0     C65501   3.538   4.558   4.371  0.1297 -0.3613 -0.4987
  486MOL0     C65502   3.391   4.554   4.378 -0.9053  0.5937 -0.4650
  486MOL0     C65503   3.314   4.585   4.250  0.1291  0.1597 -0.7145
  486MOL0     C65504   3.328   4.525   4.506  0.8023  0.1792 -0.6045
  486MOL0     C65505   3.182   4.496   4.526 -0.5144 -0.0174  0.7328
  486MOL0     O65506   3.142   4.480   4.652 -0.6256 -0.4515 -0.6447
  486MOL0     C65507   3.012   4.500   4.676  1.0975 -1.2637  0.1749
  486MOL0     C65508   2.959   4.630   4.661 -0.4695 -0.7744  0.5403
  486MOL0     C65509   2.821   4.657   4.669 -1.3907  1.2915  0.2722
  486MOL0     C65510   2.731   4.555   4.707 -0.5999  0.4074  0.5804
  486MOL0     O65511   2.598   4.583   4.714  0.3055 -0.5786  0.2162
  486MOL0     C65512   2.520   4.593   4.602  0.0041  0.3256  0.4958
  486MOL0     C65513   2.413   4.695   4.618 -0.4806 -0.1037  0.7220
  486MOL0     C65514   2.312   4.671   4.735  0.2672  0.2453 -0.6203
  486MOL0     C65515   2.214   4.797   4.746 -0.1188  0.1398 -0.4925
  486MOL0     C65516   2.131   4.789   4.877  0.4629  0.4007 -0.7230
  486MOL0     C65517   2.059   4.922   4.916 -0.2776 -0.2735  0.5602
  486MOL0     C65518   1.921   4.906   4.970 -0.4794  0.1391 -0.0484
  486MOL0     C65519   1.853   5.048   4.987  0.3385  0.1493 -0.0737
  486MOL0    Cl65520   1.672   5.034   4.984 -0.6586  0.0406 -0.1755
  486MOL0     C65521   2.783   4.425   4.737 -0.3288  0.1410 -0.3808
  486MOL0     C65522   2.922   4.397   4.721  0.0363 -0.3545  0.2491
  486MOL0     O65523   3.120   4.466   4.425  0.3103  0.1776 -0.1374
  486MOL0     C65524   3.412   4.512   4.616 -0.0383 -0.7846  0.0453
  486MOL0     C65525   3.551   4.519   4.606 -0.5230  0.3194 -0.0158
  486MOL0     N65526   4.297   4.632   4.303  0.0565  0.5096 -0.4087
  486MOL0     N65527   4.424   4.662   4.281 -0.5013 -0.2238  0.4899
  486MOL0     C65528   5.351   4.157   4.871 -0.4151  0.6594 -0.4500
  486MOL0     C65529   5.436   4.095   4.970 -0.0228  0.3359  0.1630
  486MOL0     C65530   5.570   3.832   5.336 -0.6021 -0.8542  0.6178
  486MOL0     C65531   5.552   3.747   5.438  0.1517 -0.4233 -0.9143
  486MOL0     C65532   5.662   3.704   5.514 -0.8359  0.2363 -0.1513
  486MOL0     C65533   5.792   3.734   5.482  0.1414  0.5420  0.4661
  486MOL0     O65534   5.901   3.669   5.550  0.3730 -0.1891  0.4128
  486MOL0     C65535   5.894   3.599   5.675 -0.2376 -0.4374 -0.4926
  486MOL0     C65536   5.864   3.688   5.795 -0.0890 -1.1788  0.7005
  486MOL0     C65537   5.869   3.620   5.937 -0.1797 -0.6727  0.7943
  486MOL0     C65538   5.742   3.544   5.953  0.0959 -0.8724 -0.1489
  486MOL0     C65539   5.713   3.544   6.094 -0.3391 -0.2102 -0.3555
  486MOL0     C65540   5.680   3.524   6.205 -0.3089 -0.6556  0.8510
  486MOL0     C65541   5.814   3.835   5.389  0.0713  0.5803 -0.0222
  486MOL0     C65542   5.700   3.883   5.312  0.0563  0.5286  0.2370
  486MOL0     H65543   5.197   3.931   5.149  0.8858  1.1161  1.4060
  486MOL0     H65544   5.052   4.043   4.989  0.1309  1.2352  1.3603
  486MOL0     H65545   4.992   4.041   4.767  0.4350  0.2416  2.1824
  486MOL0     H65546   4.953   4.189   4.854  1.1505 -2.1432  2.0410
  486MOL0     H65547   5.020   4.158   4.560  0.2031 -3.6728  0.2474
  486MOL0     H65548   4.856   4.154   4.623  0.7801 -0.4939  1.4081
  486MOL0     H65549   4.870   4.403   4.659  1.3463 -2.0219  3.3861
  486MOL0     H65550   5.042   4.393   4.649  0.9722 -0.1171 -0.4990
  486MOL0     H65551   5.003   4.315   4.404  2.1949  1.8434  0.5391
  486MOL0     H65552   4.828   4.338   4.438 -1.0825  0.7885  1.1825
  486MOL0     H65553   5.044   4.556   4.404 -1.2286  3.0152 -0.1806
  486MOL0     H65554   4.923   4.533   4.294  1.9463 -0.3772 -0.0933
  486MOL0     H65555   4.883   4.618   4.577 -0.2070 -0.2422  0.0380
  486MOL0     H65556   4.870   4.718   4.424  1.8932  0.7976  2.0027
  486MOL0     H65557   4.661   4.537   4.555  2.4261 -1.5546 -1.3402
  486MOL0     H65558   4.657   4.698   4.477  2.3800  1.1195 -0.9674
  486MOL0     H65559   4.682   4.463   4.285 -0.9488 -0.1266 -0.9994
  486MOL0     H65560   4.673   4.640   4.259  0.6927  1.7103  2.8225
  486MOL0     H65561   4.450   4.344   4.375  0.5701 -0.0239  1.2229
  486MOL0     H65562   4.146   4.396   4.274  1.3236  0.1877 -1.1665
  486MOL0     H65563   4.203   4.332   4.430  1.7900  1.3752 -0.2677
  486MOL0     H65564   4.011   4.565   4.365  0.9385  0.0446 -1.1162
  486MOL0     H65565   4.078   4.564   4.529 -1.1126  0.8418  0.0655
  486MOL0     H65566   4.003   4.329   4.540  1.9567  1.3105 -0.5467
  486MOL0     H65567   3.918   4.337   4.387 -1.3605  1.0774 -1.3348
  486MOL0     H65568   3.848   4.498   4.631 -0.0993 -1.7086  0.6521
  486MOL0     H65569   3.760   4.356   4.556 -2.3040  1.1856 -0.2677
  486MOL0     H65570   3.592   4.581   4.280  0.1310 -0.5687 -0.5516
  486MOL0     H65571   3.231   4.650   4.279 -0.7225 -0.9289 -0.6013
  486MOL0     H65572   3.378   4.639   4.180  2.1923  0.9369  1.6551
  486MOL0     H65573   3.285   4.493   4.198 -0.7299 -1.4520  2.3322
  486MOL0     H65574   3.013   4.718   4.627 -2.4762  1.3488  2.4604
  486MOL0     H65575   2.779   4.756   4.656 -1.2572  1.0696 -2.3673
  486MOL0     H65576   2.583   4.625   4.518 -0.3662  1.3908  0.6114
  486MOL0     H65577   2.483   4.492   4.582  2.7448 -0.9563  1.3862
  486MOL0     H65578   2.460   4.793   4.629  1.7602 -0.8719 -1.0441
  486MOL0     H65579   2.356   4.707   4.525  0.6251 -0.9239 -0.0871
  486MOL0     H65580   2.367   4.654   4.828  0.5849 -1.1846 -1.0388
  486MOL0     H65581   2.252   4.582   4.713  0.1921  0.2978 -0.6298
  486MOL0     H65582   2.277   4.886   4.737 -0.1557  0.1400 -0.7686
  486MOL0     H65583   2.146   4.810   4.661 -1.6252  2.7850  0.9699
  486MOL0     H65584   2.193   4.779   4.966  0.9246 -1.8301 -1.2126
  486MOL0     H65585   2.061   4.705   4.869  1.3458 -0.3195 -1.1374
  486MOL0     H65586   2.125   4.982   4.980  0.2403  1.9254 -1.8720
  486MOL0     H65587   2.058   4.982   4.825 -0.1351  1.0310  1.3892
  486MOL0     H65588   1.925   4.855   5.067  0.4857  0.5740  0.1563
  486MOL0     H65589   1.876   4.844   4.893  0.2954  0.3779 -0.7044
  486MOL0     H65590   1.879   5.113   4.903 -0.2545 -0.5602 -0.8318
  486MOL0     H65591   1.868   5.102   5.080 -2.8947  0.7876  0.2056
  486MOL0     H65592   2.716   4.351   4.781  0.7631 -0.9736 -0.5439
  486MOL0     H65593   2.962   4.297   4.733  1.6852  0.2712  0.1339
  486MOL0     H65594   3.372   4.482   4.713 -2.4599  1.7564 -0.0330
  486MOL0     H65595   3.592   4.510   4.706 -3.6941 -1.8311  1.2457
  486MOL0     H65596   5.381   4.215   4.784  0.2920  0.4300 -0.3703
  486MOL0     H65597   5.544   4.105   4.965 -0.0119  0.9372  1.3199
  486MOL0     H65598   5.454   3.710   5.465 -0.0004 -0.0079 -0.9039
  486MOL0     H65599   5.649   3.630   5.592  0.8402 -1.5424 -1.4532
  486MOL0     H65600   5.815   3.527   5.653 -1.2737  0.4981  0.0699
  486MOL0     H65601   5.984   3.539   5.694 -1.7551 -1.9688  2.5779
  486MOL0     H65602   5.774   3.746   5.774  0.3080  0.1889  2.4551
  486MOL0     H65603   5.948   3.757   5.800 -0.0663 -0.8608 -2.4464
  486MOL0     H65604   5.882   3.705   6.005 -1.9264 -0.0488  0.4003
  486MOL0     H65605   5.958   3.560   5.958 -0.6868 -0.7599  2.9265
  486MOL0     H65606   5.746   3.447   5.903 -1.0393 -0.6289 -0.7446
  486MOL0     H65607   5.666   3.608   5.908  0.1745 -2.3786 -2.5885
  486MOL0     H65608   5.654   3.511   6.308 -0.4030  0.0387  0.9214
  486MOL0     H65609   5.918   3.864   5.383  0.4829  0.1153  3.0519
  486MOL0     H65610   5.725   3.962   5.243  2.0364  1.3884  1.8487
  487MOL0     O65611   6.154   9.004   3.073 -0.7732  0.7481 -0.0100
  487MOL0     C65612   6.175   9.115   3.119 -0.1609  0.3450  0.2338
  487MOL0     O65613   6.109   9.174   3.222 -0.7886  0.8062 -0.4268
  487MOL0     C65614   6.018   9.105   3.299 -0.5541  0.3086  0.4058
  487MOL0     C65615   5.889   9.152   3.317  0.7900  0.2846  0.3573
  487MOL0     C65616   5.800   9.064   3.386 -1.2321 -0.4676  0.6398
  487MOL0     C65617   5.840   8.950   3.445  0.0495 -0.7255  0.0207
  487MOL0     O65618   5.757   8.864   3.518  0.1435 -0.2468  0.0159
  487MOL0     C65619   5.641   8.923   3.563  0.1937  0.4845  0.4865
  487MOL0     C65620   5.562   8.816   3.641  0.2421 -0.0210  0.4387
  487MOL0     C65621   5.421   8.869   3.678 -0.0221  0.1700 -0.1996
  487MOL0     C65622   5.415   8.945   3.812  0.1401 -0.9662  0.3447
  487MOL0     C65623   5.271   8.998   3.846 -0.0002 -0.1816 -0.3045
  487MOL0     C65624   5.277   9.042   3.989 -0.3652  0.9132 -0.6351
  487MOL0     C65625   5.148   9.103   4.024  0.0739 -0.0288 -0.3427
  487MOL0     C65626   5.034   9.010   4.067  0.6087  0.0454 -0.6061
  487MOL0     N65627   4.902   9.083   4.069 -0.2640 -0.2600 -0.0530
  487MOL0     C65628   4.837   9.122   4.191  0.4461  0.2975  0.9062
  487MOL0     C65629   4.715   9.155   4.149 -0.0790 -1.1584 -0.5502
  487MOL0     C65630   4.604   9.211   4.234 -0.1800 -0.3983  1.0395
  487MOL0     C65631   4.532   9.100   4.305 -0.7109  0.6239  0.7641
  487MOL0     C65632   4.439   9.147   4.421  0.3148  0.2973 -0.2872
  487MOL0     C65633   4.322   9.227   4.377  0.6359 -0.3033 -0.5550
  487MOL0     O65634   4.251   9.285   4.492 -0.3248 -0.2401 -0.2403
  487MOL0     C65635   4.131   9.345   4.487  0.4544 -1.2005  0.8047
  487MOL0     C65636   4.092   9.409   4.604  0.5397 -0.6623  1.0199
  487MOL0     C65637   3.966   9.476   4.609  0.2393 -1.2691  0.5848
  487MOL0     C65638   3.941   9.551   4.741  0.3344  0.9307  0.4465
  487MOL0     C65639   3.887   9.482   4.491 -0.0069  0.5506  0.4045
  487MOL0     C65640   3.760   9.556   4.489  0.1435 -0.4201 -0.0352
  487MOL0     O65641   3.709   9.601   4.372 -0.6754 -0.3730 -0.7200
  487MOL0     C65642   3.588   9.663   4.361 -0.3086  1.1926 -0.4071
  487MOL0     C65643   3.567   9.784   4.420  0.6818  0.2061  1.0242
  487MOL0     C65644   3.451   9.852   4.388  0.0097 -0.7667 -0.6373
  487MOL0     C65645   3.356   9.800   4.296  0.2602  0.5530  0.0668
  487MOL0     O65646   3.248   9.877   4.244 -0.3842 -0.0281 -0.1480
  487MOL0     C65647   3.247  10.022   4.265 -0.4895  0.5567 -0.0430
  487MOL0     C65648   3.131  10.083   4.184  0.5073 -0.0023  0.0090
  487MOL0     C65649   3.134  10.235   4.184 -0.7183  0.2746  0.4327
  487MOL0     C65650   3.028  10.282   4.087 -0.1153  0.6878 -0.7246
  487MOL0     C65651   3.024  10.432   4.048  0.3638 -0.4178 -0.2792
  487MOL0     C65652   2.971  10.526   4.162 -0.6935  0.5558  0.1250
  487MOL0     C65653   2.816  10.558   4.159  0.2387 -1.0885 -0.7809
  487MOL0     C65654   2.769  10.668   4.255  0.0542  0.8561  0.0935
  487MOL0    Cl65655   2.789  10.596   4.422  0.2537 -0.1435 -0.0734
  487MOL0     C65656   3.380   9.676   4.243  0.2131 -0.2187 -0.1209
  487MOL0     C65657   3.492   9.601   4.281  0.0928  0.0680 -0.0070
  487MOL0     O65658   3.694   9.561   4.592 -0.4697 -0.3064 -0.0423
  487MOL0     C65659   3.936   9.426   4.367 -0.3904 -0.7658  0.9008
  487MOL0     C65660   4.061   9.358   4.369 -0.1468 -0.5369  0.2056
  487MOL0     N65661   4.718   9.156   4.013 -0.3252 -0.3881  0.6379
  487MOL0     N65662   4.828   9.108   3.961  0.2236 -0.2845  0.9377
  487MOL0     C65663   5.975   8.914   3.437  0.2845  0.6341 -0.3441
  487MOL0     C65664   6.061   8.991   3.361 -0.8761  0.3711 -1.2866
  487MOL0     C65665   6.280   9.198   3.056  0.1603  0.0755  0.1206
  487MOL0     C65666   6.319   9.329   3.103  0.3334 -0.2297  0.2381
  487MOL0     C65667   6.405   9.404   3.027  0.0296  0.3389  0.9897
  487MOL0     C65668   6.466   9.357   2.907 -0.1455 -0.5856 -0.1095
  487MOL0     O65669   6.554   9.418   2.829 -0.0871 -0.5496 -0.8031
  487MOL0     C65670   6.589   9.553   2.876 -0.2414  0.2119 -0.5510
  487MOL0     C65671   6.676   9.627   2.770  0.2475  0.6182  0.2483
  487MOL0     C65672   6.780   9.532   2.715 -0.3332  0.2092  0.4023
  487MOL0     C65673   6.895   9.604   2.642  0.6933 -0.2738 -0.4030
  487MOL0     C65674   7.017   9.516   2.642  0.3094  0.4668  0.2468
  487MOL0     C65675   7.124   9.464   2.624  0.0161  0.2737 -0.4930
  487MOL0     C65676   6.422   9.227   2.864  0.3240 -0.1691  0.5751
  487MOL0     C65677   6.333   9.150   2.933 -0.1675  0.0224  0.5227
  487MOL0     H65678   5.838   9.236   3.270 -0.6816  0.2085  1.7260
  487MOL0     H65679   5.696   9.094   3.396 -1.0346  0.7246 -0.6272
  487MOL0     H65680   5.669   9.006   3.628  0.2541 -0.2051  1.3708
  487MOL0     H65681   5.570   8.955   3.487 -1.0218  1.2628  1.9053
  487MOL0     H65682   5.561   8.739   3.563  1.0680 -0.3948  0.7818
  487MOL0     H65683   5.616   8.785   3.731  0.1058 -0.9546  0.2075
  487MOL0     H65684   5.376   8.939   3.607  0.9963  0.6503 -0.3859
  487MOL0     H65685   5.354   8.782   3.685  0.0688  0.1083 -0.0925
  487MOL0     H65686   5.455   8.879   3.889 -1.8609 -2.3826  0.2511
  487MOL0     H65687   5.478   9.034   3.809  1.2537 -1.7510 -2.7134
  487MOL0     H65688   5.238   9.075   3.776  2.0928  0.9900 -0.0654
  487MOL0     H65689   5.190   8.925   3.836 -1.2875  0.8874  1.6261
  487MOL0     H65690   5.297   8.956   4.053 -1.0455  0.9371 -0.3871
  487MOL0     H65691   5.365   9.104   4.008  0.3004 -0.6477  1.8211
  487MOL0     H65692   5.171   9.178   4.101 -0.3433  0.0007 -0.2465
  487MOL0     H65693   5.119   9.160   3.934 -0.3903 -0.4860 -0.4845
  487MOL0     H65694   5.057   8.966   4.164  1.4717  0.7863 -0.4697
  487MOL0     H65695   5.011   8.929   3.997 -0.7710  1.7370 -2.2455
  487MOL0     H65696   4.874   9.131   4.292  2.1713  1.8871  0.1792
  487MOL0     H65697   4.649   9.277   4.310 -1.7637 -0.6567  2.2487
  487MOL0     H65698   4.536   9.272   4.174 -1.4910 -1.5550  1.3093
  487MOL0     H65699   4.606   9.032   4.349  2.6600  1.0622 -3.6056
  487MOL0     H65700   4.486   9.042   4.224  2.8490 -1.2527 -0.0950
  487MOL0     H65701   4.501   9.194   4.498 -1.8476 -0.1186  1.8443
  487MOL0     H65702   4.396   9.058   4.467 -0.3475 -0.3525 -2.0920
  487MOL0     H65703   4.259   9.172   4.306 -0.6202  1.9323 -1.2710
  487MOL0     H65704   4.359   9.312   4.320  0.5236  0.6366  0.7200
  487MOL0     H65705   4.136   9.381   4.699 -1.4950 -1.6038  1.7401
  487MOL0     H65706   3.887   9.646   4.733 -1.9783 -0.2983  0.3013
  487MOL0     H65707   3.879   9.477   4.793  0.5243 -0.6071 -1.3996
  487MOL0     H65708   4.031   9.571   4.800  1.2029 -1.5075  0.0560
  487MOL0     H65709   3.643   9.821   4.488 -0.4622  2.8788  0.9497
  487MOL0     H65710   3.439   9.947   4.438 -0.8144 -0.6946 -0.9590
  487MOL0     H65711   3.239  10.044   4.371 -1.3297 -0.9162  0.2339
  487MOL0     H65712   3.341  10.054   4.219  0.7326 -1.9318  0.5407
  487MOL0     H65713   3.132  10.044   4.081  1.9247 -2.6569  0.9401
  487MOL0     H65714   3.035  10.054   4.228 -0.8481  2.6277 -0.9606
  487MOL0     H65715   3.235  10.272   4.165  0.8874 -3.8219  0.0417
  487MOL0     H65716   3.107  10.268   4.285 -2.6097  0.2244 -0.0111
  487MOL0     H65717   3.035  10.227   3.992 -0.8635 -0.1051 -0.3277
  487MOL0     H65718   2.932  10.258   4.133  0.7138 -0.1168  0.6567
  487MOL0     H65719   2.958  10.437   3.961 -1.3572  0.2964  1.0068
  487MOL0     H65720   3.120  10.471   4.014  1.1444  0.4076  2.6230
  487MOL0     H65721   2.990  10.485   4.261  1.0620  1.8090  0.3488
  487MOL0     H65722   3.030  10.618   4.161 -1.3784  1.0246  1.0217
  487MOL0     H65723   2.756  10.471   4.186  0.3774 -0.3140  2.5307
  487MOL0     H65724   2.799  10.591   4.056  1.7945 -2.5759 -1.5706
  487MOL0     H65725   2.668  10.708   4.242 -0.2975 -0.4133 -1.4047
  487MOL0     H65726   2.840  10.751   4.250  1.2526  0.0648  2.4882
  487MOL0     H65727   3.305   9.644   4.172  0.1411  2.4789 -1.3727
  487MOL0     H65728   3.522   9.510   4.230 -1.9091  1.1835 -3.4938
  487MOL0     H65729   3.871   9.415   4.281 -1.3821 -3.3332  1.8715
  487MOL0     H65730   4.099   9.317   4.276 -2.9401 -1.5396 -0.5931
  487MOL0     H65731   5.998   8.815   3.473 -1.6928 -0.2193 -1.2833
  487MOL0     H65732   6.166   8.965   3.350  0.2336  3.5441  0.5593
  487MOL0     H65733   6.275   9.362   3.197 -5.4592  0.5138 -2.2832
  487MOL0     H65734   6.443   9.498   3.067 -2.7432  3.0229 -2.0104
  487MOL0     H65735   6.509   9.621   2.908  0.6322  1.7397 -1.4716
  487MOL0     H65736   6.641   9.554   2.973  0.0547 -0.6553 -0.6928
  487MOL0     H65737   6.719   9.718   2.812  2.3119 -1.5559  3.2817
  487MOL0     H65738   6.614   9.654   2.684 -1.7025 -1.8713  0.7556
  487MOL0     H65739   6.732   9.467   2.640  3.2345 -1.4123 -0.6857
  487MOL0     H65740   6.811   9.468   2.797 -1.5523  0.5915  1.2007
  487MOL0     H65741   6.920   9.705   2.677  0.4166 -0.9984  2.0552
  487MOL0     H65742   6.850   9.609   2.543 -2.4708  0.3613  0.9644
  487MOL0     H65743   7.219   9.414   2.620  0.4972  1.1526 -0.5067
  487MOL0     H65744   6.440   9.200   2.760 -1.4724 -3.7859  1.0344
  487MOL0     H65745   6.316   9.054   2.885  1.2795 -1.2617  2.4449
  488MOL0     O65746   4.979   2.741  10.331  0.2322 -0.2121  0.0864
  488MOL0     C65747   5.041   2.704  10.434 -0.2256 -0.1951  0.5483
  488MOL0     O65748   4.987   2.663  10.552  0.1493 -0.0907  0.5107
  488MOL0     C65749   4.851   2.683  10.564 -0.3608 -0.1066  0.8586
  488MOL0     C65750   4.754   2.606  10.493 -0.6629 -1.2856 -0.3283
  488MOL0     C65751   4.614   2.649  10.495  0.1670  0.4753 -0.5063
  488MOL0     C65752   4.575   2.754  10.577 -0.5071  0.0331 -0.0051
  488MOL0     O65753   4.442   2.782  10.593 -1.0738  0.0117 -0.4118
  488MOL0     C65754   4.342   2.738  10.507 -0.7201  0.7251  0.4966
  488MOL0     C65755   4.205   2.789  10.551 -0.2203 -0.3820  0.4709
  488MOL0     C65756   4.101   2.686  10.494  0.2608  0.5367  0.0337
  488MOL0     C65757   3.957   2.745  10.484 -0.5836 -0.1977 -1.4877
  488MOL0     C65758   3.884   2.750  10.610 -0.9793 -0.8267  0.2234
  488MOL0     C65759   3.750   2.816  10.592  0.2180 -0.6528  0.3385
  488MOL0     C65760   3.700   2.856  10.729 -0.9496  0.0919  0.1401
  488MOL0     C65761   3.578   2.944  10.729 -1.0923 -0.1958  0.2172
  488MOL0     N65762   3.546   3.017  10.852 -0.5291 -0.5413 -0.7052
  488MOL0     C65763   3.413   3.039  10.891  0.5784 -0.4632  0.1363
  488MOL0     C65764   3.415   3.148  10.972 -0.1092 -0.3294  0.5532
  488MOL0     C65765   3.282   3.196  11.035 -0.3611 -0.7307 -1.0498
  488MOL0     C65766   3.198   3.267  10.930  0.5674 -0.6136 -0.3458
  488MOL0     C65767   3.058   3.273  10.985 -1.0452  0.2365  0.2949
  488MOL0     C65768   2.954   3.322  10.880 -0.0909 -0.8044  1.0228
  488MOL0     O65769   2.821   3.304  10.928  0.2048  0.0588 -0.1389
  488MOL0     C65770   2.769   3.182  10.935  0.0211 -0.1737  0.6456
  488MOL0     C65771   2.813   3.056  10.884  0.7687 -0.2485 -0.2551
  488MOL0     C65772   2.743   2.939  10.907  0.5971 -0.1739  0.0370
  488MOL0     C65773   2.810   2.818  10.831  0.2791 -0.9086 -0.3915
  488MOL0     C65774   2.621   2.944  10.984  0.3684  0.2570  1.0974
  488MOL0     C65775   2.558   2.806  11.022  0.8350 -0.9949 -0.2383
  488MOL0     O65776   2.573   2.694  10.943  0.5489  0.4523 -0.2019
  488MOL0     C65777   2.480   2.592  10.961 -0.3720 -0.2936  0.4541
  488MOL0     C65778   2.389   2.596  10.857  0.3006 -0.5795  0.3582
  488MOL0     C65779   2.286   2.503  10.859 -0.3912  0.2215  0.2166
  488MOL0     C65780   2.283   2.399  10.956 -0.3317 -0.2234  0.0320
  488MOL0     O65781   2.178   2.321  10.945 -0.3049 -0.1028  0.2936
  488MOL0     C65782   2.212   2.185  10.901  0.8181  0.4999  0.2168
  488MOL0     C65783   2.088   2.086  10.906 -0.5353  0.0115  0.2495
  488MOL0     C65784   2.019   2.101  11.041 -0.3429 -1.1483 -0.2902
  488MOL0     C65785   1.914   1.989  11.071 -0.0895 -0.3396  0.3513
  488MOL0     C65786   1.855   2.003  11.211  0.3582  0.1256  0.1072
  488MOL0     C65787   1.750   2.114  11.224 -0.8170 -0.3491 -0.0180
  488MOL0     C65788   1.634   2.069  11.319 -0.2405  0.1950  0.6806
  488MOL0     C65789   1.654   2.108  11.470  0.6260 -0.2281  0.3001
  488MOL0    Cl65790   1.510   2.027  11.543 -0.4712 -0.4028  0.1383
  488MOL0     C65791   2.396   2.389  11.038  0.9390 -0.0022  0.2863
  488MOL0     C65792   2.492   2.487  11.051 -0.5761 -0.6958 -0.1237
  488MOL0     O65793   2.483   2.804  11.121  0.2649  0.4891 -0.6943
  488MOL0     C65794   2.577   3.067  11.025  0.1047 -0.7202  0.1821
  488MOL0     C65795   2.649   3.185  10.993  0.9138 -0.3274 -0.3957
  488MOL0     N65796   3.547   3.197  10.968  0.7684  0.5417 -0.3216
  488MOL0     N65797   3.628   3.114  10.902  0.6937 -0.1257  0.5743
  488MOL0     C65798   4.669   2.820  10.655 -0.2596 -0.0327 -0.4137
  488MOL0     C65799   4.808   2.788  10.645 -0.1703  0.4605  0.3398
  488MOL0     C65800   5.183   2.685  10.414  0.3096 -0.3426 -0.4310
  488MOL0     C65801   5.268   2.646  10.518 -0.4987 -0.0488 -1.3437
  488MOL0     C65802   5.405   2.622  10.506 -0.1384  0.6812  0.6781
  488MOL0     C65803   5.463   2.630  10.381 -0.3451  0.3493 -0.1645
  488MOL0     O65804   5.597   2.605  10.354  1.3438  0.3268  0.5341
  488MOL0     C65805   5.698   2.663  10.440 -0.6315  0.3916 -0.3692
  488MOL0     C65806   5.699   2.820  10.425  0.4738 -0.4120 -0.5305
  488MOL0     C65807   5.759   2.892  10.554  0.0221 -0.3811  0.7023
  488MOL0     C65808   5.768   3.038  10.522  0.0132  0.1771  0.6967
  488MOL0     C65809   5.802   3.102  10.658  0.2328  0.9941  0.4615
  488MOL0     C65810   5.853   3.132  10.760 -0.6508  0.0482 -0.0810
  488MOL0     C65811   5.375   2.666  10.272 -1.1254 -0.2097 -0.2443
  488MOL0     C65812   5.243   2.698  10.290 -0.3207  0.4247  0.1712
  488MOL0     H65813   4.803   2.519  10.451 -0.8804 -2.7978  2.3534
  488MOL0     H65814   4.537   2.599  10.437 -1.3233  2.8239 -0.6768
  488MOL0     H65815   4.356   2.768  10.403 -0.3565  0.0178  0.3311
  488MOL0     H65816   4.346   2.628  10.508  0.0527  0.7470  1.2140
  488MOL0     H65817   4.197   2.778  10.659 -1.7006 -2.7417  0.1943
  488MOL0     H65818   4.182   2.889  10.511 -3.9947 -1.6335 -0.9734
  488MOL0     H65819   4.129   2.650  10.394 -1.6561  1.2596 -0.8095
  488MOL0     H65820   4.102   2.597  10.558 -0.3958  1.0612  0.7866
  488MOL0     H65821   3.969   2.845  10.442 -1.6024  1.4143  1.7562
  488MOL0     H65822   3.900   2.691  10.407 -1.2702 -0.0414 -1.0947
  488MOL0     H65823   3.876   2.648  10.650 -1.7868 -1.0092 -0.3788
  488MOL0     H65824   3.950   2.810  10.673  1.9818 -1.8626 -1.6521
  488MOL0     H65825   3.759   2.911  10.538 -2.3604  1.0208  2.5529
  488MOL0     H65826   3.683   2.740  10.551  0.8356 -1.8869  1.5653
  488MOL0     H65827   3.683   2.763  10.785  1.6370 -0.7085 -0.2710
  488MOL0     H65828   3.786   2.909  10.771  1.3095 -1.8852 -1.6923
  488MOL0     H65829   3.502   2.867  10.717 -2.0837  0.6952  0.6630
  488MOL0     H65830   3.573   3.013  10.644 -0.9287  1.4183  1.4809
  488MOL0     H65831   3.323   2.981  10.872  2.3920 -3.6267  0.6265
  488MOL0     H65832   3.225   3.116  11.085 -0.3077  0.8433  1.7404
  488MOL0     H65833   3.318   3.269  11.107  1.9708 -0.2269 -2.6385
  488MOL0     H65834   3.188   3.204  10.840  0.8500 -0.5382 -0.4311
  488MOL0     H65835   3.239   3.365  10.907 -1.4068  0.9536  2.2828
  488MOL0     H65836   3.048   3.334  11.075 -1.1996  0.0376  0.4142
  488MOL0     H65837   3.024   3.176  11.022  0.4531  0.1135  1.4602
  488MOL0     H65838   2.979   3.264  10.791  0.1641  0.7260  0.0704
  488MOL0     H65839   2.970   3.427  10.857  0.8191 -0.9448  0.9821
  488MOL0     H65840   2.900   3.064  10.819  1.8928  2.3045  1.4210
  488MOL0     H65841   2.902   2.840  10.775  1.5541 -0.5413  1.7436
  488MOL0     H65842   2.835   2.738  10.902  1.0453 -1.0589 -0.8224
  488MOL0     H65843   2.741   2.762  10.767 -0.6091 -0.4325  0.1404
  488MOL0     H65844   2.378   2.681  10.790 -1.1109  0.6559  2.0783
  488MOL0     H65845   2.218   2.499  10.774 -0.0018 -1.1989 -0.0477
  488MOL0     H65846   2.241   2.181  10.795  0.9842 -0.8042  0.2946
  488MOL0     H65847   2.281   2.142  10.974 -1.1681 -0.0564  1.8515
  488MOL0     H65848   2.016   2.114  10.829  0.5140 -0.6095 -0.9903
  488MOL0     H65849   2.113   1.982  10.882  0.3806  0.6545 -1.7962
  488MOL0     H65850   1.972   2.199  11.050  0.9360 -0.5866  0.6578
  488MOL0     H65851   2.082   2.093  11.131 -2.3616 -3.7414  1.0471
  488MOL0     H65852   1.835   1.999  10.996  0.7065  1.7044 -0.2723
  488MOL0     H65853   1.961   1.891  11.057  0.4923 -0.3579  2.1380
  488MOL0     H65854   1.932   2.026  11.285  2.4811  2.7809 -2.6524
  488MOL0     H65855   1.818   1.902  11.231  1.4498 -0.2317  0.4254
  488MOL0     H65856   1.799   2.203  11.263  0.7556 -1.4836  0.7102
  488MOL0     H65857   1.692   2.130  11.132 -0.8561  0.9634  0.2111
  488MOL0     H65858   1.605   1.965  11.302 -1.5705  0.4965  1.0312
  488MOL0     H65859   1.543   2.124  11.294 -0.8392 -0.3267  1.6374
  488MOL0     H65860   1.654   2.217  11.476  3.0451  0.0540 -2.4654
  488MOL0     H65861   1.751   2.079  11.511  0.2920  0.8657  1.9836
  488MOL0     H65862   2.402   2.315  11.118 -1.4643  1.5157  1.9951
  488MOL0     H65863   2.576   2.492  11.120 -0.1071  1.8764 -0.7796
  488MOL0     H65864   2.489   3.083  11.085 -0.4798  1.3315 -1.1201
  488MOL0     H65865   2.616   3.282  11.031  2.5261  0.4072 -0.7777
  488MOL0     H65866   4.638   2.902  10.719 -1.1887  0.9742 -2.0602
  488MOL0     H65867   4.890   2.839  10.696  0.1155  0.7693 -0.4083
  488MOL0     H65868   5.219   2.629  10.614 -1.7126  0.8726 -1.7656
  488MOL0     H65869   5.459   2.595  10.596 -0.3159  2.7950  1.4965
  488MOL0     H65870   5.682   2.643  10.547  1.2023  1.6687  0.1870
  488MOL0     H65871   5.795   2.624  10.409 -0.1323  2.4570 -1.5887
  488MOL0     H65872   5.594   2.853  10.419  0.2912 -0.4515  1.5757
  488MOL0     H65873   5.761   2.842  10.338  0.8895 -1.9155 -0.6366
  488MOL0     H65874   5.857   2.848  10.573  0.3014 -0.1923 -0.2296
  488MOL0     H65875   5.683   2.880  10.631 -1.9327 -0.0221 -1.0741
  488MOL0     H65876   5.670   3.073  10.489 -0.0238 -0.7473 -0.2346
  488MOL0     H65877   5.844   3.055  10.446 -0.0978 -0.8148  0.3564
  488MOL0     H65878   5.900   3.146  10.855  0.3760 -1.3380 -0.3505
  488MOL0     H65879   5.412   2.665  10.170 -1.1505  2.2420 -0.3320
  488MOL0     H65880   5.182   2.725  10.204  2.0970 -2.9447 -2.9045
  489MOL0     O65881   0.400   0.924   9.324 -0.5548  0.3667 -0.0150
  489MOL0     C65882   0.374   0.805   9.320 -0.7232 -0.0983 -0.2739
  489MOL0     O65883   0.247   0.745   9.320 -0.2133  0.2250  0.4869
  489MOL0     C65884   0.138   0.831   9.338  0.3463 -0.6833  0.6205
  489MOL0     C65885   0.131   0.927   9.440 -0.5431  0.0236  0.7235
  489MOL0     C65886   0.022   1.010   9.458  0.3687 -0.4492 -0.4393
  489MOL0     C65887  -0.079   1.008   9.364  0.6374 -0.8826 -0.3590
  489MOL0     O65888  -0.172   1.100   9.386 -0.2676 -0.3051 -0.4866
  489MOL0     C65889  -0.303   1.086   9.337  0.4464  0.2809 -0.0134
  489MOL0     C65890  -0.360   0.965   9.407  0.1157  0.4752 -0.5651
  489MOL0     C65891  -0.511   0.991   9.443 -0.1026 -0.3978  0.3250
  489MOL0     C65892  -0.600   0.864   9.429 -0.1999 -0.2918 -0.1370
  489MOL0     C65893  -0.742   0.884   9.476  0.7075  0.7399 -0.5996
  489MOL0     C65894  -0.836   0.756   9.467 -0.3761 -0.1050  0.0278
  489MOL0     C65895  -0.959   0.777   9.551  0.3137 -0.4345  0.2650
  489MOL0     C65896  -1.054   0.659   9.546 -0.1114  0.5159 -0.5501
  489MOL0     N65897  -1.179   0.697   9.622  0.1118  0.1407 -0.4100
  489MOL0     C65898  -1.307   0.679   9.569 -0.6988  0.8012 -0.7049
  489MOL0     C65899  -1.382   0.702   9.672  0.0511  0.2933 -0.4696
  489MOL0     C65900  -1.528   0.729   9.686 -0.5762  0.0521  0.3480
  489MOL0     C65901  -1.559   0.882   9.691 -1.2434  0.3299 -0.5503
  489MOL0     C65902  -1.699   0.929   9.728  0.6391  0.4244 -0.6571
  489MOL0     C65903  -1.693   1.050   9.833  0.4278  0.0326  0.0921
  489MOL0     O65904  -1.735   1.004   9.961  0.1407 -0.0688  0.2506
  489MOL0     C65905  -1.871   0.975   9.989  0.3862 -0.4862 -0.5693
  489MOL0     C65906  -1.900   0.927  10.114 -0.1411  0.4845  0.4726
  489MOL0     C65907  -2.029   0.884  10.150  0.4000 -0.3775 -0.2054
  489MOL0     C65908  -2.050   0.876  10.301  0.1974  0.5521  0.7051
  489MOL0     C65909  -2.138   0.890  10.063  0.8718 -0.1654  0.2013
  489MOL0     C65910  -2.276   0.864  10.102  0.5174 -0.7476 -0.0673
  489MOL0     O65911  -2.370   0.930  10.024 -0.8214  0.6198 -0.0032
  489MOL0     C65912  -2.502   0.944  10.052  0.4869  0.9698  0.1975
  489MOL0     C65913  -2.579   0.987   9.946  0.1237  0.1776 -0.4384
  489MOL0     C65914  -2.716   0.996   9.957  0.2364 -0.5152 -0.1085
  489MOL0     C65915  -2.783   0.979  10.080  0.2614  0.2351  0.1306
  489MOL0     O65916  -2.913   1.009  10.108 -0.1245  0.5044  0.1882
  489MOL0     C65917  -3.005   1.002   9.996 -0.1916 -0.3041  0.3807
  489MOL0     C65918  -3.146   1.037  10.042  0.0481  0.4614  0.3880
  489MOL0     C65919  -3.188   0.974  10.176  0.1608  0.5150 -0.4785
  489MOL0     C65920  -3.341   0.959  10.174  0.5586  0.4093  0.5603
  489MOL0     C65921  -3.392   0.901  10.309  0.5226 -0.5588  0.2393
  489MOL0     C65922  -3.539   0.880  10.302  0.3054 -0.3644  0.1295
  489MOL0     C65923  -3.593   0.869  10.444  0.8304  0.3013  0.1785
  489MOL0     C65924  -3.738   0.912  10.448  0.4954 -0.2807 -0.5735
  489MOL0    Cl65925  -3.849   0.813  10.349 -0.3460 -0.1877  0.2264
  489MOL0     C65926  -2.695   0.954  10.183 -0.3460 -0.7318 -0.3573
  489MOL0     C65927  -2.563   0.933  10.176 -0.8778 -0.1919 -0.0355
  489MOL0     O65928  -2.297   0.788  10.196 -0.2156 -1.0868  0.3008
  489MOL0     C65929  -2.108   0.934   9.936 -0.9949 -0.2434 -0.1044
  489MOL0     C65930  -1.981   0.977   9.900  0.1070 -0.9255  0.4190
  489MOL0     N65931  -1.310   0.728   9.780 -0.2007 -0.5191  0.1687
  489MOL0     N65932  -1.186   0.716   9.757  0.4100 -0.6279 -0.2658
  489MOL0     C65933  -0.076   0.922   9.263 -0.7024 -0.2077  1.5868
  489MOL0     C65934   0.027   0.823   9.252  0.4948 -0.1010 -0.1393
  489MOL0     C65935   0.492   0.718   9.313 -0.3591 -0.8183 -0.1209
  489MOL0     C65936   0.479   0.580   9.329 -0.4595  0.3585  0.4546
  489MOL0     C65937   0.587   0.493   9.331 -1.0872 -0.3270  0.0438
  489MOL0     C65938   0.719   0.549   9.335  0.7714  0.1862  0.3241
  489MOL0     O65939   0.830   0.461   9.356  0.1225 -0.6577  0.3757
  489MOL0     C65940   0.957   0.523   9.363  0.2275  0.4265  0.0100
  489MOL0     C65941   1.069   0.409   9.370  1.2103 -0.2119  0.1391
  489MOL0     C65942   1.057   0.298   9.263 -0.7973  0.0503 -0.1389
  489MOL0     C65943   1.163   0.187   9.306 -0.5883 -0.2154 -0.2203
  489MOL0     C65944   1.147   0.073   9.217 -0.9230 -0.1357  0.4720
  489MOL0     C65945   1.161  -0.021   9.138  0.1114  0.5834  0.3344
  489MOL0     C65946   0.733   0.688   9.323 -0.8842  0.5070 -0.5485
  489MOL0     C65947   0.622   0.766   9.315  0.1160  0.4170  0.4927
  489MOL0     H65948   0.216   0.942   9.506  2.0232  0.8755 -2.5131
  489MOL0     H65949   0.020   1.090   9.532 -0.8317  0.5844 -1.5330
  489MOL0     H65950  -0.360   1.178   9.355 -0.8745 -0.8127  1.6960
  489MOL0     H65951  -0.298   1.068   9.229  0.2134 -3.3474  0.4603
  489MOL0     H65952  -0.344   0.882   9.338 -0.1749  2.1511 -2.7234
  489MOL0     H65953  -0.311   0.951   9.504  0.1566  0.3097 -0.6091
  489MOL0     H65954  -0.517   1.012   9.550 -2.8851 -0.6055  0.2904
  489MOL0     H65955  -0.553   1.071   9.381 -1.0549  1.6778  3.4461
  489MOL0     H65956  -0.599   0.829   9.325  0.5385 -0.8953  0.0615
  489MOL0     H65957  -0.566   0.786   9.497 -2.9678 -0.8913  0.6879
  489MOL0     H65958  -0.749   0.929   9.576  5.0614  0.9788 -0.2439
  489MOL0     H65959  -0.783   0.960   9.408  2.7515  0.5903 -2.0988
  489MOL0     H65960  -0.860   0.735   9.362  0.3083 -0.7777  0.0008
  489MOL0     H65961  -0.787   0.666   9.505 -2.0023 -0.2816  1.8911
  489MOL0     H65962  -0.920   0.778   9.653 -0.0041  1.1285  0.3916
  489MOL0     H65963  -1.009   0.871   9.526 -2.7815 -2.3350 -1.3442
  489MOL0     H65964  -1.001   0.577   9.595  2.7457  2.2369 -0.5176
  489MOL0     H65965  -1.067   0.643   9.439 -0.3220  0.8312 -0.5752
  489MOL0     H65966  -1.335   0.653   9.467  0.7668 -0.4000 -0.8260
  489MOL0     H65967  -1.579   0.673   9.607  0.3979 -0.0688 -0.2119
  489MOL0     H65968  -1.569   0.685   9.778 -0.1743 -2.0065 -0.3905
  489MOL0     H65969  -1.538   0.927   9.594  2.8576  0.9138  0.4153
  489MOL0     H65970  -1.483   0.913   9.764  0.3672 -1.4109 -1.4294
  489MOL0     H65971  -1.748   0.842   9.774 -0.0781 -0.1242 -2.3490
  489MOL0     H65972  -1.759   0.958   9.641  0.9654  0.6069 -0.8223
  489MOL0     H65973  -1.772   1.121   9.804  0.5631  0.1044 -0.1109
  489MOL0     H65974  -1.596   1.100   9.829  0.6494 -0.3680  0.5025
  489MOL0     H65975  -1.825   0.909  10.190 -1.8655 -2.6396  1.6221
  489MOL0     H65976  -1.956   0.896  10.353 -1.0548  1.2349  2.8118
  489MOL0     H65977  -2.118   0.957  10.331  0.0780  1.0195 -0.7137
  489MOL0     H65978  -2.097   0.783  10.335  0.5854  0.5584  1.2509
  489MOL0     H65979  -2.524   1.009   9.855  1.1675 -0.8272 -0.0788
  489MOL0     H65980  -2.767   1.028   9.867 -0.4067  0.6475  0.6450
  489MOL0     H65981  -2.971   1.066   9.915  1.4767 -0.7274  0.6958
  489MOL0     H65982  -3.011   0.902   9.952  2.7639  0.7144 -2.7400
  489MOL0     H65983  -3.160   1.145  10.044  4.2463  1.1773 -0.5572
  489MOL0     H65984  -3.206   0.995   9.960 -1.0164  0.4530  1.1598
  489MOL0     H65985  -3.155   1.035  10.261  0.9480  0.1221 -0.4965
  489MOL0     H65986  -3.140   0.877  10.192  0.7283  0.8603 -0.0203
  489MOL0     H65987  -3.380   1.061  10.160  2.5176  1.4770  2.2038
  489MOL0     H65988  -3.377   0.895  10.094 -1.4933  1.2720  0.7403
  489MOL0     H65989  -3.364   0.967  10.391 -0.2749 -1.4960  1.2885
  489MOL0     H65990  -3.344   0.805  10.328  0.6873 -0.4362  0.4415
  489MOL0     H65991  -3.576   0.970  10.252  1.6759 -1.4292 -3.1361
  489MOL0     H65992  -3.565   0.792  10.242 -2.4583  3.0736 -4.3872
  489MOL0     H65993  -3.532   0.914  10.523  3.1997 -1.6879 -0.3792
  489MOL0     H65994  -3.596   0.761  10.458  0.2629  0.0428 -1.6131
  489MOL0     H65995  -3.743   1.017  10.417 -0.8121  0.3146  1.4866
  489MOL0     H65996  -3.765   0.891  10.552  2.2510  0.5083  0.0768
  489MOL0     H65997  -2.753   0.933  10.272 -0.9124  0.7014 -0.3492
  489MOL0     H65998  -2.498   0.928  10.263 -0.3500 -0.7007 -0.4510
  489MOL0     H65999  -2.180   0.930   9.855  0.5996  1.8943 -1.7414
  489MOL0     H66000  -1.962   1.002   9.796 -1.0385  2.4545  0.8981
  489MOL0     H66001  -0.151   0.916   9.185  0.5351 -2.0272  0.4467
  489MOL0     H66002   0.032   0.741   9.180  5.0479 -0.4526  0.3156
  489MOL0     H66003   0.379   0.539   9.343 -0.7401  0.5895 -0.7394
  489MOL0     H66004   0.568   0.386   9.334  1.9949 -0.9891 -0.5512
  489MOL0     H66005   0.965   0.589   9.276 -0.7886 -1.9505 -2.0103
  489MOL0     H66006   0.967   0.596   9.444 -1.2263 -1.0891  1.6393
  489MOL0     H66007   1.068   0.371   9.472 -0.0063 -1.1898 -0.1997
  489MOL0     H66008   1.164   0.458   9.345 -0.0847  2.4846  0.1004
  489MOL0     H66009   1.084   0.336   9.164 -0.5019 -0.2049 -0.1594
  489MOL0     H66010   0.956   0.256   9.265 -0.1605 -1.6111  2.7525
  489MOL0     H66011   1.140   0.157   9.409 -2.0353 -0.8009 -0.6961
  489MOL0     H66012   1.264   0.228   9.290 -1.1692  2.0463  1.3978
  489MOL0     H66013   1.150  -0.100   9.066 -1.3068  1.8746 -0.9586
  489MOL0     H66014   0.831   0.733   9.315  1.2044 -3.3253  1.2267
  489MOL0     H66015   0.629   0.874   9.305 -2.0736  0.4451 -2.0984
  490MOL0     O66016   7.136   2.853  10.085  0.6735  0.4074  0.2165
  490MOL0     C66017   7.187   2.941  10.157  0.1823  0.3991  0.8673
  490MOL0     O66018   7.131   3.063  10.168 -0.3703  0.1382 -0.4409
  490MOL0     C66019   7.000   3.088  10.141 -0.6505 -1.1393 -0.9207
  490MOL0     C66020   6.913   3.029  10.220  0.0793 -0.1593  0.1037
  490MOL0     C66021   6.781   3.066  10.202  0.9254 -0.1005  0.1475
  490MOL0     C66022   6.735   3.138  10.087 -0.1415 -0.5496 -0.2049
  490MOL0     O66023   6.609   3.186  10.069  0.2269 -0.4634 -0.1445
  490MOL0     C66024   6.504   3.098  10.094 -0.2837 -0.7861 -0.3145
  490MOL0     C66025   6.379   3.175  10.053  0.8275  0.5858  0.4111
  490MOL0     C66026   6.248   3.126  10.119 -0.5116  0.2689  0.6427
  490MOL0     C66027   6.125   3.221  10.070 -0.1297 -0.3231 -0.3559
  490MOL0     C66028   6.003   3.215  10.165 -0.1076 -0.8483  0.1938
  490MOL0     C66029   5.868   3.259  10.103  0.2635 -0.3530  0.2731
  490MOL0     C66030   5.743   3.229  10.203 -0.0860 -0.3609  0.2365
  490MOL0     C66031   5.612   3.232  10.118  0.4504  0.0692  0.2227
  490MOL0     N66032   5.496   3.220  10.209 -0.2181  0.4578  0.0807
  490MOL0     C66033   5.457   3.107  10.271  0.5466  0.7416 -0.0225
  490MOL0     C66034   5.380   3.149  10.371  0.5201 -0.7378  0.2736
  490MOL0     C66035   5.298   3.055  10.456 -0.0316  0.9098  0.3267
  490MOL0     C66036   5.158   3.035  10.412  0.3124 -0.7830 -0.4806
  490MOL0     C66037   5.084   3.171  10.366 -0.0912  0.0664  0.7701
  490MOL0     C66038   4.945   3.138  10.337  0.2393 -0.1614 -0.2013
  490MOL0     O66039   4.885   3.254  10.276  0.3663  0.1242 -0.3179
  490MOL0     C66040   4.746   3.269  10.295 -0.1612 -0.1308  0.1750
  490MOL0     C66041   4.670   3.158  10.321  0.1861  0.6938  0.6807
  490MOL0     C66042   4.531   3.174  10.342  0.7141  0.0335 -0.2612
  490MOL0     C66043   4.445   3.049  10.363 -0.1550  0.1577 -0.1970
  490MOL0     C66044   4.474   3.299  10.314 -0.4602 -0.3558 -0.8650
  490MOL0     C66045   4.333   3.333  10.351 -0.5941  0.0087 -0.1800
  490MOL0     O66046   4.270   3.423  10.270  0.2010 -0.3944 -0.9762
  490MOL0     C66047   4.156   3.495  10.298 -0.2842  0.0722  0.4207
  490MOL0     C66048   4.078   3.540  10.196  0.3605 -0.2510  0.0840
  490MOL0     C66049   3.962   3.617  10.217 -0.4699 -0.5272  0.0353
  490MOL0     C66050   3.916   3.643  10.342  0.1309  0.4319 -0.7563
  490MOL0     O66051   3.799   3.714  10.366  0.2436  0.4662  0.1373
  490MOL0     C66052   3.806   3.849  10.329 -0.2967 -0.4970  0.0130
  490MOL0     C66053   3.876   3.950  10.431  0.0993  1.1220 -0.1583
  490MOL0     C66054   3.834   3.943  10.573 -0.2033 -0.5117 -0.6583
  490MOL0     C66055   3.930   4.036  10.655 -1.0339  0.7771  0.1507
  490MOL0     C66056   3.917   4.017  10.804  0.1703 -0.8152  0.0957
  490MOL0     C66057   3.987   4.127  10.874 -0.5562 -0.0847  0.1538
  490MOL0     C66058   3.992   4.121  11.034 -0.5500 -0.2144  0.3445
  490MOL0     C66059   4.012   4.275  11.067  0.2641  0.0214  0.1292
  490MOL0    Cl66060   4.140   4.354  10.965 -0.6504 -0.1371 -0.4486
  490MOL0     C66061   3.986   3.591  10.449  0.3695  0.9279 -0.1582
  490MOL0     C66062   4.108   3.515  10.426  0.5307 -0.3939  0.4944
  490MOL0     O66063   4.277   3.267  10.438 -1.2208 -0.4472 -0.2323
  490MOL0     C66064   4.555   3.411  10.275 -0.0542  0.6216  0.3317
  490MOL0     C66065   4.695   3.397  10.271  0.1916  0.9677  0.3384
  490MOL0     N66066   5.368   3.285  10.368 -0.6205 -0.0005 -0.4497
  490MOL0     N66067   5.434   3.324  10.266 -0.1655 -0.3221 -0.5382
  490MOL0     C66068   6.834   3.196  10.007  0.1252 -0.3114  0.8568
  490MOL0     C66069   6.967   3.169  10.033  0.0948  0.4516  0.0063
  490MOL0     C66070   7.312   2.913  10.232  0.5345  0.2534 -0.0322
  490MOL0     C66071   7.366   2.781  10.247  0.7787  0.3962 -0.2717
  490MOL0     C66072   7.494   2.750  10.299  0.8923 -0.0310  0.4359
  490MOL0     C66073   7.569   2.861  10.349  0.4638  0.1393 -0.4154
  490MOL0     O66074   7.680   2.858  10.436 -0.3392 -0.3349  0.1738
  490MOL0     C66075   7.747   2.730  10.432 -0.3390 -0.1227  0.3739
  490MOL0     C66076   7.891   2.737  10.486 -0.2691  0.6748  0.4725
  490MOL0     C66077   7.929   2.589  10.492  0.3009 -0.6221  0.9184
  490MOL0     C66078   8.082   2.588  10.484  0.3434  0.0020  1.1829
  490MOL0     C66079   8.142   2.576  10.615  0.4831  0.2228 -1.1165
  490MOL0     C66080   8.168   2.559  10.733 -0.3959  0.4398  0.3594
  490MOL0     C66081   7.512   2.993  10.344 -0.7796  0.1940  0.3726
  490MOL0     C66082   7.391   3.012  10.282 -0.1870  0.3397 -0.4538
  490MOL0     H66083   6.924   2.967  10.308  1.7790 -1.5116 -1.0002
  490MOL0     H66084   6.716   3.033  10.282  0.7476  0.0860  0.0788
  490MOL0     H66085   6.514   3.010  10.031 -0.6204 -1.1570  0.1387
  490MOL0     H66086   6.494   3.079  10.202  0.7706 -0.4110 -0.1385
  490MOL0     H66087   6.409   3.278  10.073  2.8927 -0.3323  2.5371
  490MOL0     H66088   6.362   3.162   9.946  1.2345 -1.2379  0.5227
  490MOL0     H66089   6.219   3.021  10.118 -1.4914  0.5206  1.0271
  490MOL0     H66090   6.272   3.138  10.225  1.3796 -1.4160  0.4720
  490MOL0     H66091   6.157   3.325  10.058  1.4688 -0.5958  1.1717
  490MOL0     H66092   6.089   3.178   9.976 -2.1475 -0.0692  0.2402
  490MOL0     H66093   5.983   3.117  10.209 -1.7529 -0.0398  1.3703
  490MOL0     H66094   6.019   3.282  10.250  0.7425 -1.2172  0.3357
  490MOL0     H66095   5.873   3.366  10.081 -1.2777 -0.5483 -1.2566
  490MOL0     H66096   5.857   3.202  10.010  0.9044  1.5046 -0.9996
  490MOL0     H66097   5.740   3.128  10.246 -0.6896 -0.8295 -0.8692
  490MOL0     H66098   5.750   3.294  10.290 -0.4335 -1.0015  0.7555
  490MOL0     H66099   5.613   3.156  10.039  0.2901  0.5202 -0.2208
  490MOL0     H66100   5.598   3.332  10.077 -1.9122 -1.0480 -2.0062
  490MOL0     H66101   5.498   3.010  10.246  0.4940  0.4622  0.9476
  490MOL0     H66102   5.351   2.960  10.458 -0.1464  0.8186 -0.6086
  490MOL0     H66103   5.303   3.093  10.559 -1.5158 -0.5803  0.9865
  490MOL0     H66104   5.100   3.003  10.499  0.2278  0.6165  0.0086
  490MOL0     H66105   5.147   2.965  10.329 -3.8869  1.9104 -2.5573
  490MOL0     H66106   5.114   3.194  10.264 -2.2638 -4.9063 -1.2960
  490MOL0     H66107   5.096   3.252  10.439  3.9643 -0.2284  0.6722
  490MOL0     H66108   4.892   3.130  10.433 -2.7770 -3.6825 -1.8946
  490MOL0     H66109   4.940   3.049  10.274  1.0949  0.4522 -1.1581
  490MOL0     H66110   4.707   3.056  10.319 -2.4824 -0.3314 -0.8539
  490MOL0     H66111   4.509   2.961  10.372 -2.4852 -1.4749  1.7172
  490MOL0     H66112   4.387   3.060  10.455 -0.6586 -0.0140 -0.4934
  490MOL0     H66113   4.378   3.044  10.277 -0.4038  1.6577 -0.1294
  490MOL0     H66114   4.105   3.519  10.093 -3.0310  0.7063 -1.1401
  490MOL0     H66115   3.910   3.674  10.140  1.0056  0.0957 -0.5376
  490MOL0     H66116   3.845   3.860  10.227 -1.6704  0.6501 -0.4198
  490MOL0     H66117   3.700   3.875  10.321 -0.3727  0.6637  3.3472
  490MOL0     H66118   3.983   3.929  10.421  0.2993  2.1455 -0.2440
  490MOL0     H66119   3.863   4.051  10.391 -0.7310  2.0372  2.1990
  490MOL0     H66120   3.844   3.838  10.602  0.0784 -0.3261 -0.0742
  490MOL0     H66121   3.729   3.970  10.586  0.3121  0.9119  0.9334
  490MOL0     H66122   4.032   4.015  10.621 -1.7500 -0.2151 -1.4909
  490MOL0     H66123   3.927   4.140  10.622  2.0986  0.2241 -2.2990
  490MOL0     H66124   3.963   3.922  10.833  0.6727 -1.1059 -1.5932
  490MOL0     H66125   3.815   4.015  10.842  0.5752  4.3011  2.2729
  490MOL0     H66126   4.089   4.106  10.839 -0.8134 -0.7681 -0.2007
  490MOL0     H66127   3.949   4.222  10.835  1.3115  0.9271  0.6911
  490MOL0     H66128   4.069   4.047  11.057  0.6537 -0.0156 -2.6036
  490MOL0     H66129   3.900   4.092  11.085 -1.1435 -0.0561 -0.6331
  490MOL0     H66130   4.034   4.275  11.174 -0.8490 -3.0646  0.4496
  490MOL0     H66131   3.920   4.332  11.052  1.0190  1.2160 -0.1455
  490MOL0     H66132   3.957   3.594  10.553  0.2204 -0.7676 -0.1288
  490MOL0     H66133   4.158   3.464  10.508  0.0610 -2.3714 -0.3853
  490MOL0     H66134   4.511   3.506  10.248  1.1198  1.5175  1.5008
  490MOL0     H66135   4.763   3.463  10.219  1.8212 -1.1314 -0.3361
  490MOL0     H66136   6.803   3.252   9.919  3.2979  0.9212  0.3599
  490MOL0     H66137   7.041   3.209   9.964  0.2922  2.3316  1.2520
  490MOL0     H66138   7.312   2.693  10.214 -1.3983 -0.4932  4.7550
  490MOL0     H66139   7.528   2.648  10.313  0.9335  0.2318  2.6523
  490MOL0     H66140   7.699   2.668  10.508  2.6946 -1.0754  1.6624
  490MOL0     H66141   7.746   2.690  10.330  1.6280 -0.6721  0.5226
  490MOL0     H66142   7.901   2.796  10.577  4.1027  1.5060 -0.3076
  490MOL0     H66143   7.955   2.794  10.418 -0.5610  0.0425 -0.3598
  490MOL0     H66144   7.890   2.534  10.406  2.8776  2.1834 -2.3536
  490MOL0     H66145   7.903   2.542  10.587  1.7801 -2.5334  0.4420
  490MOL0     H66146   8.122   2.673  10.427  0.2925 -1.5967 -1.4343
  490MOL0     H66147   8.124   2.505  10.427 -0.2762  0.6082 -0.2304
  490MOL0     H66148   8.194   2.548  10.836  0.8340  2.0015  0.2533
  490MOL0     H66149   7.561   3.074  10.398 -0.3490 -0.0612  0.3706
  490MOL0     H66150   7.350   3.112  10.289 -3.9823 -1.1333  1.5941
  491MOL0     O66151   7.487   0.521   8.512 -0.4286  0.0697 -0.3328
  491MOL0     C66152   7.566   0.608   8.474 -0.1334 -0.9401 -0.0909
  491MOL0     O66153   7.629   0.693   8.552 -0.0155  0.1231 -0.0512
  491MOL0     C66154   7.597   0.674   8.687  0.7892  0.6084  0.2173
  491MOL0     C66155   7.682   0.609   8.779  0.8465  0.8941 -0.0036
  491MOL0     C66156   7.649   0.607   8.913 -0.5112 -0.3155  1.3988
  491MOL0     C66157   7.533   0.675   8.962 -0.2659  0.1916 -0.0331
  491MOL0     O66158   7.500   0.682   9.100  0.2691  0.2240  0.0638
  491MOL0     C66159   7.546   0.579   9.189  0.1451  0.0738  0.3024
  491MOL0     C66160   7.469   0.561   9.322 -0.2249  0.4674 -0.0649
  491MOL0     C66161   7.323   0.560   9.279 -0.1070  0.4462  1.1861
  491MOL0     C66162   7.236   0.592   9.400 -1.1093 -0.1309  0.9636
  491MOL0     C66163   7.088   0.573   9.379 -0.8740  0.4996 -0.6639
  491MOL0     C66164   7.033   0.657   9.265 -0.3752  0.9683 -0.0982
  491MOL0     C66165   6.885   0.668   9.258  0.8177  0.7073  0.2458
  491MOL0     C66166   6.825   0.734   9.138  0.0525 -0.9982  0.7332
  491MOL0     N66167   6.669   0.745   9.141 -1.1311  0.0860  0.0387
  491MOL0     C66168   6.588   0.677   9.056 -0.0155  0.2512 -0.3318
  491MOL0     C66169   6.466   0.733   9.077 -0.5007 -0.7636  0.2419
  491MOL0     C66170   6.345   0.679   8.997  0.1215 -0.2421 -0.6900
  491MOL0     C66171   6.209   0.709   9.069  0.0949  1.3843  0.6986
  491MOL0     C66172   6.211   0.669   9.220  0.2874 -0.9197  0.5067
  491MOL0     C66173   6.060   0.658   9.259  0.2559 -0.3974 -0.5985
  491MOL0     O66174   6.006   0.532   9.209 -0.6795  0.0448 -0.2795
  491MOL0     C66175   5.879   0.500   9.244  0.2619 -0.7149 -0.3959
  491MOL0     C66176   5.797   0.569   9.335 -0.4519 -0.6182 -0.8005
  491MOL0     C66177   5.668   0.514   9.358  0.7210 -0.5221 -0.7321
  491MOL0     C66178   5.587   0.575   9.467 -0.4921  0.0749 -1.2823
  491MOL0     C66179   5.631   0.392   9.289  0.0454  0.3064 -0.5615
  491MOL0     C66180   5.505   0.328   9.295  0.5439  0.9348  0.0611
  491MOL0     O66181   5.513   0.192   9.308 -0.0660  0.3253  0.4109
  491MOL0     C66182   5.404   0.107   9.320 -0.5820  0.6646 -0.1396
  491MOL0     C66183   5.266   0.131   9.322  0.1766 -1.2701  0.8949
  491MOL0     C66184   5.177   0.033   9.335  0.7985  0.8446 -0.9857
  491MOL0     C66185   5.225  -0.095   9.349  0.8446 -0.8097  0.4564
  491MOL0     O66186   5.131  -0.190   9.376 -0.3169  0.2385 -0.2118
  491MOL0     C66187   5.172  -0.318   9.424  0.0959 -0.8414  0.4102
  491MOL0     C66188   5.057  -0.407   9.472  0.0600  1.1530 -0.4815
  491MOL0     C66189   5.120  -0.523   9.558 -0.2001 -0.3822 -0.2893
  491MOL0     C66190   5.024  -0.623   9.616  0.2630 -0.1874  0.7897
  491MOL0     C66191   5.109  -0.712   9.708 -0.5984 -0.0573  0.1233
  491MOL0     C66192   5.027  -0.834   9.768  0.5331 -0.1571  0.8660
  491MOL0     C66193   5.100  -0.918   9.877 -0.7091 -0.0344  0.3311
  491MOL0     C66194   5.009  -0.925   9.995 -0.3671  0.1370 -0.4213
  491MOL0    Cl66195   5.019  -0.767  10.078 -0.4265 -0.1676  0.3630
  491MOL0     C66196   5.363  -0.118   9.334 -0.1628  0.2746  0.1449
  491MOL0     C66197   5.447  -0.017   9.325 -0.1022 -0.7184 -0.7659
  491MOL0     O66198   5.402   0.398   9.290 -0.8645 -0.3538 -0.0933
  491MOL0     C66199   5.720   0.337   9.197  0.5136 -0.2057  0.0153
  491MOL0     C66200   5.845   0.387   9.169  0.6468  0.3977 -0.2234
  491MOL0     N66201   6.484   0.831   9.178  0.2186 -0.1366 -0.3673
  491MOL0     N66202   6.605   0.843   9.210 -0.2920  0.6888 -0.1598
  491MOL0     C66203   7.448   0.739   8.868 -0.8204 -0.2085  0.0097
  491MOL0     C66204   7.480   0.738   8.731 -0.3640 -0.1042  1.1506
  491MOL0     C66205   7.615   0.602   8.336 -0.1473 -0.5546 -0.5989
  491MOL0     C66206   7.724   0.687   8.299 -0.1140  0.0381 -0.6725
  491MOL0     C66207   7.779   0.671   8.171  0.2399  0.6079  0.4209
  491MOL0     C66208   7.731   0.572   8.077  0.6157 -0.3259 -0.2460
  491MOL0     O66209   7.786   0.552   7.959 -0.3279  0.0624 -0.5697
  491MOL0     C66210   7.823   0.665   7.878 -0.1296 -0.4377 -0.5487
  491MOL0     C66211   7.708   0.745   7.814  1.4683  0.1647  0.0363
  491MOL0     C66212   7.604   0.670   7.732  0.7216 -0.5883  0.1387
  491MOL0     C66213   7.499   0.770   7.674 -0.3863  0.7804 -0.0186
  491MOL0     C66214   7.432   0.848   7.778  0.0738  0.7306 -1.2738
  491MOL0     C66215   7.369   0.891   7.872  0.7379  0.8189 -0.1377
  491MOL0     C66216   7.614   0.507   8.115 -0.4310 -1.4961  0.1593
  491MOL0     C66217   7.563   0.516   8.245  1.4032  0.2445 -0.1762
  491MOL0     H66218   7.784   0.583   8.751  1.1730  3.2877 -1.3293
  491MOL0     H66219   7.725   0.573   8.982 -1.5475  0.0091  2.7443
  491MOL0     H66220   7.531   0.490   9.127 -1.3673  0.6525 -0.2097
  491MOL0     H66221   7.650   0.590   9.220  0.1668  0.6917  0.0364
  491MOL0     H66222   7.502   0.466   9.365  0.4695  1.3590  1.4395
  491MOL0     H66223   7.490   0.631   9.403  0.9702 -0.4750  0.4660
  491MOL0     H66224   7.293   0.612   9.187  0.3130 -0.8722  0.2675
  491MOL0     H66225   7.290   0.460   9.251  1.1292  0.0036  1.2761
  491MOL0     H66226   7.275   0.530   9.482  0.2355 -0.3192  0.2188
  491MOL0     H66227   7.249   0.698   9.424 -2.3553  1.4674 -4.2297
  491MOL0     H66228   7.069   0.465   9.370 -0.4428  0.2404  1.1833
  491MOL0     H66229   7.043   0.609   9.472 -2.2062  0.9829 -1.4755
  491MOL0     H66230   7.082   0.755   9.256 -0.7246  1.2109  0.5785
  491MOL0     H66231   7.066   0.602   9.177  0.4201  0.2027  0.6556
  491MOL0     H66232   6.832   0.573   9.270 -1.7995  2.0546  0.1476
  491MOL0     H66233   6.855   0.721   9.349 -0.4231 -1.1526  1.0004
  491MOL0     H66234   6.858   0.665   9.060  0.5247 -0.9605  0.9005
  491MOL0     H66235   6.858   0.838   9.135 -3.1840  0.2263  2.2584
  491MOL0     H66236   6.613   0.588   9.000 -1.8879  0.7924 -2.1663
  491MOL0     H66237   6.344   0.729   8.899  2.4995  2.4175  0.4655
  491MOL0     H66238   6.350   0.571   8.986  2.4425 -0.1979 -0.5945
  491MOL0     H66239   6.133   0.653   9.013  0.3485 -0.9287  2.4939
  491MOL0     H66240   6.193   0.816   9.060 -0.6272  1.4303  2.1902
  491MOL0     H66241   6.273   0.739   9.277 -0.4027  2.3520 -2.4522
  491MOL0     H66242   6.261   0.573   9.234  0.1260 -1.1971 -0.6706
  491MOL0     H66243   6.003   0.735   9.208 -0.3819  1.1033  2.2095
  491MOL0     H66244   6.048   0.675   9.366 -0.5266  2.8129 -1.0964
  491MOL0     H66245   5.825   0.657   9.393 -0.2695 -1.1567 -0.0600
  491MOL0     H66246   5.479   0.578   9.450 -1.5227 -2.3905  3.2562
  491MOL0     H66247   5.601   0.514   9.557 -0.9848  0.4960 -0.9134
  491MOL0     H66248   5.617   0.677   9.491 -2.4757 -0.0341  2.3098
  491MOL0     H66249   5.236   0.235   9.312  1.0333 -1.1409 -0.5915
  491MOL0     H66250   5.075   0.066   9.350  0.4605  0.3576 -2.1178
  491MOL0     H66251   5.223  -0.373   9.344  0.1381 -1.6713  1.0005
  491MOL0     H66252   5.246  -0.307   9.502  1.1972  0.2135 -0.7418
  491MOL0     H66253   4.975  -0.361   9.527 -0.7595  0.9185 -1.4860
  491MOL0     H66254   5.007  -0.454   9.388 -2.6754 -2.6489  2.8987
  491MOL0     H66255   5.166  -0.476   9.645  2.2145 -0.7961 -1.2643
  491MOL0     H66256   5.197  -0.578   9.502  2.1300 -0.2156  2.4916
  491MOL0     H66257   4.942  -0.581   9.674 -1.6828 -0.9222 -1.2972
  491MOL0     H66258   4.982  -0.687   9.538  3.3840 -0.3399 -0.9724
  491MOL0     H66259   5.135  -0.648   9.793  0.5595  3.0571 -2.3570
  491MOL0     H66260   5.193  -0.744   9.646 -2.0978  0.3016 -2.2114
  491MOL0     H66261   4.932  -0.791   9.801  0.0452  0.1125 -0.8238
  491MOL0     H66262   4.996  -0.900   9.686  1.3465  2.8263 -2.0356
  491MOL0     H66263   5.199  -0.876   9.899  0.2607 -1.6632 -0.6981
  491MOL0     H66264   5.123  -1.016   9.836 -1.5552 -1.8701  3.8675
  491MOL0     H66265   5.050  -1.000  10.063 -0.9495  1.2628  1.2248
  491MOL0     H66266   4.909  -0.957   9.967  0.1075 -3.0557  1.0311
  491MOL0     H66267   5.405  -0.218   9.330  0.5576  0.6036 -1.2835
  491MOL0     H66268   5.555  -0.028   9.325  0.4163  2.9222 -0.2314
  491MOL0     H66269   5.715   0.240   9.148 -0.7992 -0.1419 -0.0093
  491MOL0     H66270   5.917   0.339   9.104  1.6259  0.1676  0.9890
  491MOL0     H66271   7.363   0.787   8.916  0.8541 -0.8230  3.9528
  491MOL0     H66272   7.418   0.796   8.663 -0.5105 -0.8335  0.6466
  491MOL0     H66273   7.752   0.761   8.373 -0.3794 -1.3604  0.8973
  491MOL0     H66274   7.852   0.748   8.147  0.7236 -0.0796 -0.3699
  491MOL0     H66275   7.875   0.740   7.938  0.3858 -0.0308 -1.4744
  491MOL0     H66276   7.896   0.620   7.809  0.5722  1.9757 -1.5015
  491MOL0     H66277   7.754   0.822   7.753  0.0073 -0.5317 -2.0659
  491MOL0     H66278   7.651   0.794   7.893  2.4084  0.2376  0.6781
  491MOL0     H66279   7.562   0.589   7.793 -0.8587 -1.1386 -1.5751
  491MOL0     H66280   7.653   0.631   7.642 -1.0791  2.0848 -2.1623
  491MOL0     H66281   7.425   0.707   7.625  0.5246  0.2143 -0.6935
  491MOL0     H66282   7.541   0.833   7.595  0.6035  0.1010 -0.0496
  491MOL0     H66283   7.315   0.928   7.957  0.6002  0.8855 -0.2558
  491MOL0     H66284   7.579   0.429   8.049  1.9189  1.3243 -4.9934
  491MOL0     H66285   7.484   0.447   8.276  0.8616  0.6205 -0.6812
  492MOL0     O66286   8.655   0.564   2.223 -0.2029  0.0692  0.6404
  492MOL0     C66287   8.717   0.640   2.152  1.0987  0.4679  0.9738
  492MOL0     O66288   8.657   0.734   2.075  0.5010 -0.4117 -0.0202
  492MOL0     C66289   8.528   0.757   2.106  0.1402  0.1604  0.4928
  492MOL0     C66290   8.489   0.868   2.188 -0.5174 -0.7340  0.3661
  492MOL0     C66291   8.358   0.900   2.194 -0.1244 -0.0177  0.0099
  492MOL0     C66292   8.254   0.816   2.153 -1.0599 -0.9408 -0.4893
  492MOL0     O66293   8.125   0.856   2.174 -0.2520  0.4839  1.0100
  492MOL0     C66294   8.016   0.761   2.161  0.8602 -0.9264  0.6397
  492MOL0     C66295   7.911   0.806   2.253 -0.1136  0.5724  0.2631
  492MOL0     C66296   7.809   0.696   2.299  0.9994  0.0648 -0.5466
  492MOL0     C66297   7.843   0.623   2.424 -0.7696  0.3283 -0.0356
  492MOL0     C66298   7.757   0.501   2.451  0.1578  0.3065  0.2579
  492MOL0     C66299   7.811   0.423   2.564 -1.1029 -0.0432  0.3968
  492MOL0     C66300   7.710   0.327   2.617 -0.7930  0.0263 -0.2717
  492MOL0     C66301   7.773   0.226   2.719 -0.7288  0.2981 -0.6935
  492MOL0     N66302   7.667   0.157   2.788  0.2949  0.0597 -0.6673
  492MOL0     C66303   7.616   0.042   2.744  0.2219 -0.6854 -0.4210
  492MOL0     C66304   7.531   0.004   2.845  0.7159  0.4372  0.5071
  492MOL0     C66305   7.452  -0.124   2.846  0.5908  0.6893  0.3882
  492MOL0     C66306   7.307  -0.095   2.880 -0.4586 -0.4101  0.4444
  492MOL0     C66307   7.231  -0.219   2.935 -0.2464  1.0324 -0.0348
  492MOL0     C66308   7.080  -0.209   2.899 -0.1342  0.5618 -0.0354
  492MOL0     O66309   7.019  -0.342   2.910 -0.1341 -0.5176 -0.1504
  492MOL0     C66310   6.885  -0.349   2.923 -0.0014 -0.0800  0.4215
  492MOL0     C66311   6.790  -0.241   2.903 -0.7018  0.8969  0.2459
  492MOL0     C66312   6.655  -0.268   2.919 -0.2289 -0.2321 -0.0920
  492MOL0     C66313   6.561  -0.145   2.930 -0.5025 -0.6462 -0.9228
  492MOL0     C66314   6.609  -0.411   2.935  0.1335  0.2802 -0.3174
  492MOL0     C66315   6.467  -0.451   2.914 -0.7096 -0.4444 -0.6684
  492MOL0     O66316   6.442  -0.587   2.913  0.2968  0.2356  0.0678
  492MOL0     C66317   6.321  -0.639   2.936 -0.2887  0.5005  0.4564
  492MOL0     C66318   6.196  -0.575   2.927  0.0366  0.5563  0.8351
  492MOL0     C66319   6.084  -0.651   2.970 -0.0096  0.5006  0.1832
  492MOL0     C66320   6.090  -0.789   3.007 -0.5118 -0.9604  0.2059
  492MOL0     O66321   5.982  -0.862   3.040  0.6588  0.4003 -0.0659
  492MOL0     C66322   5.896  -0.812   3.146  0.5300  0.3171  0.1804
  492MOL0     C66323   5.748  -0.790   3.109 -1.4197 -0.0979  0.3210
  492MOL0     C66324   5.728  -0.694   2.993  0.3259  0.0256  0.0455
  492MOL0     C66325   5.590  -0.702   2.929 -0.7658  0.6865 -0.1844
  492MOL0     C66326   5.597  -0.632   2.794 -0.0497 -0.1795 -0.4625
  492MOL0     C66327   5.466  -0.651   2.714  0.4346  0.8177  0.5686
  492MOL0     C66328   5.444  -0.561   2.594  0.3553  0.1938  0.4396
  492MOL0     C66329   5.298  -0.516   2.600 -0.9045 -0.0595 -0.3457
  492MOL0    Cl66330   5.240  -0.413   2.472  0.4997 -0.3285 -0.3696
  492MOL0     C66331   6.216  -0.845   3.007 -0.0878 -0.2710 -1.1117
  492MOL0     C66332   6.329  -0.772   2.979 -0.2631 -0.7423  0.7249
  492MOL0     O66333   6.383  -0.363   2.924 -0.1760  0.1058 -0.1040
  492MOL0     C66334   6.709  -0.509   2.936 -0.5779  0.3482  0.0062
  492MOL0     C66335   6.846  -0.481   2.947 -0.2036 -0.9056  0.0673
  492MOL0     N66336   7.545   0.088   2.947  0.4792  0.2670  0.0433
  492MOL0     N66337   7.632   0.175   2.918  0.1836  0.3396  1.0970
  492MOL0     C66338   8.294   0.707   2.077  0.1526 -1.3914  0.8255
  492MOL0     C66339   8.426   0.677   2.048 -0.0190  0.4519  0.4973
  492MOL0     C66340   8.857   0.620   2.116 -0.1318  0.3426  0.1699
  492MOL0     C66341   8.903   0.626   1.986 -1.2250 -0.5124 -0.5456
  492MOL0     C66342   9.036   0.629   1.956  0.2263  0.5293 -0.0467
  492MOL0     C66343   9.134   0.620   2.060 -0.3139 -0.5436  0.2814
  492MOL0     O66344   9.265   0.618   2.021 -0.1903 -0.4460 -0.5223
  492MOL0     C66345   9.365   0.554   2.094  0.4664  0.1729  0.0685
  492MOL0     C66346   9.455   0.477   1.999  0.4728 -0.1908 -0.0881
  492MOL0     C66347   9.503   0.575   1.888 -0.8216  0.0471 -0.2517
  492MOL0     C66348   9.592   0.691   1.953  0.1034 -0.5411  0.2480
  492MOL0     C66349   9.684   0.760   1.855 -1.3407  1.0010 -0.3298
  492MOL0     C66350   9.751   0.821   1.772 -0.8178 -0.7029 -0.0238
  492MOL0     C66351   9.085   0.602   2.194 -1.0103  0.1578 -0.3482
  492MOL0     C66352   8.950   0.600   2.219 -0.0803 -0.7163 -0.6934
  492MOL0     H66353   8.565   0.917   2.248 -0.4935  0.8513 -0.8896
  492MOL0     H66354   8.342   0.994   2.245 -0.3396 -1.0545  1.9568
  492MOL0     H66355   7.971   0.769   2.062 -0.4828  2.3061  1.3854
  492MOL0     H66356   8.049   0.658   2.177  2.5894 -1.1808 -3.3951
  492MOL0     H66357   7.960   0.853   2.339  0.7051 -0.1320  0.1957
  492MOL0     H66358   7.858   0.894   2.214  0.7172  2.3671  2.8748
  492MOL0     H66359   7.709   0.739   2.307  0.1569 -1.7378 -0.7461
  492MOL0     H66360   7.798   0.615   2.226 -0.8810 -0.8853  0.7052
  492MOL0     H66361   7.949   0.597   2.426 -0.3992  1.7403  0.4245
  492MOL0     H66362   7.837   0.697   2.505  0.4932  1.7313 -1.1539
  492MOL0     H66363   7.656   0.534   2.474  0.3393  1.0147  0.0527
  492MOL0     H66364   7.757   0.435   2.364 -2.4438  0.8886 -0.2651
  492MOL0     H66365   7.906   0.380   2.530 -0.1850  0.8323  1.7569
  492MOL0     H66366   7.837   0.487   2.649 -1.7364  2.0555 -0.9075
  492MOL0     H66367   7.633   0.379   2.675 -1.4375 -1.8910  0.6506
  492MOL0     H66368   7.666   0.281   2.528  1.8152  0.0839 -1.6943
  492MOL0     H66369   7.832   0.286   2.790 -2.4540  3.3168 -1.6226
  492MOL0     H66370   7.837   0.153   2.668 -0.4899  0.0040  0.0153
  492MOL0     H66371   7.642   0.002   2.646  0.0061  0.8374 -1.1242
  492MOL0     H66372   7.470  -0.172   2.749  0.2783  1.2752  0.0370
  492MOL0     H66373   7.486  -0.195   2.922 -3.1922 -2.5763 -0.6161
  492MOL0     H66374   7.253  -0.055   2.794 -0.2523  0.7648  0.8407
  492MOL0     H66375   7.300  -0.015   2.955  0.8021  0.2815 -0.1465
  492MOL0     H66376   7.251  -0.238   3.041 -1.7669 -3.5383 -0.3513
  492MOL0     H66377   7.269  -0.311   2.890  4.2427  3.2161 -1.2190
  492MOL0     H66378   7.067  -0.170   2.797 -2.2687  1.1159  0.3952
  492MOL0     H66379   7.030  -0.135   2.962 -0.5518 -1.2525  1.8553
  492MOL0     H66380   6.823  -0.138   2.892  1.4641 -0.0027 -3.1094
  492MOL0     H66381   6.507  -0.149   3.025 -1.0578 -0.2278 -1.2122
  492MOL0     H66382   6.626  -0.058   2.923  1.4818 -2.0697 -0.8900
  492MOL0     H66383   6.492  -0.131   2.846 -1.0008  1.5478 -0.2294
  492MOL0     H66384   6.186  -0.478   2.879  3.5021  0.2533 -0.7839
  492MOL0     H66385   5.991  -0.597   2.963 -1.4476 -1.6931  1.1573
  492MOL0     H66386   5.910  -0.880   3.231 -2.0463  0.7228  0.9981
  492MOL0     H66387   5.935  -0.715   3.177  2.1715 -0.2013 -0.1193
  492MOL0     H66388   5.699  -0.886   3.087  0.0472 -0.8110  0.0508
  492MOL0     H66389   5.696  -0.738   3.189  0.0735  0.9723  0.6328
  492MOL0     H66390   5.798  -0.733   2.918 -0.7256 -1.4053 -0.2412
  492MOL0     H66391   5.752  -0.592   3.023 -1.2409  0.8806 -1.4337
  492MOL0     H66392   5.571  -0.810   2.920 -0.7409  0.6407  0.3178
  492MOL0     H66393   5.519  -0.668   3.005 -0.9805 -1.4681  0.6501
  492MOL0     H66394   5.684  -0.655   2.731  1.6967  0.9595  1.4229
  492MOL0     H66395   5.609  -0.527   2.823  1.5231 -0.3812 -0.2833
  492MOL0     H66396   5.471  -0.757   2.688 -1.5635  0.7419  0.3730
  492MOL0     H66397   5.382  -0.638   2.782  0.4735 -1.4841  1.1242
  492MOL0     H66398   5.465  -0.606   2.496 -0.2131 -1.9290  1.2272
  492MOL0     H66399   5.506  -0.471   2.592 -1.3245  1.3708 -0.6059
  492MOL0     H66400   5.291  -0.457   2.691  0.5493  0.7161 -0.7046
  492MOL0     H66401   5.228  -0.599   2.613 -1.6408  0.7036  0.6431
  492MOL0     H66402   6.235  -0.948   3.036  2.5244  0.8343  1.6258
  492MOL0     H66403   6.430  -0.808   2.994 -0.0590 -1.0439 -1.0629
  492MOL0     H66404   6.676  -0.612   2.952  0.1635  0.4895  3.1731
  492MOL0     H66405   6.918  -0.559   2.969 -1.9048 -3.2201 -2.0315
  492MOL0     H66406   8.217   0.653   2.023 -0.4408 -1.2199  1.4720
  492MOL0     H66407   8.468   0.596   1.989  3.5052  2.6382 -0.2952
  492MOL0     H66408   8.830   0.639   1.907  1.1386  2.0881 -2.5319
  492MOL0     H66409   9.067   0.636   1.853 -0.0298 -1.5199 -0.3116
  492MOL0     H66410   9.417   0.627   2.158  0.3490 -0.8192  1.3478
  492MOL0     H66411   9.327   0.479   2.164 -1.7862 -0.4660 -1.7481
  492MOL0     H66412   9.397   0.401   1.945 -1.7880  3.2769 -2.9634
  492MOL0     H66413   9.533   0.425   2.056  0.6875  0.8244  0.5684
  492MOL0     H66414   9.417   0.628   1.846  0.9332  2.2138 -1.3448
  492MOL0     H66415   9.549   0.513   1.811  0.1461 -2.0269  1.8586
  492MOL0     H66416   9.663   0.651   2.026  0.7750 -1.7908 -1.0345
  492MOL0     H66417   9.521   0.755   2.005  0.4333  0.7132 -0.8084
  492MOL0     H66418   9.810   0.861   1.692  1.1079 -3.8866 -0.3785
  492MOL0     H66419   9.164   0.570   2.262 -0.1175 -0.3593 -1.5988
  492MOL0     H66420   8.900   0.583   2.314 -0.5009  0.8867 -0.5993
  493MOL0     O66421  11.267   9.099   9.539 -0.3975 -0.3465 -0.0158
  493MOL0     C66422  11.277   9.211   9.485  0.5733  0.4327 -0.4658
  493MOL0     O66423  11.177   9.308   9.480 -0.5512  0.6280 -0.2108
  493MOL0     C66424  11.049   9.276   9.530  0.5243 -0.3289 -0.2261
  493MOL0     C66425  10.936   9.246   9.445  0.3056 -0.6067 -0.9096
  493MOL0     C66426  10.819   9.214   9.506 -0.3498 -0.1008 -0.6882
  493MOL0     C66427  10.812   9.215   9.646  0.2059  0.6433 -0.0009
  493MOL0     O66428  10.688   9.178   9.707 -0.9251 -0.2142  0.0962
  493MOL0     C66429  10.596   9.084   9.654 -0.1444 -0.2614 -0.0831
  493MOL0     C66430  10.488   9.057   9.760  0.2664  0.2592 -0.8034
  493MOL0     C66431  10.377   8.964   9.719 -0.6224  0.9674 -0.6489
  493MOL0     C66432  10.267   8.957   9.824  0.0886 -0.4164  0.4291
  493MOL0     C66433  10.150   8.876   9.768 -0.0330 -0.2540  0.9600
  493MOL0     C66434  10.059   8.940   9.660  1.1147  0.7969  0.8966
  493MOL0     C66435   9.950   8.845   9.616  0.6838 -1.2674  0.2554
  493MOL0     C66436   9.883   8.905   9.487  0.6261  0.6081  0.7273
  493MOL0     N66437   9.764   8.828   9.448 -0.3452  0.1487  0.2230
  493MOL0     C66438   9.774   8.720   9.370 -0.3367  0.6203 -0.4673
  493MOL0     C66439   9.646   8.683   9.343  0.1470 -0.0020  0.3308
  493MOL0     C66440   9.606   8.575   9.248  1.2718 -0.9712 -0.4214
  493MOL0     C66441   9.511   8.470   9.303 -1.0279  0.1602  0.0089
  493MOL0     C66442   9.370   8.517   9.341  0.7966 -0.4407  0.2610
  493MOL0     C66443   9.290   8.396   9.381 -0.1763  0.4916  0.0684
  493MOL0     O66444   9.156   8.443   9.384  0.2104 -0.2365  0.2896
  493MOL0     C66445   9.060   8.352   9.398  1.2092 -0.0057  0.6930
  493MOL0     C66446   8.929   8.403   9.416 -0.0118  0.0580 -0.1801
  493MOL0     C66447   8.817   8.312   9.409  0.0868 -0.1711 -0.0896
  493MOL0     C66448   8.686   8.347   9.447 -0.8513  0.4819  0.2455
  493MOL0     C66449   8.840   8.173   9.382 -0.3538 -0.0271  0.5972
  493MOL0     C66450   8.735   8.064   9.368 -0.2679 -0.7052  0.4373
  493MOL0     O66451   8.622   8.097   9.291  0.3534 -0.0967  0.0317
  493MOL0     C66452   8.514   8.013   9.299 -0.7009 -0.0979 -0.1952
  493MOL0     C66453   8.514   7.888   9.243 -0.3266 -0.0307  0.3508
  493MOL0     C66454   8.398   7.814   9.245  0.0990 -0.3840 -0.5146
  493MOL0     C66455   8.286   7.865   9.306  0.5747  0.9736  0.2061
  493MOL0     O66456   8.166   7.790   9.297 -0.7329  1.0628 -0.4014
  493MOL0     C66457   8.045   7.840   9.358  0.0076 -0.0606  0.6628
  493MOL0     C66458   7.922   7.761   9.310  0.3992  0.1862 -0.4168
  493MOL0     C66459   7.790   7.811   9.383  0.0130 -0.6268  0.2156
  493MOL0     C66460   7.667   7.749   9.306  0.1036 -1.7346 -0.1146
  493MOL0     C66461   7.531   7.792   9.354  0.3474 -0.6293 -0.6691
  493MOL0     C66462   7.422   7.730   9.280  0.4322  0.1844 -0.5937
  493MOL0     C66463   7.281   7.773   9.322 -0.3874 -0.0668 -0.6106
  493MOL0     C66464   7.175   7.680   9.268  0.0359 -0.1922 -0.1178
  493MOL0    Cl66465   7.004   7.715   9.312  0.2396  0.2235  0.7085
  493MOL0     C66466   8.292   7.984   9.380 -0.1018 -0.4816  0.9149
  493MOL0     C66467   8.402   8.067   9.358  0.0058 -0.5345 -0.5975
  493MOL0     O66468   8.758   7.954   9.417  0.4195  0.1066 -0.0705
  493MOL0     C66469   8.969   8.130   9.363 -0.1266 -0.9642  0.2116
  493MOL0     C66470   9.079   8.210   9.375 -0.6871  0.1832 -0.1383
  493MOL0     N66471   9.560   8.765   9.414  0.1401  0.2528 -0.0641
  493MOL0     N66472   9.637   8.837   9.490  0.1096  0.3139 -0.5971
  493MOL0     C66473  10.914   9.240   9.733 -0.2695 -1.0172 -0.9300
  493MOL0     C66474  11.041   9.263   9.670  0.7254  0.2637  0.1947
  493MOL0     C66475  11.405   9.250   9.435 -0.2046  0.2100  0.8815
  493MOL0     C66476  11.518   9.176   9.469 -0.1165  0.6512 -0.0071
  493MOL0     C66477  11.641   9.202   9.405 -1.3073  0.7318 -0.6221
  493MOL0     C66478  11.661   9.318   9.328 -0.2794  0.4102  0.1264
  493MOL0     O66479  11.784   9.347   9.278 -0.0865  0.3761  0.3585
  493MOL0     C66480  11.802   9.460   9.183 -0.5214 -0.0515 -0.6349
  493MOL0     C66481  11.945   9.474   9.142  0.2538  0.4287 -1.3423
  493MOL0     C66482  11.998   9.357   9.054 -0.1828  0.8486  0.0598
  493MOL0     C66483  12.143   9.383   9.013 -0.1297 -0.3175 -0.1163
  493MOL0     C66484  12.133   9.487   8.911  0.5591 -1.2017 -0.2615
  493MOL0     C66485  12.129   9.568   8.816 -0.9345  0.0912  0.1959
  493MOL0     C66486  11.547   9.400   9.303 -0.6538 -0.3554 -0.0915
  493MOL0     C66487  11.423   9.362   9.349  0.3021 -0.2682  0.2912
  493MOL0     H66488  10.952   9.245   9.337 -0.8052  2.9582 -1.2230
  493MOL0     H66489  10.733   9.174   9.453 -0.0758 -1.9210  0.1930
  493MOL0     H66490  10.541   9.129   9.570  2.0976 -2.2602 -2.8085
  493MOL0     H66491  10.641   8.992   9.617  0.3784 -0.7741  1.7703
  493MOL0     H66492  10.530   9.026   9.856 -1.8695  0.3914  0.2405
  493MOL0     H66493  10.447   9.158   9.771  2.6436  1.0658  2.0359
  493MOL0     H66494  10.343   9.006   9.623 -1.8313  3.8769  0.9093
  493MOL0     H66495  10.421   8.866   9.701 -1.3038  0.8215 -1.6562
  493MOL0     H66496  10.319   8.920   9.913  2.0507 -0.7189 -0.7736
  493MOL0     H66497  10.235   9.055   9.860  0.0179 -0.1785 -0.2603
  493MOL0     H66498  10.190   8.784   9.723 -1.7372 -0.5805  0.0404
  493MOL0     H66499  10.079   8.844   9.844 -0.5553  1.4763  1.2398
  493MOL0     H66500  10.018   9.039   9.680  0.0074  0.3711  0.7612
  493MOL0     H66501  10.121   8.956   9.570 -1.3499  2.2169 -0.6453
  493MOL0     H66502   9.988   8.743   9.605 -0.6990 -2.2577  3.4460
  493MOL0     H66503   9.884   8.845   9.703  0.6797 -4.0572  0.3386
  493MOL0     H66504   9.959   8.908   9.408  1.1906 -1.9273  1.0860
  493MOL0     H66505   9.852   9.010   9.499  0.1191  0.4781  0.5647
  493MOL0     H66506   9.861   8.667   9.332  0.6365 -0.6482  3.1234
  493MOL0     H66507   9.558   8.616   9.158  1.4325  1.8532  0.6540
  493MOL0     H66508   9.694   8.513   9.230  1.2529 -1.1449  0.0550
  493MOL0     H66509   9.571   8.430   9.385  2.8215  1.3124 -1.9716
  493MOL0     H66510   9.509   8.392   9.227  0.5345 -0.8434  0.9387
  493MOL0     H66511   9.316   8.563   9.257 -1.5985  0.0195  1.9620
  493MOL0     H66512   9.367   8.586   9.425 -0.0659  0.0838 -0.1826
  493MOL0     H66513   9.330   8.355   9.474 -2.3783 -0.2563  0.7388
  493MOL0     H66514   9.302   8.316   9.307 -0.3236  3.5031 -3.5428
  493MOL0     H66515   8.912   8.509   9.436  0.2522 -0.1898  1.5182
  493MOL0     H66516   8.642   8.270   9.511 -1.1375 -0.4884 -1.0714
  493MOL0     H66517   8.682   8.448   9.487 -1.1257 -0.1845  1.9862
  493MOL0     H66518   8.615   8.346   9.364 -0.5439  1.7999 -0.0570
  493MOL0     H66519   8.615   7.852   9.224  0.4752  2.2424 -0.0260
  493MOL0     H66520   8.389   7.710   9.213  0.3825  0.0555 -2.1395
  493MOL0     H66521   8.047   7.826   9.466  0.2195 -0.2625  0.6326
  493MOL0     H66522   8.027   7.948   9.351  1.0698  0.2891  2.5956
  493MOL0     H66523   7.922   7.761   9.200  0.8479  0.0136 -0.4195
  493MOL0     H66524   7.931   7.661   9.355 -1.3954  0.4812  0.6676
  493MOL0     H66525   7.782   7.920   9.380 -2.2088 -0.7198  0.9072
  493MOL0     H66526   7.787   7.797   9.491 -0.4105  3.1987  0.8373
  493MOL0     H66527   7.688   7.776   9.202 -1.8286 -1.5441 -0.4934
  493MOL0     H66528   7.684   7.641   9.308 -1.1951 -1.9462  0.6291
  493MOL0     H66529   7.512   7.899   9.344  2.1727 -0.0844  0.9589
  493MOL0     H66530   7.516   7.768   9.460 -1.1204 -2.3011 -1.1975
  493MOL0     H66531   7.434   7.750   9.174  2.6027 -2.5337 -0.9781
  493MOL0     H66532   7.435   7.622   9.293  5.2368  0.8026  2.2775
  493MOL0     H66533   7.240   7.864   9.277 -3.2111 -0.8492  0.1940
  493MOL0     H66534   7.271   7.791   9.430  2.3470 -0.0618 -0.2945
  493MOL0     H66535   7.209   7.583   9.303  2.6144  1.0748  1.1800
  493MOL0     H66536   7.180   7.685   9.159 -1.2081  3.8633 -0.1826
  493MOL0     H66537   8.213   8.036   9.434  0.6682  3.7593 -1.6243
  493MOL0     H66538   8.399   8.173   9.383 -2.9648 -0.5097 -0.6911
  493MOL0     H66539   8.985   8.030   9.325  0.1471  1.0301 -5.9781
  493MOL0     H66540   9.177   8.167   9.356 -0.2263  1.4479 -0.7357
  493MOL0     H66541  10.896   9.232   9.839 -1.6593 -3.2943 -1.2868
  493MOL0     H66542  11.129   9.290   9.728  0.0651  1.2580  0.7678
  493MOL0     H66543  11.511   9.090   9.534  3.6400 -0.2242 -0.5696
  493MOL0     H66544  11.730   9.144   9.425  0.0353  2.1333 -2.2270
  493MOL0     H66545  11.747   9.445   9.090 -1.4574  0.6468 -0.2149
  493MOL0     H66546  11.768   9.553   9.229 -0.3044 -0.5492  0.5960
  493MOL0     H66547  12.001   9.486   9.236 -3.6658  1.2620  1.1219
  493MOL0     H66548  11.952   9.566   9.084 -0.8270 -0.9992 -3.9063
  493MOL0     H66549  11.942   9.340   8.961  0.6641 -0.0534 -0.3073
  493MOL0     H66550  12.001   9.264   9.113  3.5488  1.0599  0.4148
  493MOL0     H66551  12.199   9.295   8.979 -2.6186 -1.6643 -0.9616
  493MOL0     H66552  12.194   9.430   9.098 -0.9055 -2.0323  1.3658
  493MOL0     H66553  12.114   9.649   8.747 -3.7404  1.0991  1.7967
  493MOL0     H66554  11.555   9.493   9.249 -1.8606  0.6118  1.2861
  493MOL0     H66555  11.343   9.421   9.307  1.7655  1.2269 -0.4870
  494MOL0     O66556   5.500   1.599   5.411 -0.9916 -0.0830 -1.0674
  494MOL0     C66557   5.497   1.636   5.531  0.6898  0.1804 -0.1902
  494MOL0     O66558   5.380   1.647   5.606  0.1078  0.3474  0.1536
  494MOL0     C66559   5.247   1.637   5.566 -0.6402 -0.6273 -0.5887
  494MOL0     C66560   5.155   1.620   5.667  0.7188  0.3233  0.7668
  494MOL0     C66561   5.013   1.617   5.637  0.2952  0.2931 -0.3261
  494MOL0     C66562   4.970   1.618   5.506 -0.7844  0.2213  0.2350
  494MOL0     O66563   4.840   1.613   5.461 -0.2871 -0.2712  0.1307
  494MOL0     C66564   4.730   1.607   5.557  0.1769  0.4622  1.2551
  494MOL0     C66565   4.599   1.595   5.484  0.3488 -1.1631 -0.4374
  494MOL0     C66566   4.563   1.722   5.417  0.5113 -0.1199  0.3944
  494MOL0     C66567   4.411   1.739   5.394 -0.2908 -1.0281  0.2350
  494MOL0     C66568   4.354   1.823   5.512  0.0041 -0.3799 -0.5147
  494MOL0     C66569   4.210   1.852   5.472  0.2142  0.3229 -0.4099
  494MOL0     C66570   4.129   1.911   5.586  0.2588 -0.4095 -0.4347
  494MOL0     C66571   3.999   1.976   5.535 -0.8013  0.0075  0.3206
  494MOL0     N66572   3.893   1.888   5.493  0.3509 -0.5114 -0.0881
  494MOL0     C66573   3.878   1.758   5.533  0.7467  0.4897 -0.1947
  494MOL0     C66574   3.752   1.733   5.501 -0.2197  0.1652 -0.0308
  494MOL0     C66575   3.676   1.601   5.527  0.1701 -0.5741 -0.1310
  494MOL0     C66576   3.681   1.504   5.408  0.1264  0.2931 -0.0206
  494MOL0     C66577   3.560   1.535   5.308 -0.3665 -0.4118 -0.5515
  494MOL0     C66578   3.575   1.443   5.185 -0.7697  0.4576  0.0301
  494MOL0     O66579   3.503   1.502   5.080  0.0966 -0.1392  0.6200
  494MOL0     C66580   3.365   1.488   5.085  0.2357 -0.3476 -0.0692
  494MOL0     C66581   3.275   1.586   5.140 -0.2842 -0.3337 -0.0547
  494MOL0     C66582   3.134   1.577   5.140 -0.6841  0.1369 -0.3096
  494MOL0     C66583   3.057   1.699   5.201 -0.0760  0.7364  0.4324
  494MOL0     C66584   3.072   1.455   5.094  0.1598 -0.4595 -0.0599
  494MOL0     C66585   2.931   1.410   5.097 -0.0597 -0.3047 -1.0821
  494MOL0     O66586   2.842   1.483   5.171  0.4106  0.0228 -0.1853
  494MOL0     C66587   2.710   1.448   5.146 -0.6129 -0.5846 -0.6596
  494MOL0     C66588   2.625   1.419   5.259 -0.1893 -0.6515 -0.0606
  494MOL0     C66589   2.493   1.394   5.246  0.0565  0.3631 -0.4114
  494MOL0     C66590   2.433   1.403   5.122  0.2845 -0.3167 -0.5424
  494MOL0     O66591   2.297   1.385   5.098 -0.0405 -0.1207 -0.7322
  494MOL0     C66592   2.201   1.410   5.202 -0.9093 -0.7101  0.3917
  494MOL0     C66593   2.063   1.423   5.131 -0.1778 -0.2811 -0.3495
  494MOL0     C66594   1.966   1.455   5.246  0.8228 -0.7756  0.1340
  494MOL0     C66595   1.892   1.330   5.292  0.6145  0.2643  0.3342
  494MOL0     C66596   1.770   1.294   5.202  0.1111  0.2394  0.5944
  494MOL0     C66597   1.640   1.349   5.264 -0.5474  0.5886  0.2242
  494MOL0     C66598   1.518   1.343   5.181 -0.4554 -0.0457 -0.0708
  494MOL0     C66599   1.477   1.202   5.144  0.6020 -0.0375 -1.0870
  494MOL0    Cl66600   1.423   1.116   5.290 -0.1194  0.1802 -0.1091
  494MOL0     C66601   2.510   1.448   5.016 -0.9410 -0.5643  0.3822
  494MOL0     C66602   2.648   1.468   5.030 -0.2130  0.2744  0.5384
  494MOL0     O66603   2.898   1.303   5.044  0.7514  0.4604 -0.4776
  494MOL0     C66604   3.167   1.364   5.043  0.3481 -0.0606 -0.1161
  494MOL0     C66605   3.301   1.383   5.040  0.0998  0.5489  0.8977
  494MOL0     N66606   3.700   1.839   5.426 -0.6558  0.4690 -0.4464
  494MOL0     N66607   3.784   1.936   5.427  0.5298  0.2324 -0.6717
  494MOL0     C66608   5.070   1.622   5.402  0.1872 -0.9047  0.4068
  494MOL0     C66609   5.204   1.644   5.437  0.1086  0.1443  0.7280
  494MOL0     C66610   5.624   1.671   5.590  0.2133 -0.6493  0.1781
  494MOL0     C66611   5.645   1.712   5.726 -0.1384 -0.6006  0.1441
  494MOL0     C66612   5.765   1.766   5.770  0.2776 -1.3038  0.6121
  494MOL0     C66613   5.871   1.774   5.691  0.8938  0.6403 -0.8138
  494MOL0     O66614   5.990   1.839   5.728  0.2589  0.6691 -0.7147
  494MOL0     C66615   6.048   1.795   5.858  0.6856 -0.0819  0.5968
  494MOL0     C66616   6.171   1.870   5.899 -0.3334  0.6756 -0.1868
  494MOL0     C66617   6.278   1.859   5.800 -0.6058 -0.0896 -0.4939
  494MOL0     C66618   6.407   1.939   5.845  0.2851  0.2249 -0.2094
  494MOL0     C66619   6.471   1.865   5.954  0.9894  0.1038  0.3984
  494MOL0     C66620   6.528   1.801   6.042 -0.2104  0.3318 -0.1374
  494MOL0     C66621   5.854   1.734   5.552  0.1379 -0.9454 -0.8248
  494MOL0     C66622   5.733   1.693   5.496 -0.4283 -0.1640  0.2874
  494MOL0     H66623   5.190   1.612   5.770  2.3247  2.3038  0.4208
  494MOL0     H66624   4.940   1.620   5.716  2.7623  0.9989  2.0839
  494MOL0     H66625   4.738   1.522   5.626  2.1368 -0.8954 -0.5297
  494MOL0     H66626   4.727   1.704   5.608  0.5751  1.9019 -1.3043
  494MOL0     H66627   4.597   1.509   5.416  4.3253 -2.8384  1.2223
  494MOL0     H66628   4.535   1.576   5.571  0.4848 -1.8916 -0.4840
  494MOL0     H66629   4.608   1.811   5.461  0.5265 -0.3381  0.8219
  494MOL0     H66630   4.610   1.714   5.318 -1.2255  0.7523 -0.5434
  494MOL0     H66631   4.380   1.787   5.301  1.2159  0.0110  0.2240
  494MOL0     H66632   4.365   1.640   5.383  0.9321 -1.5627 -0.2884
  494MOL0     H66633   4.361   1.758   5.599 -2.0596 -2.2906 -1.6744
  494MOL0     H66634   4.408   1.918   5.519 -0.3771 -0.2057  0.1292
  494MOL0     H66635   4.197   1.915   5.384 -2.4301  1.1539  0.4747
  494MOL0     H66636   4.168   1.755   5.445  1.7860 -0.9796  1.5804
  494MOL0     H66637   4.113   1.840   5.667  1.1158 -1.3976 -1.1026
  494MOL0     H66638   4.202   1.983   5.624  2.5220 -1.6315 -2.1902
  494MOL0     H66639   4.025   2.037   5.447 -2.0356 -0.2775 -0.2699
  494MOL0     H66640   3.970   2.053   5.607  0.5386  0.2929  0.5812
  494MOL0     H66641   3.945   1.692   5.588  0.3447 -0.9408 -1.3640
  494MOL0     H66642   3.717   1.555   5.618 -0.7518 -0.6915  0.2280
  494MOL0     H66643   3.575   1.618   5.564 -1.0331 -3.5865 -1.6994
  494MOL0     H66644   3.671   1.398   5.433 -2.4332  0.5398  0.3331
  494MOL0     H66645   3.774   1.504   5.351  1.0641  1.7173  1.4406
  494MOL0     H66646   3.563   1.642   5.285  0.0496 -0.3203 -0.0893
  494MOL0     H66647   3.467   1.511   5.359  0.7436 -1.2075  1.2043
  494MOL0     H66648   3.538   1.343   5.210 -0.7708  0.6054  0.6602
  494MOL0     H66649   3.679   1.436   5.151  0.1486  2.2888  2.1515
  494MOL0     H66650   3.334   1.669   5.177  0.7834 -1.9462  2.0911
  494MOL0     H66651   2.950   1.687   5.220  0.5710  0.5354  5.1908
  494MOL0     H66652   3.115   1.731   5.288  2.3341  0.2268 -0.9057
  494MOL0     H66653   3.070   1.782   5.131 -0.2904  1.5110  1.2890
  494MOL0     H66654   2.666   1.400   5.358 -1.9199  0.4201  0.9067
  494MOL0     H66655   2.437   1.387   5.339  1.4035 -1.1321  0.3277
  494MOL0     H66656   2.210   1.327   5.273  3.0358  0.4020  1.4244
  494MOL0     H66657   2.222   1.499   5.262 -1.2625 -1.5125  1.7484
  494MOL0     H66658   2.070   1.500   5.054  2.3714 -0.5502 -0.4657
  494MOL0     H66659   2.030   1.333   5.078  0.1207 -0.3844 -0.3607
  494MOL0     H66660   1.892   1.531   5.218  1.0241 -0.2094  1.1133
  494MOL0     H66661   2.022   1.502   5.327 -2.0424 -0.2656  1.9801
  494MOL0     H66662   1.960   1.247   5.313  1.2040  1.1738  2.2531
  494MOL0     H66663   1.855   1.364   5.389 -0.6050 -0.7215  0.2318
  494MOL0     H66664   1.766   1.187   5.182 -3.4476 -0.1581  2.6663
  494MOL0     H66665   1.793   1.349   5.110  1.7706 -2.6552 -0.8739
  494MOL0     H66666   1.613   1.289   5.352 -0.3158 -1.3908 -1.0145
  494MOL0     H66667   1.659   1.451   5.299  0.6274  0.2119  0.7440
  494MOL0     H66668   1.518   1.406   5.091  1.1779 -0.8663 -0.6981
  494MOL0     H66669   1.441   1.381   5.248 -1.9250  0.3182 -1.8703
  494MOL0     H66670   1.557   1.155   5.086  1.3487 -1.3422  0.9016
  494MOL0     H66671   1.387   1.211   5.082  0.8170  0.1450 -1.3753
  494MOL0     H66672   2.457   1.451   4.922  0.3078 -2.9291 -0.4801
  494MOL0     H66673   2.713   1.486   4.945  0.4865  0.9452  1.1965
  494MOL0     H66674   3.142   1.266   5.003 -0.4387 -0.5420  1.4774
  494MOL0     H66675   3.359   1.305   4.992 -2.3592 -0.7389 -0.1382
  494MOL0     H66676   5.037   1.629   5.299 -3.3034  0.2106  1.4623
  494MOL0     H66677   5.281   1.654   5.361  2.0609  1.5201  2.7471
  494MOL0     H66678   5.559   1.708   5.792  0.3691  0.7769  0.9348
  494MOL0     H66679   5.764   1.799   5.873 -2.4132  1.2466 -0.0920
  494MOL0     H66680   5.977   1.814   5.938 -2.1054 -2.5849 -1.0953
  494MOL0     H66681   6.080   1.690   5.861  1.9663  0.3097  2.4607
  494MOL0     H66682   6.214   1.824   5.988  1.0580 -1.5420 -1.8950
  494MOL0     H66683   6.140   1.970   5.931 -0.7587  0.5940 -0.3401
  494MOL0     H66684   6.234   1.907   5.712 -1.3976  1.3533  0.6442
  494MOL0     H66685   6.310   1.756   5.782 -1.0800 -0.0689 -1.5620
  494MOL0     H66686   6.370   2.038   5.872 -0.3852  0.1671 -0.8764
  494MOL0     H66687   6.475   1.948   5.760  0.1385 -1.3774 -0.5237
  494MOL0     H66688   6.586   1.759   6.121 -1.5479  2.6069  2.1797
  494MOL0     H66689   5.932   1.739   5.477 -1.7267  4.4107 -2.8512
  494MOL0     H66690   5.722   1.669   5.391  3.8207 -0.3118 -0.2919
  495MOL0     O66691   0.120   1.787   2.986 -0.0456 -0.1979  0.9558
  495MOL0     C66692   0.180   1.816   2.881 -0.2939 -0.1968  0.8298
  495MOL0     O66693   0.126   1.893   2.786  0.2023  0.1220 -0.6175
  495MOL0     C66694  -0.006   1.904   2.760 -0.7877 -0.0031 -0.3677
  495MOL0     C66695  -0.044   2.026   2.715  0.5909 -0.4615 -0.4557
  495MOL0     C66696  -0.177   2.049   2.675  0.2590  0.5916 -0.9153
  495MOL0     C66697  -0.274   1.940   2.686 -1.1172 -0.3880  0.4126
  495MOL0     O66698  -0.405   1.972   2.639  1.0313 -0.2435  0.2496
  495MOL0     C66699  -0.511   1.873   2.634  0.4120 -0.0392 -0.1397
  495MOL0     C66700  -0.639   1.938   2.580 -0.2402  0.2381  0.8616
  495MOL0     C66701  -0.683   2.055   2.661  0.2444 -0.3669  0.5829
  495MOL0     C66702  -0.809   2.108   2.592 -0.1047  0.0387  0.4431
  495MOL0     C66703  -0.864   2.238   2.668  0.3143 -0.2442  0.1290
  495MOL0     C66704  -0.994   2.286   2.597 -0.2349  0.0058 -0.1665
  495MOL0     C66705  -1.070   2.398   2.676 -0.4197  0.0556  0.3084
  495MOL0     C66706  -1.120   2.357   2.811 -0.7187 -0.8880 -0.0482
  495MOL0     N66707  -1.210   2.447   2.886  0.5375 -0.0222 -0.2189
  495MOL0     C66708  -1.350   2.464   2.875 -0.1325 -0.4272 -0.2660
  495MOL0     C66709  -1.384   2.548   2.975 -0.7068 -0.6279  0.4946
  495MOL0     C66710  -1.525   2.569   3.023  0.3547  0.0180 -0.1088
  495MOL0     C66711  -1.582   2.684   2.939 -0.1389 -0.1834  0.0109
  495MOL0     C66712  -1.661   2.624   2.815  0.5927 -0.1225 -0.4878
  495MOL0     C66713  -1.803   2.574   2.859 -0.9944 -0.3227 -0.0468
  495MOL0     O66714  -1.883   2.686   2.899  0.0597  0.1280 -0.1342
  495MOL0     C66715  -2.017   2.671   2.921  0.2551 -0.5093 -0.3327
  495MOL0     C66716  -2.085   2.553   2.905 -0.4999 -0.2677  1.0823
  495MOL0     C66717  -2.219   2.543   2.935 -0.0222  0.5801  0.0052
  495MOL0     C66718  -2.286   2.413   2.893  0.0205 -0.0944  0.0085
  495MOL0     C66719  -2.287   2.653   2.999  1.0212  0.7853 -0.4254
  495MOL0     C66720  -2.434   2.647   3.040  0.4916 -0.4027 -0.0634
  495MOL0     O66721  -2.523   2.563   2.982 -0.0148  0.3745  0.1211
  495MOL0     C66722  -2.646   2.553   3.042  0.3348 -0.9196 -0.4706
  495MOL0     C66723  -2.745   2.660   3.025 -0.6312  0.9771 -0.5770
  495MOL0     C66724  -2.876   2.652   3.084  0.0353 -0.2651 -0.4327
  495MOL0     C66725  -2.909   2.537   3.165 -0.3385 -0.2187 -0.4824
  495MOL0     O66726  -3.028   2.512   3.230  0.5251  0.3361  0.0525
  495MOL0     C66727  -3.141   2.566   3.170  0.8284  0.5128 -0.0013
  495MOL0     C66728  -3.272   2.489   3.204 -0.2797 -0.3973 -0.3937
  495MOL0     C66729  -3.342   2.514   3.340  0.5330 -0.3173  0.3692
  495MOL0     C66730  -3.442   2.404   3.364 -0.3663 -0.4394  0.5553
  495MOL0     C66731  -3.529   2.438   3.485  0.1588 -0.3021  0.0413
  495MOL0     C66732  -3.598   2.323   3.541  0.3415  0.0412 -0.3989
  495MOL0     C66733  -3.708   2.343   3.652 -0.3105 -0.3501 -0.0094
  495MOL0     C66734  -3.803   2.455   3.628  0.4687  0.4300  0.2240
  495MOL0    Cl66735  -3.952   2.430   3.728  0.3636 -0.4981  0.0162
  495MOL0     C66736  -2.805   2.434   3.185  0.9398 -1.1613  0.9479
  495MOL0     C66737  -2.683   2.446   3.119  0.5960 -0.2734 -0.6398
  495MOL0     O66738  -2.454   2.717   3.139  0.5948 -0.2933  0.4619
  495MOL0     C66739  -2.217   2.775   3.014 -0.2136 -0.1699 -0.1619
  495MOL0     C66740  -2.082   2.780   2.978  0.9408  0.3874  0.7003
  495MOL0     N66741  -1.268   2.577   3.044  0.9294  0.9507 -0.3201
  495MOL0     N66742  -1.171   2.508   2.996  0.2072 -0.1372  0.6193
  495MOL0     C66743  -0.228   1.819   2.734  0.5112  0.4940  0.0226
  495MOL0     C66744  -0.093   1.801   2.773 -0.2180  0.0007 -1.5185
  495MOL0     C66745   0.324   1.797   2.873  0.3744  0.0052 -0.9404
  495MOL0     C66746   0.405   1.793   2.989 -0.4943 -0.1444  0.6091
  495MOL0     C66747   0.545   1.787   2.974  0.3182 -0.2019 -0.0401
  495MOL0     C66748   0.605   1.772   2.849 -0.9769  0.1210  0.7211
  495MOL0     O66749   0.745   1.754   2.859 -0.4776 -0.0112  0.6242
  495MOL0     C66750   0.800   1.735   2.735 -0.6315  0.6226  0.3594
  495MOL0     C66751   0.936   1.678   2.755 -0.5943 -0.2352 -0.0186
  495MOL0     C66752   1.037   1.775   2.813 -0.4067  0.2089 -0.9250
  495MOL0     C66753   1.155   1.695   2.871  0.5154 -0.2328 -0.3424
  495MOL0     C66754   1.243   1.658   2.762 -0.2466 -0.4549  0.1441
  495MOL0     C66755   1.325   1.638   2.673 -0.1137  1.1359 -0.1237
  495MOL0     C66756   0.522   1.775   2.735 -0.3238  0.2820  0.2474
  495MOL0     C66757   0.388   1.797   2.742  0.8667 -0.7196 -0.2149
  495MOL0     H66758   0.034   2.100   2.705 -0.5647  0.6284 -2.0980
  495MOL0     H66759  -0.223   2.142   2.642 -1.2965 -0.7262 -2.6593
  495MOL0     H66760  -0.471   1.796   2.568  0.3210 -0.0993 -0.1250
  495MOL0     H66761  -0.528   1.830   2.734 -0.2797  1.0714  0.2428
  495MOL0     H66762  -0.628   1.954   2.473  0.9361 -2.4443  0.4963
  495MOL0     H66763  -0.715   1.859   2.579 -0.0005 -0.0213 -1.3143
  495MOL0     H66764  -0.705   2.035   2.766  1.0996  0.0690  0.8620
  495MOL0     H66765  -0.604   2.132   2.662  0.5945 -0.6549 -1.0024
  495MOL0     H66766  -0.796   2.141   2.489  0.4618 -0.5110  0.3330
  495MOL0     H66767  -0.885   2.030   2.599  1.5728 -1.8108 -1.0299
  495MOL0     H66768  -0.882   2.203   2.770 -2.5180 -0.4077 -0.3543
  495MOL0     H66769  -0.790   2.319   2.670  1.0145 -0.8860  0.7700
  495MOL0     H66770  -0.972   2.334   2.501 -2.8142  2.2519  0.2265
  495MOL0     H66771  -1.054   2.196   2.585 -0.8484  0.7252 -3.3225
  495MOL0     H66772  -1.011   2.490   2.680 -1.7430  0.8885  1.8665
  495MOL0     H66773  -1.156   2.409   2.610 -2.3918  0.4966  2.7923
  495MOL0     H66774  -1.038   2.354   2.884 -0.5893 -0.8680 -0.1919
  495MOL0     H66775  -1.163   2.257   2.803 -0.4533 -1.0491  0.4757
  495MOL0     H66776  -1.415   2.425   2.798  0.1212 -2.1384  0.3481
  495MOL0     H66777  -1.582   2.478   3.045 -1.4777  1.3817  1.0459
  495MOL0     H66778  -1.527   2.612   3.123 -3.4256  4.1212 -1.6348
  495MOL0     H66779  -1.501   2.750   2.906  2.4337 -1.7425  2.7404
  495MOL0     H66780  -1.662   2.724   3.001 -2.3159 -0.2842 -2.5412
  495MOL0     H66781  -1.600   2.542   2.778 -1.3595 -0.7919 -2.4543
  495MOL0     H66782  -1.669   2.699   2.736 -2.9320  0.0118 -0.1793
  495MOL0     H66783  -1.785   2.506   2.943  2.5105 -2.1905 -2.0934
  495MOL0     H66784  -1.851   2.533   2.769 -1.7568  2.8892 -1.2460
  495MOL0     H66785  -2.044   2.462   2.862  2.7579  0.4532  2.3778
  495MOL0     H66786  -2.362   2.452   2.824 -0.7261  0.1256  0.9233
  495MOL0     H66787  -2.224   2.340   2.840  2.7110  1.5529  0.7305
  495MOL0     H66788  -2.344   2.358   2.967 -0.0752  0.6069  0.4693
  495MOL0     H66789  -2.719   2.746   2.964  1.8418  0.0955 -0.8662
  495MOL0     H66790  -2.956   2.725   3.073  1.0390  0.6919 -1.5990
  495MOL0     H66791  -3.160   2.670   3.198  0.4943  0.4016  0.1989
  495MOL0     H66792  -3.146   2.544   3.063  1.7236 -0.5937  0.1635
  495MOL0     H66793  -3.337   2.530   3.126 -1.7910  0.1861  1.0899
  495MOL0     H66794  -3.250   2.383   3.190  0.1302 -0.4557  0.6333
  495MOL0     H66795  -3.390   2.612   3.334  0.9166 -0.2080 -2.0221
  495MOL0     H66796  -3.281   2.533   3.428 -2.9283  1.9348  2.5228
  495MOL0     H66797  -3.505   2.397   3.275  0.4670  0.8443 -0.1741
  495MOL0     H66798  -3.388   2.310   3.374 -4.5949 -3.1648  0.1836
  495MOL0     H66799  -3.609   2.503   3.448  0.8959 -0.2629 -1.5839
  495MOL0     H66800  -3.466   2.484   3.561 -1.2360  0.0588  1.0045
  495MOL0     H66801  -3.649   2.270   3.460 -0.2691  1.5041 -1.0013
  495MOL0     H66802  -3.529   2.256   3.592 -0.1066 -0.3907 -0.3516
  495MOL0     H66803  -3.657   2.371   3.745  1.2622  1.0848 -1.2634
  495MOL0     H66804  -3.760   2.248   3.665  2.5010 -2.1851 -1.0937
  495MOL0     H66805  -3.826   2.457   3.521 -0.7945  2.9199  0.4686
  495MOL0     H66806  -3.758   2.547   3.665  2.9269 -0.9323  0.7946
  495MOL0     H66807  -2.811   2.355   3.258  5.1540 -2.2693  0.4040
  495MOL0     H66808  -2.610   2.370   3.142  1.6908  0.5069 -1.4518
  495MOL0     H66809  -2.266   2.862   3.059  0.0145 -0.3494  0.4494
  495MOL0     H66810  -2.037   2.879   2.982 -0.8247  1.2795 -0.5281
  495MOL0     H66811  -0.303   1.741   2.740 -0.6013  1.3407 -1.7474
  495MOL0     H66812  -0.060   1.707   2.815  0.7116  0.6326 -0.7856
  495MOL0     H66813   0.352   1.803   3.083 -2.4196  0.0248 -0.4343
  495MOL0     H66814   0.603   1.788   3.066  0.8727  0.6800 -0.3842
  495MOL0     H66815   0.751   1.651   2.683 -0.5750 -0.9965  2.7809
  495MOL0     H66816   0.790   1.833   2.688 -0.6562  0.3206 -0.2924
  495MOL0     H66817   0.976   1.664   2.654  0.3088  0.6565  0.2020
  495MOL0     H66818   0.918   1.583   2.807 -3.7398 -0.1384 -0.6844
  495MOL0     H66819   0.985   1.825   2.895 -1.4924 -0.6680 -1.0586
  495MOL0     H66820   1.070   1.847   2.737 -1.2217  0.3139 -1.1824
  495MOL0     H66821   1.117   1.612   2.932  0.1945 -0.4050 -0.7763
  495MOL0     H66822   1.212   1.755   2.943  0.3641  0.9211 -1.1620
  495MOL0     H66823   1.384   1.602   2.591 -0.7898 -0.4182  0.0343
  495MOL0     H66824   0.575   1.777   2.641  1.0302  2.4846  0.9852
  495MOL0     H66825   0.326   1.810   2.654  0.2166  0.9933  0.4513
  496MOL0     O66826   0.805   3.422  10.246  0.0169 -0.8281 -0.8147
  496MOL0     C66827   0.841   3.515  10.173  0.1351 -0.8004  0.6379
  496MOL0     O66828   0.759   3.608  10.110 -0.7310  0.5677  0.5446
  496MOL0     C66829   0.629   3.610  10.150 -0.2123  0.3717  0.7914
  496MOL0     C66830   0.530   3.568  10.057 -0.5557  0.1446 -0.4160
  496MOL0     C66831   0.403   3.574  10.095 -0.4278 -0.7907  0.6016
  496MOL0     C66832   0.361   3.612  10.221 -0.9374  0.0011 -0.0771
  496MOL0     O66833   0.232   3.580  10.245 -0.6089  0.2160 -0.2711
  496MOL0     C66834   0.173   3.619  10.367 -0.0377  0.1455  0.2547
  496MOL0     C66835   0.148   3.765  10.357  0.0548 -0.2604 -0.0300
  496MOL0     C66836   0.059   3.810  10.480  0.2519 -0.3836  0.8077
  496MOL0     C66837  -0.085   3.763  10.487 -0.0294 -0.1876  0.2012
  496MOL0     C66838  -0.145   3.833  10.615 -0.6015 -1.0276  0.5090
  496MOL0     C66839  -0.276   3.774  10.664 -0.6590  0.2364  0.5622
  496MOL0     C66840  -0.313   3.803  10.807 -0.7666  0.8887 -0.5329
  496MOL0     C66841  -0.463   3.781  10.830  0.2631  0.6886 -0.7317
  496MOL0     N66842  -0.512   3.639  10.846  0.1771 -1.0419  0.1552
  496MOL0     C66843  -0.609   3.579  10.776  0.7727  0.5375  0.3537
  496MOL0     C66844  -0.599   3.447  10.819  0.1866  0.7879  0.9976
  496MOL0     C66845  -0.686   3.342  10.758  0.2157  0.9636  0.0031
  496MOL0     C66846  -0.774   3.279  10.861  1.8380  0.4843 -0.5190
  496MOL0     C66847  -0.831   3.144  10.806 -0.2581 -0.2526 -0.0282
  496MOL0     C66848  -0.915   3.165  10.677 -0.4920  0.2815  0.0001
  496MOL0     O66849  -0.985   3.040  10.645  0.5574 -0.3714  0.2411
  496MOL0     C66850  -1.058   3.037  10.525 -0.1395 -0.2518 -0.3714
  496MOL0     C66851  -1.051   3.140  10.423  0.1015 -0.3317 -0.7064
  496MOL0     C66852  -1.129   3.140  10.310 -0.8706 -0.1971  1.0761
  496MOL0     C66853  -1.091   3.250  10.205  0.6548 -0.1577 -0.5258
  496MOL0     C66854  -1.226   3.039  10.286  0.0666  0.0525  0.2276
  496MOL0     C66855  -1.324   3.029  10.168  0.2077  0.0969  0.1139
  496MOL0     O66856  -1.370   2.910  10.132  0.5580  0.4094  0.3699
  496MOL0     C66857  -1.435   2.907  10.017 -0.1070  0.2099 -0.5014
  496MOL0     C66858  -1.367   2.870   9.907  0.9422 -0.2690  0.8141
  496MOL0     C66859  -1.442   2.847   9.792  0.8855 -0.2767  0.5593
  496MOL0     C66860  -1.584   2.870   9.791 -0.2846  1.4041 -0.6517
  496MOL0     O66861  -1.650   2.829   9.678  0.0392 -0.3156  0.0905
  496MOL0     C66862  -1.795   2.851   9.675  0.6758  0.5225  0.6182
  496MOL0     C66863  -1.847   2.809   9.540 -0.4056 -0.3935 -0.2845
  496MOL0     C66864  -2.002   2.790   9.519  0.5243  0.3537 -0.9015
  496MOL0     C66865  -2.044   2.745   9.383 -0.2199  0.5764  0.1104
  496MOL0     C66866  -2.189   2.789   9.358  0.4134  0.6526  0.5372
  496MOL0     C66867  -2.248   2.734   9.223  0.8210  0.2436 -0.0512
  496MOL0     C66868  -2.394   2.780   9.198  0.1961  0.1905 -0.3645
  496MOL0     C66869  -2.452   2.711   9.075 -0.7105 -0.0459 -0.1053
  496MOL0    Cl66870  -2.604   2.797   9.032 -0.4696  0.0071  0.1753
  496MOL0     C66871  -1.647   2.906   9.912  0.2294 -0.2148 -0.0755
  496MOL0     C66872  -1.573   2.922  10.026 -0.3200  0.1413  1.1358
  496MOL0     O66873  -1.372   3.134  10.123 -0.0931 -0.2407  0.3744
  496MOL0     C66874  -1.238   2.945  10.389 -1.0625  0.1695 -0.4509
  496MOL0     C66875  -1.155   2.941  10.501 -1.3566 -0.2639 -0.3064
  496MOL0     N66876  -0.494   3.437  10.902 -0.0147  0.4020  0.3530
  496MOL0     N66877  -0.451   3.554  10.936 -0.0062 -0.4503  0.2011
  496MOL0     C66878   0.461   3.656  10.307  0.9369 -0.4296  0.3221
  496MOL0     C66879   0.591   3.651  10.272 -0.4257  0.0047 -0.7275
  496MOL0     C66880   0.978   3.512  10.113  0.1571  0.5738  0.6097
  496MOL0     C66881   1.022   3.603  10.012  0.3624 -0.4719 -0.5043
  496MOL0     C66882   1.155   3.614   9.966  0.1370 -0.5192 -0.0615
  496MOL0     C66883   1.248   3.527  10.012  0.5857 -0.5153 -0.1896
  496MOL0     O66884   1.378   3.523   9.970  0.9369  0.3258 -0.2791
  496MOL0     C66885   1.428   3.610   9.868 -0.6490 -0.2269  0.5691
  496MOL0     C66886   1.479   3.726   9.932 -0.1964 -0.6247 -0.6073
  496MOL0     C66887   1.520   3.834   9.827  0.2459 -0.3714 -0.1921
  496MOL0     C66888   1.655   3.810   9.760 -0.5216 -0.5292 -0.6413
  496MOL0     C66889   1.766   3.823   9.852  0.9546 -1.1979  0.9104
  496MOL0     C66890   1.848   3.831   9.937 -0.1410  0.4885 -0.4838
  496MOL0     C66891   1.206   3.438  10.121 -0.0574  0.5269  0.1413
  496MOL0     C66892   1.072   3.427  10.164 -0.0183 -0.3826  0.0277
  496MOL0     H66893   0.555   3.542   9.955  1.4780  1.0977 -0.2076
  496MOL0     H66894   0.320   3.544  10.033  0.0742 -2.4174  0.6737
  496MOL0     H66895   0.084   3.561  10.394 -2.0156  2.9990  0.3249
  496MOL0     H66896   0.242   3.594  10.449  1.6567  0.2163 -1.0874
  496MOL0     H66897   0.244   3.817  10.361 -0.8581  1.6280 -1.0566
  496MOL0     H66898   0.095   3.797  10.267 -0.5321  3.1650  1.3490
  496MOL0     H66899   0.098   3.795  10.582  0.2309  2.9027  1.3946
  496MOL0     H66900   0.050   3.919  10.474  0.6441 -0.4315 -1.1391
  496MOL0     H66901  -0.133   3.778  10.390  0.3141 -1.8428 -0.2694
  496MOL0     H66902  -0.082   3.655  10.504  0.6585 -0.4186 -1.2586
  496MOL0     H66903  -0.073   3.810  10.694  0.5349 -0.1807 -0.2471
  496MOL0     H66904  -0.161   3.937  10.586  1.2395 -0.6726  0.6416
  496MOL0     H66905  -0.359   3.796  10.595  0.0929 -0.4539 -0.5974
  496MOL0     H66906  -0.257   3.666  10.663 -0.2064  0.2760  2.0935
  496MOL0     H66907  -0.249   3.740  10.871 -2.0927  1.5742  1.5939
  496MOL0     H66908  -0.290   3.903  10.845  0.2913 -0.1447  1.7707
  496MOL0     H66909  -0.518   3.820  10.744 -1.4871 -2.0591 -0.9804
  496MOL0     H66910  -0.494   3.833  10.921  1.9502  1.3293 -0.4916
  496MOL0     H66911  -0.679   3.614  10.701  1.5453  0.4987 -0.3952
  496MOL0     H66912  -0.750   3.391  10.684 -0.0911  0.2371 -0.2120
  496MOL0     H66913  -0.628   3.272  10.699 -3.3102 -1.1799 -1.2258
  496MOL0     H66914  -0.865   3.334  10.884  1.4435 -0.8564  1.2820
  496MOL0     H66915  -0.724   3.249  10.953 -4.9106 -3.0356  2.7076
  496MOL0     H66916  -0.896   3.092  10.877  0.3729 -0.1714  0.6288
  496MOL0     H66917  -0.749   3.075  10.782  1.0915  0.4382  2.2495
  496MOL0     H66918  -0.850   3.193  10.594 -2.4362 -2.1886 -2.5710
  496MOL0     H66919  -0.989   3.241  10.703 -0.5636 -0.0239  0.6943
  496MOL0     H66920  -0.982   3.223  10.431 -0.0791 -0.1697 -0.8167
  496MOL0     H66921  -1.057   3.196  10.116  0.4273  2.0331 -2.0115
  496MOL0     H66922  -1.183   3.299  10.173 -1.7330 -4.2556 -0.6841
  496MOL0     H66923  -1.005   3.313  10.228  0.4206 -0.1271  0.2997
  496MOL0     H66924  -1.259   2.869   9.917  1.2133 -1.5042 -1.5312
  496MOL0     H66925  -1.400   2.821   9.695 -2.1752  1.3229 -1.3639
  496MOL0     H66926  -1.841   2.782   9.746  0.9917 -0.4537 -0.0938
  496MOL0     H66927  -1.827   2.954   9.691 -0.7556  0.3423 -0.8139
  496MOL0     H66928  -1.819   2.890   9.472 -2.0161  0.7652  0.3637
  496MOL0     H66929  -1.792   2.721   9.505 -1.4950 -0.1192 -2.9447
  496MOL0     H66930  -2.062   2.877   9.548  0.0090 -0.3196  0.1130
  496MOL0     H66931  -2.029   2.716   9.596  1.5542  2.6862  1.8538
  496MOL0     H66932  -1.970   2.772   9.307  2.1768 -0.0769  2.0808
  496MOL0     H66933  -2.047   2.636   9.389  1.7155  0.5519  1.4048
  496MOL0     H66934  -2.195   2.897   9.371  2.2708  0.5320  3.5015
  496MOL0     H66935  -2.253   2.757   9.440 -1.6699  0.4883 -1.0825
  496MOL0     H66936  -2.177   2.758   9.143  2.5903  0.6933  1.5814
  496MOL0     H66937  -2.249   2.625   9.209  0.9136  0.4736 -2.1950
  496MOL0     H66938  -2.398   2.885   9.169  2.0871 -0.1859 -2.2234
  496MOL0     H66939  -2.460   2.760   9.283  0.7593 -2.4733 -0.4774
  496MOL0     H66940  -2.470   2.606   9.100  1.5537 -0.4031  0.2605
  496MOL0     H66941  -2.377   2.707   8.996 -1.8913  0.3163 -1.2634
  496MOL0     H66942  -1.753   2.925   9.930  0.8009  1.5318  1.8110
  496MOL0     H66943  -1.622   2.952  10.118  0.5424  0.8716  1.3691
  496MOL0     H66944  -1.316   2.871  10.377 -0.2602 -0.6907 -0.4704
  496MOL0     H66945  -1.164   2.858  10.570 -2.9285  0.3293  0.2441
  496MOL0     H66946   0.431   3.691  10.405 -0.4521  0.2364 -0.3188
  496MOL0     H66947   0.673   3.683  10.336  0.3147 -0.6361 -1.3226
  496MOL0     H66948   0.950   3.664   9.958 -1.2046 -1.2015  0.6531
  496MOL0     H66949   1.178   3.670   9.876 -0.8223 -3.6827 -2.4419
  496MOL0     H66950   1.508   3.557   9.817  0.1514  0.8478  0.6787
  496MOL0     H66951   1.353   3.638   9.793 -2.0585  1.3894  2.4404
  496MOL0     H66952   1.564   3.701   9.996 -0.2234  0.8357  0.0484
  496MOL0     H66953   1.404   3.775   9.995  1.2644  1.7048 -0.5623
  496MOL0     H66954   1.518   3.927   9.885 -0.0160 -1.5773  1.8217
  496MOL0     H66955   1.443   3.845   9.751  0.5691  1.8186 -0.2761
  496MOL0     H66956   1.677   3.885   9.683  0.6340 -0.3669 -0.1723
  496MOL0     H66957   1.651   3.709   9.717 -2.4474 -0.6557 -0.2793
  496MOL0     H66958   1.933   3.795   9.991 -0.9778 -4.1752 -1.8412
  496MOL0     H66959   1.287   3.386  10.172  1.5287  1.6266 -1.1253
  496MOL0     H66960   1.051   3.358  10.245 -1.2403  3.0139  2.8310
  497MOL0     O66961   1.704   7.643   6.937 -0.0483  0.0025  0.2395
  497MOL0     C66962   1.684   7.750   6.881  0.4834 -0.5150 -0.6420
  497MOL0     O66963   1.566   7.799   6.839 -0.1420  0.4081  0.2850
  497MOL0     C66964   1.467   7.709   6.846  0.1326 -0.7286 -0.4385
  497MOL0     C66965   1.407   7.669   6.969  0.6637  0.2663  1.0402
  497MOL0     C66966   1.295   7.577   6.970 -0.0015 -1.0660 -1.1876
  497MOL0     C66967   1.226   7.555   6.852  0.0330  0.0810  0.0842
  497MOL0     O66968   1.117   7.476   6.847 -0.5572  0.1288  0.8346
  497MOL0     C66969   1.002   7.521   6.767 -0.6945 -0.1097  0.0556
  497MOL0     C66970   0.894   7.416   6.803 -0.2364  0.2547  0.5164
  497MOL0     C66971   0.779   7.439   6.704 -0.1133 -0.5072 -0.3985
  497MOL0     C66972   0.657   7.356   6.716 -0.1104 -0.5299 -0.8877
  497MOL0     C66973   0.574   7.357   6.587 -0.2210  0.2956 -0.2606
  497MOL0     C66974   0.424   7.398   6.604 -0.3594  0.4999  0.7730
  497MOL0     C66975   0.330   7.354   6.493  0.0143  1.2383 -0.4044
  497MOL0     C66976   0.194   7.412   6.525 -0.6265  0.0442 -0.8827
  497MOL0     N66977   0.092   7.386   6.424  0.2114  0.0401  0.2766
  497MOL0     C66978  -0.015   7.470   6.403 -0.3560 -0.7888  0.1031
  497MOL0     C66979  -0.099   7.397   6.319  0.0406 -0.0293 -0.0167
  497MOL0     C66980  -0.235   7.437   6.270  0.0016  0.1994 -0.1069
  497MOL0     C66981  -0.338   7.471   6.372 -0.3993  0.2655 -0.2097
  497MOL0     C66982  -0.473   7.515   6.320  0.1914  0.0504  0.2058
  497MOL0     C66983  -0.575   7.532   6.422  0.7000  0.5627  0.0776
  497MOL0     O66984  -0.681   7.607   6.362 -0.8171  0.3891  0.0941
  497MOL0     C66985  -0.804   7.588   6.417 -0.0196  0.4568 -0.2286
  497MOL0     C66986  -0.826   7.589   6.551  0.1421  0.7832 -0.5229
  497MOL0     C66987  -0.949   7.550   6.613  0.1184  0.0795  1.2718
  497MOL0     C66988  -0.950   7.553   6.762 -0.2980  0.5261 -0.2923
  497MOL0     C66989  -1.053   7.501   6.526 -0.0117 -0.2421  0.6790
  497MOL0     C66990  -1.180   7.453   6.571 -0.6481 -0.3150 -0.0508
  497MOL0     O66991  -1.271   7.417   6.473  0.0837  0.1732 -0.2650
  497MOL0     C66992  -1.384   7.355   6.509 -0.3022 -0.5396 -0.3347
  497MOL0     C66993  -1.505   7.394   6.454  0.4959 -0.1408  0.3980
  497MOL0     C66994  -1.622   7.318   6.456  0.8244 -0.0291 -0.1636
  497MOL0     C66995  -1.628   7.192   6.515 -1.0760  0.2921  0.3269
  497MOL0     O66996  -1.751   7.123   6.531 -0.4120  0.4375  0.4646
  497MOL0     C66997  -1.869   7.168   6.465  0.7743  0.3997 -0.7134
  497MOL0     C66998  -1.986   7.077   6.495 -0.4022  0.0708 -0.0274
  497MOL0     C66999  -2.118   7.135   6.437 -0.6566 -0.1708  0.3637
  497MOL0     C67000  -2.239   7.056   6.492  0.6181  0.3683 -0.3337
  497MOL0     C67001  -2.362   7.151   6.492  0.2936 -0.4204 -0.0373
  497MOL0     C67002  -2.488   7.068   6.518  0.5033  0.0784 -0.1362
  497MOL0     C67003  -2.490   7.012   6.664 -0.1965  0.4636  0.5423
  497MOL0     C67004  -2.629   7.004   6.722  0.3952  0.7027 -0.2325
  497MOL0    Cl67005  -2.628   6.913   6.887 -0.2745 -0.4901  0.1791
  497MOL0     C67006  -1.507   7.158   6.578  0.7180  0.3406  0.3630
  497MOL0     C67007  -1.388   7.230   6.576 -0.1089  0.7114  0.2331
  497MOL0     O67008  -1.202   7.444   6.692 -0.1180  0.3382  0.5216
  497MOL0     C67009  -1.026   7.512   6.387 -0.5511  0.8850  0.9654
  497MOL0     C67010  -0.906   7.559   6.332 -0.2613 -0.0762  0.5560
  497MOL0     N67011  -0.037   7.274   6.298 -0.3487  0.1986 -0.6847
  497MOL0     N67012   0.073   7.267   6.357 -0.0760 -0.1724  1.1989
  497MOL0     C67013   1.289   7.605   6.740  0.5474 -0.4450  0.0487
  497MOL0     C67014   1.405   7.675   6.732  0.9407  0.1895  0.7087
  497MOL0     C67015   1.799   7.835   6.841 -0.2469  0.2809 -0.4841
  497MOL0     C67016   1.791   7.964   6.780 -0.6103 -0.5004 -0.8417
  497MOL0     C67017   1.904   8.024   6.741  0.2762  0.5344 -0.3441
  497MOL0     C67018   2.030   7.961   6.739  0.1214  0.0742 -1.1011
  497MOL0     O67019   2.134   8.030   6.683 -0.2276  0.5337 -0.0214
  497MOL0     C67020   2.262   7.982   6.733  0.6581  0.0948  0.1036
  497MOL0     C67021   2.374   8.075   6.680  0.1809  0.2101  0.6139
  497MOL0     C67022   2.404   8.201   6.761  0.8339  0.9586 -0.1901
  497MOL0     C67023   2.511   8.302   6.705 -0.2560 -0.0190  0.0397
  497MOL0     C67024   2.472   8.355   6.576  0.3894  0.2411  0.2544
  497MOL0     C67025   2.454   8.404   6.470  0.5269  0.2993 -0.4866
  497MOL0     C67026   2.029   7.833   6.795  0.1859 -0.9106  0.5004
  497MOL0     C67027   1.919   7.772   6.842 -0.2864  0.7539  0.1834
  497MOL0     H67028   1.453   7.703   7.062  3.0741  1.3200 -0.4415
  497MOL0     H67029   1.252   7.550   7.066  1.9268 -0.8758 -0.2020
  497MOL0     H67030   0.970   7.619   6.804  1.3923 -0.2168  2.4308
  497MOL0     H67031   1.027   7.531   6.661  1.3559  1.1934  0.5879
  497MOL0     H67032   0.928   7.313   6.794 -1.9022 -0.2715 -0.0823
  497MOL0     H67033   0.856   7.433   6.904  1.7035  0.4892  1.2590
  497MOL0     H67034   0.751   7.544   6.694 -1.1999 -0.7868 -0.3162
  497MOL0     H67035   0.833   7.401   6.616  4.3281 -0.6679  2.0718
  497MOL0     H67036   0.663   7.253   6.752 -0.1140  0.0821  0.9606
  497MOL0     H67037   0.595   7.404   6.792 -0.9645 -4.5097  1.2001
  497MOL0     H67038   0.630   7.416   6.514  1.5865  0.5488  1.2733
  497MOL0     H67039   0.564   7.259   6.539 -1.6751  0.9162 -1.3171
  497MOL0     H67040   0.380   7.346   6.689  0.4582 -2.7723 -0.6279
  497MOL0     H67041   0.414   7.505   6.624 -4.0310  0.4437  0.0396
  497MOL0     H67042   0.366   7.383   6.394 -1.0173  0.4124 -1.0514
  497MOL0     H67043   0.312   7.246   6.491  2.3161  0.7729  0.8603
  497MOL0     H67044   0.204   7.519   6.546  1.6865 -0.3718  0.4362
  497MOL0     H67045   0.170   7.365   6.621 -0.3254  1.2341 -0.2035
  497MOL0     H67046  -0.039   7.567   6.445  0.1657 -0.1751 -0.9611
  497MOL0     H67047  -0.229   7.530   6.211  1.1935  1.8048  2.3821
  497MOL0     H67048  -0.276   7.351   6.216 -0.6630  0.1477  0.4681
  497MOL0     H67049  -0.288   7.544   6.436 -1.7613  1.9461 -0.9869
  497MOL0     H67050  -0.353   7.379   6.429  1.9768 -0.8744 -1.2606
  497MOL0     H67051  -0.510   7.445   6.244 -1.2938 -0.6211  1.5005
  497MOL0     H67052  -0.458   7.615   6.277 -1.9289  1.8927  3.3754
  497MOL0     H67053  -0.536   7.589   6.507 -0.2910  1.1517  0.1674
  497MOL0     H67054  -0.608   7.434   6.459 -0.2794  0.1581 -1.7537
  497MOL0     H67055  -0.752   7.630   6.619 -1.8758  1.8756  1.1019
  497MOL0     H67056  -1.043   7.576   6.814  0.3340 -0.3127  1.2897
  497MOL0     H67057  -0.922   7.454   6.801 -2.0374  0.0481 -0.1840
  497MOL0     H67058  -0.876   7.626   6.797 -0.7249 -1.1170  4.9984
  497MOL0     H67059  -1.514   7.484   6.393  0.8422  0.8459  1.7436
  497MOL0     H67060  -1.707   7.368   6.409  0.8744  0.2414  0.0316
  497MOL0     H67061  -1.896   7.272   6.485  2.8478  0.9202 -0.3451
  497MOL0     H67062  -1.851   7.161   6.357  0.8604 -0.5847 -0.6413
  497MOL0     H67063  -1.967   6.978   6.452 -0.1924 -0.6594  1.6734
  497MOL0     H67064  -1.998   7.063   6.603  0.1644  0.3552  0.0729
  497MOL0     H67065  -2.116   7.133   6.328 -2.5957 -3.7266  0.2080
  497MOL0     H67066  -2.124   7.237   6.475  1.0634 -0.1723  0.7536
  497MOL0     H67067  -2.260   6.967   6.432 -0.1754 -0.4310  1.0969
  497MOL0     H67068  -2.218   7.029   6.596 -1.5270  1.7333  0.5076
  497MOL0     H67069  -2.370   7.197   6.393 -1.5125  0.8330  0.6465
  497MOL0     H67070  -2.362   7.233   6.564  0.6599 -0.5447  0.1073
  497MOL0     H67071  -2.576   7.133   6.509 -0.8682 -1.3325  1.9423
  497MOL0     H67072  -2.486   6.985   6.447  3.0801 -0.1158  0.0686
  497MOL0     H67073  -2.420   7.072   6.724 -0.5293  2.9615 -1.4013
  497MOL0     H67074  -2.464   6.907   6.648 -1.8540  0.2496 -0.9845
  497MOL0     H67075  -2.690   6.955   6.646 -0.5538  0.7733  0.4658
  497MOL0     H67076  -2.661   7.108   6.721  1.0803  0.9592 -2.9337
  497MOL0     H67077  -1.521   7.069   6.639 -1.5539  1.4143  1.5731
  497MOL0     H67078  -1.296   7.194   6.621  1.9298  2.0815 -2.4786
  497MOL0     H67079  -1.103   7.486   6.316  0.7037 -2.4921  0.6768
  497MOL0     H67080  -0.879   7.566   6.227  2.1031 -2.4021  0.8985
  497MOL0     H67081   1.240   7.576   6.648 -0.7658 -2.2710  1.2324
  497MOL0     H67082   1.442   7.693   6.631  0.9791 -1.7912  0.3231
  497MOL0     H67083   1.699   8.021   6.786 -0.5573 -0.3424 -1.4904
  497MOL0     H67084   1.903   8.124   6.698 -2.2008  0.0199 -1.6829
  497MOL0     H67085   2.257   7.980   6.843 -0.4550 -1.5997  0.0590
  497MOL0     H67086   2.279   7.880   6.699  0.3726  0.9754 -2.9458
  497MOL0     H67087   2.354   8.110   6.579  1.0481  3.3046  1.4161
  497MOL0     H67088   2.459   8.006   6.690  0.3692  0.3719  0.1235
  497MOL0     H67089   2.458   8.164   6.848  1.9437  0.4663 -1.0635
  497MOL0     H67090   2.315   8.255   6.793  0.1803 -0.8328  1.1565
  497MOL0     H67091   2.614   8.266   6.703  0.2673  1.3186  1.3467
  497MOL0     H67092   2.514   8.383   6.778 -1.8293  0.9344 -0.8876
  497MOL0     H67093   2.446   8.451   6.374 -0.9356  1.5065  0.1800
  497MOL0     H67094   2.120   7.774   6.798 -0.2045 -1.4784  3.1271
  497MOL0     H67095   1.945   7.680   6.893 -0.2356  1.4729  1.4800
  498MOL0     O67096   1.650   0.705   9.777  0.8167  0.1657 -0.5194
  498MOL0     C67097   1.638   0.828   9.797  0.1630  0.0765 -0.4262
  498MOL0     O67098   1.521   0.898   9.800 -0.0824  0.5998 -0.3113
  498MOL0     C67099   1.411   0.817   9.784 -0.1444 -0.0402 -0.1535
  498MOL0     C67100   1.343   0.785   9.898 -0.3145 -0.6344 -0.8239
  498MOL0     C67101   1.230   0.710   9.895 -0.3644 -1.0258  0.0395
  498MOL0     C67102   1.176   0.661   9.771  0.1222 -0.3613  0.2312
  498MOL0     O67103   1.049   0.612   9.756 -0.6069 -0.9928 -0.0471
  498MOL0     C67104   0.959   0.721   9.716 -0.3497 -0.5781  0.1457
  498MOL0     C67105   0.817   0.665   9.709 -0.5001 -1.4630  0.1921
  498MOL0     C67106   0.711   0.766   9.652 -0.5748  0.2241 -0.9232
  498MOL0     C67107   0.671   0.859   9.767  0.2149  0.8037 -0.5953
  498MOL0     C67108   0.608   0.993   9.713 -0.4973  0.8876  0.1440
  498MOL0     C67109   0.542   1.070   9.835  0.2487 -0.7644 -0.3877
  498MOL0     C67110   0.516   1.224   9.809  0.6863 -0.0722 -0.2212
  498MOL0     C67111   0.639   1.311   9.800  0.5445 -0.2862  0.5459
  498MOL0     N67112   0.737   1.301   9.910 -0.2909  0.7451 -0.1960
  498MOL0     C67113   0.711   1.351  10.033  0.3998  0.0361 -1.4594
  498MOL0     C67114   0.831   1.369  10.089  0.5263 -0.1708  0.5463
  498MOL0     C67115   0.850   1.426  10.222  0.3049  0.3974  0.9090
  498MOL0     C67116   0.994   1.409  10.282  0.2510 -1.0420 -0.2637
  498MOL0     C67117   1.108   1.497  10.231 -0.2865  0.4849 -0.1362
  498MOL0     C67118   1.237   1.490  10.299  0.0265 -0.5654  0.2301
  498MOL0     O67119   1.306   1.612  10.275  0.6045  0.3446 -0.6499
  498MOL0     C67120   1.432   1.637  10.315 -0.6721 -0.4181 -0.5049
  498MOL0     C67121   1.508   1.547  10.402 -0.4674  0.4169  0.5567
  498MOL0     C67122   1.640   1.585  10.442 -0.4797 -0.6720  0.2800
  498MOL0     C67123   1.706   1.483  10.536  0.2700 -0.6095  0.1590
  498MOL0     C67124   1.699   1.701  10.388  0.9547 -0.5344 -0.2077
  498MOL0     C67125   1.823   1.753  10.443  0.0367 -0.3746  0.4652
  498MOL0     O67126   1.869   1.865  10.382 -0.4170 -0.0005 -0.3209
  498MOL0     C67127   1.992   1.919  10.412 -0.2585  1.2075 -0.2813
  498MOL0     C67128   1.999   2.056  10.407  0.3366 -0.5368 -0.9140
  498MOL0     C67129   2.122   2.118  10.417 -0.1238 -0.8958 -0.3551
  498MOL0     C67130   2.244   2.052  10.435  0.8963  0.2606  0.1975
  498MOL0     O67131   2.363   2.124  10.454 -0.2042  0.1758 -0.2602
  498MOL0     C67132   2.487   2.063  10.454  0.8578  0.0479 -0.8554
  498MOL0     C67133   2.577   2.182  10.471  0.2822  0.2460  0.2711
  498MOL0     C67134   2.542   2.277  10.586  0.3185  0.8987  0.5640
  498MOL0     C67135   2.664   2.342  10.652 -0.3382 -0.4029  0.1281
  498MOL0     C67136   2.753   2.430  10.550  0.4750  0.0802 -0.2016
  498MOL0     C67137   2.897   2.470  10.610  0.3783 -0.1580  0.6476
  498MOL0     C67138   2.974   2.564  10.530 -0.0282  0.1679  0.6834
  498MOL0     C67139   3.115   2.554  10.573  0.0474 -0.1468 -0.5020
  498MOL0    Cl67140   3.221   2.646  10.459  0.2755  0.2698 -0.0793
  498MOL0     C67141   2.237   1.920  10.448 -0.3781 -0.0597  0.7127
  498MOL0     C67142   2.118   1.847  10.443  0.7236  0.6328  0.2878
  498MOL0     O67143   1.868   1.704  10.547 -0.3569 -0.4162 -0.1594
  498MOL0     C67144   1.622   1.787  10.302  0.0738  0.4410 -1.0235
  498MOL0     C67145   1.490   1.755  10.274 -0.0391 -0.1876 -1.1662
  498MOL0     N67146   0.932   1.334   9.992 -0.7862  0.6832  0.1117
  498MOL0     N67147   0.874   1.280   9.891  0.6200 -0.4596  0.1610
  498MOL0     C67148   1.245   0.707   9.653 -0.4560 -0.2242  0.0818
  498MOL0     C67149   1.369   0.771   9.661  0.3605  0.0057  0.2283
  498MOL0     C67150   1.763   0.909   9.818  0.1217  0.2991  0.8623
  498MOL0     C67151   1.895   0.863   9.788 -0.1721  0.5272  0.0350
  498MOL0     C67152   2.009   0.943   9.808  0.4694  0.5183 -0.6118
  498MOL0     C67153   2.004   1.067   9.877  0.8796  0.5009  0.2694
  498MOL0     O67154   2.101   1.151   9.915  0.2847 -0.3884  0.0227
  498MOL0     C67155   2.233   1.132   9.867  1.1764  0.0466 -0.3692
  498MOL0     C67156   2.332   1.240   9.907 -0.4344 -0.3394 -0.5491
  498MOL0     C67157   2.342   1.277  10.057 -1.1877 -0.7695  0.2299
  498MOL0     C67158   2.357   1.160  10.153  0.7071  0.4731  1.1781
  498MOL0     C67159   2.480   1.083  10.127 -0.2923  0.2895  0.4582
  498MOL0     C67160   2.590   1.028  10.094  0.4213 -0.8504  0.5389
  498MOL0     C67161   1.873   1.116   9.890 -0.6509 -0.1201 -0.6427
  498MOL0     C67162   1.756   1.045   9.852  0.1473  1.2423 -1.2700
  498MOL0     H67163   1.370   0.835   9.990 -2.8754  0.0906 -0.3974
  498MOL0     H67164   1.178   0.682   9.987  0.5523 -1.0488  0.5563
  498MOL0     H67165   0.983   0.800   9.788  3.4870  0.5712 -2.1043
  498MOL0     H67166   0.983   0.752   9.613  1.0539 -1.5348  0.1579
  498MOL0     H67167   0.821   0.581   9.639  1.8121 -2.7674  1.7771
  498MOL0     H67168   0.795   0.629   9.810 -0.0537  1.8460  1.5806
  498MOL0     H67169   0.750   0.820   9.565 -2.2827 -0.4350 -2.1554
  498MOL0     H67170   0.622   0.709   9.623  0.4226 -2.0089  0.1357
  498MOL0     H67171   0.604   0.809   9.837  0.9622  2.3392  1.3285
  498MOL0     H67172   0.761   0.887   9.822 -0.1772 -2.6623  2.1820
  498MOL0     H67173   0.679   1.056   9.658 -3.2743  1.4727 -3.0931
  498MOL0     H67174   0.528   0.961   9.645  0.0479  1.7560 -0.9352
  498MOL0     H67175   0.442   1.033   9.859  0.6039 -1.8740 -0.5346
  498MOL0     H67176   0.615   1.066   9.917  2.4455 -1.2144 -2.2714
  498MOL0     H67177   0.466   1.226   9.712 -0.5763  3.3140  0.3697
  498MOL0     H67178   0.441   1.258   9.881 -0.5549  1.8509 -2.2845
  498MOL0     H67179   0.605   1.415   9.798  1.6804  0.0856 -0.9380
  498MOL0     H67180   0.690   1.292   9.706  0.4132  1.6572  0.0306
  498MOL0     H67181   0.618   1.375  10.083  0.1987  1.4224 -2.4274
  498MOL0     H67182   0.831   1.533  10.211 -0.5755  0.1102 -0.7584
  498MOL0     H67183   0.778   1.386  10.294 -0.9268  0.4743 -0.2429
  498MOL0     H67184   1.026   1.305  10.273  3.1059 -0.3710  0.9880
  498MOL0     H67185   0.996   1.431  10.389 -0.8037  2.1905 -0.8169
  498MOL0     H67186   1.059   1.594  10.238 -1.9235 -0.2861 -0.4027
  498MOL0     H67187   1.117   1.464  10.127 -0.0067  1.1261 -0.3140
  498MOL0     H67188   1.302   1.412  10.258  0.8146 -0.5956  1.4979
  498MOL0     H67189   1.221   1.467  10.404 -1.3770  1.3992  0.4945
  498MOL0     H67190   1.463   1.453  10.433 -1.6967  1.4836  2.2284
  498MOL0     H67191   1.709   1.515  10.641 -0.0313  0.1273 -0.0452
  498MOL0     H67192   1.650   1.390  10.523 -0.5806 -0.0628 -0.2520
  498MOL0     H67193   1.807   1.456  10.506  0.4060  0.3312 -0.2584
  498MOL0     H67194   1.909   2.117  10.397  1.4451  1.6535  1.2699
  498MOL0     H67195   2.124   2.226  10.402  2.4402 -0.5460  1.8334
  498MOL0     H67196   2.492   1.998  10.541  3.3695  1.7126  0.3609
  498MOL0     H67197   2.494   2.000  10.365 -1.4611 -0.9834 -0.3781
  498MOL0     H67198   2.672   2.134  10.496  0.9385  2.5903  2.8038
  498MOL0     H67199   2.586   2.238  10.377 -1.4547 -0.5982 -0.4469
  498MOL0     H67200   2.481   2.218  10.656 -0.6306 -0.3042 -1.1819
  498MOL0     H67201   2.481   2.357  10.542 -0.0060  0.1514 -0.3958
  498MOL0     H67202   2.632   2.402  10.738  2.0111 -0.9173  1.4443
  498MOL0     H67203   2.731   2.263  10.685  1.7266  0.1034 -2.4856
  498MOL0     H67204   2.691   2.515  10.520 -3.1285 -1.7638  1.3722
  498MOL0     H67205   2.772   2.377  10.456 -1.6020  0.8033 -1.0867
  498MOL0     H67206   2.877   2.530  10.699 -3.0423 -0.3615  0.1430
  498MOL0     H67207   2.954   2.379  10.630  0.0475 -0.4334  0.3520
  498MOL0     H67208   2.932   2.663  10.544  0.2458  0.6808 -1.6448
  498MOL0     H67209   2.970   2.538  10.423 -0.0437  3.0843 -0.1104
  498MOL0     H67210   3.152   2.451  10.575 -0.2079 -0.2329  0.6856
  498MOL0     H67211   3.133   2.597  10.672  3.4292  1.2773 -1.5949
  498MOL0     H67212   2.331   1.869  10.470 -0.2933 -0.8477 -1.3107
  498MOL0     H67213   2.127   1.741  10.466  0.6056  0.5507 -0.0420
  498MOL0     H67214   1.651   1.887  10.269  0.5725 -0.0659 -2.1506
  498MOL0     H67215   1.439   1.835  10.219 -0.6872  0.0437 -0.2596
  498MOL0     H67216   1.200   0.689   9.556  2.7066  0.4734 -1.6329
  498MOL0     H67217   1.430   0.797   9.575 -0.1043 -1.5447 -0.6104
  498MOL0     H67218   1.905   0.764   9.746  1.4973 -0.3955  2.3690
  498MOL0     H67219   2.103   0.897   9.780  0.0630 -0.7125 -0.0608
  498MOL0     H67220   2.264   1.034   9.903 -1.9062 -0.9387 -0.1121
  498MOL0     H67221   2.222   1.141   9.758 -2.0388  3.1950  0.0322
  498MOL0     H67222   2.304   1.333   9.857  1.7196  0.0247 -1.2000
  498MOL0     H67223   2.433   1.208   9.879 -0.2081  1.4962 -2.0604
  498MOL0     H67224   2.259   1.338  10.094  0.7557  0.6658  2.5089
  498MOL0     H67225   2.428   1.342  10.074  0.1731 -1.8108 -2.1753
  498MOL0     H67226   2.271   1.093  10.144 -0.2228  1.8137 -0.5439
  498MOL0     H67227   2.366   1.194  10.257 -1.8931  1.0733  1.2603
  498MOL0     H67228   2.671   0.963  10.070  1.1710 -1.1058  3.3705
  498MOL0     H67229   1.862   1.219   9.923  1.9236  0.1031 -0.2456
  498MOL0     H67230   1.663   1.101   9.849  1.0780  2.8642 -1.0689
  499MOL0     O67231   6.731   2.751   1.969  0.0102  0.2077  0.0827
  499MOL0     C67232   6.804   2.690   1.882  1.0587 -0.2809  0.4643
  499MOL0     O67233   6.942   2.717   1.860  0.1378 -0.2941  0.0115
  499MOL0     C67234   7.014   2.821   1.924 -0.5832  0.1465  0.0878
  499MOL0     C67235   7.124   2.872   1.859 -0.8902 -1.0697 -0.2651
  499MOL0     C67236   7.199   2.983   1.911 -0.3418  0.0228 -0.7765
  499MOL0     C67237   7.163   3.036   2.035 -0.0832 -0.0504  0.7308
  499MOL0     O67238   7.213   3.155   2.084 -0.5570  0.4166  0.2355
  499MOL0     C67239   7.345   3.198   2.047  0.5086  0.4869 -0.5045
  499MOL0     C67240   7.368   3.350   2.100 -0.0320 -0.7349 -0.6924
  499MOL0     C67241   7.466   3.440   2.033  0.2977 -0.4465 -0.4616
  499MOL0     C67242   7.613   3.402   2.050  0.0467 -0.6367 -0.4086
  499MOL0     C67243   7.690   3.525   2.117  0.3629 -0.0532 -0.4639
  499MOL0     C67244   7.744   3.632   2.022 -0.3053  0.2181  0.5258
  499MOL0     C67245   7.843   3.579   1.913 -0.5296  1.0371  0.1884
  499MOL0     C67246   7.990   3.596   1.959 -0.7053  0.5169 -0.4478
  499MOL0     N67247   8.077   3.570   1.840 -0.5362 -0.2055 -0.2819
  499MOL0     C67248   8.159   3.660   1.779 -0.0889  0.1964 -0.1107
  499MOL0     C67249   8.204   3.598   1.674 -0.5892  0.4342  0.4415
  499MOL0     C67250   8.295   3.658   1.569  0.0315 -0.1843 -0.6044
  499MOL0     C67251   8.218   3.771   1.493  0.1791  0.1659  1.0665
  499MOL0     C67252   8.089   3.728   1.420 -0.6744  0.1858 -0.7200
  499MOL0     C67253   8.112   3.610   1.329  0.7397  0.5174  0.1543
  499MOL0     O67254   7.999   3.594   1.243 -0.3534 -0.4159  0.7270
  499MOL0     C67255   7.888   3.535   1.284  0.8404 -0.1801  0.8138
  499MOL0     C67256   7.848   3.505   1.413 -1.3593  0.2267 -0.9755
  499MOL0     C67257   7.731   3.433   1.444  0.0528 -0.0983 -0.9298
  499MOL0     C67258   7.711   3.385   1.590 -0.8594  0.2279  1.2787
  499MOL0     C67259   7.643   3.413   1.342 -0.0924  0.0475  0.3697
  499MOL0     C67260   7.511   3.355   1.361  0.3809 -0.4249  0.3128
  499MOL0     O67261   7.473   3.244   1.296 -0.0159 -0.1158  0.8934
  499MOL0     C67262   7.354   3.174   1.330 -0.4169  0.2469 -0.4171
  499MOL0     C67263   7.297   3.097   1.233  0.7102 -1.0564 -0.2079
  499MOL0     C67264   7.186   3.025   1.263  1.1453  0.1698 -0.7838
  499MOL0     C67265   7.123   3.021   1.391  0.6937  0.4657  0.5415
  499MOL0     O67266   7.010   2.952   1.406 -0.2545 -0.0733  0.7388
  499MOL0     C67267   6.955   2.946   1.535  0.0549 -0.1765 -0.4947
  499MOL0     C67268   6.834   2.858   1.530  0.3808 -0.6840 -0.0514
  499MOL0     C67269   6.725   2.917   1.440  0.0591  0.0444 -0.6594
  499MOL0     C67270   6.591   2.855   1.476  0.3299 -0.3982 -0.5768
  499MOL0     C67271   6.577   2.710   1.426  0.9651 -0.8297 -0.0157
  499MOL0     C67272   6.426   2.652   1.426 -0.7849  0.3782 -0.5345
  499MOL0     C67273   6.323   2.749   1.365  0.2451  0.3076 -0.1382
  499MOL0     C67274   6.187   2.686   1.344  1.2000 -0.1189  0.2346
  499MOL0    Cl67275   6.111   2.652   1.501  0.1127  0.1041 -0.4157
  499MOL0     C67276   7.182   3.103   1.493 -0.3390  0.2538 -0.7822
  499MOL0     C67277   7.301   3.170   1.461  0.0928  0.4778 -0.4037
  499MOL0     O67278   7.435   3.430   1.425 -0.9615 -0.1806 -0.0632
  499MOL0     C67279   7.678   3.438   1.203  0.0853 -0.4255 -0.3107
  499MOL0     C67280   7.801   3.500   1.175  0.7108 -0.2701  1.3110
  499MOL0     N67281   8.139   3.470   1.661  0.6803  0.8534 -0.4822
  499MOL0     N67282   8.062   3.459   1.767  0.3120 -1.0187  0.0839
  499MOL0     C67283   7.061   2.986   2.102 -0.1864 -0.3183  0.0644
  499MOL0     C67284   6.988   2.875   2.055 -0.7769 -0.0640  0.9344
  499MOL0     C67285   6.738   2.591   1.804  0.0716  1.0236  0.3258
  499MOL0     C67286   6.798   2.501   1.720 -0.1231  0.3193  0.3888
  499MOL0     C67287   6.727   2.419   1.632  0.0993 -0.2861 -0.3334
  499MOL0     C67288   6.591   2.392   1.660 -0.1344  0.6897  0.0953
  499MOL0     O67289   6.525   2.292   1.582 -0.6226  0.0820 -0.4915
  499MOL0     C67290   6.565   2.269   1.445 -0.8750 -0.4703 -0.3156
  499MOL0     C67291   6.452   2.177   1.391  0.3467 -0.1366 -0.0370
  499MOL0     C67292   6.311   2.246   1.392 -0.1038  0.4519 -0.3394
  499MOL0     C67293   6.198   2.139   1.388  0.3490 -0.8469 -0.3217
  499MOL0     C67294   6.192   2.063   1.261  0.5601  0.6193  0.6925
  499MOL0     C67295   6.215   2.009   1.155 -0.9127 -0.1839  0.3468
  499MOL0     C67296   6.521   2.473   1.745 -0.4426 -0.6750 -0.3438
  499MOL0     C67297   6.598   2.565   1.822  0.1827 -0.9549  0.3369
  499MOL0     H67298   7.166   2.832   1.768  2.3164  1.1592  0.0836
  499MOL0     H67299   7.275   3.023   1.845  2.3802 -2.3385  0.7095
  499MOL0     H67300   7.421   3.137   2.096  1.2559  0.0723 -2.1062
  499MOL0     H67301   7.358   3.188   1.939 -2.9760 -2.8125 -0.8615
  499MOL0     H67302   7.266   3.388   2.094 -1.1315 -3.2266  0.8284
  499MOL0     H67303   7.406   3.348   2.202 -0.8774  0.5134 -0.3429
  499MOL0     H67304   7.444   3.437   1.926  1.8397  0.3824 -0.8321
  499MOL0     H67305   7.458   3.546   2.061  4.8055  0.5487 -2.1914
  499MOL0     H67306   7.602   3.309   2.107 -0.8863 -1.9685 -2.6205
  499MOL0     H67307   7.651   3.385   1.948  2.5860  2.3893 -0.1312
  499MOL0     H67308   7.639   3.580   2.197  0.5754  1.9764 -1.6604
  499MOL0     H67309   7.779   3.480   2.161  1.0350  0.4029 -1.3323
  499MOL0     H67310   7.653   3.666   1.970 -0.6875 -1.2866  0.1543
  499MOL0     H67311   7.782   3.724   2.065  2.1976  0.9008 -2.7521
  499MOL0     H67312   7.843   3.477   1.873  2.5273  1.1762 -0.3977
  499MOL0     H67313   7.829   3.646   1.828 -2.3538  0.7134  0.1939
  499MOL0     H67314   8.024   3.535   2.042  0.0180  0.8095 -0.5194
  499MOL0     H67315   7.998   3.699   1.996  0.2387  0.2195  0.2192
  499MOL0     H67316   8.186   3.757   1.819 -2.1972  0.5790  0.4610
  499MOL0     H67317   8.369   3.710   1.630 -1.8849 -0.1033  1.7807
  499MOL0     H67318   8.341   3.575   1.514  2.4936 -0.8155  2.1131
  499MOL0     H67319   8.291   3.800   1.417  1.6336 -0.1410  2.3024
  499MOL0     H67320   8.196   3.864   1.546 -1.2084 -0.0446  0.8974
  499MOL0     H67321   8.045   3.810   1.363 -0.2026  1.3756  0.5496
  499MOL0     H67322   8.014   3.703   1.497 -0.5891 -1.8156 -1.2320
  499MOL0     H67323   8.128   3.530   1.403  2.4017 -0.0775 -0.7953
  499MOL0     H67324   8.207   3.618   1.274  1.9243  1.0946  2.1627
  499MOL0     H67325   7.901   3.533   1.504 -1.3572  0.0076 -0.9082
  499MOL0     H67326   7.633   3.440   1.643 -0.3718  1.5696  0.6589
  499MOL0     H67327   7.677   3.281   1.586 -2.0802  0.6120 -2.1744
  499MOL0     H67328   7.807   3.383   1.643 -1.0921 -1.1158  1.6817
  499MOL0     H67329   7.344   3.105   1.135  0.9291 -1.0821 -0.1063
  499MOL0     H67330   7.144   2.962   1.186  0.6359  0.0073 -0.3782
  499MOL0     H67331   7.030   2.893   1.594  0.9413  0.7711 -0.7425
  499MOL0     H67332   6.928   3.043   1.578 -1.1001  0.2366 -2.0518
  499MOL0     H67333   6.866   2.761   1.490  1.9835  0.2338 -1.0920
  499MOL0     H67334   6.795   2.843   1.631 -0.4515 -0.8830 -0.3887
  499MOL0     H67335   6.737   2.891   1.334 -5.5124  0.5920 -1.7545
  499MOL0     H67336   6.712   3.023   1.459 -2.0560 -0.0547 -1.3414
  499MOL0     H67337   6.573   2.849   1.584 -3.7006 -1.2172 -1.1255
  499MOL0     H67338   6.513   2.921   1.439  0.4784  0.3466  0.4028
  499MOL0     H67339   6.639   2.636   1.477  2.2405 -1.1435 -1.8960
  499MOL0     H67340   6.613   2.710   1.322  0.8400  1.3057 -0.0951
  499MOL0     H67341   6.432   2.561   1.365  2.6558 -0.0346  0.1745
  499MOL0     H67342   6.393   2.611   1.522 -1.8893 -3.2589 -2.2800
  499MOL0     H67343   6.363   2.783   1.269 -0.3225 -1.3427 -0.9978
  499MOL0     H67344   6.312   2.829   1.438  1.6069  0.7451 -0.3926
  499MOL0     H67345   6.188   2.589   1.294  0.5895  0.8568 -1.7961
  499MOL0     H67346   6.140   2.756   1.273  1.7843 -1.8302 -1.9558
  499MOL0     H67347   7.145   3.108   1.595  0.0496 -1.0348 -0.5570
  499MOL0     H67348   7.345   3.232   1.539  1.6064 -2.5360  1.3613
  499MOL0     H67349   7.617   3.402   1.121  2.9246 -2.6795 -1.6593
  499MOL0     H67350   7.844   3.514   1.077  0.0008 -0.8812  0.9053
  499MOL0     H67351   7.038   3.028   2.200 -3.3453 -0.2979 -0.5537
  499MOL0     H67352   6.912   2.822   2.110  0.3942 -3.5792 -0.5680
  499MOL0     H67353   6.905   2.488   1.713 -0.0758  0.8910 -0.0283
  499MOL0     H67354   6.793   2.356   1.573 -0.7075  0.5551 -2.1700
  499MOL0     H67355   6.565   2.363   1.388 -0.1563 -1.0326 -1.2651
  499MOL0     H67356   6.664   2.224   1.433 -1.5563 -1.5631 -2.1166
  499MOL0     H67357   6.450   2.092   1.460 -0.9322  0.2101  0.3756
  499MOL0     H67358   6.472   2.138   1.291  0.3954  0.1854 -0.1530
  499MOL0     H67359   6.303   2.311   1.305  1.1217  2.3346  0.8867
  499MOL0     H67360   6.303   2.316   1.475 -0.8609 -0.1446  0.1131
  499MOL0     H67361   6.101   2.188   1.404  1.0524  0.0175  1.7571
  499MOL0     H67362   6.206   2.067   1.470  1.0018  1.1387  1.4567
  499MOL0     H67363   6.243   1.959   1.065  1.0849  1.2063  0.1135
  499MOL0     H67364   6.413   2.477   1.754 -0.5633 -1.7940 -1.0652
  499MOL0     H67365   6.539   2.630   1.887  1.9662  0.5999  0.5123
  500MOL0     O67366   7.456   8.282   8.028 -1.0707  0.1644 -0.0596
  500MOL0     C67367   7.507   8.346   8.120 -0.4622 -0.0544 -0.0015
  500MOL0     O67368   7.434   8.435   8.205 -0.2435 -0.4437  0.4431
  500MOL0     C67369   7.299   8.462   8.181 -0.6570  0.3708 -0.5188
  500MOL0     C67370   7.205   8.357   8.164 -0.0670 -0.1229  0.3871
  500MOL0     C67371   7.069   8.375   8.146  0.3691  0.6167  0.6123
  500MOL0     C67372   7.015   8.506   8.145 -0.6366  0.9839  0.9501
  500MOL0     O67373   6.879   8.519   8.117 -0.8737 -0.1315  0.5557
  500MOL0     C67374   6.847   8.658   8.099  1.0703  0.1026  0.3741
  500MOL0     C67375   6.709   8.676   8.032 -0.6596 -0.1794 -0.4354
  500MOL0     C67376   6.594   8.606   8.119 -1.0373  0.4559  0.4673
  500MOL0     C67377   6.475   8.569   8.035 -0.2685  0.5629 -0.5124
  500MOL0     C67378   6.453   8.419   8.022  0.5527  0.0549  0.1350
  500MOL0     C67379   6.315   8.415   7.958  0.3331  0.0199  0.2122
  500MOL0     C67380   6.284   8.270   7.913  0.5818  0.2212 -0.1021
  500MOL0     C67381   6.136   8.248   7.920  0.1299  0.0504 -0.2890
  500MOL0     N67382   6.056   8.315   7.823  0.5474 -0.1967 -0.3497
  500MOL0     C67383   5.960   8.409   7.854 -0.7160 -1.3264 -0.9486
  500MOL0     C67384   5.898   8.436   7.743 -0.4913 -1.0051 -0.6293
  500MOL0     C67385   5.774   8.527   7.729 -0.6836  0.0549 -0.0134
  500MOL0     C67386   5.659   8.472   7.814 -0.2141  0.2675  0.2893
  500MOL0     C67387   5.550   8.575   7.851  0.1934 -0.0179  0.3043
  500MOL0     C67388   5.584   8.652   7.979  0.1733  0.6373 -0.6341
  500MOL0     O67389   5.487   8.744   8.015  0.3690 -0.1301  0.0859
  500MOL0     C67390   5.376   8.684   8.059  0.8596 -0.0508 -0.7818
  500MOL0     C67391   5.269   8.656   7.974 -0.4135 -0.5063 -0.3280
  500MOL0     C67392   5.148   8.610   8.011  0.2221  0.8138 -0.2318
  500MOL0     C67393   5.063   8.568   7.901  0.2771 -0.4036 -1.0554
  500MOL0     C67394   5.119   8.587   8.152  0.3936  0.5821  0.8133
  500MOL0     C67395   4.997   8.538   8.205 -0.0882 -0.1190 -0.4858
  500MOL0     O67396   4.871   8.557   8.153  0.2636 -0.3711 -0.3099
  500MOL0     C67397   4.774   8.461   8.192 -0.4915 -0.5516 -0.2935
  500MOL0     C67398   4.693   8.478   8.303 -0.3840  0.9836  0.0133
  500MOL0     C67399   4.589   8.393   8.331 -0.4425 -0.1143  0.2482
  500MOL0     C67400   4.566   8.278   8.261 -0.2544  1.0833 -0.1658
  500MOL0     O67401   4.466   8.185   8.300 -0.2847 -0.2271  0.5807
  500MOL0     C67402   4.334   8.254   8.294 -0.5730  0.0730 -0.6983
  500MOL0     C67403   4.210   8.172   8.348 -0.3070  0.0475 -0.1541
  500MOL0     C67404   4.077   8.244   8.338  0.8639  0.5817  0.5356
  500MOL0     C67405   4.053   8.343   8.455 -0.6812  0.0556  0.1970
  500MOL0     C67406   3.903   8.384   8.463 -0.0687  0.4754 -0.6052
  500MOL0     C67407   3.841   8.461   8.345 -0.2706 -0.0423  0.2723
  500MOL0     C67408   3.931   8.576   8.285 -0.3752  0.3327 -1.0581
  500MOL0     C67409   3.826   8.671   8.225 -0.3589  0.4365 -0.5355
  500MOL0    Cl67410   3.742   8.593   8.083 -0.0594 -0.1277  0.3634
  500MOL0     C67411   4.655   8.251   8.153 -0.9858 -0.9270 -0.9481
  500MOL0     C67412   4.751   8.343   8.115 -0.7397  0.2588 -0.2303
  500MOL0     O67413   5.014   8.487   8.312  0.0073  0.1485  0.5497
  500MOL0     C67414   5.240   8.602   8.235 -0.3645 -0.3020 -0.5162
  500MOL0     C67415   5.358   8.649   8.193  0.4545 -0.8544 -0.6036
  500MOL0     N67416   5.961   8.362   7.642 -0.0506  0.2906  0.0667
  500MOL0     N67417   6.049   8.286   7.690  0.2289  0.6220 -0.1116
  500MOL0     C67418   7.107   8.610   8.174  0.0846  0.6205  0.1774
  500MOL0     C67419   7.245   8.585   8.192  0.4117 -0.0295 -0.4542
  500MOL0     C67420   7.646   8.323   8.159  0.4327  0.9509  0.1171
  500MOL0     C67421   7.717   8.198   8.136 -0.0192 -0.7351  0.2114
  500MOL0     C67422   7.836   8.180   8.194  0.6692 -0.2251  0.0865
  500MOL0     C67423   7.902   8.274   8.280  0.8769  0.0516  0.4382
  500MOL0     O67424   8.033   8.250   8.312  0.4612  0.0366  0.1542
  500MOL0     C67425   8.112   8.362   8.344  0.0129  0.2599  0.3635
  500MOL0     C67426   8.249   8.308   8.388 -0.0053  0.5060 -0.9678
  500MOL0     C67427   8.303   8.357   8.516 -0.6420 -0.3026 -0.4439
  500MOL0     C67428   8.389   8.254   8.590  0.5015 -0.3561 -0.8054
  500MOL0     C67429   8.298   8.182   8.673  0.8413  0.5520 -0.0179
  500MOL0     C67430   8.222   8.116   8.750  0.7015  0.2608 -0.8842
  500MOL0     C67431   7.831   8.392   8.308 -0.4529  1.9973  0.1575
  500MOL0     C67432   7.711   8.408   8.248 -0.1993 -0.0765  0.2392
  500MOL0     H67433   7.238   8.255   8.150 -0.2362 -0.2131  0.6472
  500MOL0     H67434   7.004   8.290   8.129 -0.4646  1.0888  1.3411
  500MOL0     H67435   6.844   8.702   8.199 -2.9214  0.5455  0.2246
  500MOL0     H67436   6.915   8.704   8.028 -0.3811  2.1662  0.2376
  500MOL0     H67437   6.686   8.782   8.027  0.1756 -0.0474 -1.8151
  500MOL0     H67438   6.712   8.627   7.934 -1.0119  0.7060 -0.8968
  500MOL0     H67439   6.644   8.515   8.154  0.9092  1.3676  0.1801
  500MOL0     H67440   6.575   8.674   8.202  3.3223  0.2618  1.8841
  500MOL0     H67441   6.391   8.626   8.075 -1.3048  0.3203 -2.2768
  500MOL0     H67442   6.490   8.600   7.931  0.9544 -0.8503 -0.7880
  500MOL0     H67443   6.527   8.372   7.957  0.0699  0.4229 -0.6960
  500MOL0     H67444   6.449   8.375   8.123  2.3221 -1.1651 -0.2666
  500MOL0     H67445   6.245   8.448   8.034 -0.8359 -3.9055  1.0569
  500MOL0     H67446   6.317   8.473   7.865  0.8767 -1.7792 -0.9610
  500MOL0     H67447   6.309   8.248   7.809 -2.1476  1.7454 -1.1570
  500MOL0     H67448   6.334   8.196   7.977  1.3805  0.6724 -0.1786
  500MOL0     H67449   6.095   8.264   8.020 -0.0293 -0.8365 -0.2073
  500MOL0     H67450   6.113   8.144   7.898 -1.0410  0.4120 -0.8623
  500MOL0     H67451   5.924   8.448   7.948 -0.7065  0.4145 -1.6247
  500MOL0     H67452   5.811   8.625   7.760  3.0783  0.0964 -3.7135
  500MOL0     H67453   5.739   8.531   7.625  0.5026 -0.5805 -0.4562
  500MOL0     H67454   5.696   8.426   7.906 -1.0229  0.0137  0.4965
  500MOL0     H67455   5.612   8.384   7.767 -0.4699 -0.2002  1.3978
  500MOL0     H67456   5.457   8.519   7.865  1.9780 -3.4292 -0.4131
  500MOL0     H67457   5.537   8.643   7.766 -1.6005  1.4698  1.7051
  500MOL0     H67458   5.671   8.716   7.962 -1.8543  3.1816 -2.2400
  500MOL0     H67459   5.605   8.576   8.055  2.3530  1.4286 -0.3927
  500MOL0     H67460   5.297   8.678   7.872  1.7912  0.6691  0.4620
  500MOL0     H67461   5.007   8.653   7.861 -0.1484 -0.6463 -0.9862
  500MOL0     H67462   5.113   8.522   7.815  1.6950  0.8671 -0.9491
  500MOL0     H67463   4.999   8.481   7.918 -1.1210  0.3180 -2.3306
  500MOL0     H67464   4.712   8.568   8.361  1.9710  0.6280 -0.1228
  500MOL0     H67465   4.529   8.410   8.420  2.1167  0.2900  2.0097
  500MOL0     H67466   4.326   8.349   8.349 -0.6841 -1.3590  1.9481
  500MOL0     H67467   4.320   8.277   8.188  0.6690 -1.2693 -1.1770
  500MOL0     H67468   4.210   8.083   8.285  1.4409  0.4503 -0.7928
  500MOL0     H67469   4.241   8.135   8.446  0.9193 -1.4232 -1.0487
  500MOL0     H67470   4.007   8.160   8.344 -1.3308  1.9685 -2.5595
  500MOL0     H67471   4.071   8.299   8.243  1.0934 -0.2446  0.0388
  500MOL0     H67472   4.099   8.292   8.540 -1.8395 -2.6967 -0.7319
  500MOL0     H67473   4.107   8.437   8.437 -1.3506 -0.0077 -2.6125
  500MOL0     H67474   3.904   8.453   8.548  1.8198  0.5104 -0.6150
  500MOL0     H67475   3.841   8.295   8.476 -0.5879  0.7528 -1.1252
  500MOL0     H67476   3.813   8.390   8.266  2.1449 -1.8057  0.8786
  500MOL0     H67477   3.747   8.494   8.390 -1.3294 -2.0795 -0.3002
  500MOL0     H67478   4.009   8.542   8.216  0.0447 -1.5506  0.2818
  500MOL0     H67479   3.985   8.625   8.366 -1.3293 -0.0344 -0.1876
  500MOL0     H67480   3.878   8.762   8.193 -0.0560 -0.4995 -2.9055
  500MOL0     H67481   3.762   8.702   8.308  1.4391 -0.2029  1.1840
  500MOL0     H67482   4.648   8.156   8.100 -2.1748 -1.2531 -0.2558
  500MOL0     H67483   4.819   8.319   8.034 -1.2090 -2.0867 -0.0084
  500MOL0     H67484   5.224   8.584   8.341 -0.9479  5.3476  0.6785
  500MOL0     H67485   5.441   8.680   8.256 -1.4419  3.3747  0.1358
  500MOL0     H67486   7.073   8.713   8.176  0.0445  0.7224 -2.1013
  500MOL0     H67487   7.312   8.669   8.207 -2.8476  3.0900 -1.8064
  500MOL0     H67488   7.671   8.120   8.075 -2.6188  2.0451 -1.7078
  500MOL0     H67489   7.878   8.081   8.181  2.3297  0.3267  0.9242
  500MOL0     H67490   8.118   8.433   8.261  0.4795  1.5068  1.4210
  500MOL0     H67491   8.074   8.423   8.426  0.6061 -2.0436  2.4941
  500MOL0     H67492   8.313   8.344   8.307  0.3893  1.2913 -0.3210
  500MOL0     H67493   8.256   8.199   8.384 -0.5056  0.4810 -1.3736
  500MOL0     H67494   8.217   8.382   8.580 -1.4188 -0.8098 -1.2750
  500MOL0     H67495   8.363   8.449   8.520 -2.0605  0.6368  2.1601
  500MOL0     H67496   8.454   8.303   8.664 -2.0428  1.3939  0.4245
  500MOL0     H67497   8.452   8.195   8.523  0.5068 -0.6614 -0.5345
  500MOL0     H67498   8.146   8.060   8.801  2.3375  0.5633  2.1764
  500MOL0     H67499   7.877   8.471   8.366 -0.8879  1.5903  1.0700
  500MOL0     H67500   7.646   8.491   8.274  0.8298  0.9668 -0.4717
  501MOL0     O67501   7.233   9.029   5.111  0.3293 -0.2976  0.0920
  501MOL0     C67502   7.283   9.094   5.203 -0.8363  0.4625 -0.0522
  501MOL0     O67503   7.269   9.069   5.334  0.4179 -0.0390  0.2780
  501MOL0     C67504   7.150   9.006   5.378  0.0174 -0.1865  0.0344
  501MOL0     C67505   7.026   9.010   5.312  0.8288 -0.3291 -0.8102
  501MOL0     C67506   6.908   8.958   5.374 -0.6197 -0.0514 -0.0187
  501MOL0     C67507   6.922   8.902   5.506  0.1571  0.7651 -0.4517
  501MOL0     O67508   6.830   8.824   5.574 -0.1019 -0.4872 -0.3145
  501MOL0     C67509   6.695   8.822   5.517  0.0326  0.0909  0.1025
  501MOL0     C67510   6.605   8.717   5.579 -0.7993  0.3017  0.4548
  501MOL0     C67511   6.485   8.680   5.492 -1.1434 -0.5062  0.5968
  501MOL0     C67512   6.401   8.576   5.560 -0.9126  0.3961 -0.3385
  501MOL0     C67513   6.302   8.506   5.472 -0.2526 -0.0068 -0.6437
  501MOL0     C67514   6.181   8.595   5.428  0.0267  0.7538  0.9987
  501MOL0     C67515   6.095   8.535   5.318 -0.3394  0.1445 -0.1313
  501MOL0     C67516   6.001   8.417   5.355 -0.6987 -0.3665 -0.0698
  501MOL0     N67517   5.928   8.382   5.232  0.1397  0.5722 -0.1105
  501MOL0     C67518   5.981   8.354   5.109 -0.0269 -0.3175 -0.2226
  501MOL0     C67519   5.874   8.322   5.030  0.3749 -0.8317 -0.0895
  501MOL0     C67520   5.869   8.295   4.885 -0.4649 -0.0314  0.1344
  501MOL0     C67521   5.888   8.144   4.862  0.8845  0.8658  0.3880
  501MOL0     C67522   5.753   8.073   4.835  0.9527  0.0558  0.4083
  501MOL0     C67523   5.783   7.935   4.787  0.3006  0.0858  0.6702
  501MOL0     O67524   5.663   7.846   4.778 -0.1062 -0.3020 -0.4537
  501MOL0     C67525   5.577   7.842   4.667  0.5582  0.2003 -0.4661
  501MOL0     C67526   5.473   7.756   4.693  0.8014  0.2444  0.1669
  501MOL0     C67527   5.371   7.735   4.597 -0.4127  0.3618  0.1838
  501MOL0     C67528   5.263   7.627   4.632 -0.3902 -0.5871  0.3336
  501MOL0     C67529   5.389   7.797   4.464  0.1696 -0.7060 -0.7860
  501MOL0     C67530   5.289   7.785   4.360  0.2279 -0.2935  0.2621
  501MOL0     O67531   5.185   7.701   4.382  0.0993 -0.4559 -0.3885
  501MOL0     C67532   5.080   7.699   4.291 -0.2739  0.6129 -0.0740
  501MOL0     C67533   5.009   7.811   4.244  0.3478  0.4666 -0.1105
  501MOL0     C67534   4.888   7.796   4.169  0.0969 -0.0060 -0.7934
  501MOL0     C67535   4.834   7.664   4.149 -0.1057 -0.3851  0.1778
  501MOL0     O67536   4.718   7.650   4.074  0.6578 -0.2619  0.6332
  501MOL0     C67537   4.694   7.512   4.029 -0.2581  0.2946 -0.8402
  501MOL0     C67538   4.574   7.505   3.931 -0.4118  0.3387 -0.1288
  501MOL0     C67539   4.439   7.523   4.000 -0.2116  0.2657 -0.2970
  501MOL0     C67540   4.320   7.482   3.914 -0.4969  0.0399 -0.0558
  501MOL0     C67541   4.189   7.461   3.996  0.5474 -0.1944  1.2373
  501MOL0     C67542   4.061   7.472   3.905 -0.6295  0.1772  0.1679
  501MOL0     C67543   4.033   7.331   3.841  0.4114 -0.3734  0.7488
  501MOL0     C67544   3.906   7.341   3.750  0.3337 -0.2908 -0.0976
  501MOL0    Cl67545   3.761   7.397   3.853  0.0690 -0.0790 -0.3106
  501MOL0     C67546   4.905   7.559   4.210  0.6352  0.3060  0.1557
  501MOL0     C67547   5.019   7.572   4.283 -0.1284  0.3497 -0.1868
  501MOL0     O67548   5.314   7.849   4.256  0.2508 -0.2224 -0.8120
  501MOL0     C67549   5.503   7.883   4.447  0.7291  1.3022 -0.4793
  501MOL0     C67550   5.588   7.915   4.549 -0.3373  0.8666 -0.3453
  501MOL0     N67551   5.770   8.306   5.117  1.4671 -0.1820  1.1919
  501MOL0     N67552   5.804   8.335   5.234 -0.2657 -0.1468 -0.3870
  501MOL0     C67553   7.045   8.910   5.567  0.6327  0.3226  0.1278
  501MOL0     C67554   7.159   8.964   5.507  0.1290 -0.2935 -0.6320
  501MOL0     C67555   7.390   9.197   5.165 -1.1244 -0.7935 -1.2061
  501MOL0     C67556   7.502   9.209   5.247 -0.1008 -0.5193  0.0074
  501MOL0     C67557   7.597   9.313   5.217 -0.4586 -0.2859 -0.4325
  501MOL0     C67558   7.580   9.392   5.104  0.6913 -0.3809 -0.3438
  501MOL0     O67559   7.652   9.497   5.067 -0.3633 -0.3444  0.4960
  501MOL0     C67560   7.770   9.518   5.144  0.0316  0.6480 -0.4568
  501MOL0     C67561   7.842   9.632   5.087 -0.1135 -0.2816  0.2983
  501MOL0     C67562   7.877   9.628   4.939 -1.3435 -1.4539  0.2401
  501MOL0     C67563   7.950   9.761   4.898  0.1135  0.0434  0.4645
  501MOL0     C67564   8.072   9.796   4.975 -0.2375 -0.0502 -0.0416
  501MOL0     C67565   8.165   9.815   5.053 -0.0405 -0.0275 -0.3423
  501MOL0     C67566   7.467   9.374   5.012 -0.4987  0.3169 -0.5073
  501MOL0     C67567   7.379   9.273   5.048  1.0157 -0.6854 -0.1413
  501MOL0     H67568   7.002   9.049   5.214 -1.5383  3.8590  1.1753
  501MOL0     H67569   6.815   8.962   5.318 -2.2462 -0.3060  2.5099
  501MOL0     H67570   6.653   8.919   5.546  2.6040  1.1650  0.4881
  501MOL0     H67571   6.692   8.816   5.407  0.3975  2.2128 -0.0785
  501MOL0     H67572   6.672   8.631   5.586 -0.2591  0.1211 -4.1948
  501MOL0     H67573   6.573   8.749   5.679 -2.2177 -2.5818  1.0023
  501MOL0     H67574   6.439   8.779   5.479  1.2753  1.1268  3.3262
  501MOL0     H67575   6.507   8.638   5.394 -0.8946 -1.5208  1.0825
  501MOL0     H67576   6.462   8.495   5.602  1.1902 -0.7215 -4.8638
  501MOL0     H67577   6.342   8.624   5.638 -0.3429  0.2693  0.1773
  501MOL0     H67578   6.356   8.451   5.394 -0.8305 -0.1489 -0.9468
  501MOL0     H67579   6.260   8.424   5.530  0.0434  1.5596  1.9115
  501MOL0     H67580   6.120   8.615   5.517 -1.6091  0.3486  0.0015
  501MOL0     H67581   6.212   8.689   5.382 -0.9852 -1.2601 -4.5851
  501MOL0     H67582   6.034   8.616   5.276 -0.7212  0.9632  1.9001
  501MOL0     H67583   6.156   8.498   5.235 -0.3902 -0.4114  0.0751
  501MOL0     H67584   5.927   8.440   5.433  1.0449  1.6993  1.0604
  501MOL0     H67585   6.065   8.335   5.388 -0.2042  0.5594  1.3918
  501MOL0     H67586   6.084   8.361   5.075 -0.3356 -0.9418 -1.3365
  501MOL0     H67587   5.773   8.320   4.840 -1.5913 -1.5053  1.6101
  501MOL0     H67588   5.939   8.358   4.829 -0.3301  1.3235  1.7663
  501MOL0     H67589   5.931   8.104   4.955  1.8584  0.8232 -0.0760
  501MOL0     H67590   5.958   8.122   4.781  1.5520  2.7539  0.4217
  501MOL0     H67591   5.693   8.134   4.767  1.2936 -0.2696 -0.1839
  501MOL0     H67592   5.706   8.073   4.934  3.3528  0.9596  1.6321
  501MOL0     H67593   5.862   7.889   4.847  1.2862  1.6016  0.5927
  501MOL0     H67594   5.829   7.938   4.688 -0.5980 -0.7221  0.2109
  501MOL0     H67595   5.454   7.712   4.791 -2.2634 -0.6339 -0.7038
  501MOL0     H67596   5.282   7.572   4.725 -0.2608 -2.3569 -0.7123
  501MOL0     H67597   5.164   7.669   4.611  1.1266  3.3314  0.2423
  501MOL0     H67598   5.279   7.547   4.560  2.0752  0.0422  0.1029
  501MOL0     H67599   5.059   7.905   4.265 -1.2507  0.2990  6.3998
  501MOL0     H67600   4.848   7.889   4.129 -2.7558 -0.4429  0.7952
  501MOL0     H67601   4.776   7.482   3.964 -0.3093 -0.2626 -0.6573
  501MOL0     H67602   4.667   7.439   4.106 -0.3673  1.5698  0.3610
  501MOL0     H67603   4.588   7.578   3.851 -0.4657 -1.6035 -1.9978
  501MOL0     H67604   4.576   7.402   3.897 -1.8456  0.4861 -0.7557
  501MOL0     H67605   4.425   7.625   4.035 -0.0705 -0.0790  0.8056
  501MOL0     H67606   4.443   7.460   4.089  2.0008  2.7067  1.4421
  501MOL0     H67607   4.296   7.553   3.834 -0.8234 -0.1350 -0.1166
  501MOL0     H67608   4.347   7.398   3.849  0.5375 -0.1277  0.5763
  501MOL0     H67609   4.177   7.536   4.075 -0.4752  1.0898 -0.1045
  501MOL0     H67610   4.188   7.359   4.035  0.1928 -1.5319 -2.0081
  501MOL0     H67611   3.977   7.495   3.972  0.2257  0.1116  1.2966
  501MOL0     H67612   4.075   7.547   3.827  1.0374  0.1655  0.4203
  501MOL0     H67613   4.006   7.271   3.928  1.1153  1.3504  2.2345
  501MOL0     H67614   4.115   7.284   3.786  0.5666 -1.2943  1.7442
  501MOL0     H67615   3.898   7.241   3.705  0.1225  0.1865 -1.1522
  501MOL0     H67616   3.912   7.414   3.669 -4.6871  1.5313  0.8025
  501MOL0     H67617   4.858   7.462   4.225 -1.6999  1.3276 -0.1673
  501MOL0     H67618   5.078   7.489   4.320  0.4783  1.3990  1.3078
  501MOL0     H67619   5.502   7.939   4.354 -0.4150 -0.0211 -1.3052
  501MOL0     H67620   5.661   7.995   4.542 -1.0482  1.6555  0.9454
  501MOL0     H67621   7.064   8.858   5.660 -0.7085  0.1615  0.3303
  501MOL0     H67622   7.252   8.970   5.563 -1.2479 -0.6702  1.8721
  501MOL0     H67623   7.514   9.150   5.337 -3.9165  2.1134  2.4802
  501MOL0     H67624   7.678   9.337   5.286 -0.5444 -0.9699 -0.0809
  501MOL0     H67625   7.744   9.547   5.246 -1.3677  3.5302 -1.5172
  501MOL0     H67626   7.829   9.425   5.145  0.1989  0.7499 -0.6788
  501MOL0     H67627   7.935   9.641   5.142  0.6563  0.4892 -1.0800
  501MOL0     H67628   7.780   9.722   5.095 -0.5549 -0.2826 -2.2287
  501MOL0     H67629   7.786   9.626   4.879 -0.7859 -0.7814 -0.6584
  501MOL0     H67630   7.941   9.542   4.916  1.5920  0.4770  0.6127
  501MOL0     H67631   7.884   9.845   4.922  0.1061 -0.7395  3.5472
  501MOL0     H67632   7.978   9.754   4.792  0.2716 -1.9998  0.6081
  501MOL0     H67633   8.240   9.831   5.128 -0.5407  0.2904  0.1042
  501MOL0     H67634   7.463   9.428   4.918  0.3058  0.7098 -0.3348
  501MOL0     H67635   7.289   9.259   4.989  1.8419  1.2250 -1.9564
  502MOL0     O67636   2.354   1.561  10.237 -0.0073 -0.8431 -0.0611
  502MOL0     C67637   2.367   1.651  10.158 -0.6375 -0.4239 -0.3727
  502MOL0     O67638   2.272   1.699  10.083  0.8363  0.1529  0.0572
  502MOL0     C67639   2.145   1.644  10.078  0.8423 -0.0617 -0.1192
  502MOL0     C67640   2.035   1.706  10.140 -1.0020 -0.0668 -0.1736
  502MOL0     C67641   1.909   1.647  10.112  0.1956  0.6040 -0.3054
  502MOL0     C67642   1.886   1.534  10.024 -0.0771 -0.4217  0.8560
  502MOL0     O67643   1.761   1.492   9.987 -0.0214  0.3407  0.4001
  502MOL0     C67644   1.647   1.554  10.038  1.0254  0.8911  0.2261
  502MOL0     C67645   1.515   1.478   9.993 -0.7784  0.9261 -0.6922
  502MOL0     C67646   1.516   1.327  10.023  0.3014  0.3306  0.0730
  502MOL0     C67647   1.382   1.262   9.994  0.2237 -0.0939 -0.2813
  502MOL0     C67648   1.331   1.278   9.846 -0.3911 -0.5512 -0.4468
  502MOL0     C67649   1.232   1.159   9.806 -0.1740  0.1991 -0.2565
  502MOL0     C67650   1.192   1.160   9.655  0.4910 -0.4310 -0.1270
  502MOL0     C67651   1.099   1.046   9.635 -0.0001  0.2016  0.0095
  502MOL0     N67652   1.031   1.032   9.505  0.4418 -0.4456  0.7059
  502MOL0     C67653   0.926   1.114   9.462 -0.2516  0.4655  0.1213
  502MOL0     C67654   0.901   1.059   9.333 -1.4061 -0.6612 -0.5613
  502MOL0     C67655   0.782   1.114   9.251 -0.2043 -0.2530 -0.6281
  502MOL0     C67656   0.825   1.208   9.143  0.2485  0.6270  0.0948
  502MOL0     C67657   0.702   1.231   9.052 -0.2542 -0.2611 -0.2546
  502MOL0     C67658   0.733   1.306   8.924 -0.4852  0.3917  0.0700
  502MOL0     O67659   0.660   1.248   8.811  0.0629  0.4651 -0.3397
  502MOL0     C67660   0.663   1.326   8.701  0.2019 -0.6779 -0.6877
  502MOL0     C67661   0.748   1.438   8.681  0.4313 -0.1833 -0.4379
  502MOL0     C67662   0.741   1.518   8.569  0.1405 -0.0993 -0.7379
  502MOL0     C67663   0.842   1.628   8.554 -0.0912 -0.0941  0.0398
  502MOL0     C67664   0.627   1.499   8.480 -0.3069 -0.1115 -0.4192
  502MOL0     C67665   0.586   1.601   8.376 -0.7749 -0.7041 -0.2239
  502MOL0     O67666   0.466   1.572   8.317  0.2849  0.1823 -0.3992
  502MOL0     C67667   0.406   1.658   8.232  0.2984  0.0628  0.6487
  502MOL0     C67668   0.463   1.699   8.103 -0.2193  0.0712  0.5105
  502MOL0     C67669   0.386   1.773   8.019  0.8677  0.3047  0.4923
  502MOL0     C67670   0.247   1.800   8.045  0.0533  1.1368 -0.6462
  502MOL0     O67671   0.173   1.861   7.955  0.3156  0.2415  0.2085
  502MOL0     C67672   0.148   2.004   7.974  0.9125 -0.3122 -0.4085
  502MOL0     C67673   0.055   2.035   7.853 -0.2454  0.2263 -0.5113
  502MOL0     C67674  -0.073   1.950   7.838  0.5475  0.4468 -0.0158
  502MOL0     C67675  -0.180   1.993   7.728  0.4457 -0.3251 -0.4820
  502MOL0     C67676  -0.316   1.934   7.751  0.5809  0.1951  0.3118
  502MOL0     C67677  -0.398   1.956   7.881 -0.4814 -0.2085 -0.2006
  502MOL0     C67678  -0.499   2.072   7.877 -0.1909  0.1545  0.0638
  502MOL0     C67679  -0.591   2.067   8.003  0.0478 -0.9103  0.8282
  502MOL0    Cl67680  -0.700   1.919   8.011  0.6397  0.0894  0.1147
  502MOL0     C67681   0.192   1.757   8.162  0.6871  0.7024 -0.9424
  502MOL0     C67682   0.278   1.695   8.254 -0.2029  1.0400 -0.2086
  502MOL0     O67683   0.662   1.692   8.344  0.3711  0.2135  0.2869
  502MOL0     C67684   0.543   1.391   8.498 -0.7337  0.5753 -0.0437
  502MOL0     C67685   0.562   1.305   8.603 -0.5836 -0.6868  0.5994
  502MOL0     N67686   0.981   0.947   9.298  0.3245  0.8732  0.0961
  502MOL0     N67687   1.058   0.944   9.407  0.4262  0.8566  0.3044
  502MOL0     C67688   1.998   1.487   9.962  0.0454 -0.2772 -0.1001
  502MOL0     C67689   2.120   1.545   9.988 -0.4910 -0.5133 -0.1687
  502MOL0     C67690   2.493   1.725  10.173 -0.3971 -0.0750 -0.0882
  502MOL0     C67691   2.582   1.706  10.278  0.1531 -0.5847 -0.5519
  502MOL0     C67692   2.698   1.788  10.287 -0.1200 -0.0882 -0.4638
  502MOL0     C67693   2.705   1.908  10.223  0.5511  0.5663 -0.4870
  502MOL0     O67694   2.812   1.987  10.273  0.2571  1.4780 -0.6307
  502MOL0     C67695   2.856   2.092  10.191  0.2795  0.4648  0.0976
  502MOL0     C67696   2.991   2.128  10.250  0.1446 -0.0203 -0.2454
  502MOL0     C67697   3.069   2.223  10.160 -0.0433 -0.2793  0.2333
  502MOL0     C67698   2.995   2.353  10.117  0.2194 -0.2351  0.0126
  502MOL0     C67699   2.918   2.341   9.998 -0.1768  0.1217 -0.2427
  502MOL0     C67700   2.851   2.361   9.903 -0.3192 -0.3365  0.7906
  502MOL0     C67701   2.608   1.934  10.129 -0.3480 -0.2899  0.0287
  502MOL0     C67702   2.500   1.845  10.098  0.4979  0.1903  0.6066
  502MOL0     H67703   2.051   1.787  10.211  2.2467  0.7780 -1.6830
  502MOL0     H67704   1.819   1.694  10.152  0.9369  1.8960 -0.1155
  502MOL0     H67705   1.652   1.565  10.146  1.8572 -1.0674  0.4294
  502MOL0     H67706   1.643   1.655   9.996 -0.7115  0.3496 -1.0056
  502MOL0     H67707   1.428   1.512  10.051  0.8327  1.6861  1.3999
  502MOL0     H67708   1.482   1.496   9.890 -1.1587 -3.0743 -1.4225
  502MOL0     H67709   1.591   1.275   9.963 -0.3920 -1.2384  0.5217
  502MOL0     H67710   1.537   1.314  10.130 -0.9534 -2.7173  0.0289
  502MOL0     H67711   1.385   1.156  10.023 -1.2500 -0.2503 -0.6329
  502MOL0     H67712   1.316   1.313  10.065  0.1817 -0.4010 -0.0976
  502MOL0     H67713   1.277   1.373   9.837  1.5544  0.7323  0.5799
  502MOL0     H67714   1.413   1.282   9.773  0.6608  1.2746  0.7374
  502MOL0     H67715   1.289   1.071   9.837  2.5128  1.1664 -2.0105
  502MOL0     H67716   1.142   1.155   9.867  0.7376 -1.9556  1.0576
  502MOL0     H67717   1.141   1.250   9.623  1.4992 -0.7670 -2.9515
  502MOL0     H67718   1.275   1.153   9.583 -0.0125 -0.4781 -0.7088
  502MOL0     H67719   1.019   1.045   9.709 -1.7286  0.2217 -1.7662
  502MOL0     H67720   1.150   0.949   9.640 -0.8492 -0.2986 -0.7655
  502MOL0     H67721   0.876   1.189   9.522  0.1045  0.9617 -0.1966
  502MOL0     H67722   0.736   1.029   9.199  2.2168 -0.9466 -1.7655
  502MOL0     H67723   0.716   1.156   9.328  2.0033 -1.3343  2.0123
  502MOL0     H67724   0.915   1.165   9.097  0.3139 -0.3634  1.1166
  502MOL0     H67725   0.847   1.306   9.186 -3.2693  0.3299  3.0501
  502MOL0     H67726   0.633   1.296   9.106 -0.4708 -0.3362 -0.4404
  502MOL0     H67727   0.650   1.136   9.034  3.1182 -1.9571 -2.1107
  502MOL0     H67728   0.840   1.303   8.902 -0.4361 -1.9392  0.4102
  502MOL0     H67729   0.706   1.411   8.941  0.2124  0.1270  3.2632
  502MOL0     H67730   0.834   1.460   8.743 -0.4949 -1.4019  1.3610
  502MOL0     H67731   0.885   1.612   8.454  0.7238 -0.5178  0.4469
  502MOL0     H67732   0.816   1.733   8.569  3.1311  1.2950 -2.6808
  502MOL0     H67733   0.924   1.611   8.625 -0.7707 -1.1804  0.5940
  502MOL0     H67734   0.565   1.671   8.083  0.8251  1.9356  2.7707
  502MOL0     H67735   0.436   1.806   7.929  0.8057 -0.9286 -0.0168
  502MOL0     H67736   0.091   2.017   8.066 -0.7694 -0.0323 -1.4459
  502MOL0     H67737   0.240   2.064   7.964  1.4132 -1.3991 -3.6699
  502MOL0     H67738   0.029   2.142   7.856  0.6943  0.4557 -0.2447
  502MOL0     H67739   0.119   2.022   7.766 -0.1348 -0.9300 -0.2711
  502MOL0     H67740  -0.119   1.946   7.937 -1.0205 -0.1234 -0.7315
  502MOL0     H67741  -0.050   1.849   7.803 -0.2580  1.0159 -2.4059
  502MOL0     H67742  -0.180   2.103   7.726 -1.1739 -0.2020  1.8192
  502MOL0     H67743  -0.149   1.954   7.631  0.1316  0.2957 -0.8331
  502MOL0     H67744  -0.307   1.825   7.757 -2.5557 -0.1197  1.4163
  502MOL0     H67745  -0.374   1.952   7.661  1.5087  1.6187 -0.0389
  502MOL0     H67746  -0.456   1.864   7.895 -1.6019  0.5940  0.5343
  502MOL0     H67747  -0.325   1.973   7.961 -0.6468  1.3525 -0.3564
  502MOL0     H67748  -0.564   2.047   7.793  0.9390  2.3416 -1.5326
  502MOL0     H67749  -0.452   2.169   7.864  1.4827 -0.3124  2.0022
  502MOL0     H67750  -0.647   2.161   8.010  1.6202  0.1759 -0.4259
  502MOL0     H67751  -0.516   2.066   8.082  0.3726 -0.0377  0.5488
  502MOL0     H67752   0.085   1.771   8.179  0.1373 -0.4921 -3.0254
  502MOL0     H67753   0.236   1.659   8.348 -0.4672  0.6394 -0.4749
  502MOL0     H67754   0.468   1.359   8.426  0.8004 -1.5308 -0.8274
  502MOL0     H67755   0.497   1.218   8.597  1.5768 -2.3350 -3.3101
  502MOL0     H67756   1.984   1.406   9.891 -0.3874 -0.7029  0.4669
  502MOL0     H67757   2.205   1.514   9.927 -0.3614  1.3194 -0.9971
  502MOL0     H67758   2.571   1.626  10.350 -0.0958  0.9073  1.1451
  502MOL0     H67759   2.774   1.749  10.354 -1.6929  0.3120  1.6975
  502MOL0     H67760   2.875   2.062  10.088 -1.1163 -1.6806  0.4084
  502MOL0     H67761   2.778   2.169  10.194 -0.3376 -0.1623  0.4875
  502MOL0     H67762   3.056   2.041  10.256  0.5446  0.2392 -0.7301
  502MOL0     H67763   2.990   2.173  10.350 -1.6771 -0.2752 -0.1122
  502MOL0     H67764   3.099   2.171  10.069  2.6128  1.2628  0.1309
  502MOL0     H67765   3.150   2.257  10.226  1.9328  0.2474 -2.3073
  502MOL0     H67766   3.076   2.425  10.104 -0.5669  0.7430  0.4401
  502MOL0     H67767   2.935   2.392  10.199 -0.0547 -1.3902  0.3805
  502MOL0     H67768   2.779   2.385   9.827  0.3672 -0.9141 -0.0493
  502MOL0     H67769   2.596   2.030  10.079 -3.3494 -0.6758 -0.1944
  502MOL0     H67770   2.428   1.872  10.021  1.5808 -0.3757 -0.6374
  503MOL0     O67771   6.112   2.719   3.966 -0.2934 -0.3182 -0.2703
  503MOL0     C67772   6.163   2.644   3.888  0.4860  0.2568  0.1378
  503MOL0     O67773   6.101   2.548   3.812  0.4925  0.6614 -0.2618
  503MOL0     C67774   5.964   2.528   3.825 -0.0409 -0.5529 -0.1463
  503MOL0     C67775   5.913   2.403   3.811 -0.2054 -0.4405  0.8690
  503MOL0     C67776   5.778   2.383   3.814 -0.3765 -0.3438  0.2915
  503MOL0     C67777   5.689   2.488   3.809 -0.9425  0.0472  0.1864
  503MOL0     O67778   5.557   2.459   3.798  0.7594  0.2169  0.3572
  503MOL0     C67779   5.463   2.565   3.792 -0.0946  0.2967 -0.2252
  503MOL0     C67780   5.327   2.511   3.810  0.8301  0.5892  0.2439
  503MOL0     C67781   5.219   2.610   3.819  0.1755  0.3676  0.8265
  503MOL0     C67782   5.086   2.538   3.790  0.7310 -0.3548  0.4256
  503MOL0     C67783   4.964   2.635   3.826  0.0616 -0.8363  0.5788
  503MOL0     C67784   4.838   2.555   3.841  0.6308  0.1769  0.0882
  503MOL0     C67785   4.708   2.645   3.852  0.5297  0.5354  0.8088
  503MOL0     C67786   4.579   2.567   3.860  0.0800  0.0151  0.3509
  503MOL0     N67787   4.471   2.667   3.876 -0.0733  0.3973  0.1177
  503MOL0     C67788   4.375   2.719   3.786  0.0423 -0.0603 -0.2011
  503MOL0     C67789   4.287   2.799   3.860  0.5748 -0.4659 -0.3746
  503MOL0     C67790   4.185   2.884   3.805  0.7723 -0.9629 -0.2773
  503MOL0     C67791   4.052   2.813   3.810  0.6670 -0.0220  0.0916
  503MOL0     C67792   3.952   2.888   3.713  0.3355  0.5407 -0.1239
  503MOL0     C67793   3.811   2.850   3.734  0.0749 -0.9038 -0.5295
  503MOL0     O67794   3.710   2.910   3.651 -0.4027 -0.6317 -0.8925
  503MOL0     C67795   3.587   2.866   3.678 -0.0711  0.4620  0.1550
  503MOL0     C67796   3.552   2.749   3.610  0.1106  0.5711 -0.4464
  503MOL0     C67797   3.417   2.690   3.614 -0.0540 -0.1666 -0.1186
  503MOL0     C67798   3.400   2.570   3.528 -0.1537  0.3488 -0.6506
  503MOL0     C67799   3.326   2.759   3.693 -0.2230 -0.2755  0.0542
  503MOL0     C67800   3.179   2.721   3.696 -0.2251 -0.9360  0.2364
  503MOL0     O67801   3.099   2.800   3.776 -0.0990 -0.2100  0.3163
  503MOL0     C67802   2.961   2.791   3.776 -0.1672 -0.3086  0.0466
  503MOL0     C67803   2.886   2.695   3.842  0.2564 -0.1159  0.6732
  503MOL0     C67804   2.749   2.712   3.848  0.0770  0.5311 -0.5687
  503MOL0     C67805   2.684   2.819   3.778  0.4490 -0.3659  0.1635
  503MOL0     O67806   2.546   2.831   3.790  0.2059 -0.5876 -0.2676
  503MOL0     C67807   2.478   2.955   3.755 -1.0890 -0.3311 -0.3368
  503MOL0     C67808   2.333   2.938   3.753 -0.0890  0.8929 -0.0736
  503MOL0     C67809   2.266   3.075   3.709 -0.3210  0.0369  0.1183
  503MOL0     C67810   2.125   3.051   3.752 -1.0403  0.4971 -0.3541
  503MOL0     C67811   2.030   3.159   3.688 -0.0814 -0.2642  0.6424
  503MOL0     C67812   2.079   3.299   3.709 -0.2338  0.5587 -0.2599
  503MOL0     C67813   1.987   3.413   3.678 -0.4971 -0.1890 -0.2927
  503MOL0     C67814   1.903   3.393   3.543  0.0299 -0.5613  1.0133
  503MOL0    Cl67815   1.781   3.521   3.530  0.1697  0.0104  0.3996
  503MOL0     C67816   2.762   2.907   3.696 -0.0828 -0.2324 -0.3767
  503MOL0     C67817   2.900   2.902   3.708  0.2803  0.3743 -0.7854
  503MOL0     O67818   3.141   2.632   3.617 -0.1942  0.4200  0.2216
  503MOL0     C67819   3.371   2.871   3.774 -0.1466 -0.1196 -0.1732
  503MOL0     C67820   3.497   2.922   3.760 -0.1141 -0.7945  0.5606
  503MOL0     N67821   4.319   2.778   3.997  1.0242 -0.2786  0.1708
  503MOL0     N67822   4.420   2.698   3.999 -0.4921  0.2066 -1.5317
  503MOL0     C67823   5.739   2.619   3.797 -0.2355 -0.3458 -0.8373
  503MOL0     C67824   5.877   2.638   3.805 -0.5153  0.4010  0.1003
  503MOL0     C67825   6.310   2.645   3.871  0.7544  0.7647 -0.2923
  503MOL0     C67826   6.384   2.727   3.960  0.7563  0.5182  0.2518
  503MOL0     C67827   6.519   2.712   3.963 -0.0561  0.3103 -0.4162
  503MOL0     C67828   6.592   2.625   3.880  0.4798  0.7289  0.4318
  503MOL0     O67829   6.725   2.600   3.906 -0.2886  0.1760 -1.4560
  503MOL0     C67830   6.796   2.564   3.792 -0.3464 -0.7905  0.7515
  503MOL0     C67831   6.953   2.599   3.806 -0.5331 -0.8462  0.4091
  503MOL0     C67832   7.039   2.537   3.687  0.5143 -0.2356  0.7545
  503MOL0     C67833   6.988   2.591   3.549  0.1652  0.0714  0.2914
  503MOL0     C67834   7.051   2.511   3.435 -0.1644 -0.5980 -0.3708
  503MOL0     C67835   7.106   2.459   3.344 -0.3350 -0.0795  0.3633
  503MOL0     C67836   6.513   2.552   3.789 -0.7515  0.0441  0.8669
  503MOL0     C67837   6.379   2.558   3.790  0.4978 -0.0094 -0.1364
  503MOL0     H67838   5.978   2.316   3.821 -0.0373 -0.5657 -1.0517
  503MOL0     H67839   5.735   2.283   3.818 -3.1110  0.7674  1.0118
  503MOL0     H67840   5.473   2.641   3.870 -0.9820  0.9283 -0.7118
  503MOL0     H67841   5.476   2.619   3.698 -2.1245  0.3055 -0.5510
  503MOL0     H67842   5.309   2.437   3.732  0.1191 -0.2336  1.1762
  503MOL0     H67843   5.317   2.456   3.904 -0.5325 -0.1297 -0.2997
  503MOL0     H67844   5.216   2.652   3.920  1.5222  1.2860  0.5166
  503MOL0     H67845   5.227   2.689   3.744  0.6333 -0.2386  0.2299
  503MOL0     H67846   5.077   2.493   3.691 -3.7496  1.8422 -0.4506
  503MOL0     H67847   5.082   2.450   3.855  0.3922  1.0578  2.4160
  503MOL0     H67848   4.995   2.678   3.922 -0.6415 -1.3388  1.0435
  503MOL0     H67849   4.973   2.717   3.754  0.8166 -0.3638  1.2017
  503MOL0     H67850   4.828   2.481   3.761 -0.9078  0.9580 -0.4775
  503MOL0     H67851   4.837   2.504   3.938  0.5259  0.4027  0.2056
  503MOL0     H67852   4.716   2.711   3.939  0.4085  0.5666  0.7971
  503MOL0     H67853   4.702   2.710   3.765  0.7797 -0.6081 -0.0881
  503MOL0     H67854   4.578   2.498   3.945 -0.0288 -0.5085 -0.0705
  503MOL0     H67855   4.563   2.518   3.763  1.3670 -0.0348  0.1456
  503MOL0     H67856   4.378   2.702   3.679  0.1640  0.7296 -0.3301
  503MOL0     H67857   4.184   2.986   3.845  0.4038 -0.2336 -2.0284
  503MOL0     H67858   4.192   2.891   3.696  0.8355 -1.7728 -0.3253
  503MOL0     H67859   4.010   2.802   3.910 -0.6328 -0.8129 -0.5137
  503MOL0     H67860   4.058   2.710   3.774 -3.8100  0.3997 -2.6365
  503MOL0     H67861   3.984   2.861   3.612  1.4741  2.7299 -0.4001
  503MOL0     H67862   3.966   2.996   3.721 -3.2166  1.1747 -0.9075
  503MOL0     H67863   3.799   2.869   3.841  0.0574 -0.1431 -0.6579
  503MOL0     H67864   3.807   2.742   3.720  1.5601 -0.7887 -2.1262
  503MOL0     H67865   3.623   2.705   3.541 -2.6122  1.1097 -3.8376
  503MOL0     H67866   3.501   2.542   3.496  0.0564  0.9210 -0.4971
  503MOL0     H67867   3.356   2.503   3.602 -1.1381  1.9962  0.3030
  503MOL0     H67868   3.340   2.588   3.439 -0.9835  1.8115  0.1610
  503MOL0     H67869   2.933   2.606   3.883 -1.0372 -1.1233  0.0510
  503MOL0     H67870   2.684   2.652   3.911  0.2589  0.2379 -0.6603
  503MOL0     H67871   2.503   3.035   3.825  1.2925 -2.4042  1.3795
  503MOL0     H67872   2.509   2.993   3.658 -0.9675  2.5429  0.7500
  503MOL0     H67873   2.313   2.859   3.681 -1.3199  1.9768 -0.9753
  503MOL0     H67874   2.295   2.912   3.852 -0.2436  0.5276 -0.2286
  503MOL0     H67875   2.264   3.094   3.602  0.8151 -1.3613 -0.1778
  503MOL0     H67876   2.311   3.162   3.758  2.3719 -0.3325 -1.5035
  503MOL0     H67877   2.092   2.949   3.728 -3.2980  1.1602 -0.2691
  503MOL0     H67878   2.122   3.058   3.861 -0.6992  0.3754 -0.3365
  503MOL0     H67879   1.940   3.147   3.748  0.6299 -1.4257  1.5069
  503MOL0     H67880   2.019   3.141   3.580  1.8347  0.5692  0.2632
  503MOL0     H67881   2.106   3.315   3.814 -0.0280  0.3548 -0.2802
  503MOL0     H67882   2.173   3.307   3.655  0.0874 -0.9213  0.0437
  503MOL0     H67883   2.051   3.499   3.658 -0.8453  0.5643  1.5970
  503MOL0     H67884   1.933   3.436   3.771 -1.4915  2.4474 -1.4272
  503MOL0     H67885   1.853   3.297   3.534  1.9626 -1.5613  0.2683
  503MOL0     H67886   1.971   3.406   3.458  0.7342  1.3395  1.8000
  503MOL0     H67887   2.722   2.995   3.646  1.2029  0.4147 -0.3057
  503MOL0     H67888   2.964   2.981   3.670 -1.3620  3.4415  2.3765
  503MOL0     H67889   3.307   2.911   3.851  0.5674 -1.8873  1.4319
  503MOL0     H67890   3.535   3.008   3.814 -2.6785  0.9236 -0.2009
  503MOL0     H67891   5.671   2.702   3.784 -1.2789 -1.1441 -0.6218
  503MOL0     H67892   5.930   2.732   3.796 -1.0044  0.7933  1.1530
  503MOL0     H67893   6.338   2.803   4.022  0.0402  1.4090 -1.3319
  503MOL0     H67894   6.573   2.772   4.035  0.3211 -0.6173  0.0765
  503MOL0     H67895   6.784   2.457   3.773  3.6142 -1.4001  0.7863
  503MOL0     H67896   6.754   2.616   3.706  1.8078 -0.2205 -0.0174
  503MOL0     H67897   6.988   2.565   3.904  3.8240  0.1348 -0.5879
  503MOL0     H67898   6.961   2.708   3.810 -0.4659 -0.8739  1.2339
  503MOL0     H67899   7.031   2.428   3.680 -1.1015 -0.0302 -2.4381
  503MOL0     H67900   7.141   2.570   3.709  0.2894  1.1513 -0.2055
  503MOL0     H67901   7.002   2.699   3.544 -0.2600  0.0697 -1.5625
  503MOL0     H67902   6.881   2.570   3.543  0.1663 -0.2367  1.1037
  503MOL0     H67903   7.163   2.406   3.270 -0.9190 -0.2393  0.0124
  503MOL0     H67904   6.552   2.469   3.731 -1.6114 -0.3678  0.8681
  503MOL0     H67905   6.332   2.503   3.709  1.9178 -0.5714 -0.6253
  504MOL0     O67906   1.213  10.914   6.749  0.3650  0.7732 -0.6166
  504MOL0     C67907   1.289  10.900   6.845 -0.3014  0.4495 -0.8084
  504MOL0     O67908   1.258  10.865   6.977  0.5319 -0.0812 -0.1550
  504MOL0     C67909   1.127  10.846   7.012 -0.7094  0.6597  0.0652
  504MOL0     C67910   1.072  10.899   7.136  0.2851 -0.7627 -0.3391
  504MOL0     C67911   0.937  10.872   7.170 -0.4881  0.5925  0.6751
  504MOL0     C67912   0.868  10.794   7.083 -0.1514  0.5218 -1.3755
  504MOL0     O67913   0.738  10.765   7.125 -0.9805  0.1922 -0.6496
  504MOL0     C67914   0.659  10.861   7.191  0.4234  0.4915 -0.4256
  504MOL0     C67915   0.507  10.820   7.202 -0.6060  0.5736 -0.0339
  504MOL0     C67916   0.491  10.680   7.269  0.0132 -0.6405 -0.3929
  504MOL0     C67917   0.341  10.629   7.256  0.1514 -0.4768 -0.4366
  504MOL0     C67918   0.240  10.731   7.312  0.9522  0.2800  1.1226
  504MOL0     C67919   0.108  10.664   7.319 -0.3918 -1.0153  0.3005
  504MOL0     C67920   0.009  10.753   7.380 -0.3569 -0.1761  0.0602
  504MOL0     C67921  -0.120  10.671   7.417 -0.8466 -0.0001 -0.3843
  504MOL0     N67922  -0.227  10.763   7.441 -0.0882  0.3536  0.6196
  504MOL0     C67923  -0.246  10.839   7.558  0.9174 -0.1637  0.6420
  504MOL0     C67924  -0.370  10.886   7.536  0.2073  0.8775  0.2849
  504MOL0     C67925  -0.446  10.976   7.627  0.3575 -0.5880  0.2695
  504MOL0     C67926  -0.520  10.893   7.730 -0.0499  0.3155 -0.3979
  504MOL0     C67927  -0.616  10.785   7.688 -0.5909 -0.1511  0.3659
  504MOL0     C67928  -0.722  10.842   7.596  0.4538 -1.0416  1.1812
  504MOL0     O67929  -0.788  10.966   7.640 -0.8116  0.1008  0.1817
  504MOL0     C67930  -0.890  10.973   7.733 -0.1338 -0.0681  0.5414
  504MOL0     C67931  -0.941  11.098   7.782 -0.6837  0.5038 -0.1570
  504MOL0     C67932  -1.049  11.114   7.873 -0.2868 -0.4725 -0.7158
  504MOL0     C67933  -1.086  11.256   7.922 -0.2210 -0.3826  0.6307
  504MOL0     C67934  -1.117  11.001   7.916 -0.1695 -0.0508 -0.4466
  504MOL0     C67935  -1.234  11.003   8.010  0.4350  0.7508 -0.2394
  504MOL0     O67936  -1.267  10.880   8.068  0.3608  0.3047  0.4386
  504MOL0     C67937  -1.354  10.885   8.178  0.3961  0.1828  0.8274
  504MOL0     C67938  -1.312  10.841   8.302  0.7060  0.5690 -0.7597
  504MOL0     C67939  -1.409  10.847   8.405 -0.3292  0.9987  0.6950
  504MOL0     C67940  -1.542  10.875   8.382  0.8688  0.2814  0.1005
  504MOL0     O67941  -1.626  10.873   8.495 -0.3353 -0.3755 -0.2985
  504MOL0     C67942  -1.765  10.915   8.479  0.1291  0.3443 -0.6001
  504MOL0     C67943  -1.818  10.939   8.621  0.8700  0.3708 -0.1410
  504MOL0     C67944  -1.971  10.938   8.641 -0.8837  0.0838 -0.2068
  504MOL0     C67945  -2.043  11.047   8.568  0.7106 -0.4772 -0.3744
  504MOL0     C67946  -2.184  11.056   8.612  0.4120 -0.6445 -0.3860
  504MOL0     C67947  -2.270  11.170   8.542  0.4159 -0.0332 -0.6784
  504MOL0     C67948  -2.324  11.126   8.408  0.4835  0.4578 -0.0153
  504MOL0     C67949  -2.405  11.238   8.345  1.0812  0.1230 -0.3460
  504MOL0    Cl67950  -2.308  11.381   8.332  0.1396  0.0818  0.1894
  504MOL0     C67951  -1.587  10.918   8.259 -0.1095  0.0576  0.5000
  504MOL0     C67952  -1.491  10.918   8.158 -0.1813  0.6519 -0.6508
  504MOL0     O67953  -1.274  11.110   8.051  1.1907  0.1425 -0.1252
  504MOL0     C67954  -1.075  10.875   7.867  0.5766  0.7921 -0.9674
  504MOL0     C67955  -0.964  10.866   7.774  0.5729 -0.0956  0.0671
  504MOL0     N67956  -0.413  10.838   7.411 -0.1190 -0.1428 -0.0985
  504MOL0     N67957  -0.328  10.764   7.352  0.6026 -0.1832 -0.6258
  504MOL0     C67958   0.917  10.739   6.971  0.2433  0.2193  0.5125
  504MOL0     C67959   1.048  10.763   6.930 -0.8551  0.1175 -0.0653
  504MOL0     C67960   1.429  10.903   6.813 -0.2504  0.2217  0.0323
  504MOL0     C67961   1.470  10.966   6.692  0.0009 -0.2511  0.6633
  504MOL0     C67962   1.608  10.952   6.661 -0.0315 -0.2218  0.4099
  504MOL0     C67963   1.697  10.886   6.741  0.4759 -0.6568  0.0373
  504MOL0     O67964   1.836  10.879   6.718  0.2527 -0.0113  0.1042
  504MOL0     C67965   1.886  10.932   6.592  0.5550  0.4345 -0.0339
  504MOL0     C67966   2.038  10.885   6.570  0.2645 -0.2065 -0.3341
  504MOL0     C67967   2.071  10.914   6.424 -0.5105  0.3484 -0.5590
  504MOL0     C67968   2.205  10.852   6.374 -0.5983  0.9439  0.4109
  504MOL0     C67969   2.317  10.940   6.404  0.7024  0.3499 -0.1409
  504MOL0     C67970   2.420  11.004   6.419 -0.1091  0.0859  0.5149
  504MOL0     C67971   1.653  10.831   6.862  0.6184 -0.2132  0.5565
  504MOL0     C67972   1.519  10.835   6.902  0.4852 -0.1826  0.2143
  504MOL0     H67973   1.128  10.963   7.203  0.1166  1.5015 -2.2450
  504MOL0     H67974   0.897  10.896   7.268 -0.6806  1.9123  0.2835
  504MOL0     H67975   0.687  10.873   7.296 -2.0991 -2.1176  0.6770
  504MOL0     H67976   0.658  10.957   7.137 -0.2391  0.7744  0.0764
  504MOL0     H67977   0.451  10.898   7.254 -1.9488 -2.0862  2.8371
  504MOL0     H67978   0.468  10.819   7.100  1.6316  2.1623 -0.9931
  504MOL0     H67979   0.562  10.608   7.228 -0.1800 -1.1232  0.1065
  504MOL0     H67980   0.518  10.688   7.375 -3.1037 -2.6652  0.7192
  504MOL0     H67981   0.320  10.588   7.157 -2.2201 -0.0045 -0.1662
  504MOL0     H67982   0.340  10.546   7.328 -0.6381 -0.0553  0.0492
  504MOL0     H67983   0.261  10.781   7.406 -1.4566  0.8177  1.4262
  504MOL0     H67984   0.238  10.816   7.243  2.5691 -1.1016 -0.7472
  504MOL0     H67985   0.070  10.633   7.221 -0.4482 -2.6905  0.8140
  504MOL0     H67986   0.121  10.574   7.380 -0.2300 -1.2825 -0.1216
  504MOL0     H67987   0.048  10.789   7.476  1.2775 -0.7566 -0.3545
  504MOL0     H67988  -0.020  10.840   7.319  0.2779  0.9003  1.2339
  504MOL0     H67989  -0.108  10.602   7.500  1.3623 -0.2540 -0.8554
  504MOL0     H67990  -0.152  10.616   7.328  0.6006  0.5500 -1.2909
  504MOL0     H67991  -0.169  10.857   7.633  0.5463  1.6617  0.6267
  504MOL0     H67992  -0.374  11.047   7.669 -0.5155  0.2719  0.3531
  504MOL0     H67993  -0.522  11.032   7.572  1.4836  0.4432 -0.2727
  504MOL0     H67994  -0.577  10.967   7.785 -0.6945 -1.0316  0.8084
  504MOL0     H67995  -0.454  10.853   7.807 -0.2859 -1.4532 -1.0531
  504MOL0     H67996  -0.652  10.750   7.785 -0.0234 -2.3275 -0.1469
  504MOL0     H67997  -0.577  10.696   7.637  2.0923 -0.1653  2.2218
  504MOL0     H67998  -0.802  10.770   7.576  1.6709 -2.2215  0.3762
  504MOL0     H67999  -0.681  10.874   7.500 -0.6937  3.2161  1.9420
  504MOL0     H68000  -0.889  11.182   7.739  1.1274  0.1021  1.1373
  504MOL0     H68001  -1.018  11.332   7.883 -0.4500  0.1741  1.2879
  504MOL0     H68002  -1.187  11.270   7.881 -0.6282  2.2275  2.3300
  504MOL0     H68003  -1.082  11.260   8.031 -0.4194 -0.3852  0.6389
  504MOL0     H68004  -1.210  10.812   8.322  0.8944  1.2703 -0.6788
  504MOL0     H68005  -1.382  10.815   8.505  0.2327  0.2204  0.2981
  504MOL0     H68006  -1.775  11.001   8.413 -0.3359  1.9884  1.5147
  504MOL0     H68007  -1.838  10.854   8.425 -4.0625  1.6682  2.9543
  504MOL0     H68008  -1.782  10.871   8.699 -2.8295  1.3620  2.7076
  504MOL0     H68009  -1.777  11.035   8.653  0.5324  0.5986 -0.3838
  504MOL0     H68010  -1.993  10.940   8.748  5.2446 -0.5665  1.4271
  504MOL0     H68011  -2.010  10.846   8.597 -1.1630 -0.1006  0.4259
  504MOL0     H68012  -1.998  11.141   8.600 -0.2799 -1.3405  4.1822
  504MOL0     H68013  -2.043  11.042   8.458  1.4402 -0.2556 -0.3903
  504MOL0     H68014  -2.180  11.080   8.719  2.2439  2.7995 -1.0837
  504MOL0     H68015  -2.241  10.963   8.601 -0.5744  0.2046 -3.2894
  504MOL0     H68016  -2.361  11.196   8.596 -0.6787 -1.2311 -1.8584
  504MOL0     H68017  -2.206  11.257   8.525 -0.5781  1.7394  3.4205
  504MOL0     H68018  -2.383  11.034   8.412 -1.0462  1.0452 -4.1405
  504MOL0     H68019  -2.240  11.105   8.342  1.2312 -1.1347  1.3749
  504MOL0     H68020  -2.497  11.271   8.394  2.7015  1.1309  2.2333
  504MOL0     H68021  -2.424  11.199   8.244 -0.5997  0.5907 -0.2224
  504MOL0     H68022  -1.692  10.921   8.230  0.1416  1.4131 -0.3352
  504MOL0     H68023  -1.528  10.946   8.060  1.3885  2.2379 -0.8435
  504MOL0     H68024  -1.138  10.790   7.891  2.6390 -0.6587 -0.3658
  504MOL0     H68025  -0.928  10.766   7.750  2.1098  0.3622  0.4272
  504MOL0     H68026   0.843  10.688   6.911 -0.2537  2.7343 -1.1912
  504MOL0     H68027   1.101  10.712   6.851 -0.1250  1.3391 -0.3947
  504MOL0     H68028   1.411  11.024   6.622 -0.2751 -1.8106 -0.4717
  504MOL0     H68029   1.634  11.012   6.575  2.6256  0.7096  1.7717
  504MOL0     H68030   1.828  10.899   6.506  3.1959 -0.2627 -1.6678
  504MOL0     H68031   1.876  11.040   6.587 -4.2533  0.1425 -0.6942
  504MOL0     H68032   2.048  10.784   6.611 -2.2790  0.2569  1.6878
  504MOL0     H68033   2.101  10.956   6.623 -1.9823  1.3269  0.4091
  504MOL0     H68034   2.061  11.020   6.401  0.5388  0.6769  0.4175
  504MOL0     H68035   1.989  10.858   6.376  0.4505  0.5990 -2.5694
  504MOL0     H68036   2.197  10.833   6.266  2.0785 -0.3095  0.3608
  504MOL0     H68037   2.221  10.760   6.431  2.7320  3.2502  3.6115
  504MOL0     H68038   2.501  11.072   6.436  3.0172 -3.0565 -0.3880
  504MOL0     H68039   1.736  10.803   6.927  0.9893  0.8845  0.5809
  504MOL0     H68040   1.477  10.790   6.991 -2.4657  0.9156 -0.4900
  505MOL0     O68041   2.741   4.869   6.742  0.2153 -0.0272 -0.4522
  505MOL0     C68042   2.820   4.809   6.820  0.6402  0.3256 -0.7364
  505MOL0     O68043   2.790   4.778   6.956 -0.1368 -0.5270  0.1885
  505MOL0     C68044   2.671   4.820   7.014  0.1116 -0.3842 -0.2037
  505MOL0     C68045   2.546   4.790   6.959  0.2959  0.2102  0.4341
  505MOL0     C68046   2.432   4.840   7.008  0.5674  0.6284 -0.6926
  505MOL0     C68047   2.433   4.938   7.117  0.9086  0.1377  0.0662
  505MOL0     O68048   2.327   5.004   7.164  0.6813  0.0106  0.4081
  505MOL0     C68049   2.195   4.972   7.111 -0.1678  0.1062 -0.6407
  505MOL0     C68050   2.087   5.084   7.149  0.8281  0.0343  0.7181
  505MOL0     C68051   2.096   5.208   7.064  0.2086 -0.0439 -0.3169
  505MOL0     C68052   2.003   5.325   7.097 -0.4602  0.5336  0.0838
  505MOL0     C68053   1.853   5.292   7.130  0.2225 -0.4990 -0.6608
  505MOL0     C68054   1.764   5.419   7.139  0.6674 -0.3071 -0.6060
  505MOL0     C68055   1.627   5.377   7.197  1.0731  0.4915  0.3032
  505MOL0     C68056   1.529   5.499   7.212 -0.0017 -0.0558  0.3298
  505MOL0     N68057   1.402   5.455   7.268 -0.2738  0.2305  0.2843
  505MOL0     C68058   1.330   5.354   7.213 -0.1936  0.9838 -0.1385
  505MOL0     C68059   1.243   5.322   7.310  0.3524 -0.3236  0.3328
  505MOL0     C68060   1.152   5.206   7.284 -0.0296 -0.3156  0.0136
  505MOL0     C68061   1.012   5.261   7.253 -0.3288 -0.4613 -0.1412
  505MOL0     C68062   0.946   5.335   7.371 -0.3947  0.5340  0.1220
  505MOL0     C68063   0.803   5.363   7.334  0.1913  0.6234 -1.3269
  505MOL0     O68064   0.732   5.391   7.455  0.2468 -0.3987  0.2416
  505MOL0     C68065   0.595   5.378   7.459  1.2071 -0.7940 -0.4144
  505MOL0     C68066   0.533   5.349   7.587  0.1052 -1.4065 -0.6094
  505MOL0     C68067   0.392   5.341   7.609  0.3769  0.4272  0.0686
  505MOL0     C68068   0.352   5.299   7.749 -0.4503 -0.5183 -0.4771
  505MOL0     C68069   0.310   5.342   7.494 -0.3925 -0.5681  0.1939
  505MOL0     C68070   0.163   5.322   7.502 -0.0010 -0.1888 -0.3612
  505MOL0     O68071   0.102   5.273   7.389  0.7199  0.2928  0.4896
  505MOL0     C68072  -0.036   5.255   7.377  0.7576  0.3253  0.1214
  505MOL0     C68073  -0.097   5.310   7.254 -0.5261  0.6566 -0.3717
  505MOL0     C68074  -0.238   5.309   7.242 -0.0176 -0.2649 -0.7188
  505MOL0     C68075  -0.315   5.255   7.343  0.3267 -0.3183 -0.2822
  505MOL0     O68076  -0.450   5.282   7.324  0.2887 -0.6422 -0.9302
  505MOL0     C68077  -0.540   5.294   7.444 -0.7614 -0.1412 -0.0694
  505MOL0     C68078  -0.641   5.175   7.456 -0.1948 -0.3885 -0.0635
  505MOL0     C68079  -0.718   5.188   7.587  0.3349 -0.4223 -0.0050
  505MOL0     C68080  -0.795   5.315   7.601  0.4003 -0.4516 -0.0533
  505MOL0     C68081  -0.902   5.298   7.709  0.3368 -0.2421 -0.1649
  505MOL0     C68082  -0.957   5.442   7.739  0.1886 -0.4879 -0.0978
  505MOL0     C68083  -1.065   5.432   7.842 -0.0564  0.2130 -0.7449
  505MOL0     C68084  -1.173   5.547   7.832  0.1376 -0.6637 -0.4381
  505MOL0    Cl68085  -1.318   5.530   7.932 -0.2034  0.0134  0.3270
  505MOL0     C68086  -0.254   5.181   7.446  0.0035 -0.3699  0.8227
  505MOL0     C68087  -0.120   5.179   7.459 -0.3879  0.5151  0.7520
  505MOL0     O68088   0.109   5.344   7.606  0.5836 -0.0403 -0.4322
  505MOL0     C68089   0.370   5.371   7.368 -0.7265  0.2606 -0.2751
  505MOL0     C68090   0.507   5.403   7.352  0.0443 -0.9705 -0.2965
  505MOL0     N68091   1.255   5.400   7.422  0.0071  0.0936  0.1855
  505MOL0     N68092   1.355   5.475   7.398 -0.2455 -0.5618 -0.1882
  505MOL0     C68093   2.555   4.958   7.178 -0.3457 -0.7515 -0.7828
  505MOL0     C68094   2.676   4.901   7.132  1.0012 -0.3240 -0.1690
  505MOL0     C68095   2.956   4.782   6.766 -0.2715  0.1237  0.3683
  505MOL0     C68096   2.999   4.823   6.632 -0.1525 -0.3969 -0.7389
  505MOL0     C68097   3.139   4.821   6.600 -0.4478  0.8081 -0.5628
  505MOL0     C68098   3.229   4.749   6.686  0.2138 -0.2043  0.5972
  505MOL0     O68099   3.359   4.727   6.638 -0.7666 -0.4664  0.0703
  505MOL0     C68100   3.463   4.682   6.728  0.1697 -0.5503  0.0021
  505MOL0     C68101   3.583   4.657   6.627  0.0854  0.5411  0.2469
  505MOL0     C68102   3.557   4.548   6.520 -0.0679 -0.3506  0.2135
  505MOL0     C68103   3.487   4.591   6.395 -0.1887  0.1689 -0.7285
  505MOL0     C68104   3.542   4.711   6.330 -0.6044  0.2902 -1.1743
  505MOL0     C68105   3.568   4.819   6.276  0.2380  1.0765  0.5759
  505MOL0     C68106   3.181   4.712   6.812 -0.5251  0.6285  0.5154
  505MOL0     C68107   3.049   4.733   6.855 -0.2447 -0.0339  0.3343
  505MOL0     H68108   2.538   4.724   6.872 -3.1803  0.3310  0.4864
  505MOL0     H68109   2.338   4.802   6.969  1.3133 -2.3864  0.1552
  505MOL0     H68110   2.200   4.959   7.003  3.3464 -0.7256 -0.5231
  505MOL0     H68111   2.175   4.877   7.162 -3.0498  1.7437  1.5187
  505MOL0     H68112   1.989   5.041   7.129 -0.4536  3.2132 -0.4272
  505MOL0     H68113   2.093   5.107   7.256 -2.4453  1.6117  0.6752
  505MOL0     H68114   2.199   5.244   7.055 -0.1291  0.8957 -0.5720
  505MOL0     H68115   2.088   5.184   6.957  1.4447  3.5562 -1.3445
  505MOL0     H68116   2.051   5.384   7.175  0.9026 -2.0207  1.3039
  505MOL0     H68117   1.995   5.383   7.005 -0.4153  0.1756 -0.1476
  505MOL0     H68118   1.830   5.226   7.046  1.4877  1.1279 -2.3690
  505MOL0     H68119   1.847   5.238   7.225  5.6977 -0.5375 -0.0298
  505MOL0     H68120   1.808   5.492   7.207 -0.7601 -0.9600  1.0929
  505MOL0     H68121   1.747   5.454   7.037 -1.2904 -1.0387 -0.5733
  505MOL0     H68122   1.594   5.299   7.128  1.0565  2.5040 -2.1027
  505MOL0     H68123   1.638   5.335   7.298  0.6193 -0.2041  0.0651
  505MOL0     H68124   1.523   5.556   7.119  0.1904 -1.4830 -0.5978
  505MOL0     H68125   1.573   5.566   7.286  1.5168 -3.0056  2.2919
  505MOL0     H68126   1.329   5.299   7.119 -1.9496  0.4502  0.1446
  505MOL0     H68127   1.175   5.147   7.195 -1.3519  2.2150 -2.1130
  505MOL0     H68128   1.160   5.138   7.370  1.7515  1.5034  1.3824
  505MOL0     H68129   0.953   5.186   7.200  0.7686 -1.2826 -0.2297
  505MOL0     H68130   1.023   5.330   7.169  2.5557  1.2742  1.4969
  505MOL0     H68131   0.999   5.423   7.409 -0.7845  0.4736  0.8332
  505MOL0     H68132   0.937   5.266   7.456  1.5061 -1.2591 -1.0258
  505MOL0     H68133   0.768   5.273   7.284  4.2046 -1.6203 -0.5064
  505MOL0     H68134   0.788   5.447   7.265  1.5790  0.5415 -1.7617
  505MOL0     H68135   0.605   5.322   7.663  1.6819  2.1472 -0.6361
  505MOL0     H68136   0.323   5.195   7.764 -4.3267  0.7034  2.4091
  505MOL0     H68137   0.432   5.332   7.816 -1.1567 -0.9957  0.6234
  505MOL0     H68138   0.267   5.357   7.788  0.6362  2.3269 -2.0135
  505MOL0     H68139  -0.042   5.373   7.185 -0.5274 -1.1358 -2.1098
  505MOL0     H68140  -0.285   5.353   7.155  0.1804 -0.3380 -0.8612
  505MOL0     H68141  -0.485   5.295   7.538  0.3916  1.7267 -0.7141
  505MOL0     H68142  -0.601   5.384   7.435 -2.8660 -1.2479  2.0975
  505MOL0     H68143  -0.711   5.179   7.372 -1.8015  2.6867  1.2836
  505MOL0     H68144  -0.596   5.075   7.452 -2.2112 -1.3121 -1.0001
  505MOL0     H68145  -0.642   5.179   7.665 -1.1963 -2.5989  1.3914
  505MOL0     H68146  -0.779   5.099   7.605 -0.8177  0.8643  3.2282
  505MOL0     H68147  -0.727   5.397   7.625  0.2689  0.1099 -1.4641
  505MOL0     H68148  -0.851   5.345   7.512  0.2077 -1.1631 -0.1755
  505MOL0     H68149  -0.875   5.247   7.802 -1.5127 -0.1259  0.4717
  505MOL0     H68150  -0.983   5.246   7.657 -0.6038  1.1178 -0.1020
  505MOL0     H68151  -0.878   5.513   7.763  0.2277  0.0729 -1.7312
  505MOL0     H68152  -1.005   5.482   7.649 -1.3375  0.2269  1.0059
  505MOL0     H68153  -1.032   5.414   7.944 -1.1969 -0.2534 -0.4497
  505MOL0     H68154  -1.122   5.342   7.819 -0.5840 -0.6744  3.3148
  505MOL0     H68155  -1.203   5.537   7.727 -0.4763 -1.0426 -0.2325
  505MOL0     H68156  -1.123   5.642   7.851  0.5340 -1.2288  1.6009
  505MOL0     H68157  -0.318   5.133   7.520 -1.2335 -2.1343 -1.2610
  505MOL0     H68158  -0.076   5.127   7.543 -0.3716 -0.7291 -0.0016
  505MOL0     H68159   0.318   5.373   7.273  1.1708  1.5456 -1.3374
  505MOL0     H68160   0.539   5.441   7.255  0.9154  1.5058  0.8746
  505MOL0     H68161   2.549   5.017   7.269 -2.3192 -1.6230 -0.2870
  505MOL0     H68162   2.770   4.935   7.174  0.8048  2.5031 -1.7454
  505MOL0     H68163   2.922   4.861   6.565 -1.2559  2.0782  1.7402
  505MOL0     H68164   3.167   4.851   6.500 -0.2511  3.2836  0.1891
  505MOL0     H68165   3.476   4.758   6.806  1.3111 -0.8531  0.1255
  505MOL0     H68166   3.439   4.587   6.775 -3.5790  0.1041 -0.3381
  505MOL0     H68167   3.677   4.629   6.676 -0.1068  0.3438  0.5077
  505MOL0     H68168   3.606   4.755   6.586 -2.0697  1.3619  0.8686
  505MOL0     H68169   3.500   4.465   6.563 -0.8413  0.3265  0.5057
  505MOL0     H68170   3.656   4.516   6.486 -0.2078  0.9287 -1.5037
  505MOL0     H68171   3.379   4.606   6.407  0.0125  0.7826  0.5186
  505MOL0     H68172   3.486   4.502   6.332 -0.0242 -0.3529 -0.0126
  505MOL0     H68173   3.595   4.904   6.217  2.7130  1.0551  1.5349
  505MOL0     H68174   3.248   4.663   6.882 -2.0900 -1.1027  0.8719
  505MOL0     H68175   3.034   4.727   6.962  2.2993  1.6346  0.8663
  506MOL0     O68176   9.204   8.750   7.908  0.0887  0.4524  0.0936
  506MOL0     C68177   9.198   8.696   8.020  0.2677 -0.5921  0.2352
  506MOL0     O68178   9.121   8.591   8.050  0.6135  0.3612  0.6128
  506MOL0     C68179   9.051   8.518   7.955 -0.8578  0.0648 -0.5676
  506MOL0     C68180   8.946   8.443   8.003 -0.0589 -0.3468  0.6304
  506MOL0     C68181   8.881   8.349   7.917 -0.5000 -0.7830 -1.1525
  506MOL0     C68182   8.937   8.312   7.796  0.0909 -0.6930  0.4520
  506MOL0     O68183   8.863   8.209   7.734  0.5709  0.1372  0.6914
  506MOL0     C68184   8.868   8.210   7.590 -0.4916  0.7988  0.5442
  506MOL0     C68185   8.819   8.078   7.527  0.7568 -0.5755  0.4613
  506MOL0     C68186   8.666   8.080   7.503 -0.7250 -0.4814 -0.6000
  506MOL0     C68187   8.588   8.107   7.634 -0.0823  0.3385 -0.5099
  506MOL0     C68188   8.440   8.102   7.603 -0.9592  0.1670  0.0286
  506MOL0     C68189   8.391   7.956   7.580 -0.8213 -0.4574 -0.3609
  506MOL0     C68190   8.240   7.948   7.563  0.7357  0.6648  0.1681
  506MOL0     C68191   8.149   8.011   7.670 -0.1743 -0.2504  1.0463
  506MOL0     N68192   8.179   7.987   7.808 -1.1263  0.3555  0.2768
  506MOL0     C68193   8.184   8.090   7.906  1.2929  0.2270 -0.2048
  506MOL0     C68194   8.223   8.014   8.013  0.4474 -0.3044  0.3011
  506MOL0     C68195   8.263   8.073   8.145 -0.5340 -0.7586 -0.2547
  506MOL0     C68196   8.402   8.043   8.200 -1.1778 -0.7439  0.3097
  506MOL0     C68197   8.507   8.092   8.098 -0.2070 -0.2284  0.1601
  506MOL0     C68198   8.640   8.113   8.156 -0.2340 -0.7911  0.1046
  506MOL0     O68199   8.639   8.215   8.259  0.1963  0.0942 -0.0631
  506MOL0     C68200   8.761   8.267   8.302  0.1333  0.2685  0.9239
  506MOL0     C68201   8.888   8.217   8.253  0.3770 -0.0173 -0.5007
  506MOL0     C68202   9.012   8.277   8.301  1.3529  1.0659  0.0308
  506MOL0     C68203   9.133   8.226   8.241 -0.4482  0.3873  0.4493
  506MOL0     C68204   9.007   8.366   8.407  0.6051 -0.6319 -0.3130
  506MOL0     C68205   9.132   8.429   8.465 -0.1483 -0.3084  0.3359
  506MOL0     O68206   9.248   8.354   8.476  0.3702  0.2956 -0.1620
  506MOL0     C68207   9.361   8.386   8.549  0.1698  1.1261  0.4305
  506MOL0     C68208   9.483   8.351   8.485 -0.0800  0.9243  0.0928
  506MOL0     C68209   9.604   8.382   8.546 -0.0096 -0.0807 -0.3784
  506MOL0     C68210   9.606   8.447   8.677  0.1349 -0.7182  0.0670
  506MOL0     O68211   9.733   8.463   8.727  0.3776  0.7502 -0.3607
  506MOL0     C68212   9.752   8.524   8.856  0.6770 -0.2831  0.5568
  506MOL0     C68213   9.904   8.541   8.868 -0.0655 -0.6554  0.5793
  506MOL0     C68214   9.946   8.544   9.019  0.6674 -0.2892 -0.5060
  506MOL0     C68215  10.094   8.572   9.016 -0.5960 -0.1940 -0.4694
  506MOL0     C68216  10.141   8.620   9.156 -0.2456  0.0241  0.0760
  506MOL0     C68217  10.260   8.720   9.139 -0.3721 -0.3003  0.4276
  506MOL0     C68218  10.353   8.730   9.254  0.2113  0.3393 -0.1072
  506MOL0     C68219  10.451   8.834   9.220 -0.8900 -0.0534 -0.6825
  506MOL0    Cl68220  10.566   8.877   9.355  0.1676  0.2087  0.4234
  506MOL0     C68221   9.482   8.472   8.743 -0.5725 -0.0685 -0.2905
  506MOL0     C68222   9.360   8.432   8.679 -0.8317 -0.3287 -1.5208
  506MOL0     O68223   9.119   8.535   8.523  0.6078 -0.8093  0.2021
  506MOL0     C68224   8.880   8.409   8.457 -0.7250  0.2960 -0.7597
  506MOL0     C68225   8.758   8.360   8.410 -0.2448 -0.4322 -0.6351
  506MOL0     N68226   8.231   7.875   7.986 -0.5121 -0.7506  0.5293
  506MOL0     N68227   8.210   7.867   7.855  0.0133  0.0385  0.2233
  506MOL0     C68228   9.044   8.391   7.746 -0.5716  0.3178  0.7442
  506MOL0     C68229   9.101   8.497   7.825  0.7830 -0.4653 -0.0620
  506MOL0     C68230   9.271   8.747   8.130 -0.5958 -0.1786  0.2794
  506MOL0     C68231   9.232   8.722   8.268  0.5056  0.3397  0.4290
  506MOL0     C68232   9.290   8.798   8.369 -0.4664  0.7111  0.8473
  506MOL0     C68233   9.397   8.884   8.349 -0.3153  0.3752 -0.5757
  506MOL0     O68234   9.460   8.955   8.452  1.0792 -0.1039 -0.0225
  506MOL0     C68235   9.517   8.879   8.562  0.3270 -0.3911  0.1447
  506MOL0     C68236   9.639   8.811   8.507 -0.2237  0.0107  0.1322
  506MOL0     C68237   9.745   8.920   8.484 -0.1028  0.4406  0.8282
  506MOL0     C68238   9.857   8.855   8.409 -0.2434  0.1970 -0.1139
  506MOL0     C68239   9.921   8.740   8.476  0.6940  0.4820 -0.0975
  506MOL0     C68240   9.975   8.650   8.542 -0.2501  0.5296  0.0281
  506MOL0     C68241   9.440   8.907   8.219  0.2250  1.0230 -0.5057
  506MOL0     C68242   9.378   8.844   8.112  0.6064 -0.3104 -0.6682
  506MOL0     H68243   8.911   8.474   8.101  0.3679  1.1781  0.3356
  506MOL0     H68244   8.803   8.287   7.962  1.4526 -1.4890  1.5710
  506MOL0     H68245   8.819   8.294   7.541 -2.0742  0.2972  1.1889
  506MOL0     H68246   8.971   8.211   7.556 -0.0426  2.1751  1.8435
  506MOL0     H68247   8.861   8.074   7.426 -1.5238  2.1833 -0.7369
  506MOL0     H68248   8.840   7.984   7.580 -2.6897 -2.6587 -1.4998
  506MOL0     H68249   8.643   8.169   7.442  0.7455 -0.0853 -0.5989
  506MOL0     H68250   8.649   7.992   7.440 -0.5401 -2.5998  2.1296
  506MOL0     H68251   8.626   8.040   7.712  2.3457  1.5605 -0.5712
  506MOL0     H68252   8.613   8.207   7.670 -1.7036  1.2321 -1.7083
  506MOL0     H68253   8.384   8.152   7.682  2.1158 -0.7839  3.0817
  506MOL0     H68254   8.431   8.162   7.512  2.9281 -1.9925 -2.0478
  506MOL0     H68255   8.445   7.906   7.498  3.1160 -0.5137  2.0187
  506MOL0     H68256   8.412   7.898   7.670  0.7487  0.2464 -0.2427
  506MOL0     H68257   8.206   7.989   7.468 -0.1820  0.6962  0.5008
  506MOL0     H68258   8.219   7.841   7.572 -0.7727  1.0377  1.5227
  506MOL0     H68259   8.046   7.982   7.649 -0.6161  1.4167  0.7423
  506MOL0     H68260   8.156   8.119   7.654  2.9062 -0.7130 -2.1944
  506MOL0     H68261   8.156   8.194   7.889 -1.0046 -0.3301 -0.1782
  506MOL0     H68262   8.255   8.181   8.131  1.2732 -0.1379  2.6038
  506MOL0     H68263   8.197   8.020   8.215 -1.2152 -1.3833 -1.3380
  506MOL0     H68264   8.424   7.938   8.220  0.0155 -0.5426  0.1061
  506MOL0     H68265   8.416   8.100   8.292 -1.0166  0.5608 -0.4883
  506MOL0     H68266   8.477   8.185   8.048  0.1598 -0.9991 -1.5545
  506MOL0     H68267   8.528   8.028   8.011 -0.4201 -0.7223  0.4697
  506MOL0     H68268   8.703   8.141   8.072  0.2813 -1.0308  0.4059
  506MOL0     H68269   8.692   8.033   8.209  2.0441  1.4419  1.4467
  506MOL0     H68270   8.897   8.135   8.182 -0.7440 -1.1384  0.6078
  506MOL0     H68271   9.195   8.306   8.200 -0.2498 -0.4922 -1.0735
  506MOL0     H68272   9.190   8.161   8.308 -1.5261 -1.4171 -0.3051
  506MOL0     H68273   9.110   8.167   8.152  0.1414  3.0737 -1.5912
  506MOL0     H68274   9.488   8.327   8.380 -1.4623  2.6645 -0.4296
  506MOL0     H68275   9.699   8.372   8.494 -0.5286 -0.9628 -1.2035
  506MOL0     H68276   9.705   8.623   8.860  2.0582  0.4644 -0.7028
  506MOL0     H68277   9.713   8.463   8.938  0.7620 -0.7193  0.2808
  506MOL0     H68278   9.950   8.456   8.816 -0.8636  0.9173 -2.9933
  506MOL0     H68279   9.944   8.628   8.816  0.0164  0.2696  2.1203
  506MOL0     H68280   9.921   8.445   9.057  2.0826 -0.9916 -1.3144
  506MOL0     H68281   9.891   8.624   9.070 -0.9742 -1.1267 -0.8941
  506MOL0     H68282  10.156   8.487   8.986 -1.4170 -0.5939 -1.0814
  506MOL0     H68283  10.121   8.654   8.949  2.1188 -0.7897 -0.2221
  506MOL0     H68284  10.166   8.530   9.213 -1.7682 -0.0773  0.6210
  506MOL0     H68285  10.064   8.661   9.221 -1.0873 -0.4080 -0.6236
  506MOL0     H68286  10.322   8.671   9.063  1.4279 -0.3326  1.8385
  506MOL0     H68287  10.235   8.820   9.102  3.6649  0.9100  0.4685
  506MOL0     H68288  10.410   8.644   9.290 -0.0685  0.0011 -0.4688
  506MOL0     H68289  10.283   8.755   9.335  1.9537  2.2619  0.8917
  506MOL0     H68290  10.397   8.927   9.203 -0.5933  0.2607  0.0745
  506MOL0     H68291  10.509   8.814   9.129 -0.9120  4.2635 -1.8382
  506MOL0     H68292   9.492   8.501   8.847 -1.4732  1.1828 -0.5138
  506MOL0     H68293   9.266   8.457   8.728  1.5993  2.4915  2.2341
  506MOL0     H68294   8.875   8.476   8.543 -1.7429 -0.4980 -0.1814
  506MOL0     H68295   8.661   8.388   8.448  0.1393 -0.2833  0.2701
  506MOL0     H68296   9.080   8.373   7.645  3.3146 -0.0529  2.0301
  506MOL0     H68297   9.177   8.556   7.775 -1.1519  0.4313 -2.1285
  506MOL0     H68298   9.151   8.650   8.277  2.4349 -2.1230 -0.6693
  506MOL0     H68299   9.262   8.784   8.474 -0.1483 -2.1057  0.6339
  506MOL0     H68300   9.526   8.948   8.646  2.3576  1.6967 -1.6310
  506MOL0     H68301   9.449   8.801   8.597  0.8559 -0.3364  1.3330
  506MOL0     H68302   9.612   8.755   8.417 -0.5099 -1.1690  0.9265
  506MOL0     H68303   9.666   8.735   8.581 -0.1292 -0.9887 -0.9032
  506MOL0     H68304   9.782   8.956   8.580 -1.8195  1.2687  1.2178
  506MOL0     H68305   9.706   9.006   8.429  2.0288  0.1330 -1.3508
  506MOL0     H68306   9.948   8.916   8.399  0.7514 -1.3287 -0.7976
  506MOL0     H68307   9.818   8.825   8.311 -0.0041 -0.2195 -0.0833
  506MOL0     H68308  10.019   8.568   8.596 -1.0897 -0.1258 -0.2592
  506MOL0     H68309   9.520   8.978   8.203  1.6831 -0.4920 -0.2616
  506MOL0     H68310   9.409   8.865   8.010  0.4634 -3.6002 -1.4927
  507MOL0     O68311   6.603   1.313   7.044 -0.4197 -0.4055  0.2283
  507MOL0     C68312   6.683   1.267   7.122  0.2940 -0.2324  0.0323
  507MOL0     O68313   6.660   1.174   7.220  0.2027  0.3109 -0.2932
  507MOL0     C68314   6.541   1.113   7.226  0.1695 -0.0154  0.2492
  507MOL0     C68315   6.554   0.998   7.302 -0.0785 -0.3582  1.2417
  507MOL0     C68316   6.445   0.934   7.352 -0.0183 -0.7123  0.5033
  507MOL0     C68317   6.317   0.968   7.315  0.9962 -0.3361 -0.0322
  507MOL0     O68318   6.212   0.895   7.361 -0.2439  0.6941  0.7270
  507MOL0     C68319   6.072   0.904   7.322 -0.7334  0.3574 -0.3809
  507MOL0     C68320   6.010   1.026   7.377 -0.5629 -0.7307 -0.3372
  507MOL0     C68321   5.862   1.034   7.318 -0.3337  0.3266 -0.0637
  507MOL0     C68322   5.772   1.125   7.406  0.3060 -0.3663 -0.5562
  507MOL0     C68323   5.623   1.124   7.363 -0.2442  0.6267  0.7098
  507MOL0     C68324   5.548   1.235   7.437 -0.1707 -0.4541 -0.3419
  507MOL0     C68325   5.400   1.204   7.412  0.1248  0.2255  0.9073
  507MOL0     C68326   5.309   1.312   7.464  0.1037  0.8700  0.5987
  507MOL0     N68327   5.171   1.266   7.436 -0.1466 -0.1133  0.3425
  507MOL0     C68328   5.113   1.276   7.317  0.1202  0.0133  0.1763
  507MOL0     C68329   4.983   1.240   7.331 -0.0290  0.4056  0.2813
  507MOL0     C68330   4.883   1.246   7.219  0.2871 -0.6523 -0.6535
  507MOL0     C68331   4.745   1.287   7.266  0.6537  0.6574 -0.1697
  507MOL0     C68332   4.719   1.426   7.328 -0.3111  0.0622  0.2716
  507MOL0     C68333   4.777   1.547   7.243 -0.0798 -0.0777  0.5483
  507MOL0     O68334   4.714   1.557   7.111 -0.1068  0.0335  1.2064
  507MOL0     C68335   4.583   1.589   7.087  0.0792  0.0861  0.0259
  507MOL0     C68336   4.524   1.579   6.950  0.5524 -0.4740  0.9846
  507MOL0     C68337   4.394   1.614   6.925  0.1377 -0.2876 -0.4401
  507MOL0     C68338   4.330   1.587   6.788 -0.0687 -0.3031  0.3479
  507MOL0     C68339   4.320   1.659   7.034  0.2543 -0.1514 -0.3105
  507MOL0     C68340   4.171   1.690   7.019 -0.3263  0.0865 -0.2290
  507MOL0     O68341   4.105   1.602   6.959  0.1121 -0.3997  0.4833
  507MOL0     C68342   3.969   1.607   6.978 -0.3709 -0.7522  0.1527
  507MOL0     C68343   3.912   1.575   7.105  0.1239 -0.4145 -0.1726
  507MOL0     C68344   3.778   1.593   7.130 -0.0575  0.0643 -0.6133
  507MOL0     C68345   3.693   1.631   7.021 -0.3895 -0.7518 -0.4202
  507MOL0     O68346   3.555   1.636   7.037 -0.4993 -0.2424  0.1861
  507MOL0     C68347   3.493   1.563   7.138  1.0280 -0.2525  0.0964
  507MOL0     C68348   3.347   1.552   7.104 -0.5392  0.3483  0.3331
  507MOL0     C68349   3.276   1.670   7.031  0.3239  0.8406  0.2287
  507MOL0     C68350   3.124   1.638   7.053 -0.7559  0.1789 -0.0993
  507MOL0     C68351   3.035   1.714   6.964  0.4477  0.5875 -0.3883
  507MOL0     C68352   2.882   1.686   6.992 -0.4490 -0.0498  1.2901
  507MOL0     C68353   2.804   1.740   6.872 -0.0019 -0.2009 -0.7906
  507MOL0     C68354   2.656   1.733   6.892  0.0402  0.6073 -0.0416
  507MOL0    Cl68355   2.606   1.778   7.054  0.0471  0.0763  0.1042
  507MOL0     C68356   3.745   1.677   6.898  0.0160  0.2906  0.1859
  507MOL0     C68357   3.883   1.657   6.879 -0.3295 -0.7736  0.1519
  507MOL0     O68358   4.138   1.803   7.059 -0.0272 -0.9307  0.0462
  507MOL0     C68359   4.373   1.674   7.161 -0.0434  0.1049  0.2934
  507MOL0     C68360   4.505   1.641   7.190 -0.1322 -0.2465 -0.5054
  507MOL0     N68361   4.970   1.207   7.467 -0.4052  0.9693  0.0771
  507MOL0     N68362   5.083   1.224   7.529 -0.2633 -0.1004 -0.6233
  507MOL0     C68363   6.294   1.079   7.231  0.3200 -0.0840  0.6266
  507MOL0     C68364   6.408   1.155   7.194 -0.5737 -0.8485 -0.3160
  507MOL0     C68365   6.825   1.309   7.095 -0.1171 -0.4209 -1.2676
  507MOL0     C68366   6.925   1.283   7.187  0.2465 -0.9110 -0.1048
  507MOL0     C68367   7.056   1.319   7.166 -0.5306  0.6689  0.1689
  507MOL0     C68368   7.096   1.379   7.044  0.1120 -0.1604 -0.4782
  507MOL0     O68369   7.234   1.398   7.021  0.1918 -0.1767  0.1445
  507MOL0     C68370   7.338   1.428   7.120 -0.8645  0.1358 -0.0286
  507MOL0     C68371   7.477   1.458   7.065 -0.4008 -0.2818  0.4449
  507MOL0     C68372   7.467   1.587   6.980 -0.7526 -0.2678  0.8244
  507MOL0     C68373   7.609   1.652   6.988 -0.2642  0.0931  0.4207
  507MOL0     C68374   7.597   1.784   6.921  0.2270 -1.1113  0.2933
  507MOL0     C68375   7.588   1.886   6.856  0.2012 -0.3786 -0.8652
  507MOL0     C68376   6.993   1.401   6.947  0.8853 -0.5654 -0.0964
  507MOL0     C68377   6.857   1.367   6.969 -0.1389 -0.6123 -0.8793
  507MOL0     H68378   6.647   0.951   7.332 -0.4421 -0.7036  1.8260
  507MOL0     H68379   6.454   0.850   7.421 -2.3125 -0.8260  0.7539
  507MOL0     H68380   6.077   0.892   7.213  1.0917  0.2925 -0.3215
  507MOL0     H68381   6.022   0.818   7.365 -0.1291 -1.1961 -2.5987
  507MOL0     H68382   6.017   1.015   7.486  0.5924 -0.0303 -0.3233
  507MOL0     H68383   6.070   1.112   7.348  0.7298 -0.4759  2.7638
  507MOL0     H68384   5.860   1.069   7.215 -3.9423  0.0243 -0.1931
  507MOL0     H68385   5.818   0.935   7.332  1.2181 -0.0984  2.6110
  507MOL0     H68386   5.763   1.092   7.510 -1.2900  3.8415  0.8659
  507MOL0     H68387   5.814   1.226   7.402  3.0426 -1.4265 -0.5767
  507MOL0     H68388   5.624   1.132   7.254  0.4652  1.4034  0.7598
  507MOL0     H68389   5.593   1.023   7.390 -0.2024  0.5865  0.6079
  507MOL0     H68390   5.564   1.239   7.545  0.5661 -0.0710 -0.4605
  507MOL0     H68391   5.570   1.332   7.390  0.3190  0.2845  1.3161
  507MOL0     H68392   5.387   1.201   7.303 -0.4817 -0.1296  0.9847
  507MOL0     H68393   5.375   1.110   7.463  0.9989 -0.7117 -0.3023
  507MOL0     H68394   5.339   1.403   7.411  1.6065 -0.2704 -0.5846
  507MOL0     H68395   5.316   1.317   7.573 -1.0409 -2.9781  0.9930
  507MOL0     H68396   5.164   1.304   7.225  1.3678 -1.3318  0.4235
  507MOL0     H68397   4.919   1.304   7.134 -0.5050 -2.5776 -2.3878
  507MOL0     H68398   4.886   1.146   7.174 -2.4448 -0.6250 -1.0638
  507MOL0     H68399   4.699   1.213   7.333  0.6158 -0.6185 -1.5555
  507MOL0     H68400   4.690   1.288   7.171 -1.3126 -2.4337  0.7634
  507MOL0     H68401   4.765   1.422   7.427  1.4395 -0.1173 -0.5166
  507MOL0     H68402   4.612   1.439   7.347  0.0794  2.6547  1.1763
  507MOL0     H68403   4.882   1.520   7.230 -0.5073 -2.4756  1.6350
  507MOL0     H68404   4.768   1.643   7.296 -0.6466 -1.2131  2.6357
  507MOL0     H68405   4.582   1.553   6.862 -0.9077  0.2561 -0.2354
  507MOL0     H68406   4.272   1.679   6.777  1.9724  1.1459  1.2674
  507MOL0     H68407   4.397   1.569   6.704 -1.8169  1.7300 -1.5863
  507MOL0     H68408   4.266   1.498   6.782 -1.4494  0.7072 -0.5037
  507MOL0     H68409   3.974   1.531   7.182 -1.8831  0.8380  2.2889
  507MOL0     H68410   3.742   1.559   7.227 -1.1069  3.6538  0.4186
  507MOL0     H68411   3.536   1.462   7.135  0.0443 -0.6609 -0.6862
  507MOL0     H68412   3.499   1.608   7.238 -2.3745 -0.8989  0.7017
  507MOL0     H68413   3.338   1.458   7.050 -1.9913  1.7716 -2.0412
  507MOL0     H68414   3.298   1.538   7.201  0.7286 -1.2744  0.7896
  507MOL0     H68415   3.294   1.681   6.924 -4.0947  2.3073 -0.5578
  507MOL0     H68416   3.313   1.760   7.081  0.7217  0.8698 -0.1086
  507MOL0     H68417   3.115   1.529   7.051  1.8052 -0.0980 -0.4434
  507MOL0     H68418   3.119   1.672   7.157  0.2970 -0.2260  0.0934
  507MOL0     H68419   3.049   1.705   6.856  1.5892  1.1850 -0.3044
  507MOL0     H68420   3.065   1.817   6.985  1.2507  0.3292 -0.2570
  507MOL0     H68421   2.860   1.579   6.999 -0.8063  0.0672  2.1552
  507MOL0     H68422   2.858   1.738   7.085  1.7389 -0.1009  1.9372
  507MOL0     H68423   2.822   1.690   6.776 -2.5983 -3.3005  0.1434
  507MOL0     H68424   2.835   1.844   6.886 -0.0728 -0.4540  1.6777
  507MOL0     H68425   2.614   1.637   6.861  0.5288  0.0657  0.9050
  507MOL0     H68426   2.619   1.811   6.825 -0.2657 -0.1730 -0.7997
  507MOL0     H68427   3.680   1.721   6.823  3.0526  2.3352 -1.4578
  507MOL0     H68428   3.926   1.676   6.781 -2.8998 -0.6505 -1.0273
  507MOL0     H68429   4.313   1.734   7.228 -1.6741  1.6791 -2.3744
  507MOL0     H68430   4.532   1.667   7.292  1.7730 -1.4102 -0.6728
  507MOL0     H68431   6.207   1.113   7.178  0.3672  0.0931  0.6623
  507MOL0     H68432   6.389   1.245   7.136 -1.0495  1.5516  3.2605
  507MOL0     H68433   6.911   1.238   7.285 -1.0690  0.9653  0.6429
  507MOL0     H68434   7.128   1.303   7.246 -1.4313 -1.1515  0.6676
  507MOL0     H68435   7.304   1.512   7.182  3.6346 -0.1476  3.3772
  507MOL0     H68436   7.351   1.344   7.189  4.2206 -1.1411 -2.0855
  507MOL0     H68437   7.507   1.372   7.004  0.8244  1.9610 -2.3889
  507MOL0     H68438   7.553   1.456   7.143 -0.5657 -1.4624  0.5819
  507MOL0     H68439   7.389   1.654   7.017  1.5158  0.7409  4.3014
  507MOL0     H68440   7.436   1.563   6.878 -0.2772  0.0335  0.6061
  507MOL0     H68441   7.680   1.592   6.930 -0.9604 -0.0913 -0.2571
  507MOL0     H68442   7.649   1.662   7.090  1.3573  0.9551 -0.2549
  507MOL0     H68443   7.569   1.977   6.801  1.2563 -0.7594 -1.9064
  507MOL0     H68444   7.026   1.448   6.855 -0.6930  2.7102  0.8636
  507MOL0     H68445   6.783   1.378   6.890 -0.2505  0.7886 -0.6052
  508MOL0     O68446   1.759   1.524   4.543  0.1223  0.2262 -0.5326
  508MOL0     C68447   1.833   1.537   4.637  0.2104  0.2290 -1.3193
  508MOL0     O68448   1.795   1.518   4.773  0.4595  0.3774  0.0622
  508MOL0     C68449   1.655   1.512   4.787 -0.6449 -0.1036 -0.0440
  508MOL0     C68450   1.593   1.387   4.782  0.2013 -0.3666 -0.5476
  508MOL0     C68451   1.456   1.378   4.808  0.0266  0.6286 -0.1244
  508MOL0     C68452   1.384   1.501   4.842  1.0163  0.3084 -0.4361
  508MOL0     O68453   1.248   1.507   4.879 -0.1795  0.7334  0.9678
  508MOL0     C68454   1.159   1.393   4.844  0.3388  0.1735  0.3451
  508MOL0     C68455   1.025   1.450   4.833  0.5294 -0.6459  0.2369
  508MOL0     C68456   1.016   1.547   4.710  0.0326  0.0433 -0.5413
  508MOL0     C68457   0.882   1.624   4.675 -0.1402  0.6230 -0.4782
  508MOL0     C68458   0.891   1.723   4.559  0.3357  0.5485 -0.1932
  508MOL0     C68459   0.745   1.752   4.507  0.1783  0.0435 -0.0232
  508MOL0     C68460   0.750   1.862   4.392 -0.7548 -0.3911  0.2757
  508MOL0     C68461   0.798   2.001   4.434 -0.2078  0.2666  1.1079
  508MOL0     N68462   0.698   2.041   4.535 -0.6181 -0.3762 -0.2159
  508MOL0     C68463   0.568   2.079   4.510 -0.1652  0.2479 -1.2524
  508MOL0     C68464   0.504   2.116   4.618 -0.5954  0.5865 -0.0802
  508MOL0     C68465   0.370   2.168   4.639 -0.8016  0.2158 -1.2030
  508MOL0     C68466   0.282   2.050   4.586 -0.5293  0.6058  0.4667
  508MOL0     C68467   0.130   2.079   4.599  0.4162 -0.7609 -0.1695
  508MOL0     C68468   0.082   2.071   4.745  0.5437 -0.2335  0.5051
  508MOL0     O68469   0.073   2.204   4.795 -0.3564 -0.0626  0.0830
  508MOL0     C68470  -0.040   2.277   4.772 -0.4185  0.2551  0.4165
  508MOL0     C68471  -0.131   2.249   4.675  0.7676  1.3288 -0.3534
  508MOL0     C68472  -0.249   2.321   4.658 -0.1440 -0.0552 -0.1998
  508MOL0     C68473  -0.342   2.269   4.545 -0.5273 -0.0965 -0.5470
  508MOL0     C68474  -0.269   2.432   4.749  0.4357 -0.4625  1.1492
  508MOL0     C68475  -0.399   2.514   4.744 -0.8890  0.5490 -0.9409
  508MOL0     O68476  -0.486   2.494   4.645  0.7338  0.2607 -0.3588
  508MOL0     C68477  -0.606   2.560   4.654  0.0305 -0.5188  0.7772
  508MOL0     C68478  -0.730   2.510   4.695 -0.2046  0.6793 -0.5746
  508MOL0     C68479  -0.844   2.589   4.697  0.0762 -0.6679 -0.1200
  508MOL0     C68480  -0.843   2.719   4.650  0.2173  0.1382  0.7744
  508MOL0     O68481  -0.958   2.789   4.649 -0.3819 -0.4678  0.5733
  508MOL0     C68482  -0.979   2.854   4.524 -0.0579  0.5127 -0.0300
  508MOL0     C68483  -1.124   2.858   4.482  0.4321  0.3477 -0.2612
  508MOL0     C68484  -1.214   2.911   4.596  0.5999 -0.7402  0.0310
  508MOL0     C68485  -1.173   3.039   4.664 -0.7223  0.2003 -0.2933
  508MOL0     C68486  -1.297   3.080   4.750 -0.2260 -0.2307  0.0392
  508MOL0     C68487  -1.289   3.218   4.815 -0.4496  0.4840  0.3772
  508MOL0     C68488  -1.155   3.272   4.856  0.7871 -0.5654 -1.1454
  508MOL0     C68489  -1.164   3.414   4.898  0.3520 -0.0650 -0.4056
  508MOL0    Cl68490  -1.314   3.471   4.989  0.1691  0.1267 -0.1674
  508MOL0     C68491  -0.716   2.768   4.603  1.2182  0.0454 -0.2370
  508MOL0     C68492  -0.599   2.689   4.605  1.3022 -0.7743 -0.0168
  508MOL0     O68493  -0.404   2.606   4.825  0.6256 -0.1258  0.1301
  508MOL0     C68494  -0.172   2.459   4.855 -0.4391 -0.5101  0.7076
  508MOL0     C68495  -0.055   2.379   4.865  0.0589 -0.7485  0.4241
  508MOL0     N68496   0.601   2.086   4.715  0.2620  0.0952 -0.4864
  508MOL0     N68497   0.709   2.027   4.670 -0.3620 -0.1339  0.3123
  508MOL0     C68498   1.449   1.624   4.837  0.2037  0.2772  0.3896
  508MOL0     C68499   1.585   1.631   4.803 -0.1846  0.4811  0.1981
  508MOL0     C68500   1.980   1.532   4.602  0.3410  0.0030 -0.0949
  508MOL0     C68501   2.022   1.516   4.467  0.2474 -0.0561 -0.9686
  508MOL0     C68502   2.156   1.495   4.438  0.4134 -0.5936 -0.4445
  508MOL0     C68503   2.252   1.490   4.534 -0.4966 -0.3234  0.5594
  508MOL0     O68504   2.381   1.470   4.489  0.2038  0.0602 -0.1322
  508MOL0     C68505   2.500   1.477   4.566 -0.9894 -0.7469  0.3120
  508MOL0     C68506   2.543   1.629   4.580 -0.0175  0.0379  0.4429
  508MOL0     C68507   2.663   1.648   4.670  0.3537 -0.4437 -1.3287
  508MOL0     C68508   2.800   1.610   4.610  0.4300 -0.1928  0.1112
  508MOL0     C68509   2.908   1.642   4.704  1.1652  0.2338  0.6972
  508MOL0     C68510   2.988   1.655   4.790  0.2819  1.1836 -0.0613
  508MOL0     C68511   2.222   1.519   4.665 -0.2649 -0.1462  0.2956
  508MOL0     C68512   2.084   1.529   4.702 -0.4518 -0.2881 -1.0263
  508MOL0     H68513   1.652   1.296   4.772  1.1530  0.2051 -0.1556
  508MOL0     H68514   1.396   1.291   4.785  0.8489 -0.0589  0.2515
  508MOL0     H68515   1.183   1.361   4.743 -0.6020  0.4077  0.0380
  508MOL0     H68516   1.156   1.311   4.916  1.9394 -1.8907 -1.8108
  508MOL0     H68517   0.952   1.370   4.815  1.9171 -2.1037  0.8304
  508MOL0     H68518   0.999   1.499   4.927 -0.0892 -3.5933  1.7230
  508MOL0     H68519   1.098   1.619   4.718  0.2550 -0.1965 -0.6336
  508MOL0     H68520   1.037   1.481   4.626  0.1367 -2.0623  1.0614
  508MOL0     H68521   0.801   1.550   4.672  0.1066  0.3856 -2.8210
  508MOL0     H68522   0.865   1.692   4.759 -1.1686  0.9285 -0.9199
  508MOL0     H68523   0.934   1.818   4.592 -1.1992  0.9966  0.6325
  508MOL0     H68524   0.959   1.681   4.484  2.3278  2.0758  0.6772
  508MOL0     H68525   0.705   1.655   4.474  2.5630 -1.1540  0.3501
  508MOL0     H68526   0.679   1.785   4.588 -0.4132  1.9515 -1.2272
  508MOL0     H68527   0.814   1.832   4.309 -1.0986  0.0891 -0.1707
  508MOL0     H68528   0.654   1.869   4.341 -1.1243 -2.1236  0.6950
  508MOL0     H68529   0.796   2.061   4.343 -1.0477 -1.7395 -0.2602
  508MOL0     H68530   0.903   1.994   4.463  0.1693  2.2382  0.3485
  508MOL0     H68531   0.537   2.092   4.407  3.7973 -0.9260 -2.7841
  508MOL0     H68532   0.346   2.179   4.746  0.9844  0.5548 -0.7992
  508MOL0     H68533   0.368   2.266   4.590 -1.0351  0.5281 -0.5904
  508MOL0     H68534   0.318   1.960   4.637 -0.7530  0.0132 -0.3944
  508MOL0     H68535   0.308   2.027   4.482 -0.0533 -1.2862  0.9516
  508MOL0     H68536   0.066   2.021   4.531 -0.3716 -0.4570  0.2952
  508MOL0     H68537   0.116   2.182   4.565  1.0109  0.4494  2.9793
  508MOL0     H68538   0.145   2.010   4.810  1.4027  0.3575  0.2341
  508MOL0     H68539  -0.023   2.038   4.749 -0.1174  1.4403 -1.3067
  508MOL0     H68540  -0.117   2.165   4.608  1.1260  2.5540 -1.8765
  508MOL0     H68541  -0.339   2.329   4.454 -2.2841 -1.2387 -1.4177
  508MOL0     H68542  -0.312   2.166   4.520 -1.9294 -0.1221 -2.3090
  508MOL0     H68543  -0.450   2.264   4.563 -0.6339 -0.0647 -1.1423
  508MOL0     H68544  -0.725   2.406   4.727  0.7335  1.8071  3.4704
  508MOL0     H68545  -0.941   2.549   4.723 -0.3548 -2.8687 -4.2820
  508MOL0     H68546  -0.949   2.958   4.541 -1.8782  1.3136 -1.3916
  508MOL0     H68547  -0.914   2.823   4.442  0.6835  0.4986  0.5563
  508MOL0     H68548  -1.139   2.930   4.401 -2.8013 -0.5634 -0.6031
  508MOL0     H68549  -1.155   2.757   4.453 -0.1013  0.5906 -0.5563
  508MOL0     H68550  -1.211   2.831   4.670 -0.7702 -0.9528 -0.1076
  508MOL0     H68551  -1.317   2.917   4.559  1.2335  1.1241 -1.6489
  508MOL0     H68552  -1.086   3.020   4.728 -0.7266  0.3608 -0.2405
  508MOL0     H68553  -1.141   3.124   4.604 -1.8847  0.4359 -0.5943
  508MOL0     H68554  -1.302   3.013   4.837  3.0770  0.5010  0.9309
  508MOL0     H68555  -1.393   3.085   4.698 -0.3953  0.6851  0.4143
  508MOL0     H68556  -1.341   3.291   4.752 -1.9361 -0.0276  0.9541
  508MOL0     H68557  -1.347   3.211   4.908  1.9940 -2.5235  1.8524
  508MOL0     H68558  -1.082   3.266   4.774  4.5815 -0.5377  1.9537
  508MOL0     H68559  -1.110   3.218   4.939  1.7231 -2.7999 -3.0117
  508MOL0     H68560  -1.152   3.481   4.812  1.4385 -0.4955 -0.6014
  508MOL0     H68561  -1.089   3.433   4.974 -1.0984  1.2662  0.7701
  508MOL0     H68562  -0.712   2.870   4.563 -2.2843  0.4465  0.1638
  508MOL0     H68563  -0.498   2.717   4.580  2.1235 -3.7322 -0.4509
  508MOL0     H68564  -0.207   2.525   4.934 -2.7583 -0.5008 -0.2516
  508MOL0     H68565   0.014   2.382   4.949  0.6428 -1.6535 -0.0083
  508MOL0     H68566   1.387   1.713   4.839 -2.4952 -1.4729 -0.3802
  508MOL0     H68567   1.626   1.731   4.813 -1.0613  0.6960  2.0304
  508MOL0     H68568   1.939   1.493   4.401 -1.0756  1.0461  0.2431
  508MOL0     H68569   2.177   1.461   4.337  1.6670  0.2291 -0.4691
  508MOL0     H68570   2.486   1.434   4.665 -0.1121 -0.3486  0.6275
  508MOL0     H68571   2.584   1.421   4.524 -2.0714 -4.0762  2.2573
  508MOL0     H68572   2.458   1.682   4.624 -0.5093 -1.6659  1.6546
  508MOL0     H68573   2.561   1.663   4.478 -0.1244  0.4127  0.5493
  508MOL0     H68574   2.638   1.592   4.761 -0.6198 -0.3358 -1.5146
  508MOL0     H68575   2.666   1.757   4.672 -1.6380 -0.3502 -0.0802
  508MOL0     H68576   2.831   1.669   4.524  1.2536  0.5973  0.9268
  508MOL0     H68577   2.809   1.508   4.573  1.6420  0.8100 -2.6534
  508MOL0     H68578   3.075   1.665   4.851 -0.3903  1.6327  0.8561
  508MOL0     H68579   2.295   1.501   4.743 -1.3970  0.3510  1.4955
  508MOL0     H68580   2.079   1.529   4.810  2.1032 -0.7539 -0.8600
  509MOL0     O68581  11.108   6.518   0.913 -0.1855 -0.3925  1.0238
  509MOL0     C68582  11.212   6.459   0.948  0.9607 -0.4150  0.5225
  509MOL0     O68583  11.229   6.326   0.930 -0.2694 -0.0689 -1.1321
  509MOL0     C68584  11.124   6.252   0.880  0.0292  0.4343  0.2494
  509MOL0     C68585  11.140   6.176   0.764  0.6230  0.2455  0.1661
  509MOL0     C68586  11.032   6.108   0.708 -0.0819  0.3244  0.0412
  509MOL0     C68587  10.907   6.108   0.771  0.7327  0.7168 -0.0622
  509MOL0     O68588  10.802   6.044   0.717  0.1835 -0.0544  0.1727
  509MOL0     C68589  10.668   6.090   0.735  0.4167 -0.0502 -0.0315
  509MOL0     C68590  10.561   6.015   0.656 -0.8718 -0.2635  0.0107
  509MOL0     C68591  10.427   6.019   0.725 -0.2527 -0.8927  0.5179
  509MOL0     C68592  10.328   5.933   0.651  0.5477  0.2616 -0.0199
  509MOL0     C68593  10.173   5.947   0.680  0.1000 -0.4056  0.5249
  509MOL0     C68594  10.131   5.867   0.801  0.0623  0.5230  0.0990
  509MOL0     C68595   9.972   5.871   0.826 -0.3465  0.5944 -0.4556
  509MOL0     C68596   9.920   5.976   0.930  0.4870  0.6041  0.0907
  509MOL0     N68597   9.989   5.963   1.057  0.5772 -0.2309  0.3926
  509MOL0     C68598   9.959   5.866   1.143  0.5137 -0.1168  0.0545
  509MOL0     C68599  10.035   5.885   1.251 -0.4578 -0.3523 -0.3242
  509MOL0     C68600  10.028   5.803   1.378 -0.0444 -0.3566  0.7259
  509MOL0     C68601  10.063   5.658   1.356  0.4126  0.4254  0.6690
  509MOL0     C68602  10.184   5.600   1.432 -0.4578  0.3243 -0.0889
  509MOL0     C68603  10.191   5.446   1.432 -0.2368 -0.5897 -0.2097
  509MOL0     O68604  10.157   5.384   1.307  0.4055 -0.0727  0.4069
  509MOL0     C68605  10.061   5.285   1.303 -0.1134 -0.0399 -0.9151
  509MOL0     C68606  10.067   5.184   1.201  0.1741  0.2610  0.4361
  509MOL0     C68607   9.976   5.071   1.202  0.4753 -0.7842 -0.4854
  509MOL0     C68608   9.990   4.968   1.093 -0.2341  0.0230  0.5590
  509MOL0     C68609   9.868   5.072   1.296  0.1337 -0.6819 -0.3615
  509MOL0     C68610   9.751   4.975   1.296 -0.7565  0.6461  0.7292
  509MOL0     O68611   9.679   4.978   1.407  0.0393 -0.0031 -0.2204
  509MOL0     C68612   9.581   4.880   1.428 -0.3276 -0.2395 -0.1274
  509MOL0     C68613   9.617   4.741   1.430  0.1713  0.3383 -0.5047
  509MOL0     C68614   9.518   4.652   1.467 -0.6029 -0.1256 -0.0394
  509MOL0     C68615   9.391   4.688   1.509  0.4055 -1.3199 -0.1881
  509MOL0     O68616   9.311   4.586   1.546  0.0338  0.1477 -0.2331
  509MOL0     C68617   9.237   4.610   1.670 -0.7055 -0.1135  0.2484
  509MOL0     C68618   9.181   4.474   1.716 -0.4644 -0.1924 -0.6824
  509MOL0     C68619   9.098   4.405   1.609 -1.0026  0.0403  0.6902
  509MOL0     C68620   9.004   4.293   1.663 -0.2324 -0.7603  0.2184
  509MOL0     C68621   8.895   4.264   1.564 -0.2650  0.0623  0.1078
  509MOL0     C68622   8.795   4.158   1.603  0.8770  0.3304 -0.0333
  509MOL0     C68623   8.691   4.122   1.492  0.4031 -0.3024 -0.3336
  509MOL0     C68624   8.616   3.988   1.507  0.0278  0.1535  0.1232
  509MOL0    Cl68625   8.472   4.009   1.610 -0.2526 -0.0662 -0.4906
  509MOL0     C68626   9.359   4.828   1.503  0.9012 -0.0646 -1.0808
  509MOL0     C68627   9.455   4.917   1.469  0.4934 -0.9996  0.3641
  509MOL0     O68628   9.724   4.911   1.191 -0.1067 -0.3389  0.5577
  509MOL0     C68629   9.859   5.179   1.387 -0.5998  0.5188 -0.3301
  509MOL0     C68630   9.951   5.279   1.390  0.0800  0.6142 -0.2127
  509MOL0     N68631  10.103   6.009   1.222 -0.3759 -0.6504 -0.2632
  509MOL0     N68632  10.078   6.053   1.105  0.0841  0.2097 -0.4207
  509MOL0     C68633  10.904   6.160   0.902  0.5801  0.6141 -0.2562
  509MOL0     C68634  11.010   6.238   0.956  0.0122 -0.6370  0.3292
  509MOL0     C68635  11.321   6.545   1.012  0.2638 -0.3463  0.9762
  509MOL0     C68636  11.285   6.671   1.058 -0.2925  0.5851 -0.1745
  509MOL0     C68637  11.374   6.767   1.094  0.3280 -0.2144 -0.2637
  509MOL0     C68638  11.499   6.737   1.092  0.0310  0.2510  0.1483
  509MOL0     O68639  11.581   6.835   1.139 -0.1642  0.3221 -0.4898
  509MOL0     C68640  11.720   6.822   1.126 -0.6614  0.1970 -0.2746
  509MOL0     C68641  11.805   6.938   1.193 -0.2044  0.3982  0.6772
  509MOL0     C68642  11.761   6.976   1.335 -0.0278  0.5770  0.1322
  509MOL0     C68643  11.847   7.078   1.389 -0.6445 -0.5385  0.4551
  509MOL0     C68644  11.991   7.043   1.394  1.2050 -0.3911  0.6596
  509MOL0     C68645  12.111   7.020   1.406  0.3902 -0.3923  0.1669
  509MOL0     C68646  11.541   6.610   1.040  0.0483 -0.5447 -0.9616
  509MOL0     C68647  11.461   6.511   1.000  0.6117 -0.1112  0.8478
  509MOL0     H68648  11.227   6.177   0.699 -0.8420 -0.4115 -1.9335
  509MOL0     H68649  11.034   6.062   0.610  0.0920 -0.7431  0.5315
  509MOL0     H68650  10.639   6.083   0.840 -2.5614 -0.1652 -0.7554
  509MOL0     H68651  10.664   6.195   0.704  0.5220 -1.1735 -4.4158
  509MOL0     H68652  10.562   6.059   0.556  4.1174  2.3992  0.9088
  509MOL0     H68653  10.607   5.916   0.647 -0.5080 -0.0817 -0.1288
  509MOL0     H68654  10.429   5.996   0.832  1.3515  1.5633  1.1099
  509MOL0     H68655  10.394   6.123   0.719  0.5461 -0.6874 -0.6122
  509MOL0     H68656  10.324   5.958   0.544  0.2029 -0.9281 -0.2954
  509MOL0     H68657  10.359   5.831   0.671  0.5113  0.3696  0.6206
  509MOL0     H68658  10.147   6.052   0.698 -0.2617 -0.3959 -0.0346
  509MOL0     H68659  10.112   5.915   0.595  0.4195 -1.4266  0.6598
  509MOL0     H68660  10.168   5.765   0.783 -0.5507  0.2085  0.5728
  509MOL0     H68661  10.184   5.903   0.890 -0.6159 -0.5397  0.9503
  509MOL0     H68662   9.916   5.890   0.734 -0.1253  0.3496 -0.6425
  509MOL0     H68663   9.932   5.776   0.863  0.0022 -0.1040 -1.7818
  509MOL0     H68664   9.815   5.952   0.946  0.0806  0.1470 -2.6785
  509MOL0     H68665   9.933   6.080   0.899 -2.3283  1.0350  0.0590
  509MOL0     H68666   9.892   5.781   1.135  1.3027 -0.7081 -0.3686
  509MOL0     H68667  10.093   5.842   1.457 -1.6308  0.5017  1.6466
  509MOL0     H68668   9.926   5.798   1.416  0.2530 -2.2857  1.3418
  509MOL0     H68669  10.088   5.645   1.250  1.4723  1.8320  0.7187
  509MOL0     H68670   9.980   5.595   1.390 -0.6059 -0.0484 -2.3586
  509MOL0     H68671  10.167   5.627   1.537 -0.7297  0.5763 -0.1959
  509MOL0     H68672  10.276   5.652   1.402  1.9492 -2.8730  1.2101
  509MOL0     H68673  10.129   5.423   1.519  2.4309 -1.1682  1.6890
  509MOL0     H68674  10.288   5.404   1.464 -0.5973 -0.6775  0.8079
  509MOL0     H68675  10.140   5.187   1.121 -1.4302 -0.5220 -1.1400
  509MOL0     H68676  10.096   4.955   1.067 -0.5291 -0.7227 -0.2802
  509MOL0     H68677   9.968   4.866   1.125  0.0709  0.0362  0.8276
  509MOL0     H68678   9.927   5.004   1.012 -1.1140  1.7885  1.9464
  509MOL0     H68679   9.717   4.708   1.405  0.2047  2.0000 -2.8415
  509MOL0     H68680   9.547   4.548   1.459  1.2870  0.3526  0.1325
  509MOL0     H68681   9.306   4.652   1.744  1.5741 -0.5135 -1.5250
  509MOL0     H68682   9.156   4.680   1.648  0.4895  0.9851 -0.8256
  509MOL0     H68683   9.259   4.402   1.742  0.0901  0.8566  0.6761
  509MOL0     H68684   9.134   4.493   1.812 -2.5568 -0.7789 -1.5368
  509MOL0     H68685   9.175   4.357   1.549 -0.9521 -0.8857  1.4689
  509MOL0     H68686   9.044   4.483   1.554 -1.3169  0.9138  2.1719
  509MOL0     H68687   9.052   4.198   1.684 -4.4908 -3.0475  0.6676
  509MOL0     H68688   8.962   4.313   1.762  0.5798 -2.7830  1.0114
  509MOL0     H68689   8.941   4.238   1.468 -0.2506  0.9976 -0.1549
  509MOL0     H68690   8.839   4.357   1.547  1.9929  1.7339  1.2509
  509MOL0     H68691   8.842   4.066   1.638 -0.2525  0.4285  1.9098
  509MOL0     H68692   8.740   4.202   1.688 -0.2370  0.5064 -0.8225
  509MOL0     H68693   8.731   4.122   1.390  0.2839 -0.9227 -0.3847
  509MOL0     H68694   8.622   4.207   1.486  1.0660  0.4381  1.6352
  509MOL0     H68695   8.682   3.912   1.550  0.0066  1.0408  1.7833
  509MOL0     H68696   8.590   3.960   1.404  1.5462 -4.1871  0.7347
  509MOL0     H68697   9.264   4.867   1.539  1.4534  1.3804 -1.1674
  509MOL0     H68698   9.432   5.023   1.479  2.1236 -0.7097  1.5489
  509MOL0     H68699   9.780   5.195   1.460 -0.8641 -1.3707 -0.1490
  509MOL0     H68700   9.931   5.365   1.453 -2.6174  0.3249 -0.5776
  509MOL0     H68701  10.813   6.150   0.961  0.0900 -3.0486 -1.3573
  509MOL0     H68702  11.002   6.289   1.052 -2.7041  0.6841 -0.4918
  509MOL0     H68703  11.181   6.699   1.071  0.0186  1.2217  1.1998
  509MOL0     H68704  11.335   6.867   1.114  0.8949 -0.0898  0.2514
  509MOL0     H68705  11.758   6.734   1.179 -0.9928  1.2801  1.8705
  509MOL0     H68706  11.743   6.800   1.022 -2.0395 -1.5297 -0.2583
  509MOL0     H68707  11.805   7.027   1.129  1.1723  0.0644  0.1868
  509MOL0     H68708  11.907   6.901   1.185 -0.5529 -0.1802 -2.2771
  509MOL0     H68709  11.771   6.894   1.406 -3.4311 -0.8906 -0.8543
  509MOL0     H68710  11.655   7.002   1.337  0.0127  0.8497 -0.6649
  509MOL0     H68711  11.815   7.098   1.492 -0.2649 -1.4110  0.7571
  509MOL0     H68712  11.840   7.176   1.341 -0.3246 -0.5203  0.4426
  509MOL0     H68713  12.216   7.003   1.416  0.4707  0.5164  0.9904
  509MOL0     H68714  11.649   6.597   1.043  0.4280  1.9274 -1.1085
  509MOL0     H68715  11.486   6.410   0.967 -2.7726 -0.5956 -0.6619
  510MOL0     O68716   3.091   3.211   6.061  0.7072 -0.3465  0.1664
  510MOL0     C68717   3.079   3.212   5.933 -0.1167  0.2075 -0.9269
  510MOL0     O68718   2.954   3.223   5.861 -0.0646  0.0035  0.4932
  510MOL0     C68719   2.833   3.233   5.919 -0.5529  0.0611 -0.1611
  510MOL0     C68720   2.809   3.194   6.054  0.7092 -0.5081 -0.3993
  510MOL0     C68721   2.677   3.208   6.105  0.5051 -0.0782 -0.0338
  510MOL0     C68722   2.576   3.261   6.027 -0.5794 -1.1152 -0.4504
  510MOL0     O68723   2.450   3.268   6.082 -1.1787 -0.0518 -0.6072
  510MOL0     C68724   2.337   3.291   6.000  0.0983  0.3307  0.0033
  510MOL0     C68725   2.224   3.274   6.099 -0.5439 -0.7498 -0.4583
  510MOL0     C68726   2.080   3.266   6.046  0.8231  0.2223  0.4494
  510MOL0     C68727   1.973   3.276   6.150 -0.4887  0.9119  0.6864
  510MOL0     C68728   1.838   3.228   6.103 -0.8506 -0.5177 -0.2780
  510MOL0     C68729   1.779   3.311   5.984  0.1641 -0.3417 -0.0281
  510MOL0     C68730   1.629   3.299   5.986  0.5792  0.6920 -0.2305
  510MOL0     C68731   1.548   3.165   5.954  0.5901 -0.3303  0.1154
  510MOL0     N68732   1.407   3.174   6.000 -0.0626 -0.2879  0.5248
  510MOL0     C68733   1.336   3.293   6.019 -0.0823  1.1741  0.4213
  510MOL0     C68734   1.220   3.251   6.086 -0.1685 -0.1312  0.2825
  510MOL0     C68735   1.116   3.344   6.144  0.0625 -0.1444 -0.5645
  510MOL0     C68736   0.975   3.323   6.093  0.4818 -0.0150  0.2185
  510MOL0     C68737   0.911   3.201   6.161  0.2816  0.1215 -0.5102
  510MOL0     C68738   0.761   3.219   6.168  0.2127 -0.0021 -0.5918
  510MOL0     O68739   0.695   3.093   6.177  0.4449 -0.2463 -0.3155
  510MOL0     C68740   0.613   3.067   6.281  1.6820  0.1394  0.0716
  510MOL0     C68741   0.640   3.112   6.406  0.3952 -1.2834 -0.1921
  510MOL0     C68742   0.552   3.091   6.519  0.6634 -0.5835 -0.1454
  510MOL0     C68743   0.586   3.168   6.648  0.3399  0.2275  0.3805
  510MOL0     C68744   0.439   3.008   6.492 -0.4537  0.0033 -0.2634
  510MOL0     C68745   0.323   2.998   6.593  0.2173  0.1826  0.0328
  510MOL0     O68746   0.194   2.982   6.536 -0.1746 -0.0289  0.1002
  510MOL0     C68747   0.090   2.958   6.623  0.2735 -0.2282  0.8817
  510MOL0     C68748  -0.010   3.058   6.636 -0.0161 -0.5968 -0.4842
  510MOL0     C68749  -0.109   3.044   6.723 -0.1799  0.2570 -0.7163
  510MOL0     C68750  -0.127   2.921   6.794  0.4175 -0.9236  0.4491
  510MOL0     O68751  -0.221   2.900   6.889  0.1580  0.5204  0.6604
  510MOL0     C68752  -0.337   2.989   6.890 -0.2583 -0.2825  0.3110
  510MOL0     C68753  -0.423   2.942   7.015 -0.6858 -0.6303  0.1195
  510MOL0     C68754  -0.556   3.017   7.015 -0.0620 -0.5908 -0.5344
  510MOL0     C68755  -0.661   2.958   7.107  0.9646 -0.7229 -0.2246
  510MOL0     C68756  -0.789   3.052   7.118 -0.2204 -0.2593 -0.5520
  510MOL0     C68757  -0.842   3.104   6.987  0.4560 -0.3171  0.2472
  510MOL0     C68758  -0.961   3.209   7.009  0.4181 -0.0881 -0.1666
  510MOL0     C68759  -0.915   3.343   7.073  0.3719  0.7078  0.6526
  510MOL0    Cl68760  -0.778   3.408   6.982 -0.1279 -0.2813  0.2632
  510MOL0     C68761  -0.037   2.817   6.770  0.5633 -0.8184  0.4974
  510MOL0     C68762   0.078   2.836   6.685  0.7986  0.4867 -0.6234
  510MOL0     O68763   0.350   2.993   6.712 -0.5394  0.3039 -0.0687
  510MOL0     C68764   0.420   2.948   6.374  1.0853  0.1516  0.7005
  510MOL0     C68765   0.507   2.971   6.269 -0.0710  0.1980 -0.5738
  510MOL0     N68766   1.229   3.118   6.111  0.1365  1.0580 -0.7022
  510MOL0     N68767   1.340   3.076   6.065 -0.0014  0.3461 -0.2763
  510MOL0     C68768   2.607   3.313   5.904  0.6775  0.1725 -0.3914
  510MOL0     C68769   2.731   3.299   5.848  0.0239  0.2199 -0.5174
  510MOL0     C68770   3.197   3.189   5.848  0.3167 -1.4804  1.0407
  510MOL0     C68771   3.325   3.162   5.903 -0.7594  0.3342 -0.1821
  510MOL0     C68772   3.436   3.142   5.824 -0.4988  0.1912 -0.0008
  510MOL0     C68773   3.427   3.153   5.686  0.8643 -0.1239 -0.7325
  510MOL0     O68774   3.543   3.134   5.615  0.0297  0.5636 -0.2984
  510MOL0     C68775   3.550   3.074   5.483 -0.6636  0.1635  0.4242
  510MOL0     C68776   3.610   3.168   5.373 -0.1852  0.2837 -0.0489
  510MOL0     C68777   3.668   3.072   5.261 -0.4491 -0.0777  0.6308
  510MOL0     C68778   3.691   3.145   5.136  0.1381  0.3695  0.1362
  510MOL0     C68779   3.774   3.078   5.033 -0.0764 -0.2938 -0.6400
  510MOL0     C68780   3.853   3.028   4.962 -0.2196 -0.3280 -0.1959
  510MOL0     C68781   3.300   3.189   5.632  0.3302 -0.1067  0.6474
  510MOL0     C68782   3.184   3.203   5.707 -0.0978  0.1067  0.2691
  510MOL0     H68783   2.879   3.143   6.118  1.0307 -0.8519 -1.0130
  510MOL0     H68784   2.656   3.178   6.207 -1.7896  0.8326 -0.1627
  510MOL0     H68785   2.350   3.389   5.953 -1.1476  0.2464 -0.5695
  510MOL0     H68786   2.341   3.207   5.930 -0.6579  0.4938 -0.2468
  510MOL0     H68787   2.239   3.184   6.159 -0.5287  0.0376  0.7458
  510MOL0     H68788   2.223   3.361   6.165 -1.0010 -0.3894 -0.9238
  510MOL0     H68789   2.068   3.355   5.984 -0.6021  1.7111  2.6909
  510MOL0     H68790   2.058   3.183   5.979 -1.2293  1.8721 -1.0775
  510MOL0     H68791   1.995   3.209   6.233 -0.7860 -0.7312 -0.4981
  510MOL0     H68792   1.975   3.384   6.166  1.4076  0.8931  0.7890
  510MOL0     H68793   1.845   3.121   6.080 -0.0179 -0.5369  0.0466
  510MOL0     H68794   1.771   3.244   6.187 -1.9068  3.3151 -1.6404
  510MOL0     H68795   1.822   3.412   5.986 -2.5000  0.8717  1.1429
  510MOL0     H68796   1.802   3.258   5.891 -0.9598  2.5756 -2.1200
  510MOL0     H68797   1.591   3.335   6.082 -2.3609 -2.5696  0.0212
  510MOL0     H68798   1.594   3.377   5.918  0.4202 -0.7156 -1.8457
  510MOL0     H68799   1.596   3.085   6.012  4.5125  0.9426 -1.0308
  510MOL0     H68800   1.550   3.139   5.847  0.7498  0.5388 -0.0954
  510MOL0     H68801   1.362   3.395   5.993 -0.3105  0.6949 -1.9402
  510MOL0     H68802   1.121   3.329   6.252 -3.7509 -0.9942 -0.3827
  510MOL0     H68803   1.140   3.449   6.125 -1.6038  0.9848  2.8334
  510MOL0     H68804   0.985   3.309   5.985  2.6389  1.8036  0.1272
  510MOL0     H68805   0.916   3.412   6.118  0.3814 -0.5044  1.8654
  510MOL0     H68806   0.946   3.201   6.265 -1.0394 -0.9471 -0.0309
  510MOL0     H68807   0.948   3.108   6.118 -1.6079 -1.6816  1.4849
  510MOL0     H68808   0.743   3.259   6.068  0.9502 -1.0199 -1.1499
  510MOL0     H68809   0.735   3.292   6.245  2.8100 -1.0389  1.4416
  510MOL0     H68810   0.729   3.170   6.429 -0.0477 -1.8181  3.5234
  510MOL0     H68811   0.553   3.270   6.626 -2.9588  0.4244  4.7105
  510MOL0     H68812   0.533   3.119   6.731 -2.3204  2.3045  0.0472
  510MOL0     H68813   0.694   3.172   6.663  0.1644  1.7086  1.4726
  510MOL0     H68814   0.006   3.152   6.582  0.5391 -0.3293  0.1424
  510MOL0     H68815  -0.161   3.138   6.740  0.2116  0.3776 -0.1597
  510MOL0     H68816  -0.317   3.096   6.879  0.9798 -0.6756 -8.7408
  510MOL0     H68817  -0.389   2.974   6.794 -0.9238  0.3218  0.5674
  510MOL0     H68818  -0.437   2.833   7.016  0.4005 -0.7806  0.1161
  510MOL0     H68819  -0.361   2.968   7.100 -0.6247  2.7091 -0.8307
  510MOL0     H68820  -0.600   3.003   6.915 -0.8753  0.8483 -0.4085
  510MOL0     H68821  -0.525   3.122   7.025 -0.9797 -0.2463 -1.1790
  510MOL0     H68822  -0.699   2.865   7.064 -2.0615  1.5954 -3.1031
  510MOL0     H68823  -0.619   2.942   7.207  3.0840 -0.6405 -1.0677
  510MOL0     H68824  -0.768   3.135   7.185  2.2574 -0.3973 -1.0670
  510MOL0     H68825  -0.877   2.999   7.156 -1.6285  0.0928 -3.1121
  510MOL0     H68826  -0.768   3.147   6.919 -0.0541  2.6786  1.4224
  510MOL0     H68827  -0.879   3.015   6.936  3.5910 -2.4451  1.3649
  510MOL0     H68828  -1.032   3.155   7.072  1.4403 -2.3793 -0.8861
  510MOL0     H68829  -1.003   3.236   6.912  2.1599 -0.6849 -1.1206
  510MOL0     H68830  -0.880   3.326   7.175 -0.9562 -0.2843  0.9625
  510MOL0     H68831  -0.999   3.413   7.071 -1.7855 -1.7086  0.7592
  510MOL0     H68832  -0.055   2.722   6.820 -5.5251 -2.0243 -3.0004
  510MOL0     H68833   0.158   2.764   6.675  1.3256  0.7798  1.1064
  510MOL0     H68834   0.332   2.884   6.370 -1.8822  3.7546  2.7217
  510MOL0     H68835   0.490   2.918   6.176 -0.3316 -1.0804  0.1771
  510MOL0     H68836   2.542   3.364   5.833  0.2684 -0.4367 -0.4581
  510MOL0     H68837   2.744   3.338   5.747 -0.7474  1.1413 -0.2664
  510MOL0     H68838   3.335   3.148   6.010  0.7520  0.1220 -0.3279
  510MOL0     H68839   3.528   3.109   5.871 -1.6909 -2.2279  0.8011
  510MOL0     H68840   3.611   2.983   5.482 -0.0788  0.5556  0.2168
  510MOL0     H68841   3.452   3.042   5.446  0.3034 -1.5265 -0.8152
  510MOL0     H68842   3.693   3.218   5.426 -0.7954  1.2180  0.0465
  510MOL0     H68843   3.537   3.237   5.330  0.8738  1.0759 -0.6273
  510MOL0     H68844   3.603   2.985   5.248 -2.4881  1.5861 -0.7856
  510MOL0     H68845   3.762   3.024   5.291 -0.7437 -0.8150  0.3839
  510MOL0     H68846   3.741   3.239   5.161 -0.1236  0.7165 -0.6294
  510MOL0     H68847   3.593   3.167   5.094 -0.0143  1.9197  1.2163
  510MOL0     H68848   3.942   2.979   4.928  0.6322 -0.9201  2.5947
  510MOL0     H68849   3.300   3.199   5.524  2.7292 -0.6099  0.5576
  510MOL0     H68850   3.093   3.231   5.654 -1.3142 -2.5697  0.7552
  511MOL0     O68851   6.872   1.266   3.808 -0.3966  0.3058  0.4583
  511MOL0     C68852   6.896   1.308   3.691 -0.2530 -0.3312  1.0029
  511MOL0     O68853   6.815   1.293   3.577 -0.3140  0.9536  0.5771
  511MOL0     C68854   6.697   1.237   3.606  0.1293 -0.1257  0.7399
  511MOL0     C68855   6.675   1.096   3.576 -0.1858  0.4117  0.3756
  511MOL0     C68856   6.544   1.052   3.578  0.3903  1.0162 -0.3903
  511MOL0     C68857   6.436   1.130   3.630 -0.6476 -0.1044 -0.0363
  511MOL0     O68858   6.300   1.102   3.628  0.4088  0.3397 -0.6999
  511MOL0     C68859   6.251   0.975   3.578  0.3774  0.2681  0.7768
  511MOL0     C68860   6.100   0.969   3.577 -0.0768  0.0350 -0.0384
  511MOL0     C68861   6.048   0.957   3.718  0.1454 -0.3722  0.2320
  511MOL0     C68862   6.037   0.816   3.771  0.1880 -0.4882  1.2503
  511MOL0     C68863   5.990   0.810   3.919  1.1386  0.5297 -0.4452
  511MOL0     C68864   6.046   0.673   3.963  0.0842  0.8149  0.1528
  511MOL0     C68865   5.983   0.633   4.097 -0.2349 -0.2385  0.5857
  511MOL0     C68866   6.052   0.509   4.161 -0.1037  0.1344  0.2117
  511MOL0     N68867   6.188   0.536   4.224  0.3325 -0.0885  0.5962
  511MOL0     C68868   6.305   0.506   4.154 -0.7868 -0.5481 -0.3471
  511MOL0     C68869   6.401   0.531   4.245 -0.1363 -0.2075  0.3227
  511MOL0     C68870   6.545   0.508   4.211 -0.6623 -0.4286  0.1082
  511MOL0     C68871   6.622   0.444   4.325 -1.1708 -0.1824  0.5088
  511MOL0     C68872   6.777   0.411   4.300 -0.6619 -0.8644 -0.5405
  511MOL0     C68873   6.877   0.535   4.315  0.1832  1.1739  0.8360
  511MOL0     O68874   6.919   0.563   4.180  0.2623  0.1379 -0.5184
  511MOL0     C68875   7.045   0.615   4.167 -0.0872  0.2448  0.2245
  511MOL0     C68876   7.115   0.692   4.270 -0.2482  0.4860 -0.5396
  511MOL0     C68877   7.243   0.744   4.257  0.1548  0.4368 -0.2271
  511MOL0     C68878   7.296   0.836   4.368  0.7880 -0.6791  0.0567
  511MOL0     C68879   7.307   0.712   4.135  0.2122  0.6042  0.2281
  511MOL0     C68880   7.446   0.752   4.105  0.0240 -0.3349 -0.5032
  511MOL0     O68881   7.543   0.731   4.196  0.2329  0.1701 -0.2032
  511MOL0     C68882   7.654   0.800   4.176 -0.8295  0.6547  0.7417
  511MOL0     C68883   7.666   0.942   4.203 -1.1261 -0.8184  0.5385
  511MOL0     C68884   7.784   1.017   4.163  0.0836  0.3571  0.1150
  511MOL0     C68885   7.896   0.954   4.106 -0.0299  0.1196  0.1640
  511MOL0     O68886   8.014   1.010   4.060 -0.6634  0.7668 -0.1288
  511MOL0     C68887   8.039   1.153   4.088 -0.2897  0.0408  0.1874
  511MOL0     C68888   8.079   1.156   4.233  0.4448 -0.4162 -0.5995
  511MOL0     C68889   8.191   1.066   4.273 -0.1577 -0.2027  0.2685
  511MOL0     C68890   8.331   1.088   4.198 -0.5553 -0.2884 -0.5970
  511MOL0     C68891   8.380   1.238   4.204  0.7579 -0.3072 -0.7444
  511MOL0     C68892   8.404   1.298   4.351 -0.2599 -0.5886  0.2343
  511MOL0     C68893   8.483   1.432   4.347  0.0700  1.4286 -0.0603
  511MOL0     C68894   8.407   1.547   4.283  0.0246 -0.4322  0.3505
  511MOL0    Cl68895   8.238   1.548   4.333 -0.0435  0.3237 -0.0094
  511MOL0     C68896   7.887   0.809   4.082  0.9738 -0.0054  0.7905
  511MOL0     C68897   7.765   0.734   4.107  0.3564 -0.5897  0.0687
  511MOL0     O68898   7.461   0.800   3.988 -0.4131 -0.2664  0.5741
  511MOL0     C68899   7.241   0.635   4.036 -0.2706  0.0523  0.1005
  511MOL0     C68900   7.112   0.590   4.047  0.8516 -0.0252 -0.2044
  511MOL0     N68901   6.345   0.563   4.369  0.0456 -0.0184  0.1135
  511MOL0     N68902   6.220   0.585   4.349  0.4939  0.5745  0.2862
  511MOL0     C68903   6.474   1.253   3.670  0.5319 -1.5969  0.6710
  511MOL0     C68904   6.600   1.311   3.656  0.7029  0.0279  0.3959
  511MOL0     C68905   7.021   1.374   3.673 -0.8081  0.2489 -0.4166
  511MOL0     C68906   7.121   1.368   3.775 -0.1163 -0.3668  0.2584
  511MOL0     C68907   7.251   1.419   3.750  0.2654 -0.0136 -0.2264
  511MOL0     C68908   7.269   1.514   3.643 -0.1934  1.0715  0.8029
  511MOL0     O68909   7.387   1.589   3.625  0.2009 -0.7560  0.0118
  511MOL0     C68910   7.475   1.606   3.738 -0.4063 -0.9466  0.0180
  511MOL0     C68911   7.586   1.692   3.700  0.2441 -0.1340 -0.5060
  511MOL0     C68912   7.668   1.613   3.590  0.3055  0.4251  0.1798
  511MOL0     C68913   7.809   1.680   3.592  0.5103 -0.2913 -0.0127
  511MOL0     C68914   7.806   1.818   3.539  0.4439  0.1006  0.7585
  511MOL0     C68915   7.772   1.923   3.495  0.1689 -1.2710 -0.0726
  511MOL0     C68916   7.166   1.517   3.537  0.5429 -0.5850  0.0154
  511MOL0     C68917   7.053   1.435   3.551  0.2341  0.4462 -0.4031
  511MOL0     H68918   6.747   1.028   3.533 -2.3985 -1.5033 -0.5183
  511MOL0     H68919   6.521   0.951   3.546 -3.4023  2.0428 -1.4865
  511MOL0     H68920   6.280   0.984   3.473  0.4562  2.4223  0.9347
  511MOL0     H68921   6.288   0.894   3.641 -2.3304 -0.3420  1.7388
  511MOL0     H68922   6.054   1.058   3.534 -3.7884 -0.8960  1.6087
  511MOL0     H68923   6.070   0.889   3.509  0.8106 -1.6775  1.4898
  511MOL0     H68924   6.111   1.010   3.790 -1.3004 -1.3623  2.3242
  511MOL0     H68925   5.949   1.004   3.719  0.5952  0.5868  0.6072
  511MOL0     H68926   5.961   0.766   3.709 -1.5667  0.4737  2.5340
  511MOL0     H68927   6.129   0.763   3.744  0.5252  1.1552 -1.0765
  511MOL0     H68928   6.036   0.884   3.984  1.0370 -1.9224  2.6755
  511MOL0     H68929   5.881   0.807   3.933  1.0853  0.9023 -0.7526
  511MOL0     H68930   6.005   0.592   3.903 -0.2964 -0.0835  1.5653
  511MOL0     H68931   6.155   0.674   3.972 -0.0549  0.6624  2.8803
  511MOL0     H68932   5.996   0.719   4.164  3.2677  0.6026 -0.9126
  511MOL0     H68933   5.878   0.617   4.072 -0.6573  0.9734  1.4974
  511MOL0     H68934   6.070   0.434   4.084 -1.5342 -1.6492  1.5394
  511MOL0     H68935   5.989   0.470   4.241 -1.0221  1.4414  0.1672
  511MOL0     H68936   6.329   0.476   4.052 -0.6913  1.3387 -0.9057
  511MOL0     H68937   6.572   0.448   4.124  3.0004 -2.8511  2.6204
  511MOL0     H68938   6.581   0.611   4.204  0.5696 -0.8777 -0.4058
  511MOL0     H68939   6.564   0.353   4.343 -0.8342 -1.3611 -3.4897
  511MOL0     H68940   6.613   0.505   4.416  0.2551 -0.2616  0.7266
  511MOL0     H68941   6.800   0.366   4.203  0.1866 -0.5953 -0.4702
  511MOL0     H68942   6.797   0.339   4.380 -0.2107 -3.6725 -3.0205
  511MOL0     H68943   6.958   0.503   4.381  1.5613  2.5252 -0.1434
  511MOL0     H68944   6.832   0.621   4.364  0.8423  2.1063 -0.1509
  511MOL0     H68945   7.073   0.716   4.368  1.1150  1.5180 -0.1756
  511MOL0     H68946   7.343   0.921   4.318  1.2406  0.0838  1.7305
  511MOL0     H68947   7.219   0.870   4.438  2.7065 -0.1036  1.9727
  511MOL0     H68948   7.368   0.792   4.437  1.9878  1.9133  0.5813
  511MOL0     H68949   7.583   0.996   4.248  0.6731  0.4712  2.5029
  511MOL0     H68950   7.782   1.121   4.192  0.4991  0.9279 -1.7899
  511MOL0     H68951   8.122   1.198   4.033  0.0859 -1.5516 -0.6025
  511MOL0     H68952   7.947   1.208   4.066 -1.2031 -1.1809  0.8344
  511MOL0     H68953   8.110   1.256   4.267  3.5053 -1.6237  0.4871
  511MOL0     H68954   7.995   1.125   4.295 -0.9296  2.8240 -0.6533
  511MOL0     H68955   8.162   0.962   4.257 -3.3500  0.6074  0.0380
  511MOL0     H68956   8.207   1.079   4.381  0.0828 -2.7458  0.5870
  511MOL0     H68957   8.399   1.022   4.254  0.2300  0.7868 -0.2530
  511MOL0     H68958   8.343   1.052   4.096  5.0853 -0.7308 -0.0796
  511MOL0     H68959   8.305   1.307   4.164  1.4434 -0.1603 -1.8338
  511MOL0     H68960   8.470   1.259   4.145  0.5362  3.4363 -0.0040
  511MOL0     H68961   8.307   1.311   4.401 -0.8777 -0.4953 -0.9369
  511MOL0     H68962   8.469   1.230   4.407  2.2305  1.5971  0.1881
  511MOL0     H68963   8.585   1.417   4.310  1.0041  2.9981  1.7313
  511MOL0     H68964   8.512   1.452   4.450 -0.8360  0.1203  0.4836
  511MOL0     H68965   8.421   1.532   4.176 -0.5252 -2.1355  0.4767
  511MOL0     H68966   8.460   1.638   4.314 -0.4244  0.4484 -1.3361
  511MOL0     H68967   7.970   0.765   4.028  0.8240 -0.3233  0.8147
  511MOL0     H68968   7.771   0.627   4.092 -1.6972 -0.9000  1.1800
  511MOL0     H68969   7.291   0.611   3.943  0.2149  1.1046  0.0824
  511MOL0     H68970   7.066   0.527   3.971  0.7850 -0.3811  0.1278
  511MOL0     H68971   6.401   1.328   3.699  1.7820  0.1027 -0.3873
  511MOL0     H68972   6.621   1.417   3.670 -1.5479  0.7114 -0.9830
  511MOL0     H68973   7.113   1.310   3.867  2.7607 -0.0118  0.8304
  511MOL0     H68974   7.331   1.401   3.820  0.2708 -0.1261 -0.2626
  511MOL0     H68975   7.422   1.657   3.819  0.9330 -3.2174  2.4653
  511MOL0     H68976   7.514   1.515   3.783 -0.1279  0.3122  2.4657
  511MOL0     H68977   7.647   1.723   3.786 -0.8572 -0.5933  0.4621
  511MOL0     H68978   7.551   1.788   3.662 -0.4862  0.1693  0.8588
  511MOL0     H68979   7.606   1.605   3.500  3.3338 -4.2320 -1.9147
  511MOL0     H68980   7.677   1.508   3.619 -1.2311  0.0343 -0.6213
  511MOL0     H68981   7.886   1.630   3.533  0.6811 -1.8315  1.4444
  511MOL0     H68982   7.856   1.688   3.691  1.7319  0.6576 -0.6412
  511MOL0     H68983   7.754   2.019   3.451 -2.5495 -1.3385  0.7620
  511MOL0     H68984   7.183   1.573   3.446  2.6600  0.4488  0.9800
  511MOL0     H68985   6.984   1.438   3.468  0.3125 -1.7859 -0.6198
  512MOL0     O68986   2.864   3.717   3.289  0.2092  0.6687  0.1310
  512MOL0     C68987   2.824   3.615   3.232 -0.6476  0.1332  0.2590
  512MOL0     O68988   2.695   3.572   3.244  0.5872  0.8834 -0.2285
  512MOL0     C68989   2.603   3.661   3.299 -0.5222  0.3519 -0.1478
  512MOL0     C68990   2.492   3.684   3.223 -0.0307 -0.0396 -0.2917
  512MOL0     C68991   2.385   3.762   3.275  0.4432 -0.4647 -0.2676
  512MOL0     C68992   2.386   3.803   3.410 -0.7005 -0.1891 -0.0208
  512MOL0     O68993   2.269   3.861   3.473 -0.3908  0.0513 -0.2731
  512MOL0     C68994   2.292   3.955   3.581 -0.0938  1.2675 -0.4429
  512MOL0     C68995   2.167   3.978   3.661  0.1001  0.3577 -1.0065
  512MOL0     C68996   2.201   4.077   3.771  0.0595  0.9762  0.0537
  512MOL0     C68997   2.078   4.084   3.856  0.6376 -0.4984 -0.9992
  512MOL0     C68998   2.087   4.192   3.970  0.3199 -0.3073  0.5239
  512MOL0     C68999   1.951   4.222   4.032 -0.2079  0.8045  0.4693
  512MOL0     C69000   1.975   4.319   4.145  0.7017 -0.9027  0.4374
  512MOL0     C69001   1.839   4.361   4.208 -0.5046 -0.4511 -1.2898
  512MOL0     N69002   1.870   4.439   4.332 -0.0114  0.6069  0.2032
  512MOL0     C69003   1.882   4.393   4.460  0.4415  0.6188  0.5322
  512MOL0     C69004   1.907   4.496   4.538  0.0467  0.0897 -0.4434
  512MOL0     C69005   1.930   4.496   4.685  0.4607  0.2018  0.6922
  512MOL0     C69006   1.815   4.577   4.761 -0.5476  0.0287  0.3385
  512MOL0     C69007   1.675   4.505   4.769 -0.6528 -0.0549 -0.0911
  512MOL0     C69008   1.587   4.579   4.866 -0.7231  0.8942 -0.0670
  512MOL0     O69009   1.460   4.515   4.879 -0.7099 -0.8553  0.7808
  512MOL0     C69010   1.357   4.589   4.937 -0.3175  0.3287 -0.1354
  512MOL0     C69011   1.365   4.711   5.000 -0.7970 -0.1391  0.7870
  512MOL0     C69012   1.260   4.776   5.058  0.2562  0.1553 -0.1518
  512MOL0     C69013   1.286   4.913   5.116 -0.5822 -0.0641  0.3374
  512MOL0     C69014   1.130   4.710   5.068  0.0064 -0.0849 -0.8823
  512MOL0     C69015   1.019   4.760   5.155  0.2131  0.1943 -0.2860
  512MOL0     O69016   0.946   4.664   5.218  0.3363 -1.0459 -0.1395
  512MOL0     C69017   0.878   4.706   5.330  0.2802 -0.5982 -0.5723
  512MOL0     C69018   0.900   4.627   5.442  0.0627  0.2225 -0.0589
  512MOL0     C69019   0.826   4.650   5.560 -0.4654 -0.8185  0.4219
  512MOL0     C69020   0.741   4.763   5.569  0.0462  0.8238  0.1321
  512MOL0     O69021   0.670   4.794   5.687 -0.1693  0.0153  0.6542
  512MOL0     C69022   0.703   4.726   5.812  0.0307  0.1554 -0.0656
  512MOL0     C69023   0.581   4.761   5.903  1.0938 -0.3440 -0.1387
  512MOL0     C69024   0.429   4.744   5.851 -1.1782  0.1606  0.6017
  512MOL0     C69025   0.347   4.782   5.975 -0.1591  0.6899 -0.2300
  512MOL0     C69026   0.198   4.792   5.942 -0.2031 -0.1996  0.8982
  512MOL0     C69027   0.124   4.790   6.080 -0.9886 -0.3275  0.3730
  512MOL0     C69028  -0.027   4.809   6.056 -0.5006  0.4943 -0.1290
  512MOL0     C69029  -0.093   4.836   6.195  0.1569  0.6297  0.0859
  512MOL0    Cl69030  -0.273   4.796   6.186 -0.0567  0.6344 -0.1082
  512MOL0     C69031   0.731   4.844   5.463 -0.4097 -0.5336  0.4395
  512MOL0     C69032   0.793   4.811   5.335  0.8503  0.7946 -0.0400
  512MOL0     O69033   1.000   4.883   5.165 -0.3607 -0.1464  0.6306
  512MOL0     C69034   1.118   4.582   5.005  0.4609  0.3557  0.8211
  512MOL0     C69035   1.227   4.524   4.934  0.4520 -0.2349  0.2125
  512MOL0     N69036   1.913   4.612   4.459 -0.0742 -0.3011  0.4267
  512MOL0     N69037   1.880   4.573   4.336 -0.3761  0.0926 -0.0796
  512MOL0     C69038   2.505   3.784   3.484  0.2362  0.1508  1.2909
  512MOL0     C69039   2.609   3.707   3.428  0.1100 -0.3104 -0.1878
  512MOL0     C69040   2.921   3.528   3.168 -0.1952  0.2879 -0.1086
  512MOL0     C69041   2.883   3.401   3.130 -0.2159  0.0429  1.0615
  512MOL0     C69042   2.975   3.321   3.057  1.4067 -0.0293 -0.3534
  512MOL0     C69043   3.103   3.364   3.031  0.3880  0.6052 -0.1279
  512MOL0     O69044   3.187   3.280   2.968 -0.4081 -0.0333  0.0445
  512MOL0     C69045   3.327   3.283   2.999  0.4236  0.5494 -0.1620
  512MOL0     C69046   3.402   3.163   2.941  0.7391 -0.0071 -0.0958
  512MOL0     C69047   3.536   3.150   3.012  1.0188 -0.0142  0.0319
  512MOL0     C69048   3.611   3.034   2.957 -0.0850  0.1020 -0.1761
  512MOL0     C69049   3.658   3.063   2.819 -0.5137  0.0624  0.3040
  512MOL0     C69050   3.676   3.093   2.699  0.8790 -0.3861 -0.0377
  512MOL0     C69051   3.140   3.487   3.075 -0.6242  0.7215  0.7126
  512MOL0     C69052   3.053   3.569   3.145 -0.4129 -0.2386  0.3026
  512MOL0     H69053   2.481   3.650   3.121 -3.4660 -0.0594 -0.0246
  512MOL0     H69054   2.287   3.776   3.231 -0.4662 -0.6385  1.5809
  512MOL0     H69055   2.374   3.925   3.647  0.5251  2.3798 -0.6679
  512MOL0     H69056   2.335   4.048   3.543  3.1656  1.8568  3.7757
  512MOL0     H69057   2.088   4.021   3.598 -0.3530 -2.0220 -2.1718
  512MOL0     H69058   2.129   3.886   3.707  0.6565 -0.0344 -1.3217
  512MOL0     H69059   2.278   4.030   3.834 -2.3838 -3.5572  0.1296
  512MOL0     H69060   2.226   4.169   3.718  0.6556 -0.9173 -3.2319
  512MOL0     H69061   2.005   4.120   3.783  1.8399 -0.5678 -2.2770
  512MOL0     H69062   2.061   3.988   3.905  1.4054  0.0252  0.3533
  512MOL0     H69063   2.153   4.168   4.054 -0.8977 -2.4950  0.9462
  512MOL0     H69064   2.123   4.287   3.931 -0.8788 -0.3080 -0.6740
  512MOL0     H69065   1.884   4.262   3.956  0.0968  0.8200  0.2078
  512MOL0     H69066   1.900   4.130   4.063  0.5801  0.4748  0.8209
  512MOL0     H69067   2.036   4.275   4.224 -0.8316 -2.9597  0.5634
  512MOL0     H69068   2.030   4.408   4.113  0.8548 -0.2605  2.3344
  512MOL0     H69069   1.779   4.275   4.240  0.1746 -0.4501  0.0882
  512MOL0     H69070   1.777   4.427   4.148 -0.0950  2.7898  1.4869
  512MOL0     H69071   1.869   4.291   4.496 -1.4989 -0.1166 -1.9760
  512MOL0     H69072   1.942   4.392   4.716 -0.0082 -0.2966 -0.6939
  512MOL0     H69073   2.021   4.554   4.697  0.4293  0.5957 -0.7850
  512MOL0     H69074   1.803   4.671   4.706  1.6482 -0.4697 -1.1128
  512MOL0     H69075   1.865   4.588   4.858  3.3948 -1.7002 -1.2989
  512MOL0     H69076   1.683   4.400   4.797 -1.2357 -0.5501 -1.6885
  512MOL0     H69077   1.625   4.503   4.672 -2.2935 -1.8139  0.7183
  512MOL0     H69078   1.577   4.683   4.836  0.7969  0.8666 -0.7434
  512MOL0     H69079   1.639   4.578   4.962  1.8014 -1.7455 -1.3270
  512MOL0     H69080   1.456   4.769   5.003 -1.9526  1.7674  0.8553
  512MOL0     H69081   1.390   4.946   5.107 -0.9186  1.6537  1.9811
  512MOL0     H69082   1.227   4.992   5.068 -2.1024 -0.9297  0.6941
  512MOL0     H69083   1.259   4.922   5.222 -0.5406  1.7908  0.2342
  512MOL0     H69084   0.958   4.535   5.435 -2.4110 -1.4437 -0.0092
  512MOL0     H69085   0.837   4.579   5.640  3.5104  0.7202  1.4718
  512MOL0     H69086   0.714   4.617   5.809  0.9193  0.1927  1.1995
  512MOL0     H69087   0.788   4.778   5.856 -1.4923  3.0300 -0.2850
  512MOL0     H69088   0.588   4.698   5.992 -0.4139 -0.0821  0.1925
  512MOL0     H69089   0.589   4.868   5.922  0.0286 -0.5937  2.0745
  512MOL0     H69090   0.408   4.640   5.827 -1.3426 -0.1073  1.8201
  512MOL0     H69091   0.416   4.805   5.761  0.0288  0.3581  0.5375
  512MOL0     H69092   0.361   4.708   6.055  1.7923 -2.6424 -3.3508
  512MOL0     H69093   0.385   4.878   6.012  0.9731  1.8207 -3.8811
  512MOL0     H69094   0.175   4.711   5.873 -1.5126  0.0392  1.0376
  512MOL0     H69095   0.172   4.882   5.885 -1.8697 -2.1480 -1.6687
  512MOL0     H69096   0.144   4.704   6.145 -0.7862 -0.7014 -0.1829
  512MOL0     H69097   0.151   4.885   6.129 -1.4179  0.9646 -1.7898
  512MOL0     H69098  -0.074   4.730   5.997 -0.1645 -0.0499  0.3272
  512MOL0     H69099  -0.042   4.899   5.995  0.3838 -0.7528 -2.3194
  512MOL0     H69100  -0.079   4.942   6.218 -0.6698  1.0897 -1.3803
  512MOL0     H69101  -0.051   4.771   6.272  3.1974  0.3002 -1.7135
  512MOL0     H69102   0.662   4.927   5.466  1.8771  1.4551  0.7308
  512MOL0     H69103   0.769   4.874   5.250  0.4517 -0.2120 -0.6987
  512MOL0     H69104   1.030   4.519   5.012  1.3681 -1.2283 -0.9975
  512MOL0     H69105   1.228   4.426   4.886  3.9340 -1.3571  2.2710
  512MOL0     H69106   2.530   3.803   3.588  2.2540 -2.7701  1.4491
  512MOL0     H69107   2.696   3.683   3.489 -0.3294 -1.1844  0.1145
  512MOL0     H69108   2.781   3.370   3.152  0.1616 -0.5291  2.1040
  512MOL0     H69109   2.954   3.217   3.036  0.8111 -0.5184  2.3027
  512MOL0     H69110   3.376   3.374   2.964  0.7595  1.1433  1.7560
  512MOL0     H69111   3.345   3.293   3.106 -0.1453 -0.7657  0.0756
  512MOL0     H69112   3.402   3.182   2.834 -3.5754 -1.9917 -0.6675
  512MOL0     H69113   3.343   3.072   2.955  2.3712 -0.8955  1.3674
  512MOL0     H69114   3.512   3.123   3.115  1.7766 -2.7796 -0.4373
  512MOL0     H69115   3.586   3.247   3.003  0.2590  0.3825 -0.0249
  512MOL0     H69116   3.545   2.948   2.943  0.2312  0.1559 -2.5084
  512MOL0     H69117   3.698   3.009   3.018 -0.2303 -0.0193 -0.0197
  512MOL0     H69118   3.682   3.130   2.598 -0.3256 -1.4595 -0.5459
  512MOL0     H69119   3.238   3.533   3.062 -1.4393  2.0187 -1.2623
  512MOL0     H69120   3.088   3.666   3.178  4.9513 -0.2005 -4.0423
  513MOL0     O69121   4.474   5.063   1.922  0.4266  0.8873 -0.4921
  513MOL0     C69122   4.583   5.092   1.883 -0.3631  0.6652  0.7001
  513MOL0     O69123   4.616   5.207   1.827  0.3751 -0.6652  0.9421
  513MOL0     C69124   4.522   5.305   1.809  0.3737 -1.0494 -0.2316
  513MOL0     C69125   4.515   5.422   1.881 -0.3949  0.0161 -0.5858
  513MOL0     C69126   4.415   5.514   1.868 -0.0857 -0.1946  0.5289
  513MOL0     C69127   4.321   5.503   1.769 -0.0240 -0.4657 -0.6785
  513MOL0     O69128   4.222   5.596   1.771 -0.6706  0.4609 -0.1625
  513MOL0     C69129   4.123   5.595   1.666  0.0498 -0.4346  0.5250
  513MOL0     C69130   4.069   5.735   1.655 -0.4882 -0.1025 -0.2512
  513MOL0     C69131   4.027   5.778   1.515  0.3374  0.4278 -0.2007
  513MOL0     C69132   3.898   5.703   1.469  0.4151 -0.2044 -0.1283
  513MOL0     C69133   3.848   5.739   1.328  0.3884 -0.1545  0.0609
  513MOL0     C69134   3.793   5.883   1.331 -0.7007 -1.2660  0.5452
  513MOL0     C69135   3.743   5.936   1.192  0.7439 -0.1436  0.6113
  513MOL0     C69136   3.704   6.084   1.202  0.3666 -0.0084  0.1338
  513MOL0     N69137   3.621   6.122   1.092  0.6727  0.5523 -0.0778
  513MOL0     C69138   3.485   6.133   1.102 -0.6381 -0.1320 -0.0313
  513MOL0     C69139   3.446   6.160   0.976 -0.1897 -0.5529  0.1176
  513MOL0     C69140   3.308   6.159   0.925  0.2738  0.8368 -0.5517
  513MOL0     C69141   3.247   6.297   0.899  0.0157 -0.0641  0.3187
  513MOL0     C69142   3.197   6.372   1.020 -0.5973 -0.0376  0.4264
  513MOL0     C69143   3.059   6.319   1.056 -0.0294 -0.0119 -0.3654
  513MOL0     O69144   2.958   6.382   0.974  0.1088  0.5443 -0.1247
  513MOL0     C69145   2.845   6.403   1.036  0.1454  0.1358 -0.9499
  513MOL0     C69146   2.735   6.327   0.996 -0.2228 -0.3428 -0.2718
  513MOL0     C69147   2.606   6.348   1.055  0.1672 -0.7264 -0.1529
  513MOL0     C69148   2.477   6.305   0.995  0.6741  0.4705 -0.7741
  513MOL0     C69149   2.600   6.432   1.168  0.1076 -0.0320 -0.4572
  513MOL0     C69150   2.478   6.452   1.256  0.0988 -0.9528  0.2750
  513MOL0     O69151   2.479   6.552   1.353 -1.1094 -0.6862  0.1000
  513MOL0     C69152   2.373   6.577   1.432 -0.3454  0.2787  0.6314
  513MOL0     C69153   2.404   6.637   1.551  0.5339  0.0217 -0.1598
  513MOL0     C69154   2.308   6.665   1.644  0.3034  1.1217  0.3508
  513MOL0     C69155   2.171   6.657   1.612 -0.1250  0.8616 -0.4909
  513MOL0     O69156   2.081   6.688   1.708 -0.0818 -0.0205  0.0484
  513MOL0     C69157   2.109   6.739   1.835  0.2231 -0.3866  0.3414
  513MOL0     C69158   1.978   6.791   1.879  0.6124  0.0562 -0.2356
  513MOL0     C69159   1.956   6.785   2.031 -0.3920 -0.0039  1.2298
  513MOL0     C69160   1.813   6.815   2.059 -1.0041  0.5903 -0.3529
  513MOL0     C69161   1.785   6.840   2.205 -0.6540 -0.1250 -0.2845
  513MOL0     C69162   1.854   6.968   2.267  0.3393  0.6735  0.2545
  513MOL0     C69163   1.941   6.933   2.389  0.2996  0.6406  0.0084
  513MOL0     C69164   1.855   6.876   2.506  0.2710  0.2132  0.0349
  513MOL0    Cl69165   1.736   6.982   2.555 -0.1078  0.1614 -0.4670
  513MOL0     C69166   2.137   6.610   1.484  0.1130  0.4513  0.0574
  513MOL0     C69167   2.238   6.582   1.391 -0.0817 -0.1122 -0.5577
  513MOL0     O69168   2.394   6.366   1.253 -0.0661 -0.0385  1.0393
  513MOL0     C69169   2.708   6.507   1.206 -0.5287  0.8593 -1.1937
  513MOL0     C69170   2.830   6.485   1.146  0.0957 -0.6474  0.9968
  513MOL0     N69171   3.552   6.166   0.893  0.0910  0.1080  0.4401
  513MOL0     N69172   3.661   6.148   0.963  0.4549 -0.3899  0.3422
  513MOL0     C69173   4.327   5.385   1.690  0.6848 -0.0667 -0.4229
  513MOL0     C69174   4.428   5.288   1.709 -0.1912 -0.1776 -0.2238
  513MOL0     C69175   4.687   4.984   1.891  0.4728  0.4833  0.3592
  513MOL0     C69176   4.665   4.858   1.930  0.5447 -0.1033 -0.2297
  513MOL0     C69177   4.760   4.763   1.922 -1.0331  0.7959 -0.3158
  513MOL0     C69178   4.900   4.789   1.906 -0.0996 -0.2378  0.9319
  513MOL0     O69179   4.978   4.675   1.915 -0.5817  0.3652  0.0752
  513MOL0     C69180   5.118   4.702   1.884 -0.4589  0.7646 -1.1983
  513MOL0     C69181   5.198   4.572   1.910  0.6430 -0.5227 -0.2024
  513MOL0     C69182   5.348   4.609   1.904  0.2906  0.1100 -0.6374
  513MOL0     C69183   5.425   4.471   1.928 -0.6512 -0.7225  0.6960
  513MOL0     C69184   5.570   4.502   1.907 -1.0553  0.0822 -0.1345
  513MOL0     C69185   5.687   4.522   1.886  0.8208 -0.1442 -0.1885
  513MOL0     C69186   4.922   4.920   1.864  0.3102 -0.2036  0.1299
  513MOL0     C69187   4.822   5.020   1.859  0.7777 -0.8525  0.2569
  513MOL0     H69188   4.586   5.435   1.962 -1.8827  2.1425  0.4601
  513MOL0     H69189   4.408   5.602   1.931  0.7296  0.5453 -0.3968
  513MOL0     H69190   4.164   5.559   1.571 -1.9700  0.4062 -0.7352
  513MOL0     H69191   4.036   5.531   1.680  1.6661 -3.0780 -0.7375
  513MOL0     H69192   3.985   5.754   1.722 -1.8609  1.4856 -2.3223
  513MOL0     H69193   4.153   5.800   1.683  1.5669 -1.9032 -1.8244
  513MOL0     H69194   4.010   5.886   1.512 -0.7200  0.4307  2.6413
  513MOL0     H69195   4.109   5.763   1.444 -1.0347  2.7838 -2.4631
  513MOL0     H69196   3.916   5.596   1.483  0.3869 -0.1145  0.6182
  513MOL0     H69197   3.818   5.723   1.540  1.7956  2.8619  0.7177
  513MOL0     H69198   3.923   5.718   1.252 -1.6291 -2.4118 -1.4301
  513MOL0     H69199   3.756   5.682   1.311 -1.5940  2.7138  0.3960
  513MOL0     H69200   3.722   5.909   1.410  0.6130  2.4044  0.7130
  513MOL0     H69201   3.879   5.949   1.343 -0.2823 -0.9564 -2.9870
  513MOL0     H69202   3.820   5.919   1.117  0.4521 -2.5146  0.7587
  513MOL0     H69203   3.655   5.880   1.158 -0.2340  0.2143  2.3838
  513MOL0     H69204   3.796   6.142   1.197 -0.0788  0.6028 -1.9149
  513MOL0     H69205   3.646   6.090   1.295  1.5349 -3.3843  1.2248
  513MOL0     H69206   3.430   6.113   1.193  0.6349 -0.2427  0.7419
  513MOL0     H69207   3.314   6.096   0.837  0.1765  0.2181 -0.1199
  513MOL0     H69208   3.243   6.105   0.994  1.9300  0.3469  0.7095
  513MOL0     H69209   3.158   6.274   0.841 -0.1233 -1.5785  1.0788
  513MOL0     H69210   3.309   6.365   0.840  0.3496 -0.9192 -0.3257
  513MOL0     H69211   3.203   6.478   0.998  0.3166 -0.4714 -1.5929
  513MOL0     H69212   3.274   6.345   1.092 -0.0297 -2.0850 -0.8545
  513MOL0     H69213   3.050   6.353   1.159 -0.6704  1.5323 -0.8866
  513MOL0     H69214   3.045   6.211   1.054 -0.5875 -0.1039  3.1491
  513MOL0     H69215   2.757   6.268   0.908  4.4479 -3.0551  2.2807
  513MOL0     H69216   2.509   6.280   0.893  2.0814  1.8562 -0.7178
  513MOL0     H69217   2.440   6.215   1.044 -2.9018  0.8508 -2.4210
  513MOL0     H69218   2.396   6.379   0.996  1.3484  1.2187  0.8920
  513MOL0     H69219   2.505   6.659   1.583 -0.9490  2.1885  3.6859
  513MOL0     H69220   2.337   6.705   1.741  0.5759 -1.8472  1.6132
  513MOL0     H69221   2.137   6.657   1.902  0.2089 -0.3804  0.3549
  513MOL0     H69222   2.181   6.821   1.833 -0.0557 -0.1498 -1.2776
  513MOL0     H69223   1.957   6.895   1.852  0.4801  0.4174  1.1524
  513MOL0     H69224   1.894   6.740   1.831  0.8598  1.3700 -2.1816
  513MOL0     H69225   2.035   6.849   2.071  1.3915 -0.7387 -0.9191
  513MOL0     H69226   1.981   6.687   2.074 -0.5079 -0.9148 -0.6590
  513MOL0     H69227   1.784   6.908   2.008 -0.4731  1.5160  0.9554
  513MOL0     H69228   1.751   6.735   2.020 -1.0739  0.5534 -0.1661
  513MOL0     H69229   1.824   6.752   2.258  0.6464  1.7849  2.1796
  513MOL0     H69230   1.677   6.850   2.219 -0.5637  1.3935 -0.4698
  513MOL0     H69231   1.907   7.019   2.186  0.2840 -0.3213 -0.4264
  513MOL0     H69232   1.783   7.046   2.294 -0.4461 -0.1398  0.5720
  513MOL0     H69233   1.996   7.023   2.418 -0.7709  1.2004  0.3375
  513MOL0     H69234   2.020   6.863   2.361 -1.7822 -1.5412 -0.7492
  513MOL0     H69235   1.921   6.860   2.592 -0.2896 -1.7955  0.1587
  513MOL0     H69236   1.811   6.787   2.460  1.8603  1.1229 -3.6394
  513MOL0     H69237   2.033   6.586   1.464  0.5463 -1.5054 -0.1047
  513MOL0     H69238   2.220   6.548   1.290 -2.7235  0.0520 -0.2079
  513MOL0     H69239   2.710   6.582   1.284  1.0762  0.2378 -0.6114
  513MOL0     H69240   2.914   6.549   1.171  1.2955 -0.7848 -2.1501
  513MOL0     H69241   4.248   5.357   1.620  0.2676 -0.8802  0.3466
  513MOL0     H69242   4.429   5.190   1.660  0.7942  0.2641 -1.1288
  513MOL0     H69243   4.564   4.827   1.958  0.0340  2.8873  1.6981
  513MOL0     H69244   4.730   4.660   1.937  1.7376  0.0951  1.2455
  513MOL0     H69245   5.128   4.737   1.781 -1.4122  1.4487 -1.0709
  513MOL0     H69246   5.152   4.781   1.951 -1.4909  1.0285 -0.9705
  513MOL0     H69247   5.175   4.497   1.834  0.2370  0.0081 -0.6106
  513MOL0     H69248   5.161   4.529   2.003 -1.9697  1.2640 -0.3106
  513MOL0     H69249   5.371   4.689   1.974  0.1533  0.1463 -0.6330
  513MOL0     H69250   5.373   4.639   1.802 -0.6995  2.2027 -0.3150
  513MOL0     H69251   5.400   4.404   1.845  0.6519  1.8349 -1.9106
  513MOL0     H69252   5.403   4.422   2.023 -0.5009  1.6599  2.0315
  513MOL0     H69253   5.788   4.545   1.859  1.4106  1.3056  2.8399
  513MOL0     H69254   5.019   4.961   1.836  0.1132  1.7284  1.9905
  513MOL0     H69255   4.842   5.122   1.826 -2.5929  0.1033  0.7218
  514MOL0     O69256   7.174   2.361   8.075 -0.1671 -0.3127  0.8712
  514MOL0     C69257   7.150   2.247   8.114 -0.5706 -0.1271 -0.3604
  514MOL0     O69258   7.031   2.173   8.099 -0.0086  0.2640  0.3854
  514MOL0     C69259   6.930   2.231   8.022 -1.3946 -0.5123  1.1052
  514MOL0     C69260   6.935   2.213   7.880 -0.0069 -0.0210 -0.3671
  514MOL0     C69261   6.843   2.269   7.793  1.0661 -0.1238 -0.4055
  514MOL0     C69262   6.741   2.350   7.848 -0.1185  0.3473 -0.2754
  514MOL0     O69263   6.635   2.405   7.781 -0.0902  0.0867 -0.1589
  514MOL0     C69264   6.602   2.365   7.648 -0.2387  0.2306  0.2997
  514MOL0     C69265   6.488   2.453   7.593  0.5394 -0.4731 -0.0486
  514MOL0     C69266   6.357   2.411   7.659  0.1964 -0.0163  0.2810
  514MOL0     C69267   6.242   2.504   7.595  0.0668 -0.5806  0.2319
  514MOL0     C69268   6.094   2.481   7.640 -0.8454 -0.5492 -0.3604
  514MOL0     C69269   6.003   2.578   7.583 -0.1318  0.2379 -0.5459
  514MOL0     C69270   5.857   2.539   7.624  0.7938  0.0692 -0.6897
  514MOL0     C69271   5.761   2.629   7.548  0.0139 -0.4887 -0.2088
  514MOL0     N69272   5.617   2.621   7.588  0.0360  0.5714  0.2151
  514MOL0     C69273   5.542   2.510   7.602  0.5877  0.1092 -0.4371
  514MOL0     C69274   5.417   2.553   7.611  1.1181 -1.2177  0.2013
  514MOL0     C69275   5.287   2.469   7.626 -0.4076 -0.1601 -0.1787
  514MOL0     C69276   5.182   2.494   7.515  0.5908  0.2123 -0.4456
  514MOL0     C69277   5.040   2.431   7.557 -0.0951  0.0765  0.4000
  514MOL0     C69278   4.965   2.525   7.649  0.5786 -0.6586 -0.2281
  514MOL0     O69279   4.846   2.454   7.692 -0.1215  0.3206  0.2342
  514MOL0     C69280   4.728   2.475   7.628 -0.3533 -0.0484 -0.0486
  514MOL0     C69281   4.607   2.435   7.691 -0.3586 -0.2498  0.1920
  514MOL0     C69282   4.478   2.451   7.642 -0.6821  0.4375  0.3242
  514MOL0     C69283   4.362   2.410   7.725 -0.7249 -0.0037 -0.2601
  514MOL0     C69284   4.463   2.512   7.514 -1.3586 -0.3972 -0.2943
  514MOL0     C69285   4.334   2.535   7.447  0.3495 -0.5524  0.2025
  514MOL0     O69286   4.340   2.644   7.357  0.7487 -0.4727 -0.1704
  514MOL0     C69287   4.226   2.668   7.286  0.0092 -1.3524 -0.3867
  514MOL0     C69288   4.239   2.652   7.139  0.2327 -1.2743 -0.3789
  514MOL0     C69289   4.144   2.716   7.061  0.0630  0.5420 -0.7220
  514MOL0     C69290   4.035   2.792   7.113  0.3766  0.5713  0.4930
  514MOL0     O69291   3.929   2.824   7.027  0.1722  0.3995 -0.1292
  514MOL0     C69292   3.867   2.956   7.052 -0.0789 -0.5488 -0.5349
  514MOL0     C69293   3.726   2.960   7.000  0.5999  0.3002 -1.4343
  514MOL0     C69294   3.650   3.084   7.058  0.6780 -0.2347  0.7070
  514MOL0     C69295   3.516   3.089   7.004  0.4042  0.2097 -0.5369
  514MOL0     C69296   3.453   3.216   7.053 -0.2826 -0.3683 -0.4780
  514MOL0     C69297   3.307   3.210   7.002 -0.5132 -0.2302 -0.5841
  514MOL0     C69298   3.228   3.327   7.071 -0.3876  0.2596 -0.8175
  514MOL0     C69299   3.115   3.385   6.993  0.1654 -0.0335 -0.8174
  514MOL0    Cl69300   3.054   3.517   7.069 -0.0933 -0.2726  0.0401
  514MOL0     C69301   4.025   2.799   7.251 -0.6841  0.1006 -0.3531
  514MOL0     C69302   4.119   2.743   7.339  0.3231 -0.3828  0.4654
  514MOL0     O69303   4.242   2.459   7.469 -0.1687 -0.5567  0.7524
  514MOL0     C69304   4.583   2.539   7.438  0.7687 -0.6728 -0.5235
  514MOL0     C69305   4.712   2.526   7.496  0.6308 -0.2614 -0.3388
  514MOL0     N69306   5.415   2.693   7.596  0.2084  0.6341 -0.4294
  514MOL0     N69307   5.532   2.724   7.583 -0.0904  0.1469  0.2226
  514MOL0     C69308   6.738   2.372   7.988  0.6598 -0.0457  0.3567
  514MOL0     C69309   6.825   2.301   8.074  0.1382 -0.2800 -1.0044
  514MOL0     C69310   7.255   2.177   8.180 -0.0984  0.0175  0.1470
  514MOL0     C69311   7.393   2.169   8.133  0.0873 -0.1594 -0.0822
  514MOL0     C69312   7.486   2.086   8.204 -0.0949 -0.6465 -0.6145
  514MOL0     C69313   7.437   2.002   8.303 -0.0161  0.3916 -0.0015
  514MOL0     O69314   7.527   1.910   8.339 -0.4639  0.2496 -0.1823
  514MOL0     C69315   7.520   1.847   8.468 -0.4991 -0.3506 -0.1025
  514MOL0     C69316   7.564   1.928   8.585 -0.5416  0.6860  0.0717
  514MOL0     C69317   7.717   1.936   8.602  0.5269 -0.4296  0.1888
  514MOL0     C69318   7.782   2.009   8.488 -0.0047 -0.2541 -0.5883
  514MOL0     C69319   7.907   2.066   8.518 -0.3502  0.2093  0.1026
  514MOL0     C69320   8.008   2.120   8.561 -0.7019 -0.4561 -0.2113
  514MOL0     C69321   7.301   2.019   8.350  0.2643  0.4768  0.6676
  514MOL0     C69322   7.215   2.102   8.293  0.6495 -0.2415  0.6768
  514MOL0     H69323   7.020   2.165   7.831 -0.9614 -0.7873 -1.3037
  514MOL0     H69324   6.852   2.253   7.687 -1.8494  0.2668 -0.7857
  514MOL0     H69325   6.685   2.372   7.577  0.5861  0.3110  1.2373
  514MOL0     H69326   6.564   2.262   7.648  0.1574  0.0754  0.8254
  514MOL0     H69327   6.511   2.559   7.602  0.3416 -0.1566 -2.4464
  514MOL0     H69328   6.476   2.442   7.484  2.2937  0.2689 -0.3550
  514MOL0     H69329   6.333   2.305   7.643 -0.0988  0.1086 -0.1332
  514MOL0     H69330   6.382   2.423   7.765  0.4647 -0.0444  0.2220
  514MOL0     H69331   6.264   2.611   7.604 -3.0791  0.0783  1.4514
  514MOL0     H69332   6.247   2.489   7.487 -3.1461 -0.6777 -0.0114
  514MOL0     H69333   6.065   2.382   7.602  0.6981 -1.5575  0.9082
  514MOL0     H69334   6.077   2.462   7.747 -1.0943  0.8765 -0.1295
  514MOL0     H69335   6.036   2.674   7.623  0.3120 -0.8951  1.9919
  514MOL0     H69336   6.014   2.600   7.476  0.7776 -0.4148 -0.5970
  514MOL0     H69337   5.833   2.438   7.588  0.6257  0.2180 -0.9953
  514MOL0     H69338   5.840   2.556   7.731  0.0140  0.8434 -0.9264
  514MOL0     H69339   5.771   2.613   7.441  0.5136  1.9904 -0.5959
  514MOL0     H69340   5.795   2.733   7.558  0.6952 -0.4621 -2.3731
  514MOL0     H69341   5.567   2.408   7.627  1.0391  0.6138  1.2709
  514MOL0     H69342   5.304   2.361   7.635 -1.1418 -0.1982  0.8062
  514MOL0     H69343   5.253   2.497   7.726 -1.2823 -1.7751 -0.0025
  514MOL0     H69344   5.200   2.448   7.417 -0.6198 -2.3601  0.4524
  514MOL0     H69345   5.169   2.602   7.502 -0.2215  0.3007  0.9293
  514MOL0     H69346   5.059   2.339   7.613  2.5746 -0.4451 -1.1939
  514MOL0     H69347   4.981   2.412   7.467 -2.6923  3.2045  1.2260
  514MOL0     H69348   4.949   2.613   7.586  1.5520 -0.5387 -0.3224
  514MOL0     H69349   5.021   2.539   7.742  0.2005 -3.2240  0.4544
  514MOL0     H69350   4.626   2.401   7.792 -0.8906  1.3784  0.8825
  514MOL0     H69351   4.271   2.470   7.710 -1.8077 -1.1389  1.4001
  514MOL0     H69352   4.342   2.306   7.700  0.0050 -0.4571  0.9524
  514MOL0     H69353   4.384   2.408   7.832 -1.3092 -3.5747 -0.0878
  514MOL0     H69354   4.328   2.606   7.097  1.6649  1.1970 -0.2432
  514MOL0     H69355   4.149   2.709   6.952  0.5437 -1.0457 -0.6162
  514MOL0     H69356   3.869   3.004   7.150 -0.9521  1.1710 -1.2948
  514MOL0     H69357   3.925   3.027   6.992 -0.5035 -0.4960 -0.8890
  514MOL0     H69358   3.719   2.965   6.891 -2.1303  0.7476 -1.3053
  514MOL0     H69359   3.665   2.877   7.037  3.2917 -0.7086  1.2005
  514MOL0     H69360   3.699   3.177   7.029 -0.7752  0.3471  0.0259
  514MOL0     H69361   3.640   3.067   7.165 -2.3760 -0.6397  0.4431
  514MOL0     H69362   3.530   3.075   6.896 -2.0011 -1.0764 -0.7400
  514MOL0     H69363   3.459   3.007   7.049 -0.5133  0.6037 -0.9389
  514MOL0     H69364   3.504   3.307   7.019 -0.7683 -0.8621 -2.7344
  514MOL0     H69365   3.466   3.228   7.161  2.0898  1.1719 -0.8446
  514MOL0     H69366   3.311   3.209   6.893  0.1080  1.0655 -0.5878
  514MOL0     H69367   3.266   3.113   7.035  0.6613  0.2965  2.8359
  514MOL0     H69368   3.299   3.405   7.098 -3.6021  2.7552  1.2710
  514MOL0     H69369   3.192   3.290   7.168  0.3887  1.1707 -0.1579
  514MOL0     H69370   3.040   3.307   6.976 -1.1518  1.2844 -1.3078
  514MOL0     H69371   3.153   3.422   6.897 -0.4433  0.8653 -0.7294
  514MOL0     H69372   3.939   2.854   7.288 -1.1923 -0.6283 -0.4332
  514MOL0     H69373   4.114   2.757   7.447  0.2773  1.7055  0.2251
  514MOL0     H69374   4.568   2.573   7.336 -0.4838 -0.5289 -0.3047
  514MOL0     H69375   4.803   2.556   7.445  1.9988 -0.4100  1.8743
  514MOL0     H69376   6.655   2.432   8.022 -2.3153 -1.0479 -4.1391
  514MOL0     H69377   6.817   2.311   8.181  0.4580 -3.8310 -0.5452
  514MOL0     H69378   7.420   2.237   8.052  0.2424 -1.6193 -1.3107
  514MOL0     H69379   7.589   2.077   8.172  0.2795 -0.2003  0.4138
  514MOL0     H69380   7.417   1.814   8.483 -1.4331  0.8861 -3.0726
  514MOL0     H69381   7.581   1.757   8.466  0.7857  0.4824  0.5631
  514MOL0     H69382   7.538   1.855   8.662  2.6531 -1.1807 -0.4071
  514MOL0     H69383   7.508   2.021   8.595 -0.9668  0.2966  1.4142
  514MOL0     H69384   7.755   1.834   8.608 -0.2173 -0.6266  2.1745
  514MOL0     H69385   7.742   1.983   8.697 -2.5688  2.0394 -0.0406
  514MOL0     H69386   7.716   2.094   8.464  1.6098  0.7423 -1.6865
  514MOL0     H69387   7.797   1.940   8.404  2.9705 -1.4965  0.8386
  514MOL0     H69388   8.095   2.163   8.607  0.1050  1.3719 -3.1747
  514MOL0     H69389   7.265   1.949   8.425 -0.6337 -0.0592 -0.2415
  514MOL0     H69390   7.111   2.108   8.326  0.1741 -2.7454 -0.2100
  515MOL0     O69391  10.349   4.482   7.341  0.0536  0.5283 -0.1576
  515MOL0     C69392  10.405   4.582   7.394 -0.6538 -0.1525  0.8655
  515MOL0     O69393  10.344   4.685   7.453  0.1194 -0.0477 -0.2100
  515MOL0     C69394  10.213   4.697   7.465 -0.4909  0.0628  0.1773
  515MOL0     C69395  10.171   4.777   7.570  0.4469  0.4471 -0.0237
  515MOL0     C69396  10.035   4.796   7.595  0.3252 -0.5858  0.4137
  515MOL0     C69397   9.942   4.757   7.502 -0.0691  0.7481  0.0667
  515MOL0     O69398   9.805   4.771   7.518  0.4479  1.1917  0.0993
  515MOL0     C69399   9.744   4.825   7.629  1.0475 -0.1451  0.1392
  515MOL0     C69400   9.600   4.815   7.579  0.3897  0.1962 -0.2533
  515MOL0     C69401   9.509   4.847   7.693  0.3617  0.0469  0.3933
  515MOL0     C69402   9.362   4.843   7.637 -0.6434  0.1495  0.3395
  515MOL0     C69403   9.257   4.874   7.737  0.1050  0.6557  0.5383
  515MOL0     C69404   9.120   4.828   7.682  0.8265  1.0477 -0.8645
  515MOL0     C69405   9.015   4.821   7.798 -0.6967 -1.4012  0.1335
  515MOL0     C69406   8.974   4.960   7.863  0.4804  0.5217 -0.6871
  515MOL0     N69407   8.853   4.947   7.941  0.5467  0.0284 -0.0076
  515MOL0     C69408   8.725   4.928   7.891  0.4389 -0.4009  1.0386
  515MOL0     C69409   8.657   4.921   8.007  0.2440 -0.8717 -0.9469
  515MOL0     C69410   8.513   4.906   8.002 -0.2255  0.4791 -0.3509
  515MOL0     C69411   8.480   4.763   8.042 -0.5358  0.6387 -0.2527
  515MOL0     C69412   8.510   4.669   7.928  0.0544  0.1078 -0.1061
  515MOL0     C69413   8.482   4.523   7.977  0.1022 -0.4436  0.9490
  515MOL0     O69414   8.582   4.471   8.055  0.6347 -0.4418 -0.3069
  515MOL0     C69415   8.703   4.443   7.991 -0.2864  0.7905 -0.2365
  515MOL0     C69416   8.707   4.333   7.902 -0.3270  0.4878 -0.2671
  515MOL0     C69417   8.830   4.295   7.839 -0.2183  0.2356  0.0220
  515MOL0     C69418   8.834   4.170   7.762 -0.0214  0.1481  0.3198
  515MOL0     C69419   8.948   4.369   7.879  1.1036  0.9243  0.2405
  515MOL0     C69420   9.087   4.338   7.830  0.6771  0.1094  0.3635
  515MOL0     O69421   9.189   4.413   7.886  0.1185  0.2448 -0.3932
  515MOL0     C69422   9.316   4.404   7.842 -0.2659  0.2943  0.5244
  515MOL0     C69423   9.356   4.394   7.703 -0.5402  0.2370 -0.4501
  515MOL0     C69424   9.485   4.400   7.668  0.3289  0.4039  0.0119
  515MOL0     C69425   9.585   4.412   7.766  0.2366 -0.0377  0.2571
  515MOL0     O69426   9.708   4.421   7.717  0.6349  0.7191  0.5254
  515MOL0     C69427   9.809   4.441   7.802  0.7487 -0.4962  0.0523
  515MOL0     C69428   9.936   4.424   7.725  0.6625  0.4279 -0.0480
  515MOL0     C69429  10.064   4.438   7.808  0.3141  0.5796 -0.0572
  515MOL0     C69430  10.194   4.412   7.731 -0.7964 -0.3614 -0.5031
  515MOL0     C69431  10.313   4.408   7.831 -0.6899 -0.1455 -0.2820
  515MOL0     C69432  10.444   4.382   7.760 -0.0949  0.0578 -0.4363
  515MOL0     C69433  10.559   4.399   7.868 -1.2938 -0.3384  0.1390
  515MOL0     C69434  10.701   4.392   7.804 -0.6482  0.5361 -0.0073
  515MOL0    Cl69435  10.811   4.396   7.935  0.1076  0.4790  0.2338
  515MOL0     C69436   9.552   4.441   7.900  0.4713 -0.0484 -0.3523
  515MOL0     C69437   9.411   4.433   7.938 -0.1153 -0.3519 -0.3300
  515MOL0     O69438   9.103   4.259   7.735 -0.2988  0.3205  0.1080
  515MOL0     C69439   8.939   4.478   7.977 -0.2559 -0.1932 -0.0490
  515MOL0     C69440   8.817   4.513   8.027 -0.9782 -0.2160 -0.9448
  515MOL0     N69441   8.744   4.924   8.119  0.5926  0.5217  0.4134
  515MOL0     N69442   8.859   4.930   8.075 -1.0945  0.2213  0.0738
  515MOL0     C69443   9.984   4.690   7.387  0.7253  0.4264  0.0004
  515MOL0     C69444  10.120   4.665   7.360  0.3194 -0.4936  0.6241
  515MOL0     C69445  10.554   4.594   7.381 -0.1319 -0.6186 -0.3265
  515MOL0     C69446  10.628   4.524   7.284  0.4678 -0.1617 -0.0595
  515MOL0     C69447  10.772   4.546   7.281  0.7635  0.2734  0.9663
  515MOL0     C69448  10.840   4.623   7.380 -0.2184 -0.0881  0.0454
  515MOL0     O69449  10.979   4.640   7.369 -0.6986  0.0782 -0.6472
  515MOL0     C69450  11.039   4.716   7.481 -0.2321 -0.5033 -0.1426
  515MOL0     C69451  11.194   4.718   7.486 -0.8486  0.0378 -0.5889
  515MOL0     C69452  11.227   4.817   7.598 -0.0263 -0.1634  0.0232
  515MOL0     C69453  11.366   4.843   7.609  0.2676 -0.0512  0.0794
  515MOL0     C69454  11.386   4.956   7.701 -1.1335  0.1001 -0.3236
  515MOL0     C69455  11.425   5.055   7.771  0.4997  0.3273 -0.1726
  515MOL0     C69456  10.761   4.681   7.479  0.9273 -0.3040  0.3150
  515MOL0     C69457  10.619   4.667   7.478 -0.5791 -0.0486  0.6630
  515MOL0     H69458  10.239   4.811   7.647  1.1931 -1.9134  0.4161
  515MOL0     H69459  10.002   4.832   7.691 -1.7992  1.4695 -0.9746
  515MOL0     H69460   9.755   4.753   7.711 -1.2987 -0.7851 -0.0221
  515MOL0     H69461   9.779   4.926   7.655  0.8576 -0.6361  2.5589
  515MOL0     H69462   9.589   4.889   7.499 -1.4109 -0.9499 -1.1269
  515MOL0     H69463   9.581   4.714   7.542  1.4316 -0.5752  1.2111
  515MOL0     H69464   9.513   4.772   7.772  0.1340 -0.9893 -0.5621
  515MOL0     H69465   9.530   4.946   7.734  0.6538  0.1105  0.1022
  515MOL0     H69466   9.362   4.918   7.557  1.0482 -0.6991 -0.5005
  515MOL0     H69467   9.338   4.743   7.601 -3.3138  1.4892 -1.9401
  515MOL0     H69468   9.281   4.813   7.825  1.5177  4.1226  2.7311
  515MOL0     H69469   9.253   4.976   7.776 -0.6144  0.4391  1.0414
  515MOL0     H69470   9.095   4.892   7.598 -1.3352  3.7661  1.6444
  515MOL0     H69471   9.122   4.726   7.642  0.7427  0.7662 -0.1667
  515MOL0     H69472   8.924   4.790   7.744 -1.3468  1.0454 -0.2904
  515MOL0     H69473   9.044   4.748   7.874  0.3027  0.3523  1.4997
  515MOL0     H69474   8.955   5.029   7.780 -2.0427 -0.1060 -0.7062
  515MOL0     H69475   9.056   5.004   7.920  1.1735 -2.4659  0.7825
  515MOL0     H69476   8.680   4.920   7.793 -0.0763  1.3137  1.0994
  515MOL0     H69477   8.465   4.980   8.066  0.6436  1.7154 -1.0758
  515MOL0     H69478   8.476   4.933   7.903 -1.3820  3.0255  0.6831
  515MOL0     H69479   8.379   4.754   8.083  0.1538 -0.4460  1.3284
  515MOL0     H69480   8.536   4.735   8.132  1.1493 -1.1045 -1.7745
  515MOL0     H69481   8.610   4.691   7.890  0.2852 -0.4202  0.1945
  515MOL0     H69482   8.444   4.693   7.844  0.6577 -0.4279 -0.7455
  515MOL0     H69483   8.481   4.448   7.898 -0.1292 -1.2674  1.7237
  515MOL0     H69484   8.388   4.512   8.031 -1.1538  0.3699 -0.9601
  515MOL0     H69485   8.618   4.277   7.873  0.2044 -0.0224 -0.9594
  515MOL0     H69486   8.869   4.199   7.662  2.9124 -1.1954  0.8616
  515MOL0     H69487   8.910   4.106   7.807 -0.2490 -0.1352  0.3040
  515MOL0     H69488   8.742   4.112   7.768  2.0647 -3.2765  4.6041
  515MOL0     H69489   9.285   4.374   7.623 -0.6935  1.7574 -0.7231
  515MOL0     H69490   9.502   4.391   7.561  1.1224  0.2060  0.1478
  515MOL0     H69491   9.800   4.545   7.835 -0.4321 -1.1381  1.9544
  515MOL0     H69492   9.797   4.375   7.888 -1.9122  1.5002  1.3718
  515MOL0     H69493   9.934   4.329   7.670 -3.1660 -1.2534  2.5944
  515MOL0     H69494   9.936   4.501   7.648  2.7574 -1.8594 -2.5221
  515MOL0     H69495  10.052   4.364   7.888  1.8689  0.1516 -0.1948
  515MOL0     H69496  10.065   4.535   7.859 -0.3306 -0.4229  1.9987
  515MOL0     H69497  10.203   4.321   7.671 -1.3460 -1.0246  0.3950
  515MOL0     H69498  10.208   4.502   7.670  1.8929  0.5681  1.2954
  515MOL0     H69499  10.298   4.329   7.905 -2.8053  0.8887  0.4577
  515MOL0     H69500  10.323   4.501   7.888  0.1090 -0.5952  0.3395
  515MOL0     H69501  10.452   4.281   7.718 -0.4110 -0.5199  0.8357
  515MOL0     H69502  10.459   4.451   7.676  0.9208  2.2254  1.4189
  515MOL0     H69503  10.558   4.327   7.950 -1.1559 -1.2876 -0.6736
  515MOL0     H69504  10.548   4.492   7.925 -1.8414 -1.4221  1.8892
  515MOL0     H69505  10.715   4.470   7.728  1.4396  1.8695  1.6059
  515MOL0     H69506  10.722   4.298   7.753  2.9509  0.2033  1.7370
  515MOL0     H69507   9.631   4.454   7.974 -0.4807  0.1612  0.6447
  515MOL0     H69508   9.383   4.451   8.042 -1.3639 -1.9416 -0.3550
  515MOL0     H69509   9.024   4.535   8.011  0.1075 -1.5220  1.3813
  515MOL0     H69510   8.817   4.593   8.101 -0.4904  1.1721 -2.3905
  515MOL0     H69511   9.906   4.642   7.329 -0.0318  1.6598 -0.0351
  515MOL0     H69512  10.155   4.618   7.269 -2.6626  0.3781 -1.0751
  515MOL0     H69513  10.577   4.453   7.220  1.1140 -1.8397  1.2054
  515MOL0     H69514  10.827   4.496   7.202 -0.5977  0.5063 -0.1778
  515MOL0     H69515  11.006   4.820   7.482  0.4387 -0.2405  2.6158
  515MOL0     H69516  11.007   4.681   7.579 -2.4259  2.7741  0.4692
  515MOL0     H69517  11.232   4.749   7.388 -1.5084 -2.8547 -1.8617
  515MOL0     H69518  11.236   4.620   7.511 -1.5970  0.4454  2.7970
  515MOL0     H69519  11.187   4.783   7.694  1.0289 -0.3206  0.4155
  515MOL0     H69520  11.172   4.910   7.583  1.4176  0.5150 -1.3151
  515MOL0     H69521  11.420   4.871   7.518  2.2600 -1.2197  0.8412
  515MOL0     H69522  11.406   4.744   7.634  0.1623 -0.7902 -2.3779
  515MOL0     H69523  11.468   5.140   7.819  0.4864  1.1159 -1.5057
  515MOL0     H69524  10.795   4.755   7.550 -1.8920  2.1744 -0.7004
  515MOL0     H69525  10.547   4.714   7.544  0.5832  1.7097  0.7598
  516MOL0     O69526   9.820   4.145   4.269  0.1928  0.0170  0.5884
  516MOL0     C69527   9.854   4.257   4.244  0.7738 -0.0114 -0.2438
  516MOL0     O69528   9.787   4.366   4.280  0.5757 -0.3484 -0.8599
  516MOL0     C69529   9.656   4.370   4.324 -0.7362 -0.4979 -0.0787
  516MOL0     C69530   9.553   4.309   4.251  0.1382  0.1079  0.7506
  516MOL0     C69531   9.420   4.313   4.293  1.2074 -0.9700 -0.1152
  516MOL0     C69532   9.379   4.384   4.397 -0.2192 -0.1954 -0.5346
  516MOL0     O69533   9.246   4.390   4.425  0.0020 -0.1640 -0.6464
  516MOL0     C69534   9.211   4.494   4.511  0.2619  0.0640 -0.2171
  516MOL0     C69535   9.059   4.493   4.546 -0.4447 -0.4277  0.2094
  516MOL0     C69536   8.981   4.491   4.417  0.2862  0.2192  0.2265
  516MOL0     C69537   8.838   4.429   4.431 -0.5935  0.0502 -0.3683
  516MOL0     C69538   8.736   4.504   4.351 -0.0187 -0.4657 -0.3688
  516MOL0     C69539   8.607   4.417   4.328 -0.5175 -0.2805 -0.1806
  516MOL0     C69540   8.500   4.500   4.247 -0.1164 -0.5750 -0.2443
  516MOL0     C69541   8.383   4.414   4.205  0.5998 -0.5337  0.3073
  516MOL0     N69542   8.277   4.487   4.134  0.4467 -0.0354  0.1293
  516MOL0     C69543   8.294   4.539   4.009  0.3967 -1.0088  0.8542
  516MOL0     C69544   8.162   4.544   3.963 -0.6262  0.5410  0.1705
  516MOL0     C69545   8.144   4.568   3.818  0.2136 -1.2735  0.9115
  516MOL0     C69546   8.059   4.696   3.792 -0.3456  0.8347 -0.0844
  516MOL0     C69547   8.129   4.827   3.826 -0.6110 -0.3235 -0.5140
  516MOL0     C69548   8.021   4.913   3.888 -0.7147  0.8826 -0.0369
  516MOL0     O69549   7.915   4.936   3.788 -0.0839 -0.1725 -1.0099
  516MOL0     C69550   7.781   4.947   3.834 -0.3970  0.0224  0.2438
  516MOL0     C69551   7.730   4.965   3.967 -0.7761  0.6523 -0.5918
  516MOL0     C69552   7.590   4.968   3.993  0.8743  0.8886 -0.0765
  516MOL0     C69553   7.544   4.991   4.136 -0.6682 -0.1936  0.2463
  516MOL0     C69554   7.498   4.929   3.894  0.0658 -0.4930 -0.4969
  516MOL0     C69555   7.342   4.907   3.912 -0.6669 -0.2572 -0.9532
  516MOL0     O69556   7.285   4.910   4.038  0.0990 -0.0802 -0.3457
  516MOL0     C69557   7.161   4.847   4.048  0.9430  0.3136 -0.4529
  516MOL0     C69558   7.044   4.901   3.996  0.3846 -0.1384  1.2157
  516MOL0     C69559   6.917   4.840   4.013 -0.3261 -0.0062 -0.2858
  516MOL0     C69560   6.920   4.717   4.091  0.5679 -1.4270 -0.4714
  516MOL0     O69561   6.801   4.651   4.078  0.2684  0.1489 -0.6668
  516MOL0     C69562   6.768   4.540   4.169  0.0664  0.5107 -0.6773
  516MOL0     C69563   6.630   4.488   4.144  0.0937 -1.0256  0.6914
  516MOL0     C69564   6.595   4.348   4.198 -1.3427 -0.8420 -0.2789
  516MOL0     C69565   6.446   4.331   4.224 -0.0211 -0.7658 -0.1752
  516MOL0     C69566   6.383   4.197   4.189  0.2055 -0.0680  0.0184
  516MOL0     C69567   6.440   4.090   4.283 -0.6396  0.1544  0.0724
  516MOL0     C69568   6.369   3.956   4.267 -0.0889  0.3622 -0.4844
  516MOL0     C69569   6.464   3.836   4.301 -0.4929 -0.2817 -0.1053
  516MOL0    Cl69570   6.612   3.835   4.204 -0.0007 -0.0467  0.2641
  516MOL0     C69571   7.031   4.673   4.156  1.3108 -0.3328  0.3494
  516MOL0     C69572   7.150   4.732   4.123  0.5329 -0.6482  0.0403
  516MOL0     O69573   7.290   4.887   3.805  0.7442 -0.7676  0.2007
  516MOL0     C69574   7.550   4.923   3.762 -0.8065 -0.6950 -1.2178
  516MOL0     C69575   7.687   4.939   3.735  0.2441  0.2687  0.1345
  516MOL0     N69576   8.079   4.491   4.059 -0.1820 -0.5372 -0.1645
  516MOL0     N69577   8.146   4.468   4.167  0.1391 -0.4914 -0.0863
  516MOL0     C69578   9.481   4.451   4.466  0.4905  0.0683 -0.4306
  516MOL0     C69579   9.620   4.449   4.430 -0.4006 -0.3527 -0.0745
  516MOL0     C69580   9.988   4.275   4.188  0.3480 -0.0372 -0.1074
  516MOL0     C69581  10.036   4.403   4.160  0.2633  0.7736  0.6830
  516MOL0     C69582  10.162   4.425   4.104  0.7095  0.4387  0.4859
  516MOL0     C69583  10.236   4.319   4.064 -1.0216  0.2322  0.5049
  516MOL0     O69584  10.364   4.334   4.029 -0.0889 -0.0183  0.4932
  516MOL0     C69585  10.423   4.462   3.997  0.3445  0.6254  0.2505
  516MOL0     C69586  10.565   4.445   3.955  0.5233  0.6008  0.1431
  516MOL0     C69587  10.646   4.392   4.074  0.1667 -0.1824  0.3180
  516MOL0     C69588  10.796   4.403   4.049 -0.2055  0.0858  0.5863
  516MOL0     C69589  10.843   4.315   3.939  0.8737  0.3236  0.2122
  516MOL0     C69590  10.852   4.236   3.850  0.1973 -0.6448  0.3289
  516MOL0     C69591  10.201   4.191   4.107 -0.6230 -0.5542  0.4183
  516MOL0     C69592  10.074   4.172   4.165 -0.7184  0.3742 -0.2217
  516MOL0     H69593   9.585   4.248   4.167  2.5461  1.5967  0.5047
  516MOL0     H69594   9.330   4.271   4.246 -0.4594  1.9619  0.2352
  516MOL0     H69595   9.256   4.469   4.608 -0.4177 -1.7499 -0.3380
  516MOL0     H69596   9.259   4.580   4.462  0.7903  0.5062  1.0201
  516MOL0     H69597   9.050   4.397   4.596  2.1641 -0.4879  0.7119
  516MOL0     H69598   9.029   4.575   4.613  0.3157 -0.3828  0.5087
  516MOL0     H69599   8.970   4.593   4.377 -0.7203 -0.4347 -1.2525
  516MOL0     H69600   9.034   4.435   4.339  0.1821  0.2562  0.1287
  516MOL0     H69601   8.847   4.324   4.400  0.0251 -0.4061  1.2774
  516MOL0     H69602   8.811   4.431   4.537 -1.6346  1.6479 -0.6287
  516MOL0     H69603   8.702   4.594   4.402  0.7035  1.2630 -2.7139
  516MOL0     H69604   8.765   4.536   4.250 -2.8964  1.3899 -0.7160
  516MOL0     H69605   8.643   4.331   4.271  4.8635  1.1446  0.5349
  516MOL0     H69606   8.564   4.377   4.421  0.5852 -0.4346  0.2804
  516MOL0     H69607   8.452   4.576   4.309  1.1373  1.9609 -2.2053
  516MOL0     H69608   8.549   4.543   4.159  1.4251 -1.5833  0.0806
  516MOL0     H69609   8.338   4.358   4.288 -0.7444  0.0298 -0.0302
  516MOL0     H69610   8.433   4.347   4.134  0.0616 -1.5458  0.8536
  516MOL0     H69611   8.385   4.547   3.950 -2.4007  1.5974 -3.6336
  516MOL0     H69612   8.241   4.580   3.768  0.0342  2.2861  1.1703
  516MOL0     H69613   8.089   4.479   3.785 -0.0061 -1.1392  0.9197
  516MOL0     H69614   7.978   4.686   3.865 -0.3684  1.4991 -0.0097
  516MOL0     H69615   8.014   4.704   3.692 -2.2376  1.7471  0.7868
  516MOL0     H69616   8.162   4.875   3.734 -1.2240  1.1346  0.0061
  516MOL0     H69617   8.213   4.822   3.895 -0.4779  4.7144  0.0712
  516MOL0     H69618   8.068   5.010   3.908  0.7600  0.0423  0.7054
  516MOL0     H69619   7.988   4.861   3.978  2.4491  0.0900  0.7541
  516MOL0     H69620   7.794   4.968   4.055 -1.5341 -2.6208  0.2312
  516MOL0     H69621   7.504   4.895   4.171  0.0407 -0.9499 -0.9371
  516MOL0     H69622   7.632   5.006   4.199  1.2224 -2.6355 -1.6270
  516MOL0     H69623   7.488   5.083   4.153  2.1261  1.8721 -0.9461
  516MOL0     H69624   7.038   4.995   3.941 -1.5078 -0.6579  0.4631
  516MOL0     H69625   6.832   4.873   3.955 -0.2408 -2.4687 -1.9444
  516MOL0     H69626   6.832   4.453   4.152 -0.5671 -0.3993  1.2877
  516MOL0     H69627   6.778   4.580   4.270 -1.5495  0.2616 -0.3821
  516MOL0     H69628   6.559   4.560   4.187 -0.1386 -0.8839  0.0741
  516MOL0     H69629   6.600   4.483   4.039  0.7956 -0.6817  0.4673
  516MOL0     H69630   6.653   4.330   4.289 -0.7800  1.0204 -0.2198
  516MOL0     H69631   6.627   4.273   4.125 -0.7048  0.6129 -1.5619
  516MOL0     H69632   6.420   4.351   4.329 -0.8763  0.1869 -0.5491
  516MOL0     H69633   6.401   4.399   4.151  1.7691  0.2344 -0.3998
  516MOL0     H69634   6.404   4.169   4.085  0.1694  2.6265 -0.7813
  516MOL0     H69635   6.274   4.203   4.191 -0.0047 -2.8701  2.1123
  516MOL0     H69636   6.547   4.086   4.259 -0.7982 -0.9580 -0.4938
  516MOL0     H69637   6.433   4.111   4.390 -2.0323 -2.7922  0.6618
  516MOL0     H69638   6.348   3.956   4.159 -4.0931 -0.6402  0.1412
  516MOL0     H69639   6.277   3.938   4.324 -0.0617  0.6982 -0.3323
  516MOL0     H69640   6.415   3.741   4.276 -1.1353  0.6950 -2.8639
  516MOL0     H69641   6.475   3.832   4.410 -2.3484 -4.3375  0.1443
  516MOL0     H69642   7.037   4.598   4.234  2.9567 -0.0694  0.5024
  516MOL0     H69643   7.243   4.693   4.161  0.2622 -1.8601 -0.4965
  516MOL0     H69644   7.500   4.883   3.675  0.0903  0.9760 -2.5718
  516MOL0     H69645   7.716   4.930   3.631 -0.5057  1.0963 -0.1683
  516MOL0     H69646   9.462   4.507   4.557  2.1184  2.0355 -1.2341
  516MOL0     H69647   9.706   4.496   4.477 -0.2607 -1.1173  0.4538
  516MOL0     H69648   9.971   4.487   4.182 -0.5536  0.4583 -0.4579
  516MOL0     H69649  10.181   4.531   4.089 -1.3435  0.7181 -0.5584
  516MOL0     H69650  10.369   4.501   3.910  1.6178  0.4580 -0.6389
  516MOL0     H69651  10.416   4.534   4.080  1.8969  0.8679  0.2004
  516MOL0     H69652  10.601   4.548   3.942  1.9248  0.3268  1.5915
  516MOL0     H69653  10.578   4.381   3.867  1.5865  1.4658 -0.3460
  516MOL0     H69654  10.624   4.288   4.101  0.0600 -0.5440 -1.0831
  516MOL0     H69655  10.634   4.457   4.162  4.7262  2.5391 -0.7548
  516MOL0     H69656  10.849   4.369   4.138  1.2452  1.4975  0.3048
  516MOL0     H69657  10.817   4.507   4.021 -0.3100 -0.9275 -4.1695
  516MOL0     H69658  10.886   4.179   3.766 -1.6901 -0.9941 -0.2479
  516MOL0     H69659  10.251   4.096   4.090 -1.4748 -0.7676 -1.1246
  516MOL0     H69660  10.046   4.068   4.179 -1.4347  0.3125 -1.8197
  517MOL0     O69661   4.803  10.164   7.782 -0.1119 -0.2041  0.2423
  517MOL0     C69662   4.792  10.043   7.811  0.2170 -0.3633 -0.7122
  517MOL0     O69663   4.704   9.988   7.913  0.0505 -0.5546  0.0647
  517MOL0     C69664   4.623  10.067   7.983 -0.3904 -0.0034  0.3182
  517MOL0     C69665   4.575  10.025   8.107 -0.0862  0.9980  0.4910
  517MOL0     C69666   4.473  10.093   8.168  0.5983 -0.4670 -0.0104
  517MOL0     C69667   4.415  10.210   8.118 -0.1901 -0.3756  0.0837
  517MOL0     O69668   4.323  10.288   8.179  0.5614 -0.4631  0.0611
  517MOL0     C69669   4.211  10.231   8.241 -0.2379  0.8035  0.2768
  517MOL0     C69670   4.228  10.265   8.389  0.6513  0.2698  0.2117
  517MOL0     C69671   4.156  10.169   8.484 -0.6206 -0.4576 -0.5126
  517MOL0     C69672   4.008  10.210   8.503 -1.0395 -1.0693 -0.8169
  517MOL0     C69673   3.957  10.102   8.593 -0.5345  0.1814 -1.2913
  517MOL0     C69674   3.812  10.098   8.643  0.4949  0.9636  0.2457
  517MOL0     C69675   3.782   9.979   8.738 -0.1123 -0.7206  0.8890
  517MOL0     C69676   3.628   9.972   8.765 -0.2320  0.4656 -0.1205
  517MOL0     N69677   3.593   9.922   8.904 -0.2839 -0.0926  0.8782
  517MOL0     C69678   3.538   9.985   9.009  0.5885  1.0656 -0.2195
  517MOL0     C69679   3.519   9.900   9.104 -0.3482  0.2853 -0.3660
  517MOL0     C69680   3.479   9.943   9.246  0.1427  0.5026 -0.8629
  517MOL0     C69681   3.341   9.891   9.286 -1.1368 -0.1274 -0.7156
  517MOL0     C69682   3.224   9.969   9.224  0.2922  1.2747  0.2279
  517MOL0     C69683   3.092   9.916   9.290  0.2588  0.3813 -0.3421
  517MOL0     O69684   3.091   9.775   9.290  0.6854  0.7251 -0.8254
  517MOL0     C69685   2.998   9.719   9.377 -0.3537 -0.0277 -0.1256
  517MOL0     C69686   3.011   9.578   9.399  0.7010  0.0776 -1.1483
  517MOL0     C69687   2.914   9.509   9.474  0.0355 -0.3891  1.0461
  517MOL0     C69688   2.938   9.365   9.508  0.2844 -0.5078 -0.3146
  517MOL0     C69689   2.797   9.575   9.512  0.2091 -0.4023 -0.5198
  517MOL0     C69690   2.676   9.509   9.561 -1.0213 -0.4262  1.6509
  517MOL0     O69691   2.618   9.405   9.497  0.4212 -0.1927 -0.3200
  517MOL0     C69692   2.519   9.336   9.567 -0.8120 -0.0409 -0.3817
  517MOL0     C69693   2.543   9.209   9.617  0.2959  0.0444  0.3829
  517MOL0     C69694   2.449   9.136   9.690 -0.1414  0.1243  0.3115
  517MOL0     C69695   2.319   9.186   9.707  0.2723  0.0438 -0.1623
  517MOL0     O69696   2.235   9.113   9.786 -0.3822 -0.3510  0.2727
  517MOL0     C69697   2.164   9.171   9.887  0.5230  1.0074 -0.0112
  517MOL0     C69698   2.030   9.090   9.872 -0.2685 -0.1792 -0.1175
  517MOL0     C69699   1.931   9.164   9.964  0.4244 -0.1681  0.2634
  517MOL0     C69700   1.803   9.073   9.995  0.0695  0.5890 -0.8214
  517MOL0     C69701   1.723   9.153  10.105 -0.0290 -0.0328  0.7629
  517MOL0     C69702   1.606   9.071  10.154  0.1422  0.4580 -0.5111
  517MOL0     C69703   1.519   9.158  10.244  0.1377  0.0139  0.2980
  517MOL0     C69704   1.407   9.081  10.321 -1.0665  0.5837  1.0045
  517MOL0    Cl69705   1.317   8.968  10.195  0.0129 -0.2824  0.1784
  517MOL0     C69706   2.288   9.312   9.653 -0.7422  0.0285 -0.2499
  517MOL0     C69707   2.386   9.382   9.571 -0.6518 -0.4006 -0.3346
  517MOL0     O69708   2.635   9.557   9.662  0.3069  0.4365  0.5052
  517MOL0     C69709   2.783   9.715   9.494 -0.9667 -0.1082 -0.2384
  517MOL0     C69710   2.884   9.779   9.422 -0.1837 -0.2406 -0.1824
  517MOL0     N69711   3.571   9.779   9.057 -0.1746  0.6338 -0.7248
  517MOL0     N69712   3.615   9.791   8.935 -0.0961 -0.7451  0.1432
  517MOL0     C69713   4.468  10.257   7.999 -0.3548  0.1408 -0.1899
  517MOL0     C69714   4.562  10.184   7.929 -0.4347 -0.5390 -0.2354
  517MOL0     C69715   4.842   9.947   7.712 -0.1809 -0.4289 -0.1047
  517MOL0     C69716   4.809   9.810   7.721 -0.7963  0.0983  0.2646
  517MOL0     C69717   4.844   9.729   7.609  0.2581  0.4482  0.7477
  517MOL0     C69718   4.913   9.772   7.492 -0.2590  0.7558 -0.6193
  517MOL0     O69719   4.944   9.672   7.399 -0.2815  0.5715  0.6737
  517MOL0     C69720   4.946   9.723   7.259  0.7880  0.8032 -0.9540
  517MOL0     C69721   4.959   9.612   7.156 -0.0694 -0.6430 -0.3292
  517MOL0     C69722   4.841   9.510   7.155 -1.4483  0.8034 -0.0452
  517MOL0     C69723   4.733   9.560   7.057  0.1535  0.4398  0.6405
  517MOL0     C69724   4.604   9.487   7.081  0.2764 -0.2888 -0.2843
  517MOL0     C69725   4.490   9.440   7.096  0.0487 -0.5327  0.2731
  517MOL0     C69726   4.959   9.903   7.493  0.3367 -0.0106 -0.0621
  517MOL0     C69727   4.920   9.991   7.599 -0.6484 -0.1263  0.5067
  517MOL0     H69728   4.590   9.927   8.151 -0.2610 -0.2403 -2.0160
  517MOL0     H69729   4.420  10.048   8.251 -1.1919  1.3889 -0.0651
  517MOL0     H69730   4.118  10.267   8.196  0.2627 -0.7280 -2.2112
  517MOL0     H69731   4.207  10.123   8.229  0.6340  0.8368 -0.4470
  517MOL0     H69732   4.336  10.266   8.411  0.9028  1.9951 -0.9184
  517MOL0     H69733   4.200  10.367   8.416 -0.0219 -0.4427  2.4342
  517MOL0     H69734   4.159  10.065   8.450 -2.0454 -0.1513 -1.7065
  517MOL0     H69735   4.211  10.177   8.578  1.4623  1.7382 -1.8061
  517MOL0     H69736   3.996  10.315   8.531 -1.1897 -1.6824  1.6219
  517MOL0     H69737   3.958  10.187   8.409  1.0438 -0.9420 -2.0040
  517MOL0     H69738   3.983  10.002   8.556 -0.1010 -0.5391  0.8295
  517MOL0     H69739   4.009  10.114   8.688 -1.3525  1.0696 -0.9402
  517MOL0     H69740   3.799  10.190   8.702 -0.0786 -0.8369  3.1220
  517MOL0     H69741   3.741  10.103   8.560  0.4336  3.8943  0.3688
  517MOL0     H69742   3.815   9.884   8.696  0.4591  0.3232 -1.1723
  517MOL0     H69743   3.840   9.998   8.828  1.4365 -0.0807 -0.2026
  517MOL0     H69744   3.595   9.888   8.703  2.9546  0.9113 -2.7034
  517MOL0     H69745   3.585  10.069   8.739  1.4649  0.7721 -2.0538
  517MOL0     H69746   3.526  10.093   9.019  0.6318  1.1203 -0.7574
  517MOL0     H69747   3.560   9.919   9.315 -0.4536  1.8044  0.3473
  517MOL0     H69748   3.463  10.052   9.249 -0.8244  0.4055 -1.7141
  517MOL0     H69749   3.337   9.919   9.392 -2.6519 -1.1658 -0.4738
  517MOL0     H69750   3.338   9.782   9.282  0.2824 -0.3330  1.8370
  517MOL0     H69751   3.224   9.956   9.116 -1.5934  2.5553  0.0304
  517MOL0     H69752   3.219  10.076   9.247  1.2176  1.6205 -1.1143
  517MOL0     H69753   3.012   9.946   9.222  1.3249  1.1329 -1.3154
  517MOL0     H69754   3.079   9.969   9.385 -4.2991 -0.1935 -0.4330
  517MOL0     H69755   3.096   9.530   9.351  1.4270 -1.0429  1.1030
  517MOL0     H69756   3.040   9.336   9.481  0.8862 -0.0810  1.3789
  517MOL0     H69757   2.920   9.351   9.615 -0.6144  1.0181 -0.2350
  517MOL0     H69758   2.860   9.305   9.460 -1.7458  0.0884  2.0224
  517MOL0     H69759   2.636   9.153   9.609  0.2635 -0.0904  0.9062
  517MOL0     H69760   2.482   9.044   9.736  1.1307  0.3329 -0.1485
  517MOL0     H69761   2.210   9.138   9.981  1.3685  2.7209  0.2151
  517MOL0     H69762   2.159   9.280   9.881  0.5613  0.9383 -1.5841
  517MOL0     H69763   2.007   9.090   9.765  4.1739 -1.0902 -1.2776
  517MOL0     H69764   2.038   8.985   9.902 -0.7071 -0.1201  0.2146
  517MOL0     H69765   1.901   9.257   9.915  1.0430 -0.8608 -1.4760
  517MOL0     H69766   1.971   9.175  10.066  0.1174 -1.3714  0.5330
  517MOL0     H69767   1.753   9.056   9.899 -1.5705  0.0306  0.0998
  517MOL0     H69768   1.843   8.981  10.039  2.5841  0.4439 -3.1166
  517MOL0     H69769   1.686   9.251  10.072  1.2973  0.4977  0.8171
  517MOL0     H69770   1.785   9.170  10.193  0.3571  1.9978  0.1450
  517MOL0     H69771   1.549   9.034  10.068 -0.5084  0.0400  0.0901
  517MOL0     H69772   1.642   8.980  10.204 -1.6706 -0.2325 -0.3857
  517MOL0     H69773   1.474   9.236  10.183 -3.2119 -1.1282  1.1181
  517MOL0     H69774   1.585   9.212  10.313  0.0096  2.8119 -1.6409
  517MOL0     H69775   1.337   9.148  10.371 -1.7903  0.4313  0.2147
  517MOL0     H69776   1.444   9.014  10.399  0.4343  1.0712  0.7553
  517MOL0     H69777   2.189   9.357   9.651 -0.7726  0.5428 -6.5652
  517MOL0     H69778   2.354   9.477   9.528 -0.6197 -0.0385  0.4383
  517MOL0     H69779   2.688   9.765   9.512 -1.2684 -0.8965  0.4213
  517MOL0     H69780   2.855   9.883   9.410 -2.0295 -0.6465  0.4735
  517MOL0     H69781   4.431  10.354   7.967  2.5165  1.5503  0.3869
  517MOL0     H69782   4.595  10.221   7.833 -0.1793 -2.8239 -1.0907
  517MOL0     H69783   4.766   9.776   7.815 -0.1873  1.9150  1.2428
  517MOL0     H69784   4.808   9.626   7.605  2.4952 -0.4077  1.4261
  517MOL0     H69785   4.849   9.764   7.228 -1.1944 -4.0634 -2.1258
  517MOL0     H69786   5.025   9.797   7.246  1.5601 -0.0016 -1.0091
  517MOL0     H69787   5.045   9.556   7.194 -2.3431 -1.9561  3.4779
  517MOL0     H69788   4.976   9.642   7.052  0.9658 -0.1167 -0.0266
  517MOL0     H69789   4.810   9.489   7.258  0.7633 -0.2009  0.4886
  517MOL0     H69790   4.885   9.417   7.118  0.2909  1.4780  0.2230
  517MOL0     H69791   4.767   9.554   6.954 -1.6816  2.8824 -0.2027
  517MOL0     H69792   4.714   9.666   7.077  1.6690  0.2809  3.5627
  517MOL0     H69793   4.393   9.395   7.106 -1.0872  1.7244  0.0396
  517MOL0     H69794   5.020   9.939   7.411 -0.4731 -0.7271 -1.0061
  517MOL0     H69795   4.949  10.092   7.574 -3.0819  1.0409  1.9799
  518MOL0     O69796   0.735   7.882   6.104 -0.5137  0.9140 -0.5333
  518MOL0     C69797   0.761   7.991   6.130  1.0658 -0.1676 -0.3242
  518MOL0     O69798   0.675   8.085   6.158 -0.0754 -0.5368  0.6676
  518MOL0     C69799   0.543   8.085   6.146  0.2858  0.8894 -0.1106
  518MOL0     C69800   0.457   7.975   6.118  0.5330 -0.3224 -0.4565
  518MOL0     C69801   0.325   7.986   6.111  0.6506  0.2533  0.1282
  518MOL0     C69802   0.265   8.103   6.143  0.3972  0.1953  0.1635
  518MOL0     O69803   0.127   8.106   6.128  0.7414  0.9978  0.6559
  518MOL0     C69804   0.051   8.233   6.148 -0.3758 -0.4321 -0.2719
  518MOL0     C69805  -0.099   8.205   6.158 -0.6400 -0.0687  0.3315
  518MOL0     C69806  -0.168   8.345   6.167 -0.6727  1.0308 -0.1365
  518MOL0     C69807  -0.328   8.317   6.142 -0.0764 -1.3094  0.0544
  518MOL0     C69808  -0.417   8.436   6.167  0.1031  0.0864 -0.2031
  518MOL0     C69809  -0.545   8.426   6.085  0.4760 -0.2926  0.3159
  518MOL0     C69810  -0.600   8.570   6.073 -0.5942  0.0476  0.2102
  518MOL0     C69811  -0.712   8.570   5.972 -0.5783  0.5284 -0.8567
  518MOL0     N69812  -0.830   8.484   6.000  0.5760 -0.3631  0.5590
  518MOL0     C69813  -0.927   8.500   6.097 -0.0821  0.3037 -0.2640
  518MOL0     C69814  -1.026   8.421   6.045 -0.2101 -0.2561  0.0606
  518MOL0     C69815  -1.140   8.394   6.136 -0.7080 -0.1896  0.4539
  518MOL0     C69816  -1.278   8.385   6.070  0.2582  0.4355  0.3310
  518MOL0     C69817  -1.382   8.387   6.174  0.2067 -0.2112  0.7187
  518MOL0     C69818  -1.512   8.339   6.113 -0.2798  0.4459 -0.3677
  518MOL0     O69819  -1.558   8.424   6.011 -0.6159 -0.9565 -0.3892
  518MOL0     C69820  -1.648   8.369   5.936 -0.2673  0.4738 -0.0547
  518MOL0     C69821  -1.779   8.419   5.931  0.7492  0.6382  0.0505
  518MOL0     C69822  -1.876   8.372   5.851  0.2140  0.7799 -0.3388
  518MOL0     C69823  -2.018   8.418   5.858 -0.2289  0.6804  0.3251
  518MOL0     C69824  -1.829   8.284   5.744 -0.3339 -0.1826  0.9820
  518MOL0     C69825  -1.919   8.239   5.626 -0.3787  0.8036 -0.6002
  518MOL0     O69826  -2.051   8.269   5.632 -0.4303 -0.0737  0.6827
  518MOL0     C69827  -2.126   8.222   5.528  0.7544 -0.2114  0.5550
  518MOL0     C69828  -2.134   8.274   5.397 -0.3736  0.7599  0.4534
  518MOL0     C69829  -2.215   8.227   5.302 -0.0320 -0.0921 -0.9740
  518MOL0     C69830  -2.296   8.112   5.336  0.3118  0.2638  0.4913
  518MOL0     O69831  -2.385   8.048   5.260  0.0664 -0.4698 -0.7140
  518MOL0     C69832  -2.461   8.134   5.179 -0.0831 -0.1858 -0.9038
  518MOL0     C69833  -2.569   8.061   5.120  0.5542  0.1791 -0.4116
  518MOL0     C69834  -2.679   7.994   5.199 -0.3337 -0.1678  0.7167
  518MOL0     C69835  -2.810   7.970   5.120  0.4124 -0.1038  0.4528
  518MOL0     C69836  -2.907   7.886   5.206  0.4189  0.2365 -0.8182
  518MOL0     C69837  -3.041   7.874   5.143  0.1696  0.0249 -0.1282
  518MOL0     C69838  -3.135   7.773   5.205 -0.3070  1.0231  0.2730
  518MOL0     C69839  -3.268   7.750   5.143 -0.1643  0.2609 -0.4282
  518MOL0    Cl69840  -3.352   7.618   5.240 -0.2428  0.2036 -0.0665
  518MOL0     C69841  -2.291   8.060   5.464 -0.1012  0.3442  0.0783
  518MOL0     C69842  -2.204   8.114   5.553 -0.7273 -0.1013  0.0635
  518MOL0     O69843  -1.869   8.178   5.535  0.0286 -0.3323 -0.1556
  518MOL0     C69844  -1.690   8.254   5.739  0.1812  0.6728  0.0152
  518MOL0     C69845  -1.599   8.291   5.836 -0.1358  0.3504  0.3461
  518MOL0     N69846  -0.994   8.371   5.916 -0.3302 -0.6646  0.0226
  518MOL0     N69847  -0.871   8.407   5.901 -0.7845 -0.2187 -0.2951
  518MOL0     C69848   0.344   8.208   6.183  0.2836 -0.4477 -0.2188
  518MOL0     C69849   0.479   8.201   6.189 -0.3976 -0.0740 -0.4829
  518MOL0     C69850   0.905   8.022   6.121 -0.1403  0.0883 -0.4364
  518MOL0     C69851   0.944   8.150   6.075  0.2667 -1.0608 -0.3379
  518MOL0     C69852   1.084   8.163   6.053  0.7250 -0.1463 -0.1186
  518MOL0     C69853   1.183   8.072   6.082 -0.3862 -0.7348  0.6070
  518MOL0     O69854   1.321   8.089   6.080  0.8899  0.4248 -0.4433
  518MOL0     C69855   1.377   8.198   6.016 -0.3115  0.5518  0.7373
  518MOL0     C69856   1.523   8.191   6.032  0.5237 -0.7924 -0.1951
  518MOL0     C69857   1.601   8.101   5.938  0.0045 -0.4934  0.1671
  518MOL0     C69858   1.743   8.092   5.971  0.7898 -0.8215  0.3281
  518MOL0     C69859   1.820   8.041   5.854  0.2920 -0.1485  0.2333
  518MOL0     C69860   1.899   8.005   5.769  1.1422 -0.1064  0.8955
  518MOL0     C69861   1.138   7.949   6.136 -0.8422 -0.6648 -0.5275
  518MOL0     C69862   1.000   7.916   6.148 -0.3768 -0.2618  0.0662
  518MOL0     H69863   0.500   7.882   6.083  1.5926  1.5758 -4.7678
  518MOL0     H69864   0.259   7.902   6.094  0.6648 -0.4913  3.1259
  518MOL0     H69865   0.098   8.291   6.228  1.9390 -1.2086 -0.9907
  518MOL0     H69866   0.063   8.305   6.067  0.6445 -1.2710 -0.8979
  518MOL0     H69867  -0.127   8.158   6.064 -0.3230  2.8678 -1.3738
  518MOL0     H69868  -0.112   8.152   6.253 -1.1046 -1.0156 -0.2540
  518MOL0     H69869  -0.159   8.394   6.264 -0.4941 -0.4140  0.6083
  518MOL0     H69870  -0.134   8.413   6.089 -0.4229  1.6002  0.4677
  518MOL0     H69871  -0.342   8.268   6.045 -0.7398 -2.8102  0.8666
  518MOL0     H69872  -0.338   8.231   6.209 -0.1461  0.5525  2.5771
  518MOL0     H69873  -0.433   8.436   6.275  0.4401  2.3168 -0.1036
  518MOL0     H69874  -0.356   8.521   6.135  0.8407 -0.3957 -0.0934
  518MOL0     H69875  -0.518   8.385   5.988  1.9822 -0.2599  0.6894
  518MOL0     H69876  -0.616   8.350   6.119 -1.4239  0.4645 -1.7581
  518MOL0     H69877  -0.632   8.608   6.170 -0.1499 -0.3323  0.5087
  518MOL0     H69878  -0.518   8.631   6.034 -0.8405  0.1239 -0.1971
  518MOL0     H69879  -0.670   8.544   5.875  0.4241  1.0604 -0.5893
  518MOL0     H69880  -0.750   8.673   5.976  0.5424  0.9458 -0.1204
  518MOL0     H69881  -0.919   8.556   6.189  2.4753  0.3314 -0.4481
  518MOL0     H69882  -1.130   8.294   6.177 -1.3606 -0.2700  0.4271
  518MOL0     H69883  -1.141   8.460   6.223  2.9094  0.6521  0.0233
  518MOL0     H69884  -1.300   8.296   6.011  1.0272 -1.6466  2.9712
  518MOL0     H69885  -1.281   8.472   6.004  1.2959 -0.9137 -1.6068
  518MOL0     H69886  -1.397   8.488   6.213 -3.6321 -0.4852  0.3670
  518MOL0     H69887  -1.370   8.318   6.258  0.6347 -0.1358  0.7202
  518MOL0     H69888  -1.596   8.322   6.181 -1.4764  0.6351 -1.7681
  518MOL0     H69889  -1.490   8.240   6.073  0.0632  0.3535  0.0324
  518MOL0     H69890  -1.808   8.482   6.014  1.0325  1.4705 -0.4700
  518MOL0     H69891  -2.027   8.472   5.764  5.0178  0.4036 -0.6301
  518MOL0     H69892  -2.081   8.329   5.850 -2.2868  2.1855 -1.4096
  518MOL0     H69893  -2.052   8.478   5.943 -3.5405  1.6034 -1.4930
  518MOL0     H69894  -2.069   8.359   5.376  0.5821  0.0194  0.3445
  518MOL0     H69895  -2.225   8.276   5.205 -0.6507  1.0395 -0.3574
  518MOL0     H69896  -2.504   8.203   5.252 -0.9018 -0.1420 -1.4254
  518MOL0     H69897  -2.408   8.183   5.097 -2.2894 -1.2862 -3.0979
  518MOL0     H69898  -2.610   8.122   5.039 -0.7046 -0.4669 -0.2777
  518MOL0     H69899  -2.529   7.967   5.080 -2.3811 -1.6688  0.7016
  518MOL0     H69900  -2.698   8.056   5.287  0.3090  1.6602 -0.3862
  518MOL0     H69901  -2.623   7.906   5.232  1.6878  1.3549  1.5237
  518MOL0     H69902  -2.862   8.062   5.092 -2.3815 -1.3914  0.9827
  518MOL0     H69903  -2.791   7.912   5.029  2.1881  1.3056 -0.1173
  518MOL0     H69904  -2.917   7.927   5.306 -4.1197  1.4052 -1.5325
  518MOL0     H69905  -2.871   7.786   5.232  2.4668  1.3457  0.8857
  518MOL0     H69906  -3.089   7.972   5.133 -0.7207 -0.5057 -1.2612
  518MOL0     H69907  -3.023   7.855   5.037 -2.2375 -0.3929 -0.5060
  518MOL0     H69908  -3.141   7.793   5.312 -1.7909  1.3828  0.1382
  518MOL0     H69909  -3.087   7.675   5.191  3.0956  2.7855 -1.9366
  518MOL0     H69910  -3.277   7.730   5.036 -1.3144  1.3534 -0.5564
  518MOL0     H69911  -3.309   7.851   5.154  2.8051  1.3812  1.8435
  518MOL0     H69912  -2.347   7.970   5.489  0.3954  0.5679  2.2228
  518MOL0     H69913  -2.181   8.071   5.650  0.2260  0.5241  0.1302
  518MOL0     H69914  -1.658   8.188   5.659 -0.0753 -1.0279  1.2567
  518MOL0     H69915  -1.500   8.246   5.840 -0.6060 -0.8684 -0.7464
  518MOL0     H69916   0.314   8.306   6.217  1.9818 -0.5631  1.7880
  518MOL0     H69917   0.546   8.283   6.212  0.1147  0.0900 -2.4489
  518MOL0     H69918   0.882   8.235   6.052  0.1261 -1.5792 -1.9836
  518MOL0     H69919   1.124   8.256   6.014  3.7305 -2.1864 -2.3399
  518MOL0     H69920   1.352   8.191   5.910  0.0353  1.0162  0.6177
  518MOL0     H69921   1.343   8.293   6.060  0.3210 -0.4999  3.7116
  518MOL0     H69922   1.540   8.153   6.133 -0.6557  1.0730  0.7727
  518MOL0     H69923   1.558   8.295   6.033  0.1546 -0.6659  0.2928
  518MOL0     H69924   1.603   8.151   5.841 -1.5157 -2.6855 -1.0947
  518MOL0     H69925   1.558   8.001   5.944 -1.2899 -0.0222 -0.7412
  518MOL0     H69926   1.752   8.021   6.054 -0.3693 -1.8264 -0.3617
  518MOL0     H69927   1.786   8.189   5.993  1.7778 -0.5765 -2.2738
  518MOL0     H69928   1.962   7.972   5.689 -0.3093 -1.4147  0.2304
  518MOL0     H69929   1.212   7.873   6.162  0.9523  1.2528  0.2789
  518MOL0     H69930   0.956   7.820   6.174 -1.6474  0.4644  0.7584
  519MOL0     O69931   5.345   4.946   1.820 -0.9639 -0.5488  0.0908
  519MOL0     C69932   5.405   4.953   1.712 -0.4179  0.3775  0.2263
  519MOL0     O69933   5.341   4.960   1.588 -0.3173  0.0607  0.1021
  519MOL0     C69934   5.200   4.965   1.579 -0.3887 -0.0218 -0.2172
  519MOL0     C69935   5.128   4.852   1.528 -1.1440  0.6635  0.9694
  519MOL0     C69936   4.994   4.854   1.511 -0.3031 -0.4493  0.2846
  519MOL0     C69937   4.928   4.980   1.523 -0.4018  0.5349 -0.7199
  519MOL0     O69938   4.796   5.004   1.497  0.7623 -0.1640  0.5207
  519MOL0     C69939   4.711   4.895   1.448  0.0493  0.3780 -0.1393
  519MOL0     C69940   4.571   4.932   1.419 -0.1445 -0.5985 -0.2907
  519MOL0     C69941   4.544   5.036   1.311  0.0331  0.2012  0.2240
  519MOL0     C69942   4.395   5.066   1.294  0.1968 -0.6482 -0.0333
  519MOL0     C69943   4.376   5.199   1.210  0.6085  0.6055 -0.3240
  519MOL0     C69944   4.226   5.216   1.146 -1.2365 -0.1615 -0.2853
  519MOL0     C69945   4.107   5.219   1.236 -0.2363  1.0210  0.3489
  519MOL0     C69946   3.972   5.222   1.161 -0.1749  0.3776  0.5263
  519MOL0     N69947   3.961   5.342   1.074  0.1527  0.9294 -0.1191
  519MOL0     C69948   3.878   5.349   0.962 -0.6912  0.3826 -0.0287
  519MOL0     C69949   3.857   5.477   0.940  0.5370 -0.1871  0.1833
  519MOL0     C69950   3.787   5.541   0.814  0.3725 -0.5416 -0.7938
  519MOL0     C69951   3.757   5.699   0.845 -0.4040 -0.3176  0.3567
  519MOL0     C69952   3.645   5.741   0.750  0.7259  0.2875  0.0368
  519MOL0     C69953   3.604   5.886   0.767 -0.3598 -0.7556 -0.1595
  519MOL0     O69954   3.532   5.924   0.648 -0.5471 -0.5069 -0.2013
  519MOL0     C69955   3.402   5.883   0.620  0.8053 -0.7382  0.3020
  519MOL0     C69956   3.309   5.847   0.718 -0.9843  0.4885 -0.0649
  519MOL0     C69957   3.179   5.823   0.691 -0.0055  0.0273  0.4047
  519MOL0     C69958   3.099   5.779   0.809  0.5148 -0.5646  0.5103
  519MOL0     C69959   3.139   5.817   0.552  0.6501 -0.9202  0.7819
  519MOL0     C69960   3.009   5.767   0.507 -0.3876  0.1098 -0.2940
  519MOL0     O69961   2.938   5.690   0.597  0.1668  0.6033 -0.4354
  519MOL0     C69962   2.820   5.626   0.579 -0.3007 -0.6502 -0.4537
  519MOL0     C69963   2.787   5.558   0.698 -0.5655 -1.0380  0.4219
  519MOL0     C69964   2.674   5.480   0.705  0.4800 -0.7256  0.7436
  519MOL0     C69965   2.601   5.445   0.583 -0.1624 -0.0669  0.2451
  519MOL0     O69966   2.497   5.359   0.573 -0.1789 -0.5268 -0.9321
  519MOL0     C69967   2.434   5.318   0.696  1.0850 -0.3230  1.1398
  519MOL0     C69968   2.344   5.204   0.660  0.1421  0.3433 -0.7839
  519MOL0     C69969   2.300   5.100   0.775  0.0841 -0.1208  0.2481
  519MOL0     C69970   2.214   4.993   0.708  0.0971 -0.4897 -0.4287
  519MOL0     C69971   2.158   4.887   0.805  0.1895 -1.0571  0.3913
  519MOL0     C69972   2.058   4.969   0.894  1.4380 -0.0025 -0.3901
  519MOL0     C69973   1.952   4.876   0.963  1.0425 -0.4759  0.0316
  519MOL0     C69974   1.837   4.956   1.019 -0.1011 -0.5220 -0.1755
  519MOL0    Cl69975   1.721   4.834   1.081 -0.0831 -0.4113 -0.0205
  519MOL0     C69976   2.642   5.514   0.470 -0.1209  0.6280 -0.1800
  519MOL0     C69977   2.745   5.606   0.468  0.4008  0.4242 -0.3313
  519MOL0     O69978   2.966   5.821   0.406  0.7361  0.5262 -0.2823
  519MOL0     C69979   3.234   5.852   0.451 -0.0603 -0.4947 -0.8793
  519MOL0     C69980   3.362   5.895   0.489 -0.7691  0.0369 -0.1999
  519MOL0     N69981   3.931   5.547   1.032  0.4781  0.3627 -0.3752
  519MOL0     N69982   3.986   5.467   1.118  0.1396  1.0945 -0.1999
  519MOL0     C69983   4.999   5.092   1.565 -0.0844  0.3391  0.4965
  519MOL0     C69984   5.132   5.087   1.588 -0.0946 -0.1992  0.3521
  519MOL0     C69985   5.546   4.939   1.725 -0.5043 -0.7261 -1.4518
  519MOL0     C69986   5.608   4.873   1.837 -0.2651  0.4318  0.6291
  519MOL0     C69987   5.747   4.856   1.837 -0.1461  0.3106  0.2936
  519MOL0     C69988   5.838   4.911   1.744 -0.8001  0.2309  0.5520
  519MOL0     O69989   5.976   4.893   1.761  0.0475  0.0600 -0.5884
  519MOL0     C69990   6.070   4.991   1.706 -0.3976 -0.4917 -0.1029
  519MOL0     C69991   6.216   4.958   1.737  0.4734  0.5678  0.4730
  519MOL0     C69992   6.306   5.071   1.692  0.1499 -0.8804 -0.2462
  519MOL0     C69993   6.421   5.086   1.783 -0.0768  0.0149 -0.0229
  519MOL0     C69994   6.518   4.976   1.779 -0.3362 -0.3456 -0.4156
  519MOL0     C69995   6.601   4.891   1.768 -0.0983  0.4031 -0.0231
  519MOL0     C69996   5.774   4.964   1.636  0.6837 -0.5441  0.2311
  519MOL0     C69997   5.635   4.988   1.634 -0.2395  0.2437  0.9054
  519MOL0     H69998   5.183   4.759   1.520  0.8572  1.9189 -1.0713
  519MOL0     H69999   4.936   4.767   1.482  0.4409 -1.6277  2.1458
  519MOL0     H70000   4.743   4.861   1.349 -1.8016 -0.3833 -0.5124
  519MOL0     H70001   4.716   4.816   1.524 -0.4579  2.2282  1.9485
  519MOL0     H70002   4.521   4.840   1.386  0.2308 -0.3645 -1.5234
  519MOL0     H70003   4.524   4.966   1.512 -2.4025 -1.5323 -1.0163
  519MOL0     H70004   4.592   5.127   1.349  2.5914 -2.0467  2.8926
  519MOL0     H70005   4.587   4.992   1.220  0.5777 -1.7037  1.3304
  519MOL0     H70006   4.353   4.986   1.231 -2.1356 -1.1616  2.0007
  519MOL0     H70007   4.340   5.062   1.388  1.5230 -2.1087  0.7283
  519MOL0     H70008   4.424   5.283   1.261  0.5125  0.3145  0.2559
  519MOL0     H70009   4.447   5.184   1.129  1.3159  0.6054  0.2856
  519MOL0     H70010   4.220   5.312   1.093 -1.3854  0.2189  0.4192
  519MOL0     H70011   4.220   5.126   1.084 -0.3503 -1.2985  1.2384
  519MOL0     H70012   4.108   5.122   1.288 -2.3842 -0.2477 -1.7692
  519MOL0     H70013   4.120   5.306   1.301  4.6112  1.1780 -0.4660
  519MOL0     H70014   3.888   5.223   1.230 -1.1172 -0.9203 -0.5654
  519MOL0     H70015   3.970   5.134   1.097 -3.0536  0.4817  0.3582
  519MOL0     H70016   3.849   5.272   0.891 -2.4486 -1.5512  2.5970
  519MOL0     H70017   3.863   5.543   0.735 -1.5841  1.4990 -2.7798
  519MOL0     H70018   3.702   5.474   0.804 -0.3706  0.4151 -1.0839
  519MOL0     H70019   3.852   5.753   0.838 -1.7550  2.1791  0.3391
  519MOL0     H70020   3.729   5.694   0.951  0.9540 -3.0181  0.6885
  519MOL0     H70021   3.562   5.671   0.751  1.9869 -1.2994 -0.6589
  519MOL0     H70022   3.693   5.726   0.652 -0.2108 -0.9351 -0.2570
  519MOL0     H70023   3.688   5.956   0.763  0.7182 -1.9950  0.1141
  519MOL0     H70024   3.548   5.886   0.861 -1.4286 -1.1364 -0.7838
  519MOL0     H70025   3.339   5.853   0.822  0.5258  2.6617 -0.5637
  519MOL0     H70026   3.138   5.811   0.906 -0.2164  3.7711 -0.4244
  519MOL0     H70027   2.999   5.822   0.799  0.5999 -0.8054 -2.0882
  519MOL0     H70028   3.076   5.672   0.815  1.8231 -0.7993  2.1636
  519MOL0     H70029   2.854   5.585   0.779  1.1674  1.0324 -1.5596
  519MOL0     H70030   2.651   5.441   0.803  1.4153  0.4105  1.4483
  519MOL0     H70031   2.498   5.282   0.777  0.6582 -3.9126  0.0486
  519MOL0     H70032   2.381   5.408   0.730 -3.3687 -2.2283  0.0363
  519MOL0     H70033   2.257   5.255   0.618  0.7371  0.6847 -1.6326
  519MOL0     H70034   2.397   5.151   0.580  0.3522 -2.1185  0.8794
  519MOL0     H70035   2.245   5.145   0.857  1.5529  0.8497  0.7477
  519MOL0     H70036   2.391   5.061   0.821  1.0342  1.1155 -0.5182
  519MOL0     H70037   2.129   5.047   0.665 -0.5032  1.2993  2.7448
  519MOL0     H70038   2.272   4.951   0.625  2.1137  0.2369  0.5749
  519MOL0     H70039   2.230   4.827   0.861 -1.1611 -1.8862  1.2911
  519MOL0     H70040   2.094   4.818   0.750 -2.2202  1.3317  0.0089
  519MOL0     H70041   2.115   5.017   0.974  1.1807 -0.7737  0.2729
  519MOL0     H70042   2.007   5.040   0.828 -0.9233 -2.3442 -1.3137
  519MOL0     H70043   1.998   4.813   1.040 -3.0219  1.0733  4.1826
  519MOL0     H70044   1.914   4.812   0.884  0.2722 -0.8311  0.6741
  519MOL0     H70045   1.778   5.016   0.950 -0.2209 -1.2324 -0.7042
  519MOL0     H70046   1.886   5.027   1.086  2.4417 -3.0714  0.8967
  519MOL0     H70047   2.591   5.499   0.375  0.7852 -0.0874 -0.5731
  519MOL0     H70048   2.773   5.664   0.380 -1.9075 -0.0825 -1.4720
  519MOL0     H70049   3.207   5.863   0.347  1.7893  3.7105 -1.1513
  519MOL0     H70050   3.441   5.923   0.420  0.8392  0.2518  1.6435
  519MOL0     H70051   4.949   5.188   1.573 -1.6344 -0.6067  3.5443
  519MOL0     H70052   5.192   5.173   1.618  0.2133 -0.2996  0.0310
  519MOL0     H70053   5.555   4.845   1.928 -2.9884  0.5944 -0.8088
  519MOL0     H70054   5.788   4.806   1.924 -3.5452  1.7753  3.0039
  519MOL0     H70055   6.066   5.002   1.597  2.2131  2.3976 -0.0547
  519MOL0     H70056   6.031   5.085   1.746 -0.6927 -0.6001 -0.1361
  519MOL0     H70057   6.246   4.866   1.685  4.5941  1.1423  1.5126
  519MOL0     H70058   6.231   4.950   1.845 -0.1843  0.6249  0.5729
  519MOL0     H70059   6.251   5.165   1.704  0.3916 -0.9961  2.1937
  519MOL0     H70060   6.330   5.066   1.585 -2.3008 -0.0973 -0.9190
  519MOL0     H70061   6.393   5.083   1.889  0.5622  2.2359  0.2586
  519MOL0     H70062   6.464   5.181   1.751  1.1651 -0.6679 -0.4415
  519MOL0     H70063   6.678   4.818   1.756 -1.5147 -0.8662 -2.3039
  519MOL0     H70064   5.829   4.988   1.545 -2.6877 -3.1298 -2.7703
  519MOL0     H70065   5.589   5.024   1.542  0.7656 -0.7287 -0.0165
  520MOL0     O70066   8.050   4.751   2.072  0.0675  0.0192 -0.7552
  520MOL0     C70067   7.923   4.752   2.076  0.5187 -0.1620  0.3035
  520MOL0     O70068   7.844   4.667   2.146  0.2091 -0.7992  0.1141
  520MOL0     C70069   7.908   4.571   2.225 -0.7956 -1.7549 -0.3567
  520MOL0     C70070   8.004   4.485   2.177  0.1006 -0.0491 -0.1049
  520MOL0     C70071   8.050   4.377   2.255 -0.4060 -0.0104 -0.1475
  520MOL0     C70072   7.998   4.354   2.380 -0.8192 -0.1076 -0.2125
  520MOL0     O70073   8.055   4.261   2.458 -0.2943 -0.1624 -0.6892
  520MOL0     C70074   7.990   4.218   2.576  0.3446 -0.4644 -0.1053
  520MOL0     C70075   8.057   4.088   2.617  0.2822  0.4368  0.0964
  520MOL0     C70076   7.998   4.052   2.764  0.5792 -0.6357  0.2029
  520MOL0     C70077   8.029   3.909   2.797 -1.1641 -0.0119 -0.0292
  520MOL0     C70078   8.046   3.881   2.949  0.1604 -0.2313 -0.1979
  520MOL0     C70079   7.909   3.882   3.025 -0.8824 -0.0519  0.0663
  520MOL0     C70080   7.819   3.779   2.964  0.5666 -0.7654 -0.1906
  520MOL0     C70081   7.685   3.747   3.045  0.5896 -0.2580  0.4955
  520MOL0     N70082   7.589   3.862   3.050  0.2818 -0.0855  0.5185
  520MOL0     C70083   7.586   3.965   3.142 -0.5155 -0.7559  0.1841
  520MOL0     C70084   7.488   4.056   3.112 -0.0412  0.5477 -0.5615
  520MOL0     C70085   7.428   4.155   3.213  0.1159 -0.0481  0.8188
  520MOL0     C70086   7.372   4.082   3.339  0.3377  0.3249 -0.6041
  520MOL0     C70087   7.300   4.186   3.423 -0.1241 -0.6014  0.1739
  520MOL0     C70088   7.265   4.135   3.567  0.0002 -0.3107 -0.0432
  520MOL0     O70089   7.194   4.010   3.580 -0.0840 -0.1000 -0.6670
  520MOL0     C70090   7.062   4.022   3.559 -0.5496 -0.7627 -0.2209
  520MOL0     C70091   7.009   3.897   3.524  0.1015  0.3783  0.3397
  520MOL0     C70092   6.878   3.876   3.500  1.0456  0.1079  0.1300
  520MOL0     C70093   6.839   3.732   3.452 -0.9456  0.0707 -0.3145
  520MOL0     C70094   6.784   3.981   3.529  0.2006  0.6731  1.0091
  520MOL0     C70095   6.637   3.955   3.533 -0.3243 -0.5737 -0.3556
  520MOL0     O70096   6.550   4.061   3.568  0.0456  0.3072  1.1112
  520MOL0     C70097   6.435   4.050   3.634 -0.6424  1.3939 -0.9245
  520MOL0     C70098   6.416   3.943   3.733  0.9013 -0.2464 -0.0021
  520MOL0     C70099   6.305   3.965   3.820  0.3222  0.7385  0.0068
  520MOL0     C70100   6.213   4.072   3.809  0.4459  0.0370  0.5479
  520MOL0     O70101   6.087   4.079   3.870 -0.0235 -0.3609 -0.2917
  520MOL0     C70102   6.049   3.976   3.952 -0.2171 -0.3902 -0.0820
  520MOL0     C70103   5.915   4.000   4.029  0.6976 -0.4952  0.5294
  520MOL0     C70104   5.925   4.064   4.168 -0.2718  0.0964  0.6979
  520MOL0     C70105   5.970   4.205   4.172  0.2145  0.4056 -0.1782
  520MOL0     C70106   5.987   4.248   4.315  0.1190  0.0493  0.0302
  520MOL0     C70107   6.040   4.393   4.328  0.1149 -0.1854 -0.6105
  520MOL0     C70108   6.119   4.422   4.458 -0.0285  0.4028 -0.1615
  520MOL0     C70109   6.149   4.563   4.492 -0.1953  0.1294 -0.2176
  520MOL0    Cl70110   6.300   4.609   4.405 -0.4912 -0.2556 -0.3431
  520MOL0     C70111   6.236   4.165   3.709 -0.1352  0.3517  0.2844
  520MOL0     C70112   6.349   4.157   3.630  0.9966 -0.4351 -0.5361
  520MOL0     O70113   6.597   3.838   3.526  0.3272  0.2075 -0.0232
  520MOL0     C70114   6.829   4.109   3.557 -0.1969  0.1622 -0.4326
  520MOL0     C70115   6.969   4.133   3.567 -1.0143  0.4322  0.0600
  520MOL0     N70116   7.435   4.014   2.992  0.3209 -0.1508 -0.8001
  520MOL0     N70117   7.500   3.901   2.958  0.4053 -0.2461  0.2236
  520MOL0     C70118   7.906   4.447   2.434 -0.8292  0.7357  0.0895
  520MOL0     C70119   7.859   4.552   2.350 -0.1812  0.0006  0.0249
  520MOL0     C70120   7.863   4.849   1.986 -0.0826  0.5228  0.1645
  520MOL0     C70121   7.934   4.956   1.927 -0.4814 -0.3048 -0.4275
  520MOL0     C70122   7.873   5.058   1.847 -0.2252  0.0956 -0.0602
  520MOL0     C70123   7.733   5.048   1.818  0.1837  0.0320  0.9958
  520MOL0     O70124   7.646   5.121   1.753 -0.5966  0.8693 -0.7201
  520MOL0     C70125   7.669   5.262   1.772  0.5692 -0.6775  0.5439
  520MOL0     C70126   7.538   5.338   1.727  0.3713 -0.8698 -0.5653
  520MOL0     C70127   7.536   5.345   1.582 -0.6538 -0.7169  0.6261
  520MOL0     C70128   7.438   5.450   1.526 -0.6975  0.0829 -0.1996
  520MOL0     C70129   7.299   5.438   1.577  0.2181  0.4809  0.2035
  520MOL0     C70130   7.190   5.452   1.628  0.5768 -1.1267  0.7711
  520MOL0     C70131   7.665   4.942   1.874 -0.7844 -0.0233 -0.9782
  520MOL0     C70132   7.725   4.847   1.960  0.3553  0.3431 -0.8223
  520MOL0     H70133   8.036   4.497   2.074  2.1277  1.1184  0.6113
  520MOL0     H70134   8.127   4.314   2.212  0.3890 -0.8305  2.3253
  520MOL0     H70135   8.008   4.296   2.650  2.4938 -0.5360 -0.4880
  520MOL0     H70136   7.884   4.207   2.551  0.5798  2.4404 -3.0051
  520MOL0     H70137   8.027   4.006   2.552 -2.8552  0.1657  1.6781
  520MOL0     H70138   8.166   4.088   2.619  0.3028 -1.3071  1.3112
  520MOL0     H70139   8.041   4.117   2.841 -0.8425 -0.3732  0.8074
  520MOL0     H70140   7.889   4.064   2.760  0.6940  0.1119 -2.2169
  520MOL0     H70141   7.950   3.846   2.756 -1.2539  0.6763 -0.9423
  520MOL0     H70142   8.122   3.874   2.750 -2.8066 -0.3793 -3.2814
  520MOL0     H70143   8.088   3.781   2.963 -0.0290 -0.0107  2.5138
  520MOL0     H70144   8.116   3.950   2.998  1.0065 -1.0620 -0.2262
  520MOL0     H70145   7.924   3.856   3.130 -1.1334 -1.4356 -0.2211
  520MOL0     H70146   7.872   3.984   3.008 -1.3053  0.9485  5.2668
  520MOL0     H70147   7.779   3.795   2.863 -1.4299  1.9035  0.9269
  520MOL0     H70148   7.873   3.684   2.958  0.4679 -0.7774 -1.0981
  520MOL0     H70149   7.716   3.711   3.143 -0.1368  0.9948  1.2206
  520MOL0     H70150   7.627   3.676   2.985  0.8142  0.6174 -0.8294
  520MOL0     H70151   7.658   3.989   3.220 -0.7574  1.8366 -0.3021
  520MOL0     H70152   7.504   4.225   3.250  0.6655 -0.6666  0.8889
  520MOL0     H70153   7.356   4.217   3.159 -1.2732 -2.1278  0.1790
  520MOL0     H70154   7.454   4.028   3.387 -0.9696 -0.7819  0.4754
  520MOL0     H70155   7.304   4.004   3.301 -0.4355  0.8140 -0.2275
  520MOL0     H70156   7.204   4.216   3.380  0.5026  0.7608 -0.3656
  520MOL0     H70157   7.352   4.282   3.431 -1.7398  0.3705 -0.5932
  520MOL0     H70158   7.208   4.218   3.610  0.6325 -0.0609  0.3262
  520MOL0     H70159   7.354   4.123   3.630  1.1236 -0.0733 -1.5304
  520MOL0     H70160   7.078   3.815   3.509  0.4374  0.9784 -1.8900
  520MOL0     H70161   6.928   3.669   3.447 -1.7460 -1.2275  0.8858
  520MOL0     H70162   6.776   3.674   3.520  0.2767 -2.6604 -1.3649
  520MOL0     H70163   6.792   3.734   3.354 -0.2506 -2.3518 -0.7513
  520MOL0     H70164   6.482   3.864   3.766  1.8876  0.4534 -0.2665
  520MOL0     H70165   6.287   3.881   3.886 -2.1140 -0.5531 -2.0870
  520MOL0     H70166   6.038   3.884   3.894 -0.8175 -0.6705  0.4550
  520MOL0     H70167   6.130   3.969   4.024 -1.0910  1.9098  1.2272
  520MOL0     H70168   5.841   4.053   3.969  0.0457  2.1178  3.3458
  520MOL0     H70169   5.885   3.896   4.045  1.3613 -0.8196 -0.2533
  520MOL0     H70170   5.986   4.005   4.237 -3.0385 -1.4783  1.9814
  520MOL0     H70171   5.826   4.056   4.214 -0.3100  0.6869  0.7233
  520MOL0     H70172   6.066   4.209   4.120 -1.7425  1.5812 -4.0526
  520MOL0     H70173   5.905   4.275   4.119 -1.1199  1.0565  2.1451
  520MOL0     H70174   6.056   4.181   4.368 -0.5921  0.3102  1.3419
  520MOL0     H70175   5.897   4.247   4.377  0.8259  2.3678  1.2354
  520MOL0     H70176   6.095   4.420   4.238 -2.8480 -0.2905 -2.5961
  520MOL0     H70177   5.950   4.455   4.319 -0.4977 -1.1944 -1.6975
  520MOL0     H70178   6.214   4.373   4.438 -0.1869  1.0885 -3.0783
  520MOL0     H70179   6.085   4.370   4.548  0.4504 -3.0659 -1.8214
  520MOL0     H70180   6.142   4.578   4.600  0.9983  1.0004 -0.2464
  520MOL0     H70181   6.067   4.618   4.445 -1.3624 -2.3182 -1.2302
  520MOL0     H70182   6.165   4.244   3.685 -1.4449  0.0440  2.7907
  520MOL0     H70183   6.368   4.234   3.556 -0.8283  0.9857  0.3916
  520MOL0     H70184   6.759   4.191   3.570 -0.4346 -0.0907 -0.0817
  520MOL0     H70185   7.004   4.232   3.595 -0.0146 -0.3751  1.7885
  520MOL0     H70186   7.868   4.442   2.536  0.1497 -0.7593  0.4082
  520MOL0     H70187   7.786   4.625   2.384  0.9134  0.3928  1.6354
  520MOL0     H70188   8.042   4.969   1.931 -0.6945  1.4823  1.1307
  520MOL0     H70189   7.928   5.144   1.809 -0.6930  0.9621  1.1740
  520MOL0     H70190   7.692   5.277   1.878  1.7621 -1.5821  0.4280
  520MOL0     H70191   7.751   5.309   1.717 -0.8841  0.2561 -0.9305
  520MOL0     H70192   7.546   5.438   1.770 -2.9254 -0.2629 -1.1011
  520MOL0     H70193   7.460   5.272   1.767  2.1340 -1.3652  2.3209
  520MOL0     H70194   7.521   5.257   1.518 -0.2471  0.5043 -1.2378
  520MOL0     H70195   7.630   5.387   1.546  0.6669 -2.4338  1.8745
  520MOL0     H70196   7.436   5.447   1.416 -0.4768 -1.9632 -0.1804
  520MOL0     H70197   7.481   5.546   1.557  0.6554 -1.4243  2.9785
  520MOL0     H70198   7.096   5.469   1.676  1.4413  2.7359  1.4346
  520MOL0     H70199   7.557   4.930   1.880 -0.5957 -0.8376  2.2130
  520MOL0     H70200   7.665   4.772   2.011  1.4793  1.0358  1.6857
  521MOL0     O70201   8.595  10.693   3.344  0.1142 -0.7847 -0.6503
  521MOL0     C70202   8.603  10.808   3.391 -0.4917 -0.4006 -0.2847
  521MOL0     O70203   8.496  10.871   3.443  0.1400  0.6669 -0.2461
  521MOL0     C70204   8.374  10.818   3.413  0.1258  0.4250  0.1014
  521MOL0     C70205   8.314  10.707   3.477 -0.6087 -0.1303 -0.7339
  521MOL0     C70206   8.189  10.669   3.442  0.5686  0.6833  0.4328
  521MOL0     C70207   8.111  10.736   3.347 -0.6428 -0.1377 -0.1308
  521MOL0     O70208   7.991  10.693   3.309  0.4543 -0.2054  0.1824
  521MOL0     C70209   7.903  10.611   3.391 -0.1226  0.7110 -0.3990
  521MOL0     C70210   7.871  10.680   3.522  0.2624 -0.3725 -0.2948
  521MOL0     C70211   7.763  10.606   3.600 -0.2843  0.1743  0.5518
  521MOL0     C70212   7.661  10.702   3.658 -0.4894 -0.1140  0.3323
  521MOL0     C70213   7.568  10.624   3.750  0.0567 -0.3712  0.3000
  521MOL0     C70214   7.465  10.715   3.818  0.3717  0.9877  0.6424
  521MOL0     C70215   7.408  10.657   3.950  0.0052  0.4001 -0.0662
  521MOL0     C70216   7.343  10.767   4.040 -0.0810 -0.4462  0.0860
  521MOL0     N70217   7.202  10.780   4.004  0.2531 -0.6551 -1.4450
  521MOL0     C70218   7.147  10.858   3.906 -0.7168  0.5225  0.2015
  521MOL0     C70219   7.010  10.847   3.909  0.5274 -0.5578 -0.1231
  521MOL0     C70220   6.899  10.925   3.838  0.1888  0.2417 -0.1697
  521MOL0     C70221   6.761  10.854   3.838  0.1800  0.1813 -1.5123
  521MOL0     C70222   6.753  10.727   3.749  0.1355 -0.3070  0.0610
  521MOL0     C70223   6.609  10.673   3.744 -0.7351 -0.3605  0.4602
  521MOL0     O70224   6.518  10.782   3.710 -0.0751 -0.1820  0.2744
  521MOL0     C70225   6.388  10.750   3.693 -0.4202  0.0219  0.4501
  521MOL0     C70226   6.346  10.693   3.580 -0.8003 -0.4972  0.3501
  521MOL0     C70227   6.209  10.665   3.557  0.0483 -0.2067  0.4021
  521MOL0     C70228   6.169  10.597   3.427  0.2394 -1.0151  1.1289
  521MOL0     C70229   6.109  10.709   3.647  0.7636  0.2074 -0.5388
  521MOL0     C70230   5.961  10.687   3.642 -0.8707  0.7344  0.8557
  521MOL0     O70231   5.893  10.741   3.746 -0.0251 -0.2853  0.7426
  521MOL0     C70232   5.756  10.724   3.744 -0.0906  1.0808  0.4342
  521MOL0     C70233   5.675  10.833   3.736  0.1753  0.1742  1.1984
  521MOL0     C70234   5.537  10.823   3.719  1.1095  1.0481 -0.0221
  521MOL0     C70235   5.472  10.696   3.704 -0.7231  0.3472 -0.7484
  521MOL0     O70236   5.344  10.685   3.710  0.4904 -0.0505  0.0116
  521MOL0     C70237   5.260  10.796   3.678 -0.1384 -0.2768 -0.0526
  521MOL0     C70238   5.110  10.767   3.687  0.7297 -0.5139 -0.1154
  521MOL0     C70239   5.080  10.702   3.824 -0.5159 -0.0613 -0.0465
  521MOL0     C70240   4.927  10.719   3.839  0.2967  0.7886  0.5285
  521MOL0     C70241   4.872  10.647   3.966  0.0588  0.5064 -0.0918
  521MOL0     C70242   4.724  10.686   3.993  0.9811 -0.0696 -0.1109
  521MOL0     C70243   4.691  10.629   4.136 -0.0430 -0.0588  0.0302
  521MOL0     C70244   4.707  10.475   4.154 -0.5772  0.2089 -0.3650
  521MOL0    Cl70245   4.616  10.405   4.019 -0.1668  0.4006  0.0453
  521MOL0     C70246   5.551  10.579   3.720 -0.1818 -0.8695 -0.2193
  521MOL0     C70247   5.688  10.598   3.739 -0.3974 -0.3503  0.0706
  521MOL0     O70248   5.916  10.612   3.552  0.1395 -0.2770  0.6735
  521MOL0     C70249   6.160  10.776   3.769 -0.6652  0.7734  0.3611
  521MOL0     C70250   6.299  10.793   3.792 -0.1148  0.6423  0.2085
  521MOL0     N70251   6.985  10.763   4.017  0.4698 -0.7149 -0.2716
  521MOL0     N70252   7.094  10.739   4.075  0.2717 -0.2447  0.3459
  521MOL0     C70253   8.164  10.860   3.300  0.4846  0.3428  0.4434
  521MOL0     C70254   8.295  10.901   3.336  0.1438  0.3032 -0.4096
  521MOL0     C70255   8.727  10.881   3.412  0.3429 -0.3996 -0.0409
  521MOL0     C70256   8.852  10.830   3.346  0.5582  0.1915  0.3430
  521MOL0     C70257   8.969  10.889   3.387  0.2560  0.4067  0.3246
  521MOL0     C70258   8.978  10.994   3.478 -0.1240  0.2118  0.0342
  521MOL0     O70259   9.093  11.048   3.522 -0.7413 -0.4205  0.2176
  521MOL0     C70260   9.211  10.964   3.549  0.4626 -0.0580  0.2239
  521MOL0     C70261   9.193  10.848   3.643  0.2542 -0.0136 -0.2855
  521MOL0     C70262   9.117  10.878   3.767  0.5445 -0.6312  0.0351
  521MOL0     C70263   9.205  10.938   3.874  1.0124  0.1378  0.5756
  521MOL0     C70264   9.116  10.993   3.972  0.1311 -0.4627 -0.5288
  521MOL0     C70265   9.031  11.034   4.053 -0.6402  0.9931 -0.2461
  521MOL0     C70266   8.864  11.050   3.522  0.9030  0.3618 -0.6729
  521MOL0     C70267   8.734  10.992   3.502 -0.5632  1.3744 -0.4424
  521MOL0     H70268   8.381  10.646   3.537 -0.8499  2.3750  2.3422
  521MOL0     H70269   8.148  10.577   3.482  0.5221 -0.4595 -2.0562
  521MOL0     H70270   7.810  10.598   3.336 -0.8325  3.3197  0.0798
  521MOL0     H70271   7.947  10.512   3.407 -0.6613  0.8765  2.6842
  521MOL0     H70272   7.966  10.700   3.574  1.0877  0.2156 -1.9503
  521MOL0     H70273   7.841  10.782   3.499  1.2798  0.3515  1.3855
  521MOL0     H70274   7.706  10.543   3.532  0.3169  1.2705 -1.0100
  521MOL0     H70275   7.814  10.550   3.680  0.1632 -1.2190 -0.6465
  521MOL0     H70276   7.710  10.781   3.715  0.9661 -0.1777 -0.8022
  521MOL0     H70277   7.605  10.750   3.577  2.1106 -0.7592 -1.9864
  521MOL0     H70278   7.522  10.544   3.690  1.8931  1.4057 -3.8973
  521MOL0     H70279   7.632  10.583   3.828  1.6100  0.4068 -0.5252
  521MOL0     H70280   7.513  10.810   3.841  1.5735  0.3090  1.0542
  521MOL0     H70281   7.383  10.736   3.749  1.2520  2.3464 -0.0287
  521MOL0     H70282   7.327  10.589   3.924 -1.9985  2.3959  0.5728
  521MOL0     H70283   7.488  10.618   4.013  2.7701  3.4769 -1.3762
  521MOL0     H70284   7.390  10.863   4.017  0.5732 -1.1938 -1.9007
  521MOL0     H70285   7.355  10.740   4.145 -2.3776  1.3382  0.8753
  521MOL0     H70286   7.203  10.912   3.830  2.1881  0.5315  2.1832
  521MOL0     H70287   6.882  11.025   3.879  2.1382  0.4850  0.1350
  521MOL0     H70288   6.930  10.934   3.733 -1.3278  0.3437 -0.6278
  521MOL0     H70289   6.695  10.924   3.787  1.8876  1.5610 -1.9280
  521MOL0     H70290   6.723  10.829   3.938  2.4409  3.6747  0.4334
  521MOL0     H70291   6.821  10.650   3.788  1.6151  1.0574  0.2949
  521MOL0     H70292   6.779  10.759   3.648  1.9688  0.4941  0.7402
  521MOL0     H70293   6.583  10.644   3.846 -0.1393 -2.5117  0.0448
  521MOL0     H70294   6.600  10.586   3.679 -0.9144 -0.5966  0.7967
  521MOL0     H70295   6.415  10.672   3.498 -1.9007 -2.0740 -0.2361
  521MOL0     H70296   6.130  10.495   3.434  2.9993 -2.2134  0.5299
  521MOL0     H70297   6.103  10.656   3.363  2.3240 -0.5400 -0.7009
  521MOL0     H70298   6.254  10.582   3.360 -1.8420 -4.1826 -1.1294
  521MOL0     H70299   5.718  10.932   3.722  1.3068 -0.4609 -0.1265
  521MOL0     H70300   5.483  10.918   3.716  2.5141  1.8690 -2.9544
  521MOL0     H70301   5.275  10.877   3.750  0.1311  1.1902 -1.6800
  521MOL0     H70302   5.281  10.835   3.578 -1.9291  3.2035  0.7492
  521MOL0     H70303   5.052  10.859   3.684  2.4127  0.5897  0.0177
  521MOL0     H70304   5.082  10.702   3.603 -1.0968 -1.0566  0.8569
  521MOL0     H70305   5.130  10.764   3.899  3.5442  0.6639 -3.0272
  521MOL0     H70306   5.113  10.598   3.834  1.9004  0.7957  1.9314
  521MOL0     H70307   4.898  10.825   3.839 -2.0766  0.1776  0.6144
  521MOL0     H70308   4.869  10.676   3.757 -1.5945  0.1146  2.1606
  521MOL0     H70309   4.933  10.681   4.050  3.5196  2.8423 -3.1960
  521MOL0     H70310   4.879  10.538   3.964  2.0730  0.5911 -0.0591
  521MOL0     H70311   4.725  10.795   3.982  1.8928 -0.2569 -2.3839
  521MOL0     H70312   4.658  10.651   3.914 -0.5155  1.3204  0.4624
  521MOL0     H70313   4.587  10.639   4.170  0.8327  0.4989  2.8303
  521MOL0     H70314   4.766  10.668   4.205  3.5285 -2.0557 -2.4161
  521MOL0     H70315   4.668  10.428   4.245  0.4791 -1.6125 -0.7937
  521MOL0     H70316   4.812  10.448   4.138 -0.8365  0.4086 -2.9598
  521MOL0     H70317   5.488  10.492   3.740  0.0722 -0.2653  4.3304
  521MOL0     H70318   5.748  10.510   3.758 -2.0600 -1.6150 -0.3684
  521MOL0     H70319   6.091  10.809   3.846 -2.2037 -2.2899  0.4643
  521MOL0     H70320   6.341  10.841   3.880 -0.1253  2.0830 -0.5320
  521MOL0     H70321   8.107  10.929   3.239  3.6478  2.8802  0.0107
  521MOL0     H70322   8.338  10.992   3.295  0.7600  0.6972  1.0508
  521MOL0     H70323   8.839  10.748   3.276  0.7225  0.3633  0.1133
  521MOL0     H70324   9.064  10.857   3.343  0.6234  0.6208  0.9543
  521MOL0     H70325   9.240  10.925   3.451  0.5331 -0.0618  0.2461
  521MOL0     H70326   9.286  11.036   3.584 -0.1959  0.6726  0.1459
  521MOL0     H70327   9.292  10.810   3.670  1.0591  1.4031 -1.0891
  521MOL0     H70328   9.135  10.774   3.588 -1.2968  0.2176  0.9527
  521MOL0     H70329   9.058  10.794   3.804 -3.2924  2.6668  2.2040
  521MOL0     H70330   9.046  10.956   3.738 -0.2250 -1.7989 -1.3541
  521MOL0     H70331   9.247  11.028   3.828  0.0216  0.5934  0.5363
  521MOL0     H70332   9.285  10.873   3.911  0.8053 -1.5273 -1.6623
  521MOL0     H70333   8.951  11.073   4.112 -0.5261  0.7811  0.0493
  521MOL0     H70334   8.873  11.138   3.585  0.5120  1.5935 -2.2641
  521MOL0     H70335   8.646  11.022   3.557 -1.0047  0.2414 -0.4917
  522MOL0     O70336   7.897   5.853   9.455 -0.4219  0.5458  0.9059
  522MOL0     C70337   7.943   5.927   9.366 -0.0892  0.8229 -0.6079
  522MOL0     O70338   7.908   5.933   9.235 -0.9186 -0.8575 -0.3463
  522MOL0     C70339   7.804   5.862   9.185  0.2905  0.1852  0.1868
  522MOL0     C70340   7.732   5.921   9.089  0.4271 -0.2425 -0.8738
  522MOL0     C70341   7.624   5.860   9.024 -0.1828  0.2108 -0.5583
  522MOL0     C70342   7.586   5.732   9.067  0.1919 -0.2703  0.1342
  522MOL0     O70343   7.467   5.687   9.022 -0.5102 -0.6126  0.3050
  522MOL0     C70344   7.450   5.548   8.987  0.7404  0.1159  0.3807
  522MOL0     C70345   7.358   5.477   9.084 -0.4940 -0.0379  0.0313
  522MOL0     C70346   7.320   5.335   9.023 -0.0940  0.6521 -0.9351
  522MOL0     C70347   7.277   5.231   9.131 -0.7079 -0.5851 -0.6041
  522MOL0     C70348   7.269   5.091   9.068  0.1140  0.8003 -0.0994
  522MOL0     C70349   7.133   5.054   9.004  0.4991 -0.6149  0.0463
  522MOL0     C70350   7.142   4.916   8.943  1.2755 -0.4730  0.2590
  522MOL0     C70351   7.015   4.841   8.897 -0.3375 -1.0251 -0.3328
  522MOL0     N70352   6.934   4.797   9.014  0.0828  0.1374  0.8117
  522MOL0     C70353   6.932   4.677   9.071  0.3006  0.4458 -0.6476
  522MOL0     C70354   6.839   4.686   9.171 -0.4119 -0.0201 -0.7397
  522MOL0     C70355   6.811   4.576   9.278 -0.2660  0.0825  0.5784
  522MOL0     C70356   6.660   4.577   9.315 -0.8244  0.0531  0.4657
  522MOL0     C70357   6.589   4.518   9.191 -0.8758  0.0754 -0.1632
  522MOL0     C70358   6.453   4.462   9.218  0.0260 -0.1800  0.5086
  522MOL0     O70359   6.390   4.470   9.098 -0.7283  0.0773 -0.5106
  522MOL0     C70360   6.257   4.439   9.086  0.2452 -0.7449 -0.0346
  522MOL0     C70361   6.182   4.386   9.193  0.6164  0.4612 -0.4217
  522MOL0     C70362   6.057   4.334   9.170 -0.4320  0.1105  0.2891
  522MOL0     C70363   5.989   4.266   9.292 -0.2280  0.2152  0.2653
  522MOL0     C70364   5.999   4.334   9.043  0.5599  0.7639  1.0741
  522MOL0     C70365   5.874   4.270   9.010 -0.2762  0.2116 -0.4636
  522MOL0     O70366   5.785   4.350   8.961 -0.1747  0.4329 -0.4082
  522MOL0     C70367   5.657   4.302   8.931  1.1312  0.3133 -0.4397
  522MOL0     C70368   5.598   4.337   8.814  0.2614 -0.5917  0.9884
  522MOL0     C70369   5.460   4.307   8.794  0.3282  0.1863 -0.6750
  522MOL0     C70370   5.387   4.262   8.903  0.0343  0.9887  0.0416
  522MOL0     O70371   5.265   4.204   8.875  0.4347 -0.5979 -0.0795
  522MOL0     C70372   5.182   4.140   8.969  0.3628 -0.2745 -0.5776
  522MOL0     C70373   5.056   4.077   8.894 -0.7120  0.5809  0.1642
  522MOL0     C70374   4.951   4.181   8.864 -0.3386 -1.0667 -0.7840
  522MOL0     C70375   4.880   4.140   8.736  0.4062  0.1403  0.2311
  522MOL0     C70376   4.769   4.235   8.691  0.5032 -0.8468  0.2042
  522MOL0     C70377   4.710   4.188   8.550  0.0131 -0.0146  0.2493
  522MOL0     C70378   4.600   4.290   8.509  0.4120  0.1909  1.0166
  522MOL0     C70379   4.502   4.232   8.403 -0.5880 -0.1941 -0.4432
  522MOL0    Cl70380   4.573   4.233   8.229 -0.6316 -0.0267 -0.4475
  522MOL0     C70381   5.450   4.238   9.024 -0.4733 -0.6336  1.3197
  522MOL0     C70382   5.582   4.267   9.041 -0.3884 -0.7106  0.2414
  522MOL0     O70383   5.868   4.148   9.020  0.3851  0.5318  0.4605
  522MOL0     C70384   6.067   4.401   8.939  0.1554 -0.9911  0.3579
  522MOL0     C70385   6.194   4.456   8.963 -0.7399  1.2724  0.2984
  522MOL0     N70386   6.780   4.811   9.177 -0.3887  0.2994 -0.0476
  522MOL0     N70387   6.843   4.878   9.082  0.2429  0.5899 -0.4101
  522MOL0     C70388   7.665   5.659   9.167  1.0032  0.4180 -0.9068
  522MOL0     C70389   7.779   5.726   9.220 -0.7526  0.0190 -0.5415
  522MOL0     C70390   8.048   6.022   9.406 -0.6471 -0.0128  0.6681
  522MOL0     C70391   8.080   6.051   9.538  0.7993 -0.6618  0.2743
  522MOL0     C70392   8.176   6.143   9.575  0.6445 -0.8676 -0.9219
  522MOL0     C70393   8.264   6.201   9.483  0.5115 -0.1243  0.8113
  522MOL0     O70394   8.372   6.271   9.521 -0.3499 -0.2234 -0.3971
  522MOL0     C70395   8.441   6.350   9.421 -0.3144 -0.2206  1.1717
  522MOL0     C70396   8.536   6.445   9.504 -0.8916 -1.3773  0.6779
  522MOL0     C70397   8.627   6.534   9.408  0.5017  0.2440 -0.8008
  522MOL0     C70398   8.735   6.610   9.481  0.6258  0.5082  0.3017
  522MOL0     C70399   8.819   6.686   9.387 -0.2158  0.2875 -0.0427
  522MOL0     C70400   8.878   6.738   9.295  0.4036 -0.3747 -1.2540
  522MOL0     C70401   8.238   6.172   9.342  0.2295 -0.5641 -0.9278
  522MOL0     C70402   8.128   6.094   9.311 -0.0433 -0.0031  0.7943
  522MOL0     H70403   7.761   6.021   9.061 -1.7642  0.2285 -1.6479
  522MOL0     H70404   7.557   5.916   8.959 -1.0621  0.4278  0.4991
  522MOL0     H70405   7.384   5.544   8.900  1.9200 -1.2831 -0.4856
  522MOL0     H70406   7.546   5.504   8.961  2.9319  4.7293 -0.2537
  522MOL0     H70407   7.405   5.464   9.182 -1.0594  0.4302  0.3731
  522MOL0     H70408   7.273   5.545   9.097 -0.2927 -0.2270  3.3490
  522MOL0     H70409   7.251   5.327   8.939 -1.7710 -2.6309  0.5527
  522MOL0     H70410   7.408   5.289   8.976  0.8930 -2.0352  2.9960
  522MOL0     H70411   7.343   5.244   9.216  2.4784 -0.3750 -2.9411
  522MOL0     H70412   7.173   5.252   9.160 -0.2852  0.5175  0.1683
  522MOL0     H70413   7.355   5.076   9.002  1.5348  3.1048  1.1022
  522MOL0     H70414   7.285   5.032   9.159  1.4448  1.8246  0.3686
  522MOL0     H70415   7.055   5.058   9.081  2.0320 -2.2187  1.7790
  522MOL0     H70416   7.112   5.125   8.924  0.0706  1.2624  1.7392
  522MOL0     H70417   7.206   4.935   8.856  1.5559 -1.0993  0.3228
  522MOL0     H70418   7.193   4.850   9.014 -2.5755 -0.8478  2.9707
  522MOL0     H70419   7.038   4.749   8.844 -1.4812 -2.4371  1.4803
  522MOL0     H70420   6.960   4.913   8.836 -1.4026  2.3900  4.1100
  522MOL0     H70421   6.989   4.587   9.050  0.3342  0.4637 -0.6314
  522MOL0     H70422   6.844   4.478   9.241 -3.1130 -0.1873 -1.6786
  522MOL0     H70423   6.869   4.607   9.365 -0.8097 -0.5455  1.1728
  522MOL0     H70424   6.611   4.673   9.331 -1.9148 -0.2110 -1.0607
  522MOL0     H70425   6.635   4.511   9.399  2.2562 -2.4433 -0.3651
  522MOL0     H70426   6.647   4.434   9.153  0.5579  1.1592 -0.4824
  522MOL0     H70427   6.596   4.592   9.111  1.8421 -0.1775 -0.2652
  522MOL0     H70428   6.395   4.524   9.286  0.5934 -0.7960  1.5790
  522MOL0     H70429   6.450   4.358   9.252 -0.9615 -0.8584 -1.4576
  522MOL0     H70430   6.232   4.371   9.288 -1.4295  3.2599  1.2480
  522MOL0     H70431   6.046   4.188   9.343 -0.6300 -1.2655 -1.4758
  522MOL0     H70432   5.964   4.344   9.365 -1.7954 -0.9917  1.0983
  522MOL0     H70433   5.891   4.226   9.263  0.4898 -0.0132 -2.0045
  522MOL0     H70434   5.651   4.402   8.745 -4.0325  3.0221  0.6535
  522MOL0     H70435   5.406   4.351   8.711  0.3370  1.6104  0.0438
  522MOL0     H70436   5.227   4.053   9.017 -1.8933 -1.1811  0.0131
  522MOL0     H70437   5.161   4.200   9.059  1.1960 -0.8776  0.0351
  522MOL0     H70438   5.099   4.043   8.800  2.3020  1.1965  1.2053
  522MOL0     H70439   5.022   3.994   8.957 -1.1525  2.3090  2.3354
  522MOL0     H70440   5.000   4.279   8.859  1.2831 -1.6643  1.6870
  522MOL0     H70441   4.892   4.184   8.956  1.4380  0.9895  0.3576
  522MOL0     H70442   4.951   4.150   8.653 -0.0805 -0.1552 -0.2305
  522MOL0     H70443   4.850   4.035   8.742  1.3265 -0.4901 -3.5529
  522MOL0     H70444   4.815   4.335   8.685 -0.2219 -0.4173  1.3357
  522MOL0     H70445   4.691   4.236   8.768 -1.3997 -0.3331 -1.6317
  522MOL0     H70446   4.786   4.187   8.472  0.6615 -2.2829  0.8307
  522MOL0     H70447   4.677   4.084   8.548 -0.4887  0.1525 -0.6263
  522MOL0     H70448   4.646   4.385   8.481 -0.5590  0.8979  1.7563
  522MOL0     H70449   4.538   4.311   8.597 -0.0713 -0.1373  0.7597
  522MOL0     H70450   4.411   4.292   8.402 -1.7414 -1.6185  3.5027
  522MOL0     H70451   4.486   4.126   8.421  0.8585 -0.2132  0.9822
  522MOL0     H70452   5.411   4.196   9.115  0.5190 -1.3045  1.4534
  522MOL0     H70453   5.628   4.222   9.128 -1.8061 -2.6927  0.0297
  522MOL0     H70454   6.026   4.397   8.838  0.3211  1.0490  0.1652
  522MOL0     H70455   6.257   4.508   8.891  2.6045  0.2287  2.2381
  522MOL0     H70456   7.645   5.557   9.197  1.0153  0.7843  0.3797
  522MOL0     H70457   7.841   5.665   9.285 -0.1345 -1.3854 -2.3595
  522MOL0     H70458   8.027   5.990   9.610 -0.4982 -0.3183 -0.3472
  522MOL0     H70459   8.196   6.164   9.680 -2.5909  3.5127 -0.9079
  522MOL0     H70460   8.512   6.287   9.366  0.7926  1.5200  0.5367
  522MOL0     H70461   8.364   6.405   9.367 -1.1894 -1.1655  1.4130
  522MOL0     H70462   8.603   6.379   9.560 -0.0126  0.9848  2.6032
  522MOL0     H70463   8.486   6.506   9.580 -1.9564 -3.6529  1.9127
  522MOL0     H70464   8.559   6.602   9.356 -1.6428 -1.0036  0.2129
  522MOL0     H70465   8.673   6.475   9.328 -0.7394 -1.9104 -0.0266
  522MOL0     H70466   8.798   6.535   9.529  0.3100  0.1359  0.1312
  522MOL0     H70467   8.708   6.686   9.554 -0.1215  0.9279 -0.3896
  522MOL0     H70468   8.902   6.800   9.212  0.3479 -5.2608 -5.4414
  522MOL0     H70469   8.296   6.207   9.257  0.3368 -0.0194 -0.6348
  522MOL0     H70470   8.105   6.071   9.208 -2.0756 -0.5648  1.3334
  523MOL0     O70471   5.282  11.320   6.648  0.0862  0.6199  0.5879
  523MOL0     C70472   5.374  11.284   6.718 -0.5001  0.1630 -0.0798
  523MOL0     O70473   5.352  11.223   6.839 -1.2075  0.3085 -0.1135
  523MOL0     C70474   5.220  11.198   6.878  0.2273 -0.6289  0.0386
  523MOL0     C70475   5.193  11.202   7.018  0.1507 -0.4213  0.2085
  523MOL0     C70476   5.068  11.185   7.074  0.3711  0.7469 -1.2169
  523MOL0     C70477   4.958  11.149   6.998 -0.4035 -0.2190  0.2291
  523MOL0     O70478   4.835  11.134   7.059  0.4061  0.2103  0.3183
  523MOL0     C70479   4.723  11.105   6.975 -0.6933 -0.1552 -0.2445
  523MOL0     C70480   4.610  11.070   7.078  0.3209  0.1797 -0.1346
  523MOL0     C70481   4.481  11.033   7.006  0.0947  0.7819  0.7615
  523MOL0     C70482   4.379  10.981   7.110 -0.2108 -0.1707 -1.3718
  523MOL0     C70483   4.253  10.944   7.047  0.4393 -0.0512  0.5603
  523MOL0     C70484   4.158  10.882   7.154 -0.1234  0.0615 -0.4877
  523MOL0     C70485   4.048  10.795   7.091 -0.3243 -0.8239 -0.3622
  523MOL0     C70486   3.948  10.862   6.990  0.6637 -0.8966 -0.0902
  523MOL0     N70487   3.835  10.777   6.949 -0.6530 -0.1264  0.0247
  523MOL0     C70488   3.713  10.767   7.018  0.8814  0.9670  0.1861
  523MOL0     C70489   3.648  10.664   6.970 -0.6989  0.0889  0.4288
  523MOL0     C70490   3.505  10.617   6.999  0.8111 -0.7053 -0.0718
  523MOL0     C70491   3.396  10.713   6.943 -0.0906  0.6751 -0.6017
  523MOL0     C70492   3.408  10.713   6.790 -0.5443 -0.6590  0.9942
  523MOL0     C70493   3.282  10.777   6.731  0.5540  0.5337  0.0082
  523MOL0     O70494   3.277  10.788   6.592  0.1546 -0.3760 -0.5433
  523MOL0     C70495   3.163  10.779   6.521 -1.0079 -0.6336 -0.0683
  523MOL0     C70496   3.045  10.841   6.570 -0.0591 -0.0625 -0.3189
  523MOL0     C70497   2.937  10.864   6.492  0.0265  1.0602  0.7712
  523MOL0     C70498   2.819  10.952   6.539 -0.1032 -0.2134 -0.8735
  523MOL0     C70499   2.932  10.802   6.359 -0.0020 -0.1537 -0.1258
  523MOL0     C70500   2.816  10.814   6.278 -0.6557  0.7876  1.5520
  523MOL0     O70501   2.790  10.705   6.197  0.3272  0.1070  0.0776
  523MOL0     C70502   2.686  10.711   6.105 -0.3772  0.2566 -0.5396
  523MOL0     C70503   2.712  10.680   5.974  1.2129 -0.7191  0.8401
  523MOL0     C70504   2.604  10.693   5.878 -0.8157  0.6449  0.3050
  523MOL0     C70505   2.483  10.746   5.904  0.5636 -0.5567 -0.8145
  523MOL0     O70506   2.385  10.777   5.811  0.1086  0.5583 -0.0944
  523MOL0     C70507   2.414  10.861   5.694  0.8140  0.6173  0.7000
  523MOL0     C70508   2.285  10.897   5.622 -0.4866 -1.4811  0.1324
  523MOL0     C70509   2.184  10.978   5.712  0.0189 -0.1177  0.4086
  523MOL0     C70510   2.059  10.996   5.628 -0.7775  0.0562 -0.2595
  523MOL0     C70511   1.942  11.040   5.717  0.4119  0.3887 -0.1233
  523MOL0     C70512   1.814  11.078   5.651  0.0234  0.6384 -0.8803
  523MOL0     C70513   1.757  10.961   5.577 -0.1520  0.3022  0.8048
  523MOL0     C70514   1.617  10.993   5.534  0.9777 -0.4917  0.3102
  523MOL0    Cl70515   1.525  10.845   5.476  0.0731  0.4738 -0.3562
  523MOL0     C70516   2.463  10.765   6.043  0.9338 -0.4153 -0.4554
  523MOL0     C70517   2.557  10.738   6.147 -0.2470 -0.9757  0.6212
  523MOL0     O70518   2.765  10.924   6.261 -0.4392  0.6776 -0.0277
  523MOL0     C70519   3.044  10.731   6.317  0.2286 -0.1181 -0.5237
  523MOL0     C70520   3.162  10.715   6.397  0.1620  0.4227 -0.8147
  523MOL0     N70521   3.731  10.600   6.880  0.0636  0.2515  0.1036
  523MOL0     N70522   3.845  10.663   6.869 -0.1215  0.3154 -0.4727
  523MOL0     C70523   4.984  11.129   6.863 -0.5374 -0.6588  0.2909
  523MOL0     C70524   5.108  11.161   6.797 -0.2952 -0.1089  0.5888
  523MOL0     C70525   5.514  11.301   6.670  0.2519 -0.0286  0.3302
  523MOL0     C70526   5.541  11.394   6.567  0.1365  0.7840 -0.0723
  523MOL0     C70527   5.671  11.413   6.528  0.3719  0.4199 -0.1286
  523MOL0     C70528   5.778  11.341   6.579  0.1335 -0.2916 -0.0337
  523MOL0     O70529   5.907  11.367   6.545 -0.2271 -0.6909  0.0844
  523MOL0     C70530   5.954  11.503   6.551  0.2501  0.5746  0.0293
  523MOL0     C70531   6.090  11.529   6.612 -0.0906 -0.1454  0.6202
  523MOL0     C70532   6.120  11.451   6.737 -0.2625  0.6355  0.8535
  523MOL0     C70533   6.053  11.520   6.862 -0.5639  0.0494 -0.2870
  523MOL0     C70534   5.916  11.496   6.893 -0.1174 -0.1140  0.5958
  523MOL0     C70535   5.799  11.490   6.922 -0.1884 -0.5078  0.1801
  523MOL0     C70536   5.755  11.252   6.678  0.1916  0.3946  0.2906
  523MOL0     C70537   5.629  11.240   6.736  1.1634 -0.6627  0.0943
  523MOL0     H70538   5.272  11.238   7.082 -1.1723  0.9219  1.1633
  523MOL0     H70539   5.063  11.189   7.182  0.5708  2.0549 -1.2469
  523MOL0     H70540   4.693  11.189   6.911  0.0615 -1.4723 -2.3981
  523MOL0     H70541   4.725  11.017   6.911 -1.2833  0.3908 -1.0359
  523MOL0     H70542   4.640  10.990   7.146 -3.2528  0.4689  2.0601
  523MOL0     H70543   4.593  11.161   7.136  1.7333 -0.5037  1.4456
  523MOL0     H70544   4.436  11.109   6.942 -0.8470 -1.1739 -1.0585
  523MOL0     H70545   4.494  10.952   6.932  1.2199 -0.4237  2.2096
  523MOL0     H70546   4.420  10.891   7.157 -4.4718 -1.3924  0.4966
  523MOL0     H70547   4.356  11.061   7.181 -0.6586 -0.8741 -0.7109
  523MOL0     H70548   4.208  11.037   7.011  0.6390 -0.5026 -0.8799
  523MOL0     H70549   4.284  10.872   6.972  0.5998  0.1194  0.4626
  523MOL0     H70550   4.222  10.822   7.219 -1.3589 -1.4138 -0.5884
  523MOL0     H70551   4.118  10.971   7.205  1.2672  0.3873  0.0744
  523MOL0     H70552   4.105  10.715   7.042  1.6771  0.8588 -0.9442
  523MOL0     H70553   3.998  10.752   7.178  0.0151 -2.4491 -0.9351
  523MOL0     H70554   4.001  10.894   6.900 -0.7572 -2.7024 -1.6466
  523MOL0     H70555   3.894  10.945   7.038  0.1714  0.2363 -2.4802
  523MOL0     H70556   3.683  10.832   7.099  0.4079 -0.5015  1.2388
  523MOL0     H70557   3.495  10.516   6.960  2.7715  0.0072 -2.7075
  523MOL0     H70558   3.500  10.618   7.109 -1.8873 -1.2645 -0.1195
  523MOL0     H70559   3.405  10.812   6.990 -3.9184  1.5712 -1.3772
  523MOL0     H70560   3.301  10.681   6.987  0.4765  0.0184  0.1613
  523MOL0     H70561   3.417  10.611   6.750 -1.6120 -0.4729  0.2561
  523MOL0     H70562   3.499  10.765   6.756 -0.8850 -1.6606 -1.6971
  523MOL0     H70563   3.270  10.881   6.761 -2.4878  0.0061  0.9464
  523MOL0     H70564   3.199  10.717   6.768  2.2977 -1.4945  0.9129
  523MOL0     H70565   3.049  10.895   6.664 -0.4419 -3.6663  1.9739
  523MOL0     H70566   2.817  11.051   6.494 -2.5888  0.1974  0.0069
  523MOL0     H70567   2.720  10.911   6.520  0.2730 -1.0692 -1.0726
  523MOL0     H70568   2.832  10.965   6.647 -2.3437  0.5791 -0.6439
  523MOL0     H70569   2.814  10.660   5.943  1.7611  1.1999  1.2578
  523MOL0     H70570   2.629  10.654   5.779  0.3999 -1.4295  1.3728
  523MOL0     H70571   2.450  10.956   5.734 -1.7527  1.8087  0.3472
  523MOL0     H70572   2.484  10.804   5.633 -2.2663 -4.2057  1.1054
  523MOL0     H70573   2.316  10.954   5.533 -0.2444 -2.4051 -0.3935
  523MOL0     H70574   2.242  10.802   5.587 -1.3948 -0.6348 -1.1367
  523MOL0     H70575   2.225  11.076   5.739  0.5254 -0.2957  0.2920
  523MOL0     H70576   2.168  10.922   5.805 -1.6291 -3.0468 -1.4858
  523MOL0     H70577   2.079  11.080   5.562 -1.0190  1.6682  1.6254
  523MOL0     H70578   2.027  10.906   5.575  0.3835 -2.2521  2.6623
  523MOL0     H70579   1.969  11.128   5.775 -0.0041  0.9641 -0.7786
  523MOL0     H70580   1.932  10.953   5.782 -0.9536 -1.3360 -2.4654
  523MOL0     H70581   1.748  11.097   5.736 -0.9277 -2.0617 -0.9066
  523MOL0     H70582   1.825  11.161   5.580  0.8937 -0.0466 -1.5812
  523MOL0     H70583   1.753  10.873   5.641 -0.4459 -0.9067 -0.8263
  523MOL0     H70584   1.819  10.937   5.490 -1.2310  5.5166 -1.8145
  523MOL0     H70585   1.618  11.064   5.450  1.8957 -0.6571  0.1755
  523MOL0     H70586   1.553  11.035   5.612  0.2454  0.7954 -0.9279
  523MOL0     H70587   2.369  10.813   6.068  1.1831 -0.7447  1.2501
  523MOL0     H70588   2.544  10.750   6.254  4.7835 -1.8192  1.5842
  523MOL0     H70589   3.053  10.690   6.217 -0.4404  1.4878 -1.2846
  523MOL0     H70590   3.248  10.666   6.353  2.4740  1.1970  2.4476
  523MOL0     H70591   4.896  11.100   6.806 -1.8003 -0.7761  2.2235
  523MOL0     H70592   5.115  11.148   6.690  1.2584 -0.8275  0.7461
  523MOL0     H70593   5.453  11.446   6.531 -0.3405  2.9139  3.6764
  523MOL0     H70594   5.688  11.486   6.449  2.4717  0.6333  0.4772
  523MOL0     H70595   5.955  11.535   6.447  0.5761 -0.4628 -0.2916
  523MOL0     H70596   5.878  11.559   6.608  0.8999  0.1929  1.3175
  523MOL0     H70597   6.092  11.636   6.636  3.8347  0.0140  0.3109
  523MOL0     H70598   6.166  11.500   6.540  0.2518 -2.4478  1.7964
  523MOL0     H70599   6.227  11.451   6.757  0.0312  1.0974 -0.5934
  523MOL0     H70600   6.086  11.347   6.726 -1.2859  1.1099 -0.8247
  523MOL0     H70601   6.072  11.627   6.852  0.1914 -0.2333 -2.1905
  523MOL0     H70602   6.108  11.479   6.948 -2.0046  0.7232  0.9981
  523MOL0     H70603   5.694  11.471   6.930 -0.0346 -1.1987  0.6507
  523MOL0     H70604   5.830  11.183   6.717 -0.6570 -1.1624 -0.6929
  523MOL0     H70605   5.603  11.176   6.820  0.5706  1.6787  1.7822
  524MOL0     O70606   9.691   4.402   9.719  0.6275  0.1100  0.4862
  524MOL0     C70607   9.683   4.284   9.740 -0.5618 -0.0379 -0.6166
  524MOL0     O70608   9.610   4.192   9.672 -0.7098  0.5011  0.4418
  524MOL0     C70609   9.517   4.246   9.584 -0.5715  0.5179  0.0482
  524MOL0     C70610   9.541   4.213   9.450 -0.2356  0.1055 -0.5950
  524MOL0     C70611   9.472   4.267   9.346 -0.3314 -1.3736 -0.0138
  524MOL0     C70612   9.351   4.339   9.368 -0.0233 -0.4522 -0.3346
  524MOL0     O70613   9.286   4.406   9.262  0.7016  0.1810 -0.2113
  524MOL0     C70614   9.151   4.445   9.264  1.0717 -0.1162  0.1663
  524MOL0     C70615   9.056   4.328   9.281 -0.8721  0.6868  0.8790
  524MOL0     C70616   8.908   4.364   9.251 -0.1524  0.1955 -0.0103
  524MOL0     C70617   8.832   4.234   9.243  0.5287 -0.9270  0.3816
  524MOL0     C70618   8.674   4.249   9.219  0.1973  0.5873  0.4306
  524MOL0     C70619   8.601   4.116   9.180 -0.2356 -0.2706 -0.1021
  524MOL0     C70620   8.450   4.145   9.154  0.4124 -0.6485 -0.0666
  524MOL0     C70621   8.353   4.135   9.281  0.4534 -0.7837  0.3118
  524MOL0     N70622   8.222   4.094   9.224  1.1732 -0.7043  0.0787
  524MOL0     C70623   8.115   4.169   9.197  0.0192 -1.1355  0.7019
  524MOL0     C70624   8.033   4.093   9.113 -0.0836  1.2480 -0.1777
  524MOL0     C70625   7.912   4.137   9.044 -0.1252 -0.0359 -0.3030
  524MOL0     C70626   7.800   4.030   9.068 -0.2898 -0.1893  0.1787
  524MOL0     C70627   7.801   3.906   8.982  0.3608 -0.4825  0.1273
  524MOL0     C70628   7.678   3.823   9.029 -0.5859 -0.9399 -0.2118
  524MOL0     O70629   7.688   3.694   8.966  0.4733 -0.6283 -0.4570
  524MOL0     C70630   7.583   3.658   8.886  0.5732 -0.1030  0.5818
  524MOL0     C70631   7.586   3.680   8.749  0.5702  0.5241 -0.5946
  524MOL0     C70632   7.478   3.633   8.667  0.2360  0.2533 -0.0338
  524MOL0     C70633   7.489   3.655   8.513 -0.2429 -0.2149  0.5100
  524MOL0     C70634   7.364   3.564   8.729  0.5790  0.0663  0.5008
  524MOL0     C70635   7.243   3.506   8.659  0.6197 -0.1642 -0.0955
  524MOL0     O70636   7.141   3.446   8.733 -0.0525 -0.0309 -0.2604
  524MOL0     C70637   7.021   3.424   8.664  0.8651 -0.3751 -0.0169
  524MOL0     C70638   6.924   3.523   8.635  0.6145 -0.3550 -0.2196
  524MOL0     C70639   6.801   3.499   8.572 -0.5243  0.4107  0.4494
  524MOL0     C70640   6.784   3.370   8.528  0.3603  0.2618 -0.1229
  524MOL0     O70641   6.656   3.341   8.471 -0.3502  0.5123 -0.0200
  524MOL0     C70642   6.622   3.203   8.461  0.2711  0.1821  0.8117
  524MOL0     C70643   6.475   3.183   8.420  0.2984 -0.5182  0.7497
  524MOL0     C70644   6.415   3.055   8.397 -0.2764  0.4911 -0.1028
  524MOL0     C70645   6.269   3.078   8.353  0.2988 -0.6346 -1.4960
  524MOL0     C70646   6.257   3.072   8.206  0.1124 -0.1116 -0.0338
  524MOL0     C70647   6.122   3.123   8.157 -0.2520  0.5405  0.3409
  524MOL0     C70648   5.991   3.066   8.214 -0.2139  0.0341 -0.6625
  524MOL0     C70649   5.885   3.170   8.247  0.6585 -0.0462 -0.8692
  524MOL0    Cl70650   5.750   3.084   8.338 -0.4522  0.0541 -0.2251
  524MOL0     C70651   6.882   3.265   8.551 -0.4035 -0.2610 -0.4749
  524MOL0     C70652   6.999   3.295   8.632 -0.0223  0.1694  0.3737
  524MOL0     O70653   7.241   3.529   8.540  0.1923 -0.1145  0.0778
  524MOL0     C70654   7.370   3.543   8.866  0.4139  0.2356 -0.1928
  524MOL0     C70655   7.477   3.583   8.941 -0.5605  0.4357 -0.2430
  524MOL0     N70656   8.077   3.962   9.119 -0.7381  0.2200  0.8847
  524MOL0     N70657   8.185   3.967   9.188 -0.7348  0.2094  0.4402
  524MOL0     C70658   9.333   4.376   9.500 -0.2489 -0.4301  0.5855
  524MOL0     C70659   9.415   4.341   9.610 -0.5483  0.5593 -0.2283
  524MOL0     C70660   9.765   4.230   9.854 -0.6157 -0.7242  0.2352
  524MOL0     C70661   9.762   4.097   9.898 -0.1208  0.3133  0.1087
  524MOL0     C70662   9.839   4.044   9.994  0.0811  0.1019  0.1126
  524MOL0     C70663   9.926   4.125  10.063 -0.6191  0.7451 -0.5265
  524MOL0     O70664  10.022   4.065  10.143  0.0468 -0.2171  0.2248
  524MOL0     C70665  10.062   4.142  10.263  0.5308 -0.2430  0.4355
  524MOL0     C70666  10.083   4.052  10.380  1.1763 -0.1610 -0.5301
  524MOL0     C70667  10.181   3.943  10.360 -0.5985  0.6419  0.4939
  524MOL0     C70668  10.302   3.988  10.278 -0.0860  0.4298 -0.8060
  524MOL0     C70669  10.404   3.879  10.261 -0.0772 -0.0038 -0.2366
  524MOL0     C70670  10.470   3.780  10.255 -0.2453  0.1022 -0.5634
  524MOL0     C70671   9.926   4.260  10.027 -0.6676 -0.7363 -0.3947
  524MOL0     C70672   9.854   4.317   9.926  0.6526  0.8676 -0.2836
  524MOL0     H70673   9.624   4.148   9.426  1.2694  2.2878 -1.6333
  524MOL0     H70674   9.508   4.252   9.244  0.5265  0.5983 -0.0449
  524MOL0     H70675   9.123   4.518   9.341  2.9070 -1.3561  2.1402
  524MOL0     H70676   9.139   4.497   9.168  3.4072  1.3293  0.5587
  524MOL0     H70677   9.094   4.249   9.215  3.2032  0.5246  3.1107
  524MOL0     H70678   9.073   4.284   9.379  0.1858 -0.5220  0.1843
  524MOL0     H70679   8.866   4.423   9.333  0.6948  0.4397  0.2586
  524MOL0     H70680   8.883   4.419   9.159  1.1354  0.2466 -0.3446
  524MOL0     H70681   8.873   4.175   9.161 -0.6309 -0.7890 -0.3174
  524MOL0     H70682   8.851   4.172   9.331 -0.8073  0.2834  1.5630
  524MOL0     H70683   8.617   4.294   9.301 -1.6069 -0.9503  0.0996
  524MOL0     H70684   8.660   4.312   9.130  0.2349  1.0438  0.7394
  524MOL0     H70685   8.642   4.079   9.085  1.0486 -4.1815  1.7786
  524MOL0     H70686   8.622   4.043   9.258 -0.5785 -1.6408 -1.2581
  524MOL0     H70687   8.429   4.242   9.107 -2.8203  0.5225  3.2991
  524MOL0     H70688   8.419   4.063   9.089 -2.1149  1.4351 -1.7067
  524MOL0     H70689   8.342   4.234   9.325 -2.0964 -0.3426 -1.1320
  524MOL0     H70690   8.389   4.064   9.356  1.4335 -0.2350  0.3805
  524MOL0     H70691   8.110   4.273   9.228 -0.0650 -0.4337 -1.4840
  524MOL0     H70692   7.873   4.225   9.096 -3.1668 -1.8039  0.6254
  524MOL0     H70693   7.935   4.155   8.938 -0.3011 -0.7253 -0.4640
  524MOL0     H70694   7.707   4.086   9.056 -1.3850 -2.1165 -0.7961
  524MOL0     H70695   7.805   4.011   9.176  3.5491 -2.0269 -0.1616
  524MOL0     H70696   7.889   3.843   8.997  2.9627  3.0344  0.9917
  524MOL0     H70697   7.798   3.933   8.876 -0.2940 -3.5573 -0.7204
  524MOL0     H70698   7.592   3.879   8.992 -1.8690 -2.3113  0.5647
  524MOL0     H70699   7.684   3.815   9.138  1.5710  1.9856 -0.0122
  524MOL0     H70700   7.662   3.746   8.707 -0.8406  0.6134 -3.2471
  524MOL0     H70701   7.556   3.739   8.492 -1.6066  0.9275  0.5490
  524MOL0     H70702   7.525   3.568   8.457  0.4603  0.8076 -0.6940
  524MOL0     H70703   7.397   3.693   8.467  0.7944  1.5729 -0.2046
  524MOL0     H70704   6.950   3.625   8.661 -1.6588  0.4821 -1.0180
  524MOL0     H70705   6.712   3.558   8.552 -1.0435 -1.1149 -2.1898
  524MOL0     H70706   6.687   3.167   8.380  0.3617  3.0532 -0.4982
  524MOL0     H70707   6.638   3.151   8.555 -0.7164  0.4488  1.1371
  524MOL0     H70708   6.417   3.228   8.502 -1.1300  0.1180 -0.5414
  524MOL0     H70709   6.454   3.242   8.330  0.2619  0.9546  1.6790
  524MOL0     H70710   6.422   3.000   8.492  0.0810  0.4404 -0.1547
  524MOL0     H70711   6.473   2.998   8.324  2.2942  3.0100 -0.1872
  524MOL0     H70712   6.216   2.996   8.403  1.3060 -0.5357 -0.2351
  524MOL0     H70713   6.225   3.173   8.385  1.4460 -0.5245 -0.1668
  524MOL0     H70714   6.265   2.966   8.180 -3.5696 -0.3934 -0.6065
  524MOL0     H70715   6.335   3.132   8.158 -0.9251  0.0098 -1.6556
  524MOL0     H70716   6.121   3.230   8.182  1.5266  0.4245  1.0113
  524MOL0     H70717   6.123   3.113   8.048 -0.7219 -2.4266  0.5375
  524MOL0     H70718   6.013   2.993   8.292 -1.9589  0.7024  0.5067
  524MOL0     H70719   5.941   3.010   8.134  0.3968  0.7524 -1.5617
  524MOL0     H70720   5.847   3.231   8.165  0.5319 -0.0156 -0.7890
  524MOL0     H70721   5.935   3.225   8.327 -1.2524 -0.2709  0.5797
  524MOL0     H70722   6.876   3.160   8.521 -1.9232 -0.2352 -0.3199
  524MOL0     H70723   7.074   3.221   8.659  1.3149  1.0789 -0.7114
  524MOL0     H70724   7.289   3.499   8.923 -0.3280  1.6377 -0.1270
  524MOL0     H70725   7.477   3.550   9.045 -2.9846  0.4510 -0.1587
  524MOL0     H70726   9.262   4.459   9.495  0.8621  0.4923 -0.8255
  524MOL0     H70727   9.410   4.388   9.708  3.9940 -0.7551  0.8500
  524MOL0     H70728   9.696   4.026   9.850  0.1324  0.5623 -0.6200
  524MOL0     H70729   9.834   3.939  10.020 -2.3747 -0.1906 -1.2156
  524MOL0     H70730  10.154   4.195  10.236 -0.9005  1.2407 -1.8285
  524MOL0     H70731   9.991   4.216  10.301  1.1987  0.2473  0.7553
  524MOL0     H70732   9.987   4.012  10.413  1.9341 -1.2232  0.4790
  524MOL0     H70733  10.122   4.103  10.469  0.9332  0.5859 -0.8387
  524MOL0     H70734  10.131   3.868  10.299 -0.2093 -1.2904  2.4491
  524MOL0     H70735  10.221   3.913  10.457 -1.4737  1.4266  1.1144
  524MOL0     H70736  10.352   4.076  10.321  0.7963 -0.0638 -0.8003
  524MOL0     H70737  10.265   4.018  10.179  0.6848  0.1859 -1.1720
  524MOL0     H70738  10.536   3.700  10.227  2.6357  2.4746 -1.1557
  524MOL0     H70739  10.005   4.320  10.070  1.4805 -3.1884 -0.6262
  524MOL0     H70740   9.866   4.416   9.884 -0.3459  1.1662  0.0999
  525MOL0     O70741   4.059   6.063   3.634 -0.0583  0.4950 -0.7572
  525MOL0     C70742   4.121   6.154   3.674 -1.2272 -0.3873 -0.1749
  525MOL0     O70743   4.094   6.219   3.782  0.1623 -0.1552 -0.4165
  525MOL0     C70744   4.000   6.178   3.874  0.7554 -0.9950 -0.2092
  525MOL0     C70745   4.034   6.162   4.006 -0.0633  0.4871 -0.2936
  525MOL0     C70746   3.940   6.131   4.103 -0.1661  0.5260 -0.3786
  525MOL0     C70747   3.805   6.109   4.067 -0.6130  0.3570 -0.1254
  525MOL0     O70748   3.730   6.045   4.169  0.0769 -0.1853  1.2849
  525MOL0     C70749   3.590   6.036   4.149  0.4152 -1.0032  0.1337
  525MOL0     C70750   3.520   6.006   4.284 -0.1823 -0.2377 -0.5346
  525MOL0     C70751   3.378   5.958   4.245 -0.4253  0.7271  0.8074
  525MOL0     C70752   3.274   5.971   4.354  0.2860 -0.3788  0.2787
  525MOL0     C70753   3.134   5.928   4.310  0.2016 -0.0364 -0.3267
  525MOL0     C70754   3.080   6.000   4.188  0.5724  0.1654 -0.4930
  525MOL0     C70755   2.929   5.951   4.169  0.9337 -0.9839  0.1648
  525MOL0     C70756   2.841   6.063   4.091  0.1046  0.6681  1.2498
  525MOL0     N70757   2.723   6.005   4.016 -0.0526 -0.3997 -0.1219
  525MOL0     C70758   2.613   5.940   4.056 -0.6348  0.1261 -0.3601
  525MOL0     C70759   2.550   5.887   3.952  0.0936 -0.6725 -1.0075
  525MOL0     C70760   2.408   5.830   3.962  0.2987 -1.1112  0.4765
  525MOL0     C70761   2.388   5.717   3.859  0.9896  0.3364 -0.0189
  525MOL0     C70762   2.239   5.677   3.817  0.3422  0.2255 -0.1570
  525MOL0     C70763   2.166   5.602   3.930  0.6527  0.0579  0.8778
  525MOL0     O70764   2.025   5.607   3.896  0.8310 -0.5631 -0.2402
  525MOL0     C70765   1.929   5.586   3.998 -0.2334  0.6270 -0.3967
  525MOL0     C70766   1.955   5.553   4.132  0.5508  0.0080 -0.5728
  525MOL0     C70767   1.848   5.535   4.221 -0.2343  0.1904  0.4530
  525MOL0     C70768   1.897   5.495   4.354  0.5736 -0.2514  0.0479
  525MOL0     C70769   1.714   5.550   4.180  0.0802 -0.3513  0.2954
  525MOL0     C70770   1.594   5.535   4.272  0.0141  0.4873  0.8284
  525MOL0     O70771   1.466   5.562   4.212 -0.0787 -0.4716 -0.3326
  525MOL0     C70772   1.365   5.541   4.293  1.0570  0.4081 -0.6446
  525MOL0     C70773   1.346   5.430   4.371 -0.0265  0.0495  0.5905
  525MOL0     C70774   1.224   5.409   4.439  0.1261 -0.7282 -0.7018
  525MOL0     C70775   1.125   5.507   4.444 -0.1722  0.3349  0.0549
  525MOL0     O70776   1.010   5.500   4.517  0.5014 -0.1886 -0.8562
  525MOL0     C70777   1.020   5.434   4.646  0.3267 -1.0332  0.4182
  525MOL0     C70778   0.937   5.310   4.666  0.7944 -0.2586  0.5314
  525MOL0     C70779   0.792   5.332   4.624 -0.8820 -0.1868  0.6392
  525MOL0     C70780   0.712   5.417   4.731 -0.8497 -0.5523  0.9802
  525MOL0     C70781   0.582   5.469   4.670  0.0184  0.5253 -0.2470
  525MOL0     C70782   0.506   5.551   4.772 -0.4654 -0.1674 -0.5124
  525MOL0     C70783   0.378   5.587   4.717 -0.0349  0.5177  0.4323
  525MOL0     C70784   0.295   5.682   4.799  0.6509  0.2800 -1.0694
  525MOL0    Cl70785   0.130   5.695   4.726  0.1712  0.1000  0.3776
  525MOL0     C70786   1.146   5.624   4.370  0.1531  0.8753 -0.3598
  525MOL0     C70787   1.262   5.639   4.299  0.5545  0.0169 -0.1807
  525MOL0     O70788   1.609   5.508   4.393  0.0805  0.0940  0.1995
  525MOL0     C70789   1.692   5.577   4.049 -0.0422  0.0200 -0.7332
  525MOL0     C70790   1.793   5.592   3.959 -0.0556 -1.1234  0.2919
  525MOL0     N70791   2.617   5.926   3.841 -0.1620  0.5140 -1.3332
  525MOL0     N70792   2.718   5.989   3.879  0.2912 -0.3847 -0.3178
  525MOL0     C70793   3.777   6.106   3.934  0.0401  0.1915  0.5009
  525MOL0     C70794   3.874   6.134   3.838  0.2111 -0.4994  0.5824
  525MOL0     C70795   4.224   6.213   3.588 -0.9013 -0.7012 -1.0958
  525MOL0     C70796   4.273   6.341   3.619  0.4829 -0.1868 -0.4281
  525MOL0     C70797   4.361   6.401   3.529  0.6746  0.6512 -0.0226
  525MOL0     C70798   4.403   6.337   3.410  0.1568  0.6318  0.1396
  525MOL0     O70799   4.472   6.398   3.315  0.3953 -0.1547  0.2086
  525MOL0     C70800   4.563   6.503   3.341  0.4293  0.3793 -0.6606
  525MOL0     C70801   4.676   6.458   3.433  0.0778  0.6270  0.1343
  525MOL0     C70802   4.798   6.548   3.431 -0.0407 -0.3800  0.2570
  525MOL0     C70803   4.760   6.688   3.463 -0.2518 -0.1320  0.4527
  525MOL0     C70804   4.887   6.739   3.532  0.4531 -0.0307  1.1849
  525MOL0     C70805   4.993   6.775   3.579 -0.7709  0.1759  1.1920
  525MOL0     C70806   4.363   6.210   3.391  0.2221  0.3143 -0.0996
  525MOL0     C70807   4.266   6.148   3.476  0.4838 -0.5677 -0.1089
  525MOL0     H70808   4.136   6.166   4.043 -0.4236 -0.3492  0.8828
  525MOL0     H70809   3.980   6.118   4.203  0.7553 -1.6731 -0.9766
  525MOL0     H70810   3.543   6.123   4.101 -0.6442 -2.2509 -1.2075
  525MOL0     H70811   3.568   5.956   4.077  2.8444 -0.6901 -1.0547
  525MOL0     H70812   3.567   5.925   4.340 -2.1728 -0.8427  0.3515
  525MOL0     H70813   3.517   6.091   4.354 -0.0440 -0.2353 -0.5321
  525MOL0     H70814   3.337   6.008   4.156 -3.5146 -3.6665 -0.5895
  525MOL0     H70815   3.383   5.855   4.208 -1.8300  1.2422 -0.9607
  525MOL0     H70816   3.312   5.916   4.441  1.2089 -1.8800 -1.0258
  525MOL0     H70817   3.270   6.078   4.380  0.0735 -1.1363  3.9968
  525MOL0     H70818   3.143   5.820   4.294  4.2661  0.2894 -1.4785
  525MOL0     H70819   3.077   5.964   4.396  0.2274  1.1272 -0.7783
  525MOL0     H70820   3.073   6.109   4.197  1.0124  0.5690 -3.9324
  525MOL0     H70821   3.139   5.981   4.098  1.8038  0.3182  0.2545
  525MOL0     H70822   2.916   5.860   4.110 -0.9978  0.8074 -2.4849
  525MOL0     H70823   2.880   5.944   4.266 -0.3277 -1.8296 -0.4999
  525MOL0     H70824   2.905   6.109   4.016 -1.9032  3.6049  1.1678
  525MOL0     H70825   2.816   6.140   4.164 -0.6603 -0.3611  2.1065
  525MOL0     H70826   2.572   5.940   4.156 -0.5817  1.1556 -0.3276
  525MOL0     H70827   2.391   5.778   4.056 -3.4480  0.2466  0.7233
  525MOL0     H70828   2.327   5.898   3.934  0.4389 -0.8809  0.6345
  525MOL0     H70829   2.437   5.624   3.891  1.7874  0.3298 -1.2088
  525MOL0     H70830   2.436   5.749   3.766  0.2245  0.7342 -0.2827
  525MOL0     H70831   2.246   5.596   3.744  0.1683  0.1598 -0.1010
  525MOL0     H70832   2.182   5.766   3.787  0.2577 -0.4225 -2.0047
  525MOL0     H70833   2.191   5.643   4.028 -3.3218  1.5124  1.4363
  525MOL0     H70834   2.199   5.497   3.926  0.8761  0.1675 -1.0518
  525MOL0     H70835   2.061   5.544   4.151  0.6484 -1.0631 -1.4955
  525MOL0     H70836   1.854   5.558   4.432  2.2647  1.0021  0.0273
  525MOL0     H70837   1.889   5.387   4.371 -2.1942 -0.2090 -0.5556
  525MOL0     H70838   2.005   5.511   4.358  0.4583  0.9666 -0.9789
  525MOL0     H70839   1.418   5.349   4.374  1.6776  1.5478  2.2683
  525MOL0     H70840   1.204   5.319   4.496  0.3212 -0.7520 -0.6690
  525MOL0     H70841   1.120   5.402   4.677  1.3696  0.7867 -0.9392
  525MOL0     H70842   0.995   5.508   4.723 -1.2389 -2.2542  1.1561
  525MOL0     H70843   0.974   5.223   4.611 -1.6809 -0.7731 -0.4572
  525MOL0     H70844   0.945   5.289   4.773 -2.7735 -0.2955  0.9141
  525MOL0     H70845   0.747   5.232   4.618 -1.4122  0.1125 -1.2191
  525MOL0     H70846   0.786   5.374   4.523  0.1629  1.1412  1.1035
  525MOL0     H70847   0.681   5.344   4.807 -0.8730 -1.2173  0.3519
  525MOL0     H70848   0.770   5.501   4.769  1.8852 -1.9324  0.1290
  525MOL0     H70849   0.521   5.385   4.636  1.7066 -0.2172 -1.5471
  525MOL0     H70850   0.611   5.527   4.581  2.1417 -2.4126 -1.6465
  525MOL0     H70851   0.490   5.491   4.862  1.1336  2.0703  1.3956
  525MOL0     H70852   0.557   5.644   4.800  2.5397 -2.4946  2.7303
  525MOL0     H70853   0.327   5.490   4.716 -0.1971  0.6031  0.5200
  525MOL0     H70854   0.387   5.641   4.622 -2.4536  2.8142  1.4034
  525MOL0     H70855   0.343   5.780   4.797  0.9426  0.1367 -1.2302
  525MOL0     H70856   0.284   5.643   4.901  3.1247  2.2348  0.0581
  525MOL0     H70857   1.069   5.700   4.369 -2.8194 -1.8931 -0.6472
  525MOL0     H70858   1.266   5.733   4.245  0.4468  0.9135  1.2896
  525MOL0     H70859   1.592   5.590   4.006 -1.2123 -0.4173  1.7019
  525MOL0     H70860   1.780   5.612   3.853  1.8068 -1.2858 -0.0104
  525MOL0     H70861   3.682   6.068   3.899  0.4422 -0.6244  0.2866
  525MOL0     H70862   3.859   6.123   3.731 -2.0826  1.8494  0.5566
  525MOL0     H70863   4.243   6.388   3.712  0.8379  0.3443 -0.5768
  525MOL0     H70864   4.389   6.503   3.550 -0.4469  0.3090  4.1035
  525MOL0     H70865   4.604   6.543   3.247  0.0564 -0.4929 -1.2143
  525MOL0     H70866   4.512   6.583   3.394  0.2220  0.6721 -1.2959
  525MOL0     H70867   4.701   6.359   3.394  1.2466  1.8473 -2.4308
  525MOL0     H70868   4.651   6.456   3.540  0.5824 -0.3476  0.2499
  525MOL0     H70869   4.837   6.550   3.328  3.4235 -0.5031  1.4257
  525MOL0     H70870   4.877   6.512   3.497 -0.0826  0.6147  0.8610
  525MOL0     H70871   4.676   6.698   3.532 -0.6127  1.4281 -0.1592
  525MOL0     H70872   4.731   6.742   3.372 -0.4983 -0.3746  0.3856
  525MOL0     H70873   5.087   6.801   3.623 -0.4395 -0.5963  0.9562
  525MOL0     H70874   4.405   6.149   3.312  0.6211 -0.6485  0.8192
  525MOL0     H70875   4.248   6.043   3.455  0.0845 -0.3899 -0.6758
  526MOL0     O70876   5.443   5.739   4.118  0.1053  0.3711 -0.1702
  526MOL0     C70877   5.446   5.776   4.000  0.9740 -0.0735 -0.2977
  526MOL0     O70878   5.344   5.767   3.911 -0.5618 -0.5680 -0.2047
  526MOL0     C70879   5.221   5.735   3.964  1.0220 -0.5857  0.5895
  526MOL0     C70880   5.152   5.640   3.886  0.4059  0.0274 -0.5546
  526MOL0     C70881   5.021   5.591   3.909 -0.9308 -0.9224  0.1305
  526MOL0     C70882   4.951   5.641   4.014  0.0683  0.3845 -0.1373
  526MOL0     O70883   4.821   5.593   4.040  0.0018 -0.0750  0.5556
  526MOL0     C70884   4.757   5.601   4.175 -0.3213  0.1669 -0.2651
  526MOL0     C70885   4.606   5.614   4.151  0.3717  0.3396  0.1898
  526MOL0     C70886   4.520   5.637   4.284 -0.6266 -0.1099  0.0789
  526MOL0     C70887   4.372   5.630   4.243 -0.2250 -0.4260  0.5864
  526MOL0     C70888   4.300   5.674   4.364  0.5762 -0.1745 -0.8154
  526MOL0     C70889   4.151   5.681   4.344 -0.3626 -0.3400 -0.4300
  526MOL0     C70890   4.099   5.732   4.207  0.0823  0.4868  0.7279
  526MOL0     C70891   3.945   5.769   4.205  0.0791  0.2207  0.5328
  526MOL0     N70892   3.853   5.647   4.216 -0.1252  0.0184  0.1873
  526MOL0     C70893   3.722   5.658   4.221 -0.7548  0.5436  0.6621
  526MOL0     C70894   3.682   5.536   4.254 -0.7799  1.4713 -0.7902
  526MOL0     C70895   3.531   5.493   4.284 -0.7788  0.7872  1.0470
  526MOL0     C70896   3.448   5.578   4.385 -0.5317  0.1099  0.1664
  526MOL0     C70897   3.309   5.525   4.409 -0.1264  0.3389 -0.5614
  526MOL0     C70898   3.229   5.606   4.512 -0.3959  0.6727 -0.2585
  526MOL0     O70899   3.098   5.543   4.520  0.2232  0.4192 -0.0980
  526MOL0     C70900   2.985   5.626   4.526  0.1341 -0.0717 -0.2108
  526MOL0     C70901   2.978   5.757   4.585  0.2685  0.2410 -0.8920
  526MOL0     C70902   2.873   5.842   4.551 -0.0103  0.6375 -0.1416
  526MOL0     C70903   2.882   5.985   4.592  0.2523 -0.2772  0.2862
  526MOL0     C70904   2.760   5.789   4.482  0.3658  0.1088  0.0493
  526MOL0     C70905   2.642   5.871   4.444  0.1580  0.5940 -0.3875
  526MOL0     O70906   2.524   5.800   4.453 -0.1157  0.8566 -1.0869
  526MOL0     C70907   2.403   5.844   4.410  0.5812  0.0404  0.4743
  526MOL0     C70908   2.347   5.962   4.464 -0.7422  0.1330  0.0135
  526MOL0     C70909   2.217   6.007   4.444  0.2803 -1.2828 -0.3016
  526MOL0     C70910   2.137   5.933   4.366  0.1910  0.1423 -1.1801
  526MOL0     O70911   2.002   5.967   4.353  0.5260  0.7989 -0.1350
  526MOL0     C70912   1.918   5.889   4.279  0.9720 -0.1432  0.3485
  526MOL0     C70913   1.771   5.939   4.287 -0.0054  0.3823  0.2800
  526MOL0     C70914   1.719   5.945   4.428  1.5633  0.7997  0.9769
  526MOL0     C70915   1.570   5.936   4.425  0.8365  0.6924  0.1590
  526MOL0     C70916   1.490   6.045   4.367  0.2164  0.6732 -0.2436
  526MOL0     C70917   1.339   6.042   4.407 -0.0073 -0.2834 -0.0283
  526MOL0     C70918   1.279   6.161   4.332  0.2489 -0.7946 -0.6872
  526MOL0     C70919   1.125   6.167   4.312  0.2920 -0.5247  0.1069
  526MOL0    Cl70920   1.061   6.315   4.227 -0.6695 -0.1876 -0.1344
  526MOL0     C70921   2.200   5.829   4.284 -0.5917 -1.1225  1.1901
  526MOL0     C70922   2.329   5.779   4.313  0.1945 -0.9667  0.3308
  526MOL0     O70923   2.652   5.986   4.381  0.2931 -0.2536  0.0288
  526MOL0     C70924   2.758   5.650   4.443  0.1599  0.2601  0.5754
  526MOL0     C70925   2.869   5.573   4.461 -0.3038 -0.2415 -0.0635
  526MOL0     N70926   3.788   5.442   4.249 -0.2590 -1.2042 -0.6014
  526MOL0     N70927   3.898   5.516   4.237  0.2126 -0.1113 -0.1067
  526MOL0     C70928   5.012   5.733   4.106 -0.9341  0.3824 -0.1765
  526MOL0     C70929   5.148   5.778   4.078 -0.5050  0.1045  0.6385
  526MOL0     C70930   5.562   5.842   3.948 -0.1534  0.0841  0.3755
  526MOL0     C70931   5.665   5.887   4.036  0.5465 -0.2106 -0.0316
  526MOL0     C70932   5.781   5.942   3.991  0.8917  0.3329  0.1868
  526MOL0     C70933   5.810   5.947   3.849 -0.3613 -0.1455  1.1204
  526MOL0     O70934   5.930   5.979   3.803 -0.6492 -0.1028 -0.0086
  526MOL0     C70935   5.968   5.968   3.663  0.7637 -0.4379  0.6146
  526MOL0     C70936   6.118   5.970   3.660  0.0297  0.1127 -0.5597
  526MOL0     C70937   6.157   6.113   3.693  0.0847  0.0883  0.5425
  526MOL0     C70938   6.311   6.135   3.708  0.8156  0.2122 -0.6805
  526MOL0     C70939   6.364   6.124   3.574 -0.2270  0.0851  0.7307
  526MOL0     C70940   6.412   6.102   3.467 -0.6233 -0.7693 -0.0544
  526MOL0     C70941   5.711   5.901   3.764 -0.3669  0.8144  0.0381
  526MOL0     C70942   5.583   5.846   3.803  0.1827 -0.8991 -0.0923
  526MOL0     H70943   5.207   5.599   3.802  1.2605 -1.4124  0.6482
  526MOL0     H70944   4.973   5.518   3.845 -3.2825  0.4992  0.1852
  526MOL0     H70945   4.769   5.509   4.234 -0.3225 -0.0441 -0.5895
  526MOL0     H70946   4.785   5.688   4.235  2.5298 -1.1393  0.4867
  526MOL0     H70947   4.592   5.696   4.080 -0.8056 -0.5886 -0.7147
  526MOL0     H70948   4.572   5.520   4.105  0.5173  0.1253  0.5139
  526MOL0     H70949   4.540   5.553   4.350  0.3332  0.5300  0.6229
  526MOL0     H70950   4.548   5.729   4.336  0.9432  0.1412 -1.1039
  526MOL0     H70951   4.345   5.698   4.162  2.3529 -1.1778 -1.0320
  526MOL0     H70952   4.337   5.531   4.211 -1.8539 -0.7505  3.0627
  526MOL0     H70953   4.326   5.618   4.454 -2.6661 -2.2843 -1.0304
  526MOL0     H70954   4.333   5.775   4.390 -0.9900  0.0917  0.2725
  526MOL0     H70955   4.110   5.580   4.349 -0.7489 -0.1649  0.1108
  526MOL0     H70956   4.103   5.726   4.432  1.4951 -1.7478  1.3867
  526MOL0     H70957   4.157   5.822   4.184  0.2020  0.7837  2.1301
  526MOL0     H70958   4.113   5.656   4.130  1.0992 -0.5524  1.8813
  526MOL0     H70959   3.933   5.822   4.110  0.4331  1.4306  1.1484
  526MOL0     H70960   3.919   5.832   4.291  2.7826 -0.0395  1.6289
  526MOL0     H70961   3.663   5.749   4.215 -0.6455  0.6949  1.6901
  526MOL0     H70962   3.474   5.487   4.191 -0.8618 -2.8625  1.2274
  526MOL0     H70963   3.531   5.389   4.315 -0.6432 -0.6264 -3.1274
  526MOL0     H70964   3.443   5.679   4.342  1.0433  1.2165  2.3530
  526MOL0     H70965   3.500   5.587   4.481 -0.9758  1.3810  0.3000
  526MOL0     H70966   3.329   5.424   4.447  1.5001 -0.0047 -2.1718
  526MOL0     H70967   3.255   5.506   4.316 -0.0908 -1.7549 -0.1963
  526MOL0     H70968   3.229   5.712   4.487 -0.4241 -0.1216 -4.4450
  526MOL0     H70969   3.284   5.592   4.605  0.6714 -2.4611 -1.2208
  526MOL0     H70970   3.067   5.781   4.642  0.3222 -4.0664  1.2668
  526MOL0     H70971   2.884   6.048   4.502  0.1270  0.0104  0.4846
  526MOL0     H70972   2.813   6.010   4.673 -1.0019 -0.9206 -0.5685
  526MOL0     H70973   2.982   5.998   4.635 -0.0919  2.5835  0.4352
  526MOL0     H70974   2.421   6.008   4.529 -0.7075 -1.6557  1.3095
  526MOL0     H70975   2.182   6.088   4.506  0.5647 -1.0171 -0.4911
  526MOL0     H70976   1.946   5.871   4.175 -3.6201 -0.4050 -1.0257
  526MOL0     H70977   1.925   5.793   4.332  0.5047  0.1525  0.9559
  526MOL0     H70978   1.756   6.038   4.242  1.4609  0.4164 -0.1943
  526MOL0     H70979   1.723   5.863   4.225  0.9872  0.3244 -0.4387
  526MOL0     H70980   1.741   6.043   4.470 -0.7723  2.4267 -1.3240
  526MOL0     H70981   1.755   5.861   4.488 -1.8054 -2.0157 -0.5592
  526MOL0     H70982   1.541   5.849   4.366 -0.8127  0.6952  0.9090
  526MOL0     H70983   1.529   5.921   4.525 -0.6215  0.7193 -0.4076
  526MOL0     H70984   1.480   6.029   4.259 -1.3841 -0.1259 -0.0092
  526MOL0     H70985   1.533   6.144   4.388 -1.3365  1.3452 -0.1219
  526MOL0     H70986   1.309   5.946   4.364  2.7555 -0.2218 -2.3714
  526MOL0     H70987   1.320   6.050   4.515  1.6761 -1.5935  0.4118
  526MOL0     H70988   1.316   6.164   4.229 -1.1597  1.3634 -1.1844
  526MOL0     H70989   1.304   6.256   4.379 -1.6318 -0.1165 -0.9506
  526MOL0     H70990   1.076   6.161   4.410  0.7735  0.0751  0.3917
  526MOL0     H70991   1.093   6.080   4.254 -0.4938 -1.3020  1.6364
  526MOL0     H70992   2.152   5.765   4.211  0.2160 -1.7135  1.1625
  526MOL0     H70993   2.374   5.691   4.268 -1.0144 -1.8608  0.8344
  526MOL0     H70994   2.676   5.614   4.381  1.6842 -0.4997 -1.0944
  526MOL0     H70995   2.874   5.471   4.423 -0.6603 -0.3630  0.2149
  526MOL0     H70996   4.961   5.772   4.193 -1.4456  1.5256 -0.9701
  526MOL0     H70997   5.203   5.840   4.147  1.3938 -0.2265 -0.4981
  526MOL0     H70998   5.649   5.878   4.143  1.0304 -2.0021 -0.0752
  526MOL0     H70999   5.849   5.970   4.071 -0.9665 -0.7755  2.2487
  526MOL0     H71000   5.928   5.875   3.622  1.9081 -0.7266  0.1194
  526MOL0     H71001   5.924   6.044   3.597  0.7476 -0.8052  0.2008
  526MOL0     H71002   6.155   5.936   3.562  2.8177  1.3077 -0.0436
  526MOL0     H71003   6.160   5.906   3.738  1.7963  0.7370 -0.9429
  526MOL0     H71004   6.100   6.156   3.777 -1.3755  2.1032 -1.3637
  526MOL0     H71005   6.118   6.173   3.610  1.3479 -0.0541 -0.1734
  526MOL0     H71006   6.345   6.054   3.773  0.7502  2.6071  2.5896
  526MOL0     H71007   6.328   6.233   3.753  0.2012 -0.5224  1.2555
  526MOL0     H71008   6.443   6.064   3.372  0.2110 -0.3844  0.0629
  526MOL0     H71009   5.726   5.880   3.658 -0.6474 -0.9452  0.3269
  526MOL0     H71010   5.519   5.792   3.733  0.1168 -2.9170  1.4099
  527MOL0     O71011   9.327   9.127   8.765  0.2540 -0.3995  0.4889
  527MOL0     C71012   9.417   9.197   8.813 -0.4072 -0.0226  0.2234
  527MOL0     O71013   9.419   9.240   8.944 -0.1153 -0.6823 -0.2062
  527MOL0     C71014   9.302   9.263   9.011 -0.2014  0.6464  0.0585
  527MOL0     C71015   9.184   9.179   9.015 -0.1421 -0.7128  0.8087
  527MOL0     C71016   9.074   9.221   9.082 -0.2114 -0.2661 -1.0814
  527MOL0     C71017   9.069   9.347   9.150  0.5574 -0.2791  0.3364
  527MOL0     O71018   8.957   9.377   9.224 -0.4794 -0.0571 -0.4694
  527MOL0     C71019   8.972   9.488   9.320 -0.2070 -0.1271 -0.0372
  527MOL0     C71020   8.841   9.509   9.400  0.0801 -0.4926 -0.0726
  527MOL0     C71021   8.746   9.577   9.296  0.4706  0.1104 -0.3261
  527MOL0     C71022   8.602   9.583   9.351 -0.8271 -0.1350  0.1169
  527MOL0     C71023   8.491   9.644   9.268 -0.7442  0.1384  0.3926
  527MOL0     C71024   8.348   9.621   9.328 -0.3296  0.5385 -0.4544
  527MOL0     C71025   8.240   9.636   9.212 -0.6748  0.4630 -0.1381
  527MOL0     C71026   8.095   9.621   9.253 -0.2550  0.8379 -0.2201
  527MOL0     N71027   8.009   9.638   9.137 -0.6103  0.4372 -0.1774
  527MOL0     C71028   7.996   9.548   9.035  0.3266 -0.3588  0.4180
  527MOL0     C71029   7.939   9.620   8.935 -0.8392  0.3845  0.7613
  527MOL0     C71030   7.933   9.572   8.793  0.1047 -0.0302 -0.2356
  527MOL0     C71031   7.794   9.555   8.735 -0.3083  0.3580  0.9079
  527MOL0     C71032   7.707   9.681   8.733 -0.6627  0.1143  0.4779
  527MOL0     C71033   7.573   9.665   8.669 -0.0390  0.7443  0.3158
  527MOL0     O71034   7.511   9.786   8.699 -0.8723  0.7196 -0.5687
  527MOL0     C71035   7.386   9.810   8.662  0.7825  0.1265  0.2434
  527MOL0     C71036   7.329   9.915   8.730  0.3492  0.3864 -0.0063
  527MOL0     C71037   7.198   9.961   8.710  0.5811 -0.3871 -0.7483
  527MOL0     C71038   7.147  10.086   8.794  0.2202 -0.1492  1.1520
  527MOL0     C71039   7.117   9.903   8.617 -0.0321 -0.0147 -0.4273
  527MOL0     C71040   6.977   9.948   8.579 -0.3680 -0.4016 -0.4505
  527MOL0     O71041   6.940  10.078   8.603 -0.1007 -0.6453 -0.8251
  527MOL0     C71042   6.811  10.124   8.599  0.0474  0.1584  0.5453
  527MOL0     C71043   6.774  10.216   8.501 -0.0311  0.2386  0.3392
  527MOL0     C71044   6.639  10.254   8.482 -0.5293  0.4829  0.3249
  527MOL0     C71045   6.530  10.205   8.549 -0.0785  0.0706 -0.6566
  527MOL0     O71046   6.393  10.232   8.530  0.3483  0.2313 -0.4061
  527MOL0     C71047   6.369  10.314   8.424  0.6308 -0.2298 -0.3658
  527MOL0     C71048   6.217  10.347   8.399  0.9020 -0.5139  0.1961
  527MOL0     C71049   6.143  10.394   8.519  0.0991 -0.5210 -0.2491
  527MOL0     C71050   6.001  10.435   8.490  0.3200 -0.2141 -0.2084
  527MOL0     C71051   5.903  10.394   8.604 -0.3945 -0.4135 -0.3280
  527MOL0     C71052   5.761  10.439   8.574  1.2873 -0.0109  0.4109
  527MOL0     C71053   5.660  10.401   8.679 -0.2364  0.2290  0.0191
  527MOL0     C71054   5.534  10.478   8.666  0.2521  0.1170  0.0801
  527MOL0    Cl71055   5.401  10.398   8.759  0.5380  0.1711 -0.1622
  527MOL0     C71056   6.566  10.112   8.647  0.9730 -0.0168 -0.1720
  527MOL0     C71057   6.702  10.075   8.671 -0.0191 -0.4747 -0.1805
  527MOL0     O71058   6.899   9.859   8.540 -0.4304 -0.2086  0.2687
  527MOL0     C71059   7.174   9.802   8.533 -0.0263  0.1900 -0.5506
  527MOL0     C71060   7.304   9.751   8.560 -0.2045  0.3490  0.0555
  527MOL0     N71061   7.925   9.751   8.977 -0.1310  0.2301 -0.4858
  527MOL0     N71062   7.964   9.764   9.101  0.5093 -0.1816  0.6526
  527MOL0     C71063   9.187   9.426   9.142 -0.0818  0.1963  0.1562
  527MOL0     C71064   9.297   9.382   9.080 -0.3702  0.4763  0.3233
  527MOL0     C71065   9.541   9.246   8.726  0.6274  0.3380  0.0458
  527MOL0     C71066   9.668   9.291   8.776  0.4308 -0.3651  0.2342
  527MOL0     C71067   9.765   9.330   8.680  0.0215  0.5973 -0.4087
  527MOL0     C71068   9.745   9.313   8.543  0.4790 -0.3053 -0.0292
  527MOL0     O71069   9.854   9.365   8.478 -0.3339  0.4184  0.3088
  527MOL0     C71070   9.829   9.402   8.336 -1.6275  0.0966 -0.3797
  527MOL0     C71071   9.862   9.277   8.248 -0.3597 -0.3242  0.6218
  527MOL0     C71072   9.804   9.296   8.107 -0.5792  0.8239 -0.0754
  527MOL0     C71073   9.865   9.204   7.994  0.1094 -0.5046 -0.6585
  527MOL0     C71074   9.787   9.078   7.984  0.1029 -0.6023  0.1973
  527MOL0     C71075   9.736   8.968   7.981  0.4745 -0.4812 -0.3705
  527MOL0     C71076   9.619   9.276   8.499  0.0177  0.1577 -0.7996
  527MOL0     C71077   9.516   9.244   8.587 -0.3307 -0.0560  0.2641
  527MOL0     H71078   9.186   9.082   8.966  0.3077  1.1697 -3.3883
  527MOL0     H71079   8.982   9.163   9.085  0.6393 -1.6224  0.1425
  527MOL0     H71080   9.049   9.457   9.390 -1.6722 -0.2833  1.5688
  527MOL0     H71081   8.993   9.578   9.261 -3.6456  1.6259  1.1598
  527MOL0     H71082   8.806   9.415   9.443  2.0639 -0.7554  1.0891
  527MOL0     H71083   8.855   9.579   9.483 -0.5213  1.9500 -1.9231
  527MOL0     H71084   8.775   9.680   9.278  2.0779 -0.4013 -0.8709
  527MOL0     H71085   8.739   9.515   9.206 -1.6209 -0.8921  0.4690
  527MOL0     H71086   8.579   9.480   9.381  0.1341 -1.2543 -2.6685
  527MOL0     H71087   8.605   9.635   9.448 -3.5409  1.3889 -0.5087
  527MOL0     H71088   8.509   9.752   9.268 -0.0879  0.0863  2.5580
  527MOL0     H71089   8.478   9.615   9.164 -3.6799 -0.0061  0.7125
  527MOL0     H71090   8.335   9.521   9.370 -0.1884  1.3046  1.5238
  527MOL0     H71091   8.344   9.679   9.421  2.5067 -0.5086  0.4385
  527MOL0     H71092   8.242   9.734   9.165 -1.4748 -1.0092 -3.5237
  527MOL0     H71093   8.258   9.572   9.125 -3.1168  0.7467 -0.9316
  527MOL0     H71094   8.057   9.698   9.321 -1.1025 -2.4181  3.3254
  527MOL0     H71095   8.078   9.524   9.301  0.5758 -0.2845 -2.0823
  527MOL0     H71096   8.031   9.446   9.021  0.5460  0.1422 -4.1431
  527MOL0     H71097   7.979   9.640   8.722 -2.3639  0.0474 -1.8957
  527MOL0     H71098   7.988   9.477   8.793  1.1216  0.5432 -0.7558
  527MOL0     H71099   7.741   9.477   8.790 -1.9175  0.8548  0.1493
  527MOL0     H71100   7.806   9.525   8.631 -0.7918  0.7378  0.7342
  527MOL0     H71101   7.762   9.761   8.681  1.6069 -2.5007 -1.4561
  527MOL0     H71102   7.694   9.708   8.838 -1.5284  1.2473  0.1012
  527MOL0     H71103   7.517   9.587   8.721 -0.6194 -0.4146 -1.9200
  527MOL0     H71104   7.588   9.639   8.564 -0.0542 -0.3504  0.5713
  527MOL0     H71105   7.385   9.973   8.803 -0.7962 -0.5241  1.6393
  527MOL0     H71106   7.043  10.065   8.820 -0.2048  0.6698  0.1912
  527MOL0     H71107   7.209  10.111   8.881  0.0240 -1.2437  1.6133
  527MOL0     H71108   7.139  10.172   8.726 -2.0870 -1.9528 -1.0601
  527MOL0     H71109   6.852  10.250   8.433  0.1890 -0.3162  0.3125
  527MOL0     H71110   6.620  10.332   8.409  2.5152  0.9297 -0.1477
  527MOL0     H71111   6.412  10.410   8.452 -0.8396 -0.0802  1.6323
  527MOL0     H71112   6.402  10.275   8.328 -2.1937  2.2256 -2.5137
  527MOL0     H71113   6.208  10.427   8.324 -0.0811 -0.2180  0.6040
  527MOL0     H71114   6.166  10.259   8.362 -1.2893  1.3029 -1.3944
  527MOL0     H71115   6.188  10.480   8.570 -5.0918  3.3463 -1.3981
  527MOL0     H71116   6.146  10.314   8.594 -0.0374  1.5534  2.1061
  527MOL0     H71117   5.984  10.543   8.489  0.5867 -0.1174 -3.3689
  527MOL0     H71118   5.968  10.405   8.390  0.5730  0.4080 -0.4832
  527MOL0     H71119   5.930  10.430   8.703  1.7795  0.9982 -1.3505
  527MOL0     H71120   5.897  10.285   8.599 -2.1677 -0.2892 -2.9723
  527MOL0     H71121   5.763  10.548   8.566  0.5013 -0.1268 -2.6750
  527MOL0     H71122   5.720  10.393   8.484  1.2238 -1.6531  1.2436
  527MOL0     H71123   5.695  10.418   8.781 -0.8280  1.7521 -0.0060
  527MOL0     H71124   5.640  10.294   8.667  0.8568  0.0357 -0.1117
  527MOL0     H71125   5.507  10.499   8.562 -1.1535 -1.3824  0.1047
  527MOL0     H71126   5.541  10.579   8.708  3.5665  0.3767 -0.8399
  527MOL0     H71127   6.485  10.070   8.705 -0.9116  0.3179 -2.4293
  527MOL0     H71128   6.716  10.003   8.752 -2.2991  1.6308  2.2548
  527MOL0     H71129   7.126   9.761   8.445 -0.8214  0.4852 -0.2656
  527MOL0     H71130   7.331   9.660   8.507 -0.5071 -1.1989  2.3952
  527MOL0     H71131   9.200   9.525   9.185 -2.5581  1.3698 -1.5310
  527MOL0     H71132   9.383   9.448   9.071 -1.1919  1.5879  0.4388
  527MOL0     H71133   9.694   9.310   8.879 -0.7620 -0.6604  0.6017
  527MOL0     H71134   9.862   9.366   8.714  1.1053 -2.2838 -0.1747
  527MOL0     H71135   9.723   9.425   8.322 -2.0348 -0.8685  0.8790
  527MOL0     H71136   9.891   9.490   8.319 -0.9014  0.1956  2.2222
  527MOL0     H71137   9.825   9.181   8.284 -1.4429  0.0146  0.4411
  527MOL0     H71138   9.972   9.283   8.249 -0.4181  2.2142  0.1614
  527MOL0     H71139   9.836   9.395   8.075 -1.6718  0.7919 -1.4029
  527MOL0     H71140   9.695   9.298   8.103 -0.6730  3.5688  1.5617
  527MOL0     H71141   9.968   9.176   8.018 -0.8040 -3.7837 -0.1442
  527MOL0     H71142   9.867   9.253   7.896  2.7220 -0.4738 -0.6551
  527MOL0     H71143   9.707   8.866   7.989  0.5025 -0.4788 -0.2240
  527MOL0     H71144   9.606   9.277   8.391 -0.9430 -3.1188 -0.8206
  527MOL0     H71145   9.415   9.230   8.548 -0.0908 -0.5271 -0.1987
  528MOL0     O71146   8.895   9.091   3.210 -0.4940 -0.5731  0.3016
  528MOL0     C71147   8.936   9.192   3.152  0.1111  0.0177  0.4881
  528MOL0     O71148   8.855   9.277   3.082 -0.7576  0.5141 -0.2313
  528MOL0     C71149   8.720   9.272   3.080 -0.8267 -0.0993 -0.2389
  528MOL0     C71150   8.655   9.192   2.992  0.4228  0.8164  0.2442
  528MOL0     C71151   8.525   9.165   3.007 -0.1819 -0.0791  0.1861
  528MOL0     C71152   8.442   9.232   3.091  0.3759 -0.2816 -0.0607
  528MOL0     O71153   8.312   9.199   3.078  0.3302  0.3029  0.2424
  528MOL0     C71154   8.233   9.314   3.126  0.8236  1.3772  0.0530
  528MOL0     C71155   8.084   9.296   3.095 -0.2309 -0.3742 -0.2034
  528MOL0     C71156   7.994   9.415   3.138 -1.3023 -0.4070  0.0259
  528MOL0     C71157   7.861   9.433   3.053  0.2563 -0.4525 -0.0764
  528MOL0     C71158   7.732   9.382   3.113  0.4694  0.9079 -0.2718
  528MOL0     C71159   7.746   9.230   3.173  0.2822  0.1736  0.1579
  528MOL0     C71160   7.621   9.158   3.225  0.5136  0.4142  0.1327
  528MOL0     C71161   7.496   9.182   3.148  0.6754  0.0637 -0.4507
  528MOL0     N71162   7.379   9.113   3.207  0.0382  1.1757 -0.7830
  528MOL0     C71163   7.344   8.985   3.215 -0.7337 -0.9463 -0.3764
  528MOL0     C71164   7.228   8.991   3.284  0.2002  0.5704 -0.3539
  528MOL0     C71165   7.161   8.859   3.323  0.4669  0.4607 -0.5513
  528MOL0     C71166   7.006   8.854   3.315  0.1645  0.1529 -0.2240
  528MOL0     C71167   6.959   8.719   3.389 -0.2938 -0.5007  0.2400
  528MOL0     C71168   6.808   8.685   3.373 -1.4972  0.5295  0.3372
  528MOL0     O71169   6.787   8.687   3.232  0.0635 -0.6308  0.2140
  528MOL0     C71170   6.660   8.706   3.185 -0.2305  0.4067 -1.4941
  528MOL0     C71171   6.543   8.664   3.251  0.3994  0.0253  0.4249
  528MOL0     C71172   6.416   8.683   3.186  0.4467 -0.1854  0.3569
  528MOL0     C71173   6.299   8.639   3.274  0.0677  0.6470  0.1953
  528MOL0     C71174   6.404   8.722   3.048 -0.6241 -1.0678 -0.1060
  528MOL0     C71175   6.275   8.722   2.971 -0.7867 -0.1868  0.0326
  528MOL0     O71176   6.289   8.793   2.849 -0.4411  0.3621  0.4538
  528MOL0     C71177   6.181   8.790   2.764 -0.7506 -0.2849  0.3148
  528MOL0     C71178   6.150   8.678   2.687  0.6946 -0.6881 -0.1772
  528MOL0     C71179   6.044   8.680   2.598  0.2134 -1.1365  0.1524
  528MOL0     C71180   5.954   8.789   2.592 -0.1813  1.0989  0.3612
  528MOL0     O71181   5.845   8.780   2.507  0.1942  0.4159 -0.4346
  528MOL0     C71182   5.720   8.817   2.569  0.9174 -0.6766 -0.4512
  528MOL0     C71183   5.599   8.812   2.473 -0.4758 -0.0323  0.1306
  528MOL0     C71184   5.481   8.876   2.544 -0.0610  0.3181 -0.1604
  528MOL0     C71185   5.353   8.864   2.461  0.4155  0.9143  0.2336
  528MOL0     C71186   5.229   8.922   2.531 -1.1679 -1.2579 -0.5376
  528MOL0     C71187   5.106   8.877   2.448  0.4788  0.6899 -0.8648
  528MOL0     C71188   4.970   8.957   2.478  0.0536  0.1254 -0.2504
  528MOL0     C71189   4.864   8.907   2.389  0.0177 -0.0573  0.0006
  528MOL0    Cl71190   4.706   8.965   2.437  0.0200 -0.6289 -0.3287
  528MOL0     C71191   5.983   8.894   2.681 -0.5117  0.2676 -0.4796
  528MOL0     C71192   6.092   8.899   2.762 -0.7213  0.1592 -0.7367
  528MOL0     O71193   6.176   8.667   3.012  0.0193  1.2931  0.6581
  528MOL0     C71194   6.528   8.765   2.992 -0.5722 -0.1210  0.3803
  528MOL0     C71195   6.651   8.759   3.060 -0.1897 -0.0252 -0.3431
  528MOL0     N71196   7.207   9.111   3.327  0.1246 -0.0981  0.4486
  528MOL0     N71197   7.288   9.190   3.266 -0.8958  0.4441 -0.2179
  528MOL0     C71198   8.499   9.326   3.183  0.1203  0.7841 -0.7340
  528MOL0     C71199   8.638   9.350   3.171 -0.3104 -1.2566 -0.4765
  528MOL0     C71200   9.079   9.220   3.168 -0.8615  0.2550 -0.8649
  528MOL0     C71201   9.170   9.145   3.249 -0.1080 -0.0726 -0.0256
  528MOL0     C71202   9.299   9.191   3.266  0.2643  0.6975 -0.4730
  528MOL0     C71203   9.340   9.310   3.236 -0.1268  0.6591 -1.6151
  528MOL0     O71204   9.464   9.332   3.281  0.2518 -0.0672 -0.4056
  528MOL0     C71205   9.502   9.468   3.288  0.8036  0.1042  1.0147
  528MOL0     C71206   9.642   9.485   3.332  0.0790  0.4613 -0.3096
  528MOL0     C71207   9.735   9.403   3.240  0.3271 -0.5911 -0.2627
  528MOL0     C71208   9.877   9.442   3.261 -0.3491  0.5433 -0.7348
  528MOL0     C71209   9.941   9.366   3.374  0.6019 -0.2739 -0.0987
  528MOL0     C71210   9.987   9.300   3.465 -0.4016 -1.2323 -0.6415
  528MOL0     C71211   9.256   9.394   3.170 -0.4376  0.0428  0.5350
  528MOL0     C71212   9.129   9.339   3.126  0.4569 -0.0282 -1.1824
  528MOL0     H71213   8.692   9.131   2.911 -3.0551 -0.8673 -0.2690
  528MOL0     H71214   8.482   9.096   2.935 -0.2564  1.1464 -0.9655
  528MOL0     H71215   8.253   9.305   3.233 -0.8350 -3.0709  0.1856
  528MOL0     H71216   8.256   9.413   3.086 -2.2547  2.5482  0.9407
  528MOL0     H71217   8.084   9.289   2.986  2.1981  0.1374 -0.2993
  528MOL0     H71218   8.052   9.204   3.143  0.0792  1.1832  3.2813
  528MOL0     H71219   7.986   9.408   3.247  2.9755  0.5548  0.6015
  528MOL0     H71220   8.045   9.511   3.130  1.8798 -2.0921 -1.7329
  528MOL0     H71221   7.854   9.540   3.034  2.1529 -0.3794 -0.5493
  528MOL0     H71222   7.873   9.379   2.958  0.8757  1.4258 -1.1192
  528MOL0     H71223   7.695   9.436   3.200 -0.6301 -3.4079  2.2500
  528MOL0     H71224   7.653   9.385   3.037  0.4285  1.6767 -0.2045
  528MOL0     H71225   7.791   9.172   3.092  0.4317 -0.3631  0.6259
  528MOL0     H71226   7.815   9.220   3.257 -0.4153 -2.8929  0.4688
  528MOL0     H71227   7.637   9.050   3.233  2.3622  0.7743  2.6422
  528MOL0     H71228   7.605   9.183   3.330  2.3097  1.0266  0.3022
  528MOL0     H71229   7.511   9.144   3.046  1.3651 -1.2696  0.1221
  528MOL0     H71230   7.455   9.283   3.154 -3.0113 -1.3238  1.0521
  528MOL0     H71231   7.381   8.891   3.175 -0.2368 -1.5685  1.4533
  528MOL0     H71232   7.211   8.768   3.289  2.7375 -0.0753  3.5246
  528MOL0     H71233   7.175   8.859   3.432 -1.7005 -0.4296 -0.2276
  528MOL0     H71234   6.972   8.864   3.212 -0.6542 -0.1434  0.0128
  528MOL0     H71235   6.965   8.940   3.369 -2.3486 -1.9866  1.5265
  528MOL0     H71236   7.000   8.726   3.490 -1.8970 -1.1673  0.9715
  528MOL0     H71237   7.013   8.637   3.342  0.1052 -0.0003 -0.1918
  528MOL0     H71238   6.742   8.750   3.432 -0.5852  0.3086  1.6393
  528MOL0     H71239   6.801   8.585   3.416  2.0006  1.0787  2.5308
  528MOL0     H71240   6.542   8.617   3.348  2.5940 -1.5979 -0.2625
  528MOL0     H71241   6.285   8.531   3.265 -0.0287  0.7694 -1.4395
  528MOL0     H71242   6.321   8.664   3.378 -0.6321  0.9538  0.2724
  528MOL0     H71243   6.206   8.687   3.243 -1.2264 -3.1898 -2.5476
  528MOL0     H71244   6.205   8.585   2.693  0.9368 -0.5409 -0.1119
  528MOL0     H71245   6.011   8.595   2.538  1.2503  0.0493 -2.2231
  528MOL0     H71246   5.706   8.738   2.644  2.5310 -1.4626 -0.9434
  528MOL0     H71247   5.706   8.913   2.620  1.5353 -1.0267  0.4099
  528MOL0     H71248   5.612   8.863   2.376 -2.6490  0.3304 -0.0153
  528MOL0     H71249   5.574   8.708   2.451 -3.3100  0.5525  0.2634
  528MOL0     H71250   5.493   8.981   2.573 -1.0417  0.6326 -0.8244
  528MOL0     H71251   5.469   8.811   2.631  2.8646 -0.7806 -0.4886
  528MOL0     H71252   5.366   8.926   2.372 -3.2105  2.0684  0.3158
  528MOL0     H71253   5.343   8.760   2.427 -1.7595  1.9872 -2.8845
  528MOL0     H71254   5.240   9.031   2.538 -0.9997 -1.3387  0.7315
  528MOL0     H71255   5.216   8.880   2.631  0.4490 -0.9148 -0.1491
  528MOL0     H71256   5.128   8.875   2.341  0.1488  0.9624 -0.9401
  528MOL0     H71257   5.085   8.773   2.472 -4.9152  1.6000 -0.2267
  528MOL0     H71258   4.977   9.066   2.472 -1.1181  0.2562  0.5113
  528MOL0     H71259   4.935   8.947   2.581 -1.3731  4.8486 -0.0664
  528MOL0     H71260   4.866   8.798   2.383 -1.9021 -0.0651 -1.3984
  528MOL0     H71261   4.878   8.938   2.285 -3.3249  0.1439 -0.4992
  528MOL0     H71262   5.904   8.966   2.666 -0.9829 -0.4097 -1.3231
  528MOL0     H71263   6.124   8.982   2.826 -3.4931  0.5505  0.2667
  528MOL0     H71264   6.525   8.814   2.895 -0.9595  3.8979  2.1888
  528MOL0     H71265   6.739   8.804   3.015 -1.4904  2.4936 -0.5647
  528MOL0     H71266   8.434   9.379   3.253 -1.3958 -1.4591 -0.3400
  528MOL0     H71267   8.694   9.432   3.214 -0.7823  1.5613 -4.6493
  528MOL0     H71268   9.139   9.043   3.273  0.8642 -0.7091 -1.3455
  528MOL0     H71269   9.357   9.117   3.320 -0.1390  0.6488 -0.0985
  528MOL0     H71270   9.493   9.527   3.196 -1.8612 -1.7068  0.0102
  528MOL0     H71271   9.436   9.507   3.366  0.8061 -2.0948  2.2032
  528MOL0     H71272   9.656   9.457   3.437 -0.5325  3.8998  0.8198
  528MOL0     H71273   9.656   9.593   3.328  2.0064  0.3068 -5.4310
  528MOL0     H71274   9.716   9.415   3.133  2.3356  2.2405 -0.4143
  528MOL0     H71275   9.720   9.296   3.255  1.9050 -0.8930 -0.6576
  528MOL0     H71276   9.863   9.548   3.284 -1.7401  0.0670  0.7994
  528MOL0     H71277   9.929   9.415   3.169  0.2987 -0.5046 -0.0851
  528MOL0     H71278  10.017   9.249   3.555 -0.2713  0.0854  0.0866
  528MOL0     H71279   9.284   9.494   3.140  2.3858 -0.2131  2.0162
  528MOL0     H71280   9.061   9.404   3.072 -1.4017  1.1064  2.2543
  529MOL0     O71281  10.182   6.856   2.564 -0.5806  0.3645 -0.3441
  529MOL0     C71282  10.226   6.776   2.645 -0.4411 -0.0937 -0.0946
  529MOL0     O71283  10.180   6.766   2.775  0.1763 -0.5126 -0.4998
  529MOL0     C71284  10.089   6.858   2.824  0.7414 -0.4826  0.3814
  529MOL0     C71285   9.958   6.852   2.776 -0.5709  0.2965  0.3858
  529MOL0     C71286   9.855   6.929   2.829 -0.2796  0.4873  0.2735
  529MOL0     C71287   9.882   7.021   2.932 -0.9411 -0.3993  0.9904
  529MOL0     O71288   9.789   7.110   2.989 -0.0599  0.6159  0.5948
  529MOL0     C71289   9.655   7.076   2.970  0.3311  0.3013  0.0961
  529MOL0     C71290   9.564   7.177   3.034  0.3326  0.0101 -0.1568
  529MOL0     C71291   9.420   7.137   3.053 -0.7013 -1.3735 -0.3850
  529MOL0     C71292   9.346   7.095   2.922 -0.3532 -0.4509 -0.5512
  529MOL0     C71293   9.200   7.058   2.954  0.1050 -0.1706  0.4599
  529MOL0     C71294   9.128   7.163   3.030  0.1681  0.0964  0.1458
  529MOL0     C71295   8.977   7.144   3.032 -0.4425  0.2088  0.1815
  529MOL0     C71296   8.909   7.222   3.137  0.3534 -0.3339  0.1824
  529MOL0     N71297   8.765   7.227   3.136  0.9575 -0.5300  0.4585
  529MOL0     C71298   8.688   7.114   3.118 -0.7701 -0.0249 -0.8121
  529MOL0     C71299   8.563   7.150   3.095  0.4511 -0.4962  0.0320
  529MOL0     C71300   8.452   7.050   3.084  0.6082  0.3514  0.6959
  529MOL0     C71301   8.311   7.107   3.110  0.4630 -0.4204 -0.2770
  529MOL0     C71302   8.195   7.023   3.044 -0.1484  0.7207  0.4879
  529MOL0     C71303   8.077   7.115   3.046  0.5674  0.7707 -0.1691
  529MOL0     O71304   7.969   7.029   3.024  0.0370  0.0000  0.2088
  529MOL0     C71305   7.845   7.082   3.021 -0.8111 -0.2090 -0.8072
  529MOL0     C71306   7.808   7.213   3.062  0.6310  0.3544 -0.2044
  529MOL0     C71307   7.677   7.256   3.068 -0.7699 -0.2857 -0.4064
  529MOL0     C71308   7.640   7.395   3.112 -0.3465  0.1204 -0.5163
  529MOL0     C71309   7.571   7.162   3.028  0.6123  1.1360 -0.6934
  529MOL0     C71310   7.422   7.196   3.032 -1.1062  0.9585 -0.4303
  529MOL0     O71311   7.344   7.089   3.018 -0.4028  0.0622  0.1088
  529MOL0     C71312   7.209   7.115   3.000 -0.0187  0.4843  0.3484
  529MOL0     C71313   7.166   7.175   2.884 -0.5774 -1.2214  1.1493
  529MOL0     C71314   7.034   7.194   2.864  0.4214  0.5273 -0.1716
  529MOL0     C71315   6.936   7.173   2.958 -0.1568  0.8534  0.5688
  529MOL0     O71316   6.804   7.187   2.932 -0.2778 -0.4491  0.7467
  529MOL0     C71317   6.758   7.301   2.862  0.3116  0.0889  0.4187
  529MOL0     C71318   6.613   7.325   2.890 -0.9233  0.7643 -0.2221
  529MOL0     C71319   6.572   7.461   2.841 -0.8652  0.2438 -0.0552
  529MOL0     C71320   6.415   7.473   2.844  0.1733 -0.0465  0.8782
  529MOL0     C71321   6.381   7.616   2.784 -0.9069  0.5635 -0.5708
  529MOL0     C71322   6.458   7.731   2.850 -0.0349  0.3038 -0.7597
  529MOL0     C71323   6.440   7.758   3.004  0.2660  0.5469 -0.1940
  529MOL0     C71324   6.297   7.810   3.049 -0.6826 -0.2428  0.4401
  529MOL0    Cl71325   6.263   7.967   2.973  0.1843 -0.1574 -0.1998
  529MOL0     C71326   6.980   7.109   3.074  0.1996  0.2511 -0.7183
  529MOL0     C71327   7.110   7.095   3.100 -0.1041 -0.8313 -0.6253
  529MOL0     O71328   7.391   7.308   3.067  0.0099 -0.1663  0.0293
  529MOL0     C71329   7.608   7.037   2.983 -0.7827  0.7621 -0.9431
  529MOL0     C71330   7.747   7.001   2.976  0.1962 -0.3146  0.2957
  529MOL0     N71331   8.557   7.290   3.109 -0.4510 -0.6965  0.6009
  529MOL0     N71332   8.680   7.333   3.123 -0.2690  1.2934 -1.0212
  529MOL0     C71333  10.017   7.037   2.973 -0.8213  1.1979  0.3494
  529MOL0     C71334  10.121   6.954   2.924  0.2655 -0.0113  0.8845
  529MOL0     C71335  10.333   6.683   2.602 -0.0184 -0.4498  0.3516
  529MOL0     C71336  10.356   6.649   2.465  0.8761 -0.3495 -0.1269
  529MOL0     C71337  10.457   6.557   2.420  0.5370 -0.8668 -0.2915
  529MOL0     C71338  10.537   6.496   2.512  0.0698 -0.8243  0.8172
  529MOL0     O71339  10.632   6.405   2.487  0.0522  0.4228  0.3023
  529MOL0     C71340  10.690   6.389   2.359 -0.3401 -0.6833  0.6044
  529MOL0     C71341  10.791   6.508   2.335 -0.0352  0.1339 -0.7013
  529MOL0     C71342  10.877   6.463   2.215  0.5220 -0.1306  0.1372
  529MOL0     C71343  10.989   6.562   2.187 -0.6262 -0.2362 -0.4076
  529MOL0     C71344  11.091   6.583   2.293 -0.6012 -0.3634 -0.3582
  529MOL0     C71345  11.186   6.591   2.371 -0.2545  0.1233  0.8020
  529MOL0     C71346  10.505   6.520   2.646 -0.5627  0.8572  0.2305
  529MOL0     C71347  10.408   6.612   2.690 -0.8782 -0.3239  0.2020
  529MOL0     H71348   9.935   6.774   2.705  0.3660  0.2770  0.0979
  529MOL0     H71349   9.757   6.909   2.786  0.8814 -1.7787 -1.4906
  529MOL0     H71350   9.626   7.044   2.870 -1.9068  2.3513 -0.0111
  529MOL0     H71351   9.629   6.982   3.019 -0.9221  0.7113  0.2673
  529MOL0     H71352   9.598   7.199   3.136 -1.4988  0.3473  0.4161
  529MOL0     H71353   9.565   7.272   2.980 -1.8716  0.0360 -0.2250
  529MOL0     H71354   9.423   7.066   3.136  2.2574 -1.1387 -0.1982
  529MOL0     H71355   9.367   7.220   3.100 -0.8693  0.4714 -3.5050
  529MOL0     H71356   9.345   7.186   2.861 -0.6933  0.7100  1.1250
  529MOL0     H71357   9.395   7.018   2.861  0.0550  1.0698 -2.2214
  529MOL0     H71358   9.157   7.053   2.854  0.5736 -1.3449  0.2955
  529MOL0     H71359   9.201   6.966   3.013  1.5542 -0.8682 -0.5885
  529MOL0     H71360   9.156   7.161   3.135  1.6757  0.1058 -0.2329
  529MOL0     H71361   9.161   7.262   2.994 -0.6092  0.0424 -0.7711
  529MOL0     H71362   8.938   7.188   2.940 -0.4782 -5.3838 -2.8918
  529MOL0     H71363   8.942   7.041   3.026  1.1116 -0.2540 -2.2059
  529MOL0     H71364   8.948   7.323   3.117 -2.3279  0.5752 -0.9230
  529MOL0     H71365   8.936   7.190   3.238  0.1942 -0.3683  0.2127
  529MOL0     H71366   8.729   7.016   3.139  2.2805  0.9820 -1.5100
  529MOL0     H71367   8.457   7.003   2.985 -2.6198  0.7534  0.2371
  529MOL0     H71368   8.463   6.978   3.165 -2.2787  0.8662  1.6604
  529MOL0     H71369   8.317   7.206   3.064  2.9717 -1.1019 -1.5922
  529MOL0     H71370   8.298   7.130   3.216  0.3399  0.0620 -0.3921
  529MOL0     H71371   8.177   6.932   3.102 -2.4870  2.6375  3.0119
  529MOL0     H71372   8.207   6.992   2.940 -4.1304 -2.7367  0.8170
  529MOL0     H71373   8.090   7.186   2.963 -1.7955  2.3754  0.7500
  529MOL0     H71374   8.058   7.159   3.144 -0.7305  1.0398 -0.5198
  529MOL0     H71375   7.870   7.299   3.084  0.5796  0.7932 -1.6905
  529MOL0     H71376   7.581   7.444   3.034 -0.7655  1.7314  0.7629
  529MOL0     H71377   7.573   7.408   3.197  0.1701 -1.3256  0.1292
  529MOL0     H71378   7.731   7.456   3.119 -1.2508  1.4890 -0.3292
  529MOL0     H71379   7.239   7.192   2.806  1.4370 -2.4573  2.6518
  529MOL0     H71380   6.995   7.231   2.770  0.4188  2.9221  0.6963
  529MOL0     H71381   6.812   7.393   2.888 -4.1289  1.9856  4.5427
  529MOL0     H71382   6.769   7.270   2.758  0.6298 -2.9753  1.2746
  529MOL0     H71383   6.551   7.243   2.855  0.4475 -0.1246 -0.6484
  529MOL0     H71384   6.610   7.322   3.000  0.6190 -4.2902 -0.0614
  529MOL0     H71385   6.614   7.477   2.742  1.6882 -1.5878  0.6467
  529MOL0     H71386   6.615   7.523   2.920  1.8142 -1.4824 -0.0566
  529MOL0     H71387   6.371   7.395   2.782  0.1241  2.2087 -2.1810
  529MOL0     H71388   6.368   7.466   2.942 -0.2675  1.9041  0.8534
  529MOL0     H71389   6.277   7.639   2.810 -0.4690  0.2015  1.6810
  529MOL0     H71390   6.400   7.611   2.676  3.3094 -0.6254  0.0542
  529MOL0     H71391   6.565   7.715   2.835  0.3960  1.9325  0.2703
  529MOL0     H71392   6.431   7.821   2.794 -0.6809  1.5350  1.3758
  529MOL0     H71393   6.513   7.836   3.028 -0.6831  0.5213  3.4264
  529MOL0     H71394   6.467   7.670   3.064 -1.2518  0.5917  0.6057
  529MOL0     H71395   6.280   7.812   3.157 -3.0097  4.3112  0.2085
  529MOL0     H71396   6.220   7.742   3.012  0.2679 -0.3064 -1.5706
  529MOL0     H71397   6.898   7.079   3.139  1.3346 -2.2063 -0.2973
  529MOL0     H71398   7.145   7.054   3.194 -1.1289  1.9230  1.0540
  529MOL0     H71399   7.536   6.969   2.939  0.1217 -1.4650  0.8478
  529MOL0     H71400   7.774   6.907   2.929  1.4094  0.3388 -0.3714
  529MOL0     H71401  10.056   7.099   3.052  0.9086 -0.8799  1.2327
  529MOL0     H71402  10.226   6.949   2.952  0.8419  0.3780 -1.0364
  529MOL0     H71403  10.297   6.706   2.394 -0.3430 -0.4583  0.7772
  529MOL0     H71404  10.464   6.541   2.313  2.0618 -0.5479 -0.2633
  529MOL0     H71405  10.737   6.290   2.352  1.1184  0.0621 -0.9854
  529MOL0     H71406  10.609   6.385   2.286 -1.9591  0.3552  2.2714
  529MOL0     H71407  10.851   6.511   2.426 -1.1209 -1.5558  0.1102
  529MOL0     H71408  10.738   6.604   2.326  0.9246  0.9888  1.8300
  529MOL0     H71409  10.812   6.464   2.127 -0.4610 -0.7537  0.8293
  529MOL0     H71410  10.914   6.360   2.225  1.6775  0.2646  0.0531
  529MOL0     H71411  10.945   6.661   2.174 -2.2121 -0.9832 -0.9914
  529MOL0     H71412  11.049   6.531   2.100  1.9189 -0.1358  1.2098
  529MOL0     H71413  11.281   6.601   2.418  0.4598  0.1580 -0.5897
  529MOL0     H71414  10.570   6.468   2.715 -1.3395  2.6885  2.4637
  529MOL0     H71415  10.397   6.626   2.797 -1.9301 -1.6834  0.2972
  530MOL0     O71416   5.997   8.349   1.706 -0.4865 -0.1111 -0.0576
  530MOL0     C71417   6.028   8.231   1.715 -0.0009 -0.1418 -0.6472
  530MOL0     O71418   5.950   8.124   1.706 -0.2179  0.5709  0.0753
  530MOL0     C71419   5.815   8.136   1.716 -0.3765 -0.0286  0.3100
  530MOL0     C71420   5.738   8.225   1.794  0.0897 -0.5650  0.3741
  530MOL0     C71421   5.600   8.223   1.801  0.0843 -0.5488  0.7544
  530MOL0     C71422   5.537   8.124   1.723 -0.1872 -0.5245  0.1570
  530MOL0     O71423   5.402   8.112   1.705  0.3116 -0.1313 -0.0795
  530MOL0     C71424   5.313   8.136   1.819  0.5203  0.4170  0.3360
  530MOL0     C71425   5.179   8.068   1.785 -0.3284  0.2948  0.2086
  530MOL0     C71426   5.072   8.096   1.891  0.8540  0.1882  0.4906
  530MOL0     C71427   4.967   7.978   1.914 -0.8971  0.2990 -0.3856
  530MOL0     C71428   4.833   8.027   1.968  0.6493  0.1755 -0.2817
  530MOL0     C71429   4.757   7.908   2.023 -0.9301  0.1838  0.1344
  530MOL0     C71430   4.621   7.930   2.076  0.0898  0.4360 -1.1988
  530MOL0     C71431   4.552   7.786   2.104  0.0700 -0.3397 -0.1812
  530MOL0     N71432   4.415   7.799   2.152  0.0139  0.0994  0.8912
  530MOL0     C71433   4.303   7.713   2.141  0.0636  0.2830  0.0230
  530MOL0     C71434   4.202   7.756   2.224 -0.2511 -0.2543  0.8735
  530MOL0     C71435   4.062   7.712   2.257 -0.3690  0.6574 -0.0511
  530MOL0     C71436   3.999   7.769   2.383  0.5817 -0.2335 -0.2392
  530MOL0     C71437   3.857   7.729   2.396  0.1275  0.2129  0.2573
  530MOL0     C71438   3.774   7.808   2.297 -0.0417  0.4262  0.5282
  530MOL0     O71439   3.633   7.823   2.328  0.5757  0.2796 -0.7364
  530MOL0     C71440   3.592   7.929   2.413  0.0924  0.0974  0.4834
  530MOL0     C71441   3.673   8.021   2.477  0.2623 -0.9301  0.2136
  530MOL0     C71442   3.627   8.102   2.583 -0.1290 -0.3174  0.7067
  530MOL0     C71443   3.714   8.208   2.632 -0.5743  0.3573 -0.7707
  530MOL0     C71444   3.484   8.100   2.608  0.7812 -0.1483 -0.3621
  530MOL0     C71445   3.417   8.210   2.694  0.1742  0.6089 -0.6966
  530MOL0     O71446   3.288   8.232   2.663 -0.5347 -0.2045 -0.3200
  530MOL0     C71447   3.222   8.332   2.732  0.3915 -0.2795 -0.4048
  530MOL0     C71448   3.179   8.450   2.669 -0.2599  0.9721  0.0808
  530MOL0     C71449   3.096   8.542   2.741  0.7206 -0.7102  0.5089
  530MOL0     C71450   3.065   8.522   2.878 -0.4013 -0.7318  0.3924
  530MOL0     O71451   2.988   8.603   2.956 -0.0985  0.8467 -0.6133
  530MOL0     C71452   2.926   8.724   2.908  0.0275 -0.2771 -0.0590
  530MOL0     C71453   2.863   8.794   3.030  0.5662 -1.0077  0.0443
  530MOL0     C71454   2.954   8.814   3.148 -1.0639 -0.1304 -0.4513
  530MOL0     C71455   3.039   8.951   3.140  0.2565 -0.5208  1.0397
  530MOL0     C71456   3.104   8.973   3.275 -0.2088 -0.1486  0.2773
  530MOL0     C71457   3.164   9.110   3.296  0.6714  0.2878 -0.9433
  530MOL0     C71458   3.213   9.132   3.437 -0.2434 -0.9214  0.2531
  530MOL0     C71459   3.308   9.242   3.447 -0.3682  0.2857 -0.4394
  530MOL0    Cl71460   3.225   9.393   3.386 -0.6043  0.2293 -0.1908
  530MOL0     C71461   3.124   8.415   2.940  0.4314 -0.2126  0.5839
  530MOL0     C71462   3.189   8.317   2.866 -0.7791 -0.2915  0.7465
  530MOL0     O71463   3.471   8.237   2.798 -0.0546 -0.4252  0.1248
  530MOL0     C71464   3.400   8.020   2.532  0.2692 -0.0892  0.7192
  530MOL0     C71465   3.454   7.929   2.435  0.2759  0.2692 -0.7300
  530MOL0     N71466   4.249   7.874   2.280 -0.0311  0.0631  0.6466
  530MOL0     N71467   4.375   7.890   2.247  0.1454 -0.5905  0.5911
  530MOL0     C71468   5.611   8.051   1.634 -0.7298  0.2075  0.5731
  530MOL0     C71469   5.750   8.055   1.626  0.1087 -0.8216  0.5600
  530MOL0     C71470   6.158   8.192   1.771  0.0598 -0.5992  0.1648
  530MOL0     C71471   6.240   8.296   1.825 -0.3242 -0.6210 -0.0854
  530MOL0     C71472   6.349   8.268   1.899  0.4060  0.5441 -0.2034
  530MOL0     C71473   6.391   8.136   1.930 -0.1588 -0.1692  0.8643
  530MOL0     O71474   6.500   8.102   2.009  0.8032 -0.3658 -0.2588
  530MOL0     C71475   6.554   8.197   2.108  0.1354  0.5977  0.1824
  530MOL0     C71476   6.659   8.121   2.188  0.8147 -0.7600 -0.2253
  530MOL0     C71477   6.736   8.211   2.288  0.4923 -0.3520 -0.6841
  530MOL0     C71478   6.826   8.121   2.380 -0.4023  0.2368 -0.4191
  530MOL0     C71479   6.760   8.077   2.503 -0.5722 -0.4738 -0.0817
  530MOL0     C71480   6.717   8.050   2.613  0.5842  0.1843  0.5686
  530MOL0     C71481   6.312   8.039   1.870 -0.4680  0.0873  0.3654
  530MOL0     C71482   6.195   8.061   1.794  0.4732 -0.2516 -0.4256
  530MOL0     H71483   5.792   8.307   1.840 -1.6110  1.4556 -1.0108
  530MOL0     H71484   5.544   8.289   1.867  1.1018  1.1751 -0.0621
  530MOL0     H71485   5.359   8.088   1.906  0.7009 -3.2759 -1.6065
  530MOL0     H71486   5.299   8.244   1.816  0.1552  0.4212 -4.1051
  530MOL0     H71487   5.136   8.105   1.691 -1.1074  3.2911  1.5955
  530MOL0     H71488   5.202   7.962   1.779 -0.1039  0.2837  1.0959
  530MOL0     H71489   5.116   8.124   1.987  1.6239  1.9694 -0.3542
  530MOL0     H71490   5.019   8.180   1.846 -0.9802 -1.1145  0.0887
  530MOL0     H71491   4.947   7.931   1.818  0.7657 -0.5166 -0.3647
  530MOL0     H71492   5.019   7.906   1.978  1.6858  0.6388 -1.9530
  530MOL0     H71493   4.840   8.098   2.051  0.0325 -2.0538  1.7862
  530MOL0     H71494   4.778   8.082   1.891  2.9793  2.1227 -0.6598
  530MOL0     H71495   4.751   7.830   1.946  0.9955 -1.0025  1.1082
  530MOL0     H71496   4.819   7.875   2.107 -0.2589  0.5210 -0.2205
  530MOL0     H71497   4.626   7.979   2.174 -0.3449 -1.8137  0.0116
  530MOL0     H71498   4.554   7.987   2.010 -1.7168  1.5195  1.4084
  530MOL0     H71499   4.612   7.736   2.180 -1.4264  0.6822  1.7975
  530MOL0     H71500   4.553   7.735   2.008 -4.6303  2.0552 -1.8599
  530MOL0     H71501   4.293   7.623   2.082 -1.9399  0.8801 -0.6270
  530MOL0     H71502   4.004   7.733   2.167 -1.6185  0.0570  0.6026
  530MOL0     H71503   4.062   7.603   2.266  1.5179  0.5724 -0.4586
  530MOL0     H71504   4.023   7.876   2.381  1.8926 -0.5153 -1.0907
  530MOL0     H71505   4.058   7.718   2.460 -0.8653 -0.5783  0.6850
  530MOL0     H71506   3.828   7.762   2.497  1.8663  0.1497  0.8119
  530MOL0     H71507   3.839   7.623   2.375  2.8130 -0.4760  1.1092
  530MOL0     H71508   3.768   7.758   2.199  0.2712  0.2649  0.5884
  530MOL0     H71509   3.813   7.906   2.269  0.2866 -0.0563 -0.8329
  530MOL0     H71510   3.776   8.026   2.441 -0.0669 -0.2648 -0.6896
  530MOL0     H71511   3.798   8.215   2.562  1.9659 -0.1821  2.0416
  530MOL0     H71512   3.672   8.309   2.624  1.3432  1.0886 -2.2431
  530MOL0     H71513   3.758   8.192   2.730 -0.7416  1.6491 -0.4582
  530MOL0     H71514   3.210   8.472   2.567  4.3171 -3.6783  0.0325
  530MOL0     H71515   3.066   8.633   2.692  0.1479 -1.3294 -0.3220
  530MOL0     H71516   3.000   8.782   2.852 -0.2126 -0.5788 -0.6951
  530MOL0     H71517   2.847   8.699   2.838  2.3501 -1.8103 -2.3263
  530MOL0     H71518   2.827   8.893   2.999  0.2518 -0.2972  2.4876
  530MOL0     H71519   2.780   8.732   3.066  0.0601  0.0708  0.7880
  530MOL0     H71520   3.027   8.732   3.156  0.1983  0.8787 -1.1920
  530MOL0     H71521   2.901   8.829   3.242 -1.1758  1.5480 -0.7541
  530MOL0     H71522   3.110   8.939   3.058 -1.7087  1.7074 -1.1573
  530MOL0     H71523   2.975   9.038   3.123  1.6707  0.2229 -0.8414
  530MOL0     H71524   3.193   8.909   3.281  2.1065  2.4889 -2.7475
  530MOL0     H71525   3.029   8.953   3.352 -1.8028 -0.4537 -1.2898
  530MOL0     H71526   3.256   9.126   3.239  0.8202 -0.5064 -0.9308
  530MOL0     H71527   3.095   9.188   3.261  0.0576  0.6708  1.0276
  530MOL0     H71528   3.263   9.041   3.473  1.1645 -0.3289 -0.1668
  530MOL0     H71529   3.137   9.158   3.512 -0.0662  1.6219 -0.3630
  530MOL0     H71530   3.395   9.222   3.384  0.0132  1.8647 -0.4509
  530MOL0     H71531   3.332   9.251   3.553 -0.5049  1.0692 -0.4688
  530MOL0     H71532   3.110   8.406   3.047  0.7627 -0.4479  0.6102
  530MOL0     H71533   3.234   8.241   2.929 -0.1938 -0.6175 -0.0582
  530MOL0     H71534   3.292   8.020   2.547 -0.2106 -0.8836 -2.1536
  530MOL0     H71535   3.392   7.855   2.386 -2.9574  0.0980  3.0672
  530MOL0     H71536   5.568   7.989   1.556 -0.6808  0.0740  0.6503
  530MOL0     H71537   5.797   7.982   1.561  1.8058 -0.2621  1.1028
  530MOL0     H71538   6.205   8.397   1.813 -2.2703 -0.6950  3.5600
  530MOL0     H71539   6.411   8.346   1.943  1.9048 -0.2631 -0.7929
  530MOL0     H71540   6.615   8.271   2.056  3.9475 -1.7959  0.8780
  530MOL0     H71541   6.475   8.229   2.177  0.5248  0.5059  0.6689
  530MOL0     H71542   6.728   8.076   2.116 -1.2478 -1.1169 -2.0897
  530MOL0     H71543   6.619   8.044   2.255  0.9390 -1.2297 -0.6859
  530MOL0     H71544   6.656   8.261   2.344  1.1488  0.4219 -0.4217
  530MOL0     H71545   6.797   8.288   2.240 -0.8697  1.2414  0.0249
  530MOL0     H71546   6.917   8.174   2.409 -0.4185 -1.1839  2.5464
  530MOL0     H71547   6.854   8.030   2.326 -1.3112 -1.3503  1.6284
  530MOL0     H71548   6.672   8.016   2.704  1.6656 -0.2493  0.9562
  530MOL0     H71549   6.334   7.933   1.880 -1.7968 -0.0508  2.6612
  530MOL0     H71550   6.135   7.980   1.752  1.6227 -0.8935 -0.8539
  531MOL0     O71551   0.428  10.746   5.569 -0.4252  0.1178 -0.0573
  531MOL0     C71552   0.380  10.640   5.620  0.2049 -0.8288 -0.7874
  531MOL0     O71553   0.270  10.631   5.698 -1.2407 -0.3502  0.2122
  531MOL0     C71554   0.242  10.740   5.781 -0.3970 -0.3676 -0.1252
  531MOL0     C71555   0.340  10.824   5.840  0.8577  0.1401  0.5270
  531MOL0     C71556   0.307  10.929   5.922  0.1147 -0.2952 -0.2583
  531MOL0     C71557   0.176  10.963   5.947 -0.0412  0.1880 -0.0304
  531MOL0     O71558   0.156  11.070   6.025  0.4832 -0.0509  0.3493
  531MOL0     C71559   0.029  11.136   6.015  0.7918  0.8030  0.4399
  531MOL0     C71560   0.038  11.260   6.098 -0.5505  0.9306 -0.4006
  531MOL0     C71561  -0.097  11.330   6.117 -0.0272  0.5450  0.2239
  531MOL0     C71562  -0.080  11.453   6.196  0.0060  0.0278 -0.2579
  531MOL0     C71563  -0.222  11.512   6.207 -0.0450  0.6144  0.8075
  531MOL0     C71564  -0.213  11.650   6.275  0.8097  0.2691  0.5333
  531MOL0     C71565  -0.346  11.719   6.287 -0.0301  0.4081 -0.2173
  531MOL0     C71566  -0.383  11.807   6.172 -0.4383 -0.6054 -0.1750
  531MOL0     N71567  -0.528  11.826   6.173  0.4321  0.4456 -0.0111
  531MOL0     C71568  -0.607  11.813   6.063 -0.3400 -0.2533  0.2519
  531MOL0     C71569  -0.731  11.849   6.099  0.2323 -0.5396 -0.8863
  531MOL0     C71570  -0.857  11.866   6.030  0.6652  0.9061  0.2164
  531MOL0     C71571  -0.877  11.996   5.968  0.6784 -0.5340  0.2589
  531MOL0     C71572  -0.963  11.986   5.846 -0.4606 -1.3487  0.7327
  531MOL0     C71573  -1.102  11.950   5.875 -0.2695 -0.2020 -0.5052
  531MOL0     O71574  -1.176  12.064   5.926  0.3484 -0.2065 -0.3355
  531MOL0     C71575  -1.304  12.021   5.940 -1.2890 -0.1340  0.3379
  531MOL0     C71576  -1.393  12.093   5.863 -0.8648  0.0815  0.4855
  531MOL0     C71577  -1.523  12.063   5.852 -0.5217  0.1411 -0.2924
  531MOL0     C71578  -1.595  12.130   5.737 -0.0307  0.2541  0.4139
  531MOL0     C71579  -1.575  11.958   5.932  0.8858  0.1243  0.1110
  531MOL0     C71580  -1.713  11.904   5.932 -1.5088 -0.8999  0.7223
  531MOL0     O71581  -1.748  11.832   6.046 -0.4759 -1.0680 -0.0828
  531MOL0     C71582  -1.870  11.790   6.077  0.1974  0.0320 -0.7173
  531MOL0     C71583  -1.874  11.718   6.198 -0.2128  0.2391  0.1406
  531MOL0     C71584  -1.992  11.678   6.259 -0.4664 -1.0685 -0.1195
  531MOL0     C71585  -2.112  11.703   6.198  0.2408  0.6226 -0.1334
  531MOL0     O71586  -2.224  11.664   6.265  0.4538 -0.2855 -0.3373
  531MOL0     C71587  -2.337  11.746   6.238  0.5534  0.1532  0.3992
  531MOL0     C71588  -2.447  11.682   6.328 -0.3325 -0.7980  0.5700
  531MOL0     C71589  -2.584  11.760   6.341 -0.3815  0.3190 -0.1472
  531MOL0     C71590  -2.672  11.662   6.421 -0.8525  0.7500 -0.5759
  531MOL0     C71591  -2.784  11.720   6.498  0.0376 -0.1668 -0.1846
  531MOL0     C71592  -2.886  11.808   6.413 -0.9980  0.8739 -0.0656
  531MOL0     C71593  -2.962  11.710   6.325 -0.6392 -0.8714 -0.9908
  531MOL0     C71594  -3.112  11.746   6.319 -0.1126  0.5094 -0.5438
  531MOL0    Cl71595  -3.128  11.919   6.261 -0.3525 -0.1069  0.1705
  531MOL0     C71596  -2.107  11.765   6.072  0.0042 -0.2380 -0.3930
  531MOL0     C71597  -1.992  11.811   6.013  0.3855  0.4023  0.2250
  531MOL0     O71598  -1.782  11.925   5.829  0.0000  0.6520 -0.3176
  531MOL0     C71599  -1.485  11.886   6.019 -0.8531 -0.0350 -0.1182
  531MOL0     C71600  -1.351  11.921   6.019 -0.2276 -0.3227  0.2196
  531MOL0     N71601  -0.726  11.891   6.231 -0.4273  0.2999  0.6853
  531MOL0     N71602  -0.600  11.875   6.273 -0.0261  0.3089  0.4564
  531MOL0     C71603   0.072  10.888   5.887  0.0344  0.5091  0.2933
  531MOL0     C71604   0.108  10.773   5.807  0.1301 -0.2875  0.0579
  531MOL0     C71605   0.432  10.502   5.589  0.1748  0.2684  0.1882
  531MOL0     C71606   0.562  10.480   5.537  0.3505  0.8578 -0.5250
  531MOL0     C71607   0.608  10.354   5.504 -0.4797  0.1874 -0.4590
  531MOL0     C71608   0.521  10.244   5.525 -0.1186  1.1880  0.1558
  531MOL0     O71609   0.559  10.122   5.470 -0.3036 -1.1931 -0.4207
  531MOL0     C71610   0.549  10.006   5.553 -0.5029  0.8339 -0.1805
  531MOL0     C71611   0.681   9.994   5.630 -0.1191 -0.0625  0.9022
  531MOL0     C71612   0.795   9.976   5.544  0.3007  0.0459 -0.1278
  531MOL0     C71613   0.914   9.926   5.613 -0.0881  0.8584 -0.1510
  531MOL0     C71614   1.032   9.913   5.530 -0.9295 -0.1482  0.5863
  531MOL0     C71615   1.135   9.904   5.460  1.0834  0.2833  0.1376
  531MOL0     C71616   0.396  10.261   5.572  0.0540 -0.0110  0.1798
  531MOL0     C71617   0.348  10.385   5.612 -0.6245 -0.3199 -0.3682
  531MOL0     H71618   0.444  10.811   5.814  0.1634 -2.8557 -1.3209
  531MOL0     H71619   0.396  10.973   5.965  1.5228 -0.6106 -2.6122
  531MOL0     H71620  -0.007  11.152   5.913  0.1202 -0.1109  0.5204
  531MOL0     H71621  -0.043  11.071   6.065  0.3130  1.9666  1.2926
  531MOL0     H71622   0.081  11.240   6.197 -0.1865  1.8676 -0.3543
  531MOL0     H71623   0.114  11.321   6.049 -1.9972  1.8040 -1.6292
  531MOL0     H71624  -0.141  11.348   6.019 -0.9830  0.4032  0.6143
  531MOL0     H71625  -0.165  11.254   6.155  1.6727 -1.8382 -1.2314
  531MOL0     H71626  -0.039  11.428   6.294  1.2437 -2.1326 -1.2561
  531MOL0     H71627  -0.007  11.518   6.147  0.2862  2.4544  3.0929
  531MOL0     H71628  -0.262  11.525   6.106  2.3402 -3.4711 -0.9568
  531MOL0     H71629  -0.289  11.444   6.260  1.7348 -1.0281  1.0910
  531MOL0     H71630  -0.164  11.642   6.372  2.7210  0.8590 -0.3533
  531MOL0     H71631  -0.144  11.715   6.221 -1.4864  1.4492 -1.1485
  531MOL0     H71632  -0.418  11.645   6.321 -0.1305  0.9367  0.7522
  531MOL0     H71633  -0.332  11.782   6.375 -1.6494  2.1367 -1.1172
  531MOL0     H71634  -0.346  11.752   6.085  0.8388  0.1458 -0.1395
  531MOL0     H71635  -0.337  11.906   6.167 -1.9142  0.0437 -3.5602
  531MOL0     H71636  -0.579  11.794   5.960 -0.3257  0.7195  0.0717
  531MOL0     H71637  -0.855  11.781   5.961 -2.0834 -0.4246  1.6093
  531MOL0     H71638  -0.941  11.847   6.098 -1.7485  2.0727 -2.2552
  531MOL0     H71639  -0.782  12.047   5.952  0.9629 -1.7700 -2.6481
  531MOL0     H71640  -0.925  12.069   6.034  2.6874  1.1525 -0.0442
  531MOL0     H71641  -0.915  11.929   5.766 -1.5365 -1.5400  0.2037
  531MOL0     H71642  -0.980  12.089   5.813  0.4522 -1.4193  0.0343
  531MOL0     H71643  -1.108  11.864   5.942 -1.0956  0.6037  0.4749
  531MOL0     H71644  -1.143  11.923   5.777 -1.1960 -0.7753  0.0372
  531MOL0     H71645  -1.348  12.166   5.797 -0.3896 -1.5879 -1.1110
  531MOL0     H71646  -1.552  12.217   5.686 -3.1345  2.6156  1.5386
  531MOL0     H71647  -1.596  12.046   5.667  3.7924  0.0593  0.3456
  531MOL0     H71648  -1.695  12.167   5.761 -0.5186 -0.3711 -0.5753
  531MOL0     H71649  -1.778  11.690   6.240 -0.0911 -1.0200 -0.9111
  531MOL0     H71650  -1.974  11.627   6.353  1.2058  1.3646  0.9685
  531MOL0     H71651  -2.326  11.848   6.276 -2.8571 -0.6072  3.9599
  531MOL0     H71652  -2.354  11.737   6.130  1.0362 -4.0022  0.5285
  531MOL0     H71653  -2.480  11.584   6.293  1.2860 -0.9275 -0.7236
  531MOL0     H71654  -2.406  11.661   6.427 -0.0375 -1.9237  0.2160
  531MOL0     H71655  -2.632  11.796   6.250 -0.2327  2.9221  0.7197
  531MOL0     H71656  -2.563  11.839   6.415 -0.0999  1.3693 -1.3148
  531MOL0     H71657  -2.707  11.586   6.352 -1.7044 -0.3665  1.0170
  531MOL0     H71658  -2.614  11.608   6.496 -2.9197 -0.0446  0.5243
  531MOL0     H71659  -2.741  11.789   6.571  0.8553 -0.0882 -0.7295
  531MOL0     H71660  -2.843  11.641   6.545 -0.3348  0.2976  0.1469
  531MOL0     H71661  -2.941  11.861   6.491 -1.9168  1.9246 -1.3727
  531MOL0     H71662  -2.846  11.887   6.348 -1.7675 -0.4476 -2.2486
  531MOL0     H71663  -2.953  11.607   6.360  0.5971 -0.1772  0.9377
  531MOL0     H71664  -2.927  11.712   6.222 -0.3957  0.9934 -0.9011
  531MOL0     H71665  -3.161  11.724   6.414  1.3549  0.0372  0.1211
  531MOL0     H71666  -3.154  11.676   6.245  1.3326 -2.1350  0.9769
  531MOL0     H71667  -2.197  11.795   6.019 -1.3901 -1.4460  1.1756
  531MOL0     H71668  -1.996  11.870   5.922  2.9193 -1.3115 -1.1122
  531MOL0     H71669  -1.511  11.804   6.085 -0.6877 -0.4399 -0.5438
  531MOL0     H71670  -1.277  11.878   6.085 -1.0906 -0.4329  1.1508
  531MOL0     H71671  -0.034  10.900   5.905 -0.2800 -1.0174 -0.4226
  531MOL0     H71672   0.026  10.710   5.772  0.7701 -0.7678 -0.6313
  531MOL0     H71673   0.633  10.555   5.503  0.9125  1.2016  1.2901
  531MOL0     H71674   0.704  10.327   5.461 -0.2479  1.9897 -1.1878
  531MOL0     H71675   0.467  10.011   5.625 -0.2524  1.8314  0.0532
  531MOL0     H71676   0.537   9.908   5.507 -0.5686  0.7962 -0.0822
  531MOL0     H71677   0.678   9.900   5.686  1.6876 -2.8053 -3.0745
  531MOL0     H71678   0.709  10.077   5.694 -1.1123 -1.0435  2.6807
  531MOL0     H71679   0.819  10.075   5.503  2.1468  0.2615  1.3625
  531MOL0     H71680   0.763   9.900   5.472 -3.0959  1.0774  0.1546
  531MOL0     H71681   0.894   9.827   5.654 -0.3704  1.1158  0.3522
  531MOL0     H71682   0.937   9.989   5.700 -2.9173 -1.2386  2.3211
  531MOL0     H71683   1.220   9.899   5.395  4.0952 -2.5256  3.9084
  531MOL0     H71684   0.327  10.177   5.566  0.6875 -0.5310  0.1014
  531MOL0     H71685   0.247  10.398   5.648 -1.2471  3.6389 -2.8822
  532MOL0     O71686   6.470   9.994   3.347 -0.4511  0.0796 -0.0718
  532MOL0     C71687   6.519   9.921   3.263  0.3210 -0.1702 -0.1650
  532MOL0     O71688   6.466   9.800   3.220  0.6731 -0.1975 -0.5558
  532MOL0     C71689   6.358   9.748   3.289 -0.2433  0.1602  0.1563
  532MOL0     C71690   6.380   9.679   3.407 -0.3100 -0.2811 -0.1148
  532MOL0     C71691   6.281   9.634   3.494  0.5885 -0.9752  0.2070
  532MOL0     C71692   6.147   9.634   3.449 -0.7829 -0.5735  0.6559
  532MOL0     O71693   6.028   9.612   3.516 -0.0563 -0.0306  0.1912
  532MOL0     C71694   6.045   9.540   3.638  0.7133  1.3325 -0.6429
  532MOL0     C71695   5.915   9.522   3.718  0.3298 -0.4850  0.5200
  532MOL0     C71696   5.935   9.432   3.841 -0.2765  0.3282 -0.5518
  532MOL0     C71697   5.793   9.438   3.920 -0.0764 -0.2713  0.4458
  532MOL0     C71698   5.793   9.391   4.061 -0.6771 -0.1293  0.0359
  532MOL0     C71699   5.642   9.398   4.103  0.1880  0.2832  0.5772
  532MOL0     C71700   5.643   9.362   4.250  0.0803  0.3349  0.0373
  532MOL0     C71701   5.501   9.351   4.308  0.6555 -0.0005  1.2257
  532MOL0     N71702   5.525   9.320   4.446 -0.5455  0.0103 -0.4752
  532MOL0     C71703   5.535   9.195   4.502 -0.3598 -0.4489  0.2756
  532MOL0     C71704   5.554   9.222   4.631  0.9106 -0.1541  0.2316
  532MOL0     C71705   5.553   9.117   4.741 -0.6722 -0.1588 -1.0812
  532MOL0     C71706   5.421   9.115   4.830  0.7503 -0.9927  0.4997
  532MOL0     C71707   5.398   9.260   4.885 -0.1786  0.3088  0.3312
  532MOL0     C71708   5.299   9.271   5.000  0.3230  0.2592  0.3890
  532MOL0     O71709   5.168   9.220   4.972  0.1308 -0.7986 -0.1793
  532MOL0     C71710   5.075   9.241   5.067  0.9947 -0.3840 -0.8198
  532MOL0     C71711   4.948   9.193   5.034  0.0960  0.2156 -0.6998
  532MOL0     C71712   4.843   9.209   5.129 -0.5300  0.4250  0.0020
  532MOL0     C71713   4.722   9.135   5.094  0.4231  0.2072  0.2119
  532MOL0     C71714   4.861   9.276   5.251 -0.0600 -0.0839  0.6834
  532MOL0     C71715   4.765   9.274   5.357  0.6278 -0.8881  0.4664
  532MOL0     O71716   4.759   9.383   5.439 -0.3005  0.4447  0.3307
  532MOL0     C71717   4.685   9.398   5.556  0.2026 -0.7829 -0.5098
  532MOL0     C71718   4.651   9.531   5.596 -1.1368  0.8499  0.1359
  532MOL0     C71719   4.575   9.551   5.706 -0.3033 -0.2676 -1.3766
  532MOL0     C71720   4.530   9.445   5.791  0.2338 -0.4716 -0.4008
  532MOL0     O71721   4.469   9.463   5.918  0.0432  0.6841 -0.6380
  532MOL0     C71722   4.527   9.551   6.015  0.2067 -0.1222  0.0759
  532MOL0     C71723   4.637   9.489   6.098  1.0468  0.8076 -0.5226
  532MOL0     C71724   4.570   9.376   6.171 -0.1522  0.9235 -0.0020
  532MOL0     C71725   4.635   9.353   6.304 -0.5953 -0.5579  0.5123
  532MOL0     C71726   4.781   9.315   6.279 -1.2072  1.2287 -0.2639
  532MOL0     C71727   4.842   9.220   6.388  0.1204  0.0805 -0.5782
  532MOL0     C71728   4.987   9.176   6.344 -0.2713  0.5922 -0.1377
  532MOL0     C71729   4.971   9.046   6.265  1.1053  0.1353  0.9501
  532MOL0    Cl71730   4.921   8.911   6.375 -0.2282  0.0784  0.3016
  532MOL0     C71731   4.544   9.318   5.749  0.3403 -0.2752  0.2447
  532MOL0     C71732   4.615   9.298   5.628 -0.7627  1.1533 -0.0351
  532MOL0     O71733   4.703   9.165   5.376  0.4005  0.1840 -0.0449
  532MOL0     C71734   4.987   9.325   5.276 -0.2080 -0.5133 -0.8632
  532MOL0     C71735   5.098   9.312   5.191  0.2697  0.5546 -0.3719
  532MOL0     N71736   5.559   9.359   4.649  0.4570 -0.7942 -0.1298
  532MOL0     N71737   5.540   9.417   4.539 -0.5512  0.3660  0.4771
  532MOL0     C71738   6.123   9.679   3.314 -0.3198  0.7143 -0.5361
  532MOL0     C71739   6.228   9.739   3.237  0.4135  0.3467  0.1600
  532MOL0     C71740   6.642   9.959   3.201 -0.8997 -0.4261 -0.7447
  532MOL0     C71741   6.719  10.068   3.263 -0.1416 -0.3727 -0.7159
  532MOL0     C71742   6.851  10.102   3.221  0.0426  0.0268  0.1428
  532MOL0     C71743   6.913  10.013   3.141 -0.1457  0.0403 -0.0880
  532MOL0     O71744   7.045  10.022   3.097  0.3792 -0.4078  0.4075
  532MOL0     C71745   7.124  10.140   3.111 -0.5063 -0.2034 -0.2133
  532MOL0     C71746   7.267  10.106   3.089  0.7322  0.2052 -0.8946
  532MOL0     C71747   7.326  10.038   3.215 -0.2452 -0.5412  0.1843
  532MOL0     C71748   7.479  10.016   3.211 -0.5111 -0.0052  0.9263
  532MOL0     C71749   7.510   9.898   3.133 -0.1864 -0.4767 -0.9895
  532MOL0     C71750   7.549   9.798   3.089 -0.8739 -0.4820 -0.2536
  532MOL0     C71751   6.845   9.911   3.071 -0.7212  0.1343  0.1699
  532MOL0     C71752   6.715   9.890   3.100 -0.1013 -0.1427 -0.1095
  532MOL0     H71753   6.483   9.680   3.439  0.3464 -2.0532 -1.9659
  532MOL0     H71754   6.312   9.611   3.595 -0.5938 -0.1967  0.7743
  532MOL0     H71755   6.076   9.439   3.609  0.5930  1.4593 -1.2284
  532MOL0     H71756   6.123   9.587   3.698  2.2895 -0.5225 -1.1484
  532MOL0     H71757   5.877   9.620   3.749 -0.1167 -0.3699 -0.3688
  532MOL0     H71758   5.834   9.471   3.666  0.3180 -0.4001  0.4536
  532MOL0     H71759   5.954   9.328   3.815 -0.6497 -0.0254  0.5343
  532MOL0     H71760   6.027   9.450   3.897 -2.4199  1.1471  3.0274
  532MOL0     H71761   5.757   9.541   3.908  0.1022 -0.3763 -1.4348
  532MOL0     H71762   5.727   9.372   3.864  0.0329 -0.7802  0.9160
  532MOL0     H71763   5.822   9.287   4.078 -2.4648 -0.4673  1.3084
  532MOL0     H71764   5.852   9.461   4.121  0.1573  0.3356 -1.2741
  532MOL0     H71765   5.603   9.497   4.082 -2.4280 -0.5064  1.3417
  532MOL0     H71766   5.587   9.334   4.033  2.0379 -1.5978  0.7141
  532MOL0     H71767   5.702   9.270   4.255  2.1584  1.4089 -2.3004
  532MOL0     H71768   5.690   9.441   4.310 -2.5725  0.1862  2.5104
  532MOL0     H71769   5.450   9.267   4.259 -1.6305  0.5839  2.4623
  532MOL0     H71770   5.437   9.440   4.305  0.1663 -0.3555 -1.5190
  532MOL0     H71771   5.521   9.096   4.460 -2.5632  0.1328 -0.5203
  532MOL0     H71772   5.564   9.017   4.697  1.0136 -1.2064  1.4775
  532MOL0     H71773   5.634   9.133   4.813 -1.9259 -2.0922  0.8998
  532MOL0     H71774   5.432   9.036   4.904 -0.2023 -0.7627  0.8951
  532MOL0     H71775   5.336   9.088   4.766  1.4993 -0.5448 -0.7295
  532MOL0     H71776   5.357   9.324   4.806 -1.5321 -0.1630  0.6248
  532MOL0     H71777   5.493   9.304   4.915  0.2785 -0.8697  0.6730
  532MOL0     H71778   5.283   9.378   5.020  0.3599  0.1586  0.9705
  532MOL0     H71779   5.343   9.228   5.090  2.2842  0.9157 -0.1897
  532MOL0     H71780   4.932   9.148   4.936 -2.9469  0.9263 -0.6354
  532MOL0     H71781   4.721   9.046   5.158 -3.8391  0.6863  1.0628
  532MOL0     H71782   4.629   9.188   5.113  0.2927 -0.3930  1.3311
  532MOL0     H71783   4.709   9.112   4.988 -1.7941  3.4710 -0.3307
  532MOL0     H71784   4.695   9.611   5.539 -1.1034  0.5817 -0.2167
  532MOL0     H71785   4.568   9.654   5.738 -1.4430 -0.4218 -1.0856
  532MOL0     H71786   4.556   9.646   5.970  1.6888 -0.8872 -0.6615
  532MOL0     H71787   4.449   9.578   6.087 -1.5137 -0.0108 -1.7635
  532MOL0     H71788   4.716   9.462   6.028  1.1969 -0.6416  0.1593
  532MOL0     H71789   4.674   9.557   6.175  3.7345 -1.5580  0.4437
  532MOL0     H71790   4.568   9.282   6.115 -0.0010  0.3798  0.8899
  532MOL0     H71791   4.463   9.396   6.174 -0.2502  0.8441 -1.6681
  532MOL0     H71792   4.617   9.442   6.364 -2.5852  0.5791 -1.6032
  532MOL0     H71793   4.577   9.270   6.345 -2.3046 -0.1025 -0.8359
  532MOL0     H71794   4.832   9.412   6.282  0.1361  0.5584 -0.3244
  532MOL0     H71795   4.793   9.259   6.186  1.0351 -0.4267  0.8969
  532MOL0     H71796   4.834   9.272   6.484  2.1609  2.2247 -1.4647
  532MOL0     H71797   4.791   9.123   6.389  0.6147 -0.2329 -2.1805
  532MOL0     H71798   5.045   9.155   6.434  0.3889  0.6281 -0.5481
  532MOL0     H71799   5.034   9.251   6.280 -3.5380  2.2025 -0.8674
  532MOL0     H71800   5.067   9.036   6.213 -0.2739 -0.5774 -1.5845
  532MOL0     H71801   4.889   9.064   6.196  0.6342  4.7481  2.3592
  532MOL0     H71802   4.511   9.235   5.810  1.3722 -1.2691 -0.5080
  532MOL0     H71803   4.637   9.196   5.598  2.4846  1.1748  1.8017
  532MOL0     H71804   4.996   9.378   5.370 -4.3357  0.0124 -0.5511
  532MOL0     H71805   5.196   9.343   5.225  0.2307 -0.1918  0.4606
  532MOL0     H71806   6.025   9.682   3.267  0.5585 -0.1575 -2.5450
  532MOL0     H71807   6.215   9.765   3.133 -0.7183  0.3451  0.2856
  532MOL0     H71808   6.667  10.149   3.312  1.9392 -0.7120  2.3710
  532MOL0     H71809   6.908  10.189   3.252  2.4374 -1.2812 -0.3355
  532MOL0     H71810   7.089  10.215   3.039 -4.8001 -1.3614  0.4067
  532MOL0     H71811   7.122  10.177   3.214  1.8432 -1.0937  0.1994
  532MOL0     H71812   7.326  10.194   3.061 -1.1574  1.9241  0.2047
  532MOL0     H71813   7.266  10.024   3.017  0.6526 -1.4846  0.9511
  532MOL0     H71814   7.280   9.939   3.224 -0.4404 -0.3701  1.3025
  532MOL0     H71815   7.297  10.100   3.301  1.2749 -1.8115  1.6633
  532MOL0     H71816   7.512  10.006   3.315 -1.2549  0.7083  1.2380
  532MOL0     H71817   7.524  10.108   3.171  0.3377 -1.1296 -0.8418
  532MOL0     H71818   7.579   9.704   3.049 -3.0921 -1.6186  0.6260
  532MOL0     H71819   6.907   9.845   3.011  0.1495 -0.2742  1.4953
  532MOL0     H71820   6.665   9.805   3.056  1.8835 -0.8907 -1.0514
  533MOL0     O71821   9.135   0.848   2.377 -0.4488 -0.2229 -0.6591
  533MOL0     C71822   9.132   0.939   2.463  0.5008 -0.8359  0.5915
  533MOL0     O71823   9.031   0.971   2.546  1.1063 -0.1587  0.2789
  533MOL0     C71824   8.910   0.902   2.542  0.3350 -0.0335  0.0028
  533MOL0     C71825   8.894   0.766   2.564 -0.2025 -0.1920 -0.0680
  533MOL0     C71826   8.770   0.700   2.564  0.1889 -0.1992  0.1603
  533MOL0     C71827   8.650   0.772   2.554  0.1369 -0.0163 -0.1961
  533MOL0     O71828   8.531   0.704   2.567 -0.2884  0.5643  0.4726
  533MOL0     C71829   8.405   0.771   2.543  0.0821  1.0004 -0.4485
  533MOL0     C71830   8.294   0.672   2.579 -0.3373  0.1470 -0.4985
  533MOL0     C71831   8.296   0.644   2.737  0.0843  0.2249  0.5440
  533MOL0     C71832   8.154   0.660   2.793 -0.8180  0.0614 -0.8485
  533MOL0     C71833   8.137   0.643   2.948 -0.2577 -0.3416  0.6087
  533MOL0     C71834   7.997   0.565   2.980 -0.3524 -0.8178 -0.3743
  533MOL0     C71835   7.991   0.507   3.115 -0.3724  0.1366 -0.0626
  533MOL0     C71836   7.999   0.608   3.231 -1.6084  0.4329  0.5570
  533MOL0     N71837   7.899   0.723   3.215 -0.1264  0.4811 -0.0221
  533MOL0     C71838   7.796   0.735   3.303 -0.0880 -0.4177 -0.2022
  533MOL0     C71839   7.740   0.855   3.268 -0.3533 -0.4417 -0.3023
  533MOL0     C71840   7.620   0.907   3.333  0.7940 -0.3923  0.1681
  533MOL0     C71841   7.478   0.856   3.294 -0.3678  0.7506 -0.0738
  533MOL0     C71842   7.449   0.870   3.134 -0.0818 -0.3406 -0.3229
  533MOL0     C71843   7.301   0.850   3.123  0.0752 -0.0500 -0.7574
  533MOL0     O71844   7.284   0.844   2.986  0.1461 -0.5262  0.3326
  533MOL0     C71845   7.152   0.813   2.961  0.5652  0.2391 -0.1272
  533MOL0     C71846   7.122   0.684   2.923  0.0964 -0.3189  0.3399
  533MOL0     C71847   6.991   0.641   2.884 -0.5003 -1.4444 -0.5997
  533MOL0     C71848   6.986   0.501   2.840  0.2411  0.3979  0.5684
  533MOL0     C71849   6.885   0.742   2.891  0.3460  0.5004  0.6658
  533MOL0     C71850   6.742   0.708   2.868  1.2451 -0.3754  0.2641
  533MOL0     O71851   6.641   0.800   2.904 -0.4268  1.2952  0.0626
  533MOL0     C71852   6.514   0.769   2.893  0.1843  0.3276  0.1710
  533MOL0     C71853   6.466   0.645   2.942  0.0004 -1.2287 -0.2161
  533MOL0     C71854   6.325   0.629   2.949 -0.2094  0.2531 -0.4778
  533MOL0     C71855   6.234   0.725   2.900 -0.4930 -0.3956  0.4214
  533MOL0     O71856   6.095   0.712   2.892 -0.0754  0.2505  0.2873
  533MOL0     C71857   6.040   0.598   2.958  1.3966  0.5434  0.2581
  533MOL0     C71858   5.886   0.606   2.924 -0.3187 -0.1400  0.1302
  533MOL0     C71859   5.801   0.491   2.990 -0.0935 -0.8639 -0.3196
  533MOL0     C71860   5.654   0.504   2.940 -0.2801 -0.3387  0.2893
  533MOL0     C71861   5.572   0.598   3.030 -0.3099 -0.9310 -0.4015
  533MOL0     C71862   5.429   0.614   2.985  0.1195 -0.2521  0.1629
  533MOL0     C71863   5.334   0.702   3.062  0.2320  0.1486  0.0401
  533MOL0     C71864   5.375   0.843   3.032 -0.0872 -0.1395  0.3169
  533MOL0    Cl71865   5.293   0.931   3.164 -0.1079 -0.1552 -0.1561
  533MOL0     C71866   6.290   0.845   2.848 -0.0686  0.2599  0.6129
  533MOL0     C71867   6.426   0.870   2.849 -0.3595 -0.2365 -0.0490
  533MOL0     O71868   6.720   0.607   2.798  0.3618  0.1648  0.7407
  533MOL0     C71869   6.921   0.871   2.936  0.6583  0.4754  0.4350
  533MOL0     C71870   7.050   0.909   2.964  0.3845 -1.3833  0.7231
  533MOL0     N71871   7.823   0.923   3.182  0.3900 -0.5618 -0.5446
  533MOL0     N71872   7.911   0.840   3.148 -0.0771  0.1993  0.3530
  533MOL0     C71873   8.664   0.915   2.529 -0.1280  1.0161  0.7842
  533MOL0     C71874   8.792   0.968   2.523 -0.3381  0.4221  0.1205
  533MOL0     C71875   9.257   1.018   2.480  0.7528 -1.0544  0.4822
  533MOL0     C71876   9.368   0.997   2.402  0.2124  0.0516 -0.1599
  533MOL0     C71877   9.497   1.026   2.444 -0.2534  0.6708  0.3116
  533MOL0     C71878   9.514   1.085   2.573 -0.6216  0.0032 -0.5168
  533MOL0     O71879   9.635   1.126   2.622 -0.0002  0.0300 -0.0720
  533MOL0     C71880   9.755   1.086   2.559  0.0003  0.8307 -0.6418
  533MOL0     C71881   9.789   1.179   2.441 -0.5242 -0.2701  0.1315
  533MOL0     C71882   9.930   1.169   2.385 -0.3205  0.1750 -0.6401
  533MOL0     C71883  10.041   1.208   2.479  0.7994 -0.8629  0.7291
  533MOL0     C71884  10.036   1.351   2.515 -0.1715 -0.0424 -0.4540
  533MOL0     C71885  10.045   1.467   2.558  0.0414  0.4043  0.7587
  533MOL0     C71886   9.401   1.120   2.647 -0.6725  0.5000 -0.8596
  533MOL0     C71887   9.268   1.094   2.600  0.0533  0.5449 -0.0171
  533MOL0     H71888   8.991   0.721   2.582 -0.3515 -0.4185  0.1761
  533MOL0     H71889   8.770   0.592   2.572 -0.1693 -0.1005  1.8026
  533MOL0     H71890   8.397   0.854   2.614 -3.6878  0.4886 -0.0548
  533MOL0     H71891   8.377   0.795   2.439 -0.2583 -0.1907 -0.6500
  533MOL0     H71892   8.199   0.709   2.540  0.1383  0.2523 -1.5946
  533MOL0     H71893   8.310   0.582   2.520 -0.7882 -0.4153  0.2178
  533MOL0     H71894   8.338   0.546   2.758 -0.2932  0.3538  1.9579
  533MOL0     H71895   8.366   0.717   2.780  0.4447  0.6630 -0.7247
  533MOL0     H71896   8.117   0.756   2.756 -0.1508  0.7748  0.2571
  533MOL0     H71897   8.091   0.586   2.743 -2.7233  2.0880 -1.5751
  533MOL0     H71898   8.222   0.585   2.984  0.4264 -1.6126 -2.6994
  533MOL0     H71899   8.149   0.748   2.979  2.4533  0.3892 -2.4914
  533MOL0     H71900   7.915   0.637   2.980 -0.0054 -0.3648  1.4669
  533MOL0     H71901   7.980   0.483   2.909  0.5434 -0.5340 -0.9201
  533MOL0     H71902   7.902   0.446   3.127  0.9863 -1.5277  2.4874
  533MOL0     H71903   8.070   0.431   3.119 -0.5964 -0.1880 -1.2952
  533MOL0     H71904   8.098   0.654   3.235 -1.6665  0.6519 -0.3690
  533MOL0     H71905   7.978   0.553   3.324 -1.3585  1.5348  1.2882
  533MOL0     H71906   7.766   0.653   3.368  0.0576 -0.0451  0.3352
  533MOL0     H71907   7.619   0.894   3.442  1.4395  2.3567  0.5698
  533MOL0     H71908   7.619   1.015   3.317 -0.6484  0.2814  3.8017
  533MOL0     H71909   7.405   0.920   3.343 -2.8257 -0.1805 -2.2671
  533MOL0     H71910   7.461   0.752   3.325  0.8345  1.0233  1.5908
  533MOL0     H71911   7.507   0.791   3.084  3.6029  1.5275  0.5889
  533MOL0     H71912   7.470   0.971   3.098 -0.3898 -0.6822 -1.5054
  533MOL0     H71913   7.238   0.921   3.177  2.4570  1.5475  0.1272
  533MOL0     H71914   7.274   0.753   3.166 -1.8914 -0.5216 -2.8830
  533MOL0     H71915   7.200   0.609   2.932 -1.9540 -2.4702  1.2947
  533MOL0     H71916   6.994   0.492   2.732 -2.4005  0.7215  0.2774
  533MOL0     H71917   7.070   0.446   2.883  1.9262  1.1143 -1.6328
  533MOL0     H71918   6.890   0.459   2.871  0.0208  0.1331 -0.4350
  533MOL0     H71919   6.538   0.580   2.990  2.0917  1.3511  0.3717
  533MOL0     H71920   6.286   0.540   2.997 -2.9997  0.6974 -1.7209
  533MOL0     H71921   6.071   0.500   2.920  0.6169  0.0799  0.7921
  533MOL0     H71922   6.062   0.598   3.065  0.0448 -3.1023  0.6874
  533MOL0     H71923   5.858   0.705   2.959 -0.0452 -0.1988  0.5160
  533MOL0     H71924   5.870   0.600   2.815 -1.6497 -2.1985  0.3735
  533MOL0     H71925   5.795   0.489   3.100 -0.4249 -1.1327 -0.3424
  533MOL0     H71926   5.836   0.398   2.946 -0.0749 -1.9744  1.9113
  533MOL0     H71927   5.647   0.545   2.839 -0.8733 -0.0708  0.4326
  533MOL0     H71928   5.608   0.405   2.930  1.3873 -0.9994 -1.5905
  533MOL0     H71929   5.620   0.695   3.041 -2.4221  0.7774 -4.2287
  533MOL0     H71930   5.559   0.548   3.126 -1.0031 -1.4631 -0.7595
  533MOL0     H71931   5.429   0.644   2.880  0.4425  3.1596  1.0280
  533MOL0     H71932   5.380   0.516   2.975 -1.5022  0.2423  2.3518
  533MOL0     H71933   5.344   0.668   3.165 -1.4317 -2.0604 -0.4558
  533MOL0     H71934   5.228   0.698   3.036 -0.4612  2.1527  2.2217
  533MOL0     H71935   5.336   0.867   2.933 -0.0555  2.9005  0.9502
  533MOL0     H71936   5.479   0.877   3.036 -0.1941  0.1000  1.7726
  533MOL0     H71937   6.225   0.922   2.808  1.3327  0.3587 -1.6696
  533MOL0     H71938   6.466   0.961   2.805 -1.8892 -1.0918 -3.4953
  533MOL0     H71939   6.834   0.934   2.949 -0.2208 -0.9036  1.6525
  533MOL0     H71940   7.071   1.008   3.004  0.9690 -1.3688  0.3870
  533MOL0     H71941   8.572   0.969   2.512  0.6054  2.0887  0.1121
  533MOL0     H71942   8.801   1.075   2.504 -1.0798  0.4351 -0.1718
  533MOL0     H71943   9.348   0.938   2.313 -0.0424 -0.1824  0.0515
  533MOL0     H71944   9.578   0.990   2.382 -2.0337  0.3692 -1.9394
  533MOL0     H71945   9.826   1.109   2.639 -1.2093 -1.6772  1.3312
  533MOL0     H71946   9.758   0.980   2.532  2.9141  1.5503 -3.8309
  533MOL0     H71947   9.749   1.275   2.475 -4.3765 -2.9095  4.0654
  533MOL0     H71948   9.726   1.147   2.358  1.5441  1.8440 -2.4287
  533MOL0     H71949   9.942   1.233   2.297 -0.1411 -1.8100 -2.1208
  533MOL0     H71950   9.948   1.069   2.347 -0.4646 -0.0521 -0.1202
  533MOL0     H71951  10.142   1.194   2.439  1.4110  2.2008  0.9517
  533MOL0     H71952  10.026   1.161   2.577 -0.6640  2.4903  2.2703
  533MOL0     H71953  10.063   1.568   2.588 -2.9676  0.9097  1.1313
  533MOL0     H71954   9.412   1.161   2.747 -1.4239 -3.4170  1.0336
  533MOL0     H71955   9.182   1.106   2.665 -0.1495  0.7821 -0.3209
  534MOL0     O71956  10.542   5.857   6.805  0.0166 -0.3178 -0.2803
  534MOL0     C71957  10.600   5.833   6.916  0.6484  0.3697  1.0991
  534MOL0     O71958  10.550   5.855   7.042 -0.2621 -0.3639 -0.4270
  534MOL0     C71959  10.416   5.897   7.057  0.0618 -0.8015 -0.4452
  534MOL0     C71960  10.307   5.892   6.973 -0.5476 -0.4474  0.0574
  534MOL0     C71961  10.184   5.961   6.996  1.4694 -0.0230 -0.9565
  534MOL0     C71962  10.169   6.030   7.115  0.1462  0.1911  0.1868
  534MOL0     O71963  10.061   6.115   7.137  0.3278  0.9329  0.4006
  534MOL0     C71964   9.992   6.105   7.261 -0.6154 -0.8142  0.9219
  534MOL0     C71965   9.892   5.994   7.259  0.7232 -0.5316  0.6214
  534MOL0     C71966   9.810   5.997   7.391  0.2316  0.5108 -0.0925
  534MOL0     C71967   9.697   5.884   7.407 -0.2740 -0.3407  0.0327
  534MOL0     C71968   9.759   5.751   7.441  0.2965 -0.5029 -0.6782
  534MOL0     C71969   9.705   5.635   7.356 -0.7150  0.0060  0.4725
  534MOL0     C71970   9.772   5.636   7.219 -0.0307  0.1704 -0.5031
  534MOL0     C71971   9.753   5.507   7.141  0.8183  0.2197  0.8891
  534MOL0     N71972   9.625   5.514   7.071 -0.2473  0.1214 -0.4477
  534MOL0     C71973   9.496   5.492   7.127 -0.3567  0.7613 -0.7013
  534MOL0     C71974   9.407   5.514   7.030 -0.0298  0.4546  0.1085
  534MOL0     C71975   9.256   5.531   7.050 -0.6661  0.1641 -1.1208
  534MOL0     C71976   9.196   5.402   7.114 -0.9882 -0.2649  0.6059
  534MOL0     C71977   9.044   5.403   7.137  0.7642  0.1359  0.6581
  534MOL0     C71978   8.964   5.463   7.021  0.7089 -0.1332 -0.7519
  534MOL0     O71979   8.826   5.455   7.045 -0.1372 -0.3811 -0.1876
  534MOL0     C71980   8.750   5.341   7.027  0.3353 -0.1192 -0.0001
  534MOL0     C71981   8.638   5.317   7.110 -0.2292 -0.0887 -0.1810
  534MOL0     C71982   8.556   5.200   7.098  0.3419 -0.5896 -0.2479
  534MOL0     C71983   8.439   5.188   7.194  0.0781  0.0540 -0.4773
  534MOL0     C71984   8.577   5.110   6.992  0.1164  0.0418 -0.6305
  534MOL0     C71985   8.496   4.988   6.970 -0.2223  0.7202 -0.7573
  534MOL0     O71986   8.378   4.980   7.038 -0.4547  0.3495 -0.5354
  534MOL0     C71987   8.286   4.886   6.994 -0.0931  1.2490  0.0329
  534MOL0     C71988   8.267   4.864   6.856 -0.3530 -0.7145 -0.4148
  534MOL0     C71989   8.190   4.761   6.810  0.4880 -0.6468  0.2119
  534MOL0     C71990   8.118   4.675   6.891  0.3007  1.0941 -0.4283
  534MOL0     O71991   8.049   4.571   6.827  0.0896 -0.6375  1.1142
  534MOL0     C71992   7.935   4.522   6.902 -0.2853 -0.3799  0.2677
  534MOL0     C71993   7.852   4.445   6.802 -0.5197 -0.3285 -0.0058
  534MOL0     C71994   7.726   4.387   6.871  0.3291 -0.0731 -0.9715
  534MOL0     C71995   7.624   4.492   6.923 -0.3160 -0.0284  0.2517
  534MOL0     C71996   7.490   4.461   6.850  0.0860  0.1677 -0.2830
  534MOL0     C71997   7.390   4.589   6.866  0.2875  0.1868 -0.1090
  534MOL0     C71998   7.272   4.565   6.777  0.7142 -0.8044  0.2401
  534MOL0     C71999   7.153   4.667   6.800  0.5524  0.0524  0.4898
  534MOL0    Cl72000   7.034   4.653   6.670 -0.0158  0.0386 -0.0784
  534MOL0     C72001   8.115   4.712   7.029 -0.2238 -0.2731  0.8489
  534MOL0     C72002   8.197   4.812   7.075  0.6606  0.4895  0.4824
  534MOL0     O72003   8.551   4.894   6.906 -0.2516 -0.5242  0.1011
  534MOL0     C72004   8.691   5.132   6.910  0.2065  0.3187 -0.1389
  534MOL0     C72005   8.774   5.245   6.925 -1.0286 -0.4368  0.4918
  534MOL0     N72006   9.474   5.548   6.914  0.0100 -0.3427 -0.0259
  534MOL0     N72007   9.604   5.548   6.941  0.1946  0.9257  0.2572
  534MOL0     C72008  10.276   6.031   7.212 -1.0005 -0.8092 -0.6683
  534MOL0     C72009  10.398   5.967   7.179  0.1183  0.3625  0.1463
  534MOL0     C72010  10.743   5.786   6.919  0.1486 -0.6824  0.7740
  534MOL0     C72011  10.803   5.736   7.036 -0.2176 -0.5756  0.2198
  534MOL0     C72012  10.941   5.709   7.037 -0.3409 -0.1770 -0.0557
  534MOL0     C72013  11.023   5.729   6.931  0.2641  0.7800  0.2039
  534MOL0     O72014  11.157   5.710   6.945 -0.1110 -0.6350 -0.1748
  534MOL0     C72015  11.237   5.713   6.817  0.3243  0.4554 -0.6083
  534MOL0     C72016  11.383   5.694   6.843  0.4261 -0.1467 -0.0681
  534MOL0     C72017  11.418   5.548   6.857 -0.0847  0.1427  0.0632
  534MOL0     C72018  11.436   5.473   6.725 -0.3206  0.4851  0.3636
  534MOL0     C72019  11.539   5.520   6.637  0.0876 -0.2202 -0.5813
  534MOL0     C72020  11.621   5.556   6.558  0.4240  0.9163  0.2782
  534MOL0     C72021  10.965   5.768   6.810  1.0548 -0.6092 -0.6200
  534MOL0     C72022  10.828   5.801   6.808  0.0576 -1.2250  0.3141
  534MOL0     H72023  10.318   5.837   6.880  1.2134 -0.6662  0.3562
  534MOL0     H72024  10.110   5.956   6.917  1.6399  0.4849 -1.1493
  534MOL0     H72025  10.061   6.093   7.345  0.2250  2.0837  0.7697
  534MOL0     H72026   9.954   6.207   7.268  0.9247  0.0881 -2.1989
  534MOL0     H72027   9.827   6.006   7.172 -0.8248 -1.9688  1.5127
  534MOL0     H72028   9.942   5.897   7.254  0.4379 -0.6314 -0.4955
  534MOL0     H72029   9.874   5.985   7.478  2.0086 -0.8908 -1.5234
  534MOL0     H72030   9.771   6.100   7.395  1.1244  0.9921 -2.2460
  534MOL0     H72031   9.637   5.915   7.493 -1.4185 -0.0901 -0.8344
  534MOL0     H72032   9.631   5.871   7.321  1.0396 -1.7236 -0.8114
  534MOL0     H72033   9.866   5.753   7.420  0.1790 -1.7587 -1.5099
  534MOL0     H72034   9.745   5.735   7.548  1.7355  2.5188  0.0746
  534MOL0     H72035   9.729   5.544   7.412 -0.0754  1.9802  3.6119
  534MOL0     H72036   9.596   5.643   7.346 -1.0581 -2.8832  0.8319
  534MOL0     H72037   9.729   5.721   7.165 -1.5399  1.1959  2.1083
  534MOL0     H72038   9.880   5.650   7.233 -0.4463  1.8918  1.6138
  534MOL0     H72039   9.781   5.419   7.201  2.4997 -1.7871 -2.5401
  534MOL0     H72040   9.833   5.518   7.068  1.7728 -0.6568  1.7547
  534MOL0     H72041   9.467   5.468   7.229  2.4466  3.1541  0.8161
  534MOL0     H72042   9.241   5.612   7.122 -1.5437 -2.3217  1.7187
  534MOL0     H72043   9.205   5.548   6.955 -0.2311  0.1901 -1.3462
  534MOL0     H72044   9.244   5.378   7.209  0.7573 -0.0755 -0.1927
  534MOL0     H72045   9.215   5.320   7.044  3.3639  1.7854 -0.9301
  534MOL0     H72046   9.028   5.456   7.232 -0.8973 -1.5814  1.3886
  534MOL0     H72047   9.006   5.301   7.150  0.0204  0.3939  0.5583
  534MOL0     H72048   8.992   5.403   6.934 -1.4111  0.1786 -1.7288
  534MOL0     H72049   8.989   5.567   6.999  3.1292 -0.3968  0.4304
  534MOL0     H72050   8.620   5.403   7.174  2.0308  0.2018  0.1760
  534MOL0     H72051   8.441   5.270   7.266 -0.3786  0.4396 -0.8992
  534MOL0     H72052   8.344   5.191   7.140 -0.9877  0.7457  1.3477
  534MOL0     H72053   8.451   5.097   7.254  0.9538 -0.8261 -1.9172
  534MOL0     H72054   8.329   4.922   6.788 -0.0152  0.9103  1.1935
  534MOL0     H72055   8.185   4.750   6.702 -0.9019 -2.1066  0.3848
  534MOL0     H72056   7.966   4.461   6.987 -1.9365 -2.1312 -0.3274
  534MOL0     H72057   7.870   4.604   6.935 -0.5138  0.1503 -1.4105
  534MOL0     H72058   7.817   4.513   6.724 -0.7429  0.2999  0.6273
  534MOL0     H72059   7.903   4.355   6.767  0.1340 -0.8224  2.0653
  534MOL0     H72060   7.757   4.324   6.954 -1.4116  2.4109  1.7936
  534MOL0     H72061   7.670   4.324   6.801 -0.8132  1.2960 -1.3637
  534MOL0     H72062   7.617   4.482   7.031  2.1525  1.0260  0.5701
  534MOL0     H72063   7.656   4.594   6.899 -2.3142  0.3204 -1.2411
  534MOL0     H72064   7.442   4.369   6.885  0.8350 -0.8195 -1.7109
  534MOL0     H72065   7.505   4.460   6.742 -0.7164  0.6555 -0.4045
  534MOL0     H72066   7.360   4.603   6.971  0.6303  0.7438 -0.0805
  534MOL0     H72067   7.434   4.684   6.836 -1.4805  1.5704  1.3651
  534MOL0     H72068   7.227   4.469   6.803 -0.0973 -0.0698  1.6108
  534MOL0     H72069   7.294   4.570   6.670 -1.6225  1.2727 -0.2202
  534MOL0     H72070   7.198   4.766   6.786  2.1481 -1.0196 -3.8392
  534MOL0     H72071   7.105   4.659   6.898 -2.5988 -0.5636 -0.9820
  534MOL0     H72072   8.042   4.669   7.096 -0.5977 -0.0709  0.5745
  534MOL0     H72073   8.210   4.821   7.183  1.1715  0.3747  0.4313
  534MOL0     H72074   8.715   5.058   6.835 -1.7623 -2.4590  1.7945
  534MOL0     H72075   8.858   5.248   6.858 -2.8483 -0.6380 -1.9344
  534MOL0     H72076  10.274   6.084   7.307  3.9332 -1.8691  0.3353
  534MOL0     H72077  10.486   5.960   7.243 -0.5025  0.2673  1.0166
  534MOL0     H72078  10.738   5.714   7.120 -1.2314 -1.3245 -0.7325
  534MOL0     H72079  10.980   5.672   7.131 -1.8160 -1.7210 -0.0111
  534MOL0     H72080  11.197   5.635   6.753 -1.3734  0.4916  0.3311
  534MOL0     H72081  11.226   5.813   6.774  3.6717  1.2868  0.1620
  534MOL0     H72082  11.399   5.749   6.936  0.7443  0.2553 -0.3559
  534MOL0     H72083  11.443   5.738   6.763  1.3233 -0.5880  0.3465
  534MOL0     H72084  11.351   5.490   6.921  1.5649 -0.5732  1.2457
  534MOL0     H72085  11.514   5.543   6.910 -0.0354  1.7888  0.1741
  534MOL0     H72086  11.341   5.463   6.671 -0.2708  0.5991  0.2542
  534MOL0     H72087  11.456   5.369   6.750  0.1819  0.0177 -1.8376
  534MOL0     H72088  11.691   5.571   6.478 -1.5408  2.3213 -1.2654
  534MOL0     H72089  11.011   5.785   6.713 -1.3864 -0.0981 -1.7900
  534MOL0     H72090  10.780   5.839   6.718 -1.2262  0.8949  1.7929
  535MOL0     O72091   3.656   7.570   6.010  0.8983 -0.2824  0.0282
  535MOL0     C72092   3.744   7.657   5.988 -0.9286  0.6496  0.4723
  535MOL0     O72093   3.742   7.740   5.889  0.1383 -0.0521 -0.3687
  535MOL0     C72094   3.625   7.791   5.838 -0.0557  0.1732 -0.1146
  535MOL0     C72095   3.502   7.800   5.910  0.3039  0.2856 -1.0920
  535MOL0     C72096   3.388   7.868   5.860 -0.4688  0.2237 -0.4060
  535MOL0     C72097   3.387   7.927   5.733 -0.0854 -0.3730 -0.3593
  535MOL0     O72098   3.284   7.997   5.662 -0.2817 -0.2064 -0.1790
  535MOL0     C72099   3.165   8.035   5.737  0.1496  0.0460  0.2671
  535MOL0     C72100   3.065   8.132   5.670  1.3990  0.8260  0.0828
  535MOL0     C72101   2.951   8.165   5.771 -0.3383  0.5314 -0.4728
  535MOL0     C72102   2.836   8.247   5.708  0.0980 -0.8704  0.3170
  535MOL0     C72103   2.737   8.279   5.813  0.5886  0.0365 -0.3865
  535MOL0     C72104   2.614   8.359   5.758  0.9101  0.3671 -0.2942
  535MOL0     C72105   2.497   8.368   5.859 -0.6189  0.1919 -0.7241
  535MOL0     C72106   2.361   8.408   5.788  0.4184 -0.1611 -0.6930
  535MOL0     N72107   2.263   8.409   5.894  0.1555  0.0250 -0.2159
  535MOL0     C72108   2.201   8.299   5.940 -0.7177  0.0490 -0.6515
  535MOL0     C72109   2.134   8.347   6.048  0.5966  0.5761 -0.4152
  535MOL0     C72110   2.037   8.272   6.131 -0.6874 -0.7533 -0.2040
  535MOL0     C72111   2.088   8.230   6.272 -0.3381 -0.5415  0.3567
  535MOL0     C72112   1.979   8.207   6.373  0.2664  0.4316 -0.6451
  535MOL0     C72113   1.842   8.143   6.327  0.0839 -0.2878  0.6406
  535MOL0     O72114   1.771   8.127   6.448  0.3301 -0.1396 -0.8462
  535MOL0     C72115   1.638   8.083   6.457 -0.6500 -0.1984  0.5629
  535MOL0     C72116   1.557   8.145   6.545  0.1707  0.3052 -0.5271
  535MOL0     C72117   1.420   8.119   6.558  0.0234  0.7606  0.3885
  535MOL0     C72118   1.343   8.196   6.664 -0.3051  0.2321 -0.2716
  535MOL0     C72119   1.354   8.020   6.478 -0.1565  0.1889  1.3723
  535MOL0     C72120   1.210   7.990   6.482  0.6361  0.6954 -0.1602
  535MOL0     O72121   1.117   8.074   6.532  0.2238  0.5435 -0.0246
  535MOL0     C72122   0.990   8.035   6.540  0.8251 -0.7377 -0.3175
  535MOL0     C72123   0.889   8.103   6.469  1.5662  0.2583 -0.8057
  535MOL0     C72124   0.755   8.070   6.494  0.0585 -0.7517  0.2814
  535MOL0     C72125   0.716   7.982   6.594  0.3641  1.0411  0.1867
  535MOL0     O72126   0.582   7.948   6.629 -0.9528 -0.6940  0.6284
  535MOL0     C72127   0.487   7.958   6.527  0.4430 -0.6441 -1.2769
  535MOL0     C72128   0.351   7.923   6.597 -0.2151 -0.4827 -0.4183
  535MOL0     C72129   0.245   7.917   6.489  0.4209  1.3829  0.4863
  535MOL0     C72130   0.105   7.896   6.554  0.4531 -0.7455 -0.7637
  535MOL0     C72131  -0.001   7.924   6.445 -0.2045  0.2546  0.5619
  535MOL0     C72132  -0.138   7.862   6.489 -0.0199 -0.2932 -0.0187
  535MOL0     C72133  -0.242   7.879   6.381 -0.0057  0.2507  0.2473
  535MOL0     C72134  -0.383   7.881   6.430  1.1017 -0.3982  0.3400
  535MOL0    Cl72135  -0.497   7.924   6.298  0.0903  0.2311  0.4846
  535MOL0     C72136   0.821   7.908   6.659 -0.8368 -0.1983  0.0573
  535MOL0     C72137   0.955   7.932   6.627  0.1469 -0.1794 -0.9057
  535MOL0     O72138   1.178   7.879   6.440 -0.2558 -0.3023  0.7580
  535MOL0     C72139   1.443   7.957   6.388 -0.5294 -0.3529 -0.7426
  535MOL0     C72140   1.578   7.985   6.377  0.3761  0.5023 -0.7360
  535MOL0     N72141   2.169   8.473   6.070  0.6585 -1.0898  0.2628
  535MOL0     N72142   2.245   8.515   5.979 -0.0197 -0.2971  0.4357
  535MOL0     C72143   3.507   7.922   5.659 -0.0388 -0.7450  0.1913
  535MOL0     C72144   3.622   7.847   5.702 -0.3662 -0.5502 -0.2263
  535MOL0     C72145   3.882   7.632   6.043  0.5159 -0.1053 -0.1007
  535MOL0     C72146   3.998   7.662   5.970 -0.3715 -1.0678  0.1216
  535MOL0     C72147   4.124   7.641   6.033  1.0406  0.3691 -0.1521
  535MOL0     C72148   4.136   7.574   6.155  0.5555  0.1341  0.5884
  535MOL0     O72149   4.246   7.541   6.223  0.1873 -0.8616 -0.4167
  535MOL0     C72150   4.367   7.547   6.136  0.4707  0.1967 -0.0140
  535MOL0     C72151   4.493   7.478   6.192 -0.9992 -0.6111  0.5245
  535MOL0     C72152   4.623   7.479   6.103 -0.8508 -1.2410  0.5652
  535MOL0     C72153   4.697   7.617   6.105  0.8238 -0.4715 -1.0470
  535MOL0     C72154   4.751   7.628   6.242 -0.3627  0.5577  0.1420
  535MOL0     C72155   4.776   7.641   6.357  0.4876 -0.6876 -0.2895
  535MOL0     C72156   4.018   7.536   6.220 -0.4581  0.2107 -0.0381
  535MOL0     C72157   3.890   7.572   6.171 -0.7086 -1.0747 -0.0478
  535MOL0     H72158   3.510   7.767   6.013 -0.6608 -0.0603 -1.1205
  535MOL0     H72159   3.300   7.872   5.925 -0.6919  0.4456 -0.7203
  535MOL0     H72160   3.118   7.942   5.769  1.6796 -0.7606  0.2972
  535MOL0     H72161   3.196   8.087   5.828  1.3006  0.3187 -0.2619
  535MOL0     H72162   3.111   8.230   5.650  0.8571  0.7669 -1.6209
  535MOL0     H72163   3.028   8.096   5.574  0.9989 -0.0639  0.5584
  535MOL0     H72164   2.917   8.081   5.832 -3.7693  2.2267  0.1742
  535MOL0     H72165   2.989   8.226   5.854 -2.4137  0.1422  0.8284
  535MOL0     H72166   2.879   8.336   5.662  0.8730 -1.1658  0.4361
  535MOL0     H72167   2.787   8.195   5.625  0.8625 -0.7978 -0.2015
  535MOL0     H72168   2.706   8.186   5.863  0.8243  0.9052  1.4658
  535MOL0     H72169   2.788   8.331   5.894 -2.6993 -0.7056  2.3793
  535MOL0     H72170   2.649   8.456   5.721  0.6330  0.5488 -0.0834
  535MOL0     H72171   2.580   8.315   5.664  0.8070  0.8117 -0.4712
  535MOL0     H72172   2.493   8.284   5.930  1.2492 -0.2798 -1.1258
  535MOL0     H72173   2.514   8.457   5.920  2.5181  0.1997 -1.4639
  535MOL0     H72174   2.347   8.334   5.709  1.0936 -0.8206 -0.2074
  535MOL0     H72175   2.363   8.506   5.739  0.6955 -0.4385 -1.2411
  535MOL0     H72176   2.186   8.209   5.881 -1.2750  0.4801 -1.1865
  535MOL0     H72177   1.958   8.345   6.152 -0.6170 -1.5182  3.4167
  535MOL0     H72178   1.993   8.185   6.079 -1.4478 -0.3587 -0.2380
  535MOL0     H72179   2.154   8.313   6.301 -1.7170  0.9924 -0.6892
  535MOL0     H72180   2.143   8.136   6.261  0.8301  0.0688  0.7885
  535MOL0     H72181   1.958   8.302   6.423  0.2980 -0.3981  1.0097
  535MOL0     H72182   2.021   8.139   6.447 -1.9807 -2.8328 -2.1628
  535MOL0     H72183   1.851   8.044   6.280 -2.2834  0.4351 -1.5982
  535MOL0     H72184   1.793   8.207   6.253 -1.8794 -1.5190  0.7806
  535MOL0     H72185   1.603   8.212   6.617 -1.3099  0.1850  0.5701
  535MOL0     H72186   1.281   8.132   6.726 -3.1708  0.1977 -2.9332
  535MOL0     H72187   1.401   8.262   6.729 -1.8721  1.6031 -0.1900
  535MOL0     H72188   1.275   8.258   6.605  1.3296  0.6940 -1.7542
  535MOL0     H72189   0.897   8.183   6.396  0.7860 -0.0623 -1.2446
  535MOL0     H72190   0.682   8.120   6.431  0.1578 -3.7876 -2.4809
  535MOL0     H72191   0.483   8.057   6.480  0.5773  0.5848  1.1562
  535MOL0     H72192   0.505   7.891   6.442 -1.1608 -1.2361 -1.1709
  535MOL0     H72193   0.360   7.833   6.658  0.4954  0.5840  1.1154
  535MOL0     H72194   0.323   7.997   6.673 -0.9868 -0.4559 -0.7243
  535MOL0     H72195   0.260   7.831   6.423  1.2096  1.1954  0.9028
  535MOL0     H72196   0.241   8.014   6.438 -0.3461  1.5264  0.7908
  535MOL0     H72197   0.096   7.796   6.599 -0.9593 -1.1285 -1.8108
  535MOL0     H72198   0.081   7.966   6.634  1.1452 -1.0578 -0.2811
  535MOL0     H72199   0.024   7.876   6.350 -2.2866 -1.3751  0.7747
  535MOL0     H72200  -0.019   8.030   6.426  0.3854  0.0774 -1.1924
  535MOL0     H72201  -0.122   7.756   6.509 -2.4912 -0.3213  2.4075
  535MOL0     H72202  -0.166   7.904   6.586 -0.9759  0.6162 -0.6640
  535MOL0     H72203  -0.250   7.791   6.317 -2.6325 -0.1086  0.9481
  535MOL0     H72204  -0.222   7.967   6.319  0.6683 -1.0430 -1.4652
  535MOL0     H72205  -0.395   7.945   6.519 -0.0381 -1.4059  0.9348
  535MOL0     H72206  -0.405   7.783   6.472 -0.1424 -0.2281  0.1116
  535MOL0     H72207   0.786   7.836   6.733 -1.1337 -0.1525 -0.0368
  535MOL0     H72208   1.042   7.889   6.676 -0.7400 -1.2669 -0.2674
  535MOL0     H72209   1.395   7.888   6.320 -1.0189  0.9180 -1.7253
  535MOL0     H72210   1.633   7.917   6.312  2.6450  0.6523  0.9095
  535MOL0     H72211   3.507   7.972   5.562 -0.5318 -0.5853  0.2694
  535MOL0     H72212   3.706   7.842   5.634  2.3576 -3.2942  2.9375
  535MOL0     H72213   3.989   7.716   5.877  1.2593 -0.5497  0.2348
  535MOL0     H72214   4.217   7.681   5.992  2.5604 -1.1680  1.6046
  535MOL0     H72215   4.349   7.501   6.038 -0.4821 -5.6725  2.4895
  535MOL0     H72216   4.395   7.653   6.130  2.0622 -0.1037  1.2310
  535MOL0     H72217   4.472   7.372   6.210  3.0736 -1.9759 -1.6113
  535MOL0     H72218   4.508   7.520   6.292  1.8294 -0.4806  0.1079
  535MOL0     H72219   4.610   7.459   5.996  0.6211  0.6240  0.0019
  535MOL0     H72220   4.688   7.402   6.145  0.1071 -0.9255 -0.3126
  535MOL0     H72221   4.638   7.704   6.073  0.5365 -0.8240 -1.4887
  535MOL0     H72222   4.780   7.603   6.036  3.0412 -1.9621  1.7450
  535MOL0     H72223   4.804   7.654   6.460 -0.0330  1.7079 -0.3824
  535MOL0     H72224   4.026   7.495   6.321  0.7941  1.5750  0.4390
  535MOL0     H72225   3.794   7.557   6.219 -0.7828  0.5967  0.3958
  536MOL0     O72226   2.135   6.449   9.679 -0.1690  1.4453  0.5686
  536MOL0     C72227   2.244   6.492   9.654 -0.4653  0.1051  0.1956
  536MOL0     O72228   2.293   6.606   9.708  0.2344 -0.0887  0.0552
  536MOL0     C72229   2.215   6.684   9.800 -0.0746  0.5490  0.4545
  536MOL0     C72230   2.251   6.697   9.934  0.1577 -0.2156 -0.5764
  536MOL0     C72231   2.181   6.782  10.020 -0.2126 -1.1242  0.5023
  536MOL0     C72232   2.060   6.872   9.973 -0.6782  0.3165  0.9125
  536MOL0     O72233   1.980   6.955  10.038  0.0724  0.5403 -0.3464
  536MOL0     C72234   2.039   6.993  10.168  0.7278  0.4742  0.5698
  536MOL0     C72235   1.950   7.108  10.219 -0.3607  0.2124  0.3265
  536MOL0     C72236   1.829   7.075  10.305 -0.5831  0.0104  0.4007
  536MOL0     C72237   1.770   7.199  10.373  0.8565  0.3100 -0.3852
  536MOL0     C72238   1.619   7.204  10.370  0.1410  0.6174  0.0686
  536MOL0     C72239   1.549   7.223  10.231  0.6447  0.3419 -0.0752
  536MOL0     C72240   1.394   7.237  10.253  0.6293  0.6092 -0.4619
  536MOL0     C72241   1.351   7.359  10.326 -0.2437  0.5714  0.1892
  536MOL0     N72242   1.204   7.385  10.313 -0.2621 -0.0806  0.1223
  536MOL0     C72243   1.109   7.321  10.393 -0.0888  0.4434 -0.0309
  536MOL0     C72244   0.994   7.382  10.357  0.2729 -0.9383 -0.1416
  536MOL0     C72245   0.853   7.354  10.393  0.2604  0.1415 -0.7253
  536MOL0     C72246   0.810   7.374  10.537  0.0276  0.3011  0.0194
  536MOL0     C72247   0.661   7.404  10.561 -0.5977  0.6861 -0.7160
  536MOL0     C72248   0.575   7.293  10.512  1.0130  0.2295  0.6151
  536MOL0     O72249   0.441   7.336  10.493  0.1898 -0.4489 -0.0354
  536MOL0     C72250   0.363   7.278  10.387  0.0062  0.2323  1.1819
  536MOL0     C72251   0.397   7.162  10.321 -0.0759 -0.3350 -0.4157
  536MOL0     C72252   0.319   7.114  10.216  0.3740  1.7171  0.0151
  536MOL0     C72253   0.354   6.982  10.158  0.0595 -0.8775 -0.7531
  536MOL0     C72254   0.200   7.178  10.178  0.1903 -0.2344 -1.0406
  536MOL0     C72255   0.103   7.141  10.070 -0.0209 -0.1596  0.4964
  536MOL0     O72256  -0.021   7.190  10.077 -0.0954  0.0067  0.4969
  536MOL0     C72257  -0.127   7.143  10.000  0.0593 -0.3450 -0.0983
  536MOL0     C72258  -0.112   7.110   9.863  0.1682  0.7250 -0.7808
  536MOL0     C72259  -0.224   7.070   9.781 -0.1979  0.0672  0.1411
  536MOL0     C72260  -0.355   7.086   9.829 -0.1608 -0.1239  0.0108
  536MOL0     O72261  -0.474   7.090   9.756 -0.2293  0.6771  0.3241
  536MOL0     C72262  -0.465   7.079   9.618  1.1592 -0.2180  0.2502
  536MOL0     C72263  -0.600   7.078   9.568  0.3963  0.1808 -0.0386
  536MOL0     C72264  -0.696   7.188   9.621 -0.5066  0.0672  0.1293
  536MOL0     C72265  -0.836   7.159   9.554  0.8977  0.5252 -1.2383
  536MOL0     C72266  -0.935   7.259   9.614 -0.1328 -0.0769  0.7096
  536MOL0     C72267  -0.994   7.212   9.747 -0.7790  0.0387  0.3882
  536MOL0     C72268  -1.112   7.295   9.790 -0.2687 -0.7300 -0.3560
  536MOL0     C72269  -1.164   7.267   9.930 -0.2253  0.0354  0.7241
  536MOL0    Cl72270  -1.332   7.313   9.972 -0.1845  0.3184  0.0141
  536MOL0     C72271  -0.363   7.119   9.966  0.5503 -0.5520 -0.7370
  536MOL0     C72272  -0.258   7.145  10.050 -0.5491  0.9033 -1.4909
  536MOL0     O72273   0.131   7.059   9.993  0.4880 -0.0258  0.4698
  536MOL0     C72274   0.170   7.297  10.248  0.5768 -0.0570  0.5486
  536MOL0     C72275   0.246   7.349  10.353  0.5996  0.8436 -0.8882
  536MOL0     N72276   1.027   7.490  10.268 -0.8482  0.2706 -0.5131
  536MOL0     N72277   1.154   7.489  10.249  0.3683  0.2916  0.5105
  536MOL0     C72278   2.031   6.847   9.831  0.4130  0.1940 -0.5670
  536MOL0     C72279   2.116   6.772   9.754  0.1367 -0.0740 -0.5225
  536MOL0     C72280   2.343   6.410   9.577  0.5912 -0.8201 -0.4220
  536MOL0     C72281   2.444   6.478   9.506 -0.5438 -0.2351  0.0829
  536MOL0     C72282   2.553   6.414   9.439 -0.2199 -0.2760 -0.3124
  536MOL0     C72283   2.555   6.272   9.439 -0.7654  0.3282 -0.1809
  536MOL0     O72284   2.667   6.217   9.392 -0.4787 -0.9712 -0.5269
  536MOL0     C72285   2.689   6.077   9.412 -1.4732 -0.2213 -0.2182
  536MOL0     C72286   2.821   6.028   9.342 -0.2754  0.1930  0.9902
  536MOL0     C72287   2.824   6.047   9.192  0.3537 -0.1784  0.2152
  536MOL0     C72288   2.965   6.015   9.144  0.1827  0.8666 -0.0499
  536MOL0     C72289   2.983   6.039   9.000  0.0084 -0.9377  0.1785
  536MOL0     C72290   3.016   6.054   8.882 -0.1001  0.0525  0.3513
  536MOL0     C72291   2.443   6.208   9.501 -0.9697  0.4705  0.2516
  536MOL0     C72292   2.341   6.272   9.566 -0.7310 -0.1834  0.3775
  536MOL0     H72293   2.339   6.653   9.978 -0.3154 -1.3119 -0.7018
  536MOL0     H72294   2.208   6.777  10.126 -0.9679  2.2649  0.9610
  536MOL0     H72295   2.035   6.911  10.240  2.1627  0.2991  0.4697
  536MOL0     H72296   2.141   7.030  10.152  1.0035 -0.8465 -0.9797
  536MOL0     H72297   2.017   7.172  10.278  0.3936 -1.6762  1.6069
  536MOL0     H72298   1.915   7.163  10.131 -3.1225 -2.8131 -0.6431
  536MOL0     H72299   1.758   7.027  10.236  0.0749 -1.7863  0.9030
  536MOL0     H72300   1.854   6.999  10.379 -0.9183 -1.6423 -1.1029
  536MOL0     H72301   1.801   7.203  10.478 -1.3173  1.8697  0.2780
  536MOL0     H72302   1.809   7.286  10.319 -0.9143  2.3040  1.3381
  536MOL0     H72303   1.587   7.111  10.417  0.9639 -1.3547 -2.9516
  536MOL0     H72304   1.581   7.286  10.431 -1.4084  1.0509 -1.3757
  536MOL0     H72305   1.568   7.313  10.172 -2.1064  0.9694 -0.1420
  536MOL0     H72306   1.564   7.137  10.165  0.4740  1.2771 -1.3646
  536MOL0     H72307   1.344   7.225  10.157  0.5756  0.1216 -0.3765
  536MOL0     H72308   1.365   7.144  10.303 -1.0185  0.4140 -1.7129
  536MOL0     H72309   1.401   7.440  10.273  2.7367 -1.2084  0.0715
  536MOL0     H72310   1.375   7.352  10.432  0.3011 -2.5264 -0.0626
  536MOL0     H72311   1.125   7.233  10.454  0.3918 -0.5976 -1.6032
  536MOL0     H72312   0.800   7.431  10.336  2.3274  1.4076 -1.0193
  536MOL0     H72313   0.828   7.252  10.361 -1.9649  0.6294 -0.7480
  536MOL0     H72314   0.871   7.455  10.579  2.8047 -2.1501  1.0377
  536MOL0     H72315   0.843   7.285  10.591 -0.6086 -0.1492 -0.3268
  536MOL0     H72316   0.648   7.497  10.505  2.5073  1.6650 -0.0364
  536MOL0     H72317   0.655   7.419  10.669 -1.1906 -1.8452 -0.3140
  536MOL0     H72318   0.558   7.216  10.587 -2.0035 -1.1939 -1.3371
  536MOL0     H72319   0.619   7.259  10.417  1.0465  2.5986 -0.2897
  536MOL0     H72320   0.490   7.112  10.346  0.7629  1.4202  0.0974
  536MOL0     H72321   0.277   6.911  10.190 -0.3654 -0.4569 -0.8148
  536MOL0     H72322   0.366   6.986  10.049 -0.5638  0.5264 -0.7941
  536MOL0     H72323   0.449   6.939  10.191 -0.1589 -0.5719  0.3215
  536MOL0     H72324  -0.015   7.116   9.815  0.6544 -2.6897 -0.4253
  536MOL0     H72325  -0.189   7.035   9.684 -1.7370 -1.4974  0.1089
  536MOL0     H72326  -0.417   7.173   9.588 -2.0801  1.4837 -0.0350
  536MOL0     H72327  -0.408   6.994   9.579  1.9583  0.1037  0.6814
  536MOL0     H72328  -0.597   7.095   9.460 -3.3514  1.2014 -0.1169
  536MOL0     H72329  -0.642   6.977   9.573 -0.5279  0.3510 -2.6544
  536MOL0     H72330  -0.654   7.285   9.592 -2.4973  1.7611  2.5313
  536MOL0     H72331  -0.709   7.180   9.729 -0.1027 -2.3263  0.0609
  536MOL0     H72332  -0.834   7.168   9.445 -0.1820  0.9452 -1.2334
  536MOL0     H72333  -0.857   7.055   9.581  2.0045  0.4600 -0.5513
  536MOL0     H72334  -1.012   7.264   9.536 -1.8467 -1.0136  2.2344
  536MOL0     H72335  -0.892   7.358   9.630  0.6194 -0.4308  0.9293
  536MOL0     H72336  -1.023   7.107   9.736 -0.8675  0.1056 -0.0533
  536MOL0     H72337  -0.918   7.231   9.824  2.4854 -3.1843 -1.6739
  536MOL0     H72338  -1.195   7.279   9.720 -0.0435  0.2847 -0.8805
  536MOL0     H72339  -1.080   7.400   9.791  2.2420 -1.4337 -0.5274
  536MOL0     H72340  -1.102   7.318  10.003 -3.6138  2.4289  2.1625
  536MOL0     H72341  -1.154   7.159   9.942  1.8966 -0.0172 -0.7852
  536MOL0     H72342  -0.466   7.120  10.000  1.2580 -0.9758  1.5552
  536MOL0     H72343  -0.273   7.165  10.156  0.3911  0.2855 -1.2341
  536MOL0     H72344   0.084   7.353  10.214  0.5727  0.8507  1.9289
  536MOL0     H72345   0.213   7.439  10.402 -1.4105  0.2348 -1.0506
  536MOL0     H72346   1.951   6.905   9.786 -0.5635 -0.5075  0.2033
  536MOL0     H72347   2.113   6.771   9.646  0.5928  0.4432 -0.5428
  536MOL0     H72348   2.451   6.586   9.516  0.1595 -0.4012  1.6701
  536MOL0     H72349   2.636   6.462   9.389 -2.2417  0.6145 -3.0943
  536MOL0     H72350   2.708   6.065   9.519 -1.5836  2.2405  0.1272
  536MOL0     H72351   2.611   6.011   9.373  1.5879 -1.8367 -4.2498
  536MOL0     H72352   2.826   5.925   9.379  3.1967 -0.2303 -0.2620
  536MOL0     H72353   2.911   6.078   9.380 -1.9385  5.5473 -1.2941
  536MOL0     H72354   2.810   6.154   9.174  0.7506  0.1200  1.5580
  536MOL0     H72355   2.761   5.979   9.133  3.1821 -0.5323 -2.6477
  536MOL0     H72356   2.996   5.911   9.161  3.5179  1.4471 -1.9330
  536MOL0     H72357   3.033   6.083   9.196  3.7547 -1.2031 -1.6274
  536MOL0     H72358   3.033   6.056   8.777  0.9911 -0.7558  0.5007
  536MOL0     H72359   2.435   6.100   9.502  0.0203  0.3540  2.6980
  536MOL0     H72360   2.262   6.210   9.608  1.3218 -2.9777  0.4421
  537MOL0     O72361   2.850   4.180   2.171 -0.1280 -0.0710  0.4416
  537MOL0     C72362   2.759   4.245   2.225  0.1446  0.5479  0.4345
  537MOL0     O72363   2.633   4.249   2.188  1.0108 -0.3934 -0.4404
  537MOL0     C72364   2.574   4.187   2.079  0.4136 -0.3729  0.4007
  537MOL0     C72365   2.436   4.196   2.068  0.0242 -0.7802  0.2241
  537MOL0     C72366   2.370   4.140   1.959  0.3494  0.4209 -0.0778
  537MOL0     C72367   2.440   4.078   1.854  0.3667  0.4834 -0.1283
  537MOL0     O72368   2.373   4.001   1.757 -0.2171  0.2443 -0.8722
  537MOL0     C72369   2.424   3.865   1.752 -0.4279  0.0816 -0.3948
  537MOL0     C72370   2.314   3.765   1.709 -0.4631 -0.0591 -0.0996
  537MOL0     C72371   2.370   3.625   1.713  0.1104  0.2321 -0.1409
  537MOL0     C72372   2.380   3.561   1.574 -0.3074 -0.2398 -1.1196
  537MOL0     C72373   2.437   3.420   1.585  0.6070  0.0234  0.3739
  537MOL0     C72374   2.436   3.350   1.450  0.2491 -0.3209 -0.6119
  537MOL0     C72375   2.293   3.349   1.375 -0.1759 -0.1244  1.3262
  537MOL0     C72376   2.187   3.301   1.469  0.4119 -0.2271 -0.3257
  537MOL0     N72377   2.061   3.292   1.394  0.4728 -0.3912  0.3249
  537MOL0     C72378   1.992   3.405   1.353  0.1874  0.0676 -0.2309
  537MOL0     C72379   1.869   3.364   1.311  0.0679 -0.6443 -0.2906
  537MOL0     C72380   1.771   3.454   1.241  0.7384 -0.3844  0.3680
  537MOL0     C72381   1.653   3.383   1.169 -1.1846  0.3097 -1.4274
  537MOL0     C72382   1.549   3.312   1.256 -0.5547  0.5999 -0.5616
  537MOL0     C72383   1.491   3.392   1.377  0.2837 -0.6515 -0.4147
  537MOL0     O72384   1.463   3.296   1.472 -0.3219  0.5065 -0.8004
  537MOL0     C72385   1.342   3.236   1.466 -0.0235  0.8809  0.7375
  537MOL0     C72386   1.343   3.116   1.538  0.2711  0.0336  0.2970
  537MOL0     C72387   1.229   3.033   1.552  0.3131  1.4013  0.4131
  537MOL0     C72388   1.224   2.900   1.624 -0.0172 -0.6968  0.2887
  537MOL0     C72389   1.112   3.079   1.482  0.2775 -0.3696  0.0572
  537MOL0     C72390   0.987   3.004   1.476 -0.0799  0.4185 -0.0737
  537MOL0     O72391   0.868   3.063   1.481  0.1861 -0.5785  0.0780
  537MOL0     C72392   0.757   2.971   1.473  0.3995  1.2760 -0.5775
  537MOL0     C72393   0.734   2.874   1.575 -0.1017 -0.5768  0.3202
  537MOL0     C72394   0.620   2.785   1.573  0.0982  0.1014  0.0829
  537MOL0     C72395   0.529   2.793   1.464 -1.2662  0.6679  0.5762
  537MOL0     O72396   0.428   2.706   1.432 -0.3203 -0.1830  0.0447
  537MOL0     C72397   0.437   2.578   1.493 -0.5432 -0.1610  0.5423
  537MOL0     C72398   0.340   2.485   1.414  0.4336 -0.7612  0.1868
  537MOL0     C72399   0.194   2.527   1.455 -0.8808  0.0975 -0.4899
  537MOL0     C72400   0.087   2.450   1.377 -0.1315 -0.4813  0.5077
  537MOL0     C72401  -0.058   2.487   1.426 -0.4935 -0.7186 -1.2687
  537MOL0     C72402  -0.161   2.404   1.357 -0.2933  0.2561 -0.1170
  537MOL0     C72403  -0.294   2.407   1.420  0.6287 -1.0768  0.4443
  537MOL0     C72404  -0.402   2.367   1.317  0.1988  0.2042  0.0986
  537MOL0    Cl72405  -0.387   2.195   1.282  0.1302  0.0685 -0.3721
  537MOL0     C72406   0.555   2.880   1.361  0.0469  0.1881 -1.6603
  537MOL0     C72407   0.675   2.961   1.371 -0.7293  0.4845  0.0241
  537MOL0     O72408   1.001   2.879   1.459 -0.1045  0.2257  0.0057
  537MOL0     C72409   1.115   3.195   1.403  0.1082 -0.8879 -0.0478
  537MOL0     C72410   1.228   3.279   1.402 -0.6937  0.4036  0.0822
  537MOL0     N72411   1.871   3.227   1.327 -0.0834  0.1061 -0.2184
  537MOL0     N72412   1.985   3.185   1.373  0.2829 -0.0815  0.2498
  537MOL0     C72413   2.579   4.084   1.860  1.4136  0.6738 -1.5529
  537MOL0     C72414   2.649   4.130   1.969  0.0468 -0.2628  0.2501
  537MOL0     C72415   2.794   4.321   2.351 -0.1345 -0.2245 -0.9379
  537MOL0     C72416   2.705   4.408   2.419 -0.1274  0.9161 -0.0844
  537MOL0     C72417   2.755   4.476   2.530  0.3429  0.2762  0.3507
  537MOL0     C72418   2.891   4.457   2.577  0.4555  0.4911 -0.1810
  537MOL0     O72419   2.938   4.529   2.683 -0.3358  0.4571 -0.1881
  537MOL0     C72420   3.075   4.553   2.723 -0.1250  0.2936  0.2897
  537MOL0     C72421   3.138   4.673   2.645  0.6701  0.7807  0.0701
  537MOL0     C72422   3.290   4.664   2.657 -0.7342  0.3189 -0.7888
  537MOL0     C72423   3.365   4.785   2.603  0.2511  0.0536  0.5572
  537MOL0     C72424   3.364   4.779   2.455  0.0074  0.0616 -1.1691
  537MOL0     C72425   3.369   4.778   2.337  0.4306 -0.7067 -0.4712
  537MOL0     C72426   2.965   4.353   2.523  0.3645  0.1826  0.9175
  537MOL0     C72427   2.921   4.295   2.409  0.5406 -0.1830  0.5785
  537MOL0     H72428   2.387   4.246   2.151  0.4890  1.1638 -0.6175
  537MOL0     H72429   2.261   4.141   1.957  0.3566  1.4542 -0.6751
  537MOL0     H72430   2.512   3.866   1.688 -0.7206 -2.7440 -1.0020
  537MOL0     H72431   2.455   3.833   1.852 -0.1109 -1.0947 -0.8472
  537MOL0     H72432   2.232   3.781   1.779 -0.3086  1.0250 -0.1444
  537MOL0     H72433   2.272   3.796   1.613 -1.0434  2.5330  0.8986
  537MOL0     H72434   2.472   3.641   1.748  0.6893  2.0761 -2.4128
  537MOL0     H72435   2.321   3.557   1.782  1.2627  1.5685  2.1063
  537MOL0     H72436   2.281   3.554   1.529  0.9091 -0.6372 -3.9670
  537MOL0     H72437   2.447   3.624   1.515 -1.1011  4.0050  1.9913
  537MOL0     H72438   2.539   3.414   1.623  1.2198 -3.4724 -1.4311
  537MOL0     H72439   2.374   3.366   1.657  0.8812 -3.7821 -2.0171
  537MOL0     H72440   2.493   3.414   1.382  0.1695 -0.6105 -0.9581
  537MOL0     H72441   2.477   3.249   1.449  1.5254  0.1773 -1.5483
  537MOL0     H72442   2.277   3.453   1.346 -1.0401 -0.1556  1.6643
  537MOL0     H72443   2.307   3.279   1.293 -0.7054 -1.3980  2.2761
  537MOL0     H72444   2.174   3.362   1.559  0.6351 -1.0415  0.2666
  537MOL0     H72445   2.209   3.200   1.506 -3.3074 -0.5890  1.3288
  537MOL0     H72446   2.026   3.508   1.346 -3.0768  1.1882 -1.7261
  537MOL0     H72447   1.731   3.530   1.309  2.2695  0.2547  0.5963
  537MOL0     H72448   1.823   3.494   1.154 -0.9661 -2.9357 -1.9936
  537MOL0     H72449   1.694   3.313   1.096  0.1778 -2.2335  1.5546
  537MOL0     H72450   1.601   3.465   1.119  0.7812  3.6764  1.5659
  537MOL0     H72451   1.586   3.213   1.286  0.6601  1.4242  0.7991
  537MOL0     H72452   1.467   3.300   1.185  0.6139 -2.6071 -1.5885
  537MOL0     H72453   1.410   3.452   1.334  1.7101  0.9776 -0.9304
  537MOL0     H72454   1.556   3.468   1.419 -0.1786 -0.1610 -0.5792
  537MOL0     H72455   1.428   3.091   1.601  0.4029 -1.4797 -0.4425
  537MOL0     H72456   1.149   2.876   1.701  0.0311 -0.3675  0.4403
  537MOL0     H72457   1.227   2.824   1.546  0.8918  0.5741 -0.9554
  537MOL0     H72458   1.320   2.887   1.674 -0.0945 -0.2403  0.5637
  537MOL0     H72459   0.805   2.871   1.657  1.3524  1.7879 -0.7463
  537MOL0     H72460   0.607   2.715   1.655  0.7593  1.5793  1.5119
  537MOL0     H72461   0.535   2.530   1.482  0.1430  0.9825  1.5056
  537MOL0     H72462   0.419   2.582   1.600 -0.9336  1.0112  0.4442
  537MOL0     H72463   0.357   2.488   1.306  3.3265  0.2126  0.5833
  537MOL0     H72464   0.361   2.382   1.446 -3.2866 -1.6587  0.2157
  537MOL0     H72465   0.183   2.636   1.451  4.0600  1.0311  2.6707
  537MOL0     H72466   0.177   2.505   1.561  0.7801 -1.1160 -0.4390
  537MOL0     H72467   0.097   2.470   1.270  1.4251 -0.0365  0.7090
  537MOL0     H72468   0.100   2.341   1.384 -2.3308 -0.9013 -0.9072
  537MOL0     H72469  -0.068   2.595   1.411  0.9555  0.1405  2.8139
  537MOL0     H72470  -0.059   2.478   1.535 -0.0393  0.9682 -1.0983
  537MOL0     H72471  -0.152   2.436   1.253 -1.0548 -0.7930 -0.5269
  537MOL0     H72472  -0.131   2.299   1.351 -0.9728  0.0081  0.6483
  537MOL0     H72473  -0.312   2.510   1.453 -1.9099 -0.6912 -1.8290
  537MOL0     H72474  -0.297   2.349   1.512  1.0734 -2.0617 -0.1484
  537MOL0     H72475  -0.388   2.418   1.221 -0.1807  1.0424  0.4740
  537MOL0     H72476  -0.505   2.387   1.347 -1.0020 -3.6975 -0.8453
  537MOL0     H72477   0.496   2.882   1.270  0.4895  0.8630 -1.9474
  537MOL0     H72478   0.673   3.044   1.300  0.5789  0.9170  0.4654
  537MOL0     H72479   1.037   3.222   1.333  2.1148 -0.4010 -2.2090
  537MOL0     H72480   1.217   3.376   1.354  2.4430  0.7269 -0.1874
  537MOL0     H72481   2.636   4.023   1.790 -1.8281 -2.5220 -1.7635
  537MOL0     H72482   2.757   4.124   1.977 -0.0163  1.0764  2.7733
  537MOL0     H72483   2.607   4.428   2.376 -0.1698 -1.3203 -1.1433
  537MOL0     H72484   2.696   4.553   2.578 -0.4534 -0.4400  0.5387
  537MOL0     H72485   3.081   4.584   2.828  3.0946  3.9452 -0.7318
  537MOL0     H72486   3.136   4.464   2.707  0.7513  0.9905 -0.3368
  537MOL0     H72487   3.093   4.766   2.682 -0.8508 -0.2919  1.0512
  537MOL0     H72488   3.112   4.664   2.539 -0.8610 -0.7308  0.5185
  537MOL0     H72489   3.331   4.578   2.604  1.1016 -0.3667  1.5648
  537MOL0     H72490   3.312   4.651   2.764 -0.3849 -0.1556 -0.9173
  537MOL0     H72491   3.464   4.770   2.647 -0.1601 -0.2224  1.4230
  537MOL0     H72492   3.320   4.882   2.625  2.3471  0.8516  1.5418
  537MOL0     H72493   3.380   4.775   2.231 -0.0718 -1.6878 -0.5105
  537MOL0     H72494   3.057   4.318   2.569  1.8726  0.1933 -1.8913
  537MOL0     H72495   2.989   4.224   2.363  1.7045  0.9754  0.4808
  538MOL0     O72496   6.574   4.143  11.206 -0.2092  0.0036  0.0194
  538MOL0     C72497   6.649   4.225  11.265 -0.7648 -0.2833  0.3614
  538MOL0     O72498   6.622   4.281  11.382  0.2385  0.4006 -0.2921
  538MOL0     C72499   6.505   4.283  11.455  0.5268 -0.1469  0.4788
  538MOL0     C72500   6.379   4.244  11.411 -0.3071 -0.3479  0.1608
  538MOL0     C72501   6.263   4.243  11.486  0.3678  0.4628 -0.6950
  538MOL0     C72502   6.265   4.280  11.620  0.2279 -0.2476 -0.0463
  538MOL0     O72503   6.157   4.272  11.709 -0.6711  0.2779  0.8694
  538MOL0     C72504   6.030   4.225  11.650  0.3067  0.1249  0.1457
  538MOL0     C72505   6.014   4.073  11.637  0.3885 -0.4700 -0.7443
  538MOL0     C72506   5.893   4.027  11.570  0.2895 -0.1996  0.7422
  538MOL0     C72507   5.758   4.060  11.647 -0.7425 -0.6621 -0.2427
  538MOL0     C72508   5.641   3.983  11.570  0.8931  1.4406 -0.2592
  538MOL0     C72509   5.501   4.037  11.594 -0.2371  0.4623  0.4550
  538MOL0     C72510   5.404   3.946  11.522 -0.8318 -0.5827 -0.0973
  538MOL0     C72511   5.255   3.986  11.551  0.3538 -0.3190  0.7077
  538MOL0     N72512   5.240   4.129  11.518 -0.4658 -0.2266  0.4168
  538MOL0     C72513   5.186   4.182  11.401  0.9275 -0.2569  1.1500
  538MOL0     C72514   5.173   4.316  11.422  0.5659 -0.6676  0.3024
  538MOL0     C72515   5.123   4.435  11.334  0.0617 -0.1365  0.3892
  538MOL0     C72516   4.970   4.462  11.323 -0.8016  0.0864 -0.0595
  538MOL0     C72517   4.935   4.592  11.400 -0.3830  0.4938  0.0433
  538MOL0     C72518   4.789   4.626  11.377  0.1903 -0.0482 -0.6618
  538MOL0     O72519   4.737   4.640  11.242  0.2960  0.1895  0.9470
  538MOL0     C72520   4.628   4.733  11.222  0.1775  0.0498  0.3761
  538MOL0     C72521   4.533   4.763  11.323  0.3981  0.0470  1.3264
  538MOL0     C72522   4.448   4.869  11.303  0.1708  0.6234  0.6813
  538MOL0     C72523   4.343   4.886  11.417 -0.1410 -0.0371  0.1155
  538MOL0     C72524   4.448   4.943  11.182  0.6288  0.1291 -0.2307
  538MOL0     C72525   4.349   5.055  11.148 -0.5401  0.7463 -0.6847
  538MOL0     O72526   4.288   5.117  11.248 -0.2807  0.8248  0.0465
  538MOL0     C72527   4.214   5.218  11.224 -0.5364  0.9133 -0.8633
  538MOL0     C72528   4.256   5.346  11.270  0.1505 -0.1692  0.6675
  538MOL0     C72529   4.166   5.454  11.249  0.6985 -0.5452  0.2458
  538MOL0     C72530   4.035   5.429  11.196 -0.4799 -0.7087  0.6077
  538MOL0     O72531   3.941   5.523  11.208  0.2367  0.9896  0.3968
  538MOL0     C72532   3.914   5.584  11.078  0.1361  0.1095 -0.3529
  538MOL0     C72533   3.781   5.649  11.103 -0.1464  0.0409  0.7294
  538MOL0     C72534   3.719   5.735  10.990 -0.1580  0.5162 -0.2294
  538MOL0     C72535   3.567   5.765  11.016 -0.0348 -0.4031 -0.6290
  538MOL0     C72536   3.496   5.818  10.895  0.0512 -0.2952 -0.0444
  538MOL0     C72537   3.356   5.878  10.930 -0.0234  0.0942 -0.3669
  538MOL0     C72538   3.254   5.777  10.966 -1.0162 -0.1393 -1.1983
  538MOL0     C72539   3.208   5.699  10.848  0.3280  0.4551  0.1539
  538MOL0    Cl72540   3.071   5.611  10.915  0.1280 -0.4463  0.2120
  538MOL0     C72541   4.009   5.297  11.152 -0.2822  0.1817 -0.4670
  538MOL0     C72542   4.093   5.197  11.157 -0.7672  0.2427  0.5933
  538MOL0     O72543   4.347   5.081  11.028  0.0503 -0.1299  1.2036
  538MOL0     C72544   4.539   4.909  11.080 -0.2363 -0.4301  0.0724
  538MOL0     C72545   4.629   4.811  11.107 -0.5371  0.3985 -0.8546
  538MOL0     N72546   5.200   4.338  11.547 -0.7531 -0.3372 -0.0241
  538MOL0     N72547   5.245   4.234  11.602  0.0974 -0.8790 -1.1919
  538MOL0     C72548   6.391   4.327  11.666 -0.9557 -0.6621 -0.2010
  538MOL0     C72549   6.509   4.335  11.589 -0.8564  0.3481  0.5174
  538MOL0     C72550   6.785   4.247  11.206  0.4675  0.0130  0.1850
  538MOL0     C72551   6.836   4.163  11.105  0.3177 -0.4096  0.3202
  538MOL0     C72552   6.960   4.192  11.045 -0.4526 -0.1627 -0.5124
  538MOL0     C72553   7.022   4.303  11.083  1.1131 -0.0039 -0.1150
  538MOL0     O72554   7.161   4.308  11.043 -0.1863  0.1920  0.2546
  538MOL0     C72555   7.193   4.406  10.946 -0.1746 -0.3520 -0.5663
  538MOL0     C72556   7.185   4.366  10.795  0.8124  0.4927 -0.4665
  538MOL0     C72557   7.244   4.452  10.690  0.4921 -0.1172  0.2625
  538MOL0     C72558   7.393   4.439  10.666 -0.0802  1.1737  0.0361
  538MOL0     C72559   7.426   4.512  10.548 -0.9574 -0.4488  0.6094
  538MOL0     C72560   7.472   4.579  10.448  0.2795 -0.3557  0.5362
  538MOL0     C72561   6.978   4.386  11.187 -0.3322  0.2945 -0.0779
  538MOL0     C72562   6.859   4.363  11.247 -0.7227 -0.3838  0.0269
  538MOL0     H72563   6.363   4.212  11.309  1.0503 -1.8331  0.3580
  538MOL0     H72564   6.177   4.212  11.427  0.2782 -0.6919  0.0228
  538MOL0     H72565   5.954   4.268  11.716  1.3054  1.9520  0.1884
  538MOL0     H72566   6.009   4.272  11.553  0.2616  0.6822  0.4186
  538MOL0     H72567   6.107   4.044  11.588  0.2647 -0.1435 -1.1784
  538MOL0     H72568   6.006   4.039  11.741 -4.1202  1.2130 -0.3071
  538MOL0     H72569   5.891   4.075  11.472  2.3924  1.5129  1.4564
  538MOL0     H72570   5.899   3.919  11.554 -0.5815 -0.1258 -0.1865
  538MOL0     H72571   5.761   4.024  11.750  1.3840 -1.1996 -0.4331
  538MOL0     H72572   5.738   4.168  11.651 -0.3042 -0.6063  1.1200
  538MOL0     H72573   5.653   4.006  11.464 -1.4695 -0.6631 -1.0868
  538MOL0     H72574   5.654   3.876  11.588  1.1196  1.6140  0.6969
  538MOL0     H72575   5.477   4.033  11.700 -0.7456  0.8377  0.3611
  538MOL0     H72576   5.496   4.141  11.560  1.8715  0.2608 -0.6389
  538MOL0     H72577   5.429   3.953  11.416  2.4428 -2.4881  0.4206
  538MOL0     H72578   5.423   3.843  11.553  2.9983  0.1490  0.5271
  538MOL0     H72579   5.236   3.974  11.658  0.8124 -0.7485  0.7440
  538MOL0     H72580   5.185   3.928  11.490 -3.1804  2.7327  1.4886
  538MOL0     H72581   5.149   4.126  11.316  0.4367 -1.2388  1.9936
  538MOL0     H72582   5.177   4.521  11.374  0.8074  0.3415 -1.5470
  538MOL0     H72583   5.171   4.419  11.238 -0.6423 -1.6303  0.2483
  538MOL0     H72584   4.903   4.384  11.360 -1.8626  0.7666 -0.5090
  538MOL0     H72585   4.955   4.460  11.215  0.1007  0.8282 -0.2183
  538MOL0     H72586   5.001   4.665  11.352  1.3108 -2.0830 -1.8355
  538MOL0     H72587   4.965   4.579  11.504 -0.3479 -1.1334 -0.1429
  538MOL0     H72588   4.769   4.712  11.441 -0.7251 -0.3406 -0.5413
  538MOL0     H72589   4.725   4.546  11.415  0.0734  1.7381  3.4129
  538MOL0     H72590   4.522   4.712  11.418 -2.6154  1.5744  1.8925
  538MOL0     H72591   4.388   4.930  11.507  1.3841  1.2616 -1.2348
  538MOL0     H72592   4.254   4.940  11.385 -0.6468 -2.6595 -3.4885
  538MOL0     H72593   4.300   4.788  11.442  0.1157  0.3118  2.1402
  538MOL0     H72594   4.343   5.370  11.331  2.3279  4.1360 -3.5376
  538MOL0     H72595   4.190   5.549  11.295 -0.6933  0.0729 -0.2503
  538MOL0     H72596   3.977   5.663  11.038  0.2918 -0.9404 -2.3358
  538MOL0     H72597   3.907   5.505  11.002 -0.4192 -0.8409  0.6452
  538MOL0     H72598   3.705   5.575  11.131 -4.2570  2.3650 -2.8687
  538MOL0     H72599   3.793   5.725  11.181 -0.4890  2.4635 -1.4443
  538MOL0     H72600   3.735   5.672  10.902 -0.1605  0.2375 -0.0316
  538MOL0     H72601   3.773   5.830  10.989  0.4055  0.2227  0.7576
  538MOL0     H72602   3.528   5.665  11.037 -0.3016 -0.3874 -1.0314
  538MOL0     H72603   3.552   5.832  11.100 -0.2166  1.5675 -2.1582
  538MOL0     H72604   3.483   5.734  10.827  1.6548 -2.2828  1.9586
  538MOL0     H72605   3.561   5.896  10.853 -1.0720  1.6271  1.5605
  538MOL0     H72606   3.375   5.943  11.016 -0.5944 -2.1015  1.5371
  538MOL0     H72607   3.310   5.937  10.851 -0.7814 -0.9610 -0.7377
  538MOL0     H72608   3.169   5.838  11.000 -0.4633 -1.0995  2.2246
  538MOL0     H72609   3.286   5.715  11.050  1.9211  1.8038 -0.7472
  538MOL0     H72610   3.293   5.643  10.809  0.6595  0.8373  0.3159
  538MOL0     H72611   3.175   5.762  10.764 -0.1069 -0.0981 -0.0955
  538MOL0     H72612   3.907   5.267  11.128  0.6102 -1.6976 -2.1793
  538MOL0     H72613   4.075   5.101  11.111  1.1973  0.0343  0.1641
  538MOL0     H72614   4.556   4.969  10.991 -0.9224  0.2131  0.3731
  538MOL0     H72615   4.716   4.794  11.043 -1.6556 -1.1865 -2.0202
  538MOL0     H72616   6.389   4.351  11.772 -0.3763 -0.9883 -0.1079
  538MOL0     H72617   6.605   4.372  11.624 -0.7722  0.9346 -0.3080
  538MOL0     H72618   6.783   4.071  11.081 -2.1712  1.2126 -0.8140
  538MOL0     H72619   7.003   4.127  10.970 -1.6399  2.0078 -3.2864
  538MOL0     H72620   7.129   4.493  10.961 -0.8351 -0.5543 -2.0486
  538MOL0     H72621   7.297   4.436  10.962 -0.1543 -0.1255 -1.0918
  538MOL0     H72622   7.080   4.349  10.768  0.1140  1.9584  1.0853
  538MOL0     H72623   7.230   4.267  10.791  0.8907  0.4781  0.5028
  538MOL0     H72624   7.232   4.558  10.718  1.3913 -0.1652  0.8805
  538MOL0     H72625   7.190   4.434  10.597 -2.9895  2.0116  1.6354
  538MOL0     H72626   7.409   4.332  10.652 -2.8566  0.4448  1.6641
  538MOL0     H72627   7.445   4.478  10.754  0.3836  0.8655 -0.0977
  538MOL0     H72628   7.529   4.624  10.369 -2.0037  0.2571 -0.8559
  538MOL0     H72629   7.051   4.459  11.219  0.1153  0.3978 -1.3042
  538MOL0     H72630   6.834   4.427  11.331 -0.0048 -0.5968  0.4154
  539MOL0     O72631   0.208  10.859   6.747  0.1316  0.0564  0.4211
  539MOL0     C72632   0.271  10.870   6.643 -0.0845  0.6977 -0.4029
  539MOL0     O72633   0.234  10.946   6.532 -0.0137  0.5792  0.1190
  539MOL0     C72634   0.122  11.032   6.543  0.1433  0.6540 -0.3568
  539MOL0     C72635   0.075  11.097   6.658  0.0275  0.1676 -0.7154
  539MOL0     C72636  -0.035  11.180   6.658  0.0434  1.0840  0.0449
  539MOL0     C72637  -0.118  11.178   6.549 -0.3238  0.0539  0.9483
  539MOL0     O72638  -0.228  11.256   6.546  0.3743 -0.8475  0.2823
  539MOL0     C72639  -0.328  11.237   6.450 -0.7755  1.0386 -0.1063
  539MOL0     C72640  -0.434  11.344   6.479  0.3559  0.1692  0.1788
  539MOL0     C72641  -0.544  11.345   6.371  0.2401  0.3732 -0.0208
  539MOL0     C72642  -0.639  11.469   6.390  0.8453  0.4269 -0.2672
  539MOL0     C72643  -0.778  11.417   6.361  0.3016  0.2347  0.3099
  539MOL0     C72644  -0.883  11.527   6.342  0.7794 -0.1948 -0.5273
  539MOL0     C72645  -1.019  11.473   6.294 -0.7701  0.1010 -0.5133
  539MOL0     C72646  -1.115  11.576   6.235  0.7082 -0.2000  0.2176
  539MOL0     N72647  -1.259  11.528   6.234  0.1616 -0.4861 -0.2004
  539MOL0     C72648  -1.306  11.414   6.175 -0.2024 -0.8982  0.7146
  539MOL0     C72649  -1.435  11.442   6.161  0.1453  0.5170  0.2896
  539MOL0     C72650  -1.537  11.368   6.076  0.1645  0.2483  0.0469
  539MOL0     C72651  -1.630  11.262   6.155 -0.0824  0.4152 -0.4111
  539MOL0     C72652  -1.728  11.336   6.253 -0.6823  0.6931  0.0591
  539MOL0     C72653  -1.820  11.246   6.332 -0.3979 -0.3084  0.0624
  539MOL0     O72654  -1.929  11.324   6.376  0.9053  0.2286 -0.1543
  539MOL0     C72655  -2.028  11.268   6.461 -0.4889 -0.3374  1.2095
  539MOL0     C72656  -2.156  11.335   6.472 -0.5117 -0.5202 -0.6882
  539MOL0     C72657  -2.259  11.283   6.544  0.6650  0.2398  0.5779
  539MOL0     C72658  -2.386  11.364   6.549 -0.5563  0.7420 -0.0640
  539MOL0     C72659  -2.238  11.155   6.613  0.0637 -0.2233 -0.7214
  539MOL0     C72660  -2.334  11.085   6.707 -0.2714 -0.1918 -0.1683
  539MOL0     O72661  -2.282  10.996   6.796  0.3732 -0.2894  0.2247
  539MOL0     C72662  -2.372  10.903   6.852 -0.5055  0.7569  0.3449
  539MOL0     C72663  -2.352  10.871   6.986  0.9734  0.3491 -0.6686
  539MOL0     C72664  -2.437  10.780   7.049  0.6694 -0.5656 -0.0568
  539MOL0     C72665  -2.551  10.723   6.987 -0.1314  0.1429  0.0038
  539MOL0     O72666  -2.610  10.619   7.048  0.1105  0.5743  0.9532
  539MOL0     C72667  -2.640  10.500   6.978 -0.0130  0.5346 -0.1817
  539MOL0     C72668  -2.795  10.471   6.974 -0.8595  0.5827  0.3328
  539MOL0     C72669  -2.884  10.584   6.921 -0.1394  0.2476  0.4886
  539MOL0     C72670  -2.915  10.577   6.774 -0.3055  0.1013  0.1188
  539MOL0     C72671  -3.011  10.686   6.752 -0.8029  0.3743  0.8559
  539MOL0     C72672  -2.947  10.818   6.719  0.5150 -0.7950 -0.7029
  539MOL0     C72673  -3.051  10.915   6.661 -0.0448 -0.1090  0.1670
  539MOL0     C72674  -3.161  10.939   6.763 -0.0570 -0.3557  0.2406
  539MOL0    Cl72675  -3.292  10.815   6.758 -0.4820 -0.4466 -0.4009
  539MOL0     C72676  -2.561  10.745   6.850  0.2469  0.0003 -0.2151
  539MOL0     C72677  -2.474  10.832   6.780  0.2725 -1.6988 -0.0863
  539MOL0     O72678  -2.453  11.119   6.706 -0.4087 -0.2972  0.4773
  539MOL0     C72679  -2.114  11.092   6.613 -0.0038 -0.1685  0.2983
  539MOL0     C72680  -2.017  11.151   6.531  0.6457 -0.2821 -0.3154
  539MOL0     N72681  -1.460  11.569   6.216 -0.0438  0.1929 -0.2107
  539MOL0     N72682  -1.356  11.618   6.267  0.4312 -0.0944  0.2588
  539MOL0     C72683  -0.064  11.125   6.432 -0.4371 -0.4161 -0.2199
  539MOL0     C72684   0.055  11.053   6.421 -0.2749 -0.2401 -0.1553
  539MOL0     C72685   0.404  10.799   6.634 -0.7165 -0.7807  0.4509
  539MOL0     C72686   0.478  10.801   6.510 -0.0885  0.4800 -0.0525
  539MOL0     C72687   0.601  10.740   6.508 -0.1109  0.4761  0.4593
  539MOL0     C72688   0.646  10.658   6.616 -0.4170  0.0958  1.0749
  539MOL0     O72689   0.762  10.588   6.612  0.8831  0.5803 -0.1705
  539MOL0     C72690   0.737  10.452   6.586 -0.1186  0.1221 -0.0487
  539MOL0     C72691   0.864  10.384   6.632  0.1002 -0.5891  0.1779
  539MOL0     C72692   0.987  10.425   6.546  0.5790 -0.3367  0.7168
  539MOL0     C72693   1.102  10.336   6.586  0.3793 -0.4643 -0.2706
  539MOL0     C72694   1.232  10.402   6.535  0.8679 -0.3843  0.0316
  539MOL0     C72695   1.319  10.475   6.488 -0.3896  0.2821  0.1623
  539MOL0     C72696   0.579  10.674   6.737 -0.6310 -0.4500 -0.3872
  539MOL0     C72697   0.454  10.737   6.751  0.1249  0.7499 -0.0495
  539MOL0     H72698   0.138  11.091   6.746  1.2579  2.0886 -1.4163
  539MOL0     H72699  -0.064  11.224   6.753 -1.2021  2.5832 -0.9762
  539MOL0     H72700  -0.283  11.252   6.351 -2.3701 -2.0765 -1.4476
  539MOL0     H72701  -0.371  11.137   6.457 -2.3861  1.8026  1.7648
  539MOL0     H72702  -0.474  11.318   6.578  3.0823  0.3795  1.4224
  539MOL0     H72703  -0.371  11.433   6.485  0.8904 -0.2440  0.8079
  539MOL0     H72704  -0.505  11.368   6.271 -3.2445  1.9548 -1.1831
  539MOL0     H72705  -0.600  11.251   6.380 -1.3945  1.4026  0.9476
  539MOL0     H72706  -0.637  11.516   6.489  0.2573  2.8219 -1.3211
  539MOL0     H72707  -0.601  11.546   6.322 -1.6374  1.1840 -0.8775
  539MOL0     H72708  -0.780  11.349   6.276 -0.9330 -2.1604  2.1226
  539MOL0     H72709  -0.802  11.353   6.446  2.1104  0.0699  0.7431
  539MOL0     H72710  -0.896  11.587   6.433  0.9776  0.8570 -1.1718
  539MOL0     H72711  -0.842  11.589   6.262 -0.7239 -1.4304 -2.3321
  539MOL0     H72712  -0.988  11.395   6.225 -0.4068  0.3126 -0.5931
  539MOL0     H72713  -1.068  11.421   6.377 -1.1228  0.7789 -0.2798
  539MOL0     H72714  -1.089  11.604   6.133  2.6383 -0.2399  0.6437
  539MOL0     H72715  -1.118  11.674   6.283  0.1086 -0.0495 -0.1172
  539MOL0     H72716  -1.247  11.338   6.125 -0.6922 -0.5580 -0.4010
  539MOL0     H72717  -1.607  11.438   6.028 -1.6607 -0.9593  0.8168
  539MOL0     H72718  -1.490  11.318   5.991 -2.1088 -1.5413 -0.2668
  539MOL0     H72719  -1.565  11.190   6.204 -0.2355  0.0720 -0.7076
  539MOL0     H72720  -1.687  11.200   6.086 -2.2845 -0.6872  2.2304
  539MOL0     H72721  -1.790  11.406   6.197 -3.2603 -2.5442 -1.5124
  539MOL0     H72722  -1.666  11.399   6.318  0.2566  0.3709 -0.4928
  539MOL0     H72723  -1.769  11.201   6.418  1.3203  1.9997  0.3353
  539MOL0     H72724  -1.841  11.158   6.270  3.8694 -0.8142 -0.9794
  539MOL0     H72725  -2.164  11.438   6.439  0.5475 -0.4354 -0.6911
  539MOL0     H72726  -2.414  11.369   6.654 -1.9123  0.1605 -0.3727
  539MOL0     H72727  -2.381  11.467   6.513 -0.4967  1.8627  2.8762
  539MOL0     H72728  -2.462  11.315   6.487 -0.0779  0.6333 -0.5782
  539MOL0     H72729  -2.278  10.928   7.042  0.8587  1.5297 -1.6688
  539MOL0     H72730  -2.422  10.758   7.155 -0.3877  2.2904  0.7878
  539MOL0     H72731  -2.599  10.500   6.876 -2.2665  2.8069 -1.2016
  539MOL0     H72732  -2.590  10.419   7.031  0.5415 -0.5749 -2.2919
  539MOL0     H72733  -2.810  10.381   6.914 -1.8347  0.1759  1.1513
  539MOL0     H72734  -2.827  10.440   7.074  2.1918  0.3578  1.3304
  539MOL0     H72735  -2.834  10.678   6.947  1.1727 -0.0018 -0.9575
  539MOL0     H72736  -2.966  10.575   6.993 -1.0972 -1.2640 -0.7291
  539MOL0     H72737  -2.824  10.603   6.719 -0.4687  2.2279  0.7827
  539MOL0     H72738  -2.962  10.485   6.737 -1.9284  1.4633 -1.3534
  539MOL0     H72739  -3.082  10.693   6.835 -2.1274 -0.5380 -0.1764
  539MOL0     H72740  -3.068  10.664   6.661  1.2367  0.9532 -0.6412
  539MOL0     H72741  -2.910  10.859   6.814 -1.1927 -3.6153  1.3528
  539MOL0     H72742  -2.857  10.809   6.659  1.8065  1.3389  0.7803
  539MOL0     H72743  -3.080  10.890   6.559 -2.3973  2.0034  0.2140
  539MOL0     H72744  -2.997  11.010   6.652 -1.0708  0.5128  0.4059
  539MOL0     H72745  -3.207  11.038   6.749 -1.9999 -1.2699 -0.3134
  539MOL0     H72746  -3.115  10.938   6.862 -0.6536  0.8069  0.5517
  539MOL0     H72747  -2.645  10.690   6.808 -1.6642 -0.0203  3.2513
  539MOL0     H72748  -2.488  10.840   6.672  3.0472  0.6411 -0.4268
  539MOL0     H72749  -2.082  11.001   6.662  1.8926  0.3614  0.1623
  539MOL0     H72750  -1.924  11.094   6.526  1.9573  1.7400  0.0059
  539MOL0     H72751  -0.100  11.154   6.334 -1.6397 -0.7188  0.1113
  539MOL0     H72752   0.099  11.023   6.327 -3.1938 -1.2371 -1.3377
  539MOL0     H72753   0.437  10.845   6.420  0.6811 -1.0229 -1.1918
  539MOL0     H72754   0.665  10.739   6.421 -0.1652 -0.1892  0.4185
  539MOL0     H72755   0.647  10.416   6.636 -0.0086  2.0361  1.6071
  539MOL0     H72756   0.725  10.435   6.478 -1.1813  0.8891 -0.0664
  539MOL0     H72757   0.853  10.275   6.635 -0.0704 -0.5800 -0.0880
  539MOL0     H72758   0.894  10.423   6.730 -0.8439  1.0863 -0.1770
  539MOL0     H72759   1.004  10.532   6.563 -2.5670  0.2114  0.9068
  539MOL0     H72760   0.958  10.403   6.443 -2.0207 -0.6711  1.4591
  539MOL0     H72761   1.087  10.235   6.546 -0.2182 -1.6785  2.7316
  539MOL0     H72762   1.121  10.331   6.694  1.6401 -2.2204 -0.5216
  539MOL0     H72763   1.401  10.519   6.435 -0.1635  0.6744  0.8375
  539MOL0     H72764   0.617  10.605   6.811  2.0918 -1.6381 -2.7530
  539MOL0     H72765   0.406  10.737   6.849 -0.2708 -2.8404 -0.1285
  540MOL0     O72766   0.731   3.932   5.042 -0.5679  0.1511 -0.0489
  540MOL0     C72767   0.704   3.857   4.949 -0.2056 -0.2189  0.7710
  540MOL0     O72768   0.585   3.787   4.926  0.2042 -0.2421 -0.2498
  540MOL0     C72769   0.501   3.768   5.028 -0.1803  0.2584  0.5296
  540MOL0     C72770   0.539   3.736   5.158 -0.1063 -0.3515 -0.0776
  540MOL0     C72771   0.454   3.745   5.264 -0.3795 -0.1491 -0.3300
  540MOL0     C72772   0.316   3.748   5.246  0.1331  0.2427  0.4950
  540MOL0     O72773   0.242   3.741   5.356 -0.7193 -0.1844  0.7227
  540MOL0     C72774   0.110   3.812   5.364  0.2439  0.7117 -0.0542
  540MOL0     C72775   0.040   3.787   5.498 -0.0976  0.8590  0.4904
  540MOL0     C72776  -0.049   3.905   5.563  0.6452  0.4263  1.1500
  540MOL0     C72777   0.040   3.996   5.643  0.1584  0.2328  0.5295
  540MOL0     C72778  -0.050   4.108   5.694  0.0293  0.0489 -0.2668
  540MOL0     C72779   0.035   4.225   5.763  0.5474  1.0145  0.0696
  540MOL0     C72780  -0.033   4.353   5.792 -1.2338 -0.5526 -0.5975
  540MOL0     C72781   0.034   4.467   5.875 -0.5218 -0.3488 -0.0573
  540MOL0     N72782   0.076   4.421   6.010 -0.4790  0.2859 -0.3612
  540MOL0     C72783   0.027   4.474   6.130  0.3405  1.1394  0.8557
  540MOL0     C72784   0.071   4.397   6.238 -0.3717  0.2670  0.4955
  540MOL0     C72785   0.041   4.412   6.383  0.0893  0.2790  0.4019
  540MOL0     C72786   0.097   4.545   6.451  0.1801 -0.3513 -0.3786
  540MOL0     C72787   0.253   4.554   6.450  0.3781 -0.8009  0.7550
  540MOL0     C72788   0.302   4.683   6.507  0.3506 -1.1674 -0.3189
  540MOL0     O72789   0.282   4.804   6.429  0.4505 -0.2750 -1.2454
  540MOL0     C72790   0.177   4.882   6.452 -0.0657  0.7899  0.3967
  540MOL0     C72791   0.181   4.993   6.373  0.8612 -0.2704 -0.4840
  540MOL0     C72792   0.094   5.105   6.387 -0.0321  0.6220 -0.0545
  540MOL0     C72793   0.113   5.222   6.306 -0.2407  0.5058 -0.4570
  540MOL0     C72794  -0.017   5.094   6.475  0.2695 -0.0846  0.9394
  540MOL0     C72795  -0.126   5.202   6.490 -0.5677 -0.6576  0.1264
  540MOL0     O72796  -0.181   5.213   6.620 -0.0385 -0.2685 -0.6158
  540MOL0     C72797  -0.307   5.283   6.626 -1.8323  0.0769  0.7624
  540MOL0     C72798  -0.409   5.265   6.539 -0.2992 -0.2326  0.6356
  540MOL0     C72799  -0.526   5.336   6.552 -0.1368  0.6935 -0.0816
  540MOL0     C72800  -0.543   5.426   6.657 -0.3994 -0.6899  0.4911
  540MOL0     O72801  -0.666   5.476   6.693 -0.4229  0.4068 -1.0808
  540MOL0     C72802  -0.743   5.367   6.766 -1.0236 -0.5421  0.5349
  540MOL0     C72803  -0.871   5.410   6.834 -0.5794  0.5900 -0.2189
  540MOL0     C72804  -0.839   5.474   6.968 -0.3441 -0.0534  0.2581
  540MOL0     C72805  -0.965   5.537   7.027 -0.6075  0.6266 -0.4566
  540MOL0     C72806  -0.963   5.532   7.187 -0.1544  0.3991  0.5369
  540MOL0     C72807  -1.076   5.617   7.242  0.2546 -0.0123 -0.1600
  540MOL0     C72808  -1.079   5.622   7.393  0.3502 -0.3061 -0.9106
  540MOL0     C72809  -1.220   5.655   7.445  0.3007  0.2363 -0.3376
  540MOL0    Cl72810  -1.317   5.503   7.429 -0.4400 -0.7658  0.1138
  540MOL0     C72811  -0.441   5.434   6.750  0.1123  0.0669 -0.8613
  540MOL0     C72812  -0.326   5.363   6.736 -0.3533 -0.2674 -0.1682
  540MOL0     O72813  -0.142   5.285   6.404  0.2238 -0.1396 -0.2754
  540MOL0     C72814  -0.034   4.973   6.550  0.4700 -0.2961  0.9414
  540MOL0     C72815   0.071   4.874   6.542  0.7543  0.3825  0.1571
  540MOL0     N72816   0.156   4.302   6.179  0.0790  0.7925  0.5396
  540MOL0     N72817   0.142   4.305   6.051 -0.1706  0.4352 -0.5944
  540MOL0     C72818   0.264   3.774   5.113  0.1437  0.5494 -0.0713
  540MOL0     C72819   0.361   3.792   5.008  0.7696  0.5387 -0.4845
  540MOL0     C72820   0.812   3.813   4.852 -0.1580  0.3860 -0.8306
  540MOL0     C72821   0.814   3.693   4.783 -0.0554  0.7121  0.5346
  540MOL0     C72822   0.918   3.666   4.699  0.3474  0.1907 -0.0385
  540MOL0     C72823   1.028   3.748   4.677  0.0332  0.3127  0.6840
  540MOL0     O72824   1.132   3.698   4.603  0.8579 -0.5952 -0.1527
  540MOL0     C72825   1.244   3.785   4.581  0.8007 -0.1363  0.3313
  540MOL0     C72826   1.322   3.742   4.453 -0.3989  0.2025  0.2848
  540MOL0     C72827   1.411   3.617   4.487  0.6572  0.1270 -0.4751
  540MOL0     C72828   1.453   3.550   4.362  0.0883 -0.1773  0.4221
  540MOL0     C72829   1.544   3.636   4.288 -0.0500 -0.3066  0.1778
  540MOL0     C72830   1.625   3.699   4.231  0.4486 -0.5904 -0.9939
  540MOL0     C72831   1.027   3.871   4.751  1.3573 -0.5307 -0.5130
  540MOL0     C72832   0.924   3.901   4.845  0.6953 -0.0315  0.4438
  540MOL0     H72833   0.644   3.719   5.177 -0.0352 -1.1392 -1.0601
  540MOL0     H72834   0.494   3.723   5.363 -3.1865 -0.7864  0.7858
  540MOL0     H72835   0.126   3.920   5.361  2.4974  0.4842  1.3403
  540MOL0     H72836   0.051   3.786   5.275 -0.7151 -1.7059  1.1812
  540MOL0     H72837  -0.022   3.700   5.473  2.0949 -0.8329  0.6249
  540MOL0     H72838   0.109   3.764   5.580  0.9666  4.5823  0.8147
  540MOL0     H72839  -0.100   3.950   5.478 -1.1931 -0.7880  1.5464
  540MOL0     H72840  -0.125   3.852   5.621  0.6893 -0.1914  0.6541
  540MOL0     H72841   0.081   3.947   5.731  1.4368 -0.8081 -0.6110
  540MOL0     H72842   0.116   4.044   5.581 -0.1307 -0.3552 -0.3059
  540MOL0     H72843  -0.115   4.156   5.621  0.3507  3.8278  1.6827
  540MOL0     H72844  -0.117   4.060   5.766 -0.7635  1.2162 -0.2018
  540MOL0     H72845   0.046   4.172   5.858 -0.4301 -1.3751 -1.0586
  540MOL0     H72846   0.135   4.238   5.719  0.8798 -1.1109  0.0986
  540MOL0     H72847  -0.046   4.409   5.699  1.6668  4.0019  1.3966
  540MOL0     H72848  -0.132   4.330   5.831 -1.5808 -2.0925 -2.2402
  540MOL0     H72849  -0.041   4.547   5.884 -0.8602 -0.5172 -1.2998
  540MOL0     H72850   0.113   4.510   5.814 -1.2193  0.0229 -0.7231
  540MOL0     H72851  -0.053   4.547   6.137 -2.6424 -1.5303 -2.3017
  540MOL0     H72852  -0.068   4.404   6.391  0.1025  0.7057  1.0159
  540MOL0     H72853   0.094   4.331   6.435  0.6089 -0.0599 -0.5987
  540MOL0     H72854   0.069   4.545   6.557  1.0541  1.6279 -0.0995
  540MOL0     H72855   0.056   4.634   6.403 -4.3759 -1.7990  0.3464
  540MOL0     H72856   0.285   4.553   6.346  1.9860  2.8878  1.0631
  540MOL0     H72857   0.310   4.474   6.498  0.7374 -0.6253  0.6277
  540MOL0     H72858   0.408   4.672   6.532 -0.1748 -0.1667  2.7729
  540MOL0     H72859   0.261   4.699   6.607 -0.1600  2.2648 -0.9505
  540MOL0     H72860   0.266   4.998   6.307  0.8408  3.2028 -0.4111
  540MOL0     H72861   0.034   5.222   6.229  0.6250 -2.2354 -1.4909
  540MOL0     H72862   0.100   5.313   6.365  0.5521  1.4557 -1.6949
  540MOL0     H72863   0.208   5.232   6.253  2.8690 -2.2977  3.9840
  540MOL0     H72864  -0.401   5.194   6.457 -0.7957  0.4773 -0.0391
  540MOL0     H72865  -0.617   5.302   6.503 -1.5811  0.3307  2.6449
  540MOL0     H72866  -0.764   5.295   6.686  1.5051  0.3364 -1.0170
  540MOL0     H72867  -0.683   5.321   6.845 -3.0944 -1.5731  1.6153
  540MOL0     H72868  -0.931   5.470   6.766 -2.7052  0.9582  1.8629
  540MOL0     H72869  -0.939   5.326   6.855 -2.0977  1.6524 -0.7312
  540MOL0     H72870  -0.771   5.559   6.955  0.7095 -1.1819 -1.9654
  540MOL0     H72871  -0.787   5.407   7.037 -0.6331 -1.2685 -0.6898
  540MOL0     H72872  -0.995   5.630   6.978 -3.6296  0.7389  1.3064
  540MOL0     H72873  -1.042   5.462   7.005  0.2729 -1.2467  2.2336
  540MOL0     H72874  -0.867   5.578   7.212  1.5147 -2.1979 -0.6021
  540MOL0     H72875  -0.972   5.434   7.235 -2.0684  0.0331 -0.4981
  540MOL0     H72876  -1.051   5.720   7.212  0.2403  0.1430  0.3565
  540MOL0     H72877  -1.176   5.596   7.203 -0.2624  1.2863  0.4185
  540MOL0     H72878  -1.011   5.705   7.415  2.3430 -1.9220 -0.6706
  540MOL0     H72879  -1.042   5.529   7.437  1.7333  0.7264  0.1949
  540MOL0     H72880  -1.257   5.738   7.384  0.1076  1.1792  1.0254
  540MOL0     H72881  -1.222   5.682   7.551  2.6142  1.7470 -0.6058
  540MOL0     H72882  -0.446   5.503   6.834  3.3357 -0.0988 -0.3812
  540MOL0     H72883  -0.246   5.371   6.809 -0.9077  0.1736  0.4055
  540MOL0     H72884  -0.106   4.958   6.630  0.6514 -0.9634  0.9830
  540MOL0     H72885   0.060   4.789   6.608 -1.7904 -1.6097 -2.5824
  540MOL0     H72886   0.157   3.774   5.097  0.3888 -0.8355 -2.1236
  540MOL0     H72887   0.334   3.809   4.904 -0.2595 -0.5516 -0.4100
  540MOL0     H72888   0.727   3.627   4.778  0.4565  0.0911 -0.4405
  540MOL0     H72889   0.921   3.570   4.648  0.3131  0.4620 -0.5586
  540MOL0     H72890   1.204   3.884   4.560 -0.1897 -0.1204  2.1111
  540MOL0     H72891   1.311   3.795   4.667 -0.7465  1.9724  1.3684
  540MOL0     H72892   1.375   3.825   4.405  1.3788 -1.2885 -0.4450
  540MOL0     H72893   1.248   3.706   4.381 -0.4329  0.5889  0.1256
  540MOL0     H72894   1.350   3.547   4.545 -0.0315  2.0370  1.2356
  540MOL0     H72895   1.501   3.635   4.546  0.3241  0.1918  0.0161
  540MOL0     H72896   1.366   3.519   4.303  0.6439 -0.1563 -0.4183
  540MOL0     H72897   1.501   3.456   4.393 -3.4999 -0.9870  4.6339
  540MOL0     H72898   1.685   3.762   4.169  2.3188 -2.4649 -1.1925
  540MOL0     H72899   1.116   3.933   4.749  1.4171 -0.5946 -0.0617
  540MOL0     H72900   0.943   3.989   4.906 -0.4836 -0.0557  0.8805
  541MOL0     O72901   4.117   4.537   6.274  0.1204  0.5297  0.0705
  541MOL0     C72902   3.994   4.541   6.288 -0.5946 -0.6362 -0.4764
  541MOL0     O72903   3.922   4.652   6.326  0.3371  0.3335 -0.0854
  541MOL0     C72904   3.982   4.760   6.389 -0.3985  0.1740 -0.6294
  541MOL0     C72905   3.929   4.891   6.376  0.8234  0.7630 -0.6355
  541MOL0     C72906   3.992   4.991   6.442  0.2458  0.2590  0.1833
  541MOL0     C72907   4.095   4.969   6.537  0.5522  0.5232  0.5021
  541MOL0     O72908   4.136   5.086   6.604  0.2438 -0.0580  0.4398
  541MOL0     C72909   4.252   5.085   6.685 -0.1087 -0.4774  0.9927
  541MOL0     C72910   4.256   5.210   6.776 -0.1209 -0.3387  0.9444
  541MOL0     C72911   4.164   5.186   6.901 -1.7129 -0.4635 -0.5010
  541MOL0     C72912   4.105   5.315   6.950  0.8610 -0.0485 -0.8400
  541MOL0     C72913   4.029   5.290   7.077 -0.1189  0.4600  0.0324
  541MOL0     C72914   4.117   5.273   7.197  0.8817 -0.5802 -0.0223
  541MOL0     C72915   4.032   5.274   7.323 -0.6839  0.3876  0.1736
  541MOL0     C72916   4.116   5.276   7.452 -0.0804 -0.0412  0.3747
  541MOL0     N72917   4.197   5.156   7.486  0.1826 -0.1643 -0.2429
  541MOL0     C72918   4.324   5.160   7.529  0.8903 -0.0598  0.2909
  541MOL0     C72919   4.343   5.039   7.591 -0.2967 -0.5015  0.2967
  541MOL0     C72920   4.460   5.003   7.682  0.3962 -0.2858 -0.6748
  541MOL0     C72921   4.589   4.999   7.600 -0.7627  0.4208  0.4778
  541MOL0     C72922   4.602   4.871   7.520 -0.1443 -0.0565  0.5633
  541MOL0     C72923   4.722   4.866   7.425 -0.0325  0.4254 -0.4192
  541MOL0     O72924   4.766   4.728   7.403 -0.5764  0.2443 -0.0560
  541MOL0     C72925   4.876   4.717   7.331  0.1607  0.3426  0.2944
  541MOL0     C72926   4.949   4.813   7.259 -0.1463  0.5747 -0.6301
  541MOL0     C72927   5.078   4.783   7.198  0.6315 -1.0048 -0.2266
  541MOL0     C72928   5.144   4.897   7.127  0.8497  0.4498  0.5217
  541MOL0     C72929   5.135   4.653   7.208 -0.9455  0.3408 -0.5236
  541MOL0     C72930   5.264   4.605   7.157 -0.2563 -1.1772 -0.3594
  541MOL0     O72931   5.299   4.648   7.033  0.4741  0.4909 -0.8947
  541MOL0     C72932   5.425   4.600   6.999 -0.0665  0.1719 -1.1033
  541MOL0     C72933   5.545   4.636   7.062  0.3340  0.4747  0.7412
  541MOL0     C72934   5.669   4.593   7.001  0.1921 -0.7768  0.4719
  541MOL0     C72935   5.669   4.517   6.883 -0.0672 -0.7077 -0.5168
  541MOL0     O72936   5.781   4.477   6.817  0.8009 -0.5949 -0.2116
  541MOL0     C72937   5.910   4.546   6.834 -0.6855  0.0410  0.4995
  541MOL0     C72938   6.006   4.523   6.716 -0.3225  0.9433 -0.0244
  541MOL0     C72939   6.146   4.582   6.746 -0.5693 -0.2218  0.4440
  541MOL0     C72940   6.236   4.558   6.630 -0.6234  0.0067 -0.0648
  541MOL0     C72941   6.363   4.650   6.635 -0.2096  0.2173 -0.1799
  541MOL0     C72942   6.477   4.607   6.541 -0.4928  0.1249 -0.3109
  541MOL0     C72943   6.586   4.705   6.570 -0.2695  0.3544  0.4528
  541MOL0     C72944   6.704   4.680   6.472  0.1653 -0.3920 -0.8644
  541MOL0    Cl72945   6.751   4.507   6.440 -0.1352  0.2853  0.3888
  541MOL0     C72946   5.550   4.500   6.818  0.0744  0.1774  0.0116
  541MOL0     C72947   5.428   4.532   6.880 -0.4844  0.2368  0.3885
  541MOL0     O72948   5.336   4.540   7.235  0.7763  0.2382  0.0624
  541MOL0     C72949   5.059   4.554   7.285  0.5109  0.8242 -0.2825
  541MOL0     C72950   4.935   4.592   7.342 -0.0506 -1.2423 -0.1625
  541MOL0     N72951   4.241   4.962   7.560  0.2561  1.1462  0.1397
  541MOL0     N72952   4.145   5.031   7.502 -0.3032 -0.5011  0.9716
  541MOL0     C72953   4.146   4.842   6.550  0.4962 -0.0396 -0.1518
  541MOL0     C72954   4.092   4.737   6.478 -0.3215  0.1289  0.6448
  541MOL0     C72955   3.916   4.421   6.266  0.1932 -0.0162  0.5641
  541MOL0     C72956   3.777   4.424   6.213 -0.5194 -0.1645  0.9302
  541MOL0     C72957   3.702   4.307   6.207  0.0470  0.5005  0.7970
  541MOL0     C72958   3.746   4.187   6.253  0.8366 -0.0141  0.8523
  541MOL0     O72959   3.658   4.079   6.255 -0.1839 -0.3063  0.2412
  541MOL0     C72960   3.607   4.038   6.379 -0.2056  0.4868  0.1413
  541MOL0     C72961   3.615   3.875   6.382 -0.1221 -0.3768 -0.7922
  541MOL0     C72962   3.759   3.837   6.406 -0.6980  0.0154  0.6279
  541MOL0     C72963   3.768   3.701   6.475  0.0768  0.5797 -0.3937
  541MOL0     C72964   3.917   3.663   6.491  0.2572  0.3587  0.4042
  541MOL0     C72965   4.032   3.634   6.489 -0.8149  0.1988  0.4553
  541MOL0     C72966   3.883   4.176   6.284 -0.4279  0.9592 -0.1670
  541MOL0     C72967   3.963   4.290   6.300  0.1968  0.3876  0.3245
  541MOL0     H72968   3.840   4.918   6.321  0.5455 -1.6764 -1.5000
  541MOL0     H72969   3.948   5.090   6.435 -0.1263  0.0098 -1.4003
  541MOL0     H72970   4.268   4.996   6.747 -0.7633 -1.7185 -0.5194
  541MOL0     H72971   4.341   5.087   6.622 -0.5630 -1.5650  0.2804
  541MOL0     H72972   4.361   5.230   6.799  0.3606  0.3855 -1.5761
  541MOL0     H72973   4.220   5.292   6.713  3.5379  0.4268 -0.4164
  541MOL0     H72974   4.083   5.117   6.873 -0.4312 -1.7271 -1.2413
  541MOL0     H72975   4.219   5.135   6.981 -2.6509 -2.3677 -1.0079
  541MOL0     H72976   4.182   5.391   6.966 -1.1944  2.2713 -1.2981
  541MOL0     H72977   4.045   5.351   6.866 -0.7447  0.1472  0.3562
  541MOL0     H72978   3.963   5.376   7.094 -1.8863 -1.3973  3.7544
  541MOL0     H72979   3.968   5.201   7.065 -0.0240  0.4330 -0.2434
  541MOL0     H72980   4.165   5.175   7.187 -0.8588 -1.3851 -0.8794
  541MOL0     H72981   4.201   5.344   7.196  1.6617 -1.0803  5.0938
  541MOL0     H72982   3.970   5.364   7.321  0.1863  1.0043 -0.1520
  541MOL0     H72983   3.975   5.181   7.318  1.0428 -0.6555 -1.6518
  541MOL0     H72984   4.056   5.297   7.541 -0.1085  2.9750 -0.2600
  541MOL0     H72985   4.180   5.363   7.432  2.2630 -2.3204 -3.1927
  541MOL0     H72986   4.392   5.245   7.523  0.1469  0.7105  2.2060
  541MOL0     H72987   4.471   5.089   7.748 -0.2055  0.6391 -1.7452
  541MOL0     H72988   4.435   4.914   7.740 -0.9042  1.3036  1.3483
  541MOL0     H72989   4.683   5.018   7.654 -0.1833  2.6058 -1.1172
  541MOL0     H72990   4.584   5.084   7.531 -1.7124 -0.8441 -1.0704
  541MOL0     H72991   4.511   4.863   7.459 -0.9655  0.9025  1.6125
  541MOL0     H72992   4.609   4.783   7.584  0.0764 -0.3291  0.1701
  541MOL0     H72993   4.798   4.922   7.480 -1.4699  1.9923  0.0695
  541MOL0     H72994   4.709   4.920   7.330 -0.7865  1.7818  0.4188
  541MOL0     H72995   4.903   4.911   7.246 -0.3025  0.2020 -3.4282
  541MOL0     H72996   5.115   4.997   7.160  1.6072  0.7989  0.1534
  541MOL0     H72997   5.252   4.885   7.139  0.7352  1.4006  2.8614
  541MOL0     H72998   5.117   4.901   7.021  0.9904  2.6553  0.5302
  541MOL0     H72999   5.533   4.690   7.156 -1.5976  2.1231 -0.3649
  541MOL0     H73000   5.750   4.600   7.074 -2.1764 -1.2344  3.3216
  541MOL0     H73001   5.907   4.656   6.839 -1.0825  0.3752 -3.3837
  541MOL0     H73002   5.961   4.504   6.920 -1.1105 -0.0806  0.6935
  541MOL0     H73003   6.026   4.417   6.697  1.1858  1.1744  0.1326
  541MOL0     H73004   5.956   4.566   6.629 -0.0245 -0.0758 -0.7218
  541MOL0     H73005   6.185   4.544   6.841  1.3386 -0.7117 -0.4983
  541MOL0     H73006   6.135   4.691   6.755 -0.9341  0.1094 -2.8073
  541MOL0     H73007   6.267   4.454   6.612  2.2455  0.9594 -1.2710
  541MOL0     H73008   6.166   4.585   6.550  0.3645 -1.2472 -1.4239
  541MOL0     H73009   6.392   4.639   6.740  1.6469 -2.2733 -0.8586
  541MOL0     H73010   6.336   4.755   6.622  2.5291  0.9683 -0.3021
  541MOL0     H73011   6.503   4.501   6.555 -1.4035 -0.0638  0.0259
  541MOL0     H73012   6.444   4.623   6.438 -0.6609 -0.3390 -0.3344
  541MOL0     H73013   6.630   4.699   6.670  2.6216  2.1709 -0.5671
  541MOL0     H73014   6.535   4.801   6.555  0.7204  0.7192 -0.7881
  541MOL0     H73015   6.795   4.735   6.495  0.1947 -1.2791  1.4171
  541MOL0     H73016   6.666   4.723   6.379  1.2144 -0.3436 -1.2764
  541MOL0     H73017   5.541   4.456   6.719 -1.4055  2.8777 -1.1626
  541MOL0     H73018   5.339   4.509   6.823 -2.0599  0.3940  2.6461
  541MOL0     H73019   5.101   4.455   7.297 -0.7325  0.5402  2.3672
  541MOL0     H73020   4.888   4.520   7.408  3.0029 -2.7015  0.6001
  541MOL0     H73021   4.238   4.828   6.606  1.5963 -0.6015 -2.0097
  541MOL0     H73022   4.133   4.638   6.495  0.5885  0.0233 -1.7735
  541MOL0     H73023   3.745   4.518   6.168  0.0847 -1.1184 -1.6094
  541MOL0     H73024   3.605   4.305   6.158  1.2430  0.4013 -1.7616
  541MOL0     H73025   3.661   4.088   6.460 -1.1425  0.1322  1.0092
  541MOL0     H73026   3.503   4.055   6.405  0.3066  0.5985  2.3283
  541MOL0     H73027   3.579   3.831   6.289 -3.9729 -0.4052  0.5071
  541MOL0     H73028   3.542   3.836   6.455 -1.6679  1.7900 -1.0666
  541MOL0     H73029   3.825   3.905   6.461 -0.8484  0.6862 -0.0165
  541MOL0     H73030   3.804   3.842   6.306 -1.6667  4.1047  0.2301
  541MOL0     H73031   3.731   3.624   6.407  1.3094 -1.4131  1.0667
  541MOL0     H73032   3.711   3.689   6.568 -2.0988 -0.2767 -1.7555
  541MOL0     H73033   4.136   3.606   6.492 -1.0464 -0.6176  1.2284
  541MOL0     H73034   3.920   4.076   6.304  1.5159  1.6908  0.0975
  541MOL0     H73035   4.069   4.289   6.326 -0.3300 -0.9480  2.6987
  542MOL0     O73036   1.911   9.953   4.768 -0.4712  0.5845  0.0152
  542MOL0     C73037   1.824   9.868   4.788  0.3631  0.1467  0.3617
  542MOL0     O73038   1.699   9.879   4.761  0.4701  1.3619  0.0871
  542MOL0     C73039   1.633   9.985   4.698  0.1290  0.1698  0.2647
  542MOL0     C73040   1.557  10.078   4.767 -0.4806  0.5393 -0.2062
  542MOL0     C73041   1.515  10.186   4.699  0.2295 -0.8427  0.5173
  542MOL0     C73042   1.544  10.213   4.565  0.1156  0.0354 -0.0327
  542MOL0     O73043   1.496  10.335   4.519 -0.5690  0.4849  0.2590
  542MOL0     C73044   1.554  10.382   4.403  0.2950 -0.9855  0.4512
  542MOL0     C73045   1.508  10.323   4.269  0.6499 -0.0796  0.1961
  542MOL0     C73046   1.542  10.410   4.154 -0.4678  1.0173  1.0416
  542MOL0     C73047   1.498  10.341   4.017 -0.0410  0.8800 -0.7888
  542MOL0     C73048   1.590  10.405   3.900  0.6259  0.5309  0.1120
  542MOL0     C73049   1.577  10.563   3.879  0.4247 -0.7354  0.3304
  542MOL0     C73050   1.425  10.605   3.864 -0.5898 -0.5240  1.1989
  542MOL0     C73051   1.411  10.755   3.932 -0.4893 -0.0070  0.1129
  542MOL0     N73052   1.525  10.843   3.896  0.8127  0.4523 -0.6562
  542MOL0     C73053   1.515  10.938   3.798  0.1928 -0.0254 -0.0570
  542MOL0     C73054   1.626  11.013   3.803 -0.2812  0.2432 -0.1252
  542MOL0     C73055   1.663  11.135   3.735  0.2237  0.2320 -0.4045
  542MOL0     C73056   1.779  11.104   3.640 -0.0106 -0.2777  0.2187
  542MOL0     C73057   1.860  11.230   3.586  0.1798 -0.4436 -0.3492
  542MOL0     C73058   1.760  11.334   3.525  0.3795  0.1644  0.4243
  542MOL0     O73059   1.719  11.413   3.639 -0.0718 -0.1828  0.6030
  542MOL0     C73060   1.630  11.517   3.614 -0.2843  0.3103  0.6388
  542MOL0     C73061   1.589  11.566   3.736  0.6580  0.1020  0.1049
  542MOL0     C73062   1.485  11.655   3.753 -0.6608  0.2701 -0.1205
  542MOL0     C73063   1.420  11.680   3.893  0.2332  1.1963  0.5959
  542MOL0     C73064   1.431  11.713   3.633  0.0762  0.0234  0.1078
  542MOL0     C73065   1.330  11.824   3.636  0.4248 -0.2470  0.1967
  542MOL0     O73066   1.270  11.856   3.514  0.2405 -0.5533  0.2914
  542MOL0     C73067   1.170  11.954   3.504  0.5221 -0.3234 -0.5078
  542MOL0     C73068   1.162  12.021   3.380  0.6213  0.6515 -0.5216
  542MOL0     C73069   1.067  12.115   3.358  1.2687  0.0738  0.7926
  542MOL0     C73070   0.983  12.166   3.461  0.2854 -0.5223 -0.5823
  542MOL0     O73071   0.893  12.269   3.436  0.4829 -0.1242 -0.3068
  542MOL0     C73072   0.884  12.329   3.308 -0.3649  0.6115 -0.0107
  542MOL0     C73073   0.984  12.438   3.306 -0.2342 -0.1877  0.4566
  542MOL0     C73074   0.923  12.555   3.384 -0.4836  0.2572 -0.3111
  542MOL0     C73075   1.012  12.676   3.384  1.1508  0.2841  0.1434
  542MOL0     C73076   1.133  12.661   3.477  0.4773 -0.3163  0.4725
  542MOL0     C73077   1.185  12.804   3.488  0.1829 -0.5917 -1.0548
  542MOL0     C73078   1.271  12.852   3.380  0.2220 -0.8720  0.2289
  542MOL0     C73079   1.332  12.986   3.409  0.5718 -0.0055  0.3094
  542MOL0    Cl73080   1.451  13.026   3.293  0.0460  0.1408  0.0608
  542MOL0     C73081   0.995  12.123   3.589 -0.4043 -0.4653 -0.1381
  542MOL0     C73082   1.081  12.013   3.615 -1.0500  0.4651  0.3413
  542MOL0     O73083   1.324  11.888   3.739  1.1924 -0.7681  0.1490
  542MOL0     C73084   1.478  11.664   3.508 -0.6976  0.4406 -0.0375
  542MOL0     C73085   1.574  11.565   3.495  0.5270  0.3002  0.2708
  542MOL0     N73086   1.701  10.963   3.918  0.1959 -0.5669  0.2416
  542MOL0     N73087   1.636  10.871   3.973  0.3024 -0.5509 -0.3708
  542MOL0     C73088   1.615  10.112   4.497 -0.0011 -1.0980 -0.4849
  542MOL0     C73089   1.667  10.004   4.565  0.4159  0.3430  0.6876
  542MOL0     C73090   1.871   9.743   4.862 -0.5109  0.1763 -0.0416
  542MOL0     C73091   1.777   9.645   4.911 -0.4422 -0.2150 -0.8863
  542MOL0     C73092   1.817   9.518   4.954 -0.5251 -0.5340 -0.6865
  542MOL0     C73093   1.960   9.493   4.962  0.4436 -0.0036  0.3138
  542MOL0     O73094   2.000   9.370   4.990 -0.2159  0.9040  0.4892
  542MOL0     C73095   1.952   9.315   5.110 -0.1242 -0.1003  0.8402
  542MOL0     C73096   2.046   9.203   5.153  0.0339  1.1286  1.3398
  542MOL0     C73097   2.003   9.158   5.290 -0.1319  0.1793 -0.1570
  542MOL0     C73098   2.104   9.064   5.359 -0.0378 -0.5544 -0.1481
  542MOL0     C73099   2.148   8.948   5.280 -0.3776  0.2052 -0.1467
  542MOL0     C73100   2.174   8.841   5.224  0.0101 -0.6964 -0.1875
  542MOL0     C73101   2.051   9.590   4.933 -0.3147 -0.3758 -0.1318
  542MOL0     C73102   2.004   9.710   4.878  0.1209 -0.7493 -0.0766
  542MOL0     H73103   1.514  10.072   4.866  0.6929  1.1273  0.3624
  542MOL0     H73104   1.460  10.263   4.753 -0.4502 -0.5573 -0.5648
  542MOL0     H73105   1.521  10.486   4.406 -1.3170 -1.4484  0.1565
  542MOL0     H73106   1.662  10.376   4.416  0.1481 -1.0940  1.8343
  542MOL0     H73107   1.540  10.219   4.261 -1.7520 -0.8281 -0.4812
  542MOL0     H73108   1.399  10.326   4.274  0.6569  0.8773 -0.0215
  542MOL0     H73109   1.506  10.512   4.166 -1.2924  0.9338 -0.4410
  542MOL0     H73110   1.651  10.420   4.154 -0.5519  2.2059 -0.3250
  542MOL0     H73111   1.504  10.232   4.024 -2.1351  0.7505 -0.3353
  542MOL0     H73112   1.394  10.369   3.998 -0.6437 -1.5632 -1.5059
  542MOL0     H73113   1.694  10.384   3.927  0.8629  1.5413 -0.0080
  542MOL0     H73114   1.564  10.357   3.805 -0.0306 -1.4725  1.2229
  542MOL0     H73115   1.622  10.604   3.970 -0.1615  1.3226 -0.2602
  542MOL0     H73116   1.639  10.601   3.797 -1.4706  0.1478 -0.7679
  542MOL0     H73117   1.406  10.612   3.757  1.0602 -0.7154  0.8623
  542MOL0     H73118   1.356  10.541   3.919 -1.1319 -1.7153 -0.7931
  542MOL0     H73119   1.415  10.736   4.039 -1.6607  1.3826  0.4321
  542MOL0     H73120   1.320  10.811   3.907  0.1402  1.4610  0.9740
  542MOL0     H73121   1.434  10.958   3.728  0.9063  0.3677 -0.7927
  542MOL0     H73122   1.579  11.178   3.680  0.9888  2.3807 -0.0089
  542MOL0     H73123   1.693  11.204   3.815 -0.7561 -0.2334  0.3765
  542MOL0     H73124   1.741  11.046   3.556  0.8880  0.3656 -0.6594
  542MOL0     H73125   1.851  11.033   3.684 -1.6720 -0.7907  2.2957
  542MOL0     H73126   1.930  11.188   3.513 -0.0549  1.6955 -1.9298
  542MOL0     H73127   1.916  11.278   3.666  0.0451 -0.9672  0.0588
  542MOL0     H73128   1.673  11.290   3.475  1.0819 -2.4821  1.3874
  542MOL0     H73129   1.817  11.402   3.461 -1.4190  3.0106  1.6328
  542MOL0     H73130   1.617  11.514   3.827 -0.2559 -0.9735 -0.2011
  542MOL0     H73131   1.311  11.673   3.886  0.1311  1.7497  1.4683
  542MOL0     H73132   1.452  11.605   3.966 -0.2425 -1.1779 -1.5095
  542MOL0     H73133   1.451  11.778   3.931 -0.7035  1.1374  1.5381
  542MOL0     H73134   1.227  11.992   3.297  0.0196  1.3819 -1.2587
  542MOL0     H73135   1.065  12.150   3.255  0.1735 -0.0306  0.7712
  542MOL0     H73136   0.906  12.268   3.220 -1.7451  1.4592 -0.9901
  542MOL0     H73137   0.787  12.377   3.292  0.5005  2.3335 -0.3354
  542MOL0     H73138   1.077  12.409   3.356 -0.7574 -0.4661  1.2891
  542MOL0     H73139   0.999  12.477   3.205  0.4776  3.2244  1.7387
  542MOL0     H73140   0.909  12.528   3.489  0.8886 -0.8186 -0.3705
  542MOL0     H73141   0.830  12.577   3.332 -1.8983 -0.4678  1.7977
  542MOL0     H73142   1.028  12.700   3.278 -4.8444  0.8357 -1.0256
  542MOL0     H73143   0.948  12.760   3.413  0.0961  0.4235 -2.3350
  542MOL0     H73144   1.201  12.589   3.433  1.0073  0.7655 -0.5286
  542MOL0     H73145   1.094  12.627   3.574 -1.9263  1.2245  0.1531
  542MOL0     H73146   1.099  12.868   3.513  1.7295  0.2920  2.7760
  542MOL0     H73147   1.247  12.806   3.578 -3.5750 -1.1769  1.7950
  542MOL0     H73148   1.207  12.869   3.294  0.6804  1.3481  0.2712
  542MOL0     H73149   1.358  12.790   3.354 -0.3647 -0.4588 -3.1318
  542MOL0     H73150   1.374  12.993   3.510  0.9785  1.3053  0.0729
  542MOL0     H73151   1.251  13.059   3.398  1.1039  0.9180  1.9963
  542MOL0     H73152   0.935  12.171   3.666  2.7850  2.5288  0.7899
  542MOL0     H73153   1.077  11.968   3.714 -1.6155 -1.0200 -0.3283
  542MOL0     H73154   1.447  11.702   3.411 -1.2179 -0.1778 -0.1283
  542MOL0     H73155   1.615  11.531   3.400  1.1833 -0.1706  0.7065
  542MOL0     H73156   1.648  10.109   4.394 -0.5341  0.7215 -0.7376
  542MOL0     H73157   1.730   9.939   4.505 -0.5638 -1.3506  1.4321
  542MOL0     H73158   1.669   9.658   4.919 -0.1692  1.2564  1.8991
  542MOL0     H73159   1.751   9.440   4.989  2.0896 -0.7766  4.7888
  542MOL0     H73160   1.953   9.390   5.190 -0.6930  1.1375 -0.2740
  542MOL0     H73161   1.848   9.281   5.099  0.0765 -0.1216 -1.4329
  542MOL0     H73162   2.150   9.239   5.155  0.2570  0.6945 -0.5776
  542MOL0     H73163   2.049   9.110   5.095  2.5477  0.3462  2.5787
  542MOL0     H73164   1.906   9.109   5.282  0.9700 -1.9566 -1.2353
  542MOL0     H73165   1.986   9.245   5.354 -0.3838 -0.7735  1.1061
  542MOL0     H73166   2.062   9.023   5.451 -1.8239 -1.0901 -1.1423
  542MOL0     H73167   2.187   9.127   5.391  0.3419 -0.7774 -0.6769
  542MOL0     H73168   2.187   8.753   5.164 -0.5567 -0.7236 -0.2759
  542MOL0     H73169   2.156   9.563   4.940 -0.9150 -3.7512 -2.0180
  542MOL0     H73170   2.078   9.787   4.855  1.4009 -1.9805 -0.2566
  543MOL0     O73171   0.802   7.196   7.316 -0.2357  0.4408  0.0128
  543MOL0     C73172   0.901   7.155   7.379 -0.4284  0.1342 -0.1540
  543MOL0     O73173   0.903   7.111   7.503 -0.6609 -0.0400 -0.6562
  543MOL0     C73174   0.782   7.131   7.567 -0.1031 -0.9918  0.3146
  543MOL0     C73175   0.664   7.056   7.554  0.1390  0.6768 -0.2314
  543MOL0     C73176   0.547   7.083   7.623  0.4473 -0.6883  0.5814
  543MOL0     C73177   0.540   7.195   7.699  0.0997 -0.0031  0.4881
  543MOL0     O73178   0.421   7.211   7.761 -0.2592  0.3982 -0.5282
  543MOL0     C73179   0.401   7.326   7.839  0.5568  0.5360  0.5691
  543MOL0     C73180   0.256   7.325   7.872  0.7530  0.0002 -1.3523
  543MOL0     C73181   0.228   7.210   7.963  0.1838  0.0199  1.1535
  543MOL0     C73182   0.152   7.248   8.089 -0.2382 -0.6245 -0.5221
  543MOL0     C73183   0.001   7.203   8.082  1.1929  0.3480 -0.1275
  543MOL0     C73184  -0.076   7.202   8.212  0.7234 -1.2526 -0.3448
  543MOL0     C73185  -0.076   7.331   8.281 -0.0980  0.0898  0.0597
  543MOL0     C73186  -0.173   7.332   8.398 -0.0956 -0.5067  0.7713
  543MOL0     N73187  -0.311   7.307   8.353  0.0091 -0.2838 -0.1162
  543MOL0     C73188  -0.387   7.236   8.441  0.1441 -0.1460 -0.1836
  543MOL0     C73189  -0.509   7.225   8.383  0.1295 -0.3456 -0.1946
  543MOL0     C73190  -0.627   7.144   8.432 -0.5144 -0.7300 -0.0673
  543MOL0     C73191  -0.671   7.189   8.577  0.0055 -0.6229  0.8086
  543MOL0     C73192  -0.737   7.331   8.563 -0.0008 -0.0541 -0.9651
  543MOL0     C73193  -0.762   7.391   8.697 -0.1690 -0.4328 -0.2075
  543MOL0     O73194  -0.857   7.314   8.771  0.3479  0.2906  0.2412
  543MOL0     C73195  -0.988   7.330   8.747  0.2517  0.3667  0.0713
  543MOL0     C73196  -1.055   7.442   8.700 -0.2034 -0.4467 -0.5679
  543MOL0     C73197  -1.195   7.446   8.695  0.3186  0.6842  0.3190
  543MOL0     C73198  -1.259   7.579   8.653  0.8041 -0.5142 -0.6770
  543MOL0     C73199  -1.275   7.333   8.732  0.2664  0.0029  0.0750
  543MOL0     C73200  -1.429   7.330   8.739  0.3277  0.4553  0.3221
  543MOL0     O73201  -1.475   7.211   8.708  0.5934  0.0259  0.1273
  543MOL0     C73202  -1.611   7.179   8.719  0.1527  0.0697  0.5332
  543MOL0     C73203  -1.654   7.060   8.667  1.0460  0.7489  0.4506
  543MOL0     C73204  -1.790   7.012   8.674 -0.4121 -0.6298 -0.5725
  543MOL0     C73205  -1.890   7.090   8.736  0.1162  0.3633 -0.5437
  543MOL0     O73206  -2.024   7.060   8.752  0.1735  0.1456  0.2507
  543MOL0     C73207  -2.075   6.955   8.672  0.3363 -0.0637 -0.0478
  543MOL0     C73208  -2.200   6.909   8.743 -0.7328  1.3785 -0.1060
  543MOL0     C73209  -2.246   6.770   8.696 -0.0981 -0.4954  0.3824
  543MOL0     C73210  -2.377   6.741   8.757  0.6204  0.0106 -0.8333
  543MOL0     C73211  -2.432   6.602   8.739 -0.4395  0.3015  0.0353
  543MOL0     C73212  -2.564   6.595   8.818 -0.4021 -0.4674  0.5479
  543MOL0     C73213  -2.621   6.459   8.792  0.0522 -0.6713  0.3505
  543MOL0     C73214  -2.757   6.443   8.844 -0.2052  0.4689 -0.4475
  543MOL0    Cl73215  -2.779   6.532   9.005 -0.1135 -0.1519 -0.2539
  543MOL0     C73216  -1.849   7.211   8.801 -0.0356 -0.3160  0.0423
  543MOL0     C73217  -1.714   7.250   8.787 -0.5322 -0.0753 -0.0880
  543MOL0     O73218  -1.494   7.433   8.750 -0.2366  0.1855 -0.4779
  543MOL0     C73219  -1.205   7.213   8.760 -0.7192  1.1228  0.4906
  543MOL0     C73220  -1.068   7.215   8.774  0.3045  0.4044 -0.2998
  543MOL0     N73221  -0.509   7.304   8.270 -0.1973  0.2864 -0.4728
  543MOL0     N73222  -0.389   7.352   8.251  0.8159 -0.3185 -0.6910
  543MOL0     C73223   0.647   7.278   7.715  0.4830  0.9451 -0.0686
  543MOL0     C73224   0.769   7.243   7.656  0.9939 -0.5237  1.3051
  543MOL0     C73225   1.032   7.205   7.315 -0.3441  0.3275  0.4013
  543MOL0     C73226   1.151   7.179   7.382 -0.2406 -0.7833  0.4886
  543MOL0     C73227   1.273   7.199   7.313  0.5579  0.9235  0.1686
  543MOL0     C73228   1.280   7.246   7.178 -0.2464 -1.0772  0.1319
  543MOL0     O73229   1.396   7.260   7.106 -0.7962  0.8415  0.3810
  543MOL0     C73230   1.530   7.219   7.167  0.0418 -0.0824  0.2046
  543MOL0     C73231   1.582   7.312   7.272 -0.1617 -0.2948 -0.3382
  543MOL0     C73232   1.689   7.403   7.209 -0.0540 -0.1731  0.9331
  543MOL0     C73233   1.815   7.333   7.184  0.1210 -1.0578  0.3505
  543MOL0     C73234   1.883   7.329   7.314  0.0429  0.9338  0.1268
  543MOL0     C73235   1.948   7.334   7.420 -0.2353  0.3960  0.3317
  543MOL0     C73236   1.162   7.270   7.117  0.4377  0.4310 -0.1444
  543MOL0     C73237   1.041   7.256   7.181 -0.0824 -0.1697  0.1696
  543MOL0     H73238   0.659   6.976   7.480 -0.2325  0.2183  0.2818
  543MOL0     H73239   0.455   7.027   7.609  0.6232 -0.6359 -1.0220
  543MOL0     H73240   0.470   7.333   7.923  1.6860  0.4767 -0.3386
  543MOL0     H73241   0.416   7.422   7.788  2.8628  1.6988  3.1846
  543MOL0     H73242   0.215   7.418   7.912 -3.7663 -1.5937 -1.6509
  543MOL0     H73243   0.193   7.319   7.783 -0.8857  2.5501 -0.4710
  543MOL0     H73244   0.165   7.141   7.906 -0.1534  0.9616  0.3571
  543MOL0     H73245   0.317   7.152   7.986  1.7477  0.8208 -2.2829
  543MOL0     H73246   0.200   7.198   8.173 -0.8981  0.4093  0.5084
  543MOL0     H73247   0.159   7.354   8.113  3.5058  0.3901 -4.6643
  543MOL0     H73248  -0.060   7.255   8.007 -3.8490 -2.9988  1.1324
  543MOL0     H73249  -0.001   7.095   8.063  0.4392 -0.4619  3.7262
  543MOL0     H73250  -0.179   7.174   8.184  0.9341 -0.6120 -1.8644
  543MOL0     H73251  -0.044   7.115   8.270 -2.1108 -2.5635 -0.5441
  543MOL0     H73252   0.024   7.357   8.316 -0.1175 -0.5527  0.5967
  543MOL0     H73253  -0.115   7.417   8.225 -0.8565  1.0556  1.9990
  543MOL0     H73254  -0.169   7.437   8.427 -0.3771 -0.3133  0.1321
  543MOL0     H73255  -0.143   7.268   8.481  1.3472 -0.5463  0.2464
  543MOL0     H73256  -0.361   7.188   8.535  1.6175  1.7217  0.4182
  543MOL0     H73257  -0.705   7.161   8.356 -0.6726  0.5910  0.3738
  543MOL0     H73258  -0.613   7.036   8.422 -1.7989 -0.8407 -0.9646
  543MOL0     H73259  -0.577   7.196   8.632  0.8260 -0.7215 -0.5416
  543MOL0     H73260  -0.740   7.111   8.612 -0.9336 -1.1471 -1.9846
  543MOL0     H73261  -0.833   7.314   8.515 -0.8092 -2.3788  1.2512
  543MOL0     H73262  -0.679   7.401   8.501  1.0816  0.4292  0.5419
  543MOL0     H73263  -0.781   7.498   8.690  1.7295 -0.0839 -0.5842
  543MOL0     H73264  -0.667   7.376   8.749 -1.1405 -1.8925  1.2361
  543MOL0     H73265  -1.002   7.534   8.675 -0.7030 -0.2455 -0.9029
  543MOL0     H73266  -1.290   7.637   8.741  1.0674  1.9349 -2.1214
  543MOL0     H73267  -1.183   7.633   8.596  4.1155 -2.0239  1.9584
  543MOL0     H73268  -1.348   7.565   8.592 -0.2999 -2.0744  1.1862
  543MOL0     H73269  -1.581   7.005   8.609 -1.3069 -1.7575 -0.3692
  543MOL0     H73270  -1.812   6.908   8.654 -0.4464 -0.4973 -1.2397
  543MOL0     H73271  -2.109   6.983   8.572  1.0256  0.6769 -0.0842
  543MOL0     H73272  -2.001   6.875   8.661  1.1940  0.7265 -0.2124
  543MOL0     H73273  -2.178   6.905   8.850  0.2387  2.2048 -0.2573
  543MOL0     H73274  -2.278   6.982   8.717  0.4485  1.8522 -2.5417
  543MOL0     H73275  -2.164   6.701   8.719  1.4586  0.9579 -0.5712
  543MOL0     H73276  -2.250   6.771   8.587  0.1655 -0.3665  0.3745
  543MOL0     H73277  -2.373   6.764   8.864 -1.5007 -2.0769 -0.2278
  543MOL0     H73278  -2.452   6.816   8.731 -0.2460  0.5990  2.8220
  543MOL0     H73279  -2.362   6.525   8.774 -1.8815 -0.7094  0.8066
  543MOL0     H73280  -2.455   6.590   8.633  1.3684 -2.3943 -0.1467
  543MOL0     H73281  -2.541   6.613   8.924  1.8267  1.7987 -0.2060
  543MOL0     H73282  -2.628   6.679   8.791 -1.4592 -1.2153  0.7012
  543MOL0     H73283  -2.555   6.378   8.827 -0.3529 -0.5455  1.4169
  543MOL0     H73284  -2.620   6.448   8.683  1.4531  1.1538  0.1408
  543MOL0     H73285  -2.775   6.336   8.858  2.3070  0.0660  0.2712
  543MOL0     H73286  -2.832   6.480   8.774  1.2690 -0.4811 -2.6633
  543MOL0     H73287  -1.918   7.264   8.866  1.1800 -0.2520  1.3468
  543MOL0     H73288  -1.692   7.337   8.848 -1.7915 -1.3797  2.3698
  543MOL0     H73289  -1.257   7.119   8.775  1.3760 -0.1268  0.2967
  543MOL0     H73290  -1.014   7.123   8.795  3.4085  2.1673 -0.0289
  543MOL0     H73291   0.649   7.368   7.776 -1.5367  1.2531 -0.3730
  543MOL0     H73292   0.844   7.318   7.680 -1.2916  1.6812  2.1027
  543MOL0     H73293   1.136   7.146   7.484 -3.4655  0.6684  0.5810
  543MOL0     H73294   1.369   7.172   7.356  1.5505  0.1975 -2.3462
  543MOL0     H73295   1.522   7.118   7.209  1.0288 -0.5851 -0.7481
  543MOL0     H73296   1.603   7.218   7.086  1.2087  0.4172  1.2280
  543MOL0     H73297   1.633   7.269   7.359  0.4304  1.1883  0.0774
  543MOL0     H73298   1.505   7.371   7.322  1.3230  3.2158 -1.8444
  543MOL0     H73299   1.691   7.492   7.273  1.7112 -0.7696  1.7680
  543MOL0     H73300   1.645   7.441   7.116 -0.9035  0.4295  1.5687
  543MOL0     H73301   1.876   7.404   7.128 -0.7546 -0.8159 -0.3163
  543MOL0     H73302   1.816   7.243   7.122 -0.1762 -0.0019 -1.2225
  543MOL0     H73303   2.014   7.337   7.505 -1.4788  0.6545  1.3269
  543MOL0     H73304   1.153   7.288   7.011  2.3685 -2.2441 -0.8610
  543MOL0     H73305   0.956   7.278   7.117  2.7974 -1.4098 -4.5115
  544MOL0     O73306   9.270   7.779   7.455  0.6611  0.5057 -0.0697
  544MOL0     C73307   9.207   7.830   7.545  0.0274  0.7691  0.5911
  544MOL0     O73308   9.075   7.812   7.572 -0.1716  0.0799 -0.1279
  544MOL0     C73309   9.007   7.694   7.540  0.0334  0.0391 -0.1608
  544MOL0     C73310   9.070   7.566   7.529  0.0934  0.3648 -0.1212
  544MOL0     C73311   8.989   7.445   7.512 -0.0311  0.2566 -0.3426
  544MOL0     C73312   8.851   7.453   7.493 -0.1011  0.0970  0.6528
  544MOL0     O73313   8.761   7.350   7.489  0.7237  0.0941 -0.3030
  544MOL0     C73314   8.812   7.221   7.470 -0.2757  0.3359 -1.1637
  544MOL0     C73315   8.710   7.106   7.505 -0.1138 -0.1893  0.0938
  544MOL0     C73316   8.671   7.128   7.660 -0.8148  0.6491 -0.3101
  544MOL0     C73317   8.620   6.992   7.707  0.4729  0.1431 -0.1324
  544MOL0     C73318   8.569   7.008   7.855 -0.0036  0.0205 -0.5880
  544MOL0     C73319   8.495   6.881   7.895  0.1036 -0.2862  0.6956
  544MOL0     C73320   8.411   6.880   8.018  0.5193 -0.5434 -0.0076
  544MOL0     C73321   8.285   6.972   8.028  1.1364  0.2013 -0.6400
  544MOL0     N73322   8.173   6.932   7.933  0.2850 -0.6118 -0.4686
  544MOL0     C73323   8.174   6.973   7.796  1.3467  0.3810 -0.7777
  544MOL0     C73324   8.066   6.893   7.744 -1.3765 -0.7333  0.5032
  544MOL0     C73325   8.009   6.900   7.607  0.6147 -0.4005 -0.1272
  544MOL0     C73326   7.880   6.971   7.606 -0.1373  0.1608 -0.0642
  544MOL0     C73327   7.817   6.961   7.463 -0.1097  0.2606  0.4607
  544MOL0     C73328   7.670   7.012   7.445 -0.3391 -0.5955 -1.1323
  544MOL0     O73329   7.591   6.907   7.505  0.4628 -0.3240  0.1387
  544MOL0     C73330   7.456   6.917   7.502 -0.1574  0.3399  0.1736
  544MOL0     C73331   7.382   6.809   7.554  0.1764  0.5441 -0.6339
  544MOL0     C73332   7.247   6.819   7.583  0.2545  0.6313 -0.0040
  544MOL0     C73333   7.194   6.695   7.649  0.1380 -0.6434  0.4020
  544MOL0     C73334   7.178   6.941   7.559  0.4291 -0.3897  0.0032
  544MOL0     C73335   7.039   6.959   7.598 -0.2728 -0.1619 -0.5676
  544MOL0     O73336   6.969   7.046   7.510  0.3096 -0.2347  0.5220
  544MOL0     C73337   6.831   7.055   7.530  0.1507  0.3177  0.0933
  544MOL0     C73338   6.743   6.958   7.480 -0.9140 -0.8532  0.8711
  544MOL0     C73339   6.603   6.988   7.478  0.5806 -0.2045 -0.9253
  544MOL0     C73340   6.549   7.115   7.520 -0.4997 -0.5457 -0.2334
  544MOL0     O73341   6.423   7.166   7.486 -0.1795 -0.0583 -0.1473
  544MOL0     C73342   6.374   7.109   7.358  0.1653 -0.4520 -0.7585
  544MOL0     C73343   6.276   7.210   7.295 -0.8386 -0.0346  0.4655
  544MOL0     C73344   6.145   7.227   7.372 -1.0453 -0.1492 -0.2655
  544MOL0     C73345   6.038   7.309   7.296  0.3200  0.1462  0.2366
  544MOL0     C73346   5.942   7.386   7.385 -0.1241 -0.6528 -0.5272
  544MOL0     C73347   5.854   7.477   7.313 -0.1870  0.3493  0.1120
  544MOL0     C73348   5.728   7.524   7.391 -0.0774 -0.1447 -0.2711
  544MOL0     C73349   5.651   7.638   7.326  0.3357  0.5287 -0.4184
  544MOL0    Cl73350   5.502   7.701   7.418 -0.1474  0.2028  0.2450
  544MOL0     C73351   6.636   7.201   7.588  0.0810 -0.7108  0.7788
  544MOL0     C73352   6.777   7.173   7.584  0.5768  0.6533 -0.4959
  544MOL0     O73353   6.987   6.913   7.703 -0.2878 -0.6368 -0.8076
  544MOL0     C73354   7.247   7.039   7.497  0.0088 -0.4362 -0.2574
  544MOL0     C73355   7.385   7.033   7.467 -0.9085  0.7960  0.8085
  544MOL0     N73356   8.024   6.820   7.844  1.1795  1.1876  0.2612
  544MOL0     N73357   8.079   6.830   7.955  0.1834  0.1039 -0.2141
  544MOL0     C73358   8.791   7.582   7.490  0.6797  0.1567  0.0236
  544MOL0     C73359   8.870   7.693   7.520  0.5379 -0.1633 -0.0805
  544MOL0     C73360   9.267   7.939   7.625  0.1347  0.4677  0.9839
  544MOL0     C73361   9.405   7.958   7.604  0.2532 -0.1852 -0.0004
  544MOL0     C73362   9.471   8.060   7.675 -0.4352  0.0866  0.3714
  544MOL0     C73363   9.407   8.136   7.762  0.7792 -0.6492 -0.6641
  544MOL0     O73364   9.480   8.245   7.815 -0.6310  1.1560 -0.0774
  544MOL0     C73365   9.450   8.300   7.946 -0.3270 -0.2571 -0.6852
  544MOL0     C73366   9.564   8.371   8.001  0.6977 -0.1787 -0.1472
  544MOL0     C73367   9.527   8.501   8.079 -0.5621  0.0701 -0.1128
  544MOL0     C73368   9.662   8.581   8.112 -0.1204  0.5651  0.4745
  544MOL0     C73369   9.748   8.494   8.191 -1.2993  0.0212  0.3171
  544MOL0     C73370   9.815   8.419   8.259  0.1788 -0.8131  0.0185
  544MOL0     C73371   9.267   8.127   7.782  0.6943  0.4259 -0.0888
  544MOL0     C73372   9.198   8.026   7.712  0.4491 -0.0440 -0.5939
  544MOL0     H73373   9.177   7.550   7.535 -0.0663 -0.3313  1.1876
  544MOL0     H73374   9.035   7.348   7.498  1.1834  0.3901  2.0961
  544MOL0     H73375   8.828   7.205   7.363 -0.9119 -0.3052 -1.1703
  544MOL0     H73376   8.898   7.190   7.529 -0.3294 -0.5879 -1.5562
  544MOL0     H73377   8.619   7.116   7.444 -0.6391  0.7362  0.9851
  544MOL0     H73378   8.759   7.014   7.472 -1.4508  0.0014 -2.8203
  544MOL0     H73379   8.753   7.170   7.720 -1.2137 -0.7990  1.3212
  544MOL0     H73380   8.591   7.201   7.673 -1.2756 -0.1872  1.9868
  544MOL0     H73381   8.540   6.965   7.637 -0.7667  1.6035  0.6426
  544MOL0     H73382   8.699   6.917   7.700  1.0840  0.5259  2.0607
  544MOL0     H73383   8.638   7.013   7.940 -0.6248 -3.8198  0.3497
  544MOL0     H73384   8.500   7.092   7.861 -0.5354 -0.5299  1.6471
  544MOL0     H73385   8.423   6.857   7.815 -0.9402  0.1932  1.4650
  544MOL0     H73386   8.574   6.808   7.908 -0.6446 -1.3983 -0.6619
  544MOL0     H73387   8.380   6.775   8.015 -1.1715 -0.0801 -0.1745
  544MOL0     H73388   8.475   6.915   8.099  1.4562  1.5155 -1.5531
  544MOL0     H73389   8.310   7.078   8.016  0.8000  0.5413  1.3203
  544MOL0     H73390   8.253   6.951   8.131  0.8868  1.4228 -0.4512
  544MOL0     H73391   8.232   7.049   7.745 -0.5514  1.5029 -1.3387
  544MOL0     H73392   8.078   6.932   7.529 -0.6219 -0.3656 -1.2482
  544MOL0     H73393   7.981   6.798   7.579 -0.4735  0.0284 -0.6362
  544MOL0     H73394   7.879   7.078   7.627 -0.9899  0.3283 -0.8319
  544MOL0     H73395   7.817   6.908   7.669  1.2567 -4.5836 -2.8557
  544MOL0     H73396   7.808   6.859   7.424 -0.9650 -0.3696  2.1992
  544MOL0     H73397   7.879   7.019   7.394  0.6585 -0.1572  0.7856
  544MOL0     H73398   7.643   7.020   7.339 -1.0160  0.2237 -0.9064
  544MOL0     H73399   7.663   7.104   7.503  0.0262 -0.1636 -1.7582
  544MOL0     H73400   7.433   6.715   7.572  1.1029  0.5603 -2.8429
  544MOL0     H73401   7.242   6.699   7.747  2.3322  0.7512 -0.6336
  544MOL0     H73402   7.085   6.703   7.648  0.1838  0.0221  0.3009
  544MOL0     H73403   7.233   6.610   7.593  4.3008  0.3747  1.4214
  544MOL0     H73404   6.788   6.869   7.437  0.1061  0.2836 -0.5105
  544MOL0     H73405   6.538   6.911   7.437  1.3594 -1.6826  0.4972
  544MOL0     H73406   6.455   7.085   7.288 -0.0304 -0.7138 -0.8935
  544MOL0     H73407   6.329   7.014   7.385 -2.8648  0.9927 -0.3374
  544MOL0     H73408   6.321   7.308   7.274 -0.5400 -0.7913 -3.0445
  544MOL0     H73409   6.260   7.174   7.193 -0.8657  1.4218 -0.0649
  544MOL0     H73410   6.180   7.278   7.463 -1.9102  0.7726 -0.4327
  544MOL0     H73411   6.113   7.124   7.390  0.8186 -0.9246 -1.1398
  544MOL0     H73412   6.090   7.384   7.235  2.5726 -0.8397  0.8596
  544MOL0     H73413   5.972   7.242   7.241 -0.3714 -0.0238  1.2450
  544MOL0     H73414   6.004   7.447   7.452 -0.3906 -0.6754 -0.2586
  544MOL0     H73415   5.876   7.327   7.450 -0.1962  0.1807  0.1848
  544MOL0     H73416   5.907   7.567   7.281 -1.0058  0.6491 -0.4339
  544MOL0     H73417   5.816   7.425   7.225 -2.9974  0.1562  1.3308
  544MOL0     H73418   5.763   7.558   7.489  0.5864 -3.8245  0.9244
  544MOL0     H73419   5.659   7.443   7.416 -1.3910  1.3709  1.3318
  544MOL0     H73420   5.619   7.605   7.227  1.3670  1.2451 -1.0024
  544MOL0     H73421   5.724   7.719   7.313 -0.2805  1.4842  1.5883
  544MOL0     H73422   6.598   7.298   7.617 -1.4748 -1.7193  2.2641
  544MOL0     H73423   6.851   7.245   7.618  0.6327  1.0890 -1.5092
  544MOL0     H73424   7.199   7.132   7.469 -1.7578 -1.0863  0.5166
  544MOL0     H73425   7.433   7.112   7.409 -0.3208 -1.4273 -1.9379
  544MOL0     H73426   8.684   7.587   7.475  0.3884  2.5143  2.1378
  544MOL0     H73427   8.811   7.782   7.534 -1.0331 -0.5093 -3.4371
  544MOL0     H73428   9.456   7.902   7.526  0.1014 -0.7896  0.3326
  544MOL0     H73429   9.575   8.086   7.660 -0.9018  2.4645  0.7759
  544MOL0     H73430   9.366   8.364   7.917 -1.0506 -1.1364 -0.5865
  544MOL0     H73431   9.417   8.229   8.022 -3.3459  2.1694  0.4783
  544MOL0     H73432   9.624   8.399   7.914  0.2522  0.9697 -0.1112
  544MOL0     H73433   9.625   8.306   8.064  0.3259 -2.2086 -1.7871
  544MOL0     H73434   9.471   8.475   8.169 -3.0278  1.3662 -1.1670
  544MOL0     H73435   9.455   8.559   8.020 -0.6348 -0.8176 -0.9247
  544MOL0     H73436   9.636   8.670   8.170 -2.9259 -1.4018  2.4998
  544MOL0     H73437   9.725   8.611   8.028  1.9403 -1.8934  1.0140
  544MOL0     H73438   9.869   8.361   8.332  1.3230  0.0462 -0.1245
  544MOL0     H73439   9.216   8.201   7.842  1.9028  2.1037 -1.0757
  544MOL0     H73440   9.091   8.017   7.728  0.5472  1.4741  1.3895
  545MOL0     O73441   6.984   4.888   7.493  0.4654  0.7279 -0.1599
  545MOL0     C73442   6.951   4.916   7.609  0.7628  0.1643  0.0308
  545MOL0     O73443   7.032   4.977   7.706 -0.7105  0.2391  0.0067
  545MOL0     C73444   7.145   5.057   7.682  0.4420  0.3643 -0.0834
  545MOL0     C73445   7.155   5.154   7.579 -0.3422  0.3342 -1.0940
  545MOL0     C73446   7.267   5.236   7.557 -0.5873  0.6371 -0.6339
  545MOL0     C73447   7.362   5.246   7.661  0.1259 -0.2209 -1.1307
  545MOL0     O73448   7.456   5.345   7.646 -0.1563 -0.0045 -0.6332
  545MOL0     C73449   7.587   5.334   7.702 -0.2318  0.0555 -0.2879
  545MOL0     C73450   7.665   5.460   7.683 -0.4786  0.5363 -0.3118
  545MOL0     C73451   7.812   5.434   7.715 -0.8758 -0.0024  0.4906
  545MOL0     C73452   7.899   5.554   7.677 -0.7488  0.0443 -0.1529
  545MOL0     C73453   7.940   5.558   7.533  0.0568 -0.8174  0.5287
  545MOL0     C73454   8.038   5.448   7.490  0.2126 -0.6844  0.4132
  545MOL0     C73455   8.091   5.488   7.363  0.1979 -0.8479  0.4887
  545MOL0     C73456   8.186   5.383   7.304 -0.1699  0.0257 -0.9068
  545MOL0     N73457   8.127   5.246   7.284 -0.7698  0.0390 -0.2165
  545MOL0     C73458   8.037   5.211   7.180  0.1155 -0.8078  0.3893
  545MOL0     C73459   7.999   5.087   7.213  1.1518 -0.2559  0.8500
  545MOL0     C73460   7.896   5.007   7.134 -0.2990 -0.0682 -0.2468
  545MOL0     C73461   7.831   4.907   7.229  0.0608  0.0858 -0.2664
  545MOL0     C73462   7.715   4.840   7.160 -0.2822 -0.7454 -0.2893
  545MOL0     C73463   7.611   4.770   7.255 -0.0613 -0.6722  0.3423
  545MOL0     O73464   7.486   4.735   7.189 -0.5058 -0.4258  0.2046
  545MOL0     C73465   7.409   4.843   7.174  0.3703 -0.1019  0.0882
  545MOL0     C73466   7.402   4.918   7.050  0.5707 -0.9395 -0.3650
  545MOL0     C73467   7.309   5.030   7.036  0.3869  0.6264 -0.6168
  545MOL0     C73468   7.300   5.102   6.902 -0.1853 -0.0281  0.4508
  545MOL0     C73469   7.223   5.067   7.145 -0.7880  0.9079 -0.7477
  545MOL0     C73470   7.115   5.169   7.137 -0.5611  0.2738  0.0431
  545MOL0     O73471   7.036   5.178   7.250  0.4353 -0.3553  0.2611
  545MOL0     C73472   6.931   5.274   7.253 -0.4981  0.2721 -0.0664
  545MOL0     C73473   6.941   5.416   7.258 -1.2691  0.2974  0.8085
  545MOL0     C73474   6.826   5.496   7.255  0.2679 -0.5695 -0.3709
  545MOL0     C73475   6.700   5.435   7.252  0.9154  0.1733  0.4230
  545MOL0     O73476   6.589   5.520   7.269  0.0455 -0.3222  0.6572
  545MOL0     C73477   6.463   5.454   7.272  0.9797  0.7602 -0.1380
  545MOL0     C73478   6.351   5.559   7.233 -0.6895 -0.2390  0.5065
  545MOL0     C73479   6.206   5.516   7.240 -0.6446 -0.3451  0.3949
  545MOL0     C73480   6.177   5.421   7.126  0.1558  0.9841  0.3885
  545MOL0     C73481   6.052   5.350   7.149  0.0635 -0.6484 -0.2000
  545MOL0     C73482   6.017   5.255   7.035 -0.4965 -0.4089  0.2232
  545MOL0     C73483   5.869   5.228   7.022 -0.4144 -1.2724  0.6128
  545MOL0     C73484   5.823   5.115   6.941 -0.1471  0.4974  0.1808
  545MOL0    Cl73485   5.866   4.952   7.015 -0.1440  0.4123 -0.2185
  545MOL0     C73486   6.688   5.292   7.249 -0.1984 -0.4279 -0.2683
  545MOL0     C73487   6.804   5.220   7.243  0.8324 -0.0097 -0.3614
  545MOL0     O73488   7.103   5.240   7.041 -0.0784  0.1195  0.0506
  545MOL0     C73489   7.232   4.992   7.262 -0.5287 -0.1407  0.6634
  545MOL0     C73490   7.322   4.885   7.275 -0.2895 -0.2943  0.2547
  545MOL0     N73491   8.071   5.042   7.323  0.3880  1.1169 -0.4367
  545MOL0     N73492   8.146   5.143   7.368 -0.5570 -0.0184 -0.1298
  545MOL0     C73493   7.358   5.145   7.767  0.4370  0.2390 -0.4264
  545MOL0     C73494   7.251   5.054   7.776  0.2797 -0.2624 -0.2327
  545MOL0     C73495   6.818   4.882   7.656  0.5531 -0.2073 -0.1730
  545MOL0     C73496   6.779   4.907   7.790  0.3065 -0.1491 -1.1093
  545MOL0     C73497   6.652   4.872   7.834 -0.0861  0.7939  0.2950
  545MOL0     C73498   6.563   4.816   7.748 -0.2150 -0.1529  0.2346
  545MOL0     O73499   6.448   4.757   7.802  0.0556  0.0265 -0.4381
  545MOL0     C73500   6.450   4.614   7.827  0.3371 -0.4132 -0.4472
  545MOL0     C73501   6.377   4.588   7.961 -0.6001 -0.4564  0.0907
  545MOL0     C73502   6.220   4.611   7.955 -0.6665  0.3218 -0.0142
  545MOL0     C73503   6.138   4.536   7.854  0.6906  0.2498  0.3622
  545MOL0     C73504   6.131   4.397   7.893  0.0962  0.2035 -1.1056
  545MOL0     C73505   6.130   4.286   7.944  0.4032 -0.0930 -0.2525
  545MOL0     C73506   6.600   4.789   7.613  0.5911 -0.1241  0.6361
  545MOL0     C73507   6.724   4.833   7.562 -0.2928 -0.5719  0.3103
  545MOL0     H73508   7.067   5.156   7.515 -0.2105 -3.8491 -1.7097
  545MOL0     H73509   7.276   5.293   7.465  0.8878 -0.2139 -1.0545
  545MOL0     H73510   7.579   5.310   7.809 -0.0486 -1.5038 -0.6028
  545MOL0     H73511   7.630   5.255   7.639  0.8592  0.6314 -0.3011
  545MOL0     H73512   7.647   5.481   7.577  1.5185 -0.2489 -0.8462
  545MOL0     H73513   7.628   5.544   7.742  0.7663 -0.3772  1.9102
  545MOL0     H73514   7.817   5.431   7.824 -1.5154 -0.6319  0.5059
  545MOL0     H73515   7.838   5.338   7.670  0.1133  0.1777  0.6571
  545MOL0     H73516   7.848   5.649   7.696  6.0355  3.7698  2.9027
  545MOL0     H73517   7.987   5.568   7.740  0.3611  0.9315 -1.8339
  545MOL0     H73518   7.847   5.555   7.475  1.1112 -2.1047 -1.1880
  545MOL0     H73519   7.977   5.661   7.526  2.2884 -1.6278 -0.5291
  545MOL0     H73520   8.112   5.442   7.571 -0.9354  1.2630  1.7008
  545MOL0     H73521   7.998   5.348   7.470  1.3383 -0.6573 -2.4494
  545MOL0     H73522   8.013   5.507   7.288  1.1301 -2.1965 -0.8996
  545MOL0     H73523   8.144   5.582   7.381  1.7584 -0.9256 -2.8743
  545MOL0     H73524   8.267   5.383   7.377  0.0027  1.1653 -1.0807
  545MOL0     H73525   8.232   5.420   7.212  0.6754  0.7811 -0.1999
  545MOL0     H73526   8.000   5.283   7.108 -1.4858 -1.0730  0.8976
  545MOL0     H73527   7.827   5.077   7.086 -2.1472 -0.4364  1.6787
  545MOL0     H73528   7.960   4.952   7.065  0.4059 -0.0851  0.3964
  545MOL0     H73529   7.800   4.972   7.312  0.5279 -1.0713  0.8400
  545MOL0     H73530   7.909   4.837   7.262  0.5699  0.2543 -1.0886
  545MOL0     H73531   7.766   4.770   7.094  0.6863 -0.6843  0.3732
  545MOL0     H73532   7.671   4.908   7.087 -1.4862 -0.5933  0.5347
  545MOL0     H73533   7.599   4.829   7.346  1.0341 -2.6552  1.8460
  545MOL0     H73534   7.655   4.681   7.299  1.3917  0.2105  0.7654
  545MOL0     H73535   7.456   4.886   6.962  0.4598  1.0592 -1.2144
  545MOL0     H73536   7.380   5.075   6.833  0.0750  1.1556  0.2796
  545MOL0     H73537   7.206   5.074   6.853  0.3495  1.0223 -1.2305
  545MOL0     H73538   7.307   5.209   6.924  0.3122  0.0663 -0.1781
  545MOL0     H73539   7.038   5.465   7.253 -1.7486  1.2819  1.0183
  545MOL0     H73540   6.835   5.604   7.253  1.6842 -0.6592  0.0302
  545MOL0     H73541   6.451   5.371   7.202 -2.2367 -0.9092  2.1642
  545MOL0     H73542   6.456   5.411   7.372  0.2180 -2.0128 -1.2888
  545MOL0     H73543   6.360   5.635   7.311 -0.1593  1.4908 -1.1671
  545MOL0     H73544   6.369   5.607   7.137  0.1823 -1.0615  0.2480
  545MOL0     H73545   6.144   5.605   7.232 -0.4247 -0.2739 -0.6862
  545MOL0     H73546   6.189   5.471   7.338  1.4037 -0.4518  0.7600
  545MOL0     H73547   6.164   5.486   7.039 -2.1549  2.9879  2.0871
  545MOL0     H73548   6.263   5.355   7.114 -1.4014 -0.7734 -2.1525
  545MOL0     H73549   5.976   5.429   7.160  2.5353  1.5869  2.4477
  545MOL0     H73550   6.065   5.289   7.238  0.3967 -0.0444  0.1711
  545MOL0     H73551   6.046   5.310   6.945 -1.5918 -0.6063 -0.2709
  545MOL0     H73552   6.072   5.161   7.047 -2.1486 -1.7037 -1.6747
  545MOL0     H73553   5.825   5.317   6.976  2.2829 -1.1583 -2.0410
  545MOL0     H73554   5.823   5.200   7.117 -1.7641 -0.6219  0.1712
  545MOL0     H73555   5.871   5.124   6.843 -3.5331 -2.7469 -2.0219
  545MOL0     H73556   5.718   5.109   6.912  0.3545  0.1070 -1.6659
  545MOL0     H73557   6.592   5.242   7.245 -0.9744  1.0535 -1.1227
  545MOL0     H73558   6.796   5.113   7.251  4.0191 -0.2586  0.9511
  545MOL0     H73559   7.168   5.014   7.348 -1.1474 -1.2166  0.4932
  545MOL0     H73560   7.323   4.830   7.368 -0.1660  1.4389  1.3400
  545MOL0     H73561   7.437   5.131   7.840 -0.3565 -1.2260  0.1932
  545MOL0     H73562   7.254   4.992   7.866 -0.8879  1.2366  0.8820
  545MOL0     H73563   6.852   4.938   7.864  2.4483 -0.4282 -3.0139
  545MOL0     H73564   6.644   4.882   7.942  2.0405 -2.6739  0.9297
  545MOL0     H73565   6.403   4.557   7.747 -0.8355  1.9878 -1.5973
  545MOL0     H73566   6.554   4.581   7.822  0.3599 -0.4572  0.2651
  545MOL0     H73567   6.420   4.650   8.041  0.1386 -1.2630  0.3397
  545MOL0     H73568   6.403   4.485   7.988 -2.0484 -1.4742 -2.1437
  545MOL0     H73569   6.197   4.715   7.930 -0.1433  0.0615 -1.7458
  545MOL0     H73570   6.178   4.591   8.054 -1.5545  1.5614 -0.1298
  545MOL0     H73571   6.166   4.539   7.749 -1.4514 -3.4154 -0.5144
  545MOL0     H73572   6.037   4.575   7.870  0.6976 -0.2304  1.7987
  545MOL0     H73573   6.126   4.186   7.982  2.3141 -1.5959 -3.5475
  545MOL0     H73574   6.527   4.734   7.556  1.0418  0.3012 -0.3780
  545MOL0     H73575   6.747   4.827   7.457 -0.6986  2.6661 -0.0697
  546MOL0     O73576   7.651   9.577   6.009  0.5058 -0.1404  0.2372
  546MOL0     C73577   7.720   9.613   6.096  0.4444 -0.8583 -1.0946
  546MOL0     O73578   7.677   9.638   6.223 -0.2213 -0.6295  0.6541
  546MOL0     C73579   7.552   9.624   6.275 -0.1510  0.2179  0.0612
  546MOL0     C73580   7.433   9.603   6.213 -0.3408 -0.1439 -0.4632
  546MOL0     C73581   7.317   9.588   6.289  0.2922  1.0017 -0.0969
  546MOL0     C73582   7.316   9.590   6.429 -0.3583 -0.2785 -0.1771
  546MOL0     O73583   7.193   9.566   6.500  0.1013 -0.0129  0.4376
  546MOL0     C73584   7.102   9.674   6.505 -0.2059  0.1189 -0.0178
  546MOL0     C73585   6.975   9.614   6.565  0.9437 -0.2731 -1.1729
  546MOL0     C73586   6.868   9.717   6.553 -0.1397  0.1498 -0.5596
  546MOL0     C73587   6.764   9.695   6.660  1.3377  0.3251 -0.1260
  546MOL0     C73588   6.642   9.792   6.635  0.2330  0.4750 -0.1643
  546MOL0     C73589   6.537   9.762   6.745  0.4020  0.4639 -0.0502
  546MOL0     C73590   6.417   9.860   6.747 -0.1709  0.4668 -0.0662
  546MOL0     C73591   6.345   9.870   6.610  0.0900  0.0127  0.1858
  546MOL0     N73592   6.221   9.955   6.621  0.3056 -0.5665  0.1626
  546MOL0     C73593   6.114   9.921   6.701  0.1649 -0.9454  0.5804
  546MOL0     C73594   6.030  10.034   6.693 -0.3162  0.1023 -0.2281
  546MOL0     C73595   5.899  10.059   6.757 -0.3004  0.0332 -0.0072
  546MOL0     C73596   5.783  10.034   6.660 -0.0612 -0.5366  0.0767
  546MOL0     C73597   5.655  10.100   6.699 -0.7845  0.0883 -0.4756
  546MOL0     C73598   5.607  10.042   6.827 -0.2981  0.8997 -0.8841
  546MOL0     O73599   5.574   9.902   6.820 -0.3687 -0.0637 -0.1692
  546MOL0     C73600   5.455   9.856   6.780 -0.0078  0.0102 -0.3197
  546MOL0     C73601   5.445   9.714   6.767  0.7265 -0.9903 -0.5923
  546MOL0     C73602   5.319   9.657   6.766  0.3516  0.4752 -0.0924
  546MOL0     C73603   5.318   9.507   6.785 -0.4748 -0.1525  0.7734
  546MOL0     C73604   5.200   9.727   6.747  0.2459 -0.5174  0.5815
  546MOL0     C73605   5.062   9.674   6.736  0.1610 -1.3290  1.4884
  546MOL0     O73606   4.970   9.744   6.662 -0.2272 -0.1335  0.3996
  546MOL0     C73607   4.839   9.706   6.662  0.5707 -0.1633 -0.0280
  546MOL0     C73608   4.748   9.816   6.662 -0.0859  0.9402 -0.3325
  546MOL0     C73609   4.615   9.799   6.637  0.5617  0.6069  0.3504
  546MOL0     C73610   4.566   9.674   6.613  0.4839  0.3314  0.0495
  546MOL0     O73611   4.437   9.654   6.571 -0.5756  0.1522 -0.6371
  546MOL0     C73612   4.338   9.730   6.640  1.2796  1.4187  1.4645
  546MOL0     C73613   4.204   9.678   6.591  1.1387 -0.9721  0.5439
  546MOL0     C73614   4.191   9.715   6.443 -0.1281  0.0685 -0.3947
  546MOL0     C73615   4.054   9.661   6.391  0.1307  0.3339  0.3899
  546MOL0     C73616   4.034   9.681   6.235  0.2812 -0.7019 -1.0019
  546MOL0     C73617   3.990   9.824   6.200 -0.1928 -0.4867  0.4167
  546MOL0     C73618   3.982   9.852   6.050  0.3183 -0.8584 -0.0863
  546MOL0     C73619   3.949   9.996   6.024  0.9658  0.2496 -0.9459
  546MOL0    Cl73620   3.864   9.985   5.863  0.1902  0.2776  0.4490
  546MOL0     C73621   4.656   9.563   6.615  0.0430  0.2317 -0.2790
  546MOL0     C73622   4.790   9.575   6.638  0.0850 -0.1802 -0.3782
  546MOL0     O73623   5.035   9.579   6.810  0.2430  0.7248 -0.3906
  546MOL0     C73624   5.216   9.871   6.732  0.6285  0.0145 -0.3748
  546MOL0     C73625   5.343   9.929   6.740  0.3826 -0.4852  0.0644
  546MOL0     N73626   6.091  10.125   6.611 -0.5444 -1.0928 -0.0158
  546MOL0     N73627   6.202  10.078   6.566  0.1576  0.3086 -0.5024
  546MOL0     C73628   7.447   9.588   6.490  1.5640  0.3614 -0.6050
  546MOL0     C73629   7.560   9.612   6.416  1.0886 -0.1975  0.4497
  546MOL0     C73630   7.867   9.639   6.070 -0.3192  0.5656 -0.4864
  546MOL0     C73631   7.963   9.617   6.173 -0.2478  0.1963 -0.4614
  546MOL0     C73632   8.103   9.635   6.153  0.5637 -0.2575  0.0124
  546MOL0     C73633   8.150   9.672   6.032 -0.2732  0.1608  0.1004
  546MOL0     O73634   8.282   9.674   6.024 -0.1549  0.6260  0.0686
  546MOL0     C73635   8.336   9.637   5.902 -0.5218  0.6090  1.1278
  546MOL0     C73636   8.481   9.674   5.899 -0.2091 -0.1896  0.4664
  546MOL0     C73637   8.550   9.619   5.769 -0.9707  0.9824  0.1952
  546MOL0     C73638   8.687   9.685   5.778 -0.7950 -0.7341  1.1181
  546MOL0     C73639   8.763   9.643   5.664 -0.7074 -0.1801  0.2201
  546MOL0     C73640   8.848   9.629   5.580  0.2766  0.2589  0.8620
  546MOL0     C73641   8.058   9.712   5.938 -0.2343  0.4660  0.7719
  546MOL0     C73642   7.918   9.693   5.950  0.0871  0.0836 -1.5730
  546MOL0     H73643   7.424   9.610   6.105  1.1877  1.2223 -0.5418
  546MOL0     H73644   7.228   9.579   6.227  1.6427 -2.2789 -1.8555
  546MOL0     H73645   7.131   9.770   6.548  2.4375 -0.1639 -0.9400
  546MOL0     H73646   7.087   9.696   6.399  2.0553  0.9805 -0.2156
  546MOL0     H73647   6.951   9.533   6.496 -0.3791  1.0889 -2.3883
  546MOL0     H73648   6.987   9.585   6.670 -1.9984  0.8860 -0.4203
  546MOL0     H73649   6.910   9.818   6.563  1.5009 -0.5391 -0.2481
  546MOL0     H73650   6.820   9.718   6.455 -0.4060 -1.5710 -0.4776
  546MOL0     H73651   6.725   9.594   6.664  1.4554  0.2783 -0.1591
  546MOL0     H73652   6.810   9.714   6.758 -0.4809 -1.2006  1.0930
  546MOL0     H73653   6.668   9.898   6.638  0.4800  0.4178 -0.2925
  546MOL0     H73654   6.600   9.773   6.535  0.2475 -0.0920 -0.0686
  546MOL0     H73655   6.495   9.664   6.721  0.2813  0.3273  0.7121
  546MOL0     H73656   6.579   9.765   6.846  1.8168  0.9155 -0.6200
  546MOL0     H73657   6.343   9.828   6.820  1.3065  1.4655  1.9509
  546MOL0     H73658   6.450   9.958   6.782  0.9777 -0.9028  3.0237
  546MOL0     H73659   6.317   9.767   6.588 -0.3692  0.0923  0.3927
  546MOL0     H73660   6.418   9.910   6.538  0.1928 -1.0511 -0.3240
  546MOL0     H73661   6.105   9.833   6.764  1.0972  0.4184  2.7172
  546MOL0     H73662   5.904   9.996   6.847  2.4781  2.7198  1.9354
  546MOL0     H73663   5.898  10.162   6.792  0.4174  0.9000 -2.3760
  546MOL0     H73664   5.762   9.928   6.640 -1.1318  0.1018 -2.6554
  546MOL0     H73665   5.818  10.078   6.566  1.7661  0.2885  1.0936
  546MOL0     H73666   5.576  10.084   6.625  0.3781  0.1667 -1.7687
  546MOL0     H73667   5.671  10.208   6.710 -2.6677  0.6118 -2.3071
  546MOL0     H73668   5.522  10.104   6.858 -0.0057  1.1132 -0.4899
  546MOL0     H73669   5.681  10.046   6.908 -1.1637 -1.1851  0.0882
  546MOL0     H73670   5.539   9.664   6.787  2.0015  2.3493  3.3708
  546MOL0     H73671   5.414   9.455   6.789  0.4443  1.3884 -0.1428
  546MOL0     H73672   5.280   9.497   6.888  0.6083  2.0366  1.4454
  546MOL0     H73673   5.259   9.453   6.711  1.1896  2.3175 -2.5855
  546MOL0     H73674   4.779   9.918   6.683 -0.5175  0.9841  0.0941
  546MOL0     H73675   4.561   9.893   6.631  1.4379  1.0401 -1.3158
  546MOL0     H73676   4.344   9.698   6.745  1.8309 -0.2092  0.9609
  546MOL0     H73677   4.342   9.838   6.623  2.3626  1.1620 -0.1127
  546MOL0     H73678   4.186   9.572   6.611  2.3474 -1.2032  0.5223
  546MOL0     H73679   4.128   9.727   6.653  0.9923 -1.0791  0.4482
  546MOL0     H73680   4.276   9.679   6.383 -0.2718  1.6025 -1.5801
  546MOL0     H73681   4.185   9.824   6.434 -1.7782 -0.1461 -3.5115
  546MOL0     H73682   4.048   9.554   6.415 -0.2783  0.5437  1.2583
  546MOL0     H73683   3.975   9.706   6.452  0.6434  0.4412  0.9897
  546MOL0     H73684   3.961   9.611   6.194 -0.5332  0.6273 -1.9088
  546MOL0     H73685   4.129   9.658   6.185  0.1722 -2.4032 -0.4891
  546MOL0     H73686   3.888   9.832   6.241 -0.6248 -2.2936 -0.2106
  546MOL0     H73687   4.058   9.892   6.252 -2.5000  1.6643  0.8151
  546MOL0     H73688   3.903   9.789   6.008 -0.1707  0.5399 -1.3749
  546MOL0     H73689   4.077   9.843   5.996 -0.6099 -0.0081 -1.9508
  546MOL0     H73690   4.030  10.067   6.006  0.7859 -0.0459 -3.2846
  546MOL0     H73691   3.869  10.023   6.093 -0.4224 -0.0311 -2.3811
  546MOL0     H73692   4.623   9.461   6.597 -1.3863  0.5337  0.4531
  546MOL0     H73693   4.853   9.488   6.622  0.1941 -0.0849 -0.4655
  546MOL0     H73694   5.134   9.941   6.729 -1.1358 -1.6491  2.8230
  546MOL0     H73695   5.355  10.036   6.726  0.1341 -0.6084 -1.1593
  546MOL0     H73696   7.447   9.562   6.595  0.3741  0.7373 -0.5016
  546MOL0     H73697   7.655   9.635   6.465 -0.3361  0.8963  2.8633
  546MOL0     H73698   7.928   9.590   6.272  0.5583  1.0858  0.0789
  546MOL0     H73699   8.168   9.606   6.234  0.3350 -2.2251 -0.4461
  546MOL0     H73700   8.325   9.529   5.889 -2.0106  0.8040  0.5596
  546MOL0     H73701   8.291   9.680   5.813  1.2503 -1.4981 -0.9291
  546MOL0     H73702   8.522   9.632   5.991 -0.8215  2.6194  2.1320
  546MOL0     H73703   8.501   9.777   5.929  2.5605 -1.6624  4.5069
  546MOL0     H73704   8.517   9.652   5.670  2.7208  0.9671 -1.2291
  546MOL0     H73705   8.564   9.511   5.771  1.9015  1.2537 -0.2830
  546MOL0     H73706   8.743   9.660   5.869  0.5208  1.3707  0.9592
  546MOL0     H73707   8.678   9.794   5.765 -0.5129 -1.0748 -3.7009
  546MOL0     H73708   8.901   9.603   5.490  0.3729 -1.7393  1.4486
  546MOL0     H73709   8.085   9.751   5.840 -2.9087 -1.1031 -0.6996
  546MOL0     H73710   7.841   9.708   5.875 -2.6838 -0.0719  1.0468
  547MOL0     O73711   7.100   1.897   2.051  0.1848  0.1433  0.0970
  547MOL0     C73712   7.180   1.864   1.962  0.0593  0.1586 -0.4686
  547MOL0     O73713   7.159   1.765   1.876  0.7419  0.6413  0.3895
  547MOL0     C73714   7.098   1.647   1.926 -0.8049  0.8424  0.8797
  547MOL0     C73715   6.990   1.590   1.871  0.7665  0.2067  0.2974
  547MOL0     C73716   6.935   1.482   1.923  0.1829 -0.1389  0.8117
  547MOL0     C73717   6.992   1.409   2.037 -0.3252 -0.0133  0.1385
  547MOL0     O73718   6.935   1.300   2.095 -0.3231  0.9650 -1.2245
  547MOL0     C73719   6.824   1.234   2.034  0.8482 -0.1663 -0.1856
  547MOL0     C73720   6.791   1.105   2.106  0.8074 -0.0427  0.1291
  547MOL0     C73721   6.687   1.023   2.019  0.5899  0.0862  0.2388
  547MOL0     C73722   6.638   0.903   2.094 -0.1150  0.0969  1.0472
  547MOL0     C73723   6.591   0.778   2.013 -0.3111 -0.3737 -0.0334
  547MOL0     C73724   6.442   0.800   1.999  0.1197  0.4283 -0.4775
  547MOL0     C73725   6.388   0.698   1.906 -0.0317  1.3769 -0.0196
  547MOL0     C73726   6.244   0.716   1.863  0.4176 -0.2141  0.0488
  547MOL0     N73727   6.157   0.693   1.978  0.4576 -0.2222  0.5929
  547MOL0     C73728   6.105   0.576   2.019  0.0368  0.1734  0.5037
  547MOL0     C73729   6.010   0.611   2.102 -0.1667  0.1065 -0.7083
  547MOL0     C73730   5.912   0.530   2.167 -0.6473  0.1358 -0.1803
  547MOL0     C73731   5.789   0.505   2.073 -0.6141 -0.3913 -0.6613
  547MOL0     C73732   5.811   0.385   1.982  0.3792 -0.4743  0.5765
  547MOL0     C73733   5.692   0.354   1.896  0.2787  0.1162  0.0646
  547MOL0     O73734   5.649   0.482   1.840 -0.8134 -0.1359 -0.0675
  547MOL0     C73735   5.538   0.483   1.755 -0.3367  0.3754  1.1168
  547MOL0     C73736   5.548   0.557   1.639 -0.0116  0.6374  0.5250
  547MOL0     C73737   5.448   0.581   1.547 -0.1647 -0.9441  0.7836
  547MOL0     C73738   5.495   0.667   1.425 -1.0984  0.5295  0.2061
  547MOL0     C73739   5.327   0.531   1.578  0.1004  0.0924 -0.7710
  547MOL0     C73740   5.208   0.567   1.502 -0.5046  0.3860 -0.6900
  547MOL0     O73741   5.075   0.541   1.559 -0.3364 -0.4708 -0.0391
  547MOL0     C73742   4.963   0.557   1.480 -0.5240 -0.1708 -0.3680
  547MOL0     C73743   4.923   0.455   1.391  0.7219 -0.9439 -0.9110
  547MOL0     C73744   4.814   0.462   1.307  0.4052 -0.2309 -0.9435
  547MOL0     C73745   4.747   0.584   1.297 -0.1465  0.5675  1.1208
  547MOL0     O73746   4.638   0.611   1.219  0.4505 -0.7396  0.2202
  547MOL0     C73747   4.567   0.504   1.171 -0.1036 -0.2223  0.6469
  547MOL0     C73748   4.445   0.554   1.094 -0.9567 -0.0963  0.6162
  547MOL0     C73749   4.483   0.657   0.984  0.3756 -0.2176 -0.3598
  547MOL0     C73750   4.383   0.666   0.871 -0.7653 -0.4718  0.1043
  547MOL0     C73751   4.402   0.791   0.783  0.9637  0.1643  0.0799
  547MOL0     C73752   4.292   0.794   0.662 -0.0444 -0.2898 -0.2869
  547MOL0     C73753   4.170   0.870   0.701  0.3614  0.1157 -0.2507
  547MOL0     C73754   4.190   1.021   0.680 -0.2503  0.1081 -0.2694
  547MOL0    Cl73755   4.085   1.104   0.785 -0.1168  0.1077  0.6465
  547MOL0     C73756   4.796   0.688   1.377  1.2561  0.7084 -0.3878
  547MOL0     C73757   4.895   0.680   1.470 -0.3382 -0.5319  0.7688
  547MOL0     O73758   5.222   0.593   1.384  0.1744 -0.9666 -0.0473
  547MOL0     C73759   5.314   0.448   1.690  0.3526 -0.0120  0.4290
  547MOL0     C73760   5.420   0.423   1.780  0.3542 -0.4218  0.1677
  547MOL0     N73761   6.024   0.746   2.131 -1.0924  0.7720  0.2906
  547MOL0     N73762   6.108   0.799   2.047 -0.3433  0.3807 -1.2172
  547MOL0     C73763   7.103   1.471   2.095  0.0453 -0.4889 -0.1418
  547MOL0     C73764   7.164   1.579   2.032  0.4595  0.3819 -0.0188
  547MOL0     C73765   7.302   1.957   1.957  0.2248 -0.0814 -0.2992
  547MOL0     C73766   7.317   2.058   2.050 -0.0339  0.1250 -0.3947
  547MOL0     C73767   7.414   2.158   2.037 -0.7671 -0.7906  0.1704
  547MOL0     C73768   7.510   2.144   1.932  0.0312  0.6829 -0.0019
  547MOL0     O73769   7.604   2.245   1.940 -0.3748 -0.1361 -0.6556
  547MOL0     C73770   7.732   2.244   1.882  0.2233  0.0736  0.6829
  547MOL0     C73771   7.839   2.312   1.973 -0.1128  0.1731  0.4240
  547MOL0     C73772   7.811   2.460   1.979 -0.0714 -0.5314  0.1707
  547MOL0     C73773   7.942   2.530   2.011 -0.5995  0.5640  0.2188
  547MOL0     C73774   7.925   2.651   2.082 -0.2336  0.0245 -0.0200
  547MOL0     C73775   7.904   2.742   2.160  0.6118  0.2882  0.2594
  547MOL0     C73776   7.506   2.033   1.839 -0.3997 -0.4221  0.0491
  547MOL0     C73777   7.399   1.942   1.853  0.1700  0.5329 -0.0935
  547MOL0     H73778   6.951   1.635   1.780 -3.7164 -0.6338  1.5384
  547MOL0     H73779   6.840   1.462   1.876  0.4990  0.7363 -0.2380
  547MOL0     H73780   6.744   1.308   2.022  2.5840  1.6571 -1.1910
  547MOL0     H73781   6.856   1.216   1.931 -2.4916  1.4683 -1.6760
  547MOL0     H73782   6.880   1.042   2.114  0.2715 -0.6363  1.7205
  547MOL0     H73783   6.753   1.126   2.206  2.6073 -2.2059  1.3520
  547MOL0     H73784   6.603   1.087   1.991 -1.1104 -0.3081  3.8210
  547MOL0     H73785   6.747   0.986   1.936  0.5297  0.8862 -0.1654
  547MOL0     H73786   6.717   0.869   2.161  1.6686  0.1612 -0.9460
  547MOL0     H73787   6.546   0.929   2.148 -1.2214 -0.8085 -0.3478
  547MOL0     H73788   6.636   0.784   1.914 -0.2191 -4.4514 -0.4085
  547MOL0     H73789   6.614   0.686   2.068  0.4823  0.2736  0.7572
  547MOL0     H73790   6.390   0.803   2.095 -0.1651 -0.9479 -0.5648
  547MOL0     H73791   6.432   0.899   1.954  0.1519  2.1652  3.0183
  547MOL0     H73792   6.446   0.715   1.815  0.2721  3.6370  0.5288
  547MOL0     H73793   6.407   0.596   1.940  0.8617  1.2960 -0.7445
  547MOL0     H73794   6.228   0.646   1.781  1.2516  0.3771 -0.6294
  547MOL0     H73795   6.223   0.814   1.820 -3.9697 -1.3871 -1.0386
  547MOL0     H73796   6.126   0.474   1.989  0.1532 -0.0873  1.4359
  547MOL0     H73797   5.964   0.439   2.199 -4.7965 -3.3421 -2.3041
  547MOL0     H73798   5.875   0.595   2.246  1.4100  2.3954 -0.9287
  547MOL0     H73799   5.767   0.590   2.008  1.0590  1.1440  0.6681
  547MOL0     H73800   5.700   0.483   2.132 -1.2261  3.0930 -0.0828
  547MOL0     H73801   5.833   0.301   2.048  2.1539  0.7690  1.6768
  547MOL0     H73802   5.900   0.404   1.922  0.0996 -1.7120 -0.2458
  547MOL0     H73803   5.610   0.302   1.947 -0.4641 -0.0515 -1.2798
  547MOL0     H73804   5.728   0.278   1.827 -1.4364 -0.0912 -0.6581
  547MOL0     H73805   5.649   0.593   1.622 -0.1511  0.5596 -0.5799
  547MOL0     H73806   5.494   0.607   1.334  0.9902 -1.8628  1.6142
  547MOL0     H73807   5.430   0.754   1.410 -0.0907  1.6341  1.8450
  547MOL0     H73808   5.600   0.695   1.437  0.3120 -4.0285  0.3942
  547MOL0     H73809   4.970   0.358   1.405  0.5297 -0.8802  0.2481
  547MOL0     H73810   4.796   0.380   1.238 -0.4337 -0.3190 -0.6333
  547MOL0     H73811   4.639   0.444   1.115  1.5508  0.5713  1.8297
  547MOL0     H73812   4.547   0.443   1.259  1.2005  0.2563  1.2994
  547MOL0     H73813   4.394   0.469   1.049 -0.4499 -1.7515  3.0294
  547MOL0     H73814   4.373   0.594   1.166  0.2971  2.8022  0.4027
  547MOL0     H73815   4.585   0.629   0.954 -0.1286 -2.8311  0.1678
  547MOL0     H73816   4.485   0.754   1.035  2.9335 -0.6016  0.4309
  547MOL0     H73817   4.377   0.570   0.818  0.2196 -1.2505  1.3653
  547MOL0     H73818   4.285   0.681   0.918 -0.1006 -0.1962  1.4480
  547MOL0     H73819   4.503   0.802   0.744  0.5413  0.9392 -0.8300
  547MOL0     H73820   4.384   0.886   0.833 -1.1493  0.2209 -0.6837
  547MOL0     H73821   4.335   0.844   0.574 -2.5127  1.3677 -0.6486
  547MOL0     H73822   4.271   0.690   0.635 -2.4182 -0.5935  2.2960
  547MOL0     H73823   4.127   0.853   0.800 -0.4874  0.7985 -0.4870
  547MOL0     H73824   4.085   0.847   0.636 -1.7099  0.4144  2.2085
  547MOL0     H73825   4.166   1.049   0.577 -1.9954 -0.0494  0.0714
  547MOL0     H73826   4.295   1.044   0.702 -0.7329  2.1776  0.0786
  547MOL0     H73827   4.750   0.785   1.366 -0.5343 -0.0835 -0.3147
  547MOL0     H73828   4.923   0.771   1.523  0.5180  1.6843 -3.1142
  547MOL0     H73829   5.219   0.401   1.710 -1.4118  2.0357 -2.3374
  547MOL0     H73830   5.408   0.348   1.858  2.3096 -0.6266  0.3323
  547MOL0     H73831   7.129   1.421   2.188 -2.0057 -0.7933  0.3089
  547MOL0     H73832   7.252   1.611   2.087  1.7766 -2.4683 -0.3007
  547MOL0     H73833   7.241   2.074   2.126  0.4837  2.6888 -0.3137
  547MOL0     H73834   7.411   2.233   2.115 -3.2077 -0.7205  0.0748
  547MOL0     H73835   7.758   2.138   1.877 -0.9790 -0.2119  0.0552
  547MOL0     H73836   7.733   2.281   1.779  2.6668 -1.2495  0.1561
  547MOL0     H73837   7.931   2.293   1.917 -1.0964  1.5840 -1.8256
  547MOL0     H73838   7.841   2.262   2.070  2.6774  0.5998  0.6723
  547MOL0     H73839   7.740   2.481   2.060  0.4080  2.4931 -0.0794
  547MOL0     H73840   7.766   2.491   1.884 -3.0854 -1.4541  1.1607
  547MOL0     H73841   8.002   2.536   1.919 -1.1482  1.4114 -0.0993
  547MOL0     H73842   7.989   2.460   2.080 -3.3661 -3.4236 -1.5005
  547MOL0     H73843   7.889   2.818   2.235 -0.7474  0.6884 -0.3933
  547MOL0     H73844   7.579   2.015   1.761 -0.6291 -0.2673 -0.2053
  547MOL0     H73845   7.384   1.856   1.789  0.1459 -3.0169  4.2130
  548MOL0     O73846   1.169  10.476  10.598 -0.7585  0.5537 -0.0829
  548MOL0     C73847   1.202  10.484  10.718  0.1977 -0.3404 -0.9501
  548MOL0     O73848   1.118  10.482  10.825 -0.2043  0.0321 -0.1681
  548MOL0     C73849   0.985  10.507  10.800 -1.0111 -0.4542 -0.0831
  548MOL0     C73850   0.907  10.416  10.726  0.6387  0.6168  0.3916
  548MOL0     C73851   0.772  10.426  10.715 -0.1427  0.1916  0.3225
  548MOL0     C73852   0.715  10.536  10.783  0.0533  0.3100  0.3281
  548MOL0     O73853   0.580  10.564  10.765  0.0326 -0.1590 -0.6270
  548MOL0     C73854   0.486  10.465  10.773 -0.5490 -0.6725 -0.2608
  548MOL0     C73855   0.352  10.533  10.758 -0.1726  0.3390 -0.7938
  548MOL0     C73856   0.236  10.460  10.821  0.2667  0.3494 -0.5675
  548MOL0     C73857   0.101  10.528  10.804  0.5382  0.7058 -0.2738
  548MOL0     C73858  -0.021  10.434  10.848 -0.3430 -0.4103  0.2095
  548MOL0     C73859  -0.150  10.501  10.821 -0.2860 -0.4507  0.0412
  548MOL0     C73860  -0.268  10.414  10.801  0.2254  0.1498  0.1071
  548MOL0     C73861  -0.324  10.346  10.936  0.0398 -0.0003  0.1049
  548MOL0     N73862  -0.353  10.441  11.039 -0.5185 -0.7616 -0.0191
  548MOL0     C73863  -0.461  10.533  11.027  0.4302  0.5308  0.3001
  548MOL0     C73864  -0.477  10.584  11.152  0.3636  0.1133  0.5332
  548MOL0     C73865  -0.569  10.695  11.186  0.7144 -0.3062 -0.8681
  548MOL0     C73866  -0.714  10.666  11.217 -0.0627 -0.5443  0.1189
  548MOL0     C73867  -0.793  10.669  11.082 -0.1496  0.2771 -0.1716
  548MOL0     C73868  -0.943  10.654  11.119 -0.2423 -0.3846  0.0739
  548MOL0     O73869  -0.972  10.534  11.184  1.0481  0.5510  0.2859
  548MOL0     C73870  -1.100  10.493  11.205 -0.3815 -0.1882 -0.2755
  548MOL0     C73871  -1.127  10.367  11.261 -0.0893 -0.4541 -0.4171
  548MOL0     C73872  -1.255  10.321  11.291  0.3975 -0.6709 -0.8409
  548MOL0     C73873  -1.262  10.178  11.362  0.1265 -0.5029  0.1930
  548MOL0     C73874  -1.368  10.404  11.258 -0.3699 -0.2599 -0.9757
  548MOL0     C73875  -1.506  10.360  11.282 -0.6223  0.2612 -0.0007
  548MOL0     O73876  -1.543  10.280  11.393 -1.1920 -0.4868  0.3180
  548MOL0     C73877  -1.658  10.209  11.375 -0.3581  0.3479  0.0405
  548MOL0     C73878  -1.766  10.219  11.464  0.1347 -0.3125 -1.5921
  548MOL0     C73879  -1.889  10.156  11.440 -0.6233 -0.2205 -0.8263
  548MOL0     C73880  -1.903  10.088  11.321 -0.1761  0.2642  0.2486
  548MOL0     O73881  -2.022  10.032  11.276 -0.0966  0.2314 -0.2978
  548MOL0     C73882  -2.054   9.902  11.330 -0.2273 -0.5103 -0.4796
  548MOL0     C73883  -2.210   9.870  11.330 -1.0711 -0.3150 -0.0135
  548MOL0     C73884  -2.280   9.966  11.431 -0.1890  0.0597 -0.1252
  548MOL0     C73885  -2.428   9.935  11.422 -0.6097 -0.5207  0.2447
  548MOL0     C73886  -2.507  10.016  11.535 -0.8551 -0.5417  0.3195
  548MOL0     C73887  -2.652   9.967  11.538 -0.4303 -0.2437  0.6799
  548MOL0     C73888  -2.743  10.044  11.630 -0.5406  1.1479  0.0799
  548MOL0     C73889  -2.900  10.037  11.602 -0.7270 -0.2918 -0.2360
  548MOL0    Cl73890  -2.945   9.861  11.599  0.3091  0.3878 -0.1346
  548MOL0     C73891  -1.794  10.071  11.239 -0.1363  0.6926 -0.3429
  548MOL0     C73892  -1.670  10.133  11.263  0.3344 -0.2478  0.2411
  548MOL0     O73893  -1.582  10.396  11.192  0.2724  0.5408 -0.3500
  548MOL0     C73894  -1.345  10.529  11.198 -0.9958  0.3340  0.2316
  548MOL0     C73895  -1.213  10.571  11.168 -0.3099  0.1229  0.1072
  548MOL0     N73896  -0.387  10.521  11.241 -0.3197  0.1969  0.2700
  548MOL0     N73897  -0.312  10.448  11.169 -0.2752  0.3976 -0.2901
  548MOL0     C73898   0.794  10.634  10.845 -0.0410 -0.6742  0.8116
  548MOL0     C73899   0.926  10.626  10.849 -0.2627 -0.3861 -0.4077
  548MOL0     C73900   1.342  10.467  10.744 -0.5748 -0.1971  0.2096
  548MOL0     C73901   1.387  10.452  10.875 -0.0973 -0.3646 -0.5499
  548MOL0     C73902   1.520  10.432  10.913  0.2120 -0.2584 -1.4266
  548MOL0     C73903   1.616  10.421  10.817 -0.4322  0.1679 -0.1211
  548MOL0     O73904   1.751  10.404  10.833  0.3060  0.4382  0.1171
  548MOL0     C73905   1.808  10.368  10.964 -0.7122  0.1230  0.0437
  548MOL0     C73906   1.948  10.303  10.935  0.6146 -0.8138 -0.8300
  548MOL0     C73907   2.049  10.407  10.884  0.4103 -0.7331  0.3082
  548MOL0     C73908   2.193  10.361  10.914 -0.3345 -0.4355 -0.3136
  548MOL0     C73909   2.219  10.316  11.050  0.3249 -0.2495  0.6070
  548MOL0     C73910   2.257  10.290  11.162  0.0520  0.0532  0.1975
  548MOL0     C73911   1.569  10.435  10.675 -0.3383  1.1051  0.0049
  548MOL0     C73912   1.440  10.453  10.641  0.4908  0.0912 -0.2366
  548MOL0     H73913   0.944  10.327  10.676 -0.7834 -1.1313  2.2292
  548MOL0     H73914   0.699  10.368  10.659  0.8688 -0.8110  0.0218
  548MOL0     H73915   0.503  10.401  10.686  0.1001 -0.3956 -0.3439
  548MOL0     H73916   0.487  10.411  10.868 -0.9550 -0.5544 -0.1854
  548MOL0     H73917   0.355  10.627  10.815 -0.4347 -0.6481  0.9035
  548MOL0     H73918   0.325  10.564  10.656 -0.3523  0.6008 -0.6692
  548MOL0     H73919   0.223  10.364  10.771  3.8377  0.1546 -1.3804
  548MOL0     H73920   0.264  10.430  10.923  1.2976 -0.3819 -1.0515
  548MOL0     H73921   0.098  10.625  10.852  0.1552  1.2514 -1.3498
  548MOL0     H73922   0.084  10.568  10.703  1.2107  2.7751  0.3994
  548MOL0     H73923  -0.007  10.341  10.793  3.7026  0.6381 -0.9257
  548MOL0     H73924  -0.004  10.418  10.955 -0.0923 -0.0634  0.2246
  548MOL0     H73925  -0.158  10.577  10.899  0.1263  1.5776 -1.8038
  548MOL0     H73926  -0.147  10.558  10.728 -2.6806 -3.0265 -1.7884
  548MOL0     H73927  -0.344  10.465  10.741 -0.9402 -2.4451 -0.7697
  548MOL0     H73928  -0.247  10.340  10.723 -1.8936 -0.4784  0.0854
  548MOL0     H73929  -0.252  10.275  10.977  2.1169  1.3216 -1.1136
  548MOL0     H73930  -0.416  10.290  10.913  1.4337 -1.8027 -1.3344
  548MOL0     H73931  -0.513  10.557  10.935  0.3427  5.8125  1.4278
  548MOL0     H73932  -0.536  10.744  11.279 -3.3613 -0.1951  0.7248
  548MOL0     H73933  -0.565  10.764  11.102 -0.3847 -0.6888 -1.2423
  548MOL0     H73934  -0.747  10.742  11.288  1.4200  0.1229  0.1361
  548MOL0     H73935  -0.708  10.566  11.260  3.7968  0.0416  1.3136
  548MOL0     H73936  -0.757  10.582  11.027  1.1895  1.0788 -0.6239
  548MOL0     H73937  -0.772  10.762  11.029  1.1971  0.7333  1.0765
  548MOL0     H73938  -0.997  10.643  11.025  1.1985 -1.8631 -0.6151
  548MOL0     H73939  -0.977  10.748  11.165 -0.3744 -0.0910 -0.6059
  548MOL0     H73940  -1.033  10.316  11.275  1.6008  2.5050 -0.1389
  548MOL0     H73941  -1.263  10.182  11.471  1.5132 -0.2235  0.2142
  548MOL0     H73942  -1.346  10.125  11.316 -0.7143  2.5443 -2.1353
  548MOL0     H73943  -1.165  10.132  11.340  2.1358  4.0047 -1.5423
  548MOL0     H73944  -1.765  10.278  11.555 -2.3490 -1.3179 -0.8299
  548MOL0     H73945  -1.971  10.170  11.509 -0.0805  2.8832 -0.6879
  548MOL0     H73946  -2.001   9.829  11.268 -1.3560 -1.2491 -0.6210
  548MOL0     H73947  -2.026   9.897  11.436 -0.9011  0.6442 -0.2341
  548MOL0     H73948  -2.258   9.888  11.234 -1.9278  0.6482  0.5665
  548MOL0     H73949  -2.232   9.766  11.356 -0.7790  0.1935  2.6030
  548MOL0     H73950  -2.267  10.066  11.388 -1.7357  0.4697  0.2727
  548MOL0     H73951  -2.243   9.961  11.534  0.4756 -1.8081 -0.4379
  548MOL0     H73952  -2.470   9.975  11.330 -1.6755 -1.5459  0.2643
  548MOL0     H73953  -2.456   9.830  11.436  0.7744 -0.7832  1.3670
  548MOL0     H73954  -2.505  10.125  11.524  1.7915 -0.5719 -0.1652
  548MOL0     H73955  -2.467   9.985  11.632 -0.7387 -0.6391  0.2409
  548MOL0     H73956  -2.677   9.974  11.432  3.9701  1.6279 -0.4748
  548MOL0     H73957  -2.651   9.860  11.558  2.2622 -0.5685 -0.7361
  548MOL0     H73958  -2.714  10.150  11.626  0.8296  0.7627 -2.2059
  548MOL0     H73959  -2.720  10.013  11.732 -0.8255 -0.3817 -0.2961
  548MOL0     H73960  -2.928  10.073  11.503 -3.2835 -0.5778  0.3071
  548MOL0     H73961  -2.956  10.093  11.677 -2.5182 -1.4466 -0.6362
  548MOL0     H73962  -1.817  10.014  11.149 -1.4022 -1.0767  1.0452
  548MOL0     H73963  -1.593  10.118  11.188 -0.9840 -0.8000 -1.0502
  548MOL0     H73964  -1.431  10.592  11.178 -0.8579  0.2906 -0.5538
  548MOL0     H73965  -1.204  10.656  11.101  2.3995 -1.1105 -1.2565
  548MOL0     H73966   0.749  10.718  10.896  1.3067  0.9132 -0.5247
  548MOL0     H73967   0.986  10.698  10.903  1.8735 -2.6403  0.4615
  548MOL0     H73968   1.313  10.460  10.954 -0.2312 -0.9846 -0.6024
  548MOL0     H73969   1.536  10.429  11.021 -0.4656  1.3201 -1.2683
  548MOL0     H73970   1.815  10.463  11.018 -0.8879  0.4418 -0.4803
  548MOL0     H73971   1.747  10.302  11.026  0.4583 -0.0397  1.0606
  548MOL0     H73972   1.930  10.216  10.871 -1.0886 -0.9009 -0.3103
  548MOL0     H73973   1.982  10.261  11.030  0.2494  0.3830 -0.1428
  548MOL0     H73974   2.028  10.503  10.932  1.7458 -0.2241 -0.0882
  548MOL0     H73975   2.045  10.424  10.776 -1.6027 -2.0701  0.1085
  548MOL0     H73976   2.271  10.435  10.894  0.6820 -0.6901  2.2949
  548MOL0     H73977   2.220  10.275  10.851  1.2358  0.6001 -1.1282
  548MOL0     H73978   2.282  10.275  11.266  1.9030 -2.4356 -0.4889
  548MOL0     H73979   1.648  10.411  10.604  2.9759  0.3023  3.6749
  548MOL0     H73980   1.394  10.426  10.547 -0.7592  0.4257  0.2668
  549MOL0     O73981   1.321   4.125   0.861 -0.0254 -0.9205  0.5790
  549MOL0     C73982   1.283   4.215   0.782  0.0457  0.4273 -0.3417
  549MOL0     O73983   1.362   4.288   0.692 -0.9464  0.2555 -0.1148
  549MOL0     C73984   1.496   4.258   0.700 -0.1838 -0.5837  1.0820
  549MOL0     C73985   1.574   4.210   0.814 -0.0193 -0.1222  0.4323
  549MOL0     C73986   1.710   4.190   0.796 -1.0655  0.5756  0.1907
  549MOL0     C73987   1.770   4.224   0.672  0.1947  0.4251  0.5675
  549MOL0     O73988   1.911   4.232   0.670 -0.2153 -0.1017 -0.3888
  549MOL0     C73989   1.975   4.354   0.647 -0.4115  0.2825  0.3945
  549MOL0     C73990   2.112   4.337   0.709 -0.5842 -1.1130 -0.4489
  549MOL0     C73991   2.171   4.481   0.718 -0.0217 -0.3640  0.2441
  549MOL0     C73992   2.260   4.525   0.600 -0.0627 -0.1148 -0.9081
  549MOL0     C73993   2.336   4.661   0.608 -0.1176  0.7613 -0.5645
  549MOL0     C73994   2.479   4.658   0.552 -1.1571  0.8674  0.8159
  549MOL0     C73995   2.561   4.782   0.574 -0.5718 -0.3653  0.3212
  549MOL0     C73996   2.607   4.810   0.713 -0.1524  0.4409 -0.1339
  549MOL0     N73997   2.689   4.932   0.738  0.0312  0.1946 -0.6363
  549MOL0     C73998   2.771   4.989   0.646  0.3920  0.0176 -0.1640
  549MOL0     C73999   2.801   5.108   0.702  0.3085 -0.1371  0.5180
  549MOL0     C74000   2.887   5.213   0.636 -0.9632 -0.1867  0.2082
  549MOL0     C74001   3.034   5.186   0.665 -0.6331 -0.2753  0.1103
  549MOL0     C74002   3.100   5.043   0.643  0.1593 -0.1051 -0.2693
  549MOL0     C74003   3.221   5.025   0.735  0.0032 -0.0239 -0.1664
  549MOL0     O74004   3.301   4.906   0.708  0.1948 -0.2706 -0.3465
  549MOL0     C74005   3.404   4.866   0.790 -0.3029 -0.1765  0.4760
  549MOL0     C74006   3.457   4.945   0.895 -0.2051  0.6762  0.8310
  549MOL0     C74007   3.572   4.912   0.971  0.0603  0.2701  0.0220
  549MOL0     C74008   3.626   5.020   1.055 -0.3891 -0.7432  0.3655
  549MOL0     C74009   3.631   4.782   0.940  0.3051 -0.8314 -0.3529
  549MOL0     C74010   3.759   4.726   1.009  0.7044  0.1667 -0.3124
  549MOL0     O74011   3.826   4.811   1.100 -0.0155 -0.1438  0.3511
  549MOL0     C74012   3.940   4.757   1.157 -0.4900 -0.1996 -0.1664
  549MOL0     C74013   4.037   4.687   1.088 -0.1019 -0.0475 -1.0612
  549MOL0     C74014   4.153   4.650   1.143  0.0524 -0.1684  0.0436
  549MOL0     C74015   4.192   4.689   1.264 -0.1335 -0.3817 -1.0313
  549MOL0     O74016   4.315   4.650   1.318  0.0460  0.0351 -0.4900
  549MOL0     C74017   4.332   4.657   1.460  0.6851 -1.0885 -0.3028
  549MOL0     C74018   4.445   4.577   1.493 -0.3039  0.7850  0.7737
  549MOL0     C74019   4.463   4.547   1.641  0.5242  0.8791 -0.6867
  549MOL0     C74020   4.593   4.475   1.678  0.1893  1.0703  0.4495
  549MOL0     C74021   4.589   4.431   1.832 -0.2533 -0.3549  0.5812
  549MOL0     C74022   4.726   4.391   1.879 -0.5384  0.0650 -0.2508
  549MOL0     C74023   4.761   4.252   1.829 -0.9182  0.6203 -0.3696
  549MOL0     C74024   4.896   4.206   1.871 -0.4592 -1.6961  0.3293
  549MOL0    Cl74025   4.923   4.197   2.045 -0.0638  0.0073 -0.0927
  549MOL0     C74026   4.097   4.769   1.339  0.0627 -0.2702 -0.3462
  549MOL0     C74027   3.978   4.809   1.282 -0.3977  0.3778 -0.1436
  549MOL0     O74028   3.786   4.609   0.984 -0.5080 -0.7949  0.0649
  549MOL0     C74029   3.579   4.706   0.830 -0.0648  0.2072 -0.0933
  549MOL0     C74030   3.468   4.750   0.754  0.5215  0.3223  0.0915
  549MOL0     N74031   2.738   5.116   0.824  0.0910  0.5888 -0.2563
  549MOL0     N74032   2.675   5.005   0.852 -0.8423 -0.2506  0.1793
  549MOL0     C74033   1.701   4.278   0.559 -0.3645 -0.0990 -0.6374
  549MOL0     C74034   1.570   4.289   0.575  0.1545  0.1171 -0.1271
  549MOL0     C74035   1.148   4.263   0.803  0.6517  0.0892  0.7681
  549MOL0     C74036   1.086   4.364   0.721  0.5164 -0.4980 -0.3567
  549MOL0     C74037   0.958   4.404   0.763  1.3430  0.7194 -0.1113
  549MOL0     C74038   0.876   4.339   0.859  0.2090 -0.5454  0.6803
  549MOL0     O74039   0.743   4.379   0.862 -0.1003  0.0958 -0.1558
  549MOL0     C74040   0.662   4.339   0.972  0.2962 -0.0085 -0.6515
  549MOL0     C74041   0.600   4.194   0.960  0.5624 -1.6211  0.1561
  549MOL0     C74042   0.522   4.163   0.836  0.1056 -0.5479 -0.0163
  549MOL0     C74043   0.459   4.023   0.843 -0.2431  0.5227  0.6109
  549MOL0     C74044   0.418   3.975   0.711 -1.2646  0.4503 -0.3858
  549MOL0     C74045   0.410   3.933   0.598  0.2461 -0.4375 -1.4816
  549MOL0     C74046   0.945   4.246   0.940  0.0321  0.3659 -0.0331
  549MOL0     C74047   1.074   4.211   0.914 -0.6398  0.1583  0.5584
  549MOL0     H74048   1.538   4.201   0.916  0.9119 -0.3522  0.7443
  549MOL0     H74049   1.775   4.171   0.881  1.2707 -2.8557 -2.1039
  549MOL0     H74050   1.981   4.373   0.539  0.4805 -3.0266 -0.2589
  549MOL0     H74051   1.917   4.432   0.696 -1.5695  1.1877 -2.2244
  549MOL0     H74052   2.100   4.302   0.812 -1.4315  0.7136  0.1370
  549MOL0     H74053   2.175   4.269   0.652  1.3470  0.3155 -0.1439
  549MOL0     H74054   2.095   4.559   0.730  0.0342 -0.1337 -0.8590
  549MOL0     H74055   2.232   4.482   0.809  2.0211  1.3889 -1.0383
  549MOL0     H74056   2.339   4.450   0.589  0.8746  0.7193 -0.0199
  549MOL0     H74057   2.200   4.520   0.508 -2.6196 -0.6818  0.6825
  549MOL0     H74058   2.279   4.737   0.555  0.7225  0.0943 -2.5010
  549MOL0     H74059   2.343   4.677   0.716 -2.0982 -0.7899 -0.1447
  549MOL0     H74060   2.532   4.575   0.600 -1.6087  0.1096  0.0406
  549MOL0     H74061   2.478   4.645   0.443 -0.1814 -1.1250  0.9903
  549MOL0     H74062   2.659   4.779   0.526  0.3268 -0.4978  2.0858
  549MOL0     H74063   2.517   4.875   0.535 -1.6788 -1.2955 -0.7335
  549MOL0     H74064   2.670   4.724   0.738  1.2411  1.9331  1.8431
  549MOL0     H74065   2.518   4.815   0.776 -0.6923  2.7185 -0.9803
  549MOL0     H74066   2.799   4.939   0.554  1.1351 -1.5560  0.8635
  549MOL0     H74067   2.872   5.227   0.528  3.2777 -0.4144 -0.6145
  549MOL0     H74068   2.867   5.307   0.688  0.4757  0.6683 -0.7331
  549MOL0     H74069   3.052   5.227   0.765  0.8642  1.3718 -0.7811
  549MOL0     H74070   3.095   5.257   0.608  0.4248 -1.7426 -0.6460
  549MOL0     H74071   3.134   5.054   0.539 -2.2329  3.6831 -0.8564
  549MOL0     H74072   3.028   4.964   0.666  0.8264 -0.9745 -1.0822
  549MOL0     H74073   3.181   5.017   0.837  0.0465  2.4381  0.1000
  549MOL0     H74074   3.284   5.113   0.723  1.1164 -0.8086 -0.2326
  549MOL0     H74075   3.407   5.041   0.906 -3.5477 -0.7936 -0.3718
  549MOL0     H74076   3.667   4.971   1.144 -2.3473 -1.9205  0.6760
  549MOL0     H74077   3.708   5.070   1.002  0.8884 -3.8464 -0.8474
  549MOL0     H74078   3.560   5.099   1.092  0.5019  0.5017 -0.6331
  549MOL0     H74079   4.022   4.645   0.989 -3.1232  1.6039 -1.4192
  549MOL0     H74080   4.219   4.580   1.093  0.1581 -1.3947  1.8043
  549MOL0     H74081   4.342   4.763   1.487  2.6454 -1.3643  0.1613
  549MOL0     H74082   4.243   4.612   1.504  0.9882 -1.2038  0.1919
  549MOL0     H74083   4.439   4.483   1.437  0.5975  1.1591  0.0042
  549MOL0     H74084   4.532   4.631   1.454 -2.1292  3.4810  0.2124
  549MOL0     H74085   4.374   4.500   1.684  0.8564 -1.1066 -2.0659
  549MOL0     H74086   4.477   4.642   1.695  2.0122 -1.2589  3.0738
  549MOL0     H74087   4.612   4.390   1.612 -0.5779  2.4765 -1.6828
  549MOL0     H74088   4.669   4.553   1.661 -0.5748  1.5012 -1.2293
  549MOL0     H74089   4.523   4.346   1.848 -1.9670 -0.0256 -3.3984
  549MOL0     H74090   4.552   4.512   1.895 -1.1783 -1.7990  1.9416
  549MOL0     H74091   4.801   4.467   1.857 -0.9230  0.7596  0.7794
  549MOL0     H74092   4.717   4.380   1.988 -1.5730 -0.3408 -0.3629
  549MOL0     H74093   4.774   4.243   1.721 -1.3085  0.2250 -0.3869
  549MOL0     H74094   4.685   4.185   1.871  0.1462 -0.6578 -0.3995
  549MOL0     H74095   4.971   4.279   1.840 -0.5771 -0.8883  1.8260
  549MOL0     H74096   4.931   4.110   1.834 -1.2945 -2.0216  0.3582
  549MOL0     H74097   4.101   4.823   1.433 -2.3196 -0.3937 -0.1036
  549MOL0     H74098   3.918   4.883   1.333  0.8114  0.8085  0.6921
  549MOL0     H74099   3.635   4.626   0.784  1.2297  1.9324 -1.6321
  549MOL0     H74100   3.450   4.679   0.673 -0.8076  0.7648 -0.0145
  549MOL0     H74101   1.763   4.295   0.471  2.9535  2.3755  1.9272
  549MOL0     H74102   1.518   4.331   0.490  1.3692  2.0193  0.0274
  549MOL0     H74103   1.146   4.413   0.645  0.8030  0.2778  0.3441
  549MOL0     H74104   0.907   4.484   0.711  1.6133  1.4470  0.7191
  549MOL0     H74105   0.727   4.347   1.059  0.2443  0.2929 -0.6394
  549MOL0     H74106   0.579   4.408   0.992 -0.5873 -1.0859 -0.5480
  549MOL0     H74107   0.533   4.191   1.047 -1.4414  1.7145 -1.0747
  549MOL0     H74108   0.678   4.118   0.971  3.7205  1.3371 -0.0838
  549MOL0     H74109   0.595   4.160   0.755  0.6477  0.1982  0.4362
  549MOL0     H74110   0.452   4.246   0.822  1.7215  1.1604  1.4967
  549MOL0     H74111   0.367   4.032   0.901 -0.2874  4.0535  0.2033
  549MOL0     H74112   0.536   3.949   0.870 -0.2725 -0.5852 -2.0359
  549MOL0     H74113   0.402   3.907   0.495  0.7527  0.9453 -1.9012
  549MOL0     H74114   0.887   4.197   1.018 -0.7170 -1.2500 -1.5296
  549MOL0     H74115   1.110   4.125   0.968  2.6705  0.6833 -0.5667
  550MOL0     O74116   3.868   3.626   8.162 -0.2080 -0.2939  0.2479
  550MOL0     C74117   3.887   3.511   8.123 -0.3140 -0.2170 -0.3824
  550MOL0     O74118   3.792   3.419   8.086  0.1818  0.7291  0.0044
  550MOL0     C74119   3.658   3.459   8.093  0.3192  0.4970  0.3496
  550MOL0     C74120   3.625   3.567   8.002  0.1284  0.3737  0.0797
  550MOL0     C74121   3.498   3.622   8.010  0.1886  0.4154 -0.3873
  550MOL0     C74122   3.400   3.569   8.094  0.1328 -0.3511  1.0911
  550MOL0     O74123   3.272   3.622   8.102 -0.3353  0.8143  0.3409
  550MOL0     C74124   3.214   3.682   7.986 -0.2135  0.6040 -0.4553
  550MOL0     C74125   3.062   3.644   7.970 -0.4836 -0.0051  0.5259
  550MOL0     C74126   2.981   3.709   8.081  0.4281 -1.0956  0.1655
  550MOL0     C74127   2.835   3.680   8.062  0.0805  0.8783  0.1538
  550MOL0     C74128   2.736   3.763   8.157 -0.6504 -0.0634 -0.4486
  550MOL0     C74129   2.585   3.763   8.111  0.5086  0.2284  0.7513
  550MOL0     C74130   2.579   3.848   7.988  0.6647 -0.3255  0.5670
  550MOL0     C74131   2.437   3.873   7.930  0.1833 -0.0049 -0.6100
  550MOL0     N74132   2.405   3.775   7.832 -0.0266 -0.5051  0.2090
  550MOL0     C74133   2.316   3.675   7.852 -0.1465  0.6419  0.0430
  550MOL0     C74134   2.331   3.586   7.749 -0.4953 -0.6558  0.0216
  550MOL0     C74135   2.253   3.462   7.745 -0.3068  0.5211  0.6367
  550MOL0     C74136   2.098   3.483   7.752 -0.0507  0.3762  0.5503
  550MOL0     C74137   2.051   3.578   7.640 -0.2246 -0.2279  0.3657
  550MOL0     C74138   1.901   3.590   7.643 -1.0945 -0.1769 -0.3145
  550MOL0     O74139   1.870   3.703   7.550  0.2709 -0.3760  0.4413
  550MOL0     C74140   1.757   3.771   7.566 -0.6493 -0.0629 -0.5580
  550MOL0     C74141   1.750   3.895   7.511  0.2781 -0.1855 -0.1577
  550MOL0     C74142   1.633   3.975   7.507  0.1588  0.6481  0.0009
  550MOL0     C74143   1.639   4.107   7.437  0.7695  0.0572 -0.2468
  550MOL0     C74144   1.523   3.920   7.582 -0.0453 -0.5129  0.1844
  550MOL0     C74145   1.390   3.992   7.604  0.1179 -0.4723  0.3854
  550MOL0     O74146   1.288   3.908   7.639  0.1735  0.5089 -0.5705
  550MOL0     C74147   1.172   3.960   7.682 -0.4985 -0.7558 -0.5930
  550MOL0     C74148   1.055   3.920   7.630 -0.0106 -0.0132 -0.1247
  550MOL0     C74149   0.935   3.964   7.674 -0.2077 -0.6710  0.2759
  550MOL0     C74150   0.923   4.074   7.765 -0.2383  0.9124 -0.4647
  550MOL0     O74151   0.811   4.139   7.782  0.1955  0.1732 -1.2070
  550MOL0     C74152   0.763   4.206   7.667  0.8764 -1.0230 -0.5348
  550MOL0     C74153   0.623   4.274   7.717  0.1160  0.2646 -0.1379
  550MOL0     C74154   0.556   4.346   7.601 -0.2376 -0.0629 -0.1780
  550MOL0     C74155   0.476   4.254   7.516  0.2526  0.7605 -0.6261
  550MOL0     C74156   0.416   4.331   7.396 -0.2557  0.7422 -0.9382
  550MOL0     C74157   0.306   4.434   7.439 -0.1068  0.1626  0.3494
  550MOL0     C74158   0.265   4.528   7.324 -0.2012  1.1677 -0.0584
  550MOL0     C74159   0.187   4.453   7.215  0.8012 -0.4204  0.0152
  550MOL0    Cl74160   0.008   4.445   7.243  0.1260  0.2509 -0.4260
  550MOL0     C74161   1.039   4.117   7.826 -0.2695 -0.8860  0.3037
  550MOL0     C74162   1.161   4.058   7.796  0.8679  1.1077  0.4278
  550MOL0     O74163   1.383   4.116   7.608  0.5630 -0.4762  0.2209
  550MOL0     C74164   1.530   3.797   7.636  0.1809 -0.5744 -0.3733
  550MOL0     C74165   1.647   3.720   7.631  0.1730  0.7805 -0.0714
  550MOL0     N74166   2.430   3.638   7.662  0.4283 -0.2638 -0.3411
  550MOL0     N74167   2.468   3.752   7.707 -0.3095 -0.6540  0.4862
  550MOL0     C74168   3.431   3.452   8.169  0.3269  0.9532 -0.7584
  550MOL0     C74169   3.557   3.403   8.181 -0.7840 -0.3572 -0.3812
  550MOL0     C74170   4.028   3.463   8.100  0.8829  0.2488 -0.1433
  550MOL0     C74171   4.138   3.539   8.154  0.7667  0.0070 -0.4117
  550MOL0     C74172   4.264   3.503   8.127 -0.4050  0.4898 -0.1223
  550MOL0     C74173   4.299   3.391   8.044  0.9701 -0.4954  0.8318
  550MOL0     O74174   4.428   3.356   8.001 -0.0233  0.5258  0.5746
  550MOL0     C74175   4.539   3.431   8.036  0.6587  0.2689 -0.5877
  550MOL0     C74176   4.633   3.426   7.916  0.3173 -0.1863  0.4742
  550MOL0     C74177   4.571   3.516   7.793 -0.2702  0.2210 -0.1238
  550MOL0     C74178   4.611   3.670   7.794  0.0995  0.0780  0.6162
  550MOL0     C74179   4.745   3.704   7.749  0.7805  0.7518 -0.2134
  550MOL0     C74180   4.857   3.723   7.732  0.3335 -0.3468  0.0742
  550MOL0     C74181   4.194   3.317   7.993 -0.2328  0.2751  0.3119
  550MOL0     C74182   4.060   3.357   8.009 -1.2949 -1.2946  0.1539
  550MOL0     H74183   3.693   3.604   7.925 -2.3439  0.4235 -2.2606
  550MOL0     H74184   3.487   3.717   7.959  0.3335  0.6955  0.0994
  550MOL0     H74185   3.216   3.790   8.003 -1.7971  0.4015  1.4024
  550MOL0     H74186   3.273   3.665   7.896  0.4069  1.4227 -0.2149
  550MOL0     H74187   3.034   3.679   7.870  3.0737  1.1460 -0.2026
  550MOL0     H74188   3.058   3.535   7.975  0.3414  0.0108  3.5221
  550MOL0     H74189   3.006   3.677   8.183  0.8372  0.5763  0.6246
  550MOL0     H74190   2.997   3.817   8.079  0.1130 -1.0165  1.2737
  550MOL0     H74191   2.812   3.690   7.956 -1.9253  1.6057  0.6112
  550MOL0     H74192   2.818   3.577   8.093  0.4018  0.6849 -0.3245
  550MOL0     H74193   2.736   3.707   8.251  0.1920  2.1214  0.9489
  550MOL0     H74194   2.782   3.861   8.173 -1.1968  0.5093 -2.1625
  550MOL0     H74195   2.547   3.663   8.087 -1.9676  1.3388 -0.2776
  550MOL0     H74196   2.523   3.807   8.190  1.5317  2.0286  0.6007
  550MOL0     H74197   2.610   3.950   8.013 -2.1310  0.1507  2.5985
  550MOL0     H74198   2.636   3.801   7.908 -0.7857  0.7517 -1.1662
  550MOL0     H74199   2.427   3.966   7.874 -3.9371 -0.4040 -0.8840
  550MOL0     H74200   2.361   3.867   8.009  0.9888  3.5965  0.6390
  550MOL0     H74201   2.248   3.667   7.936 -0.7974  3.1325 -0.1641
  550MOL0     H74202   2.271   3.403   7.655  0.9516 -0.5532  1.5497
  550MOL0     H74203   2.291   3.401   7.828  0.3105 -1.0989 -0.7720
  550MOL0     H74204   2.068   3.520   7.850 -1.1837 -0.5032  0.5649
  550MOL0     H74205   2.046   3.387   7.740  0.3324  0.1710  0.5044
  550MOL0     H74206   2.087   3.553   7.540 -0.3363 -1.0278  0.5144
  550MOL0     H74207   2.084   3.677   7.674  0.3983  0.3942 -1.9078
  550MOL0     H74208   1.872   3.620   7.745  0.5351  3.2138 -0.6877
  550MOL0     H74209   1.858   3.495   7.613 -0.9120 -0.4366  0.2357
  550MOL0     H74210   1.842   3.924   7.462 -0.3297  0.9918 -0.6472
  550MOL0     H74211   1.719   4.112   7.363  1.5942  0.3728  0.6394
  550MOL0     H74212   1.545   4.121   7.384  0.1301 -0.6546  0.6661
  550MOL0     H74213   1.663   4.186   7.509 -0.9937 -0.7789  1.3532
  550MOL0     H74214   1.044   3.851   7.548  0.0791 -0.0081 -0.1420
  550MOL0     H74215   0.845   3.940   7.618  0.5519  0.9766 -1.8296
  550MOL0     H74216   0.832   4.285   7.637  0.4873 -0.9348 -1.2130
  550MOL0     H74217   0.725   4.138   7.590 -2.1380 -0.5676  0.4453
  550MOL0     H74218   0.559   4.191   7.750  0.5710 -0.8420 -1.8600
  550MOL0     H74219   0.642   4.347   7.796  4.7916  2.2312 -2.6881
  550MOL0     H74220   0.629   4.405   7.545 -0.6733  0.3410 -0.3301
  550MOL0     H74221   0.492   4.414   7.658  1.5530  0.1868  1.6644
  550MOL0     H74222   0.531   4.174   7.466  2.5247  2.3591 -0.8101
  550MOL0     H74223   0.392   4.216   7.575 -0.7513 -0.3175 -2.6330
  550MOL0     H74224   0.380   4.258   7.324  0.0810  1.9530 -2.3886
  550MOL0     H74225   0.492   4.380   7.335 -1.2121  1.2567 -1.7535
  550MOL0     H74226   0.224   4.374   7.480  2.0750 -3.6995 -0.4607
  550MOL0     H74227   0.334   4.501   7.521 -2.5667 -0.4246  1.7758
  550MOL0     H74228   0.360   4.566   7.286  1.1320 -0.4367  1.5334
  550MOL0     H74229   0.207   4.613   7.361 -0.5355  1.3073 -0.8711
  550MOL0     H74230   0.224   4.361   7.170 -3.4927 -1.4821 -1.7311
  550MOL0     H74231   0.197   4.524   7.132  0.5304  0.3760  0.6399
  550MOL0     H74232   1.038   4.202   7.893  1.8365  1.5842 -2.5075
  550MOL0     H74233   1.249   4.091   7.850  0.4074  1.5722  0.8953
  550MOL0     H74234   1.441   3.752   7.678  0.5668 -1.0877 -0.0970
  550MOL0     H74235   1.657   3.618   7.669 -0.1405  1.7300  2.8165
  550MOL0     H74236   3.349   3.409   8.225  0.5603 -0.7640 -1.6640
  550MOL0     H74237   3.571   3.329   8.259  2.1182  0.5658  0.1056
  550MOL0     H74238   4.120   3.634   8.203  2.7924  2.5772 -4.1342
  550MOL0     H74239   4.339   3.555   8.185  2.7985 -2.2399 -1.4859
  550MOL0     H74240   4.520   3.537   8.057  1.1880  0.0721  1.0392
  550MOL0     H74241   4.599   3.391   8.118  1.2496  0.1218 -1.0799
  550MOL0     H74242   4.653   3.321   7.894 -2.3133 -0.9796  1.4193
  550MOL0     H74243   4.728   3.476   7.932 -0.2512  1.6105 -1.3749
  550MOL0     H74244   4.461   3.511   7.796 -0.3291 -1.5212 -2.4312
  550MOL0     H74245   4.603   3.466   7.701  0.3573 -0.8924  0.6726
  550MOL0     H74246   4.603   3.710   7.895  1.8297  5.6934 -1.1033
  550MOL0     H74247   4.539   3.719   7.727  0.7265  0.8079  0.4558
  550MOL0     H74248   4.957   3.742   7.699  1.8325 -2.9402  2.6961
  550MOL0     H74249   4.221   3.222   7.946  2.3782 -0.0473  2.2470
  550MOL0     H74250   3.980   3.325   7.942 -1.9468  0.4456  0.0454
  551MOL0     O74251   6.041   1.936   3.844  0.2326 -0.2169 -0.6633
  551MOL0     C74252   6.101   1.909   3.741 -0.3212 -0.6541 -1.0096
  551MOL0     O74253   6.043   1.910   3.616  0.4124 -0.5119  0.4749
  551MOL0     C74254   5.909   1.946   3.599 -0.5726  0.2206 -0.0915
  551MOL0     C74255   5.808   1.844   3.603  0.3857  0.3819  0.3681
  551MOL0     C74256   5.678   1.880   3.576  0.0100  0.0436  0.1248
  551MOL0     C74257   5.641   2.015   3.570 -0.3135 -0.0733 -0.0269
  551MOL0     O74258   5.505   2.033   3.558 -0.9491  0.0408  0.1654
  551MOL0     C74259   5.456   2.163   3.578  0.3166  0.0213  1.0956
  551MOL0     C74260   5.310   2.187   3.576 -0.5369 -0.0356  0.1688
  551MOL0     C74261   5.251   2.125   3.449 -0.0396 -0.4822  0.0661
  551MOL0     C74262   5.097   2.100   3.469 -0.5464  0.3543  0.0696
  551MOL0     C74263   5.010   2.229   3.487  0.0370 -0.5036 -0.5475
  551MOL0     C74264   4.861   2.213   3.438 -0.4533 -0.0686  0.2128
  551MOL0     C74265   4.759   2.329   3.443  0.1259  0.1447 -0.8342
  551MOL0     C74266   4.613   2.288   3.473  0.0931 -0.8040 -0.5340
  551MOL0     N74267   4.519   2.395   3.444 -0.2672 -1.4654 -0.5238
  551MOL0     C74268   4.412   2.377   3.354  0.5833 -0.5752 -0.3769
  551MOL0     C74269   4.347   2.494   3.352  0.9218 -0.7747 -0.5214
  551MOL0     C74270   4.222   2.535   3.281 -0.1207  0.0596  0.5511
  551MOL0     C74271   4.226   2.554   3.126  0.4952 -0.0061 -0.7465
  551MOL0     C74272   4.308   2.678   3.100  0.0589 -0.4445 -0.1345
  551MOL0     C74273   4.318   2.723   2.946  0.3513 -0.1663  0.4344
  551MOL0     O74274   4.439   2.653   2.894  0.2564  0.3352 -0.0941
  551MOL0     C74275   4.564   2.706   2.927  0.3951  0.8455 -0.0442
  551MOL0     C74276   4.584   2.818   3.000  1.0297  0.6755 -0.7385
  551MOL0     C74277   4.713   2.875   3.031  0.0359  1.3377  0.2968
  551MOL0     C74278   4.716   3.001   3.103  0.1816  0.9264 -0.1051
  551MOL0     C74279   4.823   2.802   2.983 -0.1338 -0.2621 -0.4634
  551MOL0     C74280   4.967   2.856   2.998 -0.6524  0.5244  0.5070
  551MOL0     O74281   5.067   2.788   2.934  0.2373 -0.3817  0.2012
  551MOL0     C74282   5.203   2.805   2.968  0.8430 -0.6412  0.5466
  551MOL0     C74283   5.249   2.842   3.095  0.1221 -0.9868  0.1344
  551MOL0     C74284   5.388   2.852   3.117  0.1441 -0.9570  0.0392
  551MOL0     C74285   5.481   2.847   3.015 -0.2861 -0.4347  0.0245
  551MOL0     O74286   5.615   2.873   3.053  0.7026 -0.3444  1.0438
  551MOL0     C74287   5.685   2.764   3.114  0.7788 -0.5348  0.4062
  551MOL0     C74288   5.823   2.811   3.096 -0.8632 -0.0203 -0.3066
  551MOL0     C74289   5.919   2.710   3.156  0.3356  0.5911  0.1042
  551MOL0     C74290   6.062   2.772   3.174 -0.0316  0.5425 -0.4704
  551MOL0     C74291   6.157   2.670   3.239 -0.1969 -0.3221 -1.1792
  551MOL0     C74292   6.291   2.736   3.277  0.2326  0.7113  0.5013
  551MOL0     C74293   6.381   2.639   3.351  0.6064 -0.4014 -0.4904
  551MOL0     C74294   6.520   2.690   3.367 -0.1248  0.0641  0.1922
  551MOL0    Cl74295   6.627   2.581   3.456  0.2070 -0.0231  0.0018
  551MOL0     C74296   5.435   2.824   2.890  0.5582  0.6628 -0.2043
  551MOL0     C74297   5.303   2.801   2.868 -0.3354  0.4167  0.1972
  551MOL0     O74298   4.975   2.963   3.050 -0.7678 -0.1265  0.0299
  551MOL0     C74299   4.806   2.686   2.914  0.2584  0.4762 -1.0441
  551MOL0     C74300   4.672   2.643   2.876 -0.1334 -0.2214 -0.0043
  551MOL0     N74301   4.404   2.579   3.447 -0.7874  1.1275  0.9663
  551MOL0     N74302   4.501   2.515   3.511 -0.4835  0.1662  0.1343
  551MOL0     C74303   5.743   2.115   3.559  0.1273  0.1476  0.7459
  551MOL0     C74304   5.880   2.083   3.560 -0.7992 -0.3725 -0.7114
  551MOL0     C74305   6.237   1.852   3.752  0.2182  0.0833 -0.5058
  551MOL0     C74306   6.295   1.823   3.881  0.3522 -0.1125  0.9092
  551MOL0     C74307   6.410   1.757   3.892  0.0741 -1.1626 -0.0489
  551MOL0     C74308   6.493   1.738   3.777 -0.0047 -0.6445  0.2012
  551MOL0     O74309   6.609   1.677   3.772 -0.8047 -0.4572 -0.1845
  551MOL0     C74310   6.685   1.632   3.883 -0.3447  0.3178  0.5982
  551MOL0     C74311   6.752   1.754   3.958  0.8922 -0.0445 -0.2164
  551MOL0     C74312   6.842   1.835   3.863 -0.0766  0.6768  0.4414
  551MOL0     C74313   6.974   1.888   3.932 -0.4293  0.0007 -0.6275
  551MOL0     C74314   7.063   1.778   3.982 -0.0561  0.2419  0.2325
  551MOL0     C74315   7.138   1.691   4.032  0.7715  0.4949  0.6058
  551MOL0     C74316   6.448   1.785   3.647  0.2588  0.4513 -0.3602
  551MOL0     C74317   6.316   1.831   3.643  0.8462  0.4136 -0.3664
  551MOL0     H74318   5.831   1.742   3.635 -1.3594 -0.1858 -0.0836
  551MOL0     H74319   5.600   1.806   3.587  0.4485 -1.4305 -4.6540
  551MOL0     H74320   5.492   2.209   3.670  3.0095 -0.8717  0.6069
  551MOL0     H74321   5.504   2.222   3.499  2.4262  0.0889  2.3339
  551MOL0     H74322   5.255   2.155   3.665 -0.3280 -1.3542 -0.1514
  551MOL0     H74323   5.294   2.295   3.569 -1.8419  0.2910  4.6616
  551MOL0     H74324   5.254   2.201   3.371  0.8447 -2.2003 -1.6588
  551MOL0     H74325   5.303   2.032   3.422 -1.2349 -1.4851  1.0488
  551MOL0     H74326   5.057   2.040   3.387 -1.0025 -0.5584  0.9340
  551MOL0     H74327   5.087   2.047   3.564  3.0548  0.8836  0.8848
  551MOL0     H74328   5.024   2.272   3.587  1.4325  2.2862 -1.8391
  551MOL0     H74329   5.047   2.310   3.424 -0.7536 -0.1598 -0.5812
  551MOL0     H74330   4.861   2.186   3.332  5.4821 -0.4366 -0.0376
  551MOL0     H74331   4.822   2.134   3.503 -0.0861 -0.1216  0.3694
  551MOL0     H74332   4.792   2.389   3.529  2.6266 -0.7731 -1.0660
  551MOL0     H74333   4.765   2.391   3.353  0.5776 -0.1497 -1.0068
  551MOL0     H74334   4.599   2.251   3.575  5.6817 -2.0283  0.1327
  551MOL0     H74335   4.580   2.204   3.411 -0.3403 -2.0252  1.2635
  551MOL0     H74336   4.396   2.291   3.291  1.0745 -1.0637  0.1508
  551MOL0     H74337   4.148   2.456   3.296  1.4012 -1.4287  0.5400
  551MOL0     H74338   4.188   2.626   3.331 -3.7769 -2.1100  2.4511
  551MOL0     H74339   4.126   2.569   3.086 -0.1389 -0.1021  0.7455
  551MOL0     H74340   4.261   2.464   3.075  0.2250 -1.0154  0.7845
  551MOL0     H74341   4.408   2.654   3.136  1.3306  1.3507 -2.2299
  551MOL0     H74342   4.266   2.756   3.165  0.0789 -0.6531  0.1320
  551MOL0     H74343   4.328   2.832   2.942 -2.5742  0.2986  2.3737
  551MOL0     H74344   4.234   2.691   2.883  0.7833  1.1677 -0.8856
  551MOL0     H74345   4.497   2.864   3.045  0.0746  1.2524 -3.0113
  551MOL0     H74346   4.793   3.006   3.180  0.4747  3.6074 -0.4694
  551MOL0     H74347   4.734   3.081   3.031  1.0516 -0.1227 -1.0875
  551MOL0     H74348   4.619   3.026   3.147 -2.6367 -0.5016 -4.7648
  551MOL0     H74349   5.173   2.846   3.172 -0.7962 -1.9705 -0.6644
  551MOL0     H74350   5.428   2.866   3.217  3.1292 -1.0956 -1.0235
  551MOL0     H74351   5.658   2.754   3.220 -1.5545  1.2923  0.0591
  551MOL0     H74352   5.665   2.682   3.045  0.1657 -1.3723  1.5376
  551MOL0     H74353   5.847   2.806   2.989  2.0682  0.2173  0.2601
  551MOL0     H74354   5.833   2.909   3.142 -2.9140 -0.2279  0.6931
  551MOL0     H74355   5.928   2.614   3.105 -1.1209  0.7779 -0.5354
  551MOL0     H74356   5.893   2.691   3.261 -1.7066  0.2128 -0.4374
  551MOL0     H74357   6.105   2.805   3.078 -0.5089  2.9668  0.0734
  551MOL0     H74358   6.053   2.870   3.222 -0.2624 -0.0378  0.6885
  551MOL0     H74359   6.180   2.582   3.179  2.1237  0.3248 -1.3314
  551MOL0     H74360   6.113   2.633   3.332  1.5688 -3.6429 -1.4989
  551MOL0     H74361   6.351   2.759   3.189 -1.6110  0.5369 -0.8417
  551MOL0     H74362   6.276   2.827   3.337 -1.1775  0.3974  0.6475
  551MOL0     H74363   6.385   2.545   3.294 -1.3512 -2.4804  2.4762
  551MOL0     H74364   6.340   2.615   3.450  0.9393  0.5700 -0.1095
  551MOL0     H74365   6.515   2.782   3.426 -0.5137  0.5244 -0.5365
  551MOL0     H74366   6.557   2.712   3.266 -1.4925  1.6842 -0.0059
  551MOL0     H74367   5.512   2.826   2.813 -0.6531  1.2918 -1.4364
  551MOL0     H74368   5.272   2.771   2.769 -2.9303 -0.0944  1.0695
  551MOL0     H74369   4.894   2.637   2.873  0.7275  3.3457 -3.9246
  551MOL0     H74370   4.661   2.552   2.818  0.1065 -0.2264 -0.0445
  551MOL0     H74371   5.713   2.218   3.544  3.0075  1.1601  1.2776
  551MOL0     H74372   5.956   2.158   3.544  1.2473 -2.1972 -0.0322
  551MOL0     H74373   6.249   1.857   3.973 -0.5040  2.0526 -0.2458
  551MOL0     H74374   6.461   1.748   3.987 -0.9788  0.4702  0.7018
  551MOL0     H74375   6.636   1.570   3.959  1.0058 -0.4763  0.8628
  551MOL0     H74376   6.761   1.564   3.841 -1.6496 -0.7808 -0.0560
  551MOL0     H74377   6.812   1.722   4.043  0.8635  0.7434  0.1070
  551MOL0     H74378   6.671   1.814   4.000  2.0783  0.6595  1.1289
  551MOL0     H74379   6.781   1.919   3.829 -2.0522  0.7376  3.7068
  551MOL0     H74380   6.865   1.773   3.776  2.4493 -0.1301  1.6109
  551MOL0     H74381   6.948   1.943   4.023 -2.1348 -0.1380 -0.9963
  551MOL0     H74382   7.031   1.955   3.866  1.6526  1.5814  2.4981
  551MOL0     H74383   7.200   1.617   4.079 -2.9680 -1.8876  2.3286
  551MOL0     H74384   6.496   1.775   3.550 -0.9882  1.6359 -1.1204
  551MOL0     H74385   6.291   1.846   3.538  0.3141 -1.5370 -0.5698
  552MOL0     O74386  10.992   3.703   2.178  0.5342  0.0291 -0.5422
  552MOL0     C74387  11.043   3.729   2.071 -0.1786  0.6145 -0.0857
  552MOL0     O74388  10.974   3.776   1.963 -1.0098 -0.3300  0.8446
  552MOL0     C74389  10.849   3.820   1.981 -0.3012 -0.4610 -0.2588
  552MOL0     C74390  10.808   3.947   1.929 -0.2002 -0.1840  1.3364
  552MOL0     C74391  10.675   3.991   1.935 -0.5689  0.0795 -0.2026
  552MOL0     C74392  10.582   3.917   2.006 -0.0008  0.1862  0.1510
  552MOL0     O74393  10.458   3.974   2.033 -0.6133 -0.5066  0.1677
  552MOL0     C74394  10.365   3.914   2.126  0.2075  0.5635 -0.2802
  552MOL0     C74395  10.269   4.024   2.165  1.1757 -0.4620  0.2910
  552MOL0     C74396  10.330   4.161   2.175 -0.7173 -0.5294  0.0885
  552MOL0     C74397  10.228   4.272   2.200 -0.1658 -0.2542 -0.5337
  552MOL0     C74398  10.273   4.419   2.186 -0.3724  0.9653  1.3365
  552MOL0     C74399  10.418   4.449   2.213 -0.1398  0.5897  0.3702
  552MOL0     C74400  10.463   4.447   2.359  0.2739  0.0117  0.1380
  552MOL0     C74401  10.604   4.482   2.373 -1.2342  0.0770  0.6414
  552MOL0     N74402  10.681   4.374   2.302 -0.1035  0.0468  0.7247
  552MOL0     C74403  10.700   4.246   2.357  0.7202 -0.4269  0.0890
  552MOL0     C74404  10.798   4.189   2.280 -0.6538 -0.4769  0.5188
  552MOL0     C74405  10.866   4.063   2.296 -0.7053  0.4710  0.0567
  552MOL0     C74406  10.910   4.053   2.449  0.3174  1.2878 -0.0742
  552MOL0     C74407  10.981   3.921   2.474 -0.1724  0.2363 -0.4275
  552MOL0     C74408  10.983   3.901   2.623 -0.3294  0.4655  0.0155
  552MOL0     O74409  11.010   3.766   2.663 -0.5497  0.6726  0.5471
  552MOL0     C74410  11.142   3.730   2.660 -1.1293  0.3576 -0.6479
  552MOL0     C74411  11.248   3.807   2.713  0.2404  0.1928  0.2769
  552MOL0     C74412  11.372   3.775   2.740 -0.3378 -0.5513 -0.6120
  552MOL0     C74413  11.466   3.878   2.806  0.3635  0.6798  0.4695
  552MOL0     C74414  11.411   3.636   2.707 -0.3373  0.4584  0.1837
  552MOL0     C74415  11.547   3.582   2.727 -0.4188  0.7977 -0.0724
  552MOL0     O74416  11.600   3.501   2.632 -0.6178  0.5342  0.0691
  552MOL0     C74417  11.726   3.447   2.642  0.3816  0.7568 -0.2031
  552MOL0     C74418  11.848   3.522   2.631 -0.2610  1.0149 -0.0310
  552MOL0     C74419  11.975   3.456   2.646 -0.5155 -0.0571 -0.1593
  552MOL0     C74420  11.976   3.320   2.668  0.4341  0.7911  0.3667
  552MOL0     O74421  12.101   3.270   2.669 -0.1807  0.5142 -0.0581
  552MOL0     C74422  12.112   3.130   2.700  0.4648 -0.7386  0.9880
  552MOL0     C74423  12.263   3.106   2.682 -0.1943  0.0660  0.3327
  552MOL0     C74424  12.288   2.963   2.708  0.2276  0.4741  0.8338
  552MOL0     C74425  12.436   2.930   2.707  0.4030  0.0606 -0.1567
  552MOL0     C74426  12.504   2.976   2.572 -0.9809  0.8939  0.8832
  552MOL0     C74427  12.624   2.901   2.530 -0.4363 -0.2529  0.0691
  552MOL0     C74428  12.739   2.935   2.641 -0.4343  0.7075 -0.1824
  552MOL0     C74429  12.877   2.881   2.615 -0.7115  0.9001 -0.3514
  552MOL0    Cl74430  12.894   2.721   2.542 -0.7125 -0.3752 -0.3157
  552MOL0     C74431  11.860   3.242   2.659  0.1439 -0.4057 -0.1129
  552MOL0     C74432  11.739   3.307   2.648  0.1989 -0.5457 -1.1310
  552MOL0     O74433  11.602   3.623   2.831  0.7048 -0.3013  0.5773
  552MOL0     C74434  11.306   3.552   2.653 -0.5822 -0.8080 -0.3960
  552MOL0     C74435  11.179   3.600   2.638 -0.3844 -0.0323  1.1285
  552MOL0     N74436  10.841   4.282   2.191 -0.3117  0.1108 -0.0854
  552MOL0     N74437  10.772   4.388   2.205 -0.5452 -0.3105 -0.7098
  552MOL0     C74438  10.618   3.787   2.057  1.2868 -0.2258  0.5359
  552MOL0     C74439  10.744   3.740   2.038 -0.5973  0.7252 -0.3750
  552MOL0     C74440  11.188   3.706   2.054 -0.2693 -0.4033  0.4655
  552MOL0     C74441  11.267   3.691   2.173  0.0289  0.9153  0.1715
  552MOL0     C74442  11.396   3.644   2.166 -0.7996 -0.0092 -0.0984
  552MOL0     C74443  11.462   3.629   2.040  0.0660  0.2923 -0.0842
  552MOL0     O74444  11.581   3.562   2.021  0.2635  0.7707  0.5137
  552MOL0     C74445  11.631   3.482   2.123 -0.4341  0.3277 -0.2631
  552MOL0     C74446  11.753   3.394   2.072  0.9685 -0.0221 -0.6827
  552MOL0     C74447  11.843   3.458   1.978  0.1338  0.0503 -0.0494
  552MOL0     C74448  11.987   3.392   1.981  0.6154  0.9007 -0.2270
  552MOL0     C74449  11.985   3.265   1.921 -0.8416 -0.2179 -0.6502
  552MOL0     C74450  11.959   3.161   1.873 -0.1753 -0.3118  0.5547
  552MOL0     C74451  11.385   3.657   1.928 -0.4535 -0.5911 -0.7092
  552MOL0     C74452  11.250   3.693   1.927 -0.3767 -0.4289 -0.7645
  552MOL0     H74453  10.886   4.005   1.879 -0.2665 -0.6262  0.7179
  552MOL0     H74454  10.648   4.090   1.901  0.2410  0.7182  0.9335
  552MOL0     H74455  10.317   3.828   2.079 -2.3098  1.7301  0.0209
  552MOL0     H74456  10.416   3.879   2.216  0.4392 -0.7764 -0.8998
  552MOL0     H74457  10.186   4.015   2.095  0.0497 -0.6605  1.6076
  552MOL0     H74458  10.234   3.996   2.265  1.9374 -0.5696  0.5342
  552MOL0     H74459  10.405   4.164   2.254 -0.2102 -0.5095 -0.3878
  552MOL0     H74460  10.378   4.186   2.080 -0.1992 -3.9326 -0.6604
  552MOL0     H74461  10.134   4.248   2.149 -0.8242  0.1275  0.4663
  552MOL0     H74462  10.198   4.261   2.304 -0.6147 -1.1247 -0.7476
  552MOL0     H74463  10.273   4.450   2.081 -1.6007 -0.4313  0.8929
  552MOL0     H74464  10.201   4.487   2.234 -0.5633  1.3338  0.5426
  552MOL0     H74465  10.474   4.381   2.147  1.0509  0.5199  1.4212
  552MOL0     H74466  10.439   4.547   2.168 -0.8177 -0.0157 -1.3530
  552MOL0     H74467  10.403   4.521   2.413  0.4030 -1.4907  2.4615
  552MOL0     H74468  10.441   4.353   2.410 -1.7800 -0.3078 -1.2037
  552MOL0     H74469  10.646   4.496   2.473  2.4257 -1.8735 -0.4567
  552MOL0     H74470  10.608   4.576   2.317 -1.7425  0.5011  1.2913
  552MOL0     H74471  10.643   4.191   2.431 -1.7081  0.4176 -1.0261
  552MOL0     H74472  10.797   3.980   2.277  1.1560 -1.3518  0.8718
  552MOL0     H74473  10.954   4.072   2.233  0.7255 -0.4106  1.8287
  552MOL0     H74474  10.817   4.066   2.505 -1.4048  2.8441 -3.0160
  552MOL0     H74475  10.978   4.136   2.470  1.7387  0.3438 -0.7972
  552MOL0     H74476  11.080   3.941   2.430 -0.6495 -1.8798 -2.7052
  552MOL0     H74477  10.931   3.839   2.421 -1.2018 -1.3655  2.7913
  552MOL0     H74478  10.884   3.907   2.671 -0.0742  0.9249  0.4976
  552MOL0     H74479  11.038   3.969   2.689 -0.3504 -0.0702  0.5937
  552MOL0     H74480  11.214   3.903   2.751 -1.7375  1.3796 -3.9693
  552MOL0     H74481  11.570   3.863   2.776  0.3525  0.9993  0.2637
  552MOL0     H74482  11.429   3.978   2.782 -1.8207 -0.0204  0.6936
  552MOL0     H74483  11.461   3.864   2.915 -1.7740 -1.6260  0.1854
  552MOL0     H74484  11.851   3.628   2.611 -2.3316  0.7812 -2.0216
  552MOL0     H74485  12.065   3.516   2.651  1.1184 -2.1251 -2.5000
  552MOL0     H74486  12.079   3.123   2.804  0.6770  3.4509  1.5268
  552MOL0     H74487  12.056   3.058   2.639  0.5841 -0.6492  0.7688
  552MOL0     H74488  12.294   3.128   2.580 -3.4045  0.3362 -0.7201
  552MOL0     H74489  12.317   3.168   2.754  1.6496 -1.1489  0.0440
  552MOL0     H74490  12.240   2.896   2.636  1.8120  0.2513 -0.0585
  552MOL0     H74491  12.254   2.953   2.811  2.2104  0.3100  1.5102
  552MOL0     H74492  12.475   2.972   2.800 -3.5347 -0.8315  2.1436
  552MOL0     H74493  12.438   2.821   2.717 -1.7669 -0.2829 -2.3951
  552MOL0     H74494  12.524   3.083   2.582  0.6048  0.9059 -1.5373
  552MOL0     H74495  12.437   2.947   2.490  1.4646  0.1448 -1.0007
  552MOL0     H74496  12.609   2.792   2.527 -2.3761 -0.1202  2.0175
  552MOL0     H74497  12.654   2.926   2.428  2.2497 -0.2169  0.7829
  552MOL0     H74498  12.710   2.900   2.741  1.6768  0.2672  0.3251
  552MOL0     H74499  12.755   3.043   2.648  0.7688  0.5854 -0.7227
  552MOL0     H74500  12.941   2.874   2.704  1.4389  0.6973 -1.8566
  552MOL0     H74501  12.922   2.955   2.549  1.4441  1.5195  1.6672
  552MOL0     H74502  11.858   3.133   2.662  1.3456 -0.4880 -1.3895
  552MOL0     H74503  11.646   3.251   2.648 -0.0134 -0.2156 -2.1076
  552MOL0     H74504  11.323   3.447   2.633  1.4488 -0.3651 -1.3097
  552MOL0     H74505  11.100   3.526   2.633  1.6333 -2.3251  1.4549
  552MOL0     H74506  10.544   3.732   2.115 -0.5616  0.9570 -0.6178
  552MOL0     H74507  10.772   3.642   2.076  0.9978  0.9251 -0.9334
  552MOL0     H74508  11.232   3.703   2.275  0.1044  1.3267  0.1501
  552MOL0     H74509  11.448   3.623   2.259 -1.7721  0.5503  0.5930
  552MOL0     H74510  11.661   3.556   2.198 -0.8844  1.0906 -0.8137
  552MOL0     H74511  11.549   3.418   2.156 -0.8311  1.0135  0.1299
  552MOL0     H74512  11.715   3.303   2.024 -0.6601  0.4748 -0.4032
  552MOL0     H74513  11.805   3.353   2.159 -1.1288  0.6939  1.0113
  552MOL0     H74514  11.846   3.565   2.001 -0.4581  0.4786 -1.8173
  552MOL0     H74515  11.825   3.449   1.871  3.1920 -1.3332 -0.5685
  552MOL0     H74516  12.016   3.395   2.086 -0.5507  1.3878  0.0975
  552MOL0     H74517  12.063   3.452   1.930 -1.2885  1.7470 -2.2383
  552MOL0     H74518  11.952   3.064   1.828  1.0811 -0.7462  1.2589
  552MOL0     H74519  11.423   3.638   1.828  1.0632  0.7210 -0.4016
  552MOL0     H74520  11.190   3.706   1.838 -1.8040 -2.9473 -0.2714
  553MOL0     O74521   5.640   5.958   7.252  0.4216  0.0039  0.2891
  553MOL0     C74522   5.741   5.894   7.263  0.5982  0.3800 -0.1428
  553MOL0     O74523   5.749   5.758   7.282 -0.9957  0.1900 -0.2270
  553MOL0     C74524   5.642   5.677   7.255  0.8678 -0.0522  0.3570
  553MOL0     C74525   5.684   5.542   7.228  0.2024  0.1155 -0.6834
  553MOL0     C74526   5.594   5.440   7.194  0.7333  0.4305  0.0812
  553MOL0     C74527   5.463   5.472   7.184  0.2592  0.0350  0.1355
  553MOL0     O74528   5.365   5.374   7.157  0.0657  0.5131  0.0246
  553MOL0     C74529   5.383   5.280   7.045  0.2122 -0.1719  0.0897
  553MOL0     C74530   5.246   5.208   7.010 -0.8553 -0.3573  0.1901
  553MOL0     C74531   5.142   5.304   6.950 -0.6640 -0.6670  0.1847
  553MOL0     C74532   5.005   5.252   6.987  0.3808  0.2040 -1.1358
  553MOL0     C74533   4.884   5.326   6.922  0.0360  0.4335  0.4802
  553MOL0     C74534   4.887   5.343   6.768  0.1419  0.6013  0.1175
  553MOL0     C74535   4.749   5.379   6.718 -0.2222 -0.0121  0.2704
  553MOL0     C74536   4.755   5.378   6.565  0.5045 -0.3739 -0.4168
  553MOL0     N74537   4.621   5.417   6.519 -0.3261 -0.1845  0.4133
  553MOL0     C74538   4.503   5.344   6.518 -0.3638  0.0605  0.5215
  553MOL0     C74539   4.417   5.416   6.438 -0.1274  0.4594  0.0398
  553MOL0     C74540   4.268   5.382   6.399  0.2275 -0.0833 -0.3930
  553MOL0     C74541   4.255   5.302   6.269  0.0682 -0.5414 -0.4099
  553MOL0     C74542   4.123   5.357   6.204 -0.3667  0.0318  0.7101
  553MOL0     C74543   4.068   5.257   6.104  0.5311  0.8545 -0.4012
  553MOL0     O74544   3.956   5.313   6.029  0.2945  0.4854  0.1238
  553MOL0     C74545   3.843   5.343   6.099  0.5111 -0.0212 -0.1442
  553MOL0     C74546   3.756   5.254   6.155  0.5494  0.0101 -0.9234
  553MOL0     C74547   3.633   5.297   6.213  0.5292 -0.5917  1.0533
  553MOL0     C74548   3.544   5.194   6.276 -0.0459  0.1154  0.4733
  553MOL0     C74549   3.602   5.435   6.208  0.5998 -0.1975 -0.9508
  553MOL0     C74550   3.465   5.493   6.262  0.0898  0.8150 -0.5287
  553MOL0     O74551   3.467   5.614   6.308 -0.5615 -0.1492 -0.3926
  553MOL0     C74552   3.350   5.690   6.329 -0.3662  0.2311 -0.7394
  553MOL0     C74553   3.290   5.747   6.222  0.7037 -0.3006 -0.1508
  553MOL0     C74554   3.171   5.812   6.237 -0.0202 -0.5877 -0.5433
  553MOL0     C74555   3.098   5.816   6.363 -0.8900 -0.4571 -0.6741
  553MOL0     O74556   2.976   5.875   6.385  0.3056  0.1130 -0.3078
  553MOL0     C74557   2.907   5.927   6.274  0.1271  0.7623 -0.2706
  553MOL0     C74558   2.771   5.973   6.315  0.2862  0.5872 -0.4943
  553MOL0     C74559   2.700   6.030   6.187  0.0232  0.3028 -0.0731
  553MOL0     C74560   2.568   6.079   6.229 -1.1350 -0.3819  0.3424
  553MOL0     C74561   2.483   6.095   6.102  0.6665 -0.5168 -0.1497
  553MOL0     C74562   2.338   6.144   6.128  0.3808  0.0725 -0.4311
  553MOL0     C74563   2.275   6.155   5.984  0.1246  0.3863  0.1229
  553MOL0     C74564   2.139   6.216   5.985 -1.1903 -0.1832  0.1686
  553MOL0    Cl74565   2.023   6.103   6.055  0.5291 -1.0556  0.3006
  553MOL0     C74566   3.168   5.759   6.478  0.6699 -0.3809 -0.3162
  553MOL0     C74567   3.295   5.701   6.456  1.1624  0.1683 -0.1821
  553MOL0     O74568   3.365   5.430   6.252  0.2859  0.0040 -0.3490
  553MOL0     C74569   3.696   5.530   6.154  0.4224  0.0570 -0.0679
  553MOL0     C74570   3.817   5.481   6.098  0.0802 -0.1590 -0.0784
  553MOL0     N74571   4.484   5.533   6.402 -0.2458  0.0251  0.3799
  553MOL0     N74572   4.599   5.536   6.451 -0.4890  0.0772 -0.1528
  553MOL0     C74573   5.411   5.598   7.214  0.4128 -0.1366 -0.4365
  553MOL0     C74574   5.497   5.705   7.250  0.3084  0.2837 -0.0787
  553MOL0     C74575   5.864   5.965   7.299 -0.2881 -0.9960 -0.6207
  553MOL0     C74576   5.874   6.098   7.259  0.4992 -0.3356  0.6053
  553MOL0     C74577   5.989   6.182   7.290  0.4755 -0.4956 -0.6587
  553MOL0     C74578   6.093   6.124   7.357 -0.2294  0.3052 -0.9030
  553MOL0     O74579   6.194   6.209   7.380 -0.5398 -0.4475  0.5853
  553MOL0     C74580   6.308   6.169   7.306 -0.5420  0.4209  0.6966
  553MOL0     C74581   6.418   6.249   7.363 -0.1707 -0.8041  0.4158
  553MOL0     C74582   6.460   6.187   7.503  0.2756  0.4945  0.2148
  553MOL0     C74583   6.556   6.285   7.570 -0.0153 -0.8296  0.5586
  553MOL0     C74584   6.635   6.216   7.679  0.0756  0.0574  0.2253
  553MOL0     C74585   6.698   6.151   7.768 -0.5609  0.5219 -0.0096
  553MOL0     C74586   6.082   5.991   7.405  0.2251 -1.3536 -0.1264
  553MOL0     C74587   5.962   5.916   7.376 -0.5769 -0.1523  0.6327
  553MOL0     H74588   5.790   5.523   7.242  0.4341  2.5277  1.6545
  553MOL0     H74589   5.622   5.338   7.173 -2.3158 -0.2112 -1.6264
  553MOL0     H74590   5.416   5.327   6.952 -3.1025 -1.0604 -1.7161
  553MOL0     H74591   5.456   5.206   7.078  1.2120  0.5163 -0.5142
  553MOL0     H74592   5.273   5.126   6.943 -2.5614 -1.7049  1.0722
  553MOL0     H74593   5.202   5.169   7.101 -3.4579  1.1721 -0.3167
  553MOL0     H74594   5.148   5.402   6.998 -1.5667 -1.8918  3.0398
  553MOL0     H74595   5.151   5.312   6.841  1.3969  0.4145  0.3990
  553MOL0     H74596   5.000   5.152   6.941  2.7958 -0.2955 -0.4394
  553MOL0     H74597   4.988   5.237   7.094 -0.2322  0.4230 -1.1987
  553MOL0     H74598   4.792   5.272   6.947 -0.9321  1.7057 -0.1663
  553MOL0     H74599   4.882   5.427   6.966 -0.1339  1.9954 -2.7812
  553MOL0     H74600   4.965   5.413   6.735 -0.1176  0.8378  0.0008
  553MOL0     H74601   4.915   5.248   6.722 -2.2062 -1.0142  1.8145
  553MOL0     H74602   4.675   5.302   6.745 -0.5453 -0.5927 -2.1016
  553MOL0     H74603   4.719   5.477   6.755  0.3950  0.1956  0.2220
  553MOL0     H74604   4.768   5.274   6.536 -0.5752 -0.4404 -0.7160
  553MOL0     H74605   4.831   5.446   6.526 -0.5313 -0.1386 -2.1084
  553MOL0     H74606   4.484   5.251   6.570  0.7967 -0.6782 -0.3528
  553MOL0     H74607   4.230   5.332   6.489 -0.9789  0.7278 -0.4331
  553MOL0     H74608   4.221   5.479   6.382  1.8295  0.8181  0.0652
  553MOL0     H74609   4.256   5.194   6.282 -1.8513 -0.3474  2.2570
  553MOL0     H74610   4.344   5.328   6.211 -1.8189  4.5237 -1.6231
  553MOL0     H74611   4.147   5.455   6.160 -2.1799  0.0297 -0.4353
  553MOL0     H74612   4.041   5.379   6.273 -1.3135  1.9011 -0.8719
  553MOL0     H74613   4.031   5.172   6.161 -0.5450  0.8967 -1.0168
  553MOL0     H74614   4.146   5.224   6.034 -1.5256  0.2096 -2.5335
  553MOL0     H74615   3.790   5.151   6.158 -0.2020 -0.2427 -0.9315
  553MOL0     H74616   3.607   5.119   6.324  1.1029 -0.2023 -1.4001
  553MOL0     H74617   3.480   5.241   6.351 -2.8442 -0.9258 -1.0981
  553MOL0     H74618   3.477   5.145   6.204 -1.5523  1.9249  0.5552
  553MOL0     H74619   3.333   5.741   6.123  1.4692 -0.8442  0.2107
  553MOL0     H74620   3.129   5.849   6.143  1.2517  1.1759 -0.4641
  553MOL0     H74621   2.967   6.008   6.230  1.2879 -0.1637 -0.4322
  553MOL0     H74622   2.894   5.848   6.200 -2.5147 -0.1002  0.9981
  553MOL0     H74623   2.727   5.886   6.365  1.3536  0.8048  0.8968
  553MOL0     H74624   2.789   6.056   6.384  2.5273  0.3894 -0.7626
  553MOL0     H74625   2.679   5.954   6.112  1.8790 -0.5016  0.1645
  553MOL0     H74626   2.768   6.106   6.147 -0.1427  0.9489  0.8360
  553MOL0     H74627   2.523   6.000   6.290  1.6667 -0.2167  2.8340
  553MOL0     H74628   2.565   6.169   6.292  0.3709  1.0977 -1.5689
  553MOL0     H74629   2.478   5.993   6.063  2.4820 -1.8060  2.6538
  553MOL0     H74630   2.528   6.166   6.032 -1.5880  0.2056 -0.9428
  553MOL0     H74631   2.293   6.067   6.191  1.9595 -0.9722 -0.5165
  553MOL0     H74632   2.334   6.242   6.177  0.9196  0.7607 -1.7106
  553MOL0     H74633   2.287   6.060   5.932  1.5008 -1.7535  4.0221
  553MOL0     H74634   2.335   6.222   5.921 -0.9240  0.9411 -0.3026
  553MOL0     H74635   2.107   6.234   5.882  2.4414  1.0437 -0.9063
  553MOL0     H74636   2.121   6.311   6.035 -0.3963  0.4755 -0.7684
  553MOL0     H74637   3.124   5.767   6.577  0.2854  0.7482 -0.5643
  553MOL0     H74638   3.348   5.650   6.535  1.7378  0.1873 -0.5475
  553MOL0     H74639   3.666   5.634   6.143 -1.0549 -0.4903 -1.6676
  553MOL0     H74640   3.894   5.549   6.064  1.6294 -1.3417  0.9396
  553MOL0     H74641   5.303   5.605   7.209  0.1491 -1.7718  1.6761
  553MOL0     H74642   5.461   5.804   7.274  3.2302  1.5712 -0.6399
  553MOL0     H74643   5.794   6.138   7.199  0.5360 -1.6716 -0.3800
  553MOL0     H74644   6.002   6.288   7.270  2.4546 -0.3773  0.8835
  553MOL0     H74645   6.328   6.061   7.307 -1.4175  0.2493  2.2079
  553MOL0     H74646   6.299   6.185   7.198 -0.9144 -0.3029  0.6174
  553MOL0     H74647   6.378   6.350   7.370 -1.6168 -1.2539 -0.7026
  553MOL0     H74648   6.502   6.251   7.292 -0.0228  0.9453  0.5981
  553MOL0     H74649   6.507   6.089   7.502  0.1042  0.4160 -0.5769
  553MOL0     H74650   6.371   6.167   7.564 -0.9401 -2.4566 -2.2526
  553MOL0     H74651   6.502   6.373   7.607 -2.8646 -3.4295  3.1976
  553MOL0     H74652   6.627   6.324   7.497 -1.7582 -0.4292 -0.9944
  553MOL0     H74653   6.748   6.085   7.836  2.6290 -0.0283 -2.5762
  553MOL0     H74654   6.159   5.949   7.469  0.2683  2.2586  2.5076
  553MOL0     H74655   5.951   5.812   7.403 -0.6099 -0.6168 -1.0593
  554MOL0     O74656   7.882   9.673   2.679 -0.1708  0.1827 -0.8143
  554MOL0     C74657   7.891   9.723   2.789  0.1482  0.2887  0.1724
  554MOL0     O74658   7.785   9.797   2.846  0.1331  0.1316 -0.2908
  554MOL0     C74659   7.664   9.826   2.780 -0.8462 -1.0453  0.4600
  554MOL0     C74660   7.580   9.723   2.740 -0.6786  0.1307  0.0233
  554MOL0     C74661   7.456   9.750   2.686  0.1540 -0.3411 -0.3290
  554MOL0     C74662   7.418   9.884   2.666  0.9860  0.2317  0.1719
  554MOL0     O74663   7.298   9.914   2.612 -0.5814  0.3135  0.5882
  554MOL0     C74664   7.187   9.895   2.696  0.2604 -0.0194 -0.1146
  554MOL0     C74665   7.068   9.954   2.622  0.2579 -0.6782  0.2491
  554MOL0     C74666   6.961   9.987   2.729  0.2539  0.0744  0.3293
  554MOL0     C74667   6.843  10.066   2.668  0.9230 -0.1214 -0.0942
  554MOL0     C74668   6.740  10.083   2.783  0.6668  0.2027 -0.9709
  554MOL0     C74669   6.604  10.139   2.751 -0.1960  0.6555  0.7045
  554MOL0     C74670   6.511  10.030   2.689  0.1862  0.0598  0.4035
  554MOL0     C74671   6.469   9.925   2.788  0.9085  0.1110  0.4844
  554MOL0     N74672   6.340   9.865   2.737 -0.6905 -0.2120  0.3525
  554MOL0     C74673   6.218   9.925   2.744 -0.1986 -0.0798 -0.5212
  554MOL0     C74674   6.129   9.823   2.736  0.7421  0.2318 -0.0823
  554MOL0     C74675   5.982   9.843   2.727 -0.1353  0.5643 -0.1384
  554MOL0     C74676   5.933   9.862   2.584  0.3183 -0.6390 -0.6772
  554MOL0     C74677   5.950   9.729   2.508 -0.6458  0.0640 -0.3262
  554MOL0     C74678   5.900   9.739   2.358 -0.0672  0.4800 -0.1415
  554MOL0     O74679   5.757   9.742   2.364  0.2292 -0.0071  0.2144
  554MOL0     C74680   5.692   9.746   2.251 -1.0344  0.0403  0.9215
  554MOL0     C74681   5.739   9.705   2.125  0.8732  0.5972 -0.5154
  554MOL0     C74682   5.669   9.718   2.005  0.6310 -0.5934 -0.3579
  554MOL0     C74683   5.745   9.689   1.886 -0.2397 -0.0990  0.5983
  554MOL0     C74684   5.526   9.742   2.006 -0.2032  0.8186  0.0277
  554MOL0     C74685   5.418   9.718   1.907  0.5901 -0.5210  0.2016
  554MOL0     O74686   5.283   9.738   1.938 -0.3522  0.2356  0.1444
  554MOL0     C74687   5.192   9.682   1.857 -1.0746  0.0836 -0.6490
  554MOL0     C74688   5.075   9.756   1.832 -0.1419 -1.4839 -0.1123
  554MOL0     C74689   4.969   9.695   1.767  0.0929  0.4510  0.0047
  554MOL0     C74690   4.973   9.562   1.724  0.7047  0.3468 -0.0034
  554MOL0     O74691   4.872   9.521   1.647  0.3046 -0.3481 -0.0824
  554MOL0     C74692   4.817   9.395   1.682  0.0723  0.2604 -0.2012
  554MOL0     C74693   4.717   9.357   1.569 -0.2941  0.7795 -0.5837
  554MOL0     C74694   4.616   9.257   1.625  0.6478 -0.0386 -0.4830
  554MOL0     C74695   4.468   9.285   1.570 -0.7129 -1.0258 -0.0398
  554MOL0     C74696   4.368   9.183   1.629 -0.1054 -0.0036  0.3636
  554MOL0     C74697   4.409   9.036   1.651  0.3489 -0.1683 -0.3112
  554MOL0     C74698   4.284   8.951   1.668 -0.2880  0.1499 -0.2908
  554MOL0     C74699   4.301   8.811   1.596 -0.4085 -0.1343 -0.3082
  554MOL0    Cl74700   4.442   8.716   1.652 -0.2259 -0.5378  0.1525
  554MOL0     C74701   5.093   9.491   1.751  0.4986 -0.2769  0.5487
  554MOL0     C74702   5.200   9.550   1.823 -1.0675 -0.0273  0.3921
  554MOL0     O74703   5.466   9.685   1.797  0.1536  0.1718  0.4696
  554MOL0     C74704   5.474   9.785   2.133  0.1970  0.9225 -1.4003
  554MOL0     C74705   5.561   9.793   2.248  0.2247 -0.6008  0.6341
  554MOL0     N74706   6.190   9.707   2.733 -0.1132  0.2159 -0.3130
  554MOL0     N74707   6.323   9.730   2.731 -0.4432 -0.9581 -0.1078
  554MOL0     C74708   7.493   9.991   2.717  0.1104  1.0249  1.1755
  554MOL0     C74709   7.626   9.962   2.758 -0.4023 -0.0415 -0.0071
  554MOL0     C74710   8.023   9.720   2.865 -0.3144  0.0793  1.0330
  554MOL0     C74711   8.044   9.794   2.981 -0.9301 -0.0978  1.0468
  554MOL0     C74712   8.164   9.793   3.043  0.3469 -0.2192  0.2902
  554MOL0     C74713   8.269   9.727   2.990 -0.4278 -0.2382 -0.9833
  554MOL0     O74714   8.384   9.735   3.071  0.2642  0.5045  0.3041
  554MOL0     C74715   8.507   9.746   2.994  0.0729  0.1008 -0.5628
  554MOL0     C74716   8.595   9.616   3.003 -0.4951  0.4373  0.3506
  554MOL0     C74717   8.734   9.614   2.932 -0.2588  0.1526  0.2022
  554MOL0     C74718   8.726   9.597   2.783  0.5202  0.4699  0.4133
  554MOL0     C74719   8.850   9.631   2.721 -0.0895  0.0533  0.0212
  554MOL0     C74720   8.952   9.650   2.657 -0.3112  0.5058  0.1108
  554MOL0     C74721   8.250   9.647   2.873 -0.6187 -0.8316 -0.0969
  554MOL0     C74722   8.131   9.647   2.809 -0.0323 -0.0722 -0.2497
  554MOL0     H74723   7.615   9.620   2.744 -2.1703 -0.3819  0.7584
  554MOL0     H74724   7.404   9.667   2.638  1.7165 -0.6376 -1.6214
  554MOL0     H74725   7.154   9.791   2.708 -3.5242  0.8147 -1.7458
  554MOL0     H74726   7.205   9.939   2.794  0.2482  3.3604 -1.4728
  554MOL0     H74727   7.103  10.049   2.580 -3.2654  0.7666  0.2297
  554MOL0     H74728   7.023   9.898   2.539 -1.6584  1.7683 -0.4789
  554MOL0     H74729   6.916   9.900   2.777  0.2459  2.0676  4.3491
  554MOL0     H74730   7.014  10.044   2.806 -1.6781 -0.7087  2.3469
  554MOL0     H74731   6.876  10.165   2.635 -1.5786  0.5754 -0.7998
  554MOL0     H74732   6.805  10.004   2.586  2.3960 -2.7253  1.0584
  554MOL0     H74733   6.717   9.989   2.833  0.2041  2.0151  2.5714
  554MOL0     H74734   6.785  10.145   2.862 -2.6656  0.4701  0.9332
  554MOL0     H74735   6.559  10.182   2.841  0.2636  0.7417  0.8992
  554MOL0     H74736   6.614  10.213   2.671  0.0975  1.1051  1.1528
  554MOL0     H74737   6.426  10.086   2.647  1.6154  2.8845  1.0511
  554MOL0     H74738   6.560   9.988   2.600  0.9502  2.5352 -0.4378
  554MOL0     H74739   6.452   9.968   2.887 -2.5507  1.0026 -0.3697
  554MOL0     H74740   6.549   9.850   2.789  0.5992 -0.2557 -0.7984
  554MOL0     H74741   6.187  10.025   2.773 -2.5416 -1.7716  3.8069
  554MOL0     H74742   5.926   9.759   2.768  0.2362  0.0128 -0.7467
  554MOL0     H74743   5.963   9.927   2.794 -0.2606  0.0629  0.4617
  554MOL0     H74744   5.982   9.946   2.533 -1.6506  3.5038  3.4666
  554MOL0     H74745   5.826   9.883   2.594  0.6693  0.9441  0.1648
  554MOL0     H74746   5.891   9.656   2.565  0.0513  0.1187  0.4889
  554MOL0     H74747   6.050   9.685   2.509 -0.9515 -0.7285 -1.7733
  554MOL0     H74748   5.937   9.658   2.296 -1.3307 -1.3336  1.3549
  554MOL0     H74749   5.928   9.836   2.316 -1.6640  0.8462 -0.4227
  554MOL0     H74750   5.840   9.668   2.113  0.2980 -1.1060 -0.2890
  554MOL0     H74751   5.847   9.728   1.894  0.5184 -2.2281  2.1542
  554MOL0     H74752   5.758   9.581   1.871  2.0764 -0.0291  1.7760
  554MOL0     H74753   5.701   9.732   1.795 -3.5936  0.7495  2.4696
  554MOL0     H74754   5.059   9.856   1.871 -0.4490  0.3936 -4.4305
  554MOL0     H74755   4.877   9.750   1.752  0.2492  1.1388  1.3827
  554MOL0     H74756   4.894   9.317   1.686  0.1317  0.3614  0.7157
  554MOL0     H74757   4.760   9.399   1.775  2.7344 -2.1908  1.7082
  554MOL0     H74758   4.678   9.448   1.523 -0.9490  0.7430 -0.1241
  554MOL0     H74759   4.761   9.299   1.487 -2.2842  0.0386 -1.1862
  554MOL0     H74760   4.617   9.257   1.734  4.4572 -2.4003 -0.3392
  554MOL0     H74761   4.649   9.159   1.590 -0.7917 -1.3132  1.5483
  554MOL0     H74762   4.437   9.388   1.589  1.8358 -0.3008  0.5460
  554MOL0     H74763   4.471   9.263   1.463  0.6420 -0.5216 -0.1309
  554MOL0     H74764   4.281   9.179   1.564 -0.2810 -0.9126  0.6361
  554MOL0     H74765   4.336   9.224   1.726  1.1433  4.1866 -0.7998
  554MOL0     H74766   4.459   8.999   1.561 -2.2405 -1.1446 -1.4453
  554MOL0     H74767   4.483   9.023   1.730 -0.4393  0.7446  0.6142
  554MOL0     H74768   4.193   8.994   1.626  0.0622  0.4313 -0.7626
  554MOL0     H74769   4.267   8.931   1.775  1.6243 -0.9913 -0.1670
  554MOL0     H74770   4.316   8.822   1.488  1.1481  0.9514 -0.0227
  554MOL0     H74771   4.207   8.760   1.619 -0.3619  0.1884  0.6620
  554MOL0     H74772   5.092   9.389   1.713  3.3824  0.5756 -2.2618
  554MOL0     H74773   5.285   9.484   1.836 -1.4990 -0.6921 -0.0990
  554MOL0     H74774   5.370   9.816   2.135 -0.1159  0.3113 -4.1372
  554MOL0     H74775   5.509   9.831   2.335 -0.7872 -2.0311  0.6859
  554MOL0     H74776   7.450  10.091   2.718 -3.2622 -0.2640 -0.1570
  554MOL0     H74777   7.691  10.044   2.787  0.9423 -1.1502  0.2667
  554MOL0     H74778   7.962   9.852   3.022  1.7154  4.5453  0.4688
  554MOL0     H74779   8.177   9.853   3.133 -0.5869  1.8867 -0.9262
  554MOL0     H74780   8.486   9.772   2.889 -2.3601  0.7223  0.0123
  554MOL0     H74781   8.568   9.823   3.041 -0.4103  1.4240 -1.9929
  554MOL0     H74782   8.539   9.529   2.969  2.4134 -0.5439 -2.3428
  554MOL0     H74783   8.621   9.615   3.109  0.0963  3.0183  0.2897
  554MOL0     H74784   8.779   9.520   2.966 -0.9437 -0.2672 -0.0163
  554MOL0     H74785   8.782   9.711   2.945 -0.2299  0.3238 -1.1119
  554MOL0     H74786   8.648   9.666   2.749  0.1792  0.2497  0.7431
  554MOL0     H74787   8.693   9.498   2.751 -0.3218  0.8323  0.1349
  554MOL0     H74788   9.051   9.658   2.618 -0.2771  0.1211  0.1172
  554MOL0     H74789   8.336   9.595   2.831  0.9176  0.8641  0.7973
  554MOL0     H74790   8.121   9.592   2.716 -0.0204  0.9338 -0.8594
  555MOL0     O74791   6.874   6.738   3.248 -0.2084  0.5718  0.3501
  555MOL0     C74792   6.950   6.809   3.313 -0.3544  0.0395 -0.3578
  555MOL0     O74793   6.918   6.921   3.383 -0.6015  0.2457 -0.3305
  555MOL0     C74794   6.789   6.981   3.388 -0.1050 -0.3526  0.2194
  555MOL0     C74795   6.682   6.968   3.296  0.0682  0.3871  0.7212
  555MOL0     C74796   6.559   7.025   3.319  0.5003  0.1147 -0.3726
  555MOL0     C74797   6.522   7.084   3.440  0.1614  0.3803 -0.1873
  555MOL0     O74798   6.394   7.135   3.440 -0.2394 -0.7359  0.2668
  555MOL0     C74799   6.341   7.177   3.567 -0.6127  0.0722 -0.8219
  555MOL0     C74800   6.207   7.232   3.538 -0.5104 -0.1061 -0.0983
  555MOL0     C74801   6.113   7.125   3.467 -0.6447 -0.0837 -0.1355
  555MOL0     C74802   5.977   7.186   3.446 -0.3464 -1.1915 -0.1656
  555MOL0     C74803   5.901   7.098   3.360 -0.0481 -0.6866 -0.2781
  555MOL0     C74804   5.754   7.138   3.325 -1.0208  0.4660 -0.1817
  555MOL0     C74805   5.700   7.054   3.217  0.5788 -0.4601  0.8530
  555MOL0     C74806   5.569   7.109   3.161  0.4822 -0.9658  0.5025
  555MOL0     N74807   5.512   7.026   3.053 -0.9496 -0.5332  0.5140
  555MOL0     C74808   5.411   7.073   2.983 -0.4081 -0.3112 -0.0066
  555MOL0     C74809   5.390   6.984   2.887  0.6028 -0.9588  0.6221
  555MOL0     C74810   5.282   7.002   2.782  0.4777  0.2315 -0.4648
  555MOL0     C74811   5.131   6.991   2.835  0.1487  0.1623  0.2674
  555MOL0     C74812   5.031   7.017   2.729 -0.0033  0.0046 -0.3163
  555MOL0     C74813   5.041   6.905   2.618 -0.4390  0.0300  0.8905
  555MOL0     O74814   4.942   6.945   2.520 -1.0346  0.1913 -0.1337
  555MOL0     C74815   4.812   6.914   2.535 -0.5810  0.2872 -0.4133
  555MOL0     C74816   4.764   6.845   2.650 -0.5161  0.4994  0.2187
  555MOL0     C74817   4.632   6.816   2.671 -0.0035  0.2281  0.0587
  555MOL0     C74818   4.597   6.736   2.795  0.1220 -0.2039 -0.6396
  555MOL0     C74819   4.539   6.866   2.579 -0.2350  0.0465 -1.3053
  555MOL0     C74820   4.400   6.837   2.606  0.3980 -0.2306 -1.0667
  555MOL0     O74821   4.338   6.894   2.718  0.2172  0.0810  0.2357
  555MOL0     C74822   4.219   6.845   2.767  0.2463  0.2879 -0.0199
  555MOL0     C74823   4.224   6.732   2.845 -0.0041  0.0177  0.6397
  555MOL0     C74824   4.107   6.673   2.890 -0.0128 -0.2394 -0.0715
  555MOL0     C74825   3.984   6.733   2.864 -0.5462 -0.0245 -0.3284
  555MOL0     O74826   3.863   6.692   2.906 -0.1277  0.2811 -0.1912
  555MOL0     C74827   3.848   6.617   3.019  0.5621 -1.0137 -0.0433
  555MOL0     C74828   3.708   6.648   3.080 -0.5436  0.2735 -0.4593
  555MOL0     C74829   3.602   6.566   3.012  0.0742  0.5605 -0.1753
  555MOL0     C74830   3.462   6.637   3.029  0.0433  0.3362  0.4770
  555MOL0     C74831   3.401   6.690   2.898 -0.4974 -0.3404  0.6787
  555MOL0     C74832   3.470   6.816   2.850 -0.0155 -0.0561 -0.2007
  555MOL0     C74833   3.404   6.886   2.735  0.4936  0.6429  0.1740
  555MOL0     C74834   3.445   7.031   2.722 -0.1320 -0.8715 -0.5955
  555MOL0    Cl74835   3.361   7.106   2.582 -0.2731  0.4328 -0.2824
  555MOL0     C74836   3.974   6.849   2.779 -0.0950 -0.0643 -0.6200
  555MOL0     C74837   4.091   6.903   2.734 -0.4153  0.1403 -0.0016
  555MOL0     O74838   4.342   6.776   2.517 -0.3161 -0.2212  0.5108
  555MOL0     C74839   4.571   6.941   2.472 -0.2567 -0.2927  0.1492
  555MOL0     C74840   4.712   6.958   2.444 -0.7742 -0.8390 -0.7099
  555MOL0     N74841   5.481   6.878   2.901 -0.4212  0.5445 -0.5092
  555MOL0     N74842   5.554   6.907   3.001  0.4349  0.2099  0.3294
  555MOL0     C74843   6.623   7.086   3.546 -0.6996  0.8364 -0.0899
  555MOL0     C74844   6.753   7.042   3.509 -0.2491 -0.2073  0.2589
  555MOL0     C74845   7.081   6.759   3.345  0.0944 -0.1384  0.7472
  555MOL0     C74846   7.112   6.624   3.335  0.1907  0.5590 -0.4574
  555MOL0     C74847   7.236   6.571   3.373  0.0790 -0.0283 -0.7341
  555MOL0     C74848   7.331   6.656   3.431 -0.2110 -0.7456  1.3009
  555MOL0     O74849   7.455   6.633   3.485  0.2532  0.5924  0.8069
  555MOL0     C74850   7.518   6.510   3.453 -0.1732 -0.2410  0.1596
  555MOL0     C74851   7.665   6.497   3.487  0.2986  0.0916 -0.5164
  555MOL0     C74852   7.731   6.386   3.406 -0.0199  0.3938 -0.1960
  555MOL0     C74853   7.852   6.334   3.473 -0.2712  1.1703  0.2514
  555MOL0     C74854   7.927   6.444   3.525  0.5527  0.8625 -0.0138
  555MOL0     C74855   7.987   6.534   3.578  0.3566  0.5266 -0.1385
  555MOL0     C74856   7.297   6.795   3.445 -0.2446  0.4868  0.8279
  555MOL0     C74857   7.173   6.848   3.398  0.3103 -0.1686  0.2604
  555MOL0     H74858   6.699   6.914   3.203 -0.9608 -1.2525  1.4433
  555MOL0     H74859   6.486   7.008   3.241 -0.6292  1.3979  0.3497
  555MOL0     H74860   6.341   7.091   3.635  0.9530  1.0488  0.4926
  555MOL0     H74861   6.407   7.255   3.604  0.1562 -0.9106 -0.0709
  555MOL0     H74862   6.165   7.272   3.631 -1.0427 -2.5073  0.7706
  555MOL0     H74863   6.217   7.316   3.469  1.5373 -1.3097 -1.3717
  555MOL0     H74864   6.159   7.096   3.373  0.9922  1.7087  0.0578
  555MOL0     H74865   6.115   7.034   3.528 -0.0067  1.2604  1.9836
  555MOL0     H74866   5.918   7.203   3.536 -2.0603 -1.0690 -1.2706
  555MOL0     H74867   5.990   7.285   3.400  0.4270 -0.8641  0.7310
  555MOL0     H74868   5.962   7.091   3.270 -1.0658 -2.3685 -0.8816
  555MOL0     H74869   5.898   7.002   3.413 -2.6316 -0.7430 -0.4022
  555MOL0     H74870   5.694   7.133   3.416  2.0158 -0.7738  1.8704
  555MOL0     H74871   5.767   7.239   3.283  1.3787 -1.3481 -4.5184
  555MOL0     H74872   5.770   7.045   3.133 -1.4837  1.7436 -1.2440
  555MOL0     H74873   5.678   6.952   3.248  0.9755 -2.1113 -3.5464
  555MOL0     H74874   5.575   7.216   3.138 -2.2909  0.9426  6.5918
  555MOL0     H74875   5.499   7.107   3.244  0.9658  0.6626  0.9876
  555MOL0     H74876   5.359   7.165   3.009 -2.2871 -1.9333  2.5363
  555MOL0     H74877   5.291   7.085   2.712 -1.4376 -0.9127 -2.1931
  555MOL0     H74878   5.299   6.907   2.729  3.4533  0.0901  0.5611
  555MOL0     H74879   5.129   7.068   2.912  0.8992  0.5815 -0.1230
  555MOL0     H74880   5.102   6.896   2.881 -2.5777  1.0595  0.5855
  555MOL0     H74881   5.049   7.115   2.685  4.3581  0.0727  1.0690
  555MOL0     H74882   4.930   7.003   2.768 -0.6558  0.1869 -1.8827
  555MOL0     H74883   5.022   6.802   2.649  2.5267 -0.7464  0.4516
  555MOL0     H74884   5.142   6.891   2.579 -0.9167  3.2456 -1.9835
  555MOL0     H74885   4.833   6.808   2.725 -0.4677 -0.1564 -0.1424
  555MOL0     H74886   4.515   6.666   2.777  0.0634 -1.2974  2.9668
  555MOL0     H74887   4.686   6.681   2.826  0.0198  0.5868  1.2167
  555MOL0     H74888   4.557   6.797   2.877  1.3554 -0.8144  0.4543
  555MOL0     H74889   4.326   6.698   2.860  0.5405  1.7984  1.2476
  555MOL0     H74890   4.123   6.580   2.945 -0.1487 -0.2934 -0.1225
  555MOL0     H74891   3.859   6.511   2.995  2.4908 -0.3368 -2.5646
  555MOL0     H74892   3.921   6.642   3.097 -1.0025 -2.9173  2.1826
  555MOL0     H74893   3.720   6.632   3.188  0.7153  2.6378 -0.1685
  555MOL0     H74894   3.693   6.756   3.076  2.5359  0.8285  0.4047
  555MOL0     H74895   3.597   6.473   3.069  0.2385  0.6363 -0.0359
  555MOL0     H74896   3.629   6.546   2.908 -2.5341  1.8711 -1.1967
  555MOL0     H74897   3.392   6.565   3.073 -0.9205  1.2726  0.5177
  555MOL0     H74898   3.470   6.729   3.087 -0.1956  2.3962 -2.5083
  555MOL0     H74899   3.294   6.708   2.917 -0.4877  1.4756 -0.6942
  555MOL0     H74900   3.408   6.626   2.810  0.7772  1.9815 -1.0449
  555MOL0     H74901   3.477   6.883   2.936 -3.2407 -0.3007  0.3680
  555MOL0     H74902   3.575   6.794   2.826  0.4980 -0.9222  2.5165
  555MOL0     H74903   3.296   6.892   2.748  0.4999  1.4266 -0.0838
  555MOL0     H74904   3.430   6.817   2.653 -0.1442 -3.3978  3.0382
  555MOL0     H74905   3.553   7.038   2.711 -0.2730  1.5985 -0.9464
  555MOL0     H74906   3.417   7.089   2.811 -1.1538 -1.2255 -0.6720
  555MOL0     H74907   3.880   6.892   2.748 -2.1669 -3.1485  0.8294
  555MOL0     H74908   4.090   6.993   2.674 -0.0248 -1.8945 -3.3105
  555MOL0     H74909   4.503   6.980   2.397 -1.8286 -0.8211  1.2399
  555MOL0     H74910   4.734   7.010   2.352 -1.8903  0.4226 -0.2900
  555MOL0     H74911   6.588   7.107   3.647  1.4571  3.8645  0.1352
  555MOL0     H74912   6.820   7.041   3.594 -0.7250 -1.8778  0.6390
  555MOL0     H74913   7.038   6.557   3.292  0.7187  1.1253 -2.3707
  555MOL0     H74914   7.253   6.464   3.370 -3.3700 -0.7021 -0.7763
  555MOL0     H74915   7.465   6.431   3.507 -1.3452  0.7135  0.4464
  555MOL0     H74916   7.499   6.495   3.347  0.0626  2.8246 -0.4020
  555MOL0     H74917   7.679   6.468   3.592 -0.5535  3.0588  0.4931
  555MOL0     H74918   7.713   6.593   3.469  0.3250  0.3291  0.7178
  555MOL0     H74919   7.760   6.418   3.306  0.0893  0.1926 -0.2288
  555MOL0     H74920   7.654   6.308   3.406  0.8192 -0.4552  0.3240
  555MOL0     H74921   7.916   6.275   3.406 -1.7283  0.0576 -0.2167
  555MOL0     H74922   7.826   6.266   3.554 -0.6613  1.2886  0.2248
  555MOL0     H74923   8.046   6.609   3.628 -0.8014  0.8925  0.7130
  555MOL0     H74924   7.369   6.867   3.483 -0.3317  2.3772 -2.1957
  555MOL0     H74925   7.157   6.955   3.409  2.6476  0.2363  0.1521
  556MOL0     O74926   5.573   0.396   5.083  0.7690 -0.9148  0.3667
  556MOL0     C74927   5.636   0.495   5.045  0.0226 -0.6050  0.8867
  556MOL0     O74928   5.582   0.625   5.041 -0.5052 -0.2952  0.8768
  556MOL0     C74929   5.452   0.653   5.077 -0.8313 -0.8267  0.2617
  556MOL0     C74930   5.338   0.593   5.019 -0.2361  0.1809 -0.2411
  556MOL0     C74931   5.208   0.629   5.053  0.5556 -1.3919  0.4151
  556MOL0     C74932   5.183   0.734   5.144  0.8837 -1.4783 -0.7287
  556MOL0     O74933   5.062   0.779   5.182 -0.8143 -0.1429 -0.0146
  556MOL0     C74934   4.946   0.737   5.107  0.5683  0.0767  1.2280
  556MOL0     C74935   4.833   0.838   5.143 -0.4315 -0.1197  0.9508
  556MOL0     C74936   4.708   0.811   5.062  0.4742 -0.1319 -0.4359
  556MOL0     C74937   4.595   0.897   5.117 -0.7176  0.3525 -0.2749
  556MOL0     C74938   4.457   0.875   5.049  0.0208  0.5524  0.2868
  556MOL0     C74939   4.355   0.976   5.109  0.3511  0.2554 -0.5576
  556MOL0     C74940   4.203   0.924   5.081 -0.0325 -0.4347 -0.5999
  556MOL0     C74941   4.162   0.907   4.935  0.3377  0.1110 -0.5654
  556MOL0     N74942   4.015   0.890   4.920  0.2120 -0.3010  0.1580
  556MOL0     C74943   3.931   0.994   4.927  0.1379  0.6982  0.8236
  556MOL0     C74944   3.815   0.942   4.881  0.3929 -0.1295  0.3959
  556MOL0     C74945   3.693   1.023   4.890 -0.4109 -0.0803  0.4376
  556MOL0     C74946   3.649   1.080   4.754 -1.8405  0.8547  0.3241
  556MOL0     C74947   3.515   1.151   4.766 -0.2028  0.7678 -0.2077
  556MOL0     C74948   3.476   1.209   4.625  0.1204  0.2597 -0.6177
  556MOL0     O74949   3.364   1.293   4.637  0.8050 -0.2063  0.5706
  556MOL0     C74950   3.280   1.308   4.533  0.4227  0.0240  0.7578
  556MOL0     C74951   3.321   1.287   4.400 -0.0236 -0.7966  0.6179
  556MOL0     C74952   3.240   1.296   4.283 -0.6570  0.2418 -0.1284
  556MOL0     C74953   3.302   1.243   4.158 -0.6048 -0.7218  0.2724
  556MOL0     C74954   3.111   1.352   4.299  0.2597 -0.7066 -0.2822
  556MOL0     C74955   3.020   1.382   4.181 -0.5463 -0.0770 -0.1533
  556MOL0     O74956   2.917   1.453   4.206 -0.3719 -0.1539  0.6085
  556MOL0     C74957   2.810   1.466   4.122  0.3994  1.2275 -0.4743
  556MOL0     C74958   2.690   1.480   4.187  0.4855  0.4544  0.1773
  556MOL0     C74959   2.571   1.520   4.109  0.3890  0.8274  0.7763
  556MOL0     C74960   2.578   1.534   3.971 -0.4894 -0.4260 -0.3875
  556MOL0     O74961   2.463   1.561   3.906  0.1833 -0.2293 -0.2025
  556MOL0     C74962   2.448   1.568   3.768  1.3925 -0.3231 -0.0852
  556MOL0     C74963   2.318   1.615   3.716 -0.8815 -0.2983 -0.0698
  556MOL0     C74964   2.220   1.494   3.709  0.0017 -0.0124  0.6269
  556MOL0     C74965   2.155   1.451   3.845 -0.8796  0.5951  0.0899
  556MOL0     C74966   2.006   1.469   3.851  0.1635 -0.3163 -1.0180
  556MOL0     C74967   1.935   1.331   3.827 -0.0987  0.0668 -0.0231
  556MOL0     C74968   1.776   1.344   3.845 -0.0837  0.3139 -0.1237
  556MOL0     C74969   1.702   1.221   3.819  0.1934  0.3803  0.6993
  556MOL0    Cl74970   1.532   1.238   3.797  0.3748 -0.2005  0.0064
  556MOL0     C74971   2.704   1.516   3.906 -0.5735 -0.3426 -0.1935
  556MOL0     C74972   2.814   1.483   3.985  0.2194 -0.1108 -0.7431
  556MOL0     O74973   3.043   1.329   4.074  0.4888  0.4014 -0.5777
  556MOL0     C74974   3.074   1.382   4.433  0.2824 -0.5690  0.0246
  556MOL0     C74975   3.151   1.353   4.545  0.6038  0.0811 -1.4525
  556MOL0     N74976   3.824   0.818   4.825 -0.4435 -1.0457 -0.0292
  556MOL0     N74977   3.950   0.787   4.852  0.1042 -0.3108 -0.6529
  556MOL0     C74978   5.296   0.812   5.183  0.0828  0.7270 -0.3425
  556MOL0     C74979   5.422   0.777   5.147 -1.2352  0.1619 -0.6957
  556MOL0     C74980   5.781   0.485   5.024  0.0365  0.6908  0.4106
  556MOL0     C74981   5.851   0.370   5.063 -0.4616 -0.0537 -0.5382
  556MOL0     C74982   5.994   0.358   5.060  0.3069 -0.2113 -0.3547
  556MOL0     C74983   6.069   0.463   5.011  0.3280 -0.3409 -0.6894
  556MOL0     O74984   6.207   0.451   5.007  0.1731 -0.0114  0.1606
  556MOL0     C74985   6.311   0.547   4.995  0.0848 -1.4028  0.3954
  556MOL0     C74986   6.341   0.618   5.127 -0.8607 -0.0035 -0.4163
  556MOL0     C74987   6.403   0.513   5.226  0.0700 -0.5689 -0.8115
  556MOL0     C74988   6.457   0.570   5.357  0.0014  0.3337 -0.1081
  556MOL0     C74989   6.585   0.649   5.340 -0.5143  0.5840  0.5573
  556MOL0     C74990   6.687   0.711   5.336 -0.8206 -1.1715  0.9125
  556MOL0     C74991   6.004   0.582   4.986  0.9687 -0.5368  0.3683
  556MOL0     C74992   5.866   0.592   4.979  0.4866  0.1991  0.2247
  556MOL0     H74993   5.357   0.524   4.938  1.4387  1.7056 -1.2167
  556MOL0     H74994   5.123   0.571   5.019 -1.2890  0.5320  1.4888
  556MOL0     H74995   4.963   0.741   4.999  1.4944 -1.2553  1.3049
  556MOL0     H74996   4.915   0.635   5.131  0.2030  0.7396  3.9069
  556MOL0     H74997   4.815   0.843   5.251 -0.4341 -1.1335  1.0076
  556MOL0     H74998   4.856   0.941   5.115 -2.0190 -0.1461 -0.6695
  556MOL0     H74999   4.722   0.831   4.956  0.9031  0.9350 -0.2018
  556MOL0     H75000   4.687   0.705   5.078 -2.6287  0.3194 -0.8280
  556MOL0     H75001   4.589   0.859   5.219  0.8765 -1.2152 -0.7092
  556MOL0     H75002   4.622   1.003   5.121  2.1372 -0.3154  2.3506
  556MOL0     H75003   4.472   0.893   4.942  0.2317 -0.8756  0.0546
  556MOL0     H75004   4.427   0.770   5.055  2.5603 -0.2841 -0.6082
  556MOL0     H75005   4.370   1.000   5.214 -0.4243 -1.8203  0.0892
  556MOL0     H75006   4.364   1.072   5.057  2.9703  0.1350 -0.4680
  556MOL0     H75007   4.183   0.833   5.138 -0.7626  0.2097  0.2008
  556MOL0     H75008   4.138   1.002   5.120  0.2135 -1.7680  2.8430
  556MOL0     H75009   4.219   0.827   4.886 -0.7373 -0.9628 -0.0826
  556MOL0     H75010   4.190   1.001   4.887  2.8651  1.5738  3.2421
  556MOL0     H75011   3.955   1.092   4.968  0.2427 -0.2664  3.2103
  556MOL0     H75012   3.616   0.955   4.928 -1.2468  0.3927 -0.3747
  556MOL0     H75013   3.696   1.109   4.958 -1.9117 -0.3931  0.9487
  556MOL0     H75014   3.643   1.000   4.680  1.6737 -0.6414  1.4392
  556MOL0     H75015   3.724   1.148   4.711  1.6021 -3.3012 -0.9002
  556MOL0     H75016   3.525   1.226   4.845 -0.6375 -0.0976  0.6883
  556MOL0     H75017   3.437   1.081   4.794 -2.1499  2.2438 -1.6344
  556MOL0     H75018   3.458   1.121   4.562  1.3940  1.1431 -2.2846
  556MOL0     H75019   3.561   1.266   4.588  0.6705  0.4512  0.8664
  556MOL0     H75020   3.420   1.248   4.379  1.6624  2.9215  1.0046
  556MOL0     H75021   3.234   1.175   4.106  0.1686  0.0254 -1.8275
  556MOL0     H75022   3.325   1.326   4.091 -1.0760  1.8118  3.0147
  556MOL0     H75023   3.398   1.193   4.171  0.8467  1.7257 -0.4019
  556MOL0     H75024   2.677   1.462   4.293  0.8272 -2.5275 -0.1816
  556MOL0     H75025   2.473   1.532   4.154 -1.0002  0.3874 -1.9339
  556MOL0     H75026   2.523   1.636   3.727 -1.1243  1.8765 -1.3991
  556MOL0     H75027   2.464   1.470   3.724  1.0399  0.2334 -1.5052
  556MOL0     H75028   2.284   1.703   3.772  0.3280  0.0575  0.1455
  556MOL0     H75029   2.323   1.660   3.616 -0.8813  1.0080  0.4930
  556MOL0     H75030   2.268   1.407   3.664  0.8041  1.2772 -1.1044
  556MOL0     H75031   2.147   1.530   3.635  0.6903  0.7539  0.3087
  556MOL0     H75032   2.172   1.343   3.855 -3.3908  0.3379  2.8590
  556MOL0     H75033   2.204   1.505   3.926  0.1640 -0.1797 -0.0056
  556MOL0     H75034   1.973   1.553   3.789 -1.3833 -0.7565 -0.8339
  556MOL0     H75035   1.975   1.497   3.953  1.2076 -2.9318  0.0921
  556MOL0     H75036   1.953   1.276   3.735 -2.2954 -0.7980  0.0006
  556MOL0     H75037   1.970   1.264   3.906  1.9024  2.2181  1.0089
  556MOL0     H75038   1.742   1.420   3.773 -1.3669  2.4753  2.5717
  556MOL0     H75039   1.768   1.392   3.943  1.6104  0.3554  0.0341
  556MOL0     H75040   1.729   1.158   3.905  1.0366  1.5307  1.3105
  556MOL0     H75041   1.745   1.171   3.732 -1.8263 -0.0867 -0.0691
  556MOL0     H75042   2.727   1.523   3.800  0.5178 -3.0551 -0.2026
  556MOL0     H75043   2.911   1.458   3.943  0.8781  2.1264 -0.6725
  556MOL0     H75044   2.975   1.425   4.447 -0.3782 -2.5275  2.1479
  556MOL0     H75045   3.112   1.381   4.642  2.8553  1.3010 -0.8043
  556MOL0     H75046   5.280   0.903   5.241  0.9620  0.8255 -0.2421
  556MOL0     H75047   5.510   0.835   5.175 -0.4520 -0.1469 -2.3539
  556MOL0     H75048   5.799   0.285   5.106 -2.0814  2.0551  1.9883
  556MOL0     H75049   6.053   0.271   5.087  1.0728 -0.3649 -2.3406
  556MOL0     H75050   6.397   0.487   4.963 -1.5754 -2.5129 -2.3644
  556MOL0     H75051   6.299   0.620   4.914 -1.0331  0.1426  1.8838
  556MOL0     H75052   6.248   0.663   5.163 -0.6694  0.5655 -0.6114
  556MOL0     H75053   6.413   0.700   5.112 -1.8730  0.6404 -2.0526
  556MOL0     H75054   6.487   0.467   5.174  1.7365  1.8016 -0.3786
  556MOL0     H75055   6.324   0.440   5.246 -2.3587  1.2451 -3.0504
  556MOL0     H75056   6.481   0.490   5.427  2.8964  2.5969  1.7425
  556MOL0     H75057   6.387   0.645   5.394 -0.5137  1.0020 -2.3057
  556MOL0     H75058   6.781   0.756   5.309 -1.0802 -1.5136 -0.6343
  556MOL0     H75059   6.061   0.671   4.963 -0.8421  0.5283 -0.2072
  556MOL0     H75060   5.827   0.689   4.951  0.7773 -0.3512 -2.3288
  557MOL0     O75061   2.246   7.718  11.233 -0.6775 -0.0483 -0.2814
  557MOL0     C75062   2.280   7.607  11.201 -1.0472  0.9110 -0.2141
  557MOL0     O75063   2.200   7.493  11.185 -0.1120  0.3261 -0.7491
  557MOL0     C75064   2.064   7.506  11.194 -0.2378  0.5559 -0.0658
  557MOL0     C75065   1.998   7.587  11.107 -0.2671  1.2658 -0.0146
  557MOL0     C75066   1.856   7.590  11.107  0.1607 -0.2532  0.1138
  557MOL0     C75067   1.782   7.502  11.191 -1.0812  0.0564  0.0305
  557MOL0     O75068   1.643   7.533  11.202 -0.0368  0.6218 -0.3030
  557MOL0     C75069   1.556   7.431  11.244  0.3038 -0.0828  0.8338
  557MOL0     C75070   1.428   7.493  11.304 -0.3140 -0.2928  0.3406
  557MOL0     C75071   1.346   7.554  11.185  0.3142  0.2021 -0.5521
  557MOL0     C75072   1.208   7.595  11.231 -0.1861  0.3011  0.1481
  557MOL0     C75073   1.107   7.580  11.114  0.3572 -0.5421  0.0423
  557MOL0     C75074   0.979   7.620  11.194  0.1243 -0.2663  0.2390
  557MOL0     C75075   0.857   7.630  11.102  0.3429 -0.0657 -0.0497
  557MOL0     C75076   0.716   7.624  11.159 -0.0960  0.6526 -0.0362
  557MOL0     N75077   0.620   7.691  11.073 -0.1529 -0.3714 -0.4604
  557MOL0     C75078   0.597   7.661  10.946 -0.4610 -0.3457 -0.1325
  557MOL0     C75079   0.496   7.742  10.908  0.7454  0.1305 -0.1902
  557MOL0     C75080   0.425   7.737  10.773  0.1808 -0.5022  0.0379
  557MOL0     C75081   0.316   7.626  10.768 -0.0171  0.8067 -0.0112
  557MOL0     C75082   0.248   7.637  10.636 -0.2006  0.4216  0.4105
  557MOL0     C75083   0.116   7.566  10.636  0.8661  0.4009  0.0696
  557MOL0     O75084   0.063   7.579  10.500  0.1035 -0.5219  0.5651
  557MOL0     C75085  -0.073   7.569  10.474  0.1674  0.0539  1.0441
  557MOL0     C75086  -0.107   7.582  10.336  0.0884  0.1105 -0.3648
  557MOL0     C75087  -0.229   7.538  10.295  0.8144  1.0379  0.3653
  557MOL0     C75088  -0.251   7.555  10.157 -0.0528 -0.5804  0.2015
  557MOL0     C75089  -0.321   7.477  10.383  0.0100 -0.4164 -0.4144
  557MOL0     C75090  -0.462   7.430  10.345 -0.3738  0.3178  0.2190
  557MOL0     O75091  -0.573   7.442  10.428 -0.2941  0.0751  1.0742
  557MOL0     C75092  -0.691   7.385  10.393 -0.5845 -0.2284  0.0542
  557MOL0     C75093  -0.809   7.468  10.395 -0.4855  0.2421  0.4157
  557MOL0     C75094  -0.934   7.418  10.357 -0.3092 -0.0759  0.2900
  557MOL0     C75095  -0.952   7.284  10.326  0.0200 -0.1602 -0.7426
  557MOL0     O75096  -1.071   7.246  10.291 -0.2436 -0.3746 -0.2766
  557MOL0     C75097  -1.116   7.127  10.363 -0.2215 -0.0120  0.1734
  557MOL0     C75098  -1.252   7.092  10.334  0.1057 -0.2105  0.8581
  557MOL0     C75099  -1.344   7.184  10.409  1.4664 -0.7142 -0.1406
  557MOL0     C75100  -1.494   7.169  10.372 -0.3749  0.0118  0.5662
  557MOL0     C75101  -1.566   7.300  10.411  0.2632  0.5663  0.5216
  557MOL0     C75102  -1.713   7.302  10.354 -0.5746  0.8050  0.2243
  557MOL0     C75103  -1.810   7.205  10.431  0.2349  0.1231  0.1026
  557MOL0     C75104  -1.947   7.195  10.377  0.0700  0.4974 -0.9184
  557MOL0    Cl75105  -2.044   7.329  10.450  0.0361  0.0856 -0.6621
  557MOL0     C75106  -0.838   7.199  10.325  0.2898 -0.0453  0.2119
  557MOL0     C75107  -0.707   7.245  10.361  0.4497  0.0140 -0.3361
  557MOL0     O75108  -0.472   7.378  10.234  0.3031  0.0570  0.3844
  557MOL0     C75109  -0.289   7.487  10.520  0.1846 -0.3233  0.4568
  557MOL0     C75110  -0.169   7.527  10.566  0.2477  1.6138 -0.9959
  557MOL0     N75111   0.452   7.803  11.023 -0.1576 -0.7700 -0.4507
  557MOL0     N75112   0.527   7.774  11.118  0.0688  0.1747 -0.1958
  557MOL0     C75113   1.850   7.417  11.282  0.9035  0.3725  0.1836
  557MOL0     C75114   1.994   7.416  11.285 -0.6871 -0.1957  0.4291
  557MOL0     C75115   2.417   7.598  11.161 -0.6457  0.7432  0.4928
  557MOL0     C75116   2.504   7.702  11.128  0.8422  0.0888 -0.0448
  557MOL0     C75117   2.634   7.680  11.077  0.7516 -0.5623  0.4996
  557MOL0     C75118   2.675   7.549  11.050 -0.7021 -0.0837  0.2164
  557MOL0     O75119   2.807   7.545  11.013 -0.4627  0.6003 -0.4168
  557MOL0     C75120   2.858   7.423  10.953 -0.3449 -0.5006 -0.3351
  557MOL0     C75121   3.004   7.419  10.908 -0.2996 -0.5119 -0.9035
  557MOL0     C75122   3.103   7.481  11.002 -0.9716  0.3715  0.0794
  557MOL0     C75123   3.244   7.491  10.941 -0.3743 -0.7349  0.0040
  557MOL0     C75124   3.264   7.569  10.816  0.9652  0.2622 -0.2247
  557MOL0     C75125   3.297   7.632  10.711 -0.6093  0.0828  0.4677
  557MOL0     C75126   2.595   7.447  11.070  0.6074  0.5105 -0.8548
  557MOL0     C75127   2.466   7.469  11.135  0.4389  0.9068 -0.3325
  557MOL0     H75128   2.058   7.635  11.031 -0.1894 -2.6028 -2.6702
  557MOL0     H75129   1.813   7.651  11.028 -1.4718 -0.5762  0.7026
  557MOL0     H75130   1.535   7.361  11.164 -1.3069 -1.2393  2.1896
  557MOL0     H75131   1.602   7.378  11.328  0.3291 -0.4453  0.5937
  557MOL0     H75132   1.365   7.436  11.373 -2.7607  2.6277  0.7218
  557MOL0     H75133   1.465   7.567  11.375 -2.5353  1.1664  0.1053
  557MOL0     H75134   1.397   7.630  11.124 -0.0849 -0.9227 -2.3449
  557MOL0     H75135   1.327   7.478  11.109 -0.9899 -1.2522  1.1645
  557MOL0     H75136   1.172   7.545  11.322 -3.0510 -1.7191 -1.9125
  557MOL0     H75137   1.222   7.703  11.242  0.1510  0.3581 -0.7879
  557MOL0     H75138   1.129   7.645  11.028 -0.3874  1.5430  1.3601
  557MOL0     H75139   1.113   7.477  11.077 -1.5930 -0.0097 -1.9711
  557MOL0     H75140   0.965   7.549  11.276  0.3409  1.0329  1.4387
  557MOL0     H75141   0.989   7.717  11.243  0.0714 -0.7596  1.2574
  557MOL0     H75142   0.877   7.721  11.043 -0.6462 -1.4867 -2.7351
  557MOL0     H75143   0.876   7.555  11.025 -0.8914 -1.7192  1.1893
  557MOL0     H75144   0.723   7.675  11.256 -1.3144  0.9232 -0.0717
  557MOL0     H75145   0.683   7.521  11.174  1.4875  0.2658  1.0533
  557MOL0     H75146   0.644   7.579  10.892 -0.9526  0.1713 -1.3835
  557MOL0     H75147   0.380   7.835  10.755 -0.5222 -0.9084 -0.4244
  557MOL0     H75148   0.492   7.706  10.692 -2.0760 -1.4564 -1.5468
  557MOL0     H75149   0.246   7.637  10.851  1.7277 -0.4716  1.7409
  557MOL0     H75150   0.350   7.524  10.791  0.7485  1.3289  1.2672
  557MOL0     H75151   0.301   7.582  10.558 -1.3028  1.2277 -0.9731
  557MOL0     H75152   0.242   7.742  10.608  1.7374  0.7492  1.0817
  557MOL0     H75153   0.050   7.616  10.708 -0.2853 -0.3213 -0.4581
  557MOL0     H75154   0.123   7.462  10.672 -0.6252  0.5150  0.7585
  557MOL0     H75155  -0.026   7.627  10.278 -1.2544  2.0330 -0.8205
  557MOL0     H75156  -0.175   7.614  10.105 -1.5644  0.4897 -0.8909
  557MOL0     H75157  -0.255   7.460  10.104  3.0439  0.0232 -1.3031
  557MOL0     H75158  -0.348   7.606  10.151 -0.0272 -0.5384  0.1600
  557MOL0     H75159  -0.816   7.571  10.429  0.8201  0.7247 -0.7091
  557MOL0     H75160  -1.020   7.483  10.371  0.1071 -0.1146  4.1415
  557MOL0     H75161  -1.066   7.036  10.328 -2.1812 -0.8084 -0.7185
  557MOL0     H75162  -1.111   7.154  10.469  1.3867  0.9529 -0.1186
  557MOL0     H75163  -1.269   7.080  10.227  2.6957 -2.7150  0.6083
  557MOL0     H75164  -1.276   6.994  10.377 -2.6470  0.1203  0.2420
  557MOL0     H75165  -1.315   7.281  10.367 -0.8574 -0.1163 -0.4660
  557MOL0     H75166  -1.328   7.180  10.517 -0.0084 -1.2257  0.0803
  557MOL0     H75167  -1.492   7.151  10.264  0.2925 -0.7051  0.6910
  557MOL0     H75168  -1.536   7.078  10.416 -1.0953 -1.2871 -2.5244
  557MOL0     H75169  -1.515   7.378  10.353  0.5654 -0.6591 -0.9576
  557MOL0     H75170  -1.571   7.308  10.520  2.4163  1.3931  0.6087
  557MOL0     H75171  -1.749   7.405  10.363 -2.6139  0.2882 -1.2998
  557MOL0     H75172  -1.700   7.265  10.252  1.8260  2.9169 -0.3649
  557MOL0     H75173  -1.827   7.225  10.537  1.6606 -1.0452  0.5825
  557MOL0     H75174  -1.767   7.105  10.433 -1.2648 -0.5338  1.0811
  557MOL0     H75175  -1.993   7.098  10.401 -0.2476  0.6133 -1.0559
  557MOL0     H75176  -1.951   7.216  10.270 -2.4276 -0.7152 -1.1488
  557MOL0     H75177  -0.855   7.099  10.286 -1.2446  1.1790 -2.6208
  557MOL0     H75178  -0.621   7.179  10.370 -0.1022 -0.5172  1.3484
  557MOL0     H75179  -0.364   7.457  10.593 -1.0256 -1.0217 -1.0201
  557MOL0     H75180  -0.153   7.511  10.672 -1.4729 -1.2577 -1.0930
  557MOL0     H75181   1.804   7.350  11.355  1.0126  1.5911  1.4175
  557MOL0     H75182   2.039   7.361  11.367 -1.4043  1.3821  1.9229
  557MOL0     H75183   2.464   7.801  11.147 -4.7832 -2.3370  3.2014
  557MOL0     H75184   2.709   7.757  11.064 -1.6214  2.1044  1.7233
  557MOL0     H75185   2.839   7.336  11.017  3.0001 -0.2505  1.2037
  557MOL0     H75186   2.793   7.406  10.867  0.5437 -2.8885 -0.6041
  557MOL0     H75187   2.995   7.472  10.813  0.9646 -0.2911 -0.9160
  557MOL0     H75188   3.029   7.314  10.888  1.6521 -0.1300 -0.6376
  557MOL0     H75189   3.114   7.434  11.100  2.3736 -1.9298 -1.1916
  557MOL0     H75190   3.077   7.585  11.023  0.0360  0.2571  2.0747
  557MOL0     H75191   3.285   7.390  10.929 -1.9498 -1.4525  0.3881
  557MOL0     H75192   3.310   7.545  11.009  0.9974 -2.7276  0.3361
  557MOL0     H75193   3.312   7.675  10.614 -0.7399 -1.0068 -0.0543
  557MOL0     H75194   2.631   7.346  11.054  0.2376  0.4875 -1.5941
  557MOL0     H75195   2.410   7.378  11.156 -0.3904  1.1383 -1.4826
  558MOL0     O75196   2.089   0.750  10.075 -0.0971  0.3938  0.4527
  558MOL0     C75197   2.182   0.675  10.111 -0.0290 -0.1410  0.0201
  558MOL0     O75198   2.201   0.545  10.077 -0.3390  0.0563  0.4279
  558MOL0     C75199   2.114   0.507   9.976  0.1107 -1.0583 -0.2837
  558MOL0     C75200   1.977   0.497   9.997  0.2889  0.2048 -1.0556
  558MOL0     C75201   1.888   0.463   9.896 -0.2108  1.1241 -0.8643
  558MOL0     C75202   1.928   0.434   9.768  0.1292 -0.8780  0.3170
  558MOL0     O75203   1.847   0.403   9.658 -0.8282  0.1394  0.4518
  558MOL0     C75204   1.714   0.376   9.687 -0.1001 -0.1765  0.0770
  558MOL0     C75205   1.630   0.352   9.556  0.6369  0.3767 -0.2230
  558MOL0     C75206   1.484   0.326   9.592 -0.5309  0.7348  0.2649
  558MOL0     C75207   1.453   0.185   9.636 -0.5718  0.7984  0.0269
  558MOL0     C75208   1.307   0.150   9.640  0.4240  0.2300 -0.2454
  558MOL0     C75209   1.244   0.195   9.774  0.8493  0.2267  0.0438
  558MOL0     C75210   1.087   0.184   9.759  0.4015  0.1214 -0.2346
  558MOL0     C75211   1.026   0.231   9.891 -0.0753 -0.0945  0.2346
  558MOL0     N75212   0.881   0.239   9.885 -0.3086  0.1285 -0.6673
  558MOL0     C75213   0.805   0.324   9.818 -0.3488  0.3603  0.0332
  558MOL0     C75214   0.678   0.297   9.863 -0.0211 -0.4429  0.0798
  558MOL0     C75215   0.559   0.365   9.795 -0.5508  0.4849 -0.3532
  558MOL0     C75216   0.419   0.368   9.862 -1.2702 -0.0891  0.4505
  558MOL0     C75217   0.319   0.428   9.764 -0.2703  0.6776  0.5756
  558MOL0     C75218   0.360   0.545   9.668  0.3078  0.6956 -0.5153
  558MOL0     O75219   0.346   0.678   9.731 -0.1007 -0.4770  0.7763
  558MOL0     C75220   0.220   0.742   9.737  0.3229 -0.3647  0.1027
  558MOL0     C75221   0.102   0.704   9.675  0.3719  0.9737 -0.2188
  558MOL0     C75222  -0.021   0.769   9.684  0.9347  0.4202 -0.9885
  558MOL0     C75223  -0.143   0.706   9.613 -0.8164  0.2851 -0.5508
  558MOL0     C75224  -0.031   0.887   9.761 -0.2307 -0.5289  0.3677
  558MOL0     C75225  -0.154   0.971   9.783  0.1176  0.5798 -0.3576
  558MOL0     O75226  -0.141   1.088   9.850  0.3962 -0.0381  0.0863
  558MOL0     C75227  -0.248   1.139   9.922  0.3691 -0.3562  0.2324
  558MOL0     C75228  -0.329   1.231   9.856 -0.5439 -0.3160 -0.7812
  558MOL0     C75229  -0.434   1.294   9.921 -0.0890 -0.0067  0.0757
  558MOL0     C75230  -0.466   1.253  10.053 -1.1664 -0.6786 -0.2934
  558MOL0     O75231  -0.590   1.295  10.103 -0.0318 -0.6678  0.3586
  558MOL0     C75232  -0.628   1.305  10.237 -1.0610 -0.2848  0.3660
  558MOL0     C75233  -0.746   1.394  10.260  0.5622  0.4610  0.4053
  558MOL0     C75234  -0.815   1.454  10.135  0.1524  0.6979  0.4030
  558MOL0     C75235  -0.740   1.567  10.076  1.1235  0.9518 -0.0696
  558MOL0     C75236  -0.840   1.644   9.977 -0.3567  0.2045 -0.0910
  558MOL0     C75237  -0.879   1.572   9.847  0.0588 -0.7983  0.1010
  558MOL0     C75238  -0.963   1.661   9.757 -0.0483  0.2504  0.6947
  558MOL0     C75239  -1.039   1.582   9.646  0.2130 -0.3018  0.6149
  558MOL0    Cl75240  -1.183   1.493   9.706  0.1640  0.1330  0.0039
  558MOL0     C75241  -0.394   1.154  10.117  0.1676 -0.2754 -0.3740
  558MOL0     C75242  -0.277   1.099  10.057  0.2784 -0.4702  0.3578
  558MOL0     O75243  -0.264   0.913   9.768 -0.2009  0.1254  0.5344
  558MOL0     C75244   0.089   0.934   9.821  0.3093  0.2865 -0.3339
  558MOL0     C75245   0.210   0.860   9.811  0.3919  1.0172  0.4036
  558MOL0     N75246   0.670   0.184   9.951  0.6773 -0.6205  0.7254
  558MOL0     N75247   0.799   0.154   9.963  0.6913  0.0568 -1.1369
  558MOL0     C75248   2.070   0.438   9.746  0.1825  0.1692  0.1046
  558MOL0     C75249   2.162   0.474   9.850  1.1391  0.1817 -0.0562
  558MOL0     C75250   2.283   0.730  10.209  1.1323 -0.6854 -0.3261
  558MOL0     C75251   2.389   0.647  10.245  0.3415  0.3060 -0.2836
  558MOL0     C75252   2.477   0.678  10.350  0.6644 -0.2247  0.8026
  558MOL0     C75253   2.462   0.793  10.418  0.8048  0.4268  0.2970
  558MOL0     O75254   2.553   0.839  10.513 -0.4386 -0.5064 -0.4406
  558MOL0     C75255   2.542   0.808  10.647 -0.4797  0.5668 -0.3716
  558MOL0     C75256   2.663   0.834  10.726 -0.8227 -0.1324  0.6010
  558MOL0     C75257   2.780   0.733  10.700  0.1911 -0.4721  0.6848
  558MOL0     C75258   2.881   0.729  10.809  1.4427  0.6798  0.2805
  558MOL0     C75259   2.932   0.866  10.848  0.1058  0.1087  0.4529
  558MOL0     C75260   2.993   0.970  10.866 -0.1778 -0.1508  0.3900
  558MOL0     C75261   2.356   0.874  10.381  0.0678  1.2278 -0.9116
  558MOL0     C75262   2.261   0.851  10.281  0.8141 -0.1019  0.6792
  558MOL0     H75263   1.942   0.535  10.093  2.4739  3.8830 -1.5454
  558MOL0     H75264   1.783   0.483   9.917  0.2339  3.7370 -0.7960
  558MOL0     H75265   1.704   0.289   9.754  2.6418  0.0083  0.8622
  558MOL0     H75266   1.665   0.465   9.727 -0.6703 -0.5249  0.1734
  558MOL0     H75267   1.636   0.444   9.498 -0.1151 -0.0470 -1.0014
  558MOL0     H75268   1.660   0.265   9.497 -1.0982 -1.7236  1.7865
  558MOL0     H75269   1.450   0.409   9.655 -4.2104 -0.0755 -0.3968
  558MOL0     H75270   1.449   0.343   9.490  0.4071  4.1947  0.3865
  558MOL0     H75271   1.506   0.127   9.560 -0.6160  1.0938 -0.2257
  558MOL0     H75272   1.507   0.173   9.730 -1.0464  1.9464  0.4615
  558MOL0     H75273   1.269   0.210   9.556  1.2822  0.1772 -0.6894
  558MOL0     H75274   1.295   0.044   9.618  0.6875 -0.2625  1.7682
  558MOL0     H75275   1.288   0.128   9.849 -1.7385 -2.8526 -0.9405
  558MOL0     H75276   1.268   0.300   9.792  2.2326  0.4770 -2.8048
  558MOL0     H75277   1.045   0.249   9.682  0.2717 -2.7145 -2.7238
  558MOL0     H75278   1.049   0.086   9.728 -1.6809  0.0830  2.1180
  558MOL0     H75279   1.077   0.325   9.913  1.0927 -0.5746 -0.3424
  558MOL0     H75280   1.047   0.162   9.973 -4.6836 -0.6081  1.2527
  558MOL0     H75281   0.838   0.401   9.748 -1.3649  0.9970  0.2348
  558MOL0     H75282   0.588   0.470   9.789  1.2617  0.0247 -0.1142
  558MOL0     H75283   0.547   0.328   9.692  2.3475  1.3330 -1.0880
  558MOL0     H75284   0.427   0.430   9.952 -0.0695  0.9369 -0.3261
  558MOL0     H75285   0.397   0.268   9.899  0.8689 -0.2002  1.5816
  558MOL0     H75286   0.227   0.468   9.808 -1.2387  1.8711 -2.2639
  558MOL0     H75287   0.280   0.345   9.704 -0.7328  1.5337 -0.3462
  558MOL0     H75288   0.299   0.547   9.577 -0.4630 -0.4174 -0.0500
  558MOL0     H75289   0.456   0.525   9.621 -0.8989 -1.5761 -2.2319
  558MOL0     H75290   0.100   0.617   9.610  2.0405  0.8494 -0.1358
  558MOL0     H75291  -0.128   0.630   9.536 -2.4902  1.4499 -2.1196
  558MOL0     H75292  -0.208   0.665   9.691  1.3276 -0.4582  0.9325
  558MOL0     H75293  -0.193   0.788   9.560  0.5785  0.2255 -2.0153
  558MOL0     H75294  -0.318   1.255   9.751 -3.4931  0.0512 -1.0970
  558MOL0     H75295  -0.489   1.378   9.880  0.4071 -0.4021 -1.4538
  558MOL0     H75296  -0.656   1.205  10.272  0.2694 -0.2022  1.7494
  558MOL0     H75297  -0.539   1.327  10.297 -2.1712 -1.0018  2.3736
  558MOL0     H75298  -0.823   1.335  10.311 -0.6561  0.6937 -1.0988
  558MOL0     H75299  -0.716   1.477  10.324  0.5364 -0.8743  2.2375
  558MOL0     H75300  -0.923   1.464  10.149 -0.6732 -3.8452 -1.0796
  558MOL0     H75301  -0.819   1.380  10.055  0.6706 -0.0969  1.0991
  558MOL0     H75302  -0.709   1.635  10.156  0.7141 -1.1686  1.9932
  558MOL0     H75303  -0.650   1.539  10.020  0.3530  1.1301 -1.4481
  558MOL0     H75304  -0.798   1.741   9.950 -0.2376  0.3308  0.5414
  558MOL0     H75305  -0.935   1.664  10.027  0.6282  0.4296  1.8158
  558MOL0     H75306  -0.788   1.547   9.793 -1.7730 -3.3172 -2.0642
  558MOL0     H75307  -0.918   1.474   9.875  0.2357 -0.6557  0.8604
  558MOL0     H75308  -0.901   1.740   9.714  0.9672 -0.9951 -0.2153
  558MOL0     H75309  -1.038   1.712   9.818 -1.1508 -1.1186  0.5330
  558MOL0     H75310  -0.973   1.511   9.595  1.2912 -1.9458  3.9597
  558MOL0     H75311  -1.082   1.653   9.576  0.9805  0.2702  0.7137
  558MOL0     H75312  -0.436   1.126  10.213 -0.0523 -0.8143 -0.6243
  558MOL0     H75313  -0.208   1.029  10.102  0.8001 -0.8760 -1.0336
  558MOL0     H75314   0.081   1.023   9.883 -0.3230  1.0816 -1.5091
  558MOL0     H75315   0.301   0.898   9.857  2.7651 -0.4611 -2.7283
  558MOL0     H75316   2.116   0.410   9.651  1.2311 -2.2343  1.2434
  558MOL0     H75317   2.270   0.479   9.835  1.0786  0.0030 -0.5658
  558MOL0     H75318   2.407   0.552  10.195 -0.8211  1.4559 -3.1163
  558MOL0     H75319   2.557   0.610  10.376  0.9964 -0.6703 -1.2319
  558MOL0     H75320   2.463   0.868  10.693 -0.4419 -0.6133  1.3435
  558MOL0     H75321   2.512   0.704  10.663 -0.7474  0.9107  1.5894
  558MOL0     H75322   2.627   0.820  10.828 -0.3349 -1.6050  0.5969
  558MOL0     H75323   2.705   0.933  10.708  3.7774 -1.6501  1.5098
  558MOL0     H75324   2.838   0.763  10.613 -0.6000 -3.3070 -0.9827
  558MOL0     H75325   2.747   0.630  10.681  2.5335 -0.9073 -1.5307
  558MOL0     H75326   2.959   0.656  10.786 -0.0283 -0.7424 -0.4502
  558MOL0     H75327   2.825   0.710  10.901 -0.2155  0.1817 -0.7884
  558MOL0     H75328   3.053   1.059  10.871  0.7153 -0.4631 -2.5829
  558MOL0     H75329   2.348   0.965  10.440  4.0209  0.5162  1.0882
  558MOL0     H75330   2.174   0.915  10.273  2.6098  2.6046  1.5558
  559MOL0     O75331   1.590   7.896   2.674 -0.5358  0.1245  0.5590
  559MOL0     C75332   1.641   7.872   2.563 -0.0875 -0.1146 -1.0619
  559MOL0     O75333   1.589   7.910   2.440 -0.0588  0.0043  0.3558
  559MOL0     C75334   1.471   7.987   2.436 -0.4561  0.5423  0.2051
  559MOL0     C75335   1.471   8.113   2.510 -0.0287  0.8765 -0.2875
  559MOL0     C75336   1.356   8.189   2.494  0.3977  0.4788  0.5332
  559MOL0     C75337   1.248   8.150   2.414 -0.5819  0.5700 -0.3384
  559MOL0     O75338   1.135   8.224   2.392  0.7482 -0.2014 -0.1018
  559MOL0     C75339   1.108   8.360   2.439  0.5536 -0.1372 -0.0987
  559MOL0     C75340   0.960   8.374   2.468 -0.4039 -0.6415  0.6761
  559MOL0     C75341   0.931   8.528   2.510 -0.1249  0.4536  0.4334
  559MOL0     C75342   0.786   8.553   2.523  0.1727  0.5367  0.0809
  559MOL0     C75343   0.754   8.697   2.587  0.4437  1.0059  0.0940
  559MOL0     C75344   0.600   8.718   2.588 -0.2130 -0.3675  0.5376
  559MOL0     C75345   0.567   8.850   2.663  0.0104 -0.2744 -0.4620
  559MOL0     C75346   0.423   8.893   2.645  0.0795 -0.1229  0.4479
  559MOL0     N75347   0.424   9.039   2.648 -0.3346 -0.5085  0.1929
  559MOL0     C75348   0.501   9.121   2.568  0.3044 -0.7749  0.4151
  559MOL0     C75349   0.463   9.242   2.603  0.3514  0.0704  0.1855
  559MOL0     C75350   0.507   9.354   2.515  0.8236 -0.5567  0.0843
  559MOL0     C75351   0.434   9.360   2.376  0.2606  0.5599  0.1740
  559MOL0     C75352   0.293   9.420   2.398 -0.2037 -0.1293 -0.5177
  559MOL0     C75353   0.289   9.572   2.422  0.1984  0.8134  1.3515
  559MOL0     O75354   0.171   9.608   2.494 -0.6588 -0.1770  0.8585
  559MOL0     C75355   0.048   9.615   2.442 -0.0541 -0.4827 -0.5650
  559MOL0     C75356  -0.052   9.644   2.534 -0.5153 -0.0029 -1.2308
  559MOL0     C75357  -0.179   9.675   2.498  0.6383  0.5443  0.1585
  559MOL0     C75358  -0.281   9.694   2.609  0.0830  0.0539  0.6861
  559MOL0     C75359  -0.226   9.669   2.358 -0.7431 -0.0525 -0.7175
  559MOL0     C75360  -0.367   9.679   2.304 -0.4618 -0.2522 -0.0431
  559MOL0     O75361  -0.460   9.737   2.383  0.1360 -0.0882  0.0997
  559MOL0     C75362  -0.588   9.736   2.342  0.1991 -0.7482 -0.4508
  559MOL0     C75363  -0.618   9.832   2.243  0.0925 -0.2710  0.0813
  559MOL0     C75364  -0.753   9.862   2.223 -0.1829  0.1802  0.4599
  559MOL0     C75365  -0.853   9.799   2.289 -0.1617 -0.3146 -0.4287
  559MOL0     O75366  -0.991   9.832   2.282  0.0520  0.6277  0.4212
  559MOL0     C75367  -1.044   9.909   2.174  0.5170 -0.0215  0.0716
  559MOL0     C75368  -1.190   9.909   2.160  0.0927  0.1975 -0.2922
  559MOL0     C75369  -1.245   9.998   2.046  0.2780  0.3608 -0.3671
  559MOL0     C75370  -1.398   9.989   2.044 -0.0152 -0.4011 -0.2410
  559MOL0     C75371  -1.449  10.073   1.929  1.0035  0.2263  0.2984
  559MOL0     C75372  -1.595  10.064   1.893  0.6839  0.3226  0.6662
  559MOL0     C75373  -1.696  10.083   2.005  0.2509 -0.3150  0.4314
  559MOL0     C75374  -1.803   9.982   1.989 -0.5850  0.2648  0.2073
  559MOL0    Cl75375  -1.925   9.994   2.117 -0.1200  0.3331 -0.3141
  559MOL0     C75376  -0.827   9.702   2.385 -0.3267 -1.1827 -0.1752
  559MOL0     C75377  -0.689   9.676   2.417 -0.1715  0.3659  0.5292
  559MOL0     O75378  -0.386   9.644   2.192  0.7895  0.4408  0.0829
  559MOL0     C75379  -0.120   9.639   2.265  0.5353  0.0445  0.6228
  559MOL0     C75380   0.009   9.611   2.311  0.0496  0.5206 -0.6968
  559MOL0     N75381   0.374   9.242   2.701 -0.5998  0.1425 -0.1700
  559MOL0     N75382   0.357   9.114   2.737  0.5387 -0.0900 -0.0784
  559MOL0     C75383   1.251   8.022   2.363  0.0327  0.5470 -0.5291
  559MOL0     C75384   1.369   7.948   2.358  0.6830 -0.4803 -0.3303
  559MOL0     C75385   1.774   7.799   2.576  0.6668 -0.8187 -0.2669
  559MOL0     C75386   1.872   7.814   2.488 -0.9114 -0.1311  0.4141
  559MOL0     C75387   2.002   7.756   2.515  0.2038  0.5486 -0.1077
  559MOL0     C75388   2.019   7.659   2.619  0.3396 -0.1842 -1.0537
  559MOL0     O75389   2.143   7.600   2.635 -0.5767 -0.0921  0.0042
  559MOL0     C75390   2.169   7.552   2.774 -0.1046 -1.0698 -0.1505
  559MOL0     C75391   2.316   7.571   2.798 -0.5702  0.4142 -0.1099
  559MOL0     C75392   2.373   7.719   2.773  0.8753 -0.6292 -0.0856
  559MOL0     C75393   2.286   7.830   2.833  0.6224 -0.0398 -0.6680
  559MOL0     C75394   2.261   7.812   2.982  0.3845  0.2572  0.4542
  559MOL0     C75395   2.219   7.811   3.093 -0.4674 -0.1428  1.0085
  559MOL0     C75396   1.914   7.641   2.706 -0.6706  0.1291 -0.0162
  559MOL0     C75397   1.798   7.717   2.689  0.3591  0.4939  0.3211
  559MOL0     H75398   1.561   8.134   2.566  1.5689 -1.0653 -1.9527
  559MOL0     H75399   1.359   8.282   2.551 -1.5010  0.4299  0.7634
  559MOL0     H75400   1.152   8.380   2.537 -0.9409 -1.8847  0.9982
  559MOL0     H75401   1.146   8.436   2.370 -1.2809  0.1774 -0.8276
  559MOL0     H75402   0.908   8.357   2.373 -1.5084 -4.2094  1.7641
  559MOL0     H75403   0.914   8.301   2.535 -0.4220  0.9378  2.4548
  559MOL0     H75404   0.973   8.534   2.611  0.9508  1.8669 -0.0551
  559MOL0     H75405   0.990   8.596   2.447  1.6558 -0.5840  0.8945
  559MOL0     H75406   0.743   8.550   2.423 -2.2763 -0.2102  1.0934
  559MOL0     H75407   0.737   8.476   2.584 -3.3394  3.2315  0.9535
  559MOL0     H75408   0.799   8.699   2.687  2.9985 -1.2946 -0.8883
  559MOL0     H75409   0.790   8.779   2.524 -1.1862  0.5386 -1.5344
  559MOL0     H75410   0.559   8.719   2.486  1.0688 -0.6815  0.0112
  559MOL0     H75411   0.546   8.646   2.651  1.0975 -1.1347  0.8250
  559MOL0     H75412   0.590   8.837   2.769  1.9623 -2.2770 -1.0255
  559MOL0     H75413   0.634   8.922   2.614 -0.3946 -0.4361 -1.2733
  559MOL0     H75414   0.355   8.848   2.717 -3.4934 -0.5225 -2.8186
  559MOL0     H75415   0.385   8.874   2.544 -2.7439 -1.5792  1.6754
  559MOL0     H75416   0.569   9.099   2.486  0.0573  0.6062 -0.2012
  559MOL0     H75417   0.495   9.445   2.574  0.1420  0.1889 -1.1780
  559MOL0     H75418   0.614   9.341   2.496  0.8377 -0.3351  0.0121
  559MOL0     H75419   0.413   9.260   2.338  0.7491  0.4655  0.1406
  559MOL0     H75420   0.494   9.414   2.301  0.8410  0.2109  0.3793
  559MOL0     H75421   0.243   9.368   2.480  0.8139  0.2957  0.3987
  559MOL0     H75422   0.230   9.390   2.314 -0.6603  1.9234 -0.9554
  559MOL0     H75423   0.305   9.624   2.327 -0.3070  0.5610  1.1260
  559MOL0     H75424   0.373   9.595   2.488 -0.0620  1.9485  1.3082
  559MOL0     H75425  -0.025   9.652   2.638  0.9270 -0.3755 -1.5490
  559MOL0     H75426  -0.372   9.639   2.582  1.8557 -2.4576 -0.5593
  559MOL0     H75427  -0.254   9.653   2.707  1.2623  2.1939  1.3242
  559MOL0     H75428  -0.304   9.800   2.627  3.5333  0.5718  2.9674
  559MOL0     H75429  -0.541   9.899   2.207 -0.5670  1.4951  1.7675
  559MOL0     H75430  -0.782   9.945   2.159 -2.6720 -0.6038  0.4372
  559MOL0     H75431  -1.002  10.009   2.187 -1.1516  0.6496  0.4950
  559MOL0     H75432  -0.990   9.872   2.086  2.0538  2.5302 -0.1743
  559MOL0     H75433  -1.226   9.807   2.148  2.8212 -1.0463  1.2023
  559MOL0     H75434  -1.235   9.958   2.247  0.0095 -1.3013  0.5342
  559MOL0     H75435  -1.215   9.958   1.949 -1.4478 -2.5547  0.1943
  559MOL0     H75436  -1.203  10.099   2.056 -0.2613  0.5310  0.2280
  559MOL0     H75437  -1.424   9.889   2.009 -0.3916  0.6488 -3.3155
  559MOL0     H75438  -1.444  10.013   2.140  1.9675 -2.1869  1.2244
  559MOL0     H75439  -1.391  10.042   1.841  0.3447  1.2201 -0.5028
  559MOL0     H75440  -1.430  10.178   1.951 -3.1579  1.5040 -1.2170
  559MOL0     H75441  -1.624  10.130   1.811  0.7973  0.6812  0.9118
  559MOL0     H75442  -1.608   9.965   1.848 -0.8388 -0.1764  2.1061
  559MOL0     H75443  -1.734  10.184   1.985  4.5955  0.7762 -4.5346
  559MOL0     H75444  -1.644  10.083   2.101 -2.4351 -0.4055  2.0042
  559MOL0     H75445  -1.758   9.882   1.988  0.5010  0.7368 -0.5379
  559MOL0     H75446  -1.841  10.014   1.892  0.4592 -2.7339 -1.3021
  559MOL0     H75447  -0.910   9.672   2.448  0.8062 -2.8718  0.5729
  559MOL0     H75448  -0.667   9.597   2.488  1.4241 -2.0712 -2.4255
  559MOL0     H75449  -0.141   9.638   2.159 -0.5986 -1.1648  0.8330
  559MOL0     H75450   0.071   9.611   2.221 -2.0090  3.8349 -2.3336
  559MOL0     H75451   1.169   7.982   2.305  2.1315 -3.3177 -1.1693
  559MOL0     H75452   1.381   7.855   2.304  2.0590 -0.6977  0.3075
  559MOL0     H75453   1.865   7.890   2.411 -2.9845  0.1827  0.8562
  559MOL0     H75454   2.088   7.772   2.452 -0.0714  1.6525 -0.2143
  559MOL0     H75455   2.106   7.609   2.843 -1.1004 -0.5789 -1.4101
  559MOL0     H75456   2.149   7.446   2.786 -0.1801 -1.0381 -0.0059
  559MOL0     H75457   2.372   7.507   2.729  0.3469 -1.2331  2.0442
  559MOL0     H75458   2.332   7.534   2.900 -0.6858  0.7747  0.0380
  559MOL0     H75459   2.382   7.727   2.665 -2.0429 -0.8241 -0.4322
  559MOL0     H75460   2.469   7.724   2.826  0.3409  2.9258  0.8701
  559MOL0     H75461   2.185   7.848   2.794 -0.9441 -4.2753  0.9264
  559MOL0     H75462   2.338   7.925   2.814 -3.5461  2.4104 -1.0379
  559MOL0     H75463   2.171   7.800   3.188 -0.1721  0.2110  1.1981
  559MOL0     H75464   1.912   7.559   2.777 -1.5688  1.1943  1.2273
  559MOL0     H75465   1.731   7.704   2.773  3.0077  2.8632  3.0329
  560MOL0     O75466   2.049   5.788   7.716  0.2213  0.9157 -0.2190
  560MOL0     C75467   2.146   5.778   7.797  0.4050  0.2317  0.3215
  560MOL0     O75468   2.145   5.793   7.932  0.2732 -0.1762 -0.4871
  560MOL0     C75469   2.029   5.814   8.005 -0.2314 -0.8712 -0.3548
  560MOL0     C75470   2.040   5.876   8.128  0.3067  0.2011  0.6665
  560MOL0     C75471   1.937   5.882   8.216 -0.3721 -0.5932  0.4768
  560MOL0     C75472   1.808   5.847   8.180 -0.3473  0.5751 -0.2044
  560MOL0     O75473   1.696   5.844   8.260 -0.4300  0.4416  0.3893
  560MOL0     C75474   1.691   5.939   8.369 -0.5081  0.4046 -0.2309
  560MOL0     C75475   1.673   6.081   8.316  0.8002 -0.2894 -0.8651
  560MOL0     C75476   1.543   6.102   8.234 -0.2042  0.7197  0.1035
  560MOL0     C75477   1.410   6.024   8.281 -0.3127  0.0169 -0.7802
  560MOL0     C75478   1.290   6.044   8.186  0.4058  0.8265 -0.1619
  560MOL0     C75479   1.173   5.946   8.223  0.3854  0.9229 -0.3872
  560MOL0     C75480   1.098   5.997   8.343 -0.0182 -0.1060 -0.0698
  560MOL0     C75481   0.988   5.899   8.386  0.8697  0.5188 -0.5698
  560MOL0     N75482   0.892   5.966   8.485 -0.1936 -0.0522  0.6212
  560MOL0     C75483   0.899   5.941   8.620  0.3875  0.1249  0.1470
  560MOL0     C75484   0.834   6.041   8.686 -0.1381 -0.0780  0.0043
  560MOL0     C75485   0.809   6.028   8.840 -0.4422  0.0957 -0.1747
  560MOL0     C75486   0.673   5.984   8.881 -1.4566 -0.3686  0.1968
  560MOL0     C75487   0.560   6.093   8.863  0.5275  0.2449  0.4843
  560MOL0     C75488   0.453   6.037   8.769 -0.2612  0.3771 -0.3764
  560MOL0     O75489   0.380   5.924   8.816  0.8458  0.5208 -0.0400
  560MOL0     C75490   0.257   5.958   8.875 -0.9887  0.2271 -1.0160
  560MOL0     C75491   0.249   5.951   9.015  0.2928 -0.3297  0.2462
  560MOL0     C75492   0.123   5.979   9.072  0.1099  0.5105 -0.5976
  560MOL0     C75493   0.109   5.962   9.226 -0.0713  1.3301 -0.0243
  560MOL0     C75494   0.014   6.002   8.988 -0.1260  0.5258  0.1335
  560MOL0     C75495  -0.122   6.024   9.045 -0.1128  0.7615  0.0508
  560MOL0     O75496  -0.167   5.936   9.143 -0.4572 -0.4897  0.0173
  560MOL0     C75497  -0.299   5.951   9.181 -0.0165  0.5180  0.0357
  560MOL0     C75498  -0.390   5.865   9.125 -0.4360 -0.1843  0.1500
  560MOL0     C75499  -0.522   5.865   9.180  0.4348 -0.0822 -0.6957
  560MOL0     C75500  -0.564   5.953   9.270 -0.4401 -0.0886 -0.3879
  560MOL0     O75501  -0.701   5.959   9.285  0.7763  0.0417  0.5358
  560MOL0     C75502  -0.753   6.072   9.354 -0.5160  0.0188 -0.3280
  560MOL0     C75503  -0.902   6.051   9.370  0.1219  0.1578  0.1137
  560MOL0     C75504  -0.958   6.161   9.457  0.1734 -0.5821 -0.4023
  560MOL0     C75505  -1.106   6.138   9.490 -0.4242 -0.7030 -0.1427
  560MOL0     C75506  -1.156   6.249   9.575  0.0310  0.4564  0.2396
  560MOL0     C75507  -1.298   6.224   9.617 -0.4637  0.1382 -0.1143
  560MOL0     C75508  -1.348   6.320   9.723  0.2140 -0.8389 -0.2332
  560MOL0     C75509  -1.501   6.319   9.748 -0.1995 -0.5071  0.6070
  560MOL0    Cl75510  -1.537   6.159   9.816  0.1517 -0.1000  0.1838
  560MOL0     C75511  -0.467   6.036   9.326 -0.3927 -0.2363 -0.1316
  560MOL0     C75512  -0.339   6.041   9.276  0.0451  0.4826  0.0928
  560MOL0     O75513  -0.190   6.108   8.983  0.8106  0.6001 -0.1504
  560MOL0     C75514   0.044   6.036   8.857  0.4993  0.3122  0.1587
  560MOL0     C75515   0.162   6.007   8.796 -0.1061  0.4347  0.5645
  560MOL0     N75516   0.791   6.130   8.584  0.1951 -0.3633  0.4674
  560MOL0     N75517   0.826   6.090   8.464  0.1263 -0.0440 -0.3063
  560MOL0     C75518   1.788   5.795   8.053 -0.5984 -0.4337 -0.0934
  560MOL0     C75519   1.902   5.767   7.966 -0.2596  0.0775 -0.2630
  560MOL0     C75520   2.285   5.754   7.738  0.2071 -0.2820  0.7089
  560MOL0     C75521   2.388   5.708   7.828  1.0869 -1.3791  1.3323
  560MOL0     C75522   2.518   5.679   7.774  0.3197  0.0612  0.1137
  560MOL0     C75523   2.545   5.680   7.637 -1.2870  0.5526  0.5289
  560MOL0     O75524   2.674   5.643   7.594 -0.4135  0.1845  0.0097
  560MOL0     C75525   2.717   5.692   7.468 -0.4504 -0.7296  0.2823
  560MOL0     C75526   2.868   5.670   7.456  0.1848 -0.2344  0.6902
  560MOL0     C75527   2.946   5.750   7.565 -0.6711  0.7225  0.4564
  560MOL0     C75528   3.093   5.730   7.540 -0.9458 -1.0601  0.3777
  560MOL0     C75529   3.159   5.619   7.609 -0.3277 -0.1673  0.6387
  560MOL0     C75530   3.203   5.525   7.667 -0.0466  0.5033  0.5330
  560MOL0     C75531   2.437   5.734   7.557 -1.4112 -0.7778  0.0448
  560MOL0     C75532   2.315   5.767   7.605  0.2258 -0.1207  0.6236
  560MOL0     H75533   2.142   5.908   8.144  0.4545  0.0015  0.1476
  560MOL0     H75534   1.959   5.929   8.312  0.2836  0.3209 -0.0996
  560MOL0     H75535   1.606   5.918   8.435  0.6779 -1.4392  0.8056
  560MOL0     H75536   1.782   5.921   8.427 -1.1258  1.2240  1.0440
  560MOL0     H75537   1.672   6.153   8.398  2.1373  1.0340 -1.9622
  560MOL0     H75538   1.760   6.104   8.254 -0.3056  0.4758 -2.2059
  560MOL0     H75539   1.518   6.209   8.234  2.5758  1.4791  1.9528
  560MOL0     H75540   1.561   6.074   8.130 -4.6818 -0.1383 -0.6335
  560MOL0     H75541   1.427   5.917   8.296 -2.1083 -0.4055 -1.5233
  560MOL0     H75542   1.382   6.065   8.379 -1.2929 -2.2213 -0.0478
  560MOL0     H75543   1.246   6.144   8.183 -0.2799  0.5650  0.6877
  560MOL0     H75544   1.328   6.012   8.089  0.3062 -1.4211  0.4851
  560MOL0     H75545   1.098   5.945   8.143  0.0475 -1.8135 -0.1342
  560MOL0     H75546   1.222   5.849   8.236  1.5937  1.4733 -0.6774
  560MOL0     H75547   1.167   6.010   8.427 -0.4707  0.4537  0.2263
  560MOL0     H75548   1.059   6.096   8.314  0.7063  1.1140  2.7715
  560MOL0     H75549   1.027   5.805   8.427  0.0181  0.8903  1.2032
  560MOL0     H75550   0.922   5.869   8.305 -3.1729  0.0320  2.6278
  560MOL0     H75551   0.945   5.863   8.679 -2.1115 -1.2049  0.4720
  560MOL0     H75552   0.883   5.954   8.873  1.5205  2.0454  0.0033
  560MOL0     H75553   0.825   6.124   8.890  0.8544  0.4838 -1.2618
  560MOL0     H75554   0.680   5.958   8.987 -3.0013  0.8125  0.6310
  560MOL0     H75555   0.659   5.894   8.821  3.1906 -1.3608  0.2375
  560MOL0     H75556   0.598   6.185   8.818  1.0082  1.0343  2.3687
  560MOL0     H75557   0.520   6.116   8.963  1.2124  3.8267  0.0819
  560MOL0     H75558   0.502   6.020   8.673  1.5706  1.6889  0.2729
  560MOL0     H75559   0.388   6.123   8.750  3.1743  3.8809  2.0776
  560MOL0     H75560   0.339   5.932   9.073  0.7106  4.1313  1.3911
  560MOL0     H75561   0.102   5.854   9.246 -2.5014  1.2415 -0.9658
  560MOL0     H75562   0.199   5.994   9.279 -0.7760  1.3139  1.2126
  560MOL0     H75563   0.028   6.011   9.281  1.3238  1.7127  1.7827
  560MOL0     H75564  -0.372   5.810   9.033 -0.7611  0.0521 -0.0606
  560MOL0     H75565  -0.589   5.791   9.139  0.0886  0.0038 -0.2939
  560MOL0     H75566  -0.712   6.081   9.455 -3.0243 -1.9472  0.9877
  560MOL0     H75567  -0.727   6.162   9.297 -1.4410 -0.9241 -2.3642
  560MOL0     H75568  -0.952   6.054   9.273 -1.5179  1.5485  0.9568
  560MOL0     H75569  -0.929   5.956   9.418  1.0849  0.9396  2.3573
  560MOL0     H75570  -0.959   6.252   9.396 -1.0467  1.8612  2.9770
  560MOL0     H75571  -0.902   6.175   9.550 -0.0231  1.2947 -0.5331
  560MOL0     H75572  -1.171   6.140   9.402  0.2001  0.3670 -0.5936
  560MOL0     H75573  -1.130   6.044   9.541 -4.0331 -0.8595 -1.8454
  560MOL0     H75574  -1.151   6.335   9.508  2.6926 -0.8241 -1.3965
  560MOL0     H75575  -1.086   6.253   9.659  0.2738 -2.5683  0.2972
  560MOL0     H75576  -1.366   6.227   9.531 -0.0293  0.2373 -0.4588
  560MOL0     H75577  -1.314   6.120   9.649  0.1658 -0.8162 -2.6554
  560MOL0     H75578  -1.325   6.421   9.688  1.2445 -1.4371 -1.3670
  560MOL0     H75579  -1.294   6.304   9.816 -1.1389 -1.6097  0.4428
  560MOL0     H75580  -1.572   6.334   9.666 -0.0483 -2.9428 -0.0525
  560MOL0     H75581  -1.516   6.404   9.816 -0.2137  0.6139 -0.7407
  560MOL0     H75582  -0.494   6.117   9.392  0.6328  2.7114 -3.0616
  560MOL0     H75583  -0.257   6.098   9.318  1.9750 -0.2914 -2.3522
  560MOL0     H75584  -0.044   6.065   8.800 -1.6770 -1.8840  2.1354
  560MOL0     H75585   0.178   6.019   8.689  1.9638 -0.3739  0.7511
  560MOL0     H75586   1.691   5.786   8.003 -0.6182 -2.7694  0.2388
  560MOL0     H75587   1.887   5.715   7.872 -2.7667  0.6523 -0.2460
  560MOL0     H75588   2.378   5.699   7.936 -0.4953  1.7109  1.5534
  560MOL0     H75589   2.602   5.643   7.832  1.8062 -0.4029 -2.2008
  560MOL0     H75590   2.663   5.633   7.394 -1.2663  2.9255 -2.2750
  560MOL0     H75591   2.708   5.799   7.446  1.2000 -0.7698 -0.7814
  560MOL0     H75592   2.907   5.698   7.358 -0.5108  0.4978  0.6134
  560MOL0     H75593   2.882   5.562   7.467  0.6687 -0.1368  1.0821
  560MOL0     H75594   2.916   5.708   7.661  0.8074  1.3187  1.1913
  560MOL0     H75595   2.932   5.858   7.566  0.4641  0.8816  1.2544
  560MOL0     H75596   3.156   5.815   7.569 -0.6683 -0.0059 -2.8687
  560MOL0     H75597   3.120   5.732   7.434 -0.5759  1.8131  0.4300
  560MOL0     H75598   3.240   5.443   7.726 -3.2586 -0.3297  1.5592
  560MOL0     H75599   2.458   5.745   7.451  0.1761  0.6069  0.4549
  560MOL0     H75600   2.232   5.795   7.540 -1.8789  1.3101  3.7129
  561MOL0     O75601   4.681  11.269   3.665  0.6112  0.0721  0.7464
  561MOL0     C75602   4.660  11.191   3.758 -1.8673  0.5059  0.2904
  561MOL0     O75603   4.543  11.145   3.811 -0.1502 -0.1240  0.0528
  561MOL0     C75604   4.429  11.227   3.787 -0.3140 -0.1292 -0.5622
  561MOL0     C75605   4.424  11.373   3.777 -0.4667  0.3690 -0.2567
  561MOL0     C75606   4.303  11.439   3.776 -0.4825 -0.5741 -0.4964
  561MOL0     C75607   4.180  11.372   3.767  0.5080  0.1813 -0.3395
  561MOL0     O75608   4.069  11.442   3.754  0.7260  0.7172  0.2565
  561MOL0     C75609   3.951  11.380   3.701  0.7133  0.4536 -0.2953
  561MOL0     C75610   3.825  11.468   3.728  0.0691 -0.2720  0.3589
  561MOL0     C75611   3.829  11.603   3.650 -0.0511 -0.4569 -0.0389
  561MOL0     C75612   3.704  11.685   3.665  1.5449 -0.5581  0.7282
  561MOL0     C75613   3.686  11.785   3.544  0.2651  0.0098 -0.3782
  561MOL0     C75614   3.553  11.868   3.556 -0.0793 -0.0780 -0.1915
  561MOL0     C75615   3.547  11.970   3.437  1.8570  1.4164 -0.4900
  561MOL0     C75616   3.430  12.059   3.457 -0.6485 -0.0076  2.0862
  561MOL0     N75617   3.441  12.173   3.363 -0.1944 -0.7687 -0.3882
  561MOL0     C75618   3.385  12.177   3.238  0.6942 -0.1472 -0.6968
  561MOL0     C75619   3.395  12.314   3.209 -0.2272 -0.3380 -0.0777
  561MOL0     C75620   3.352  12.376   3.081  0.0489 -0.1485  0.0039
  561MOL0     C75621   3.207  12.328   3.049  0.3270 -1.2762 -0.2223
  561MOL0     C75622   3.104  12.339   3.166  0.2044  0.1254 -0.4381
  561MOL0     C75623   3.085  12.487   3.216  0.4083  0.1053 -0.7618
  561MOL0     O75624   3.036  12.566   3.108 -0.3892 -0.5616 -0.1195
  561MOL0     C75625   2.907  12.560   3.069 -0.3450  0.2250  0.1993
  561MOL0     C75626   2.882  12.640   2.959  0.5079 -0.3767  0.1539
  561MOL0     C75627   2.757  12.653   2.906 -0.5523  0.8877  0.6210
  561MOL0     C75628   2.741  12.738   2.779  0.6087  0.2882  0.9512
  561MOL0     C75629   2.644  12.590   2.967  1.1816  0.5307  0.2474
  561MOL0     C75630   2.504  12.602   2.914 -0.2242  0.4291 -0.1248
  561MOL0     O75631   2.423  12.492   2.925  0.4768 -0.2019  0.7680
  561MOL0     C75632   2.296  12.508   2.873  0.1701  0.1248  0.3381
  561MOL0     C75633   2.287  12.506   2.732 -0.6674  0.6876  0.7099
  561MOL0     C75634   2.163  12.514   2.673 -0.2099  0.7771 -0.2301
  561MOL0     C75635   2.047  12.544   2.755  0.5979  0.6411  0.2473
  561MOL0     O75636   1.926  12.539   2.693 -0.6245 -0.2266 -0.4384
  561MOL0     C75637   1.875  12.669   2.665  1.0865 -0.4756  0.4744
  561MOL0     C75638   1.725  12.660   2.679  0.3974  0.5400  0.2715
  561MOL0     C75639   1.669  12.562   2.573 -0.2706 -0.3129  0.2712
  561MOL0     C75640   1.523  12.526   2.598 -0.3688  0.0905 -0.3276
  561MOL0     C75641   1.470  12.455   2.467 -0.2880 -0.9771  0.3195
  561MOL0     C75642   1.330  12.416   2.457  0.6822 -0.7211 -0.5566
  561MOL0     C75643   1.306  12.300   2.549 -0.3468  0.7338 -0.4731
  561MOL0     C75644   1.170  12.237   2.535 -0.5908 -0.5895 -0.2887
  561MOL0    Cl75645   1.048  12.346   2.607  0.0596  0.0901  0.2708
  561MOL0     C75646   2.060  12.558   2.892  0.2523  0.2403  0.4388
  561MOL0     C75647   2.186  12.533   2.952  0.7868 -0.7167  0.0886
  561MOL0     O75648   2.471  12.709   2.861  0.0572  0.0882  0.2557
  561MOL0     C75649   2.671  12.513   3.082  0.2676 -0.6198 -0.6746
  561MOL0     C75650   2.799  12.502   3.135 -0.9063  0.2874 -0.0002
  561MOL0     N75651   3.479  12.375   3.301  0.1130  0.0052  0.1422
  561MOL0     N75652   3.506  12.293   3.388 -0.0363  0.6697  0.2363
  561MOL0     C75653   4.181  11.234   3.774 -0.3591 -0.2102 -0.2374
  561MOL0     C75654   4.303  11.160   3.783 -0.3121  0.1620 -0.1919
  561MOL0     C75655   4.783  11.150   3.826  0.0898  0.8835  0.1938
  561MOL0     C75656   4.906  11.140   3.765 -0.6258 -0.5715  0.1431
  561MOL0     C75657   5.026  11.095   3.832  1.1093  0.2117  0.6080
  561MOL0     C75658   5.014  11.045   3.959  0.9163 -0.3050 -0.6725
  561MOL0     O75659   5.123  10.981   4.007 -1.4734  0.4503  0.2241
  561MOL0     C75660   5.117  10.918   4.144 -0.0000  0.7466  0.0413
  561MOL0     C75661   5.121  11.021   4.255  1.4388  0.0223 -0.9207
  561MOL0     C75662   5.183  10.968   4.383  0.1118 -0.8202  1.1919
  561MOL0     C75663   5.121  10.841   4.445  0.8763  0.0678  0.0647
  561MOL0     C75664   5.009  10.884   4.535  0.5690  0.8728  0.2400
  561MOL0     C75665   4.911  10.909   4.599 -0.8330 -0.2522  0.6424
  561MOL0     C75666   4.891  11.050   4.026  0.0827 -0.0996 -0.0002
  561MOL0     C75667   4.778  11.108   3.961  0.4375  0.4013  0.4575
  561MOL0     H75668   4.522  11.420   3.773  0.9039 -1.7685  3.3039
  561MOL0     H75669   4.293  11.547   3.768 -1.3858 -0.4063  1.9512
  561MOL0     H75670   3.957  11.356   3.595 -2.1342 -0.1844 -0.3962
  561MOL0     H75671   3.924  11.293   3.762 -1.2457  1.5447  0.4931
  561MOL0     H75672   3.743  11.409   3.686 -0.3454  0.5546 -0.0211
  561MOL0     H75673   3.794  11.491   3.830  0.0753 -2.2786  0.8535
  561MOL0     H75674   3.903  11.665   3.702 -2.2042  1.7801  0.5614
  561MOL0     H75675   3.860  11.590   3.546  3.5791  2.4787  0.4642
  561MOL0     H75676   3.623  11.612   3.666  1.0515 -0.0195  0.4935
  561MOL0     H75677   3.693  11.742   3.757  1.5233  0.0301  0.3666
  561MOL0     H75678   3.762  11.863   3.544  0.0446  0.2369 -1.4299
  561MOL0     H75679   3.707  11.744   3.445 -0.0901 -0.2448 -0.3493
  561MOL0     H75680   3.471  11.798   3.543  0.8916 -0.8806 -2.5449
  561MOL0     H75681   3.545  11.915   3.654  1.6574  1.8299 -0.8831
  561MOL0     H75682   3.640  12.028   3.444  2.6415  0.2575 -0.9799
  561MOL0     H75683   3.536  11.912   3.345 -1.4224 -3.1348  2.3417
  561MOL0     H75684   3.416  12.096   3.559 -0.5007  3.0558  1.0851
  561MOL0     H75685   3.342  12.006   3.419 -1.0937  1.8252  0.3799
  561MOL0     H75686   3.302  12.116   3.205 -0.3811  1.9093 -2.0095
  561MOL0     H75687   3.360  12.485   3.086  0.9629 -0.0736 -2.0248
  561MOL0     H75688   3.419  12.339   3.003 -0.5881  0.7873 -1.0056
  561MOL0     H75689   3.212  12.222   3.023  0.8492 -1.7070  1.4732
  561MOL0     H75690   3.180  12.367   2.950 -0.8026 -3.1205 -0.6866
  561MOL0     H75691   3.134  12.269   3.244  0.2647 -0.5142 -1.0248
  561MOL0     H75692   3.007  12.296   3.138  0.1834  0.7890 -1.4177
  561MOL0     H75693   3.186  12.524   3.237  0.5634 -1.0323  0.5913
  561MOL0     H75694   3.024  12.503   3.305  0.6763  0.3953 -0.6273
  561MOL0     H75695   2.968  12.698   2.925 -1.5442  0.5838 -4.0847
  561MOL0     H75696   2.836  12.752   2.729  2.0761 -0.3636  3.3851
  561MOL0     H75697   2.686  12.679   2.705  4.9801 -0.7320 -1.8461
  561MOL0     H75698   2.696  12.833   2.810  4.2478  2.0267  1.3294
  561MOL0     H75699   2.368  12.479   2.665 -0.9298  3.3766 -0.8328
  561MOL0     H75700   2.158  12.488   2.568  2.5238 -3.1040  0.3826
  561MOL0     H75701   1.903  12.735   2.747 -0.0221 -0.2568  0.6930
  561MOL0     H75702   1.901  12.711   2.568  0.2288  1.1513  0.9228
  561MOL0     H75703   1.696  12.621   2.776 -0.7005 -0.6129 -0.4929
  561MOL0     H75704   1.683  12.759   2.659 -1.1634 -0.1546 -0.0138
  561MOL0     H75705   1.724  12.469   2.585 -0.0727 -0.1636  0.5530
  561MOL0     H75706   1.678  12.594   2.469 -1.3374  1.2765  0.6278
  561MOL0     H75707   1.514  12.453   2.679  2.8000 -1.6290 -1.3079
  561MOL0     H75708   1.463  12.616   2.610 -2.6865 -1.4715  0.4618
  561MOL0     H75709   1.533  12.367   2.451  0.5796 -0.4045  0.5185
  561MOL0     H75710   1.489  12.519   2.380  0.4476 -2.2392 -0.4780
  561MOL0     H75711   1.267  12.503   2.476  0.3154 -1.0221 -0.3730
  561MOL0     H75712   1.303  12.386   2.355 -2.3608  0.6029 -0.2466
  561MOL0     H75713   1.307  12.323   2.656 -4.5115  0.5976 -0.2542
  561MOL0     H75714   1.370  12.213   2.529 -2.3971 -1.0540  0.3389
  561MOL0     H75715   1.169  12.147   2.597 -0.0443  0.6130  1.5291
  561MOL0     H75716   1.144  12.210   2.432 -0.7485  0.3516 -0.5085
  561MOL0     H75717   1.977  12.588   2.954  0.4275  4.1498 -0.8904
  561MOL0     H75718   2.199  12.538   3.060 -1.8573  1.2545  0.4203
  561MOL0     H75719   2.592  12.451   3.123  0.7408  0.7867  2.7692
  561MOL0     H75720   2.814  12.454   3.231 -1.2200 -0.7046 -0.4364
  561MOL0     H75721   4.086  11.184   3.788 -0.2499 -0.4539 -0.3640
  561MOL0     H75722   4.297  11.054   3.801  1.9595  0.5678  4.5960
  561MOL0     H75723   4.907  11.167   3.660  2.4866 -1.7470 -0.2360
  561MOL0     H75724   5.122  11.082   3.783  0.3068  1.5112 -1.4154
  561MOL0     H75725   5.023  10.862   4.148 -0.5055  1.6792  2.1703
  561MOL0     H75726   5.207  10.857   4.159 -0.5433  0.1875  1.1704
  561MOL0     H75727   5.020  11.048   4.287  2.2458 -1.8473  4.0079
  561MOL0     H75728   5.184  11.103   4.221  4.2121 -2.4491 -2.2276
  561MOL0     H75729   5.183  11.048   4.458 -0.1761 -1.2259  1.6301
  561MOL0     H75730   5.288  10.942   4.362  0.6430  1.3344  0.9384
  561MOL0     H75731   5.193  10.787   4.507 -1.3156 -1.3816  1.4901
  561MOL0     H75732   5.068  10.780   4.371 -1.6220  1.0569  0.9132
  561MOL0     H75733   4.812  10.920   4.640 -0.7890  2.1765  0.2513
  561MOL0     H75734   4.892  11.022   4.130 -2.4466 -1.2303 -0.2227
  561MOL0     H75735   4.682  11.115   4.010  0.9294 -1.1132  1.7259
  562MOL0     O75736   1.554   9.516   4.722  0.6404  0.8195 -0.4875
  562MOL0     C75737   1.469   9.464   4.807 -0.4783  0.1297  0.0516
  562MOL0     O75738   1.352   9.523   4.837  0.2753  0.7918  0.3960
  562MOL0     C75739   1.307   9.639   4.784  0.3768  0.3575  0.1842
  562MOL0     C75740   1.166   9.660   4.806  0.0802 -0.6211 -0.3402
  562MOL0     C75741   1.090   9.769   4.761  0.3929  0.4105 -0.3706
  562MOL0     C75742   1.160   9.867   4.689 -0.1051  0.3235  0.2316
  562MOL0     O75743   1.089   9.984   4.654 -0.0537  0.2848 -0.2771
  562MOL0     C75744   1.157  10.095   4.592 -0.2952  0.2468 -1.0630
  562MOL0     C75745   1.042  10.186   4.559  0.0353  0.4672  0.1986
  562MOL0     C75746   1.089  10.298   4.468  0.1233 -0.1445 -0.5163
  562MOL0     C75747   0.960  10.376   4.427  0.0553 -0.2195 -0.2774
  562MOL0     C75748   0.990  10.501   4.332 -0.2914  0.4975 -0.1554
  562MOL0     C75749   1.106  10.592   4.382 -0.5647 -0.5643  0.2436
  562MOL0     C75750   1.148  10.704   4.287  0.3544  0.3382  0.0713
  562MOL0     C75751   1.036  10.792   4.227 -0.3218 -0.2165  0.1827
  562MOL0     N75752   1.097  10.893   4.127 -0.0232  0.3407 -0.7300
  562MOL0     C75753   1.196  10.985   4.159  0.6029  0.2684 -0.2992
  562MOL0     C75754   1.227  11.052   4.051  0.0252 -0.5233 -0.0005
  562MOL0     C75755   1.343  11.144   4.033 -0.4766  0.9721 -0.3202
  562MOL0     C75756   1.367  11.238   4.149 -0.0800 -0.3265  0.2937
  562MOL0     C75757   1.292  11.383   4.154  0.3987  0.1149  0.1799
  562MOL0     C75758   1.152  11.371   4.105  0.1137  0.2972 -0.8372
  562MOL0     O75759   1.087  11.267   4.197  0.1909 -0.4218  0.5144
  562MOL0     C75760   0.953  11.254   4.170  0.7174 -0.1112  0.3037
  562MOL0     C75761   0.866  11.320   4.085  0.5632  0.1626 -0.1348
  562MOL0     C75762   0.733  11.281   4.073 -0.0350  0.4384 -0.0527
  562MOL0     C75763   0.652  11.369   3.985  0.8488  0.3578 -0.0045
  562MOL0     C75764   0.686  11.187   4.170 -0.2468  0.1014  0.1551
  562MOL0     C75765   0.539  11.148   4.181  0.8074 -1.0758  0.0013
  562MOL0     O75766   0.493  11.122   4.307  0.1331  0.3710  0.3456
  562MOL0     C75767   0.367  11.068   4.309  0.3595 -0.4389 -0.3142
  562MOL0     C75768   0.362  10.929   4.295 -0.1817 -0.3763 -0.3851
  562MOL0     C75769   0.239  10.858   4.305  1.0190  0.6153 -0.2076
  562MOL0     C75770   0.114  10.918   4.320 -1.1551  0.6375 -0.1901
  562MOL0     O75771  -0.002  10.853   4.324 -0.5000 -0.1152  0.0284
  562MOL0     C75772  -0.013  10.794   4.461 -0.6581 -0.3984  1.3462
  562MOL0     C75773  -0.154  10.753   4.501  0.9729 -0.3131  0.4799
  562MOL0     C75774  -0.244  10.885   4.478  0.1497  0.1035 -0.0144
  562MOL0     C75775  -0.385  10.857   4.531 -0.0715 -0.2484  1.3094
  562MOL0     C75776  -0.481  10.975   4.497  0.3521  0.3758  0.5863
  562MOL0     C75777  -0.619  10.979   4.570 -0.7734 -0.0516  0.0834
  562MOL0     C75778  -0.709  11.108   4.545 -0.1983 -0.2133 -0.6211
  562MOL0     C75779  -0.803  11.118   4.671 -0.1046 -0.7530  0.4900
  562MOL0    Cl75780  -0.928  11.002   4.664  0.0592 -0.3509  0.2279
  562MOL0     C75781   0.116  11.065   4.322  0.5411 -0.1548 -1.4083
  562MOL0     C75782   0.238  11.135   4.316 -0.1389  0.2107 -0.2377
  562MOL0     O75783   0.473  11.146   4.078 -0.0763 -0.1621 -0.3227
  562MOL0     C75784   0.774  11.112   4.255 -0.5408  0.1370  0.5161
  562MOL0     C75785   0.912  11.147   4.248  0.7146  0.0433  0.1067
  562MOL0     N75786   1.141  11.002   3.951 -0.2857  0.3700  0.0055
  562MOL0     N75787   1.063  10.906   3.990 -0.6686 -0.4301 -0.1305
  562MOL0     C75788   1.304   9.851   4.657  0.2598 -0.3885 -0.5800
  562MOL0     C75789   1.367   9.737   4.699  0.4333 -0.0286 -0.9287
  562MOL0     C75790   1.484   9.323   4.846 -0.5401 -0.7259 -0.4508
  562MOL0     C75791   1.600   9.253   4.813 -0.1481  1.2493 -0.6059
  562MOL0     C75792   1.623   9.119   4.854 -0.0272  0.1380  0.5524
  562MOL0     C75793   1.526   9.059   4.936 -0.3889  0.1512  0.4465
  562MOL0     O75794   1.537   8.932   4.973 -0.0020  0.2419  0.0460
  562MOL0     C75795   1.614   8.902   5.093  0.2780  0.2412  0.0994
  562MOL0     C75796   1.764   8.897   5.064 -0.0879  1.2388  0.5508
  562MOL0     C75797   1.813   8.800   4.951  0.0712  0.4728 -0.1639
  562MOL0     C75798   1.768   8.656   4.974 -0.0809  1.0037 -0.0018
  562MOL0     C75799   1.855   8.552   4.932 -0.1845  0.2201  0.3044
  562MOL0     C75800   1.921   8.462   4.885  0.8299 -0.1502 -0.1305
  562MOL0     C75801   1.407   9.116   4.965  0.6208 -0.2759  0.5143
  562MOL0     C75802   1.384   9.252   4.919 -0.4826  0.7598 -0.8499
  562MOL0     H75803   1.123   9.583   4.868 -0.0247 -2.5276 -2.6271
  562MOL0     H75804   0.985   9.771   4.788  0.3669 -0.2520 -0.4051
  562MOL0     H75805   1.229  10.148   4.654 -0.0440 -1.9595  0.6399
  562MOL0     H75806   1.207  10.059   4.502  0.5300 -0.2649 -0.4094
  562MOL0     H75807   0.961  10.136   4.504 -0.9889  1.5011  0.7227
  562MOL0     H75808   1.000  10.226   4.652 -0.2128  1.0650 -0.1609
  562MOL0     H75809   1.160  10.359   4.524 -0.9845  1.9933 -1.3155
  562MOL0     H75810   1.144  10.266   4.379  2.1569  1.3179  0.1438
  562MOL0     H75811   0.885  10.315   4.375 -0.6328  0.0738  0.3558
  562MOL0     H75812   0.914  10.408   4.521  2.0281 -0.4309  0.8250
  562MOL0     H75813   1.017  10.464   4.232  0.5574  1.9037 -0.4727
  562MOL0     H75814   0.897  10.556   4.317 -1.0454 -0.6951  0.0295
  562MOL0     H75815   1.075  10.637   4.476  1.4708  0.5762  0.4323
  562MOL0     H75816   1.193  10.526   4.395  0.0512  0.6570  2.7983
  562MOL0     H75817   1.204  10.774   4.350 -1.9677  0.7487  1.8187
  562MOL0     H75818   1.214  10.670   4.206 -2.4333  0.2784 -2.3548
  562MOL0     H75819   0.997  10.843   4.316 -0.8201 -1.8258  0.9161
  562MOL0     H75820   0.953  10.736   4.184  0.9980 -0.4985 -2.1740
  562MOL0     H75821   1.249  10.991   4.254 -0.4274 -3.3650  0.6427
  562MOL0     H75822   1.433  11.082   4.029 -0.0225  1.2336  2.7921
  562MOL0     H75823   1.333  11.188   3.934  0.2025  1.0869 -0.3432
  562MOL0     H75824   1.472  11.266   4.145  0.3454 -1.7874  0.8256
  562MOL0     H75825   1.342  11.183   4.240  0.3769 -1.9649 -0.5318
  562MOL0     H75826   1.357  11.452   4.099  1.8718 -2.1085 -1.0195
  562MOL0     H75827   1.278  11.422   4.255 -2.6807 -2.4758  0.9409
  562MOL0     H75828   1.153  11.329   4.004  1.0208 -1.6221 -0.0816
  562MOL0     H75829   1.103  11.468   4.111 -3.4095 -1.2520 -1.8411
  562MOL0     H75830   0.894  11.409   4.030 -2.0772 -0.5792 -2.9916
  562MOL0     H75831   0.573  11.415   4.044  1.3927  1.5311 -0.1779
  562MOL0     H75832   0.711  11.446   3.935  1.4827 -0.2124 -0.1453
  562MOL0     H75833   0.593  11.308   3.915  1.2681  1.4415 -1.3319
  562MOL0     H75834   0.457  10.878   4.285  0.8023  1.2158  0.4367
  562MOL0     H75835   0.255  10.751   4.294  2.4768  0.8608 -0.5754
  562MOL0     H75836   0.046  10.702   4.459 -1.8112 -1.3854 -4.2672
  562MOL0     H75837   0.040  10.857   4.533  0.7496  0.0158  0.0112
  562MOL0     H75838  -0.182  10.668   4.439 -0.5910  1.0517 -0.7501
  562MOL0     H75839  -0.163  10.725   4.607 -0.9323  3.0666  1.3495
  562MOL0     H75840  -0.247  10.920   4.374 -1.0932 -0.2543 -0.1208
  562MOL0     H75841  -0.198  10.965   4.536  1.2900 -0.1843 -0.5024
  562MOL0     H75842  -0.423  10.767   4.482 -0.9378  1.3391 -1.1532
  562MOL0     H75843  -0.382  10.850   4.640 -0.2546  2.7150  1.5945
  562MOL0     H75844  -0.503  10.974   4.390  3.4444 -2.7356 -0.1859
  562MOL0     H75845  -0.432  11.065   4.535  2.2402  0.2852 -1.4453
  562MOL0     H75846  -0.674  10.887   4.553 -2.8822  1.2168 -0.3705
  562MOL0     H75847  -0.586  10.979   4.675  2.6525  4.1881 -0.6797
  562MOL0     H75848  -0.764  11.094   4.452 -2.0885 -6.1294  0.9128
  562MOL0     H75849  -0.648  11.198   4.529 -0.5687  0.0233 -0.7219
  562MOL0     H75850  -0.846  11.219   4.672 -2.0464 -1.4738  3.0282
  562MOL0     H75851  -0.747  11.104   4.764 -0.9404 -1.0654  0.9655
  562MOL0     H75852   0.021  11.119   4.321 -0.8238 -2.3044  0.5655
  562MOL0     H75853   0.233  11.243   4.320 -0.5403  0.1656  1.7323
  562MOL0     H75854   0.738  11.031   4.318 -5.1421  2.9009  1.9884
  562MOL0     H75855   0.980  11.098   4.317 -0.4962 -0.5737  0.8986
  562MOL0     H75856   1.360   9.926   4.602  1.5112 -1.2920 -0.5871
  562MOL0     H75857   1.474   9.723   4.685  0.3559 -1.0901 -0.5689
  562MOL0     H75858   1.675   9.306   4.755 -0.0085 -0.5545 -2.1753
  562MOL0     H75859   1.705   9.060   4.814 -1.5674 -3.4788  2.2822
  562MOL0     H75860   1.583   8.969   5.174 -0.5926 -1.2904  1.0889
  562MOL0     H75861   1.576   8.807   5.133 -0.2487  0.9172  1.2567
  562MOL0     H75862   1.810   8.880   5.161  1.4382 -0.8447 -0.4617
  562MOL0     H75863   1.803   8.989   5.021  1.5604 -0.8937 -2.9879
  562MOL0     H75864   1.922   8.798   4.945  0.1698 -3.6902 -0.0057
  562MOL0     H75865   1.768   8.831   4.856 -3.9905  0.6053  1.5896
  562MOL0     H75866   1.683   8.642   4.907  1.8187  2.0099 -2.7871
  562MOL0     H75867   1.755   8.649   5.082  2.7706  1.1158  0.4373
  562MOL0     H75868   1.989   8.383   4.860  1.1760  0.5078 -1.3899
  562MOL0     H75869   1.331   9.058   5.016  1.3884 -1.2083  0.6200
  562MOL0     H75870   1.288   9.297   4.943 -0.9620  1.9044 -4.4046
  563MOL0     O75871  11.026   0.039   5.436 -0.1642 -0.0793  0.1977
  563MOL0     C75872  11.079   0.034   5.331 -0.8791  0.0382  0.1111
  563MOL0     O75873  11.022   0.008   5.211  1.1530 -0.2624 -0.2561
  563MOL0     C75874  10.903  -0.060   5.201  0.5190 -0.6493  0.5169
  563MOL0     C75875  10.793   0.006   5.266 -0.5318 -0.6898  0.6207
  563MOL0     C75876  10.658  -0.041   5.249 -0.0072  0.3464 -0.1823
  563MOL0     C75877  10.637  -0.154   5.171 -0.0801  0.5508 -0.4935
  563MOL0     O75878  10.512  -0.209   5.163 -0.6677  0.8223 -0.8769
  563MOL0     C75879  10.401  -0.132   5.111 -0.0795 -0.1445 -0.1884
  563MOL0     C75880  10.336  -0.222   5.017  0.2846 -0.4583 -0.2979
  563MOL0     C75881  10.198  -0.161   4.977  0.0693  0.4994  1.1935
  563MOL0     C75882  10.126  -0.245   4.871  0.0868 -0.0658 -0.5233
  563MOL0     C75883   9.977  -0.215   4.870  0.7135  0.2770 -0.8306
  563MOL0     C75884   9.903  -0.307   4.786 -0.1004  1.0697 -0.5443
  563MOL0     C75885   9.757  -0.286   4.761 -0.1799 -0.2015 -1.1054
  563MOL0     C75886   9.694  -0.146   4.770  0.4647  0.1477  0.8120
  563MOL0     N75887   9.545  -0.157   4.739  0.4721  0.8968 -0.1682
  563MOL0     C75888   9.487  -0.148   4.621 -1.1337 -0.1195  0.4761
  563MOL0     C75889   9.359  -0.168   4.641 -0.7072 -0.1488 -0.7666
  563MOL0     C75890   9.264  -0.196   4.528  0.3772 -0.2504 -0.6129
  563MOL0     C75891   9.162  -0.309   4.558 -0.4216  0.3014 -0.7175
  563MOL0     C75892   9.090  -0.328   4.428 -0.0003 -0.0763  0.6285
  563MOL0     C75893   8.964  -0.416   4.445  0.0993 -0.4190 -0.6641
  563MOL0     O75894   8.866  -0.388   4.344 -0.0692 -0.6136 -0.0396
  563MOL0     C75895   8.739  -0.433   4.363  0.3775  0.7005 -0.4968
  563MOL0     C75896   8.629  -0.355   4.347  1.3015 -0.5820 -0.0195
  563MOL0     C75897   8.497  -0.404   4.363 -0.2548 -0.1824  0.6319
  563MOL0     C75898   8.385  -0.301   4.356  0.0650  0.4982  0.0409
  563MOL0     C75899   8.477  -0.541   4.389  0.1637  0.8479  0.9353
  563MOL0     C75900   8.346  -0.614   4.400  0.3615 -0.0066  0.5429
  563MOL0     O75901   8.350  -0.748   4.405  0.6070  0.1471  0.0048
  563MOL0     C75902   8.229  -0.813   4.419 -0.4962 -0.0798 -0.2098
  563MOL0     C75903   8.169  -0.882   4.311 -0.1775  0.0467 -0.0690
  563MOL0     C75904   8.052  -0.955   4.329  0.1043 -0.2509 -0.3032
  563MOL0     C75905   7.989  -0.966   4.456  0.3506 -0.0928  0.2866
  563MOL0     O75906   7.883  -1.053   4.480  0.0928 -0.0052 -0.2336
  563MOL0     C75907   7.860  -1.167   4.392  0.3459 -0.0863 -0.9793
  563MOL0     C75908   7.790  -1.298   4.450  0.5222  0.1421 -0.5737
  563MOL0     C75909   7.655  -1.254   4.512 -0.3274 -0.1142  0.6093
  563MOL0     C75910   7.591  -1.363   4.606  0.1674 -0.4269 -0.7392
  563MOL0     C75911   7.446  -1.317   4.637  0.4269 -0.0687 -0.2546
  563MOL0     C75912   7.373  -1.423   4.721 -0.6728 -0.8977 -0.5431
  563MOL0     C75913   7.411  -1.408   4.871 -0.9058  0.4879 -0.1857
  563MOL0     C75914   7.432  -1.546   4.941  0.5909  0.3259  0.5187
  563MOL0    Cl75915   7.272  -1.620   4.961 -0.1476 -0.0863 -0.3364
  563MOL0     C75916   8.049  -0.894   4.556 -1.4068 -0.0054 -0.0295
  563MOL0     C75917   8.167  -0.816   4.540  0.0306  0.2858  0.7131
  563MOL0     O75918   8.243  -0.550   4.394  0.1243  0.4563  0.2466
  563MOL0     C75919   8.594  -0.616   4.407  0.2445 -0.4179 -0.0005
  563MOL0     C75920   8.722  -0.566   4.397 -0.5703 -0.2128  0.3466
  563MOL0     N75921   9.332  -0.182   4.774  0.6274 -0.4686 -0.1213
  563MOL0     N75922   9.448  -0.175   4.834 -0.4991 -0.2517 -0.2736
  563MOL0     C75923  10.745  -0.218   5.108 -0.3515 -0.4039 -0.2809
  563MOL0     C75924  10.875  -0.172   5.120  0.4859 -0.6706  0.6186
  563MOL0     C75925  11.215   0.097   5.321 -0.2636 -0.0509 -0.4633
  563MOL0     C75926  11.271   0.139   5.202  0.5421 -0.6562 -0.6330
  563MOL0     C75927  11.401   0.195   5.197 -0.4144  0.2404  0.3509
  563MOL0     C75928  11.476   0.192   5.310 -0.5419 -1.1660 -0.6345
  563MOL0     O75929  11.609   0.233   5.321 -0.0925 -0.6147 -0.5182
  563MOL0     C75930  11.669   0.303   5.210  0.1610  0.4312 -0.3969
  563MOL0     C75931  11.764   0.399   5.285 -0.1982  0.0308 -0.0757
  563MOL0     C75932  11.832   0.480   5.175 -0.4645 -0.2602 -0.0826
  563MOL0     C75933  11.937   0.578   5.234  0.4211 -0.7169 -0.1257
  563MOL0     C75934  12.025   0.502   5.326 -0.5431  0.0970 -0.4534
  563MOL0     C75935  12.096   0.441   5.402  0.6271 -0.8878 -0.2166
  563MOL0     C75936  11.418   0.156   5.424  0.2755 -0.3071 -0.0759
  563MOL0     C75937  11.287   0.113   5.438  0.3958 -0.1606 -0.4955
  563MOL0     H75938  10.809   0.100   5.317  0.8848 -0.7354  0.3050
  563MOL0     H75939  10.587   0.019   5.305  2.5841  1.8572  1.6925
  563MOL0     H75940  10.327  -0.112   5.189 -1.0845 -0.6867 -0.9835
  563MOL0     H75941  10.424  -0.037   5.061 -1.8747  0.1412 -0.5280
  563MOL0     H75942  10.389  -0.246   4.924  1.8675  2.7750 -0.3757
  563MOL0     H75943  10.319  -0.318   5.066 -0.2484 -0.3049 -0.1804
  563MOL0     H75944  10.130  -0.167   5.063 -1.0554  1.0754  0.3824
  563MOL0     H75945  10.209  -0.058   4.940 -0.6793 -0.2441 -1.3166
  563MOL0     H75946  10.173  -0.237   4.772  2.2631 -2.6127  0.1906
  563MOL0     H75947  10.132  -0.350   4.900  4.1048  0.3636  0.7952
  563MOL0     H75948   9.933  -0.222   4.970 -1.1513  0.0662 -1.6314
  563MOL0     H75949   9.953  -0.112   4.842 -0.8397  0.5059  1.1180
  563MOL0     H75950   9.960  -0.308   4.693  1.9763 -0.5477  0.6525
  563MOL0     H75951   9.909  -0.407   4.830  2.2666  1.1020 -0.6940
  563MOL0     H75952   9.739  -0.328   4.662  2.8453 -0.5500 -1.5807
  563MOL0     H75953   9.702  -0.355   4.826  2.4721 -0.2729  1.2550
  563MOL0     H75954   9.750  -0.081   4.703  0.2261  0.3522  0.8067
  563MOL0     H75955   9.706  -0.112   4.873 -1.2321 -1.7875  1.7221
  563MOL0     H75956   9.535  -0.124   4.527  0.5453  1.6631  1.7116
  563MOL0     H75957   9.201  -0.107   4.512  1.2845  0.4562 -0.3516
  563MOL0     H75958   9.323  -0.209   4.437  0.4309  1.4774 -0.8596
  563MOL0     H75959   9.091  -0.275   4.633  0.3369  1.1204 -0.3512
  563MOL0     H75960   9.229  -0.394   4.576 -1.7137 -1.2038 -2.5887
  563MOL0     H75961   9.149  -0.387   4.356 -1.5443 -0.3936 -0.4270
  563MOL0     H75962   9.061  -0.235   4.379  0.7159 -0.6647 -1.0034
  563MOL0     H75963   8.926  -0.397   4.546  0.3725  0.7028 -0.7596
  563MOL0     H75964   8.992  -0.522   4.444 -1.0804 -0.8030  1.3478
  563MOL0     H75965   8.664  -0.252   4.342 -0.2689  0.3621  4.3030
  563MOL0     H75966   8.427  -0.201   4.344  0.0754  0.7236  1.6979
  563MOL0     H75967   8.299  -0.324   4.292  0.9790 -1.4300 -0.5759
  563MOL0     H75968   8.339  -0.297   4.455  0.1045  0.3318  0.0658
  563MOL0     H75969   8.223  -0.881   4.217  0.4329 -0.6868  0.2616
  563MOL0     H75970   8.005  -1.009   4.248 -1.8247 -1.0113  1.2376
  563MOL0     H75971   7.792  -1.124   4.319  0.7508 -1.8483 -2.4711
  563MOL0     H75972   7.952  -1.196   4.340 -0.0218 -2.5320 -0.4136
  563MOL0     H75973   7.775  -1.366   4.367 -1.7374  0.4482 -0.4776
  563MOL0     H75974   7.846  -1.356   4.524 -1.2903 -3.6331 -1.9493
  563MOL0     H75975   7.588  -1.243   4.426 -1.7205 -1.1205  1.5053
  563MOL0     H75976   7.664  -1.158   4.562  1.3000  0.7458 -1.2131
  563MOL0     H75977   7.574  -1.458   4.556  1.0529 -0.6267 -0.6866
  563MOL0     H75978   7.657  -1.381   4.691  0.1848  1.0148 -0.4136
  563MOL0     H75979   7.387  -1.296   4.547 -0.1590  0.5332  0.2575
  563MOL0     H75980   7.456  -1.217   4.681 -2.5292  1.8091 -3.3274
  563MOL0     H75981   7.265  -1.408   4.717 -0.5662  0.7277  1.0526
  563MOL0     H75982   7.403  -1.518   4.676  0.5918  0.7543 -3.4306
  563MOL0     H75983   7.332  -1.360   4.930 -1.5300  3.5118 -3.1941
  563MOL0     H75984   7.508  -1.359   4.884 -0.7823  0.5076 -1.1159
  563MOL0     H75985   7.488  -1.530   5.034  1.5192  0.3374 -0.0288
  563MOL0     H75986   7.492  -1.604   4.870  1.1715  0.9292  0.5108
  563MOL0     H75987   8.005  -0.901   4.655  1.1765  1.9135  1.3893
  563MOL0     H75988   8.209  -0.768   4.628 -0.8997 -0.0510  1.3557
  563MOL0     H75989   8.585  -0.720   4.435 -1.9493 -0.4879 -0.7946
  563MOL0     H75990   8.810  -0.628   4.404 -0.4473 -0.2033 -0.9951
  563MOL0     H75991  10.718  -0.303   5.047 -0.7561 -1.0911  0.8179
  563MOL0     H75992  10.954  -0.208   5.056 -1.7955 -0.6106 -2.4356
  563MOL0     H75993  11.201   0.129   5.119 -0.6898 -0.0689  0.3149
  563MOL0     H75994  11.439   0.242   5.107 -0.3546 -0.4625  0.0044
  563MOL0     H75995  11.717   0.224   5.152  1.9092  0.5631  0.8061
  563MOL0     H75996  11.610   0.359   5.137  3.2732  2.9640 -1.2098
  563MOL0     H75997  11.826   0.340   5.353  0.0556 -2.9645 -2.6375
  563MOL0     H75998  11.707   0.468   5.347 -1.4575 -0.5327 -0.5782
  563MOL0     H75999  11.760   0.540   5.120 -0.3842  1.7309  1.8644
  563MOL0     H76000  11.880   0.404   5.111 -0.2295 -0.0746 -0.1301
  563MOL0     H76001  11.893   0.661   5.290 -0.8687  2.0744 -4.7077
  563MOL0     H76002  11.992   0.629   5.154 -4.0508  2.4161 -1.6180
  563MOL0     H76003  12.151   0.391   5.479  0.6496  1.4481  1.3917
  563MOL0     H76004  11.482   0.163   5.511 -2.7764  1.6270  2.1850
  563MOL0     H76005  11.246   0.100   5.538  1.0030 -1.3254 -0.3761
  564MOL0     O76006   4.447   5.787   2.944 -0.0341  0.0275 -0.1429
  564MOL0     C76007   4.480   5.867   3.037  0.0256  0.2930  0.0968
  564MOL0     O76008   4.395   5.909   3.136  0.1887  0.1670  0.4221
  564MOL0     C76009   4.270   5.854   3.161  0.3162 -0.3707  0.1794
  564MOL0     C76010   4.234   5.729   3.138  1.2720 -1.6158  0.5777
  564MOL0     C76011   4.100   5.693   3.168 -0.5374  0.1543  0.0974
  564MOL0     C76012   4.005   5.786   3.218 -0.9952 -0.2336  0.5149
  564MOL0     O76013   3.877   5.740   3.244 -0.0475 -1.0110 -0.1028
  564MOL0     C76014   3.768   5.834   3.245  0.2895  0.5624 -0.4213
  564MOL0     C76015   3.643   5.729   3.235  0.2303  1.1670 -0.1408
  564MOL0     C76016   3.519   5.788   3.162 -0.5453  0.1804  0.7964
  564MOL0     C76017   3.473   5.909   3.244  0.3947  1.1417  0.0733
  564MOL0     C76018   3.351   5.970   3.179 -0.0173 -0.1320  0.2992
  564MOL0     C76019   3.347   6.123   3.167  0.2007  0.3170 -0.1266
  564MOL0     C76020   3.364   6.203   3.300 -0.2511 -0.2004  0.0271
  564MOL0     C76021   3.291   6.344   3.293  0.4331  0.1469  0.4352
  564MOL0     N76022   3.141   6.346   3.279 -0.7664  0.4720 -0.0833
  564MOL0     C76023   3.046   6.302   3.368  0.0951 -0.3721 -0.0710
  564MOL0     C76024   2.932   6.338   3.297 -0.3808  0.0495  0.6820
  564MOL0     C76025   2.799   6.308   3.342  0.3292  0.6076 -0.2419
  564MOL0     C76026   2.747   6.167   3.331  0.4624 -0.1307  0.4814
  564MOL0     C76027   2.722   6.119   3.183 -1.0420 -0.0771  0.1267
  564MOL0     C76028   2.646   6.217   3.092  0.3170  0.5098 -0.0570
  564MOL0     O76029   2.531   6.269   3.162 -0.0032  0.0028  0.0430
  564MOL0     C76030   2.405   6.212   3.141  1.0557 -0.5838 -0.8501
  564MOL0     C76031   2.375   6.098   3.071 -0.1041  0.1318  0.0264
  564MOL0     C76032   2.252   6.030   3.083  0.3145 -0.4383  0.8735
  564MOL0     C76033   2.236   5.897   3.019  0.3142  1.1600 -0.2185
  564MOL0     C76034   2.155   6.089   3.168  0.0168 -0.1102  0.3146
  564MOL0     C76035   2.019   6.027   3.197  0.6086 -0.0818 -0.2266
  564MOL0     O76036   1.958   6.070   3.307  0.7258  0.0090  0.0292
  564MOL0     C76037   1.857   6.013   3.377  0.3630  0.1445 -0.2996
  564MOL0     C76038   1.766   6.099   3.443 -0.3295 -0.4237  0.0626
  564MOL0     C76039   1.640   6.049   3.491 -0.0429  0.5178 -0.3486
  564MOL0     C76040   1.624   5.912   3.487 -0.2624  1.3725  0.3275
  564MOL0     O76041   1.504   5.834   3.518 -0.0642 -0.4070 -0.1404
  564MOL0     C76042   1.388   5.903   3.565  0.4733 -0.5474 -0.0007
  564MOL0     C76043   1.277   5.802   3.597  0.3723 -0.0266 -0.7151
  564MOL0     C76044   1.144   5.873   3.562 -0.1371  0.3534 -0.4189
  564MOL0     C76045   1.028   5.773   3.601 -0.2884  0.3058  0.3535
  564MOL0     C76046   0.887   5.835   3.596 -0.2608  0.3927 -0.2951
  564MOL0     C76047   0.775   5.756   3.666 -0.4599 -0.0730  0.6111
  564MOL0     C76048   0.633   5.811   3.648  0.0296  0.0556  0.3500
  564MOL0     C76049   0.539   5.747   3.755  0.0957 -0.3759  0.5971
  564MOL0    Cl76050   0.385   5.839   3.711 -0.4866  0.1799 -0.4112
  564MOL0     C76051   1.715   5.817   3.431 -0.8202 -0.5270 -0.7695
  564MOL0     C76052   1.833   5.871   3.381 -0.6980 -0.7697 -0.0949
  564MOL0     O76053   1.971   5.940   3.119  0.6944  0.1218 -0.9324
  564MOL0     C76054   2.181   6.213   3.226  0.5791  0.4465 -0.2366
  564MOL0     C76055   2.305   6.269   3.217  0.3656 -0.0030 -0.2469
  564MOL0     N76056   2.962   6.391   3.168  0.3147  0.2945 -0.1957
  564MOL0     N76057   3.086   6.384   3.160 -0.6457  0.2044 -0.4745
  564MOL0     C76058   4.046   5.919   3.239  0.0586  0.4906 -0.5592
  564MOL0     C76059   4.182   5.951   3.207 -0.3334 -0.3816 -0.4044
  564MOL0     C76060   4.618   5.919   3.041 -0.2153  0.7187  0.0164
  564MOL0     C76061   4.703   5.892   2.934 -0.5099 -0.1016 -0.6411
  564MOL0     C76062   4.830   5.947   2.922 -0.0466 -0.2327 -0.5384
  564MOL0     C76063   4.882   6.027   3.025 -0.7060 -0.2130 -0.2262
  564MOL0     O76064   5.003   6.098   3.027 -0.2623  0.1322 -0.5183
  564MOL0     C76065   5.086   6.097   2.910  0.6398  0.9481  0.6361
  564MOL0     C76066   5.227   6.113   2.939 -0.8267  0.2186  0.4058
  564MOL0     C76067   5.262   6.252   2.984 -0.3841  0.2436  0.8757
  564MOL0     C76068   5.394   6.276   3.032 -0.0234 -0.0069  0.1472
  564MOL0     C76069   5.433   6.424   3.035 -0.6382 -0.8186  0.2908
  564MOL0     C76070   5.465   6.538   3.046  0.6598 -0.3276  0.3353
  564MOL0     C76071   4.804   6.044   3.140  0.9304 -0.2013 -0.4650
  564MOL0     C76072   4.673   5.993   3.146  0.6330 -0.8727  0.2242
  564MOL0     H76073   4.303   5.658   3.095  1.5131 -0.8472 -0.3405
  564MOL0     H76074   4.074   5.588   3.165  0.8178 -0.2911  1.8616
  564MOL0     H76075   3.782   5.891   3.338 -0.3097  2.1468 -1.2701
  564MOL0     H76076   3.776   5.907   3.164  2.8784  0.9859  0.1439
  564MOL0     H76077   3.676   5.652   3.165 -1.0750 -0.1683  0.6761
  564MOL0     H76078   3.626   5.679   3.331  0.8622 -1.0063 -1.1010
  564MOL0     H76079   3.544   5.814   3.059 -0.2726  1.7054  1.2193
  564MOL0     H76080   3.436   5.718   3.146 -0.4036 -0.0443  1.0270
  564MOL0     H76081   3.456   5.883   3.349 -0.1988 -0.5697 -0.4249
  564MOL0     H76082   3.563   5.972   3.241  0.3540  1.2440  0.7738
  564MOL0     H76083   3.329   5.925   3.081 -0.0010 -2.1274  1.1499
  564MOL0     H76084   3.264   5.941   3.239 -1.4300  0.6471 -1.2660
  564MOL0     H76085   3.431   6.154   3.104  0.6641  0.3780  0.5062
  564MOL0     H76086   3.267   6.152   3.099  1.1360  1.2988 -0.8405
  564MOL0     H76087   3.334   6.144   3.387 -0.7334 -0.9074 -0.6026
  564MOL0     H76088   3.472   6.217   3.313 -0.3017 -0.7330  1.1440
  564MOL0     H76089   3.334   6.389   3.203 -1.8176  1.3567 -0.1083
  564MOL0     H76090   3.318   6.399   3.384  0.0891 -0.0031  0.6332
  564MOL0     H76091   3.060   6.248   3.461  1.4693  0.3111  0.1486
  564MOL0     H76092   2.802   6.331   3.449  1.9764 -2.8107  0.6245
  564MOL0     H76093   2.735   6.380   3.291  1.5054  1.4516 -0.5599
  564MOL0     H76094   2.651   6.166   3.383 -0.0828 -1.8969 -0.4474
  564MOL0     H76095   2.810   6.091   3.380  1.3157  0.7740  0.8078
  564MOL0     H76096   2.658   6.031   3.185 -0.4550 -0.5482 -1.1070
  564MOL0     H76097   2.819   6.099   3.137 -0.4479 -1.1605  1.7562
  564MOL0     H76098   2.617   6.173   2.996  0.1268  0.8264 -0.1481
  564MOL0     H76099   2.715   6.299   3.072  0.2687  0.4753 -0.3800
  564MOL0     H76100   2.452   6.049   3.013  2.1646  0.4867  2.5102
  564MOL0     H76101   2.333   5.863   2.982  1.3996  3.1661  0.6674
  564MOL0     H76102   2.195   5.823   3.089 -2.0823  2.7566  0.1946
  564MOL0     H76103   2.169   5.903   2.933  0.2286  0.1097 -0.2446
  564MOL0     H76104   1.790   6.205   3.441 -3.5413  0.4514 -3.0583
  564MOL0     H76105   1.569   6.116   3.540 -0.4018  0.9450 -1.4295
  564MOL0     H76106   1.410   5.974   3.645 -2.3087  0.4684 -0.0123
  564MOL0     H76107   1.345   5.967   3.488 -0.5370  0.3805  1.2941
  564MOL0     H76108   1.285   5.711   3.536  4.1274 -1.3878  1.5086
  564MOL0     H76109   1.274   5.777   3.703 -1.4042  1.9092 -0.2300
  564MOL0     H76110   1.143   5.891   3.454  1.1005  0.9161 -0.3603
  564MOL0     H76111   1.142   5.964   3.622  0.0410 -0.5055  0.9306
  564MOL0     H76112   1.018   5.687   3.535  3.8944  0.2933 -0.5642
  564MOL0     H76113   1.046   5.734   3.702  4.0444 -2.8679 -1.3239
  564MOL0     H76114   0.862   5.836   3.489  0.7408  1.3255 -0.5371
  564MOL0     H76115   0.901   5.934   3.640  1.5192  1.0238 -2.0915
  564MOL0     H76116   0.766   5.654   3.626 -0.0595  1.2090 -3.1294
  564MOL0     H76117   0.800   5.747   3.772 -1.7225  0.2282  0.9436
  564MOL0     H76118   0.591   5.808   3.547 -1.5954  1.7540  0.9213
  564MOL0     H76119   0.633   5.917   3.673 -3.9492  0.9093 -2.1881
  564MOL0     H76120   0.578   5.767   3.855  1.1104 -1.2387  0.3971
  564MOL0     H76121   0.526   5.639   3.740  0.3402 -0.3437  0.1249
  564MOL0     H76122   1.701   5.709   3.422 -0.0503 -0.5543 -1.8599
  564MOL0     H76123   1.896   5.794   3.336 -1.3304 -0.1875 -2.0804
  564MOL0     H76124   2.102   6.257   3.285 -0.4717  0.5119 -1.6275
  564MOL0     H76125   2.326   6.357   3.278  1.4107  0.9551 -1.9049
  564MOL0     H76126   3.970   5.993   3.262  0.0211 -0.0565  1.2834
  564MOL0     H76127   4.205   6.057   3.208 -4.5914  0.6965  0.7079
  564MOL0     H76128   4.661   5.835   2.852 -2.2440 -0.6501  0.5686
  564MOL0     H76129   4.869   5.931   2.822 -0.3824  2.1047 -1.0967
  564MOL0     H76130   5.067   5.999   2.864  1.0964  1.5217 -0.8323
  564MOL0     H76131   5.047   6.171   2.840  2.3115  0.2053 -1.1647
  564MOL0     H76132   5.290   6.090   2.853  0.3428 -0.9045  1.5111
  564MOL0     H76133   5.262   6.041   3.013  3.0708  1.8024  0.3261
  564MOL0     H76134   5.196   6.287   3.064 -1.7377  0.9759 -0.5162
  564MOL0     H76135   5.231   6.310   2.897  1.5014 -1.9577 -1.4214
  564MOL0     H76136   5.465   6.214   2.976 -0.3782  0.4044 -0.7799
  564MOL0     H76137   5.397   6.236   3.134  1.0316  1.2852  0.6478
  564MOL0     H76138   5.502   6.636   3.067 -0.6936  0.2230  0.2719
  564MOL0     H76139   4.835   6.108   3.222 -1.9178  0.9867 -0.1969
  564MOL0     H76140   4.620   5.998   3.241  4.6681 -0.8457  2.7051
  565MOL0     O76141   3.335   3.138   5.047 -0.6149 -0.2698  0.0516
  565MOL0     C76142   3.357   3.020   5.043  0.6529 -0.1521 -0.4275
  565MOL0     O76143   3.316   2.922   5.128 -0.2970 -0.8762  0.4635
  565MOL0     C76144   3.225   2.934   5.233  1.1184 -0.4061 -0.2834
  565MOL0     C76145   3.153   3.046   5.273  0.6209 -0.4995 -0.4113
  565MOL0     C76146   3.060   3.048   5.376  0.1140 -0.3277  0.1666
  565MOL0     C76147   3.020   2.925   5.436 -0.5211 -0.5797 -0.2234
  565MOL0     O76148   2.938   2.953   5.542 -0.4293 -0.4333  0.0635
  565MOL0     C76149   2.854   2.854   5.583  0.4558 -0.6074  0.3961
  565MOL0     C76150   2.724   2.909   5.643 -0.7131  0.0807  0.3238
  565MOL0     C76151   2.628   2.973   5.541 -1.3523  0.2750  0.6499
  565MOL0     C76152   2.503   3.039   5.603  0.1852 -0.8452  0.2554
  565MOL0     C76153   2.451   3.165   5.538 -0.3187 -0.7059 -0.4098
  565MOL0     C76154   2.344   3.144   5.434  0.2478  0.0728 -0.2840
  565MOL0     C76155   2.200   3.090   5.484 -0.9237 -0.3083 -0.4473
  565MOL0     C76156   2.169   3.138   5.621 -1.0088  0.0134 -0.5984
  565MOL0     N76157   2.051   3.076   5.672 -0.0072  0.2139 -1.3592
  565MOL0     C76158   2.055   2.947   5.715 -0.0185  0.1686  0.0459
  565MOL0     C76159   1.922   2.919   5.720  0.1289  0.6094 -0.3373
  565MOL0     C76160   1.863   2.785   5.750  0.3563 -0.5227 -0.1332
  565MOL0     C76161   1.963   2.670   5.743 -0.2795 -0.1388  0.1691
  565MOL0     C76162   1.919   2.525   5.756  0.3067  0.3503 -0.0251
  565MOL0     C76163   1.857   2.489   5.890 -0.3097  0.0508  1.0667
  565MOL0     O76164   1.741   2.563   5.915 -0.6014 -0.9433 -0.3189
  565MOL0     C76165   1.615   2.500   5.899  0.5622  0.7856 -0.9987
  565MOL0     C76166   1.602   2.367   5.847  0.5802 -1.1548  0.2387
  565MOL0     C76167   1.471   2.325   5.817  0.3879 -1.0177  0.0613
  565MOL0     C76168   1.465   2.175   5.800  0.4085 -0.3823  0.6295
  565MOL0     C76169   1.352   2.417   5.828 -0.0694  1.2086  0.0808
  565MOL0     C76170   1.216   2.386   5.771 -0.4944  0.2994 -1.2762
  565MOL0     O76171   1.123   2.487   5.791 -0.1576  0.2910 -0.2301
  565MOL0     C76172   0.992   2.455   5.764  0.1125  0.2897  0.4185
  565MOL0     C76173   0.910   2.546   5.707  0.0675 -0.1847  0.8104
  565MOL0     C76174   0.778   2.528   5.681  0.2693 -1.0215 -0.2002
  565MOL0     C76175   0.721   2.405   5.713  0.0042  0.2283 -0.7040
  565MOL0     O76176   0.596   2.359   5.682  0.3026  0.3180  0.3218
  565MOL0     C76177   0.507   2.423   5.586  0.4599  1.0178 -0.2742
  565MOL0     C76178   0.382   2.452   5.658  0.1115 -0.4555 -0.3616
  565MOL0     C76179   0.272   2.524   5.575 -0.7009  0.6522 -0.2751
  565MOL0     C76180   0.148   2.562   5.657  0.5487  0.7205 -0.4526
  565MOL0     C76181   0.020   2.580   5.573  0.4585  0.0781  0.0882
  565MOL0     C76182  -0.083   2.657   5.665  0.9395 -1.0834 -0.0141
  565MOL0     C76183  -0.208   2.693   5.588  0.0141 -0.4887  0.7410
  565MOL0     C76184  -0.323   2.764   5.676  0.2317 -0.0325 -0.0829
  565MOL0    Cl76185  -0.437   2.825   5.558 -0.0973 -0.0655 -0.3202
  565MOL0     C76186   0.798   2.307   5.776  0.5212 -0.1699 -1.0461
  565MOL0     C76187   0.931   2.337   5.798  0.2137  0.0708 -0.1725
  565MOL0     O76188   1.203   2.280   5.702 -0.4833  0.2212  0.4959
  565MOL0     C76189   1.377   2.539   5.882  0.3459 -0.4858  0.2674
  565MOL0     C76190   1.509   2.582   5.912  0.4363  0.6178  0.5939
  565MOL0     N76191   1.843   3.027   5.675  1.1114  0.3264 -0.1557
  565MOL0     N76192   1.920   3.115   5.643 -0.0751 -0.0937  0.1113
  565MOL0     C76193   3.092   2.809   5.394 -0.4633  0.0362 -0.4119
  565MOL0     C76194   3.187   2.813   5.290  0.1016 -0.0188  0.3579
  565MOL0     C76195   3.433   2.974   4.922 -0.3144 -0.1141 -0.2452
  565MOL0     C76196   3.496   3.073   4.834 -0.0679  0.1108  0.5963
  565MOL0     C76197   3.574   3.036   4.725  0.5926 -0.1747 -0.0459
  565MOL0     C76198   3.597   2.896   4.703  0.3764  0.0553 -0.0833
  565MOL0     O76199   3.683   2.862   4.607 -0.4796 -0.1675  1.0016
  565MOL0     C76200   3.669   2.743   4.527  0.3408  0.5502 -0.3306
  565MOL0     C76201   3.753   2.766   4.403 -0.0994 -0.8387  0.3168
  565MOL0     C76202   3.897   2.738   4.443 -0.1318 -0.9166  0.5977
  565MOL0     C76203   3.995   2.748   4.320  0.6499 -0.1455 -0.2877
  565MOL0     C76204   4.130   2.695   4.353  0.9105  1.0015 -0.2913
  565MOL0     C76205   4.239   2.644   4.369 -0.7478  0.1055  0.1812
  565MOL0     C76206   3.545   2.801   4.792  0.9117 -0.3498  0.5534
  565MOL0     C76207   3.461   2.838   4.896  0.0973 -0.0959 -0.3958
  565MOL0     H76208   3.176   3.138   5.221  1.8078 -0.4209  0.2112
  565MOL0     H76209   3.020   3.138   5.422  3.0036 -1.5594  6.0814
  565MOL0     H76210   2.829   2.774   5.514 -1.3056 -1.3742  1.8354
  565MOL0     H76211   2.900   2.793   5.662  1.9285  1.0451  0.8718
  565MOL0     H76212   2.670   2.829   5.695  2.2558 -2.0518  0.3681
  565MOL0     H76213   2.763   2.984   5.712 -0.7239  0.3640  0.0266
  565MOL0     H76214   2.688   3.053   5.497 -0.2569  0.4723  2.4261
  565MOL0     H76215   2.585   2.906   5.465 -2.0300  1.2833  0.1091
  565MOL0     H76216   2.428   2.962   5.620  0.0827 -0.2102  3.3488
  565MOL0     H76217   2.536   3.069   5.703 -1.2396 -0.4811  0.6352
  565MOL0     H76218   2.420   3.236   5.615  2.1609 -2.2799  2.2441
  565MOL0     H76219   2.536   3.222   5.497 -1.2357  0.3059 -0.9688
  565MOL0     H76220   2.316   3.238   5.385 -0.1571 -0.1322 -0.4533
  565MOL0     H76221   2.378   3.084   5.349 -2.5588  0.5603 -1.9009
  565MOL0     H76222   2.116   3.120   5.420 -2.2570 -3.4154 -0.3416
  565MOL0     H76223   2.207   2.981   5.478 -0.7460 -0.3894  0.9576
  565MOL0     H76224   2.146   3.245   5.626  0.6276  0.4108 -0.7308
  565MOL0     H76225   2.256   3.124   5.686  1.0969 -1.1343 -3.4356
  565MOL0     H76226   2.137   2.877   5.730 -1.5568 -1.8705 -0.5574
  565MOL0     H76227   1.806   2.789   5.843  1.0118  2.3950  0.2461
  565MOL0     H76228   1.791   2.770   5.668  0.6907  2.3088 -1.0539
  565MOL0     H76229   2.036   2.688   5.823  1.5069 -1.6687 -1.0112
  565MOL0     H76230   2.033   2.675   5.659  2.8410 -0.5687  2.5347
  565MOL0     H76231   2.001   2.454   5.744  0.4991 -0.6442  4.9519
  565MOL0     H76232   1.843   2.490   5.685  0.2749  0.2953  0.0358
  565MOL0     H76233   1.924   2.526   5.968 -0.9348 -0.1452  1.7079
  565MOL0     H76234   1.846   2.380   5.894  0.3564 -0.0749 -0.1407
  565MOL0     H76235   1.684   2.300   5.824 -0.3533 -2.2303 -0.1041
  565MOL0     H76236   1.389   2.138   5.871  1.3898 -0.9348  1.4205
  565MOL0     H76237   1.436   2.155   5.697 -2.9992 -0.9088  1.5498
  565MOL0     H76238   1.558   2.125   5.826  0.8423 -1.4039 -2.4693
  565MOL0     H76239   0.956   2.643   5.695 -3.4224  1.5859  0.3684
  565MOL0     H76240   0.711   2.604   5.641 -1.7304 -1.7710  1.5609
  565MOL0     H76241   0.551   2.518   5.553  0.6288  1.2756  0.6662
  565MOL0     H76242   0.488   2.360   5.499  2.8023  2.0738 -1.6508
  565MOL0     H76243   0.352   2.355   5.700 -0.2411  0.6048  2.0180
  565MOL0     H76244   0.404   2.514   5.746 -0.0188 -0.4866 -0.3069
  565MOL0     H76245   0.243   2.466   5.487  3.1614  1.2299 -2.1910
  565MOL0     H76246   0.320   2.616   5.539  2.1187 -1.3281 -1.9662
  565MOL0     H76247   0.126   2.479   5.725 -0.5517 -0.2646 -1.9728
  565MOL0     H76248   0.171   2.656   5.709 -0.9975  0.8430  0.0650
  565MOL0     H76249  -0.005   2.477   5.543 -1.9780 -0.0593  2.2566
  565MOL0     H76250   0.037   2.628   5.476  2.4789  0.7581  0.7346
  565MOL0     H76251  -0.112   2.591   5.747  0.9035 -2.2379 -0.9219
  565MOL0     H76252  -0.039   2.747   5.708 -3.5274  1.0117  0.7528
  565MOL0     H76253  -0.255   2.602   5.550 -0.6921 -0.7629  2.1719
  565MOL0     H76254  -0.183   2.752   5.500 -1.4396 -1.8947 -0.6794
  565MOL0     H76255  -0.282   2.845   5.738 -3.2987  0.4392  1.9431
  565MOL0     H76256  -0.367   2.702   5.755 -0.2218  3.2112  2.4364
  565MOL0     H76257   0.740   2.216   5.788 -0.0934 -0.0655 -2.9235
  565MOL0     H76258   0.988   2.262   5.853 -0.9199  0.9103  2.3020
  565MOL0     H76259   1.303   2.615   5.902  4.1827  3.6984  0.2344
  565MOL0     H76260   1.525   2.682   5.951 -2.1612  2.0613 -1.6697
  565MOL0     H76261   3.076   2.716   5.448 -2.1641 -0.3969 -1.5875
  565MOL0     H76262   3.231   2.718   5.261  1.9169  0.9246 -0.1236
  565MOL0     H76263   3.480   3.178   4.853 -1.1591 -0.0196  0.4409
  565MOL0     H76264   3.616   3.109   4.657 -0.9759 -0.3160 -1.2375
  565MOL0     H76265   3.712   2.654   4.574 -0.5927 -0.5698 -1.5209
  565MOL0     H76266   3.562   2.726   4.512  0.4373 -0.1422 -0.2642
  565MOL0     H76267   3.733   2.861   4.354 -2.7688 -1.3778  0.1971
  565MOL0     H76268   3.721   2.688   4.334 -0.7114  0.1715 -0.5588
  565MOL0     H76269   3.899   2.637   4.486 -2.7120  0.2124  3.8788
  565MOL0     H76270   3.936   2.797   4.526  1.4606 -1.8266  0.5442
  565MOL0     H76271   4.010   2.856   4.314 -0.0246  0.1749  2.4250
  565MOL0     H76272   3.958   2.697   4.230 -0.5783 -1.5875  0.9812
  565MOL0     H76273   4.328   2.585   4.367 -0.8541 -0.1483 -3.1778
  565MOL0     H76274   3.585   2.701   4.778  2.1910 -0.0367  1.7212
  565MOL0     H76275   3.441   2.761   4.969 -2.3765  0.6566 -0.2019
  566MOL0     O76276   3.402   0.611   2.241  0.2161 -0.1406  0.3461
  566MOL0     C76277   3.424   0.533   2.332  0.8281 -0.3200 -0.5329
  566MOL0     O76278   3.329   0.460   2.400 -0.7078  0.0943 -0.5660
  566MOL0     C76279   3.201   0.474   2.358  0.9512 -0.1041 -0.1988
  566MOL0     C76280   3.158   0.451   2.234  0.5369 -0.2195  0.6392
  566MOL0     C76281   3.029   0.470   2.185 -0.8153  0.2084 -0.8375
  566MOL0     C76282   2.933   0.532   2.271  0.1192 -0.9159 -0.2357
  566MOL0     O76283   2.807   0.557   2.236  0.1508  0.2260  0.1273
  566MOL0     C76284   2.743   0.472   2.144 -0.2382 -0.5448  0.3212
  566MOL0     C76285   2.760   0.530   2.010 -0.3401  0.0591  0.2380
  566MOL0     C76286   2.638   0.624   1.985  0.0747 -0.2124  0.0587
  566MOL0     C76287   2.621   0.736   2.086 -0.2650  0.2338  0.1545
  566MOL0     C76288   2.528   0.847   2.048 -0.1315  0.1959  0.7006
  566MOL0     C76289   2.384   0.803   2.028 -0.3401  0.0110 -0.1952
  566MOL0     C76290   2.281   0.915   1.991 -0.2417 -0.1509 -1.5994
  566MOL0     C76291   2.145   0.854   1.973 -0.1129  0.0405 -0.8435
  566MOL0     N76292   2.121   0.776   1.855 -0.5773  0.2211  0.2547
  566MOL0     C76293   2.202   0.763   1.740 -0.0744  0.4172 -0.2247
  566MOL0     C76294   2.137   0.679   1.662  0.1441  0.5327  0.6453
  566MOL0     C76295   2.194   0.641   1.535 -0.5149  0.0751  0.3950
  566MOL0     C76296   2.271   0.502   1.543  0.2341 -0.2382 -0.9570
  566MOL0     C76297   2.302   0.420   1.412  0.6227 -0.5874  0.7969
  566MOL0     C76298   2.189   0.390   1.318  0.8799  0.6062  0.2017
  566MOL0     O76299   2.068   0.339   1.382  0.1505 -0.3357  0.5382
  566MOL0     C76300   1.966   0.301   1.300 -0.0736  0.5151  0.3520
  566MOL0     C76301   1.979   0.198   1.207 -0.9135 -0.3745  0.2978
  566MOL0     C76302   1.870   0.154   1.133 -0.8174  0.5093  0.1534
  566MOL0     C76303   1.898   0.038   1.040 -1.0851  0.5954  0.2494
  566MOL0     C76304   1.742   0.186   1.174  0.2656  0.0630  0.6244
  566MOL0     C76305   1.623   0.127   1.116  0.9797  0.0956  0.5795
  566MOL0     O76306   1.516   0.119   1.207  0.0691 -0.2293  0.5454
  566MOL0     C76307   1.391   0.107   1.149  0.2178 -0.4339 -1.1038
  566MOL0     C76308   1.345  -0.018   1.123  0.4451  0.5987  0.3632
  566MOL0     C76309   1.205  -0.031   1.099 -0.2019 -0.4320 -0.7455
  566MOL0     C76310   1.123   0.085   1.105 -0.4098 -0.1854  0.1853
  566MOL0     O76311   0.984   0.078   1.075 -0.5970 -0.5426 -1.7142
  566MOL0     C76312   0.951   0.008   0.952 -0.2177 -0.5265  0.0986
  566MOL0     C76313   0.814   0.056   0.912  0.0192  0.0443  0.3091
  566MOL0     C76314   0.773  -0.006   0.781  0.3060  0.5614 -1.1217
  566MOL0     C76315   0.632   0.036   0.741  0.1454  0.3999 -0.5347
  566MOL0     C76316   0.508  -0.023   0.823 -0.2465  0.5420 -0.2132
  566MOL0     C76317   0.381   0.038   0.792 -0.3659 -0.4738  0.5725
  566MOL0     C76318   0.317  -0.020   0.669  0.3058 -0.3606  0.8128
  566MOL0     C76319   0.192   0.053   0.617 -0.6181 -0.1012  0.3038
  566MOL0    Cl76320   0.076   0.079   0.757  0.1094 -0.2640  0.1843
  566MOL0     C76321   1.181   0.213   1.116  0.2547 -0.4605 -0.0551
  566MOL0     C76322   1.316   0.223   1.152  0.4569 -0.6946 -0.3929
  566MOL0     O76323   1.611   0.110   0.990 -0.0024 -0.5657  0.4665
  566MOL0     C76324   1.728   0.281   1.273  0.4087  1.2083  0.0221
  566MOL0     C76325   1.843   0.336   1.334  0.1450  0.5106  0.5858
  566MOL0     N76326   2.024   0.629   1.723  0.4221  0.7362  0.4227
  566MOL0     N76327   2.014   0.693   1.837 -0.3932  0.0471  0.6781
  566MOL0     C76328   2.972   0.553   2.408  0.0116  0.6892 -0.4423
  566MOL0     C76329   3.104   0.525   2.451  0.0052 -0.5611 -0.0251
  566MOL0     C76330   3.555   0.536   2.402  0.1205  0.5878  0.6136
  566MOL0     C76331   3.576   0.468   2.512  0.1196  0.4639 -0.2885
  566MOL0     C76332   3.689   0.459   2.589 -0.1174  0.1527  0.2260
  566MOL0     C76333   3.806   0.525   2.535  0.3827 -0.2881  0.6695
  566MOL0     O76334   3.930   0.545   2.597  0.4387  0.3563  0.5149
  566MOL0     C76335   3.964   0.458   2.701 -0.3291 -0.4304 -0.1490
  566MOL0     C76336   4.114   0.476   2.740  0.4416 -0.5298 -0.1668
  566MOL0     C76337   4.199   0.419   2.628  0.0852  0.0313  0.3401
  566MOL0     C76338   4.198   0.506   2.496  0.2425 -0.2748  0.0323
  566MOL0     C76339   4.304   0.457   2.406 -0.0008 -0.6696  0.5754
  566MOL0     C76340   4.396   0.430   2.339  0.0157  0.3020  0.6807
  566MOL0     C76341   3.792   0.599   2.414  0.0236 -0.0503 -0.5663
  566MOL0     C76342   3.666   0.609   2.351  0.8511  0.0587  0.5187
  566MOL0     H76343   3.225   0.401   2.165  0.1066  0.9639 -0.6934
  566MOL0     H76344   3.003   0.450   2.082  1.5711 -1.2803 -1.2411
  566MOL0     H76345   2.789   0.373   2.131  2.1539  0.4601  0.5867
  566MOL0     H76346   2.642   0.457   2.184  0.4990 -0.8409  2.2036
  566MOL0     H76347   2.849   0.593   1.997 -1.2129  0.9105 -2.4695
  566MOL0     H76348   2.767   0.446   1.940 -2.9402  0.0988 -0.1853
  566MOL0     H76349   2.653   0.662   1.884 -0.8612 -2.1268 -0.8526
  566MOL0     H76350   2.549   0.560   1.982 -1.5887  1.8209  2.4520
  566MOL0     H76351   2.588   0.682   2.175  0.0182 -1.0588 -0.5043
  566MOL0     H76352   2.715   0.788   2.106  0.5947 -1.8011  1.7357
  566MOL0     H76353   2.525   0.926   2.123  0.6975 -1.7957  2.9379
  566MOL0     H76354   2.566   0.882   1.952 -2.9826  0.5344 -0.4090
  566MOL0     H76355   2.375   0.714   1.964  1.3431  0.5301 -1.2114
  566MOL0     H76356   2.354   0.773   2.129 -0.4337  1.1270  0.1233
  566MOL0     H76357   2.282   0.986   2.074 -0.6442 -2.7659  0.7760
  566MOL0     H76358   2.321   0.967   1.903 -1.2822  1.6278 -1.0721
  566MOL0     H76359   2.077   0.940   1.969  0.2616  0.3110 -1.5905
  566MOL0     H76360   2.114   0.788   2.054  1.2292 -0.0179 -0.3584
  566MOL0     H76361   2.304   0.800   1.728  1.1995 -2.5533  0.4867
  566MOL0     H76362   2.120   0.633   1.454 -1.2995 -0.7781  1.1727
  566MOL0     H76363   2.267   0.716   1.503  0.6703 -1.2649 -0.1860
  566MOL0     H76364   2.202   0.444   1.604  0.8913  3.2205  3.6323
  566MOL0     H76365   2.359   0.501   1.608  0.7632 -1.2508 -1.6643
  566MOL0     H76366   2.346   0.326   1.446  0.3729 -0.4952  1.3864
  566MOL0     H76367   2.384   0.465   1.356 -1.7563  0.8053 -1.8949
  566MOL0     H76368   2.227   0.313   1.250  0.7939  0.0303  0.8012
  566MOL0     H76369   2.168   0.479   1.258  4.0626  0.9504 -0.5648
  566MOL0     H76370   2.081   0.167   1.184 -1.1965 -1.5274  0.5203
  566MOL0     H76371   1.877   0.050   0.933  0.7369  0.5099 -0.1464
  566MOL0     H76372   2.005   0.013   1.043 -1.1189  0.2624 -0.8170
  566MOL0     H76373   1.835  -0.046   1.069  0.4415 -0.0562  1.8658
  566MOL0     H76374   1.410  -0.105   1.123 -0.1047  0.1786  0.6428
  566MOL0     H76375   1.162  -0.129   1.081 -1.0510 -1.0842  3.6758
  566MOL0     H76376   1.032   0.024   0.880 -1.5482 -3.4821 -2.2186
  566MOL0     H76377   0.954  -0.101   0.964  0.5454 -0.5934 -0.6303
  566MOL0     H76378   0.737   0.041   0.988  1.0472  1.5304  1.7409
  566MOL0     H76379   0.827   0.164   0.898 -2.4344  0.3157 -0.2517
  566MOL0     H76380   0.779  -0.113   0.801 -0.2158  0.7958  0.4424
  566MOL0     H76381   0.843   0.028   0.704 -0.3323  3.0832 -0.6670
  566MOL0     H76382   0.627   0.145   0.742  0.6011  0.4474 -1.6980
  566MOL0     H76383   0.617   0.001   0.638 -0.9226 -1.4041  0.1909
  566MOL0     H76384   0.528   0.011   0.925  0.6645  0.2265 -0.2782
  566MOL0     H76385   0.509  -0.130   0.801  0.0417  0.7624 -1.3500
  566MOL0     H76386   0.314   0.017   0.876 -1.0139  2.0984  0.7537
  566MOL0     H76387   0.394   0.146   0.783 -1.6665 -0.3915 -0.5501
  566MOL0     H76388   0.280  -0.122   0.679  2.5651 -1.7283 -2.7596
  566MOL0     H76389   0.388  -0.035   0.587 -3.8012 -3.6736 -2.6070
  566MOL0     H76390   0.159  -0.004   0.530  3.8015  0.6844 -2.1864
  566MOL0     H76391   0.224   0.152   0.582  3.6107 -0.8841  1.4398
  566MOL0     H76392   1.111   0.295   1.103  1.0722  0.1678 -0.6491
  566MOL0     H76393   1.357   0.312   1.197 -0.5781 -0.9494  1.1563
  566MOL0     H76394   1.636   0.307   1.323  1.3233  0.2203  2.3318
  566MOL0     H76395   1.837   0.400   1.421  2.0421  0.9201  0.4569
  566MOL0     H76396   2.902   0.601   2.476 -2.8471 -1.5204 -1.5871
  566MOL0     H76397   3.146   0.547   2.549  2.7385  0.2195 -1.2979
  566MOL0     H76398   3.504   0.398   2.554  0.6962 -0.7200 -1.1946
  566MOL0     H76399   3.697   0.400   2.680  5.3332  0.4269  0.2404
  566MOL0     H76400   3.900   0.474   2.788  0.0566 -1.6575  0.3844
  566MOL0     H76401   3.941   0.358   2.663 -2.0723  0.0483 -0.4602
  566MOL0     H76402   4.126   0.410   2.827 -4.1367  0.2565  1.3712
  566MOL0     H76403   4.145   0.578   2.763 -0.2133 -0.5654  0.9753
  566MOL0     H76404   4.162   0.320   2.597  1.1892  0.3705 -2.3771
  566MOL0     H76405   4.301   0.395   2.659 -0.5140 -2.7886  0.4004
  566MOL0     H76406   4.195   0.612   2.521 -3.4169 -0.3591  0.4942
  566MOL0     H76407   4.107   0.488   2.438 -1.6218  0.2201  2.6408
  566MOL0     H76408   4.487   0.423   2.283  0.7686  4.5709  1.0372
  566MOL0     H76409   3.869   0.667   2.376  0.8700  0.1881  1.4680
  566MOL0     H76410   3.660   0.671   2.262  0.3143  1.2658  1.3601
  567MOL0     O76411   1.910   5.296   0.465 -0.1617  0.8368  1.0751
  567MOL0     C76412   1.896   5.370   0.560  0.4129 -0.2451  0.2432
  567MOL0     O76413   1.800   5.361   0.667 -0.0150 -0.8827 -0.0002
  567MOL0     C76414   1.700   5.266   0.681 -0.1434 -0.3610  0.4403
  567MOL0     C76415   1.651   5.241   0.805  0.9740 -1.1444 -0.0869
  567MOL0     C76416   1.544   5.148   0.825  0.6003 -0.3502 -0.6613
  567MOL0     C76417   1.483   5.078   0.717 -0.2619 -0.3862 -0.1744
  567MOL0     O76418   1.375   4.995   0.739 -0.4514 -0.1289 -0.1822
  567MOL0     C76419   1.323   4.914   0.636  0.0802  0.2055 -0.5442
  567MOL0     C76420   1.220   4.814   0.685 -0.5584  0.8658  0.0059
  567MOL0     C76421   1.079   4.883   0.678 -0.0848 -0.5368  0.0194
  567MOL0     C76422   0.968   4.787   0.714  0.9008 -0.0635 -0.3212
  567MOL0     C76423   0.847   4.865   0.733  0.0592 -0.4340  0.4574
  567MOL0     C76424   0.730   4.764   0.745  0.2940  0.9552  0.6090
  567MOL0     C76425   0.592   4.833   0.763 -0.3101 -0.4700  0.8883
  567MOL0     C76426   0.470   4.733   0.774 -0.4562 -0.8484 -0.1814
  567MOL0     N76427   0.436   4.665   0.649 -0.1174  0.0971  0.3386
  567MOL0     C76428   0.475   4.538   0.613  0.2283  0.6842  0.2518
  567MOL0     C76429   0.414   4.521   0.494  0.4839  0.6598 -0.2072
  567MOL0     C76430   0.429   4.399   0.406  0.6001  0.7664  0.1973
  567MOL0     C76431   0.455   4.435   0.257  0.2915 -0.3290  0.6403
  567MOL0     C76432   0.474   4.305   0.173  0.2087 -0.0273 -0.2954
  567MOL0     C76433   0.366   4.195   0.182  0.0556 -0.2625 -0.1840
  567MOL0     O76434   0.252   4.251   0.115  0.4688 -0.2308 -0.3920
  567MOL0     C76435   0.128   4.203   0.137  0.2224  0.3431  0.3073
  567MOL0     C76436   0.030   4.298   0.142  0.3546  0.3442 -0.1458
  567MOL0     C76437  -0.100   4.265   0.175  0.1292 -0.4377  0.0759
  567MOL0     C76438  -0.205   4.375   0.183  0.6178  0.0238  1.0518
  567MOL0     C76439  -0.126   4.127   0.214  0.1766 -0.1799  0.2674
  567MOL0     C76440  -0.264   4.079   0.250  0.6601  0.0484 -0.4484
  567MOL0     O76441  -0.374   4.169   0.244  0.0131  0.5660 -0.2424
  567MOL0     C76442  -0.482   4.124   0.314  1.2313 -0.1037  0.5187
  567MOL0     C76443  -0.511   4.161   0.445  0.1923 -0.0806 -0.4001
  567MOL0     C76444  -0.629   4.133   0.502  0.3162 -0.1733 -0.5536
  567MOL0     C76445  -0.730   4.066   0.431 -0.7093  0.3254 -0.0090
  567MOL0     O76446  -0.845   4.028   0.499 -0.2518 -0.1697 -0.2834
  567MOL0     C76447  -0.925   4.145   0.535  0.4578  0.4017  0.0363
  567MOL0     C76448  -1.081   4.121   0.550 -0.1276  0.2194 -0.5375
  567MOL0     C76449  -1.122   4.070   0.694 -0.1294  0.4514 -0.2384
  567MOL0     C76450  -1.031   3.951   0.731 -0.2824 -0.0193 -0.3767
  567MOL0     C76451  -1.087   3.856   0.844  0.0676  1.0388 -0.0675
  567MOL0     C76452  -1.202   3.769   0.780 -0.4775 -0.2539 -0.2418
  567MOL0     C76453  -1.249   3.656   0.870 -0.2820 -0.6137  1.1923
  567MOL0     C76454  -1.402   3.635   0.862 -0.5045 -0.3104  0.1953
  567MOL0    Cl76455  -1.472   3.608   0.697 -0.2673  0.0474 -0.1768
  567MOL0     C76456  -0.704   4.020   0.305  0.5845 -1.5872 -1.0709
  567MOL0     C76457  -0.580   4.051   0.246 -0.7255 -0.7284 -0.0874
  567MOL0     O76458  -0.275   3.964   0.301 -0.0758  0.5434 -0.5978
  567MOL0     C76459  -0.022   4.034   0.207 -0.6245 -0.1221 -0.7643
  567MOL0     C76460   0.109   4.068   0.166  0.1812  0.5610  0.3829
  567MOL0     N76461   0.342   4.632   0.461 -1.2269 -0.5766  0.3680
  567MOL0     N76462   0.352   4.717   0.558  0.0172 -0.6591  0.7475
  567MOL0     C76463   1.537   5.101   0.589  0.8312  0.8686  0.1812
  567MOL0     C76464   1.641   5.190   0.578  0.4264  0.3100 -0.2712
  567MOL0     C76465   1.996   5.478   0.564  0.1219  0.0620  0.3655
  567MOL0     C76466   2.078   5.505   0.454  0.1370  0.8873 -0.1325
  567MOL0     C76467   2.179   5.595   0.456 -0.5700  0.7038  0.3923
  567MOL0     C76468   2.207   5.679   0.557 -0.4692 -0.1891  0.2064
  567MOL0     O76469   2.303   5.774   0.535  0.5371  0.2840 -0.5141
  567MOL0     C76470   2.403   5.786   0.642  0.0081 -0.6967 -0.3108
  567MOL0     C76471   2.511   5.891   0.612  0.7033 -0.1858 -0.7582
  567MOL0     C76472   2.496   6.028   0.691 -0.1142  0.5339  0.9528
  567MOL0     C76473   2.567   6.151   0.627  0.4355  0.2173  0.9045
  567MOL0     C76474   2.712   6.152   0.653  0.2365  1.2213 -0.2377
  567MOL0     C76475   2.828   6.139   0.693  0.7081 -0.1262 -0.1454
  567MOL0     C76476   2.137   5.651   0.670 -0.7287 -0.1930  0.0542
  567MOL0     C76477   2.033   5.557   0.673  0.5235  0.3375 -0.7496
  567MOL0     H76478   1.710   5.296   0.878 -1.2053  3.1574 -1.2485
  567MOL0     H76479   1.493   5.132   0.919 -2.2887  1.3460 -1.7857
  567MOL0     H76480   1.278   4.981   0.562 -0.5623 -2.1993 -2.4823
  567MOL0     H76481   1.405   4.860   0.586 -1.3569 -0.1889 -2.6365
  567MOL0     H76482   1.223   4.735   0.610 -0.3296 -0.8956  1.8109
  567MOL0     H76483   1.241   4.787   0.789 -4.8497  0.0579  0.8622
  567MOL0     H76484   1.081   4.967   0.749  0.7493 -0.5029 -0.0429
  567MOL0     H76485   1.059   4.907   0.573  2.2823 -1.6037 -0.7466
  567MOL0     H76486   0.957   4.711   0.636 -0.7230  0.0351 -0.2186
  567MOL0     H76487   0.992   4.723   0.799 -1.1548 -1.3440 -0.6180
  567MOL0     H76488   0.859   4.920   0.827  3.7902 -4.7207  2.9347
  567MOL0     H76489   0.821   4.937   0.655 -2.1437 -0.4667  1.1082
  567MOL0     H76490   0.725   4.709   0.650 -1.7516  2.2600 -0.1141
  567MOL0     H76491   0.745   4.701   0.833 -0.6725 -1.6606 -0.9729
  567MOL0     H76492   0.583   4.900   0.849 -1.7719 -0.8197  1.0324
  567MOL0     H76493   0.574   4.897   0.677 -1.6072 -3.1267 -0.9581
  567MOL0     H76494   0.385   4.797   0.797  0.7375  0.5893  0.3560
  567MOL0     H76495   0.481   4.667   0.861  0.8774  0.2006  0.4767
  567MOL0     H76496   0.542   4.463   0.656  0.3604  1.1376  0.8538
  567MOL0     H76497   0.503   4.330   0.447 -0.3463 -0.4836 -0.1086
  567MOL0     H76498   0.334   4.345   0.410  0.5804  0.2935 -3.1298
  567MOL0     H76499   0.532   4.512   0.243  0.2144 -0.4918 -0.9755
  567MOL0     H76500   0.364   4.485   0.221  0.9660  0.4212 -0.0795
  567MOL0     H76501   0.565   4.260   0.215 -0.8703  0.1199  2.3893
  567MOL0     H76502   0.479   4.332   0.067  0.2900 -0.1543 -0.3246
  567MOL0     H76503   0.330   4.157   0.278  0.4408 -3.0914 -1.0621
  567MOL0     H76504   0.406   4.113   0.121  0.7195  0.4456 -0.7264
  567MOL0     H76505   0.049   4.401   0.115  1.4396 -0.5957 -3.5690
  567MOL0     H76506  -0.239   4.389   0.286  1.1013  1.6638  1.0236
  567MOL0     H76507  -0.160   4.472   0.160 -0.0212  0.5334  1.8715
  567MOL0     H76508  -0.286   4.348   0.115  0.4567 -3.4753  2.4348
  567MOL0     H76509  -0.441   4.212   0.510 -2.0497  3.0714 -0.2489
  567MOL0     H76510  -0.633   4.153   0.609 -2.6207  3.5560 -1.1563
  567MOL0     H76511  -0.889   4.185   0.631 -1.7668  0.4903  0.8874
  567MOL0     H76512  -0.910   4.212   0.451  2.5837 -0.6736 -0.5331
  567MOL0     H76513  -1.129   4.216   0.526  0.5296  1.2658  1.8858
  567MOL0     H76514  -1.112   4.049   0.474 -0.6083  2.5258 -2.6490
  567MOL0     H76515  -1.226   4.037   0.696  1.0468 -4.2220 -2.0351
  567MOL0     H76516  -1.105   4.146   0.771 -1.2547 -1.4030  1.9663
  567MOL0     H76517  -1.020   3.892   0.640  2.0545  0.5074 -0.4871
  567MOL0     H76518  -0.934   3.991   0.762  0.3470 -0.7721 -1.3387
  567MOL0     H76519  -1.117   3.905   0.937 -1.7261  0.8510 -0.5227
  567MOL0     H76520  -1.005   3.788   0.871 -0.3915  0.4972 -0.0128
  567MOL0     H76521  -1.280   3.844   0.766  2.1665  2.5177 -1.5393
  567MOL0     H76522  -1.171   3.725   0.685 -0.9128  1.2004 -1.0905
  567MOL0     H76523  -1.228   3.684   0.974  1.1979  3.0882  0.0422
  567MOL0     H76524  -1.203   3.562   0.837  0.8559  0.6002 -0.8816
  567MOL0     H76525  -1.447   3.724   0.906 -0.0827  2.5774 -4.4263
  567MOL0     H76526  -1.431   3.550   0.923 -0.1365 -0.3372  0.3381
  567MOL0     H76527  -0.776   3.960   0.250 -1.5404 -0.6549  0.5551
  567MOL0     H76528  -0.544   4.016   0.150  1.6004  1.2017  0.0022
  567MOL0     H76529  -0.048   3.933   0.236 -1.2433  0.2253 -0.0684
  567MOL0     H76530   0.186   3.992   0.171 -0.7318 -0.3478  1.2991
  567MOL0     H76531   1.500   5.052   0.500 -0.1333  0.0516  1.0031
  567MOL0     H76532   1.671   5.209   0.475  0.8052  1.4605  0.0309
  567MOL0     H76533   2.079   5.451   0.361  1.0462 -1.7007  1.2658
  567MOL0     H76534   2.234   5.601   0.363  1.0680 -1.3843  1.1526
  567MOL0     H76535   2.345   5.811   0.732 -0.9808  1.0843 -1.3822
  567MOL0     H76536   2.451   5.690   0.660 -1.1454 -0.9148  1.9485
  567MOL0     H76537   2.512   5.909   0.504 -0.3927 -1.2893 -0.9797
  567MOL0     H76538   2.613   5.867   0.642  0.4909 -1.0588 -0.7023
  567MOL0     H76539   2.525   6.003   0.793 -0.3609  1.3462  1.2339
  567MOL0     H76540   2.390   6.054   0.691 -0.0008  1.0161  0.2828
  567MOL0     H76541   2.516   6.240   0.663  0.2356  0.6727 -0.4454
  567MOL0     H76542   2.546   6.145   0.520  0.2149 -0.3920  0.9778
  567MOL0     H76543   2.930   6.115   0.711  0.3447 -2.0821 -0.4539
  567MOL0     H76544   2.147   5.723   0.750  3.1161  2.8740 -2.8244
  567MOL0     H76545   1.989   5.541   0.770  4.2066 -2.8124  0.6635
  568MOL0     O76546   2.657   8.611   4.012 -0.9796 -0.6289 -0.1354
  568MOL0     C76547   2.726   8.682   3.936  0.1048  0.2421 -0.0184
  568MOL0     O76548   2.682   8.803   3.892 -1.0102 -0.6704  0.8426
  568MOL0     C76549   2.561   8.845   3.942 -0.2875 -0.0307  0.2001
  568MOL0     C76550   2.539   8.916   4.063 -1.0787 -0.4142 -0.5035
  568MOL0     C76551   2.412   8.973   4.095 -0.4531  0.5262 -0.4195
  568MOL0     C76552   2.301   8.964   4.011 -0.1170 -0.3200 -0.8196
  568MOL0     O76553   2.175   9.019   4.029  0.2215  0.1643 -0.5217
  568MOL0     C76554   2.161   9.111   4.135  0.6155 -0.3950  0.6887
  568MOL0     C76555   2.019   9.174   4.150  0.8929 -0.2050 -0.3207
  568MOL0     C76556   1.991   9.259   4.034 -0.4687  0.1302 -0.2264
  568MOL0     C76557   1.846   9.277   4.018  0.3414 -0.1767  0.0282
  568MOL0     C76558   1.765   9.314   4.143  0.2748  0.5632 -0.1051
  568MOL0     C76559   1.627   9.372   4.093 -1.4965 -0.0888 -0.5291
  568MOL0     C76560   1.550   9.409   4.220  0.9768 -0.2624  0.1643
  568MOL0     C76561   1.429   9.502   4.198 -0.0876 -0.1338  0.8793
  568MOL0     N76562   1.342   9.451   4.096 -0.0506 -0.7364 -0.2662
  568MOL0     C76563   1.231   9.380   4.125  0.0679 -0.3637 -0.5011
  568MOL0     C76564   1.156   9.383   4.014  0.6118 -1.1857  0.1285
  568MOL0     C76565   1.017   9.319   3.990 -0.7562  0.1894 -0.9984
  568MOL0     C76566   0.944   9.364   3.860 -0.0525 -0.1719 -0.1128
  568MOL0     C76567   0.802   9.311   3.844 -0.3097  0.8961 -0.1371
  568MOL0     C76568   0.694   9.348   3.951 -0.0250  0.4541 -1.0790
  568MOL0     O76569   0.679   9.489   3.961 -0.0501 -0.0605  0.6368
  568MOL0     C76570   0.607   9.534   4.075 -0.2650  0.1944  0.8447
  568MOL0     C76571   0.547   9.449   4.178 -0.5329  0.5299  0.8027
  568MOL0     C76572   0.477   9.505   4.283  0.1385 -0.1202  0.2432
  568MOL0     C76573   0.416   9.406   4.383  0.3215 -0.0246 -0.2752
  568MOL0     C76574   0.466   9.646   4.284 -0.5203 -0.7228 -0.6398
  568MOL0     C76575   0.391   9.717   4.394 -0.0109  0.2626 -0.1130
  568MOL0     O76576   0.269   9.662   4.440  0.0664  0.2816  0.0172
  568MOL0     C76577   0.190   9.740   4.519  0.9026 -0.5701  0.8462
  568MOL0     C76578   0.074   9.790   4.452 -0.1537  0.4730 -0.0622
  568MOL0     C76579  -0.007   9.881   4.514 -0.7076 -0.0305 -0.6816
  568MOL0     C76580   0.018   9.925   4.644  0.4063 -0.1229 -0.8152
  568MOL0     O76581  -0.054  10.017   4.715 -0.0313 -0.2620 -0.7852
  568MOL0     C76582  -0.150  10.101   4.653 -0.7452  0.1927 -0.2405
  568MOL0     C76583  -0.123  10.242   4.695 -0.2695 -0.2260 -0.3911
  568MOL0     C76584  -0.207  10.346   4.630  0.2259  1.0036  1.0994
  568MOL0     C76585  -0.345  10.359   4.700 -0.7196 -0.5693  0.7768
  568MOL0     C76586  -0.438  10.452   4.604 -0.9197  0.6460 -0.4677
  568MOL0     C76587  -0.569  10.474   4.678 -0.4998  0.5387 -0.3615
  568MOL0     C76588  -0.693  10.529   4.602 -0.3608 -0.7316 -0.0780
  568MOL0     C76589  -0.739  10.431   4.490 -0.4165 -0.3000  0.0380
  568MOL0    Cl76590  -0.826  10.288   4.555  0.2964  0.0778  0.0549
  568MOL0     C76591   0.120   9.866   4.715  0.5013 -0.0046 -0.2229
  568MOL0     C76592   0.210   9.782   4.651  0.5882 -0.1932  0.0740
  568MOL0     O76593   0.437   9.823   4.422 -0.8014  0.0332  0.2434
  568MOL0     C76594   0.530   9.729   4.186  0.5412  0.2191 -0.1319
  568MOL0     C76595   0.596   9.671   4.079 -0.0318 -0.0399  0.7566
  568MOL0     N76596   1.233   9.429   3.910 -0.4332 -0.1834  0.5579
  568MOL0     N76597   1.350   9.472   3.961 -0.3793 -0.8339 -0.4506
  568MOL0     C76598   2.323   8.895   3.890 -0.3558  0.0416 -0.5073
  568MOL0     C76599   2.443   8.834   3.866 -0.7298  0.1601  0.8488
  568MOL0     C76600   2.857   8.640   3.885 -0.4504  0.3776  0.6394
  568MOL0     C76601   2.937   8.722   3.802  0.2385 -0.3029 -0.2529
  568MOL0     C76602   3.070   8.684   3.767  1.2145  0.8705  0.5632
  568MOL0     C76603   3.117   8.559   3.800  1.7800 -0.1142 -0.1240
  568MOL0     O76604   3.243   8.535   3.761 -0.1509 -0.1621  0.3032
  568MOL0     C76605   3.321   8.448   3.845 -0.7435 -0.2931  0.3150
  568MOL0     C76606   3.453   8.439   3.769 -0.1967  0.1535 -0.1646
  568MOL0     C76607   3.567   8.549   3.785  0.3383 -0.0414  0.1083
  568MOL0     C76608   3.523   8.669   3.703  0.2581 -0.4408  0.6691
  568MOL0     C76609   3.620   8.777   3.716 -0.4328  0.1289 -0.3580
  568MOL0     C76610   3.713   8.852   3.732  0.1953 -0.1493  0.0482
  568MOL0     C76611   3.039   8.478   3.874  0.2445 -0.2320 -0.3711
  568MOL0     C76612   2.913   8.512   3.922  0.1518 -0.4583 -0.8471
  568MOL0     H76613   2.617   8.944   4.134  1.3023 -2.4639 -2.1220
  568MOL0     H76614   2.400   9.027   4.188 -0.1983 -1.6533  0.9614
  568MOL0     H76615   2.183   9.061   4.230  0.8674  1.7943  1.8485
  568MOL0     H76616   2.225   9.196   4.109  0.7269 -1.2729 -2.1583
  568MOL0     H76617   1.936   9.103   4.164 -0.3756  1.4824  1.2714
  568MOL0     H76618   2.023   9.244   4.234  2.5900  1.2207 -1.5380
  568MOL0     H76619   2.036   9.358   4.048 -1.4044  0.4718  0.4619
  568MOL0     H76620   2.024   9.205   3.945 -1.3734 -3.2364  1.3349
  568MOL0     H76621   1.834   9.354   3.942  3.0247  1.7359  1.3844
  568MOL0     H76622   1.808   9.183   3.976  0.4631  0.1490 -0.8269
  568MOL0     H76623   1.750   9.220   4.196  0.6680  0.2575 -0.5362
  568MOL0     H76624   1.818   9.384   4.209 -0.1140  0.5441  0.2296
  568MOL0     H76625   1.647   9.466   4.042 -1.5822  2.8242  4.1721
  568MOL0     H76626   1.571   9.294   4.040 -2.0869  0.3673 -0.5792
  568MOL0     H76627   1.509   9.315   4.258 -0.3287 -0.4551 -1.5624
  568MOL0     H76628   1.610   9.442   4.305 -0.2848 -0.1358  1.0339
  568MOL0     H76629   1.456   9.606   4.181 -3.2776  0.7578  0.5873
  568MOL0     H76630   1.383   9.505   4.297 -0.0058  0.7982  0.8905
  568MOL0     H76631   1.220   9.327   4.220 -2.5838 -1.3120 -1.2495
  568MOL0     H76632   1.045   9.214   3.979  1.8426  0.9744 -2.9976
  568MOL0     H76633   0.953   9.344   4.075 -0.0480 -2.1939  0.3089
  568MOL0     H76634   0.998   9.331   3.770  0.7157  3.4644 -1.1775
  568MOL0     H76635   0.937   9.473   3.856 -3.7523 -0.2835 -0.2101
  568MOL0     H76636   0.809   9.202   3.848 -4.8522  0.3995 -1.0872
  568MOL0     H76637   0.766   9.332   3.743 -1.1079  0.1771 -0.0046
  568MOL0     H76638   0.715   9.307   4.051 -1.4425  2.9331  0.3241
  568MOL0     H76639   0.600   9.303   3.919  0.1033 -1.2965  0.7725
  568MOL0     H76640   0.561   9.341   4.179 -2.4792  0.2183 -0.3674
  568MOL0     H76641   0.457   9.305   4.374  0.1506 -0.3734  2.2148
  568MOL0     H76642   0.462   9.436   4.478 -2.3695  1.0158  0.7949
  568MOL0     H76643   0.307   9.401   4.376  0.1462  0.8059  1.4402
  568MOL0     H76644   0.048   9.770   4.349 -0.7719  0.7203  0.0440
  568MOL0     H76645  -0.093   9.910   4.453 -1.3565  0.5731  0.4758
  568MOL0     H76646  -0.151  10.095   4.544 -0.7611 -0.2198 -0.2188
  568MOL0     H76647  -0.251  10.078   4.689 -0.2978 -0.4990  0.6084
  568MOL0     H76648  -0.128  10.247   4.804  1.5668  1.0313 -0.3255
  568MOL0     H76649  -0.018  10.269   4.683  0.6158 -3.6325 -1.4154
  568MOL0     H76650  -0.232  10.314   4.529 -1.6284  0.6898  1.6178
  568MOL0     H76651  -0.157  10.442   4.620 -0.9108  1.3406 -2.7747
  568MOL0     H76652  -0.385  10.258   4.711  0.4253 -1.0968  0.1838
  568MOL0     H76653  -0.333  10.409   4.797  1.0940 -0.0692  0.3334
  568MOL0     H76654  -0.453  10.415   4.502 -0.3937  1.0975 -0.7196
  568MOL0     H76655  -0.384  10.545   4.580  1.6369 -1.0949 -2.0133
  568MOL0     H76656  -0.607  10.374   4.701 -0.0413  0.6093  0.7526
  568MOL0     H76657  -0.554  10.535   4.768  0.9584 -1.3098  0.7184
  568MOL0     H76658  -0.668  10.623   4.553 -0.4689 -1.2371 -1.1336
  568MOL0     H76659  -0.779  10.547   4.668 -0.1204  4.6013 -0.7644
  568MOL0     H76660  -0.646  10.411   4.437  1.7273  3.0924  2.1135
  568MOL0     H76661  -0.808  10.481   4.421  0.9560  0.7865 -0.5958
  568MOL0     H76662   0.134   9.905   4.815 -1.4574  1.9599 -0.6260
  568MOL0     H76663   0.297   9.735   4.696 -0.6039 -0.4139  2.3060
  568MOL0     H76664   0.522   9.837   4.182 -0.2307  0.1394 -0.9694
  568MOL0     H76665   0.624   9.744   4.003 -3.0679  0.6684  0.1938
  568MOL0     H76666   2.243   8.887   3.816 -0.0090 -2.4934 -0.6952
  568MOL0     H76667   2.448   8.784   3.770 -0.8423  2.7218 -0.5865
  568MOL0     H76668   2.907   8.814   3.752  3.4896  1.0957  0.1372
  568MOL0     H76669   3.133   8.750   3.708  1.1645  0.0705 -0.4203
  568MOL0     H76670   3.331   8.477   3.950 -0.8538  1.9707 -0.2473
  568MOL0     H76671   3.274   8.349   3.848 -0.5093 -0.4005  0.5242
  568MOL0     H76672   3.435   8.428   3.662  1.4327 -0.3886 -0.4079
  568MOL0     H76673   3.491   8.343   3.805  0.6335  0.3265 -0.5511
  568MOL0     H76674   3.659   8.507   3.743  0.9526  0.3624  1.0211
  568MOL0     H76675   3.578   8.584   3.888 -2.2914  0.7977  0.1814
  568MOL0     H76676   3.425   8.696   3.744 -1.1778 -0.7716 -2.2733
  568MOL0     H76677   3.509   8.644   3.597  0.2797  1.6973  0.1135
  568MOL0     H76678   3.785   8.929   3.752 -0.9541  0.7290  0.9717
  568MOL0     H76679   3.079   8.380   3.896 -1.2808 -1.0237 -0.9211
  568MOL0     H76680   2.854   8.449   3.987  1.3848 -0.8462 -0.0673
  569MOL0     O76681   1.896  10.230   4.473 -0.7160 -0.5412  0.3201
  569MOL0     C76682   1.999  10.236   4.402 -0.3037  0.4351 -0.6037
  569MOL0     O76683   2.045  10.355   4.348  0.2721  0.3641 -0.4664
  569MOL0     C76684   1.978  10.468   4.367 -0.0734 -0.1553 -0.5031
  569MOL0     C76685   1.899  10.513   4.262  1.3177 -0.0254  0.9852
  569MOL0     C76686   1.852  10.643   4.269  0.0004 -0.2474 -0.3569
  569MOL0     C76687   1.875  10.731   4.378 -0.2193 -0.0316 -0.2303
  569MOL0     O76688   1.828  10.858   4.387 -0.3396  0.4567 -0.0448
  569MOL0     C76689   1.761  10.910   4.267 -0.1317 -0.3071 -0.9060
  569MOL0     C76690   1.757  11.059   4.299 -0.0756  0.0345 -0.5602
  569MOL0     C76691   1.703  11.099   4.438  1.3632 -1.3828 -0.2441
  569MOL0     C76692   1.664  11.260   4.439  0.0361  0.6233 -0.3212
  569MOL0     C76693   1.627  11.320   4.575 -0.2652 -0.1744 -0.0017
  569MOL0     C76694   1.516  11.249   4.658 -0.3430  0.6132 -0.2494
  569MOL0     C76695   1.365  11.258   4.611 -0.1912  0.5315 -0.7769
  569MOL0     C76696   1.329  11.397   4.564 -1.4315  0.0212 -0.0576
  569MOL0     N76697   1.183  11.423   4.543 -0.2399  0.3650  0.8908
  569MOL0     C76698   1.087  11.325   4.541  0.7099  0.1551  1.0328
  569MOL0     C76699   0.973  11.391   4.545 -0.2005  0.6987  0.0589
  569MOL0     C76700   0.837  11.337   4.540  0.1385 -0.3513  0.3360
  569MOL0     C76701   0.745  11.442   4.470 -0.0034 -0.2197  0.9413
  569MOL0     C76702   0.595  11.422   4.485  1.4112 -0.4806  1.4728
  569MOL0     C76703   0.538  11.536   4.393  0.1276  0.4685 -0.0221
  569MOL0     O76704   0.399  11.520   4.384  0.2077 -0.0697 -0.0354
  569MOL0     C76705   0.321  11.583   4.484 -0.1675 -0.4318  0.1022
  569MOL0     C76706   0.362  11.649   4.601  0.2671  0.4521  0.2807
  569MOL0     C76707   0.265  11.713   4.686  1.3640  0.1608  0.1366
  569MOL0     C76708   0.311  11.796   4.804 -0.1900 -0.4057  0.6634
  569MOL0     C76709   0.119  11.687   4.657  0.4182  0.2653 -1.1658
  569MOL0     C76710   0.005  11.726   4.750  0.2126 -0.5318  0.3653
  569MOL0     O76711  -0.125  11.716   4.698 -0.6309 -0.2192 -0.2345
  569MOL0     C76712  -0.236  11.777   4.743  0.1574 -0.3240  0.8842
  569MOL0     C76713  -0.361  11.732   4.702 -0.4360 -0.1480  0.1943
  569MOL0     C76714  -0.479  11.792   4.748 -0.6299  0.6431 -0.4505
  569MOL0     C76715  -0.479  11.895   4.843 -0.5869  0.3118 -0.6481
  569MOL0     O76716  -0.578  11.934   4.934 -0.4302  0.4739 -0.0217
  569MOL0     C76717  -0.714  11.911   4.886  0.3795  0.3331  0.5096
  569MOL0     C76718  -0.812  12.019   4.937 -0.7064 -0.5008  0.6218
  569MOL0     C76719  -0.830  11.990   5.090  0.4821  0.5586  0.4513
  569MOL0     C76720  -0.925  12.096   5.145  0.3854 -0.3000 -1.5041
  569MOL0     C76721  -1.072  12.081   5.120 -0.0206  0.1837 -0.1224
  569MOL0     C76722  -1.156  12.203   5.148 -0.6926 -0.9929  0.3675
  569MOL0     C76723  -1.298  12.171   5.143 -0.1242  0.1058 -0.0642
  569MOL0     C76724  -1.386  12.297   5.178 -0.8084  0.4329  0.6610
  569MOL0    Cl76725  -1.557  12.244   5.195  0.2445 -0.2815  0.1923
  569MOL0     C76726  -0.353  11.959   4.869 -0.5522  0.4185 -0.9626
  569MOL0     C76727  -0.234  11.900   4.818 -0.3407  0.5602 -0.4704
  569MOL0     O76728   0.028  11.763   4.866  0.2330  1.0909  0.1830
  569MOL0     C76729   0.089  11.606   4.543 -0.7829 -0.5250 -0.3287
  569MOL0     C76730   0.188  11.563   4.462  0.9178 -0.2166 -0.0237
  569MOL0     N76731   1.005  11.524   4.544  0.6848 -0.3951  0.5014
  569MOL0     N76732   1.128  11.545   4.547  0.5694  0.3068 -0.1546
  569MOL0     C76733   1.954  10.685   4.481 -0.1583  0.0118  0.6852
  569MOL0     C76734   2.007  10.553   4.471  0.4672 -1.2746 -0.5044
  569MOL0     C76735   2.074  10.103   4.381 -0.3074  0.4254 -0.1123
  569MOL0     C76736   2.182  10.091   4.300 -0.8226 -0.1297 -0.1977
  569MOL0     C76737   2.251   9.973   4.280 -0.5480  0.7471  0.9455
  569MOL0     C76738   2.198   9.856   4.340 -0.3229 -0.5504 -0.3905
  569MOL0     O76739   2.253   9.731   4.325 -0.2246 -1.0401  0.5292
  569MOL0     C76740   2.386   9.720   4.265  0.4340 -0.3662  0.5941
  569MOL0     C76741   2.428   9.577   4.241 -0.1420  0.1976 -1.0537
  569MOL0     C76742   2.396   9.524   4.103  0.7580  0.6401 -0.6652
  569MOL0     C76743   2.432   9.376   4.106 -0.1875 -1.4149  0.0583
  569MOL0     C76744   2.413   9.317   3.971  0.2283 -0.6580  0.5998
  569MOL0     C76745   2.390   9.265   3.860  0.1633 -0.5037 -0.4196
  569MOL0     C76746   2.085   9.860   4.421  0.4056  0.0646 -0.0625
  569MOL0     C76747   2.026   9.987   4.446  0.6983  0.0811 -0.0257
  569MOL0     H76748   1.886  10.463   4.167 -1.6449 -3.2309  2.8633
  569MOL0     H76749   1.790  10.680   4.188  0.2267 -0.5956 -0.6937
  569MOL0     H76750   1.823  10.892   4.178  0.7299  0.9694 -0.5986
  569MOL0     H76751   1.662  10.866   4.255 -0.4754  0.4709 -0.9774
  569MOL0     H76752   1.856  11.104   4.296 -0.5552  1.3926  1.7532
  569MOL0     H76753   1.689  11.109   4.231 -1.9910 -0.5306  0.8482
  569MOL0     H76754   1.612  11.039   4.451  1.0019 -0.8246 -0.1956
  569MOL0     H76755   1.769  11.076   4.522 -0.0023 -0.6172  1.0816
  569MOL0     H76756   1.750  11.311   4.394  1.4615 -1.2415  0.1921
  569MOL0     H76757   1.582  11.268   4.367 -3.4529 -0.4591  3.1965
  569MOL0     H76758   1.713  11.323   4.642  0.1964 -0.8519 -0.5470
  569MOL0     H76759   1.598  11.425   4.573  1.3970  0.3232  0.6580
  569MOL0     H76760   1.541  11.143   4.642  1.2898  1.0437 -0.6702
  569MOL0     H76761   1.522  11.277   4.763 -4.2662  1.1084 -0.0229
  569MOL0     H76762   1.344  11.187   4.530  1.5488 -0.8668 -0.0555
  569MOL0     H76763   1.318  11.237   4.707  1.1354 -0.6291 -0.3640
  569MOL0     H76764   1.377  11.417   4.468 -1.5030  0.8749  0.0817
  569MOL0     H76765   1.354  11.477   4.635 -5.0191  1.2697  0.0135
  569MOL0     H76766   1.108  11.219   4.551 -2.2076 -0.5238  0.9176
  569MOL0     H76767   0.834  11.245   4.482 -1.3791  0.2678 -0.6254
  569MOL0     H76768   0.793  11.335   4.641  1.2249  5.0387  1.2656
  569MOL0     H76769   0.769  11.436   4.364 -0.9786  1.3738  0.6015
  569MOL0     H76770   0.768  11.543   4.505  0.7415 -0.1396  0.2470
  569MOL0     H76771   0.565  11.437   4.589  0.4325 -4.0477  1.8606
  569MOL0     H76772   0.561  11.325   4.448 -1.5052  0.4826  1.3874
  569MOL0     H76773   0.584  11.540   4.294 -1.7208 -0.8947 -1.0048
  569MOL0     H76774   0.557  11.636   4.433  2.2512 -0.0520  0.3805
  569MOL0     H76775   0.468  11.646   4.623  0.4461 -0.7144 -0.5880
  569MOL0     H76776   0.329  11.730   4.890  1.1703 -0.1655  0.5903
  569MOL0     H76777   0.404  11.850   4.783 -0.5296 -0.8404 -2.4070
  569MOL0     H76778   0.233  11.871   4.815 -0.6406 -0.0824 -3.4680
  569MOL0     H76779  -0.358  11.642   4.642 -0.0430  0.1092 -0.1765
  569MOL0     H76780  -0.567  11.734   4.722 -0.6057  0.8292 -0.9571
  569MOL0     H76781  -0.721  11.904   4.778  1.2003 -0.1036  0.4819
  569MOL0     H76782  -0.746  11.814   4.926  1.2242  0.1320  0.7185
  569MOL0     H76783  -0.787  12.123   4.911  0.6335 -0.0096  3.5019
  569MOL0     H76784  -0.908  12.010   4.885  0.7722 -0.3271 -2.3696
  569MOL0     H76785  -0.740  12.016   5.146  0.2127  0.9745  0.7016
  569MOL0     H76786  -0.867  11.889   5.108  0.1529  0.9787  2.4473
  569MOL0     H76787  -0.903  12.099   5.252  2.7522 -2.1962 -1.8562
  569MOL0     H76788  -0.888  12.195   5.117 -0.8838  1.0316  1.1627
  569MOL0     H76789  -1.109  12.002   5.186  1.0953  0.0075  0.3094
  569MOL0     H76790  -1.083  12.036   5.020  2.2695 -1.9714  0.4952
  569MOL0     H76791  -1.134  12.238   5.250 -0.8250  4.2830 -1.0892
  569MOL0     H76792  -1.126  12.285   5.082  3.7578 -1.6958  1.1578
  569MOL0     H76793  -1.325  12.087   5.207  0.2533  0.1112  0.1042
  569MOL0     H76794  -1.326  12.148   5.040  1.0542 -3.3358  0.2673
  569MOL0     H76795  -1.377  12.372   5.099  0.3067 -1.1030 -0.7525
  569MOL0     H76796  -1.348  12.338   5.272  2.4708 -0.3525 -0.2024
  569MOL0     H76797  -0.331  12.027   4.951  2.5558 -3.2735  1.6555
  569MOL0     H76798  -0.145  11.951   4.855 -0.8143  1.9098 -1.1401
  569MOL0     H76799  -0.012  11.570   4.523 -0.9706 -1.9225  2.5308
  569MOL0     H76800   0.164  11.519   4.365 -0.7587  0.5603  0.0052
  569MOL0     H76801   1.999  10.754   4.552 -0.4232 -0.6508  1.5182
  569MOL0     H76802   2.076  10.517   4.547 -0.5187 -0.4660  0.8130
  569MOL0     H76803   2.210  10.187   4.259 -0.4141  0.5210  1.5392
  569MOL0     H76804   2.327   9.970   4.203 -1.0957  0.5577  0.4078
  569MOL0     H76805   2.384   9.751   4.160  0.3251 -3.3152 -0.3657
  569MOL0     H76806   2.462   9.774   4.322  1.2451 -0.8222 -0.0485
  569MOL0     H76807   2.380   9.512   4.314 -2.1906 -0.1292 -2.6091
  569MOL0     H76808   2.537   9.576   4.253 -0.3637 -0.8695  1.4210
  569MOL0     H76809   2.455   9.576   4.026 -1.1435  1.4488 -1.6246
  569MOL0     H76810   2.290   9.529   4.077  0.4637  0.1140  0.3944
  569MOL0     H76811   2.380   9.331   4.191 -0.0800 -0.3747  0.7062
  569MOL0     H76812   2.539   9.369   4.127  0.1104 -0.6898 -1.1462
  569MOL0     H76813   2.381   9.208   3.770 -2.1320  0.5094 -0.9104
  569MOL0     H76814   2.047   9.775   4.477  1.0814  0.5421  1.1743
  569MOL0     H76815   1.942   9.989   4.514  1.8468 -0.4820  1.4552
  570MOL0     O76816   3.115   9.591   5.215  0.2756  0.0448  0.3104
  570MOL0     C76817   3.133   9.516   5.307 -0.5323 -0.1087 -0.7368
  570MOL0     O76818   3.043   9.482   5.402 -0.1079 -0.3587  0.1555
  570MOL0     C76819   2.925   9.553   5.411  0.4295  0.5434 -0.1753
  570MOL0     C76820   2.837   9.550   5.303  0.4016 -0.4638  0.2601
  570MOL0     C76821   2.718   9.613   5.309  0.3091  0.3550 -0.8000
  570MOL0     C76822   2.667   9.649   5.439  0.1698 -0.8734  0.6501
  570MOL0     O76823   2.545   9.712   5.455  0.4211 -0.4625  0.1042
  570MOL0     C76824   2.537   9.840   5.403  0.6539  0.1827  1.0220
  570MOL0     C76825   2.395   9.901   5.423  0.3153  0.0119  0.3286
  570MOL0     C76826   2.396  10.030   5.349  0.4397 -0.3771 -0.0808
  570MOL0     C76827   2.251  10.071   5.323 -0.7373 -0.6532 -0.1514
  570MOL0     C76828   2.256  10.215   5.257 -0.1536 -0.1806  0.7985
  570MOL0     C76829   2.124  10.279   5.283 -0.0533  0.3566  0.0013
  570MOL0     C76830   2.120  10.422   5.231  0.3114 -0.8352 -1.2122
  570MOL0     C76831   2.239  10.514   5.265 -0.6446  0.1629 -0.0943
  570MOL0     N76832   2.226  10.646   5.209 -0.1298  0.3620 -0.1035
  570MOL0     C76833   2.211  10.682   5.079  0.1529  0.4411 -0.3500
  570MOL0     C76834   2.209  10.818   5.072  0.1697 -0.8802  0.0567
  570MOL0     C76835   2.175  10.912   4.963 -0.1547  0.0056  0.5683
  570MOL0     C76836   2.063  10.858   4.870 -0.5632 -1.1163 -0.1805
  570MOL0     C76837   1.927  10.880   4.939 -0.2316 -0.9412 -0.4817
  570MOL0     C76838   1.815  10.884   4.848 -0.1678  0.1392 -0.8744
  570MOL0     O76839   1.702  10.923   4.918 -0.0565 -0.2374 -0.0478
  570MOL0     C76840   1.585  10.906   4.845  0.0331 -0.4509  0.1070
  570MOL0     C76841   1.570  10.877   4.709  0.3801 -0.0162  0.3653
  570MOL0     C76842   1.445  10.868   4.652  0.4055 -0.4742  0.0449
  570MOL0     C76843   1.435  10.826   4.508  0.9436 -0.3663  0.2707
  570MOL0     C76844   1.327  10.932   4.721  0.2533  0.4960  0.3420
  570MOL0     C76845   1.182  10.936   4.669 -0.5489  1.5788 -0.2664
  570MOL0     O76846   1.090  10.953   4.765 -0.0615 -0.0033 -0.5009
  570MOL0     C76847   0.952  10.964   4.755 -0.0023  0.3421 -0.3161
  570MOL0     C76848   0.874  10.953   4.871  0.2197 -0.2562 -0.0931
  570MOL0     C76849   0.729  10.951   4.864 -0.4217  0.4211 -0.1845
  570MOL0     C76850   0.661  10.956   4.740  0.0739 -0.3722  0.3989
  570MOL0     O76851   0.525  10.948   4.735  0.3572 -0.2470  0.0858
  570MOL0     C76852   0.472  11.076   4.694 -0.5423  0.1959  1.0571
  570MOL0     C76853   0.323  11.076   4.704  0.6663 -0.2627  0.3012
  570MOL0     C76854   0.280  11.221   4.670 -0.6512 -0.3028 -0.2660
  570MOL0     C76855   0.132  11.234   4.638  0.9560  0.2213 -0.8500
  570MOL0     C76856   0.044  11.255   4.763  0.9764  0.4602  0.0849
  570MOL0     C76857  -0.101  11.304   4.720 -1.0770 -0.4701 -0.5423
  570MOL0     C76858  -0.201  11.281   4.837 -0.0075  0.1598  1.0963
  570MOL0     C76859  -0.329  11.361   4.811  0.4656 -0.0788 -0.1097
  570MOL0    Cl76860  -0.409  11.310   4.663  0.0262 -0.2365 -0.2306
  570MOL0     C76861   0.738  10.969   4.632 -0.0406 -0.6586 -0.4882
  570MOL0     C76862   0.881  10.966   4.636  0.8264 -0.1899 -0.4613
  570MOL0     O76863   1.165  10.922   4.545 -0.4313 -0.0951 -0.0523
  570MOL0     C76864   1.349  10.954   4.852  1.0038 -0.9411  0.3059
  570MOL0     C76865   1.472  10.953   4.914  0.2638 -0.2200 -0.5071
  570MOL0     N76866   2.248  10.856   5.199 -0.3718 -0.8289 -0.5868
  570MOL0     N76867   2.255  10.759   5.280 -0.4667 -0.2898  0.4910
  570MOL0     C76868   2.755   9.639   5.546 -0.2713  0.6081  0.0358
  570MOL0     C76869   2.883   9.592   5.538  0.0692  0.3860 -0.3083
  570MOL0     C76870   3.268   9.452   5.315  0.3319  0.8316  0.0032
  570MOL0     C76871   3.369   9.451   5.214 -0.2372 -0.7521 -0.8232
  570MOL0     C76872   3.502   9.406   5.239  0.8111 -0.0971  0.7436
  570MOL0     C76873   3.522   9.342   5.361 -0.0588 -1.2369 -0.1235
  570MOL0     O76874   3.629   9.271   5.394 -0.8813 -0.8701  0.1148
  570MOL0     C76875   3.743   9.273   5.300 -1.0829 -0.7202 -0.2001
  570MOL0     C76876   3.862   9.210   5.354  0.2844  0.5640  0.2523
  570MOL0     C76877   3.921   9.284   5.473 -0.3073  0.5074 -0.6099
  570MOL0     C76878   3.990   9.188   5.560 -0.1139  0.2026 -0.3405
  570MOL0     C76879   4.100   9.235   5.652  0.1745  0.1688  0.1612
  570MOL0     C76880   4.186   9.262   5.726 -0.5650  0.5360  0.2832
  570MOL0     C76881   3.415   9.336   5.448 -0.4007  0.1384 -0.5215
  570MOL0     C76882   3.295   9.392   5.436 -0.7559  0.2381  0.1940
  570MOL0     H76883   2.875   9.504   5.212 -2.0525 -1.4332 -0.3567
  570MOL0     H76884   2.667   9.642   5.218  1.3108 -1.1344 -1.8830
  570MOL0     H76885   2.604   9.910   5.454  1.1637  1.6797 -1.5072
  570MOL0     H76886   2.567   9.853   5.298  0.2743  0.8912  1.0001
  570MOL0     H76887   2.314   9.835   5.389  0.5865  0.1617 -0.6389
  570MOL0     H76888   2.394   9.928   5.529 -0.5572 -0.7281  0.5242
  570MOL0     H76889   2.460  10.106   5.397 -1.0703  0.3061  0.9103
  570MOL0     H76890   2.431  10.000   5.249  0.0807 -3.4405  0.6482
  570MOL0     H76891   2.194  10.001   5.262  0.6162 -0.4598 -1.6796
  570MOL0     H76892   2.191  10.079   5.415 -2.0779  0.9957 -1.1158
  570MOL0     H76893   2.342  10.275   5.288 -0.2215  1.2703 -1.5868
  570MOL0     H76894   2.263  10.195   5.150  0.2222 -1.0671  0.9773
  570MOL0     H76895   2.051  10.225   5.221  0.6896  3.1259 -3.5972
  570MOL0     H76896   2.092  10.260   5.386 -0.8893 -3.0557 -0.7522
  570MOL0     H76897   2.110  10.417   5.123 -0.3434 -2.0623 -1.1224
  570MOL0     H76898   2.029  10.463   5.275  1.1974 -2.2337  2.2939
  570MOL0     H76899   2.316  10.468   5.201 -1.3590 -0.5045 -0.4995
  570MOL0     H76900   2.269  10.519   5.370  1.0807 -0.2311 -0.5325
  570MOL0     H76901   2.191  10.616   4.995  3.6372 -0.2745 -0.7780
  570MOL0     H76902   2.142  11.009   5.003  0.3321 -0.8123  3.1633
  570MOL0     H76903   2.268  10.929   4.908  0.9745 -1.1733  2.0435
  570MOL0     H76904   2.070  10.754   4.837 -0.9323 -1.0226 -0.5689
  570MOL0     H76905   2.077  10.912   4.776  0.6757  0.0109  0.6148
  570MOL0     H76906   1.914  10.978   4.987  0.1694 -1.9265  1.7589
  570MOL0     H76907   1.915  10.804   5.016 -1.3651  0.6370  0.9736
  570MOL0     H76908   1.797  10.789   4.797 -1.3054  1.1247 -2.3913
  570MOL0     H76909   1.832  10.964   4.776 -1.7081  0.7790 -0.5612
  570MOL0     H76910   1.660  10.857   4.652  0.5772  0.6437  0.4334
  570MOL0     H76911   1.348  10.761   4.497  0.1504  0.9298 -1.5515
  570MOL0     H76912   1.421  10.901   4.430 -2.3740 -2.7200 -1.6584
  570MOL0     H76913   1.526  10.772   4.478  0.7939 -0.6656  0.3446
  570MOL0     H76914   0.925  10.955   4.967 -1.5891 -0.7605  0.9120
  570MOL0     H76915   0.668  10.955   4.954 -0.2957  2.9775 -0.1363
  570MOL0     H76916   0.507  11.159   4.755 -0.3199 -1.1467  2.8110
  570MOL0     H76917   0.508  11.096   4.592 -1.2597  2.8081  1.2353
  570MOL0     H76918   0.292  10.994   4.638  2.2943 -0.5622 -0.1184
  570MOL0     H76919   0.283  11.059   4.804  4.5099  0.4868  2.1365
  570MOL0     H76920   0.332  11.254   4.579  0.7523 -3.0038 -0.5217
  570MOL0     H76921   0.300  11.294   4.749  0.0352 -1.0847  0.2883
  570MOL0     H76922   0.115  11.316   4.568 -1.9286  1.2608  0.8903
  570MOL0     H76923   0.092  11.142   4.595 -1.4857  2.3569 -3.5824
  570MOL0     H76924   0.096  11.336   4.813  1.4539  2.0128 -2.6990
  570MOL0     H76925   0.045  11.168   4.829  2.3241 -1.1627 -1.9284
  570MOL0     H76926  -0.095  11.411   4.698 -0.2652  0.1785  2.3882
  570MOL0     H76927  -0.129  11.240   4.636 -1.7682  0.7131 -1.2396
  570MOL0     H76928  -0.157  11.315   4.931  2.3468  2.3351 -0.6509
  570MOL0     H76929  -0.232  11.176   4.844 -2.7143  0.9572  2.0263
  570MOL0     H76930  -0.300  11.466   4.806  2.8392 -0.7468 -2.9138
  570MOL0     H76931  -0.406  11.338   4.885  0.1507 -0.0082 -0.4104
  570MOL0     H76932   0.680  10.968   4.540  0.2607 -0.0074 -0.6898
  570MOL0     H76933   0.933  10.976   4.540  0.7961  3.5716 -0.2684
  570MOL0     H76934   1.264  11.000   4.902 -0.3445 -1.1579 -1.6627
  570MOL0     H76935   1.474  10.988   5.017 -3.2020  0.0661 -0.4060
  570MOL0     H76936   2.716   9.673   5.642 -0.5429  1.6107 -0.4137
  570MOL0     H76937   2.950   9.582   5.624 -0.6771  0.0316  0.2392
  570MOL0     H76938   3.335   9.488   5.117 -0.4499 -0.8843 -0.8012
  570MOL0     H76939   3.568   9.403   5.153  0.2786 -0.4276  0.3386
  570MOL0     H76940   3.707   9.231   5.205 -0.0864 -1.0513 -0.4496
  570MOL0     H76941   3.775   9.376   5.278  0.1824 -0.9946  0.2875
  570MOL0     H76942   3.934   9.204   5.272 -0.1402 -0.3086 -0.0706
  570MOL0     H76943   3.822   9.114   5.387 -0.6902  1.5786  2.1620
  570MOL0     H76944   3.843   9.331   5.534 -0.2333 -1.3900  1.0485
  570MOL0     H76945   3.990   9.361   5.439  0.0130  0.5283  0.0694
  570MOL0     H76946   4.048   9.120   5.498  1.6273  0.1266  1.2854
  570MOL0     H76947   3.913   9.139   5.620 -0.3846  3.0005  1.8223
  570MOL0     H76948   4.262   9.294   5.795 -0.6589  0.1064  0.5885
  570MOL0     H76949   3.441   9.287   5.541  2.7978  1.2070 -0.7427
  570MOL0     H76950   3.223   9.391   5.517  0.0269 -1.5055  0.9375
  571MOL0     O76951   3.226  10.096   5.264 -0.5358 -0.4661  0.2676
  571MOL0     C76952   3.222   9.982   5.304  0.5392  0.1292 -0.4265
  571MOL0     O76953   3.104   9.909   5.328  0.2549  0.0034 -0.0330
  571MOL0     C76954   2.980   9.960   5.293  0.3880  0.2005 -0.0615
  571MOL0     C76955   2.929  10.078   5.343  0.6401 -0.2048 -0.7307
  571MOL0     C76956   2.811  10.133   5.298 -0.0332  1.1924 -0.3999
  571MOL0     C76957   2.744  10.056   5.200  0.2311 -0.5776 -0.3225
  571MOL0     O76958   2.645  10.109   5.125  0.0724  0.5487 -0.4613
  571MOL0     C76959   2.671  10.233   5.068 -0.2285 -1.1694 -0.4395
  571MOL0     C76960   2.551  10.283   4.994  0.4808  0.3061  0.1227
  571MOL0     C76961   2.582  10.416   4.916  0.1686 -0.0018  0.3964
  571MOL0     C76962   2.461  10.487   4.867  0.4272  0.0899 -0.2470
  571MOL0     C76963   2.480  10.630   4.819 -0.3414  0.1284  0.4614
  571MOL0     C76964   2.555  10.652   4.685 -0.4433 -1.0621 -0.4624
  571MOL0     C76965   2.523  10.797   4.636 -0.2725 -0.2540 -0.0235
  571MOL0     C76966   2.643  10.893   4.625  0.6415  0.5790  0.7895
  571MOL0     N76967   2.632  10.999   4.535  0.1527 -0.0758 -0.2861
  571MOL0     C76968   2.581  11.122   4.566  1.1487  0.7007 -0.4811
  571MOL0     C76969   2.600  11.196   4.459  0.6804  0.2716 -0.1278
  571MOL0     C76970   2.560  11.340   4.432  0.8285  0.2622  0.9744
  571MOL0     C76971   2.614  11.412   4.560  0.3674 -0.7126 -0.4093
  571MOL0     C76972   2.560  11.557   4.558 -0.2906 -0.6935  0.4017
  571MOL0     C76973   2.441  11.583   4.649 -0.2027 -0.6595  0.0760
  571MOL0     O76974   2.410  11.718   4.647  0.7798  0.1757 -0.4653
  571MOL0     C76975   2.297  11.770   4.712 -0.7602  0.2926  0.7542
  571MOL0     C76976   2.286  11.906   4.723 -0.0729 -0.3310  0.5088
  571MOL0     C76977   2.189  11.972   4.807 -0.2483  0.9834 -0.1784
  571MOL0     C76978   2.198  12.124   4.805 -0.2804  0.8545 -0.4235
  571MOL0     C76979   2.095  11.893   4.873  0.2640 -0.1163 -0.2810
  571MOL0     C76980   2.001  11.952   4.971 -0.0607 -0.1327  0.1691
  571MOL0     O76981   1.883  11.889   4.978  0.3442 -0.2880 -1.0646
  571MOL0     C76982   1.767  11.915   5.056  0.4740 -1.1269  0.1499
  571MOL0     C76983   1.654  11.837   5.045 -0.5172  0.3393 -0.2534
  571MOL0     C76984   1.542  11.852   5.124  0.3158 -1.3723  0.3086
  571MOL0     C76985   1.528  11.962   5.214  0.4605 -0.1477  0.2337
  571MOL0     O76986   1.402  11.992   5.264  0.4074 -0.3102  0.0190
  571MOL0     C76987   1.396  12.085   5.372 -0.7069 -0.0204  1.2815
  571MOL0     C76988   1.248  12.080   5.418 -0.5177  0.5239  0.9277
  571MOL0     C76989   1.139  12.155   5.325  0.3342 -0.4710  0.5735
  571MOL0     C76990   0.996  12.136   5.384  1.2130 -0.2448 -0.7188
  571MOL0     C76991   0.905  12.262   5.365 -0.7312  1.2153 -0.2128
  571MOL0     C76992   0.761  12.224   5.399 -0.3598 -0.0031  0.1769
  571MOL0     C76993   0.667  12.339   5.421  0.6786 -0.1201  0.0907
  571MOL0     C76994   0.529  12.317   5.477 -0.5268  0.5083  0.7704
  571MOL0    Cl76995   0.419  12.232   5.374 -0.1890  0.0025  0.2040
  571MOL0     C76996   1.633  12.049   5.232 -0.6475  0.6883 -0.2160
  571MOL0     C76997   1.752  12.023   5.149 -0.2524  0.1558  0.7733
  571MOL0     O76998   2.042  12.042   5.041  0.0652 -0.3013 -0.4821
  571MOL0     C76999   2.111  11.757   4.871 -0.4051 -0.7900 -0.0567
  571MOL0     C77000   2.221  11.694   4.799  0.1244 -0.8661  0.5800
  571MOL0     N77001   2.660  11.119   4.359  0.0342  0.1571 -0.6891
  571MOL0     N77002   2.685  11.006   4.408  0.0061 -0.7013 -0.0485
  571MOL0     C77003   2.788   9.933   5.162  0.2873 -0.1630  0.4685
  571MOL0     C77004   2.906   9.885   5.215  0.5508  0.4708  0.4370
  571MOL0     C77005   3.350   9.922   5.359  0.0935  1.3754 -0.9393
  571MOL0     C77006   3.471   9.995   5.349  0.0362  0.2858  0.0563
  571MOL0     C77007   3.592   9.934   5.386 -0.2435 -0.1288 -0.1366
  571MOL0     C77008   3.587   9.804   5.439  0.0931  0.1048 -0.6282
  571MOL0     O77009   3.690   9.727   5.491 -0.0224  0.5075 -0.1515
  571MOL0     C77010   3.819   9.778   5.485 -0.2321  0.2555 -0.1482
  571MOL0     C77011   3.923   9.682   5.531  0.5130 -0.8568 -0.0091
  571MOL0     C77012   4.057   9.750   5.567 -0.1280  0.3625  0.1192
  571MOL0     C77013   4.169   9.655   5.606 -0.3645  0.0672 -0.6136
  571MOL0     C77014   4.144   9.614   5.744 -0.3865 -0.5911  0.2100
  571MOL0     C77015   4.142   9.579   5.864 -0.2372  0.0201 -1.2120
  571MOL0     C77016   3.470   9.731   5.446  0.0562  0.6053  0.3135
  571MOL0     C77017   3.350   9.786   5.399 -0.2922  0.0694 -0.2104
  571MOL0     H77018   2.982  10.135   5.418 -0.4588  0.8310 -0.7065
  571MOL0     H77019   2.781  10.235   5.323 -2.2575  1.0033 -1.9861
  571MOL0     H77020   2.703  10.309   5.139 -2.5139 -0.9836  0.4681
  571MOL0     H77021   2.761  10.215   5.008 -0.0598  0.6324 -0.7775
  571MOL0     H77022   2.520  10.204   4.925 -3.7311  0.6637  1.2982
  571MOL0     H77023   2.471  10.301   5.067 -0.5673 -0.6503 -0.7440
  571MOL0     H77024   2.637  10.470   4.993  0.4664 -1.3897  1.1929
  571MOL0     H77025   2.647  10.409   4.828 -1.7606  2.2293 -1.3439
  571MOL0     H77026   2.416  10.429   4.786  0.8405  1.1570 -1.2635
  571MOL0     H77027   2.390  10.489   4.950 -1.8119  0.1930 -2.0648
  571MOL0     H77028   2.380  10.672   4.805 -0.3730 -0.2130 -0.4028
  571MOL0     H77029   2.527  10.685   4.901 -0.0977  0.6909 -0.0569
  571MOL0     H77030   2.663  10.634   4.689 -0.4428 -1.1936 -0.9725
  571MOL0     H77031   2.520  10.587   4.604 -0.5047 -0.9137 -0.5569
  571MOL0     H77032   2.490  10.785   4.532  1.4430  2.9803 -1.0836
  571MOL0     H77033   2.442  10.843   4.694  0.1021 -1.2772  1.3397
  571MOL0     H77034   2.729  10.831   4.597 -0.2461 -1.5538  2.5623
  571MOL0     H77035   2.663  10.943   4.720  0.7348 -0.6467  1.4364
  571MOL0     H77036   2.527  11.140   4.658  0.3817 -3.0198 -0.0480
  571MOL0     H77037   2.612  11.378   4.344  1.8789 -2.1202  0.5233
  571MOL0     H77038   2.451  11.346   4.424  0.3986 -1.7433  3.7630
  571MOL0     H77039   2.722  11.401   4.555  0.3383 -0.5843 -1.6439
  571MOL0     H77040   2.578  11.367   4.654 -1.2182  1.4578  0.1062
  571MOL0     H77041   2.542  11.602   4.460 -1.1375  4.2035  2.5410
  571MOL0     H77042   2.647  11.607   4.599  0.7046 -2.6178  0.7600
  571MOL0     H77043   2.478  11.562   4.750  0.6410  0.6843  0.0759
  571MOL0     H77044   2.352  11.529   4.616 -0.9651  0.5001  0.1448
  571MOL0     H77045   2.363  11.965   4.674  1.9344 -1.2361  2.3494
  571MOL0     H77046   2.246  12.155   4.899  0.6590  1.7048 -1.1593
  571MOL0     H77047   2.265  12.159   4.726  0.2992 -1.9606 -1.3098
  571MOL0     H77048   2.100  12.172   4.806 -1.5991 -1.1793  4.8053
  571MOL0     H77049   1.660  11.767   4.962  2.8018  1.6374 -1.2678
  571MOL0     H77050   1.450  11.798   5.110 -2.5067  2.8279  0.7494
  571MOL0     H77051   1.459  12.035   5.447  1.9350 -0.1944 -0.8917
  571MOL0     H77052   1.434  12.184   5.344 -1.0629 -0.5455 -1.3386
  571MOL0     H77053   1.225  11.974   5.432 -1.0688  0.4306 -0.4679
  571MOL0     H77054   1.253  12.123   5.518 -1.4975 -2.1470  2.2465
  571MOL0     H77055   1.130  12.117   5.222 -2.3034  3.4419 -0.8665
  571MOL0     H77056   1.152  12.261   5.306 -1.7752 -0.2261  0.2594
  571MOL0     H77057   0.951  12.044   5.346 -2.1801  0.8281  0.4011
  571MOL0     H77058   1.003  12.126   5.493 -0.4848 -1.7576 -0.7060
  571MOL0     H77059   0.916  12.291   5.260 -0.3727  1.3929 -0.1294
  571MOL0     H77060   0.951  12.343   5.423 -1.8451 -0.1395  2.7646
  571MOL0     H77061   0.724  12.160   5.318 -2.5086  1.0207  0.2663
  571MOL0     H77062   0.756  12.167   5.492 -0.1632 -3.0911 -1.5850
  571MOL0     H77063   0.653  12.394   5.328  1.9573  0.6742  0.3557
  571MOL0     H77064   0.724  12.400   5.492  0.7176  0.5365 -0.5043
  571MOL0     H77065   0.480  12.414   5.494 -2.6492 -0.3633  0.0786
  571MOL0     H77066   0.538  12.265   5.572  0.4150  0.3919  0.6215
  571MOL0     H77067   1.629  12.140   5.292  2.9819  0.7473  0.1840
  571MOL0     H77068   1.826  12.101   5.166 -1.6317  1.7928 -0.4320
  571MOL0     H77069   2.052  11.697   4.939 -1.2286 -1.5416 -1.3895
  571MOL0     H77070   2.246  11.591   4.820 -0.6701 -1.3388 -0.7248
  571MOL0     H77071   2.721   9.881   5.094  0.4920 -0.1281  0.2373
  571MOL0     H77072   2.963   9.797   5.186  1.4893  0.5471  1.9701
  571MOL0     H77073   3.470  10.093   5.302 -0.7480 -0.0875 -0.7309
  571MOL0     H77074   3.686   9.989   5.376 -0.6817  0.2363 -4.1440
  571MOL0     H77075   3.853   9.805   5.385  1.6291 -1.8702 -0.1823
  571MOL0     H77076   3.822   9.865   5.552 -0.5249  0.2320 -0.1008
  571MOL0     H77077   3.928   9.610   5.448  0.6526  2.0205 -2.6789
  571MOL0     H77078   3.888   9.628   5.619  0.0193  0.3688  0.5647
  571MOL0     H77079   4.047   9.825   5.646 -0.3230  1.7790 -1.2172
  571MOL0     H77080   4.087   9.811   5.481  0.4755  2.7127  1.8854
  571MOL0     H77081   4.268   9.702   5.599 -0.6446  0.6506 -0.6610
  571MOL0     H77082   4.173   9.571   5.536  2.6825 -1.1662  0.8247
  571MOL0     H77083   4.124   9.537   5.961  0.9711 -1.2972 -1.5214
  571MOL0     H77084   3.469   9.633   5.493 -1.2598  1.3003  1.8360
  571MOL0     H77085   3.265   9.719   5.395 -1.3068  1.3199 -0.4169
  572MOL0     O77086   6.702   3.974   4.778 -0.2492 -0.0618 -0.2934
  572MOL0     C77087   6.685   3.994   4.665 -0.1999  0.1747 -0.0056
  572MOL0     O77088   6.555   4.016   4.611  0.2261  0.0300  0.0281
  572MOL0     C77089   6.438   3.997   4.689  0.1378  0.0826 -0.7387
  572MOL0     C77090   6.315   4.055   4.650 -0.0322  0.2697 -0.3516
  572MOL0     C77091   6.193   4.036   4.727 -0.0405  0.1693  0.3476
  572MOL0     C77092   6.193   3.970   4.851 -0.1159 -0.5214 -0.1217
  572MOL0     O77093   6.071   3.945   4.914  0.4281 -1.1705 -0.2748
  572MOL0     C77094   6.071   3.844   5.019  0.4677 -0.2837 -0.5658
  572MOL0     C77095   5.927   3.832   5.064  0.2404 -0.1751 -0.1469
  572MOL0     C77096   5.834   3.782   4.951 -1.0769 -0.8059  0.0756
  572MOL0     C77097   5.686   3.770   4.980 -0.8449  0.0152 -0.6511
  572MOL0     C77098   5.611   3.685   4.879 -0.7141  0.1319  0.3143
  572MOL0     C77099   5.470   3.733   4.869  1.2500  0.0613  0.4022
  572MOL0     C77100   5.393   3.659   4.748 -0.2016 -0.7526 -0.0933
  572MOL0     C77101   5.245   3.715   4.752 -0.7461 -0.1819  0.5826
  572MOL0     N77102   5.226   3.806   4.640  1.3165  0.7738 -0.0480
  572MOL0     C77103   5.316   3.902   4.605 -0.3940  0.1240  0.4038
  572MOL0     C77104   5.258   3.964   4.499  0.4583 -0.2114  0.5474
  572MOL0     C77105   5.309   4.081   4.407 -0.5760  0.1377 -0.0333
  572MOL0     C77106   5.426   4.032   4.330  0.7910  0.3691 -0.0050
  572MOL0     C77107   5.517   4.146   4.284  0.7866  0.6747  0.1636
  572MOL0     C77108   5.449   4.272   4.230  0.3138  0.2183  0.4375
  572MOL0     O77109   5.362   4.235   4.120  0.5303  0.3437 -0.4520
  572MOL0     C77110   5.248   4.305   4.087 -1.2422 -1.0027  0.1367
  572MOL0     C77111   5.145   4.239   4.029 -0.0076  0.0527  0.1963
  572MOL0     C77112   5.029   4.303   3.992  0.8811 -0.1665  0.0489
  572MOL0     C77113   4.916   4.224   3.941 -0.1734  0.3596  0.4894
  572MOL0     C77114   5.023   4.445   3.982 -0.1112  0.4045 -0.2114
  572MOL0     C77115   4.904   4.520   3.935 -0.3812 -0.0510 -0.4845
  572MOL0     O77116   4.884   4.634   3.996 -0.1733 -0.4119  0.7183
  572MOL0     C77117   4.767   4.700   3.956 -0.2781  0.2884  0.3064
  572MOL0     C77118   4.784   4.833   3.890  0.5400  0.1352 -0.1110
  572MOL0     C77119   4.666   4.892   3.845  0.1987 -0.7792  0.0713
  572MOL0     C77120   4.536   4.855   3.868  0.6462 -0.2426 -0.8762
  572MOL0     O77121   4.430   4.929   3.838 -0.2619  0.4544  0.5692
  572MOL0     C77122   4.315   4.858   3.781  0.2845  0.7030 -0.4504
  572MOL0     C77123   4.185   4.944   3.787 -0.5729 -0.2718 -0.0776
  572MOL0     C77124   4.152   5.034   3.659  0.0657  0.9617 -0.2824
  572MOL0     C77125   4.062   4.956   3.564 -0.5447  0.0708 -0.7220
  572MOL0     C77126   3.922   4.921   3.612  0.3688 -0.4896  0.2795
  572MOL0     C77127   3.844   4.855   3.495  0.6307  0.0548 -0.4115
  572MOL0     C77128   3.695   4.831   3.538  0.1024  0.3319  0.1577
  572MOL0     C77129   3.606   4.765   3.432 -0.6443 -0.8591  0.5609
  572MOL0    Cl77130   3.431   4.807   3.465  0.0268  0.0746  0.1625
  572MOL0     C77131   4.520   4.732   3.941  0.5092  0.2676  0.1176
  572MOL0     C77132   4.634   4.661   3.983 -0.0311  0.3386 -0.2093
  572MOL0     O77133   4.846   4.482   3.831 -0.0554 -0.2433 -0.7493
  572MOL0     C77134   5.135   4.516   4.042 -0.7363 -0.9120  0.6492
  572MOL0     C77135   5.248   4.444   4.089 -0.3721 -0.8435 -0.0373
  572MOL0     N77136   5.130   3.904   4.478 -1.1268  0.6897  0.5472
  572MOL0     N77137   5.116   3.809   4.568 -1.1384  0.0128  0.1757
  572MOL0     C77138   6.317   3.912   4.890  0.2676  0.2378 -0.0781
  572MOL0     C77139   6.433   3.927   4.812 -0.5475  0.3120 -0.6263
  572MOL0     C77140   6.804   3.999   4.576  0.5359 -0.8098  0.5452
  572MOL0     C77141   6.794   4.027   4.438  0.5975  0.3126 -0.7112
  572MOL0     C77142   6.907   4.028   4.351  0.3512 -0.7903 -0.5621
  572MOL0     C77143   7.027   4.007   4.404 -1.1817 -0.3423  0.3501
  572MOL0     O77144   7.135   4.016   4.325  0.5002  0.0317 -0.5246
  572MOL0     C77145   7.217   3.902   4.324 -0.1381 -0.2126 -0.0628
  572MOL0     C77146   7.309   3.905   4.199  0.2578 -0.4897  0.4868
  572MOL0     C77147   7.400   3.785   4.193 -0.1779  0.4601  0.2465
  572MOL0     C77148   7.481   3.777   4.065 -0.2569  0.0776 -0.3782
  572MOL0     C77149   7.389   3.744   3.953 -0.2393 -0.3268  0.1679
  572MOL0     C77150   7.329   3.729   3.849  0.2809 -0.7958 -0.1488
  572MOL0     C77151   7.044   3.985   4.541  0.7403 -0.0785  0.2235
  572MOL0     C77152   6.930   3.979   4.622 -0.0932  0.8482 -0.2554
  572MOL0     H77153   6.313   4.113   4.558 -2.3849  1.0167  0.0953
  572MOL0     H77154   6.106   4.097   4.706 -0.8123 -1.2856 -0.8135
  572MOL0     H77155   6.107   3.747   4.983  0.8308  0.3535 -1.9753
  572MOL0     H77156   6.133   3.884   5.099 -1.1383  3.0928 -0.8169
  572MOL0     H77157   5.929   3.756   5.142 -1.4498  1.5682  1.7042
  572MOL0     H77158   5.895   3.925   5.112 -2.8856 -1.3428  0.2443
  572MOL0     H77159   5.849   3.839   4.860  0.1573 -1.5958 -0.2411
  572MOL0     H77160   5.875   3.682   4.934 -2.2921 -1.7325  2.1765
  572MOL0     H77161   5.681   3.733   5.082  0.5546 -3.1248 -1.5907
  572MOL0     H77162   5.638   3.868   4.968 -0.0647  0.3158 -1.4631
  572MOL0     H77163   5.663   3.695   4.783  1.3637 -1.1089  1.2312
  572MOL0     H77164   5.620   3.580   4.908  2.2703  0.9340  2.8639
  572MOL0     H77165   5.413   3.718   4.962 -0.2779  1.8169 -0.1989
  572MOL0     H77166   5.456   3.838   4.843 -0.6741  0.2046  1.7740
  572MOL0     H77167   5.441   3.679   4.651  0.6151 -0.8606  0.2824
  572MOL0     H77168   5.397   3.550   4.754  0.6525 -0.6815  0.8207
  572MOL0     H77169   5.220   3.767   4.845 -1.1052  0.7182 -0.0028
  572MOL0     H77170   5.175   3.633   4.735  0.3765 -1.8273  3.2631
  572MOL0     H77171   5.405   3.942   4.653 -1.3305  0.7781  1.6458
  572MOL0     H77172   5.246   4.121   4.328  1.6034 -0.0877 -1.9890
  572MOL0     H77173   5.332   4.164   4.474 -1.5713  2.0217 -1.9235
  572MOL0     H77174   5.388   3.975   4.246  3.5734  0.3677 -1.3726
  572MOL0     H77175   5.477   3.968   4.403 -0.9056  1.6710  2.4620
  572MOL0     H77176   5.579   4.103   4.205 -0.7491 -1.2539 -0.0808
  572MOL0     H77177   5.586   4.181   4.361  0.6089 -1.1383  1.2192
  572MOL0     H77178   5.533   4.328   4.188  1.8492 -0.9814  1.7665
  572MOL0     H77179   5.401   4.326   4.313  3.4255  2.4175  0.9881
  572MOL0     H77180   5.156   4.132   4.016 -0.6632  0.2509 -2.6639
  572MOL0     H77181   4.824   4.260   3.988 -0.5773  0.8815 -0.6762
  572MOL0     H77182   4.914   4.246   3.834 -0.6412  3.9961  1.1134
  572MOL0     H77183   4.935   4.117   3.953  0.2303 -0.2070 -3.6625
  572MOL0     H77184   4.884   4.866   3.862  0.8546 -0.1412  0.6390
  572MOL0     H77185   4.676   4.989   3.796 -0.1182 -0.6029  0.3461
  572MOL0     H77186   4.342   4.838   3.677 -0.4747 -1.1000 -0.3312
  572MOL0     H77187   4.292   4.763   3.830 -0.8338  0.0345 -2.1832
  572MOL0     H77188   4.102   4.878   3.814 -1.9510  0.9047 -1.2340
  572MOL0     H77189   4.204   5.013   3.870 -0.1641 -0.6972  0.1877
  572MOL0     H77190   4.244   5.073   3.616  1.1755 -1.5943 -0.4473
  572MOL0     H77191   4.104   5.127   3.688  0.2871  0.9627  0.0839
  572MOL0     H77192   4.060   5.014   3.471  0.1624  1.8546  0.3151
  572MOL0     H77193   4.097   4.863   3.519 -1.7190 -2.5198  3.2028
  572MOL0     H77194   3.884   5.016   3.649  1.3471 -0.0770  0.2546
  572MOL0     H77195   3.917   4.858   3.701 -0.9554 -1.4145 -0.4199
  572MOL0     H77196   3.843   4.918   3.406 -1.8051  0.9549  0.1513
  572MOL0     H77197   3.893   4.760   3.473 -1.1765 -0.2943 -3.3698
  572MOL0     H77198   3.660   4.929   3.572  2.5393  0.4638  2.6202
  572MOL0     H77199   3.696   4.776   3.632 -1.2884 -0.2282 -0.1263
  572MOL0     H77200   3.613   4.655   3.428  0.0326 -0.8956  2.1573
  572MOL0     H77201   3.634   4.800   3.332 -4.0152  0.0020 -0.1945
  572MOL0     H77202   4.426   4.694   3.981  0.9424 -2.3940 -1.1721
  572MOL0     H77203   4.631   4.572   4.044  0.8396 -0.3622 -1.1629
  572MOL0     H77204   5.137   4.624   4.042 -0.7443 -0.8676 -1.7826
  572MOL0     H77205   5.328   4.503   4.132 -2.3773  1.5473  0.6898
  572MOL0     H77206   6.329   3.850   4.978 -0.0352 -1.9470 -1.5042
  572MOL0     H77207   6.521   3.879   4.853  0.6195 -0.3693 -3.6500
  572MOL0     H77208   6.701   4.032   4.381 -0.0143  0.0640  0.2443
  572MOL0     H77209   6.889   4.044   4.245  1.3483 -3.0379 -1.1458
  572MOL0     H77210   7.275   3.908   4.416 -2.9888  2.5747  1.7620
  572MOL0     H77211   7.151   3.814   4.328 -3.0631  1.8329 -0.0057
  572MOL0     H77212   7.377   3.990   4.216  0.5716 -0.5698 -0.3495
  572MOL0     H77213   7.260   3.936   4.106  0.0757  0.3956  0.8616
  572MOL0     H77214   7.336   3.697   4.205  0.0568  0.6264  3.8936
  572MOL0     H77215   7.466   3.789   4.281 -1.6435 -2.0021  1.5734
  572MOL0     H77216   7.561   3.704   4.080 -3.1508 -3.2599 -0.1875
  572MOL0     H77217   7.529   3.873   4.040  1.4403  0.4127  3.4194
  572MOL0     H77218   7.279   3.709   3.756  1.3961 -2.0871 -0.5071
  572MOL0     H77219   7.140   3.967   4.590  0.3271 -0.9672  0.7222
  572MOL0     H77220   6.957   3.978   4.727 -0.2296 -2.6732 -0.1336
  573MOL0     O77221   2.502   3.337   5.032 -0.5682  0.2979 -0.2115
  573MOL0     C77222   2.405   3.263   5.045  1.2361 -0.5201  0.0831
  573MOL0     O77223   2.400   3.119   5.014 -0.0963  0.3159 -0.2690
  573MOL0     C77224   2.521   3.059   5.018  0.7230 -0.0036 -0.0847
  573MOL0     C77225   2.554   2.956   4.927 -0.1741 -0.1098 -0.2889
  573MOL0     C77226   2.674   2.884   4.948  0.2470  0.5704 -0.0127
  573MOL0     C77227   2.759   2.914   5.053  0.2181 -0.2931 -0.0362
  573MOL0     O77228   2.870   2.836   5.071 -0.4775  0.5732 -0.8700
  573MOL0     C77229   2.941   2.782   4.952  0.1921  0.3469  0.4539
  573MOL0     C77230   2.976   2.902   4.859 -0.0814  0.9402 -1.0912
  573MOL0     C77231   3.048   2.854   4.724  0.8886  0.2760 -0.7906
  573MOL0     C77232   3.139   2.957   4.651  0.3267 -0.1238 -0.3204
  573MOL0     C77233   3.201   2.915   4.519 -0.3305  0.5805 -0.0001
  573MOL0     C77234   3.298   3.010   4.465 -0.0750  0.1150 -0.2500
  573MOL0     C77235   3.245   3.154   4.446  0.1252  0.3704  0.6809
  573MOL0     C77236   3.171   3.170   4.310  0.8257 -0.3230 -0.3348
  573MOL0     N77237   3.020   3.166   4.334 -0.7094 -1.0719  0.1262
  573MOL0     C77238   2.950   3.248   4.415  0.2404 -0.1832 -0.4630
  573MOL0     C77239   2.861   3.168   4.476  0.1475 -0.3075 -1.2646
  573MOL0     C77240   2.793   3.201   4.605 -0.3110 -0.6042  0.3213
  573MOL0     C77241   2.644   3.167   4.607  0.6512 -0.7157 -1.3287
  573MOL0     C77242   2.541   3.286   4.601  0.7646  0.5804  0.0915
  573MOL0     C77243   2.396   3.259   4.633  0.5174 -0.0423  0.2923
  573MOL0     O77244   2.330   3.383   4.595 -0.2640 -0.0958  0.3642
  573MOL0     C77245   2.205   3.406   4.646  0.0801 -0.0313 -0.4730
  573MOL0     C77246   2.145   3.526   4.601 -0.0838  0.6198 -0.2757
  573MOL0     C77247   2.021   3.571   4.629 -0.0918 -0.4921 -0.4158
  573MOL0     C77248   1.965   3.688   4.561 -0.4978 -0.1790 -0.2406
  573MOL0     C77249   1.950   3.497   4.740 -0.7185  0.0595 -0.0107
  573MOL0     C77250   1.833   3.549   4.804  0.9240  0.4510  0.3949
  573MOL0     O77251   1.750   3.449   4.847 -0.1161 -0.0143 -0.4759
  573MOL0     C77252   1.632   3.480   4.912 -0.1217 -0.1094  0.8018
  573MOL0     C77253   1.520   3.512   4.827  0.5730  1.2537  0.7768
  573MOL0     C77254   1.386   3.531   4.870 -0.4415 -0.3063 -1.6991
  573MOL0     C77255   1.368   3.524   5.015  0.7888 -0.3047  0.1176
  573MOL0     O77256   1.239   3.526   5.067  0.0315  0.3206 -0.1383
  573MOL0     C77257   1.121   3.557   4.996  0.6454 -0.0294 -0.2802
  573MOL0     C77258   1.011   3.601   5.100 -0.3282  0.2554  0.3940
  573MOL0     C77259   1.053   3.701   5.207  0.3893 -0.7403  0.0204
  573MOL0     C77260   0.918   3.761   5.276 -1.2081  0.9976  0.6387
  573MOL0     C77261   0.949   3.846   5.398  0.0889  0.2667 -0.5281
  573MOL0     C77262   0.826   3.880   5.482  0.2068  0.2022 -0.4033
  573MOL0     C77263   0.861   3.959   5.616  0.0040 -0.4138 -0.1927
  573MOL0     C77264   0.731   3.949   5.707 -1.1100 -0.9324 -0.1585
  573MOL0    Cl77265   0.786   3.960   5.885  0.0987 -0.4766 -0.0592
  573MOL0     C77266   1.472   3.487   5.103 -0.7528  0.2505  0.6848
  573MOL0     C77267   1.605   3.465   5.051 -0.6341 -0.0280  0.1104
  573MOL0     O77268   1.821   3.670   4.817  0.1274  0.3068  0.5039
  573MOL0     C77269   2.011   3.376   4.790 -0.5364 -1.0269  1.2061
  573MOL0     C77270   2.133   3.330   4.743 -0.2597  0.0988  1.0068
  573MOL0     N77271   2.865   3.043   4.434  0.9490  1.6884  0.1637
  573MOL0     N77272   2.959   3.045   4.346 -0.4088 -0.1690  0.4811
  573MOL0     C77273   2.718   3.011   5.144  0.4841  0.8210  0.4131
  573MOL0     C77274   2.605   3.095   5.127 -0.5598  0.5051  0.6266
  573MOL0     C77275   2.279   3.322   5.086 -0.0352 -0.6950  0.0164
  573MOL0     C77276   2.183   3.246   5.149  0.3654  0.2576 -0.2298
  573MOL0     C77277   2.067   3.304   5.204 -0.6879  0.0604 -0.1961
  573MOL0     C77278   2.054   3.438   5.205  0.3080 -0.1067 -0.0490
  573MOL0     O77279   1.939   3.485   5.270 -0.2441  0.2561  0.3467
  573MOL0     C77280   1.935   3.622   5.313  0.3623 -0.0198  0.1826
  573MOL0     C77281   1.815   3.639   5.409 -0.2193 -0.1150 -0.0271
  573MOL0     C77282   1.833   3.550   5.540 -0.0981  0.5330  0.4831
  573MOL0     C77283   1.723   3.549   5.643  0.3563 -0.7265 -0.7357
  573MOL0     C77284   1.688   3.680   5.697 -0.4802  0.0912 -0.2509
  573MOL0     C77285   1.663   3.779   5.755 -0.1870 -0.0219 -0.3973
  573MOL0     C77286   2.143   3.517   5.132 -0.0841 -0.1334 -0.3809
  573MOL0     C77287   2.258   3.463   5.069 -0.0963  0.0992 -0.3377
  573MOL0     H77288   2.484   2.934   4.847  1.2321 -0.7631 -1.3893
  573MOL0     H77289   2.696   2.804   4.879  1.5686  2.0551 -1.3834
  573MOL0     H77290   3.038   2.744   4.986 -0.1615  0.2289  1.3777
  573MOL0     H77291   2.885   2.696   4.914  1.4139 -0.9884  1.5510
  573MOL0     H77292   2.880   2.948   4.833 -0.8798  0.1012  0.2454
  573MOL0     H77293   3.030   2.972   4.924 -2.6625 -0.2471  2.6461
  573MOL0     H77294   3.097   2.762   4.758 -2.1132 -0.1423  3.0215
  573MOL0     H77295   2.966   2.830   4.656  1.1998 -2.5627 -0.2860
  573MOL0     H77296   3.075   3.047   4.645  0.2939 -0.0536  0.8750
  573MOL0     H77297   3.210   2.985   4.729 -2.3869  3.8719  1.1050
  573MOL0     H77298   3.240   2.813   4.521  1.8518  1.3730  1.2306
  573MOL0     H77299   3.122   2.904   4.444  1.0807  0.5054 -1.5194
  573MOL0     H77300   3.377   3.004   4.541 -1.8468 -2.0838  1.5782
  573MOL0     H77301   3.340   2.970   4.372 -1.8159  2.1170 -2.0023
  573MOL0     H77302   3.188   3.194   4.530  0.9776  0.4480  1.2389
  573MOL0     H77303   3.334   3.217   4.434 -0.0973  0.1396 -3.1922
  573MOL0     H77304   3.197   3.098   4.232 -1.5535 -3.3110  1.4018
  573MOL0     H77305   3.204   3.270   4.279  2.8823 -0.9846 -0.3930
  573MOL0     H77306   2.965   3.351   4.443  0.3385 -0.7301  1.6942
  573MOL0     H77307   2.840   3.154   4.692 -0.6347 -1.3614  0.0939
  573MOL0     H77308   2.805   3.308   4.624  1.2663 -1.0348  2.1019
  573MOL0     H77309   2.626   3.126   4.707  0.5801  1.5778 -0.3520
  573MOL0     H77310   2.622   3.085   4.537 -1.1657 -3.3113  1.9867
  573MOL0     H77311   2.554   3.330   4.502 -0.5953 -1.4214 -1.0367
  573MOL0     H77312   2.573   3.358   4.677  0.2327 -0.8924  1.7783
  573MOL0     H77313   2.391   3.226   4.737  1.6834 -0.9766  0.0782
  573MOL0     H77314   2.350   3.184   4.568  0.2423 -0.1481  0.6073
  573MOL0     H77315   2.205   3.588   4.535 -1.0370  0.1743 -1.6038
  573MOL0     H77316   1.872   3.658   4.512 -1.1382  0.2361  0.6811
  573MOL0     H77317   1.955   3.777   4.624 -0.8177 -1.0904  1.0387
  573MOL0     H77318   2.031   3.709   4.477 -0.8134  3.8549  0.3287
  573MOL0     H77319   1.550   3.512   4.722 -1.2756 -1.9186  0.1232
  573MOL0     H77320   1.294   3.535   4.813 -0.5191 -1.2408 -1.6614
  573MOL0     H77321   1.135   3.641   4.927 -0.2532  1.1599  0.9100
  573MOL0     H77322   1.088   3.469   4.941 -0.2040  0.1237 -0.0358
  573MOL0     H77323   0.920   3.619   5.042  0.9571  1.3032 -1.3858
  573MOL0     H77324   1.003   3.513   5.164  0.1103 -0.8316 -1.0066
  573MOL0     H77325   1.110   3.781   5.157 -2.4099  0.7280 -1.0324
  573MOL0     H77326   1.124   3.661   5.280 -0.9145 -1.2403  1.0494
  573MOL0     H77327   0.875   3.820   5.195  0.1664  1.0677 -0.0772
  573MOL0     H77328   0.857   3.676   5.308  0.0695 -0.4162 -0.5220
  573MOL0     H77329   1.002   3.936   5.366  1.7605 -0.8204 -0.9637
  573MOL0     H77330   1.013   3.799   5.474 -2.0247  1.7017  2.3072
  573MOL0     H77331   0.759   3.946   5.426  0.0141 -0.5536 -1.0795
  573MOL0     H77332   0.770   3.789   5.502 -0.3344  0.4107 -0.9431
  573MOL0     H77333   0.888   4.061   5.591 -3.1987  0.3991 -0.7907
  573MOL0     H77334   0.946   3.913   5.667 -0.2928 -1.3273 -0.4904
  573MOL0     H77335   0.675   3.856   5.695 -3.2793  0.0812  1.4356
  573MOL0     H77336   0.656   4.022   5.675 -1.0530 -1.3490 -1.3105
  573MOL0     H77337   1.460   3.481   5.210 -1.2398 -0.3918  0.6003
  573MOL0     H77338   1.682   3.426   5.116 -1.6101 -0.6449  0.9381
  573MOL0     H77339   1.952   3.325   4.866 -0.8780 -1.3148  0.7614
  573MOL0     H77340   2.174   3.236   4.778 -0.3915  0.9903  3.8452
  573MOL0     H77341   2.786   3.020   5.229  0.0314 -2.5890  1.2688
  573MOL0     H77342   2.579   3.161   5.209 -0.2843  1.6992 -0.2180
  573MOL0     H77343   2.187   3.138   5.161 -2.5245  0.1994  1.2226
  573MOL0     H77344   2.000   3.245   5.266 -0.1449 -1.4178 -0.9816
  573MOL0     H77345   2.029   3.666   5.348  0.9675  0.9442 -2.4007
  573MOL0     H77346   1.915   3.686   5.227  3.1540  3.2228  1.7377
  573MOL0     H77347   1.718   3.600   5.377 -0.9598  1.9834 -0.4445
  573MOL0     H77348   1.803   3.746   5.429 -1.6653 -0.0153 -1.3002
  573MOL0     H77349   1.931   3.584   5.573 -1.0254  4.5997 -0.3730
  573MOL0     H77350   1.840   3.448   5.500 -0.4573  0.9047 -0.5701
  573MOL0     H77351   1.737   3.470   5.717 -3.0868 -0.1814  0.6849
  573MOL0     H77352   1.636   3.524   5.582 -0.3701  0.8525 -0.3935
  573MOL0     H77353   1.644   3.874   5.802 -0.2343 -0.9938  1.6550
  573MOL0     H77354   2.112   3.618   5.108 -1.4986 -0.2058  0.9918
  573MOL0     H77355   2.330   3.513   5.006 -0.2333  0.9383  0.1503
  574MOL0     O77356   7.996   8.874   3.321  0.0026  0.2494 -0.0654
  574MOL0     C77357   8.030   8.870   3.436  0.3030 -0.0932 -0.2879
  574MOL0     O77358   7.968   8.794   3.530  0.2547 -0.1663 -0.0483
  574MOL0     C77359   7.844   8.734   3.509  0.3843 -0.7894  0.2078
  574MOL0     C77360   7.821   8.652   3.399 -0.2494  0.2708  0.2085
  574MOL0     C77361   7.713   8.569   3.382  0.5202 -1.2026  0.0536
  574MOL0     C77362   7.606   8.590   3.479  0.0952  0.4694 -0.0940
  574MOL0     O77363   7.494   8.513   3.454  0.3640 -0.5009  0.1054
  574MOL0     C77364   7.384   8.524   3.542  0.1648 -0.9685 -0.3323
  574MOL0     C77365   7.267   8.460   3.481  0.4445  0.0101  1.3273
  574MOL0     C77366   7.155   8.453   3.572  0.0255 -0.2437 -0.1018
  574MOL0     C77367   7.044   8.371   3.507 -0.0839  0.4843 -0.3371
  574MOL0     C77368   6.915   8.380   3.580  0.5286  0.1728 -0.4885
  574MOL0     C77369   6.787   8.317   3.525  0.8330  0.1670  1.0108
  574MOL0     C77370   6.671   8.332   3.619  0.7531 -0.5443  0.0366
  574MOL0     C77371   6.568   8.222   3.593  0.3396 -0.1388  0.3288
  574MOL0     N77372   6.434   8.258   3.632  0.2386 -1.2016 -0.1151
  574MOL0     C77373   6.362   8.365   3.579  0.3846 -0.2238  0.1180
  574MOL0     C77374   6.240   8.343   3.626  0.4669 -0.6874 -0.2954
  574MOL0     C77375   6.117   8.416   3.583 -0.3429  0.9600  0.0905
  574MOL0     C77376   6.042   8.495   3.693  0.4330  0.1919 -0.4672
  574MOL0     C77377   5.971   8.405   3.794 -0.2717  0.3799 -0.1451
  574MOL0     C77378   5.862   8.484   3.875 -0.2553 -0.4749 -0.2548
  574MOL0     O77379   5.906   8.560   3.986 -0.3866  0.9615 -0.4105
  574MOL0     C77380   5.812   8.597   4.080  0.0832 -0.4527  0.2340
  574MOL0     C77381   5.865   8.656   4.200 -0.7303  0.1223  0.5326
  574MOL0     C77382   5.774   8.712   4.295  0.9114 -0.4411 -0.4701
  574MOL0     C77383   5.828   8.797   4.411 -0.2672  0.1253  0.4865
  574MOL0     C77384   5.632   8.710   4.267  0.0563 -0.4744 -1.7166
  574MOL0     C77385   5.521   8.776   4.348  0.5774 -0.5755 -0.3756
  574MOL0     O77386   5.390   8.759   4.305 -0.5434 -0.4618  0.2015
  574MOL0     C77387   5.288   8.843   4.343  0.8472 -0.6008  0.4942
  574MOL0     C77388   5.175   8.789   4.395 -0.3545  0.7709  0.1723
  574MOL0     C77389   5.077   8.874   4.451 -0.1016 -0.3644 -0.0142
  574MOL0     C77390   5.092   9.014   4.446 -0.1231  0.3885 -0.7634
  574MOL0     O77391   4.998   9.099   4.500  0.2303  0.6611  0.7375
  574MOL0     C77392   5.039   9.188   4.603 -0.0431  0.6382 -0.1679
  574MOL0     C77393   4.912   9.253   4.651  0.2943 -0.0690  0.0973
  574MOL0     C77394   4.818   9.323   4.545 -0.5098  0.0833  0.6099
  574MOL0     C77395   4.712   9.415   4.621  0.0914  0.3950  0.6016
  574MOL0     C77396   4.641   9.487   4.505  0.6946  0.3176  0.4248
  574MOL0     C77397   4.563   9.617   4.550  0.0865  0.0750  0.2081
  574MOL0     C77398   4.430   9.602   4.626  0.4062 -0.4636 -0.6765
  574MOL0     C77399   4.456   9.579   4.778 -0.5933 -0.5563  0.3283
  574MOL0    Cl77400   4.295   9.586   4.859 -0.0887  0.2852  0.0333
  574MOL0     C77401   5.205   9.068   4.389 -0.2698 -0.2035  0.1701
  574MOL0     C77402   5.302   8.988   4.335  0.0249  0.4214  1.2264
  574MOL0     O77403   5.551   8.850   4.437 -0.8984 -0.1710  0.4449
  574MOL0     C77404   5.588   8.649   4.151  0.3585  0.1480  1.2234
  574MOL0     C77405   5.677   8.588   4.059  0.8695  0.4314  0.3306
  574MOL0     N77406   6.247   8.238   3.715  0.0111 -0.1296  0.0713
  574MOL0     N77407   6.361   8.177   3.710 -0.0955 -0.8315 -0.1958
  574MOL0     C77408   7.623   8.683   3.579 -0.2830  0.1111  0.9332
  574MOL0     C77409   7.748   8.749   3.598  0.0933  0.1544  1.2886
  574MOL0     C77410   8.166   8.919   3.472 -0.3264 -0.0639  0.8623
  574MOL0     C77411   8.230   9.004   3.384  0.1216 -1.1079  0.0430
  574MOL0     C77412   8.352   9.061   3.421  0.5713  0.8055  0.3743
  574MOL0     C77413   8.396   9.034   3.550  0.0825 -0.0735 -0.0174
  574MOL0     O77414   8.516   9.084   3.593  0.2637 -0.6929 -0.3548
  574MOL0     C77415   8.591   9.185   3.519  1.0222  0.0570 -0.5810
  574MOL0     C77416   8.709   9.229   3.609 -0.0500  0.2132 -0.7010
  574MOL0     C77417   8.842   9.286   3.534  0.0261 -0.7777  0.3719
  574MOL0     C77418   8.930   9.350   3.631 -0.7856  1.0249 -0.1902
  574MOL0     C77419   8.984   9.244   3.718 -0.0128 -0.4022  0.3201
  574MOL0     C77420   9.030   9.168   3.797  0.7650 -0.5019  0.2085
  574MOL0     C77421   8.341   8.939   3.638 -0.7992 -0.4989  0.1023
  574MOL0     C77422   8.218   8.889   3.599 -0.5371 -0.1754  0.2802
  574MOL0     H77423   7.892   8.629   3.320 -1.0317 -6.2505  0.8187
  574MOL0     H77424   7.687   8.508   3.296 -0.3218  0.2881 -0.7893
  574MOL0     H77425   7.413   8.473   3.634 -1.6963 -3.0424 -0.7918
  574MOL0     H77426   7.352   8.626   3.568 -1.0037 -1.0684 -1.2790
  574MOL0     H77427   7.249   8.520   3.391  3.6399 -0.2116  0.4094
  574MOL0     H77428   7.295   8.357   3.458  0.1215  0.2362 -0.1733
  574MOL0     H77429   7.184   8.410   3.669 -2.3714 -0.1536  0.7190
  574MOL0     H77430   7.106   8.549   3.588 -4.0197 -2.2745  0.9616
  574MOL0     H77431   7.023   8.403   3.405 -0.3884  2.3777  0.2735
  574MOL0     H77432   7.082   8.268   3.503  2.0390  1.2374 -1.4041
  574MOL0     H77433   6.936   8.338   3.679 -2.5165 -0.3633  0.0445
  574MOL0     H77434   6.897   8.488   3.590  0.3189 -0.0679  2.8906
  574MOL0     H77435   6.766   8.361   3.427  0.3897 -1.4213  0.3578
  574MOL0     H77436   6.811   8.211   3.511 -1.7030 -0.1440 -1.9741
  574MOL0     H77437   6.705   8.316   3.721 -2.2156 -0.6832  1.1200
  574MOL0     H77438   6.631   8.433   3.605 -0.2457 -0.6371  1.8597
  574MOL0     H77439   6.600   8.132   3.645 -0.4920 -1.4628 -1.3354
  574MOL0     H77440   6.569   8.194   3.487 -1.0381 -0.4309  0.3704
  574MOL0     H77441   6.381   8.439   3.502 -0.1691 -1.6119 -1.3958
  574MOL0     H77442   6.147   8.488   3.506  2.1713 -1.4833 -1.4273
  574MOL0     H77443   6.055   8.338   3.538  2.6123 -1.6110  0.0879
  574MOL0     H77444   5.966   8.556   3.645 -1.8370 -2.3402 -0.3529
  574MOL0     H77445   6.102   8.564   3.752 -0.0664  2.9363 -2.9711
  574MOL0     H77446   6.046   8.366   3.864 -1.3517  0.1367  0.9176
  574MOL0     H77447   5.919   8.327   3.738 -0.9041  1.1822 -0.6899
  574MOL0     H77448   5.799   8.408   3.921 -1.6038 -0.1405 -1.4725
  574MOL0     H77449   5.797   8.541   3.809  0.9063  0.6132 -0.5072
  574MOL0     H77450   5.971   8.677   4.202 -1.0625  2.0297 -0.1159
  574MOL0     H77451   5.936   8.782   4.417 -0.3268 -0.4581  0.2052
  574MOL0     H77452   5.812   8.905   4.405  0.9650  0.4384  2.0245
  574MOL0     H77453   5.779   8.762   4.502 -3.8073  1.2131 -0.8392
  574MOL0     H77454   5.146   8.684   4.395 -4.4430  1.7412 -0.6648
  574MOL0     H77455   4.975   8.840   4.471  0.5578 -1.5729  1.4644
  574MOL0     H77456   5.102   9.138   4.678  0.6452 -1.2473 -1.9304
  574MOL0     H77457   5.109   9.268   4.578  1.3359 -0.0046  1.3660
  574MOL0     H77458   4.869   9.161   4.692  1.2412 -0.8282 -0.5667
  574MOL0     H77459   4.933   9.326   4.730  1.2755  1.6453 -1.6588
  574MOL0     H77460   4.769   9.249   4.481  2.0790 -2.2618  1.1178
  574MOL0     H77461   4.885   9.376   4.478  0.2097 -2.5400 -0.9048
  574MOL0     H77462   4.639   9.360   4.680  1.4037  0.4649  2.3622
  574MOL0     H77463   4.755   9.496   4.681  1.2951  0.4594 -0.2992
  574MOL0     H77464   4.573   9.422   4.450 -0.9718  1.1571  1.4052
  574MOL0     H77465   4.718   9.515   4.432 -0.0600  2.5797  0.4142
  574MOL0     H77466   4.617   9.694   4.606 -1.0514  1.1009 -0.0571
  574MOL0     H77467   4.543   9.655   4.450 -1.5192 -0.6759  0.2164
  574MOL0     H77468   4.375   9.520   4.580  1.0192 -0.3439 -1.6589
  574MOL0     H77469   4.373   9.694   4.606  0.2887 -0.6357 -1.1491
  574MOL0     H77470   4.534   9.646   4.815  0.9762 -0.4094 -2.9004
  574MOL0     H77471   4.487   9.481   4.815 -3.6252 -1.5974  0.3481
  574MOL0     H77472   5.220   9.175   4.388 -2.1760  0.1014 -1.0314
  574MOL0     H77473   5.390   9.039   4.299 -1.0911  1.7989  0.3570
  574MOL0     H77474   5.489   8.655   4.107  0.6728 -1.4034  0.2166
  574MOL0     H77475   5.632   8.555   3.966 -1.1935  0.8820  1.1110
  574MOL0     H77476   7.538   8.709   3.642 -1.4773  0.4474 -0.7526
  574MOL0     H77477   7.767   8.825   3.673  0.7251 -0.9968  2.3526
  574MOL0     H77478   8.190   9.051   3.295 -1.0188 -2.1550 -0.0219
  574MOL0     H77479   8.398   9.126   3.347  0.5284 -1.2304 -1.5647
  574MOL0     H77480   8.636   9.139   3.431  0.5506 -2.3619  0.3730
  574MOL0     H77481   8.533   9.272   3.486 -1.3497 -1.3498 -0.3317
  574MOL0     H77482   8.735   9.134   3.657 -1.7650 -0.3729 -0.8856
  574MOL0     H77483   8.671   9.295   3.688 -3.8047  0.0965 -2.2158
  574MOL0     H77484   8.815   9.360   3.458  2.1885  1.5968  1.7469
  574MOL0     H77485   8.885   9.200   3.481 -0.4122 -0.8280  0.0891
  574MOL0     H77486   8.879   9.417   3.700  1.9065 -0.1522  3.2726
  574MOL0     H77487   9.016   9.404   3.588 -1.4391  0.5636 -2.1810
  574MOL0     H77488   9.078   9.102   3.866  0.4045 -0.4434  0.5178
  574MOL0     H77489   8.402   8.904   3.721 -0.7156 -0.8873 -0.1232
  574MOL0     H77490   8.170   8.828   3.675 -0.2529 -0.2500  0.4021
  575MOL0     O77491   5.080   6.982   5.175 -0.2328 -0.0026 -0.0034
  575MOL0     C77492   4.994   7.072   5.192 -1.0585  0.8328 -0.2880
  575MOL0     O77493   4.973   7.138   5.312 -0.3910 -0.1051  0.2314
  575MOL0     C77494   5.078   7.130   5.400  0.1433  0.7249  0.1407
  575MOL0     C77495   5.072   7.021   5.482 -0.6159  0.3071 -0.0451
  575MOL0     C77496   5.173   7.010   5.575 -0.1873  0.8282  0.5168
  575MOL0     C77497   5.271   7.103   5.591  0.5449 -0.0377  0.9915
  575MOL0     O77498   5.373   7.080   5.675 -0.2874  0.0750 -0.8539
  575MOL0     C77499   5.406   7.178   5.780 -0.5110 -0.1821  0.0862
  575MOL0     C77500   5.465   7.107   5.909 -0.1518 -0.4716 -0.2290
  575MOL0     C77501   5.372   7.018   5.977 -0.3316 -0.3248 -0.0166
  575MOL0     C77502   5.430   6.940   6.096 -0.4111 -0.5934  0.8067
  575MOL0     C77503   5.328   6.932   6.214 -0.4280 -0.3698  0.0241
  575MOL0     C77504   5.216   6.839   6.178 -0.0724 -0.3659  0.1821
  575MOL0     C77505   5.140   6.808   6.310 -0.2451 -0.5950 -0.0720
  575MOL0     C77506   5.057   6.928   6.347  0.1207 -0.1858 -0.5826
  575MOL0     N77507   4.958   6.902   6.452  0.0913  0.2812 -0.5509
  575MOL0     C77508   4.949   6.955   6.577 -0.7078  0.9823  0.1538
  575MOL0     C77509   4.823   6.911   6.617 -0.1456  0.0112 -0.4007
  575MOL0     C77510   4.766   6.928   6.753  0.2792 -0.8133 -0.4280
  575MOL0     C77511   4.776   7.080   6.788 -1.0388 -0.9030 -0.4682
  575MOL0     C77512   4.738   7.105   6.942  0.6075 -0.8518  0.4421
  575MOL0     C77513   4.590   7.103   6.959 -0.5778 -0.2452 -0.4081
  575MOL0     O77514   4.563   7.102   7.100  0.0840  0.2706  0.5397
  575MOL0     C77515   4.432   7.103   7.141 -0.0307 -0.4848 -0.6129
  575MOL0     C77516   4.332   7.099   7.048  0.2131 -0.2934 -0.5801
  575MOL0     C77517   4.195   7.098   7.078 -1.1068 -0.4125  0.2444
  575MOL0     C77518   4.099   7.087   6.966  0.1998  0.0928  0.5044
  575MOL0     C77519   4.157   7.115   7.216 -0.1060  0.6704 -0.5659
  575MOL0     C77520   4.010   7.122   7.258 -0.2847  0.4319 -0.7058
  575MOL0     O77521   3.926   7.182   7.173  0.0391 -0.2492 -0.0219
  575MOL0     C77522   3.794   7.193   7.199  0.5079  0.3602  0.3090
  575MOL0     C77523   3.742   7.264   7.308 -0.5033 -0.7124  0.1442
  575MOL0     C77524   3.608   7.296   7.322  0.5204  0.9421 -0.2175
  575MOL0     C77525   3.518   7.264   7.217 -0.4648 -0.5246 -0.2367
  575MOL0     O77526   3.391   7.312   7.231  0.0410 -0.8405  0.0427
  575MOL0     C77527   3.303   7.209   7.262 -0.2436 -0.1173 -0.2541
  575MOL0     C77528   3.213   7.248   7.377  0.5724  0.1676 -0.1752
  575MOL0     C77529   3.138   7.384   7.356  0.8299 -0.8571  0.1797
  575MOL0     C77530   2.987   7.363   7.370 -0.5953 -0.3150  0.2698
  575MOL0     C77531   2.929   7.252   7.274 -0.2832 -0.2345  0.3264
  575MOL0     C77532   2.781   7.238   7.278 -0.8228 -0.3294 -0.0129
  575MOL0     C77533   2.730   7.132   7.179 -0.6284  1.1090  0.0933
  575MOL0     C77534   2.577   7.127   7.184  0.5432  0.0187  0.4586
  575MOL0    Cl77535   2.528   7.052   7.341 -0.0214 -0.1363 -0.0683
  575MOL0     C77536   3.565   7.193   7.106 -0.0098 -0.0355 -0.3655
  575MOL0     C77537   3.702   7.149   7.106  0.0024  0.9381  0.5325
  575MOL0     O77538   3.983   7.077   7.371  0.2869 -0.1958 -0.5695
  575MOL0     C77539   4.259   7.099   7.316  0.3010  0.9596 -0.0405
  575MOL0     C77540   4.392   7.092   7.274  0.4940 -0.6601 -0.1626
  575MOL0     N77541   4.766   6.832   6.515 -0.7310  0.2749 -0.9511
  575MOL0     N77542   4.852   6.824   6.422 -0.3072  0.5183 -0.1847
  575MOL0     C77543   5.282   7.203   5.498  0.7681 -0.1623 -0.6352
  575MOL0     C77544   5.176   7.225   5.409  0.3566 -0.1194  0.2253
  575MOL0     C77545   4.907   7.099   5.071 -0.1171 -0.1248 -0.1224
  575MOL0     C77546   4.908   7.024   4.955  0.2166 -0.3966 -2.2029
  575MOL0     C77547   4.827   7.063   4.844 -0.4182  0.3920  0.0719
  575MOL0     C77548   4.739   7.173   4.854 -0.0879 -0.0840 -0.2802
  575MOL0     O77549   4.690   7.216   4.731  0.2429 -0.1161  0.0936
  575MOL0     C77550   4.575   7.303   4.724 -0.2446 -0.2514  0.4580
  575MOL0     C77551   4.451   7.256   4.785 -0.1725  0.5383  0.1673
  575MOL0     C77552   4.393   7.132   4.709 -0.0687  0.4104  0.0660
  575MOL0     C77553   4.278   7.068   4.785  0.8953  0.4139 -0.2080
  575MOL0     C77554   4.160   7.144   4.768  0.5668  1.5794 -0.1061
  575MOL0     C77555   4.059   7.206   4.762  0.3414 -0.0048 -0.7813
  575MOL0     C77556   4.733   7.250   4.970  0.4291  0.6786 -0.6994
  575MOL0     C77557   4.820   7.218   5.077  0.1254  0.2207  0.5060
  575MOL0     H77558   4.993   6.947   5.475 -1.1613  0.8110  0.6354
  575MOL0     H77559   5.170   6.927   5.645  3.0948 -0.4306 -0.6226
  575MOL0     H77560   5.489   7.246   5.756 -1.0724  1.7065  3.0133
  575MOL0     H77561   5.324   7.239   5.816  0.8555  1.1559  1.0700
  575MOL0     H77562   5.560   7.057   5.884  0.4699  1.3180 -1.7054
  575MOL0     H77563   5.490   7.190   5.976  0.6477 -1.9304  1.3513
  575MOL0     H77564   5.290   7.083   6.009 -1.2796 -0.6460 -1.6650
  575MOL0     H77565   5.330   6.953   5.899  0.9278  0.1546 -1.1300
  575MOL0     H77566   5.465   6.843   6.059 -0.8987 -1.0325  1.4767
  575MOL0     H77567   5.518   6.993   6.132  0.0258  1.4847 -2.7822
  575MOL0     H77568   5.377   6.896   6.304 -0.6683  0.6532  0.5750
  575MOL0     H77569   5.288   7.033   6.226 -3.1975 -0.8266 -3.4312
  575MOL0     H77570   5.161   6.850   6.084  0.2020 -0.5502 -0.0027
  575MOL0     H77571   5.273   6.749   6.152  1.7792  1.5138 -2.8585
  575MOL0     H77572   5.072   6.727   6.282  0.3927 -2.2720  2.8728
  575MOL0     H77573   5.208   6.774   6.389 -1.7025  2.0437  2.5352
  575MOL0     H77574   5.004   6.950   6.253 -0.5859 -1.3861 -0.4824
  575MOL0     H77575   5.117   7.013   6.381  1.6470 -0.4193 -2.5207
  575MOL0     H77576   5.023   7.008   6.636 -0.8955  1.7516 -0.2884
  575MOL0     H77577   4.660   6.906   6.739 -0.1415 -0.2023  1.5107
  575MOL0     H77578   4.802   6.861   6.831 -0.6552  0.5115  1.2106
  575MOL0     H77579   4.701   7.131   6.725 -0.7066  2.1053  1.3620
  575MOL0     H77580   4.876   7.117   6.765 -0.9976  0.5850  1.8107
  575MOL0     H77581   4.773   7.200   6.982 -1.0530 -0.8700  2.0565
  575MOL0     H77582   4.784   7.032   7.008 -0.2775 -0.2990  1.7048
  575MOL0     H77583   4.555   7.009   6.916  2.4079 -0.8682 -1.6723
  575MOL0     H77584   4.548   7.184   6.898 -1.4806 -0.9135 -0.6937
  575MOL0     H77585   4.351   7.100   6.941 -0.7245 -2.9021 -0.8272
  575MOL0     H77586   4.029   7.003   6.963  2.7230 -2.0931 -0.5990
  575MOL0     H77587   4.043   7.179   6.947 -0.3417 -0.2875  0.2258
  575MOL0     H77588   4.152   7.079   6.871  0.1371 -1.8604  0.5846
  575MOL0     H77589   3.813   7.306   7.379  0.2223 -0.7415 -0.5434
  575MOL0     H77590   3.586   7.352   7.412  3.1592  0.5558  0.7772
  575MOL0     H77591   3.234   7.192   7.178 -0.0594 -0.5581 -0.3204
  575MOL0     H77592   3.344   7.111   7.288 -1.2149 -0.6854 -0.7858
  575MOL0     H77593   3.142   7.169   7.404 -0.3922  1.0463 -0.1112
  575MOL0     H77594   3.275   7.260   7.467  0.7245 -1.6148 -0.0117
  575MOL0     H77595   3.157   7.424   7.256  0.2301  0.3570  0.5332
  575MOL0     H77596   3.169   7.454   7.434  2.0767  1.2613 -2.0972
  575MOL0     H77597   2.961   7.346   7.475  1.4446  2.2024  1.2907
  575MOL0     H77598   2.943   7.457   7.337  0.7614  0.7349  1.3148
  575MOL0     H77599   2.947   7.152   7.313 -0.7533 -1.0914 -1.5201
  575MOL0     H77600   2.974   7.265   7.175  0.7634 -0.9412  0.6962
  575MOL0     H77601   2.755   7.204   7.378 -0.2201  1.2790  0.7291
  575MOL0     H77602   2.738   7.336   7.256  0.1385  0.0339 -0.3193
  575MOL0     H77603   2.773   7.034   7.197 -0.7147  0.8521 -0.9829
  575MOL0     H77604   2.755   7.164   7.077  4.0673 -0.4606  0.5428
  575MOL0     H77605   2.531   7.080   7.097 -2.2594  4.2956 -0.6820
  575MOL0     H77606   2.551   7.234   7.189  1.7465  0.4014 -0.9760
  575MOL0     H77607   3.504   7.162   7.022  0.5698 -2.8675  0.1447
  575MOL0     H77608   3.746   7.084   7.031  2.3276 -0.0642  2.6552
  575MOL0     H77609   4.244   7.085   7.423 -1.6148 -1.6116 -0.5392
  575MOL0     H77610   4.475   7.089   7.345  0.2756  0.9426  0.2023
  575MOL0     H77611   5.364   7.273   5.509 -0.7749  1.8508 -1.5004
  575MOL0     H77612   5.171   7.307   5.337  1.1383  1.7279  2.1379
  575MOL0     H77613   4.971   6.936   4.950  2.3327  0.9478 -0.7179
  575MOL0     H77614   4.828   7.003   4.753 -3.2805  1.3618 -0.6866
  575MOL0     H77615   4.593   7.399   4.773 -0.2467 -0.3694  0.6874
  575MOL0     H77616   4.551   7.317   4.618  0.4028 -3.2005 -0.1586
  575MOL0     H77617   4.376   7.335   4.781 -0.3914  0.5702  2.9685
  575MOL0     H77618   4.464   7.231   4.891  1.1381 -0.9642 -0.3066
  575MOL0     H77619   4.474   7.060   4.690 -1.2872 -1.6501  2.1413
  575MOL0     H77620   4.360   7.169   4.611  0.8097  1.0395 -0.0083
  575MOL0     H77621   4.311   7.059   4.889 -0.4240 -0.2620  0.1634
  575MOL0     H77622   4.270   6.967   4.743 -2.0666 -0.7786  2.7673
  575MOL0     H77623   3.969   7.264   4.761 -0.9661 -1.8794  0.5246
  575MOL0     H77624   4.666   7.336   4.969 -1.1480 -0.4417  1.3558
  575MOL0     H77625   4.818   7.280   5.167 -1.8529  2.7257 -1.1061
  576MOL0     O77626   4.063   3.693   5.027  0.1343  0.0723  0.9169
  576MOL0     C77627   4.174   3.680   4.971  0.4436 -0.1082  0.1878
  576MOL0     O77628   4.204   3.718   4.844  1.1283  0.4680 -0.2169
  576MOL0     C77629   4.108   3.734   4.741  0.4233  0.3707  0.0706
  576MOL0     C77630   4.152   3.687   4.618 -0.0496  0.8033 -0.2423
  576MOL0     C77631   4.074   3.690   4.501 -0.3780  0.0755  0.1668
  576MOL0     C77632   3.944   3.741   4.502  0.0236  0.6297  0.0705
  576MOL0     O77633   3.857   3.717   4.398  0.1704  0.2607 -0.4736
  576MOL0     C77634   3.804   3.581   4.405 -0.2801  0.4652 -0.4826
  576MOL0     C77635   3.718   3.548   4.282  0.6331 -0.0648  0.3380
  576MOL0     C77636   3.577   3.596   4.303  0.3549  0.5768 -0.2706
  576MOL0     C77637   3.484   3.501   4.383 -0.0019 -0.5015 -0.2223
  576MOL0     C77638   3.348   3.546   4.411  0.2522  0.6871  0.0093
  576MOL0     C77639   3.263   3.563   4.282 -0.4824 -0.1166 -0.0886
  576MOL0     C77640   3.133   3.611   4.340  0.8267 -0.9053 -0.3290
  576MOL0     C77641   3.022   3.638   4.231 -0.0406 -0.4197 -0.1363
  576MOL0     N77642   2.896   3.673   4.300  0.6505  0.4621  0.1817
  576MOL0     C77643   2.819   3.787   4.273  0.1059  0.9293 -0.6263
  576MOL0     C77644   2.690   3.746   4.301 -0.1293  0.3714 -0.5440
  576MOL0     C77645   2.567   3.836   4.287 -0.5688 -0.3544  0.0242
  576MOL0     C77646   2.440   3.759   4.255 -0.2472  0.1612  0.6268
  576MOL0     C77647   2.313   3.840   4.220  0.3871  0.4649  0.1132
  576MOL0     C77648   2.252   3.901   4.344 -1.1429 -1.0723 -0.6407
  576MOL0     O77649   2.122   3.952   4.308 -0.8507  0.1777  0.2068
  576MOL0     C77650   2.048   3.997   4.414  0.6262  0.0772 -0.5752
  576MOL0     C77651   1.913   3.995   4.376 -0.0368  0.3172  0.1265
  576MOL0     C77652   1.814   4.014   4.477 -0.2322 -0.3541  0.0867
  576MOL0     C77653   1.673   4.038   4.433  0.0678  0.6573  0.2144
  576MOL0     C77654   1.845   4.026   4.608 -0.5954 -0.6555 -0.2103
  576MOL0     C77655   1.751   4.040   4.724  0.4791 -0.2179  0.2290
  576MOL0     O77656   1.639   3.973   4.728 -0.1025  0.0471 -0.5129
  576MOL0     C77657   1.534   3.997   4.812  0.6544 -0.8465 -0.1764
  576MOL0     C77658   1.481   4.123   4.812  0.3228  0.1724  0.2365
  576MOL0     C77659   1.368   4.154   4.887 -0.6763 -0.0327  0.7181
  576MOL0     C77660   1.309   4.059   4.968  0.7269 -0.3378 -0.1903
  576MOL0     O77661   1.191   4.073   5.038  0.1016  0.3591  0.0360
  576MOL0     C77662   1.131   4.207   5.032  1.1723  0.0234  0.5921
  576MOL0     C77663   0.979   4.216   5.074  0.0574 -0.5149  0.8680
  576MOL0     C77664   0.963   4.158   5.209  0.0230  0.3816  0.1106
  576MOL0     C77665   0.860   4.235   5.302 -0.0629  1.1492  0.2144
  576MOL0     C77666   0.717   4.208   5.257  0.6371  0.0868  0.3685
  576MOL0     C77667   0.623   4.279   5.351  0.4111 -0.7715 -0.3498
  576MOL0     C77668   0.479   4.264   5.331  0.0954 -0.5513 -0.0942
  576MOL0     C77669   0.432   4.113   5.339  0.5335  0.7496  0.3008
  576MOL0    Cl77670   0.450   4.053   5.499  0.4213  0.2761 -0.1025
  576MOL0     C77671   1.371   3.931   4.977  0.4631 -0.4449  0.8086
  576MOL0     C77672   1.483   3.909   4.904 -0.1908  0.4288  0.5009
  576MOL0     O77673   1.777   4.136   4.796  0.1274  0.2537  1.1317
  576MOL0     C77674   1.983   4.033   4.642 -0.2633  0.1549  0.6790
  576MOL0     C77675   2.085   4.014   4.545 -0.4215 -0.5005 -0.1025
  576MOL0     N77676   2.689   3.613   4.343 -0.2184 -0.4247  0.4144
  576MOL0     N77677   2.805   3.578   4.344 -1.0796 -1.0387  0.9659
  576MOL0     C77678   3.900   3.795   4.625  0.3985 -0.6579 -0.8481
  576MOL0     C77679   3.982   3.799   4.740  0.2188  0.2038 -0.4905
  576MOL0     C77680   4.290   3.664   5.060 -0.4703  0.3498 -0.2206
  576MOL0     C77681   4.429   3.670   5.017  0.4195 -0.1681 -0.4540
  576MOL0     C77682   4.519   3.656   5.113 -0.6305 -0.8088  0.0729
  576MOL0     C77683   4.497   3.640   5.245  0.3197 -0.3427  0.8125
  576MOL0     O77684   4.610   3.645   5.325  0.1985 -0.2742  0.3395
  576MOL0     C77685   4.599   3.640   5.463  0.5252  0.5755 -1.6169
  576MOL0     C77686   4.726   3.618   5.531  0.0212  0.0126  0.1316
  576MOL0     C77687   4.842   3.695   5.478  0.2387 -0.3279 -0.0283
  576MOL0     C77688   4.833   3.849   5.506 -0.1272 -0.0592  0.2547
  576MOL0     C77689   4.848   3.881   5.651  0.5588 -0.2923 -0.8462
  576MOL0     C77690   4.859   3.911   5.766  0.7688  0.2983  0.3737
  576MOL0     C77691   4.370   3.640   5.300  0.6569  0.0857  0.9626
  576MOL0     C77692   4.265   3.645   5.203  0.5827 -1.1255  1.0416
  576MOL0     H77693   4.245   3.634   4.605 -0.7942 -0.5502 -0.2019
  576MOL0     H77694   4.129   3.651   4.417  0.7844  0.4960  0.7066
  576MOL0     H77695   3.894   3.519   4.410  0.8523  2.0520  4.3370
  576MOL0     H77696   3.752   3.570   4.501  2.4198  1.2551  1.1938
  576MOL0     H77697   3.757   3.591   4.189 -1.6011 -3.5491 -2.4587
  576MOL0     H77698   3.713   3.441   4.262  0.5180 -0.2469  1.3246
  576MOL0     H77699   3.582   3.696   4.345 -2.4055  1.7564 -2.4532
  576MOL0     H77700   3.538   3.607   4.201  1.4004 -2.4769 -1.1211
  576MOL0     H77701   3.473   3.403   4.335  0.3759 -0.5191 -0.2787
  576MOL0     H77702   3.540   3.489   4.476  1.0903  0.0521 -0.7876
  576MOL0     H77703   3.296   3.468   4.468  3.2888 -0.2759  1.6871
  576MOL0     H77704   3.352   3.638   4.471  1.5761  1.2164 -0.8390
  576MOL0     H77705   3.310   3.637   4.217  2.5037  0.0333  2.0537
  576MOL0     H77706   3.246   3.473   4.222  1.3553  0.7331 -1.9868
  576MOL0     H77707   3.085   3.551   4.417 -0.9295  1.9339  0.9152
  576MOL0     H77708   3.146   3.700   4.401  2.2617  0.1539 -2.0616
  576MOL0     H77709   3.000   3.552   4.166 -1.9645 -0.9034  1.0964
  576MOL0     H77710   3.054   3.723   4.171 -0.0423  0.6123  1.2890
  576MOL0     H77711   2.864   3.881   4.242 -0.0567  0.3908 -2.6929
  576MOL0     H77712   2.560   3.886   4.385  1.7627  0.6227 -0.2438
  576MOL0     H77713   2.580   3.924   4.223 -1.5294  0.4970  0.9465
  576MOL0     H77714   2.429   3.691   4.339 -0.6158 -0.8993 -0.2555
  576MOL0     H77715   2.473   3.709   4.164  1.2553  0.8302  0.7651
  576MOL0     H77716   2.233   3.778   4.179  0.6432 -0.4127  0.8866
  576MOL0     H77717   2.338   3.912   4.142  0.3817 -1.2523 -1.5523
  576MOL0     H77718   2.306   3.983   4.391 -2.9161 -0.3859  0.3223
  576MOL0     H77719   2.250   3.818   4.416  0.5229  0.9006  1.8607
  576MOL0     H77720   1.884   3.978   4.273  1.5431  1.9563 -0.6154
  576MOL0     H77721   1.626   4.117   4.493 -0.6093  0.3171  0.1485
  576MOL0     H77722   1.670   4.061   4.326  0.2381  0.3998  0.1531
  576MOL0     H77723   1.619   3.944   4.450  2.3859 -0.6302  0.8268
  576MOL0     H77724   1.516   4.201   4.745 -1.0627 -0.1706 -0.9457
  576MOL0     H77725   1.328   4.254   4.874  3.0188  1.4797 -0.0928
  576MOL0     H77726   1.187   4.278   5.093  0.3970  1.5719 -0.4174
  576MOL0     H77727   1.130   4.247   4.930  1.1455 -1.0317  0.1706
  576MOL0     H77728   0.954   4.322   5.075  1.6291 -0.1164  1.7066
  576MOL0     H77729   0.907   4.163   5.010  1.5735 -1.4503 -0.1464
  576MOL0     H77730   1.057   4.171   5.264 -0.6551 -1.7454  1.9680
  576MOL0     H77731   0.930   4.055   5.192 -1.2910  0.3091  2.6239
  576MOL0     H77732   0.869   4.195   5.403  1.4442  2.2277  0.5397
  576MOL0     H77733   0.901   4.336   5.295  2.5994  0.0941 -1.0002
  576MOL0     H77734   0.692   4.102   5.266 -0.5482  0.3486  0.2547
  576MOL0     H77735   0.683   4.249   5.162 -0.8231  0.2549  0.9305
  576MOL0     H77736   0.655   4.261   5.454  3.3452  1.4896 -0.7009
  576MOL0     H77737   0.636   4.388   5.347 -1.8032 -0.4185  0.7477
  576MOL0     H77738   0.453   4.320   5.240 -1.6783  0.0097  0.7125
  576MOL0     H77739   0.423   4.318   5.408  1.2765  1.1608 -0.3923
  576MOL0     H77740   0.482   4.053   5.262  0.5912  1.9263 -0.6179
  576MOL0     H77741   0.329   4.105   5.305  0.9343 -0.0738 -0.7802
  576MOL0     H77742   1.342   3.839   5.028  3.0579 -1.5171  0.5174
  576MOL0     H77743   1.512   3.804   4.909  0.9233  0.7827  1.7624
  576MOL0     H77744   2.009   4.044   4.747 -0.0905  1.2192  0.5287
  576MOL0     H77745   2.187   4.034   4.576  0.6963 -2.4469 -2.2000
  576MOL0     H77746   3.799   3.833   4.638  1.3143  1.7516 -0.1073
  576MOL0     H77747   3.938   3.846   4.827  0.0702 -0.4878 -0.1774
  576MOL0     H77748   4.446   3.675   4.910  0.7841 -2.0501 -0.5244
  576MOL0     H77749   4.621   3.655   5.076 -0.2684 -1.1099  1.0308
  576MOL0     H77750   4.552   3.726   5.511  1.8263  1.4640 -1.8921
  576MOL0     H77751   4.538   3.552   5.483  0.7436 -0.8157 -5.9537
  576MOL0     H77752   4.750   3.514   5.506  1.7100  0.0195  1.5345
  576MOL0     H77753   4.715   3.627   5.639  2.3719 -1.4422  0.5700
  576MOL0     H77754   4.847   3.682   5.369  0.0223  1.2095 -0.2546
  576MOL0     H77755   4.940   3.661   5.512  0.9740  1.9599  0.3193
  576MOL0     H77756   4.744   3.897   5.463  0.2773 -1.0072 -1.7713
  576MOL0     H77757   4.920   3.892   5.456 -0.3457 -1.0737 -1.0572
  576MOL0     H77758   4.869   3.934   5.870 -1.9726 -1.1227  1.0503
  576MOL0     H77759   4.354   3.629   5.407  2.9368  0.9145  1.4483
  576MOL0     H77760   4.162   3.635   5.233 -0.4507  3.0627 -0.3560
  577MOL0     O77761   0.747   8.126   4.604 -0.0366  0.0611 -0.7092
  577MOL0     C77762   0.766   8.085   4.491 -0.1356 -0.3165  0.5971
  577MOL0     O77763   0.679   8.095   4.384  0.2565  0.4178 -0.4855
  577MOL0     C77764   0.545   8.121   4.401 -0.7333 -0.0648  0.2272
  577MOL0     C77765   0.459   8.070   4.500  0.1096 -0.1864  0.6828
  577MOL0     C77766   0.322   8.097   4.504  0.5624  0.2745  0.2665
  577MOL0     C77767   0.264   8.167   4.386  0.2681 -0.0116  0.0431
  577MOL0     O77768   0.128   8.190   4.380 -0.0904 -0.0106 -0.5897
  577MOL0     C77769   0.107   8.306   4.473  0.1659 -0.2402  0.9301
  577MOL0     C77770  -0.049   8.304   4.497 -0.2412  1.0616 -0.4866
  577MOL0     C77771  -0.129   8.319   4.363  0.2128  0.5849  0.3349
  577MOL0     C77772  -0.280   8.366   4.384  0.2807 -1.0911 -0.3886
  577MOL0     C77773  -0.360   8.365   4.253 -0.0123  0.5570  0.5603
  577MOL0     C77774  -0.296   8.463   4.151  0.0785 -0.0004  0.2028
  577MOL0     C77775  -0.376   8.479   4.025  0.5050  0.5848  0.5553
  577MOL0     C77776  -0.344   8.601   3.936 -0.4511  0.2593 -0.0136
  577MOL0     N77777  -0.368   8.736   3.989 -0.4169 -0.0685 -0.6899
  577MOL0     C77778  -0.472   8.780   4.073 -0.6769 -0.1116  0.0612
  577MOL0     C77779  -0.445   8.911   4.100  0.0993  0.2833  0.4713
  577MOL0     C77780  -0.499   9.029   4.180 -0.1684 -0.5605  0.9286
  577MOL0     C77781  -0.588   9.124   4.097 -0.6223  0.3390 -0.3499
  577MOL0     C77782  -0.666   9.212   4.196  0.1000  0.0313  0.2434
  577MOL0     C77783  -0.745   9.332   4.138  0.8364 -0.2779  0.3929
  577MOL0     O77784  -0.665   9.429   4.063  0.2439  0.6161  0.1613
  577MOL0     C77785  -0.723   9.536   4.005 -0.0866  0.3234  0.4462
  577MOL0     C77786  -0.650   9.629   3.937 -0.3637 -0.7278 -0.7168
  577MOL0     C77787  -0.709   9.741   3.872  0.6686 -0.3607  0.2691
  577MOL0     C77788  -0.618   9.831   3.797 -0.3369 -0.9763 -0.4776
  577MOL0     C77789  -0.844   9.776   3.903 -1.0803  0.5242  1.2320
  577MOL0     C77790  -0.921   9.881   3.838  0.6930 -0.2124 -0.7106
  577MOL0     O77791  -1.045   9.870   3.870  0.5407  0.4106  0.1641
  577MOL0     C77792  -1.137   9.961   3.829 -0.3025 -0.0814 -0.6794
  577MOL0     C77793  -1.187   9.971   3.698  0.1515 -0.2716  0.1938
  577MOL0     C77794  -1.283  10.073   3.669  0.0720 -1.2122  0.5830
  577MOL0     C77795  -1.334  10.152   3.774  0.1166  0.8652  0.1016
  577MOL0     O77796  -1.423  10.246   3.736 -0.1544 -0.0816  0.0947
  577MOL0     C77797  -1.452  10.354   3.827 -0.0446 -0.1324 -0.1847
  577MOL0     C77798  -1.527  10.460   3.740 -0.0306  0.8504 -1.4849
  577MOL0     C77799  -1.644  10.397   3.655 -0.2571 -0.8909 -0.1634
  577MOL0     C77800  -1.724  10.513   3.587  0.3698 -0.2207  0.1783
  577MOL0     C77801  -1.837  10.451   3.509  0.4353  0.3094 -0.4687
  577MOL0     C77802  -1.905  10.556   3.415 -0.3315 -0.3308 -0.2904
  577MOL0     C77803  -2.032  10.493   3.344 -0.3919  0.1061 -0.1666
  577MOL0     C77804  -2.169  10.533   3.394 -0.0691 -0.4614 -0.0995
  577MOL0    Cl77805  -2.248  10.427   3.522  0.0832 -0.1062 -0.6581
  577MOL0     C77806  -1.291  10.129   3.906  0.2685  1.4289 -0.4383
  577MOL0     C77807  -1.195  10.037   3.933  0.1617  0.0062 -0.3000
  577MOL0     O77808  -0.871   9.964   3.760  0.1590 -0.7712 -0.1843
  577MOL0     C77809  -0.912   9.687   3.993  0.1581 -0.5888  1.0108
  577MOL0     C77810  -0.857   9.571   4.032  0.7744 -0.0027  0.4457
  577MOL0     N77811  -0.333   8.944   4.020  0.2180 -0.1858 -0.0428
  577MOL0     N77812  -0.288   8.843   3.955 -0.6758  0.5818 -0.4240
  577MOL0     C77813   0.351   8.207   4.289  0.0656 -0.0759 -0.4799
  577MOL0     C77814   0.485   8.180   4.295  0.2927  0.9200  0.6713
  577MOL0     C77815   0.876   7.996   4.472 -0.8881  0.2511 -0.4062
  577MOL0     C77816   0.904   7.957   4.341  0.6049  0.9201 -0.6448
  577MOL0     C77817   1.011   7.870   4.318 -0.2610  0.3602 -0.0783
  577MOL0     C77818   1.086   7.827   4.426  1.0596 -0.0605 -0.8950
  577MOL0     O77819   1.194   7.735   4.407  0.4474 -0.1234 -0.2962
  577MOL0     C77820   1.321   7.785   4.436 -0.5202  0.1877 -0.3577
  577MOL0     C77821   1.425   7.679   4.396 -0.2565 -0.8686  0.1261
  577MOL0     C77822   1.373   7.527   4.413  0.8416 -0.4578  0.4415
  577MOL0     C77823   1.470   7.428   4.360  0.2459 -0.1924  0.4084
  577MOL0     C77824   1.446   7.415   4.216  0.1555 -0.1761 -0.5984
  577MOL0     C77825   1.433   7.396   4.095 -1.0306  0.4744  0.2582
  577MOL0     C77826   1.059   7.868   4.552  0.9482  0.2513  0.7119
  577MOL0     C77827   0.957   7.943   4.581  0.8430 -0.6534  0.3804
  577MOL0     H77828   0.507   8.012   4.579 -3.7347 -2.7426  1.4315
  577MOL0     H77829   0.248   8.079   4.581  3.3934  0.3421  3.2068
  577MOL0     H77830   0.156   8.301   4.571 -2.6950  2.5237  2.6851
  577MOL0     H77831   0.134   8.402   4.429 -0.9232  0.0742  0.9230
  577MOL0     H77832  -0.078   8.215   4.554 -1.5626  0.7524 -1.6043
  577MOL0     H77833  -0.090   8.381   4.563 -4.1179 -1.5835  0.5142
  577MOL0     H77834  -0.067   8.378   4.295 -0.2874  1.6033  0.7486
  577MOL0     H77835  -0.125   8.220   4.316 -0.9471 -0.0245  1.4458
  577MOL0     H77836  -0.335   8.307   4.458  2.5077 -1.1442  1.3425
  577MOL0     H77837  -0.287   8.468   4.425  0.6807 -1.7212  1.3678
  577MOL0     H77838  -0.357   8.261   4.218 -1.7863  0.4778  0.5737
  577MOL0     H77839  -0.465   8.390   4.264  0.1636  2.0396 -0.7018
  577MOL0     H77840  -0.307   8.560   4.201  0.4434  0.3821 -0.4523
  577MOL0     H77841  -0.192   8.434   4.136  0.6827  1.0984  1.8971
  577MOL0     H77842  -0.372   8.393   3.957  3.5961  2.0360 -1.3429
  577MOL0     H77843  -0.479   8.493   4.057  0.9101  3.0275  0.9956
  577MOL0     H77844  -0.399   8.591   3.843  3.1807  1.6173 -2.5206
  577MOL0     H77845  -0.238   8.591   3.908 -0.3018 -0.5224  0.7526
  577MOL0     H77846  -0.553   8.721   4.114 -1.2103  0.5160 -0.0715
  577MOL0     H77847  -0.568   8.989   4.255  0.6298  1.0809  2.6327
  577MOL0     H77848  -0.423   9.094   4.223 -3.3592  3.0986  1.6264
  577MOL0     H77849  -0.653   9.070   4.028 -0.5626 -3.1668  2.0945
  577MOL0     H77850  -0.519   9.189   4.042  1.8018 -0.7439  1.2380
  577MOL0     H77851  -0.590   9.253   4.263  0.4737 -1.2264  0.6240
  577MOL0     H77852  -0.729   9.156   4.266 -1.0973  3.4304  2.0942
  577MOL0     H77853  -0.805   9.382   4.214  0.0578 -2.0198  0.9847
  577MOL0     H77854  -0.824   9.298   4.070 -1.4728  1.2523  2.1657
  577MOL0     H77855  -0.543   9.620   3.920  0.3531  1.5917  1.8782
  577MOL0     H77856  -0.647   9.835   3.691 -0.8058 -1.4433 -0.3743
  577MOL0     H77857  -0.631   9.929   3.842  1.4533 -0.3477 -1.2636
  577MOL0     H77858  -0.511   9.810   3.800 -0.0636  0.2834 -1.0215
  577MOL0     H77859  -1.137   9.914   3.620 -0.4549  0.3086 -0.6388
  577MOL0     H77860  -1.326  10.073   3.570  0.2482 -1.7998  0.5015
  577MOL0     H77861  -1.506  10.302   3.906  0.5298 -2.6370 -1.3495
  577MOL0     H77862  -1.355  10.398   3.852 -0.5641  0.1986  1.3528
  577MOL0     H77863  -1.571  10.527   3.815  2.7879  4.1084 -2.4601
  577MOL0     H77864  -1.452  10.522   3.690  0.3054  1.3868 -0.3489
  577MOL0     H77865  -1.716  10.346   3.720  0.1943  0.5210  1.5191
  577MOL0     H77866  -1.598  10.337   3.576  0.5515  1.2525 -1.3897
  577MOL0     H77867  -1.771  10.581   3.658  1.1578  0.3734  0.1479
  577MOL0     H77868  -1.664  10.575   3.519  1.4705 -1.3551  0.0614
  577MOL0     H77869  -1.912  10.426   3.585  1.0318  2.7070  1.0494
  577MOL0     H77870  -1.794  10.368   3.454  0.6463 -0.1114  0.3141
  577MOL0     H77871  -1.947  10.636   3.476 -4.5718 -0.7526 -2.2705
  577MOL0     H77872  -1.839  10.611   3.346 -1.6794 -1.3469 -2.5111
  577MOL0     H77873  -2.034  10.384   3.336 -1.4699  0.1731 -1.2378
  577MOL0     H77874  -2.023  10.530   3.241 -1.1090  0.7479 -0.0151
  577MOL0     H77875  -2.241  10.544   3.313 -1.4006 -0.7091  1.0034
  577MOL0     H77876  -2.163  10.632   3.440 -2.1244 -1.3521  2.3290
  577MOL0     H77877  -1.325  10.185   3.992 -1.2438  0.2905 -0.2677
  577MOL0     H77878  -1.177  10.023   4.039 -0.3381  0.9120 -0.0848
  577MOL0     H77879  -1.015   9.705   4.023 -0.3068 -0.9853 -0.2393
  577MOL0     H77880  -0.923   9.504   4.086  1.8004 -1.0425  0.4543
  577MOL0     H77881   0.322   8.271   4.205  3.0771  0.7628 -1.0146
  577MOL0     H77882   0.539   8.218   4.209 -2.0551  1.2694 -0.7447
  577MOL0     H77883   0.851   7.997   4.256 -3.2124 -0.1200  1.0303
  577MOL0     H77884   1.047   7.851   4.217 -1.6692 -2.2956 -0.1623
  577MOL0     H77885   1.336   7.872   4.372 -0.0322 -0.4332 -1.1111
  577MOL0     H77886   1.333   7.811   4.542 -3.1283 -0.9656  0.3035
  577MOL0     H77887   1.507   7.682   4.469 -0.5683  0.0474  0.4413
  577MOL0     H77888   1.460   7.710   4.297  0.0871  1.1190  0.8409
  577MOL0     H77889   1.285   7.521   4.348  1.1802 -0.2052 -0.0461
  577MOL0     H77890   1.332   7.495   4.510 -1.8777 -0.5363 -0.6509
  577MOL0     H77891   1.441   7.331   4.403  0.1725 -0.8930 -1.1519
  577MOL0     H77892   1.576   7.447   4.379  0.1484 -0.0881  0.8611
  577MOL0     H77893   1.428   7.361   3.994 -1.5662  2.4854 -0.4728
  577MOL0     H77894   1.114   7.830   4.638 -1.3375 -1.5173  1.5052
  577MOL0     H77895   0.933   7.959   4.685  2.3959 -4.3791  1.4619
  578MOL0     O77896   5.074   0.064   6.300 -0.0666  0.5294  0.1839
  578MOL0     C77897   5.158   0.143   6.266  0.8052 -0.2750 -0.8994
  578MOL0     O77898   5.153   0.278   6.279  0.1239  0.6960 -0.2583
  578MOL0     C77899   5.034   0.329   6.312  0.1735 -0.8637 -0.0265
  578MOL0     C77900   5.037   0.413   6.420 -0.7095 -0.5084 -0.1334
  578MOL0     C77901   4.917   0.485   6.461 -0.6494 -0.4986 -0.4716
  578MOL0     C77902   4.797   0.466   6.391 -0.3236  0.5280  0.1926
  578MOL0     O77903   4.694   0.544   6.429  0.8848  0.6536  0.2173
  578MOL0     C77904   4.568   0.471   6.426  0.0700 -0.1492  0.3181
  578MOL0     C77905   4.469   0.567   6.489  0.8102 -0.6721  0.1811
  578MOL0     C77906   4.424   0.681   6.388  0.6609  0.1222  0.0301
  578MOL0     C77907   4.332   0.770   6.466  0.5685 -0.4065 -0.1486
  578MOL0     C77908   4.226   0.850   6.377 -0.6520 -0.2899 -0.1761
  578MOL0     C77909   4.150   0.933   6.476  0.5079  0.2187  0.0476
  578MOL0     C77910   4.032   0.997   6.401 -0.2426 -0.2307  0.6991
  578MOL0     C77911   3.948   1.097   6.473  0.0871 -0.4573  0.7115
  578MOL0     N77912   3.847   1.149   6.375 -0.0832 -0.2592  0.8235
  578MOL0     C77913   3.732   1.082   6.338 -0.4167 -0.2622  0.2756
  578MOL0     C77914   3.674   1.175   6.255  1.4892 -0.3088 -0.0611
  578MOL0     C77915   3.546   1.155   6.185  0.1456  0.8901 -0.5938
  578MOL0     C77916   3.473   1.294   6.187  0.2219  0.2764  0.6088
  578MOL0     C77917   3.323   1.278   6.161  1.0489  0.4892 -0.1081
  578MOL0     C77918   3.255   1.406   6.151 -0.4045  0.2180  0.0313
  578MOL0     O77919   3.253   1.481   6.279 -0.4958 -0.6620 -0.5093
  578MOL0     C77920   3.139   1.479   6.353  0.4247 -0.3679 -0.0777
  578MOL0     C77921   3.145   1.457   6.490 -0.5769 -0.9371 -0.7283
  578MOL0     C77922   3.029   1.456   6.576  1.1611  0.1457  0.7405
  578MOL0     C77923   3.050   1.462   6.725  0.7371  0.5053 -0.3245
  578MOL0     C77924   2.901   1.471   6.513  0.2751  0.5934  0.0649
  578MOL0     C77925   2.771   1.466   6.580 -0.3339  0.2241  0.2828
  578MOL0     O77926   2.662   1.503   6.506 -0.0030  0.1653  0.0064
  578MOL0     C77927   2.532   1.504   6.555 -1.3940 -0.6761 -0.6963
  578MOL0     C77928   2.445   1.401   6.548  0.8864  0.4662 -0.9235
  578MOL0     C77929   2.318   1.412   6.616  0.4901 -0.0325  0.7802
  578MOL0     C77930   2.278   1.530   6.678 -0.3128 -0.6945 -0.4741
  578MOL0     O77931   2.156   1.549   6.746  0.1824  0.1417  0.1816
  578MOL0     C77932   2.034   1.479   6.705  0.1100  0.2364  0.1645
  578MOL0     C77933   2.008   1.374   6.819 -0.9318 -0.6860  0.2560
  578MOL0     C77934   1.859   1.325   6.802  0.2544  0.0174  0.0569
  578MOL0     C77935   1.801   1.296   6.936  0.3363  1.2107 -0.4701
  578MOL0     C77936   1.677   1.223   6.910  0.4067  1.5767  0.0359
  578MOL0     C77937   1.584   1.217   7.031 -0.2213 -0.0655 -0.0001
  578MOL0     C77938   1.659   1.180   7.162  0.2642  0.0160  0.0663
  578MOL0     C77939   1.558   1.158   7.277 -0.1375  0.6403  0.1238
  578MOL0    Cl77940   1.445   1.294   7.284  0.3774 -0.3813  0.2362
  578MOL0     C77941   2.373   1.635   6.678  0.4353  0.1339  0.2522
  578MOL0     C77942   2.499   1.619   6.622 -0.3885 -0.0520 -0.7826
  578MOL0     O77943   2.762   1.431   6.699  0.4493  0.1237 -0.1139
  578MOL0     C77944   2.899   1.503   6.378  0.2821 -0.0219  0.2146
  578MOL0     C77945   3.015   1.511   6.300 -0.6879  0.6526  0.5820
  578MOL0     N77946   3.755   1.288   6.251 -0.0890 -0.4481  0.7490
  578MOL0     N77947   3.855   1.272   6.314 -0.6491  0.0882 -0.2636
  578MOL0     C77948   4.799   0.380   6.275  0.1168 -0.8638 -0.0134
  578MOL0     C77949   4.917   0.314   6.242 -0.0629 -0.4846 -0.0613
  578MOL0     C77950   5.294   0.094   6.251 -0.4524  0.2133  0.6511
  578MOL0     C77951   5.378   0.170   6.170  0.2609 -0.3399 -0.2392
  578MOL0     C77952   5.508   0.129   6.143  0.2132 -0.3713 -0.2693
  578MOL0     C77953   5.553   0.011   6.196 -0.4100  0.1932 -0.1832
  578MOL0     O77954   5.668  -0.047   6.146  0.5004 -0.3440 -0.4199
  578MOL0     C77955   5.755   0.026   6.055  0.6123  0.0626 -0.1085
  578MOL0     C77956   5.891  -0.038   6.047 -0.3062 -0.2364 -1.0633
  578MOL0     C77957   5.953  -0.049   6.185  0.2098  0.3451 -0.1211
  578MOL0     C77958   6.081  -0.126   6.183 -0.3069  0.2795 -0.4062
  578MOL0     C77959   6.132  -0.137   6.315 -0.2295 -0.1018  0.5842
  578MOL0     C77960   6.180  -0.121   6.428 -0.3495  0.1972 -0.4638
  578MOL0     C77961   5.476  -0.069   6.273 -0.4544  0.6898 -0.3990
  578MOL0     C77962   5.348  -0.027   6.308  1.3797 -0.1886 -0.2943
  578MOL0     H77963   5.129   0.424   6.476 -0.5849  2.0672 -0.7072
  578MOL0     H77964   4.914   0.541   6.554 -0.9834 -0.8601 -0.2599
  578MOL0     H77965   4.539   0.447   6.323  2.2100  2.0756 -0.9155
  578MOL0     H77966   4.567   0.375   6.478 -1.3620 -0.2768  0.0906
  578MOL0     H77967   4.384   0.504   6.516 -0.6952  0.5370 -1.4825
  578MOL0     H77968   4.512   0.616   6.577 -0.0662  4.3857 -1.8302
  578MOL0     H77969   4.504   0.733   6.336 -0.4293  0.4100 -1.4133
  578MOL0     H77970   4.372   0.636   6.303  0.3682 -1.1830  0.8595
  578MOL0     H77971   4.277   0.724   6.549 -0.0307  1.4443  0.5300
  578MOL0     H77972   4.395   0.846   6.513  0.3071  1.3948 -2.5210
  578MOL0     H77973   4.274   0.914   6.301 -0.9639 -3.9131 -3.7127
  578MOL0     H77974   4.154   0.787   6.325  0.4281 -0.3244 -1.7156
  578MOL0     H77975   4.109   0.869   6.555 -0.7384 -0.3998 -1.0703
  578MOL0     H77976   4.205   1.019   6.518 -1.2706  0.6492  1.6766
  578MOL0     H77977   4.071   1.053   6.316  0.8485 -0.7928  0.8076
  578MOL0     H77978   3.962   0.922   6.363 -1.2407  0.3841  1.2795
  578MOL0     H77979   4.015   1.180   6.499 -0.7331  0.3385  0.3578
  578MOL0     H77980   3.900   1.066   6.566  0.8801 -1.2691  0.8574
  578MOL0     H77981   3.707   0.982   6.371  0.9469 -0.7661 -0.1484
  578MOL0     H77982   3.556   1.110   6.086  1.0352 -0.0056 -0.1133
  578MOL0     H77983   3.482   1.087   6.241 -3.0988  1.2801 -3.5041
  578MOL0     H77984   3.509   1.359   6.106 -0.3652 -0.4354 -0.2452
  578MOL0     H77985   3.491   1.342   6.283  2.6876 -0.6174  0.6744
  578MOL0     H77986   3.285   1.218   6.245  2.3318 -1.2647 -0.7184
  578MOL0     H77987   3.304   1.220   6.070 -3.5108 -2.3556  2.2510
  578MOL0     H77988   3.155   1.403   6.107  0.7384 -0.4248 -2.6646
  578MOL0     H77989   3.312   1.468   6.082 -0.6047  0.3119 -0.0513
  578MOL0     H77990   3.243   1.448   6.536 -0.6340 -4.0683 -1.0379
  578MOL0     H77991   3.033   1.371   6.784 -1.5062  1.2072  0.2186
  578MOL0     H77992   3.149   1.500   6.754  0.8246 -0.1541  0.2682
  578MOL0     H77993   2.981   1.540   6.760 -0.7110  0.6783 -3.3124
  578MOL0     H77994   2.476   1.305   6.509 -0.9057 -0.9868  0.9815
  578MOL0     H77995   2.251   1.327   6.613  0.5293 -0.0289 -1.4188
  578MOL0     H77996   1.964   1.562   6.699 -0.8315 -0.6303 -2.4346
  578MOL0     H77997   2.027   1.433   6.606 -0.7574 -1.3559  0.9314
  578MOL0     H77998   2.068   1.285   6.798 -0.6819 -0.8544  1.5827
  578MOL0     H77999   2.028   1.410   6.920  0.4440 -1.1270  0.1580
  578MOL0     H78000   1.859   1.229   6.751 -0.2480 -1.3046  2.3789
  578MOL0     H78001   1.806   1.402   6.746 -0.3608 -0.5251 -0.1116
  578MOL0     H78002   1.862   1.235   7.003 -2.9438 -1.3644  0.4421
  578MOL0     H78003   1.789   1.384   7.000 -0.9631 -0.1565  1.2571
  578MOL0     H78004   1.705   1.121   6.885  3.2109  1.8712  1.5973
  578MOL0     H78005   1.624   1.275   6.829  1.7017  3.5938  0.4123
  578MOL0     H78006   1.550   1.320   7.042 -3.7365 -0.9573 -1.1154
  578MOL0     H78007   1.503   1.144   7.022 -1.1597  0.2537  4.1138
  578MOL0     H78008   1.726   1.260   7.194  0.8327 -0.5905  0.4287
  578MOL0     H78009   1.719   1.090   7.147 -2.7239 -1.9458 -1.1081
  578MOL0     H78010   1.627   1.154   7.362  3.0049 -3.3590 -2.2766
  578MOL0     H78011   1.505   1.063   7.274 -2.8418  2.0681 -1.8096
  578MOL0     H78012   2.356   1.726   6.735  4.1346 -0.0374  1.9046
  578MOL0     H78013   2.569   1.699   6.641 -1.1567  0.3702  0.3644
  578MOL0     H78014   2.814   1.544   6.324  0.7229  1.2140  0.4143
  578MOL0     H78015   3.000   1.549   6.199 -0.8867  1.5734  0.9488
  578MOL0     H78016   4.718   0.382   6.202  2.1194 -1.9317 -2.4138
  578MOL0     H78017   4.929   0.245   6.158  1.4456  2.1763 -2.1959
  578MOL0     H78018   5.340   0.264   6.131  0.7014  0.9590  2.2019
  578MOL0     H78019   5.558   0.193   6.070 -0.4855  0.5034 -0.0038
  578MOL0     H78020   5.714   0.025   5.954  1.6034 -0.1591 -0.5238
  578MOL0     H78021   5.765   0.126   6.099 -1.5449  0.1387  0.3044
  578MOL0     H78022   5.962   0.024   5.991  2.2722  0.8365  2.9706
  578MOL0     H78023   5.897  -0.145   6.024  1.2583 -0.9460  2.0771
  578MOL0     H78024   5.877  -0.090   6.253  0.1748 -1.1097 -0.9900
  578MOL0     H78025   5.985   0.052   6.210  1.3879  0.3067 -1.3376
  578MOL0     H78026   6.154  -0.081   6.115 -0.4559 -1.1801 -1.5865
  578MOL0     H78027   6.063  -0.232   6.160  0.5279 -0.4510  1.9565
  578MOL0     H78028   6.224  -0.117   6.525  0.3189 -0.9235 -0.6960
  578MOL0     H78029   5.499  -0.170   6.304 -2.8975 -0.6241 -2.5235
  578MOL0     H78030   5.286  -0.091   6.369  0.6563 -0.0761 -0.8955
  579MOL0     O78031   1.229  10.516   5.697 -0.3454 -0.2392 -0.2273
  579MOL0     C78032   1.239  10.392   5.708 -0.3227  0.1691 -0.0957
  579MOL0     O78033   1.157  10.312   5.783  0.2203  0.0449  0.7377
  579MOL0     C78034   1.049  10.365   5.853  0.1711  0.1871  0.2154
  579MOL0     C78035   0.928  10.360   5.787  0.6605  0.2806  0.5365
  579MOL0     C78036   0.813  10.389   5.851 -0.1618 -0.1019  0.1229
  579MOL0     C78037   0.820  10.424   5.985  0.6607  0.3223 -0.3624
  579MOL0     O78038   0.706  10.458   6.059  0.0953 -0.2115  0.0124
  579MOL0     C78039   0.636  10.574   5.999 -0.7258  0.4755 -0.6916
  579MOL0     C78040   0.520  10.612   6.092  0.3573  1.3234  0.3586
  579MOL0     C78041   0.412  10.497   6.102  0.0939  0.7354  0.5423
  579MOL0     C78042   0.340  10.489   6.241 -0.8707  0.0405 -0.3777
  579MOL0     C78043   0.230  10.596   6.265 -0.3742 -0.5757  0.3369
  579MOL0     C78044   0.108  10.585   6.173 -0.6398 -0.6353  0.0515
  579MOL0     C78045   0.010  10.701   6.208 -0.2407 -0.1252 -1.2311
  579MOL0     C78046  -0.108  10.698   6.112 -0.5830  0.5110 -0.1971
  579MOL0     N78047  -0.192  10.814   6.120  0.2188  0.8773  0.3353
  579MOL0     C78048  -0.271  10.863   6.020 -0.5365  0.1973 -0.5516
  579MOL0     C78049  -0.325  10.979   6.071  0.1831  0.2078 -0.6990
  579MOL0     C78050  -0.408  11.077   6.004  0.6415 -0.6566  1.1266
  579MOL0     C78051  -0.557  11.053   6.054 -1.1638 -0.5950  0.3403
  579MOL0     C78052  -0.659  11.154   5.986 -0.2390  0.3314  0.0516
  579MOL0     C78053  -0.800  11.135   6.031  0.5399  0.9750 -0.9690
  579MOL0     O78054  -0.840  11.004   5.976 -0.2644 -0.2639 -0.7063
  579MOL0     C78055  -0.979  10.966   5.970 -0.7468 -0.3180  0.2325
  579MOL0     C78056  -1.017  10.865   5.891  0.0167 -0.5235  0.3244
  579MOL0     C78057  -1.157  10.836   5.871 -1.5660  0.5007 -0.9228
  579MOL0     C78058  -1.191  10.715   5.787 -0.4537 -0.4912  0.0484
  579MOL0     C78059  -1.255  10.913   5.936  0.6490  0.5650  0.5713
  579MOL0     C78060  -1.407  10.870   5.948 -0.9447 -0.1644 -0.0757
  579MOL0     O78061  -1.479  10.964   6.013 -0.2277  0.5136 -0.0260
  579MOL0     C78062  -1.611  10.922   6.042 -0.6031 -0.6957  0.0348
  579MOL0     C78063  -1.726  10.969   5.984  0.2606 -0.3251 -0.1205
  579MOL0     C78064  -1.853  10.925   6.034  0.1116 -0.2674  0.3554
  579MOL0     C78065  -1.863  10.835   6.140  0.2262 -0.4636 -0.4857
  579MOL0     O78066  -1.990  10.795   6.181  0.2292  0.2006 -0.2435
  579MOL0     C78067  -2.072  10.895   6.246  0.3243  0.0399 -0.9853
  579MOL0     C78068  -2.199  10.825   6.304 -0.7534  0.7759 -0.3986
  579MOL0     C78069  -2.304  10.927   6.322  0.5398  0.3471  0.5580
  579MOL0     C78070  -2.431  10.863   6.373  0.2965  0.6826 -0.0170
  579MOL0     C78071  -2.542  10.971   6.364 -0.4284  0.2645  0.2440
  579MOL0     C78072  -2.664  10.924   6.433  0.3621  0.6315  0.0229
  579MOL0     C78073  -2.781  11.016   6.396 -0.2699  0.4394 -0.2280
  579MOL0     C78074  -2.809  11.142   6.490 -0.2350  0.1056 -0.8728
  579MOL0    Cl78075  -2.714  11.288   6.443 -0.0682 -0.4069  0.1513
  579MOL0     C78076  -1.746  10.796   6.200  0.0297  0.2288  0.0673
  579MOL0     C78077  -1.619  10.832   6.153 -1.0844  0.1796 -0.0682
  579MOL0     O78078  -1.435  10.749   5.927 -0.2039  0.0382 -0.4421
  579MOL0     C78079  -1.207  11.016   6.018 -1.2117 -0.1177 -0.0476
  579MOL0     C78080  -1.073  11.047   6.025 -0.5102 -0.4947 -0.3431
  579MOL0     N78081  -0.279  10.988   6.204 -1.2928 -0.5412  0.0312
  579MOL0     N78082  -0.185  10.898   6.224 -0.5401 -0.4495  0.1191
  579MOL0     C78083   0.938  10.438   6.054  0.9993 -0.0649 -0.1931
  579MOL0     C78084   1.054  10.399   5.991 -0.4714 -0.1450 -1.1384
  579MOL0     C78085   1.363  10.326   5.649  0.1887 -0.0566 -0.8044
  579MOL0     C78086   1.386  10.188   5.668  0.5928  0.2610 -0.3458
  579MOL0     C78087   1.489  10.113   5.612 -0.7579 -0.0081  0.4484
  579MOL0     C78088   1.581  10.191   5.534  1.0325  0.6891  0.1030
  579MOL0     O78089   1.690  10.108   5.500  0.1522  0.3089 -1.0613
  579MOL0     C78090   1.780  10.159   5.403  0.1448  0.7269  0.9586
  579MOL0     C78091   1.718  10.179   5.261 -0.2820 -0.3309 -0.0607
  579MOL0     C78092   1.680  10.042   5.192 -0.7743 -1.0518  0.5310
  579MOL0     C78093   1.787   9.951   5.126  0.2583  0.0790 -0.4448
  579MOL0     C78094   1.878   9.883   5.212 -0.6467 -1.0405  0.1355
  579MOL0     C78095   1.958   9.820   5.279  0.4864  0.8502  0.2473
  579MOL0     C78096   1.566  10.329   5.523  0.6332 -0.3762  0.0607
  579MOL0     C78097   1.456  10.399   5.577  0.2825  0.0130 -0.1387
  579MOL0     H78098   0.911  10.320   5.688  0.1126 -0.2336  0.8259
  579MOL0     H78099   0.722  10.388   5.792  0.9804  0.0438 -1.7448
  579MOL0     H78100   0.709  10.655   6.003 -0.8934  0.5912  0.3198
  579MOL0     H78101   0.603  10.539   5.901 -0.3608 -2.3068  0.0651
  579MOL0     H78102   0.571  10.648   6.182  2.2953 -0.6167  0.1080
  579MOL0     H78103   0.466  10.690   6.038  0.0239 -0.5845 -2.2312
  579MOL0     H78104   0.349  10.514   6.014  1.3752  0.3460 -0.4809
  579MOL0     H78105   0.449  10.394   6.098 -1.8381  0.0272 -0.6216
  579MOL0     H78106   0.288  10.392   6.234 -0.3098 -0.1663 -2.2049
  579MOL0     H78107   0.410  10.484   6.324 -3.5148  2.8142  2.2532
  579MOL0     H78108   0.205  10.593   6.372 -1.0285 -0.9450  0.1778
  579MOL0     H78109   0.281  10.690   6.242  1.4069 -1.6657 -0.3744
  579MOL0     H78110   0.134  10.594   6.067  0.2581 -0.3641  0.2847
  579MOL0     H78111   0.065  10.487   6.194  2.9489 -2.8891 -1.9811
  579MOL0     H78112  -0.025  10.713   6.311 -1.1811 -0.3805 -1.5168
  579MOL0     H78113   0.073  10.789   6.190  0.0643  0.0407  0.4185
  579MOL0     H78114  -0.167  10.608   6.135 -2.2495  1.5573 -0.2498
  579MOL0     H78115  -0.075  10.676   6.010  4.2794  0.8340  1.0470
  579MOL0     H78116  -0.287  10.817   5.923 -0.2286  0.5600 -0.7780
  579MOL0     H78117  -0.378  11.180   6.026  0.7280 -0.9440  2.4140
  579MOL0     H78118  -0.392  11.061   5.897  2.6654 -2.3724  1.6143
  579MOL0     H78119  -0.553  11.066   6.163  0.8530 -0.9645  0.3376
  579MOL0     H78120  -0.598  10.958   6.020 -1.6886  0.6293 -2.8589
  579MOL0     H78121  -0.654  11.150   5.877 -0.9611  1.4768 -0.0401
  579MOL0     H78122  -0.629  11.257   6.008 -2.9093  1.4057 -0.9169
  579MOL0     H78123  -0.863  11.217   5.995 -0.3979  0.1324 -1.2784
  579MOL0     H78124  -0.793  11.125   6.140 -0.5548 -2.0036 -1.0943
  579MOL0     H78125  -0.939  10.816   5.833  1.3187  0.3848  1.2585
  579MOL0     H78126  -1.109  10.703   5.715  0.5123 -1.8970  1.3375
  579MOL0     H78127  -1.188  10.621   5.843  0.6929  1.1086  2.9015
  579MOL0     H78128  -1.284  10.732   5.732 -0.1379 -0.0722 -0.3712
  579MOL0     H78129  -1.718  11.043   5.905 -4.0954  0.6032  0.0542
  579MOL0     H78130  -1.943  10.952   5.980  2.9394 -0.4790 -5.2322
  579MOL0     H78131  -2.016  10.946   6.325  0.3554  0.7653 -1.4655
  579MOL0     H78132  -2.100  10.973   6.175  2.9369  1.0462 -1.0005
  579MOL0     H78133  -2.232  10.742   6.240  0.4834 -0.6824  0.7597
  579MOL0     H78134  -2.161  10.788   6.400 -0.2117 -0.3097 -1.0087
  579MOL0     H78135  -2.333  10.967   6.224 -3.0006 -1.0590  0.8732
  579MOL0     H78136  -2.264  11.014   6.375 -0.7215  1.1122  0.2901
  579MOL0     H78137  -2.444  10.771   6.315 -1.7759  0.6900  0.3844
  579MOL0     H78138  -2.414  10.843   6.480 -2.1525  1.6158  0.6165
  579MOL0     H78139  -2.556  10.984   6.257  3.3623  0.4524 -0.3820
  579MOL0     H78140  -2.501  11.061   6.411  5.4015 -2.9858  2.4768
  579MOL0     H78141  -2.668  10.818   6.406  1.3758  0.4045  0.7309
  579MOL0     H78142  -2.656  10.947   6.540  0.8781  1.0853 -0.1081
  579MOL0     H78143  -2.868  10.953   6.415  0.4874 -0.8554 -0.8966
  579MOL0     H78144  -2.779  11.047   6.291  1.8205 -1.2643 -0.7611
  579MOL0     H78145  -2.772  11.121   6.591  0.3295  0.0006 -1.1023
  579MOL0     H78146  -2.916  11.167   6.492 -0.3107 -0.2085 -0.9367
  579MOL0     H78147  -1.758  10.723   6.281 -0.1907 -2.3566 -2.1495
  579MOL0     H78148  -1.524  10.797   6.193 -0.1981  0.5676 -1.7393
  579MOL0     H78149  -1.271  11.071   6.085  0.1376  0.8642  0.4883
  579MOL0     H78150  -1.049  11.135   6.084  0.4963  1.7484 -3.8010
  579MOL0     H78151   0.924  10.463   6.158 -0.8368 -1.1422 -0.1308
  579MOL0     H78152   1.148  10.414   6.045 -0.6588 -3.2985  0.3150
  579MOL0     H78153   1.314  10.135   5.730  0.9908 -0.0493 -0.1467
  579MOL0     H78154   1.502  10.008   5.633  2.0985  0.3087  0.5771
  579MOL0     H78155   1.820  10.251   5.447  0.8725  1.3547 -0.9140
  579MOL0     H78156   1.871  10.099   5.392 -0.2544  0.4596 -1.2181
  579MOL0     H78157   1.781  10.236   5.193 -1.6211 -1.3041 -2.2090
  579MOL0     H78158   1.631  10.245   5.271 -1.2457 -1.5625 -0.0909
  579MOL0     H78159   1.614  10.071   5.110 -1.7058 -3.6128  0.2959
  579MOL0     H78160   1.620   9.990   5.268 -1.4765  1.0979  1.5315
  579MOL0     H78161   1.848  10.003   5.050  1.2226 -0.7162 -0.2340
  579MOL0     H78162   1.736   9.873   5.069  2.8493 -0.9280 -1.5569
  579MOL0     H78163   2.043   9.764   5.311 -0.0671 -0.6504 -0.8144
  579MOL0     H78164   1.640  10.392   5.474  0.3778 -0.2011 -0.1054
  579MOL0     H78165   1.447  10.504   5.553 -3.0054 -0.7612 -3.2860
  580MOL0     O78166   8.580   9.180   1.632 -0.1922  1.0692  0.4987
  580MOL0     C78167   8.679   9.150   1.692  0.2170 -0.0615  0.9804
  580MOL0     O78168   8.687   9.071   1.808 -0.8939  0.1042  0.0104
  580MOL0     C78169   8.560   9.049   1.858  0.5902  0.5822 -0.5084
  580MOL0     C78170   8.509   9.122   1.967 -0.1034 -0.1750 -0.4996
  580MOL0     C78171   8.381   9.111   2.018  0.2032  0.4457  1.1620
  580MOL0     C78172   8.307   9.004   1.963  0.0970 -0.0010  0.4053
  580MOL0     O78173   8.182   9.003   2.008  0.5371  0.6530 -0.0486
  580MOL0     C78174   8.146   8.877   2.075 -0.3753 -0.0060 -0.2809
  580MOL0     C78175   8.011   8.892   2.146  0.2921  0.2065 -0.4036
  580MOL0     C78176   7.893   8.934   2.054  0.5542 -0.0735  0.6048
  580MOL0     C78177   7.761   8.892   2.122  0.4572 -0.1930 -0.9021
  580MOL0     C78178   7.628   8.962   2.064 -0.2278 -0.2002 -0.1830
  580MOL0     C78179   7.628   9.120   2.055 -0.4933  0.6463  0.5580
  580MOL0     C78180   7.495   9.175   1.998  0.3249 -0.1128  0.1263
  580MOL0     C78181   7.478   9.330   2.008 -0.8827 -0.3100 -0.1099
  580MOL0     N78182   7.357   9.379   1.936  0.6015  0.4523  0.3262
  580MOL0     C78183   7.335   9.515   1.895  0.3605  0.2905  0.2624
  580MOL0     C78184   7.201   9.514   1.871  0.1173  0.3742  1.2419
  580MOL0     C78185   7.116   9.613   1.812  0.2427  0.1189  0.4671
  580MOL0     C78186   6.974   9.610   1.846  1.7508 -0.3216 -0.4539
  580MOL0     C78187   6.894   9.712   1.776 -0.4944  0.0299  0.5880
  580MOL0     C78188   6.753   9.706   1.840  0.0450  0.2446 -0.2623
  580MOL0     O78189   6.666   9.804   1.796  0.0846  0.6714 -0.0197
  580MOL0     C78190   6.537   9.806   1.832 -0.0068 -0.1427  0.1163
  580MOL0     C78191   6.469   9.710   1.905  0.6813  0.1060  0.0519
  580MOL0     C78192   6.328   9.715   1.937 -0.2319 -0.5648 -0.4109
  580MOL0     C78193   6.262   9.591   1.995  0.2000  0.6055  0.0930
  580MOL0     C78194   6.259   9.835   1.898  0.3262  0.0581 -0.2176
  580MOL0     C78195   6.124   9.868   1.948  0.7165  0.0982 -0.1277
  580MOL0     O78196   6.088  10.004   1.927  0.5320 -0.1565  0.6605
  580MOL0     C78197   5.973  10.040   1.994 -0.8622 -0.1395  0.4279
  580MOL0     C78198   5.865  10.088   1.922  0.0892  0.2663 -0.0012
  580MOL0     C78199   5.734  10.105   1.973 -0.0098  0.3600  0.8202
  580MOL0     C78200   5.717  10.090   2.108  0.3872 -0.2499 -0.2182
  580MOL0     O78201   5.594  10.115   2.179  0.0728  0.6192 -0.6336
  580MOL0     C78202   5.476  10.131   2.100  0.1400 -0.1732 -0.8090
  580MOL0     C78203   5.343  10.129   2.182 -0.5998 -0.1793 -0.4936
  580MOL0     C78204   5.223  10.104   2.095  0.1581  0.4204  0.8647
  580MOL0     C78205   5.092  10.097   2.169  0.3417  0.8400  1.1951
  580MOL0     C78206   4.974  10.079   2.080  0.2122 -0.2333 -0.3906
  580MOL0     C78207   4.853  10.079   2.155  0.4257  1.1221  0.5798
  580MOL0     C78208   4.729  10.086   2.064  0.4804  0.3011  0.6372
  580MOL0     C78209   4.710   9.961   1.972 -0.1968  0.3607 -0.6513
  580MOL0    Cl78210   4.538   9.977   1.921  0.0573 -0.0441 -0.1780
  580MOL0     C78211   5.827  10.058   2.184  0.3247 -0.4642 -0.0517
  580MOL0     C78212   5.953  10.031   2.127 -0.5218 -0.9284 -0.2113
  580MOL0     O78213   6.066   9.788   2.020  0.1638  0.2815 -0.0269
  580MOL0     C78214   6.334   9.937   1.824 -0.4500  0.4562  0.1174
  580MOL0     C78215   6.464   9.914   1.785  0.3956 -0.6244  0.3534
  580MOL0     N78216   7.143   9.389   1.892 -0.3447 -0.1750  0.6516
  580MOL0     N78217   7.236   9.307   1.925 -0.1955 -0.5760 -0.0924
  580MOL0     C78218   8.350   8.928   1.850  0.4590  0.3176  0.1202
  580MOL0     C78219   8.476   8.955   1.804  0.1335  0.2225  0.7398
  580MOL0     C78220   8.806   9.205   1.633  0.7306 -0.4979 -0.2503
  580MOL0     C78221   8.800   9.314   1.542 -0.4777 -0.2133  0.4961
  580MOL0     C78222   8.915   9.377   1.500 -0.2219  0.8221  0.1001
  580MOL0     C78223   9.041   9.330   1.544  0.4731 -0.4132 -1.1263
  580MOL0     O78224   9.160   9.385   1.496 -0.1944  1.0124 -0.5243
  580MOL0     C78225   9.168   9.514   1.443 -0.2401  0.8272  0.4208
  580MOL0     C78226   9.307   9.561   1.481 -0.4490  0.1532  0.2906
  580MOL0     C78227   9.308   9.632   1.620  0.3167 -0.3455  0.3275
  580MOL0     C78228   9.248   9.775   1.598  0.0919  0.8229  0.5222
  580MOL0     C78229   9.229   9.847   1.726 -0.0719 -0.4633 -0.5777
  580MOL0     C78230   9.210   9.893   1.834  0.4199 -0.0878 -0.3371
  580MOL0     C78231   9.047   9.227   1.643 -0.7341 -0.0340  0.3432
  580MOL0     C78232   8.931   9.156   1.682 -0.2770 -0.5457  0.6477
  580MOL0     H78233   8.581   9.198   1.996 -0.5798  0.6922 -1.5304
  580MOL0     H78234   8.332   9.168   2.096 -3.6081  2.2090 -2.1158
  580MOL0     H78235   8.125   8.794   2.007 -0.5849 -1.0590  1.0097
  580MOL0     H78236   8.223   8.841   2.144 -1.6143  1.4535  2.0086
  580MOL0     H78237   7.977   8.794   2.181 -1.6367  1.2745  0.8381
  580MOL0     H78238   8.006   8.971   2.220  0.9825  0.1666 -0.3083
  580MOL0     H78239   7.899   9.043   2.043 -0.6862 -0.2439 -3.9540
  580MOL0     H78240   7.899   8.898   1.951  1.5939 -0.5518  0.8187
  580MOL0     H78241   7.753   8.783   2.119  2.2423 -0.4179  0.7392
  580MOL0     H78242   7.760   8.925   2.227 -1.9550  0.4106 -1.0544
  580MOL0     H78243   7.612   8.922   1.963 -1.2514 -0.5814  0.1148
  580MOL0     H78244   7.545   8.924   2.126 -2.1052  0.6682 -2.0440
  580MOL0     H78245   7.635   9.161   2.156  0.7067  1.0296  0.3349
  580MOL0     H78246   7.717   9.146   1.997  1.7025 -0.4978  3.2278
  580MOL0     H78247   7.496   9.141   1.894 -3.1472 -2.0476  0.5718
  580MOL0     H78248   7.402   9.135   2.039  1.3144  0.5843  3.3088
  580MOL0     H78249   7.561   9.401   1.998  0.9141 -2.4462 -1.3685
  580MOL0     H78250   7.444   9.348   2.110 -1.7652  1.3836 -0.6509
  580MOL0     H78251   7.410   9.590   1.870 -1.8114  2.9825  1.3007
  580MOL0     H78252   7.144   9.712   1.849 -1.2780  0.7873 -0.0870
  580MOL0     H78253   7.133   9.599   1.704 -0.7695  3.8216 -0.3174
  580MOL0     H78254   6.964   9.637   1.952 -2.7161 -2.0895 -0.2131
  580MOL0     H78255   6.932   9.512   1.824 -2.1347  1.1901 -0.5109
  580MOL0     H78256   6.889   9.687   1.670  4.0479  1.8355 -0.2686
  580MOL0     H78257   6.937   9.812   1.789 -3.1447  1.1283  1.5321
  580MOL0     H78258   6.760   9.713   1.949 -0.3767  0.9489 -0.2799
  580MOL0     H78259   6.718   9.607   1.808  2.2436 -0.8727  0.5608
  580MOL0     H78260   6.528   9.630   1.949 -1.2391 -0.7816  1.1856
  580MOL0     H78261   6.335   9.510   2.005 -0.1967  0.2254 -0.0272
  580MOL0     H78262   6.213   9.616   2.089 -0.3809  0.9009 -0.2844
  580MOL0     H78263   6.183   9.561   1.925  2.3875  0.6602 -2.5562
  580MOL0     H78264   5.879  10.109   1.816  2.0066  2.8811  0.6614
  580MOL0     H78265   5.660  10.143   1.904  0.8306  1.2275  0.3805
  580MOL0     H78266   5.500  10.223   2.046  1.1780  0.1502  0.1586
  580MOL0     H78267   5.475  10.054   2.023  1.3515  1.2782 -2.3641
  580MOL0     H78268   5.356  10.069   2.272  2.1474 -2.7145 -2.3909
  580MOL0     H78269   5.325  10.235   2.202  0.4695 -0.2110  0.7381
  580MOL0     H78270   5.238  10.016   2.032 -0.3893  1.4636 -0.8193
  580MOL0     H78271   5.213  10.185   2.021  1.9453 -0.4726 -0.4211
  580MOL0     H78272   5.089  10.008   2.233  0.0262  1.5089  2.1283
  580MOL0     H78273   5.081  10.189   2.227 -0.4457  0.8256  1.0770
  580MOL0     H78274   4.975   9.983   2.028 -1.0226 -2.3338  3.0514
  580MOL0     H78275   4.983  10.159   2.006  2.6787  1.1690  1.2378
  580MOL0     H78276   4.851   9.988   2.215 -1.0782  0.2960 -0.6603
  580MOL0     H78277   4.843  10.163   2.224  0.6621  0.4258  1.4867
  580MOL0     H78278   4.724  10.176   2.003  0.3878 -0.1059  0.0321
  580MOL0     H78279   4.643  10.095   2.131 -0.5882  0.8618 -0.7508
  580MOL0     H78280   4.717   9.866   2.027  0.7801 -1.4686 -3.6633
  580MOL0     H78281   4.782   9.965   1.889  0.1556  1.5358 -0.3033
  580MOL0     H78282   5.823  10.056   2.293  3.1821 -2.8130  0.1409
  580MOL0     H78283   6.041   9.997   2.180 -1.8836 -3.1837  0.7088
  580MOL0     H78284   6.283  10.027   1.792  1.3314  0.9434 -1.5408
  580MOL0     H78285   6.517   9.993   1.733 -3.6597  2.6144  0.6154
  580MOL0     H78286   8.284   8.857   1.803 -0.3106  0.0340  1.5619
  580MOL0     H78287   8.509   8.888   1.725 -0.8532 -3.3255  3.0589
  580MOL0     H78288   8.703   9.356   1.517  0.3633 -0.6981 -4.8006
  580MOL0     H78289   8.903   9.465   1.437  1.1319  2.8473  2.4778
  580MOL0     H78290   9.147   9.507   1.335 -1.0719  0.0681  0.6181
  580MOL0     H78291   9.097   9.590   1.473 -1.6543 -0.9701  1.8550
  580MOL0     H78292   9.338   9.627   1.399 -1.6548  0.1784 -0.1805
  580MOL0     H78293   9.377   9.478   1.477 -3.9320 -3.1183  1.6754
  580MOL0     H78294   9.412   9.636   1.653  0.5503 -1.9897 -0.0715
  580MOL0     H78295   9.259   9.574   1.699  1.6450 -1.7190  0.1878
  580MOL0     H78296   9.152   9.768   1.547  0.1380  1.8637  0.2573
  580MOL0     H78297   9.319   9.833   1.538  0.2631 -0.4287 -0.5322
  580MOL0     H78298   9.201   9.938   1.930 -4.3312 -0.6158 -0.3073
  580MOL0     H78299   9.143   9.193   1.680 -1.3975  0.0784  2.2927
  580MOL0     H78300   8.930   9.064   1.740  1.7314 -1.1662 -0.2242
  581MOL0     O78301   9.241   7.397   8.305 -0.9026 -0.3247  0.3311
  581MOL0     C78302   9.300   7.431   8.410  0.1915 -0.4013  0.1740
  581MOL0     O78303   9.256   7.422   8.534 -0.1486  0.0224  0.6461
  581MOL0     C78304   9.120   7.386   8.541  0.4531 -0.2875 -0.9751
  581MOL0     C78305   9.013   7.442   8.461  0.1485  0.0913 -0.7131
  581MOL0     C78306   8.884   7.399   8.494  0.5399 -0.4735 -0.6880
  581MOL0     C78307   8.856   7.306   8.601 -0.9720  0.3075 -0.1447
  581MOL0     O78308   8.735   7.253   8.635 -0.2009 -1.3264 -0.1919
  581MOL0     C78309   8.619   7.332   8.629  0.3885 -0.6105 -0.5711
  581MOL0     C78310   8.503   7.237   8.634 -0.0851  0.6466  0.7111
  581MOL0     C78311   8.386   7.320   8.617 -0.2832 -0.0781 -0.1462
  581MOL0     C78312   8.269   7.229   8.635  0.4791  0.1723  0.3642
  581MOL0     C78313   8.152   7.313   8.685 -0.2136 -0.6827  0.3128
  581MOL0     C78314   8.025   7.239   8.653 -0.0000  0.0925 -0.1536
  581MOL0     C78315   7.892   7.308   8.684  1.1408 -0.2754  0.1859
  581MOL0     C78316   7.775   7.216   8.645  0.2271  0.0725 -0.2789
  581MOL0     N78317   7.746   7.120   8.749 -0.5409  0.6368 -0.5872
  581MOL0     C78318   7.782   6.990   8.754  0.4861  0.8884 -0.8350
  581MOL0     C78319   7.708   6.940   8.858 -0.0800 -0.2959  0.1285
  581MOL0     C78320   7.721   6.798   8.919 -0.4853  0.1068 -0.4254
  581MOL0     C78321   7.729   6.678   8.818  0.1986 -0.0579 -0.2347
  581MOL0     C78322   7.608   6.685   8.734  1.0586 -1.1814 -0.3665
  581MOL0     C78323   7.593   6.566   8.643 -0.3431 -0.6354  0.3213
  581MOL0     O78324   7.557   6.441   8.711  0.2173 -0.2465 -0.1642
  581MOL0     C78325   7.423   6.420   8.717 -0.2840  0.7107  0.9438
  581MOL0     C78326   7.391   6.277   8.741 -0.4291 -0.2130 -0.5171
  581MOL0     C78327   7.256   6.226   8.765  0.0436 -0.1290 -0.1351
  581MOL0     C78328   7.237   6.077   8.801 -0.7957  0.5461 -0.7172
  581MOL0     C78329   7.149   6.313   8.749 -0.4556 -0.6510 -0.0397
  581MOL0     C78330   7.006   6.287   8.744  0.4185 -0.0982  0.7665
  581MOL0     O78331   6.919   6.394   8.712  0.1380  0.1167  0.3299
  581MOL0     C78332   6.790   6.375   8.705 -0.2440 -0.3006  0.0004
  581MOL0     C78333   6.724   6.426   8.592  0.0519  0.0786  0.2931
  581MOL0     C78334   6.583   6.408   8.574  0.1293  0.6786  0.7038
  581MOL0     C78335   6.505   6.333   8.666 -0.2510  0.3748 -0.6817
  581MOL0     O78336   6.373   6.309   8.656  0.0504  0.6526  0.2422
  581MOL0     C78337   6.299   6.351   8.540 -0.3068  0.1193 -0.2989
  581MOL0     C78338   6.144   6.359   8.547  0.5664  0.1110 -0.3844
  581MOL0     C78339   6.073   6.358   8.419  0.3918  0.1141  1.1124
  581MOL0     C78340   5.918   6.366   8.442 -0.4858  0.0074 -0.7569
  581MOL0     C78341   5.846   6.318   8.317  0.1573  0.1378  0.1584
  581MOL0     C78342   5.695   6.306   8.341  0.0039 -0.6528  1.0494
  581MOL0     C78343   5.626   6.269   8.210 -0.4499 -0.4951  0.4530
  581MOL0     C78344   5.480   6.276   8.233  0.5826  0.9216 -0.0686
  581MOL0    Cl78345   5.416   6.211   8.389  0.1727 -0.7203 -0.2665
  581MOL0     C78346   6.573   6.281   8.779  0.6643 -0.1254 -0.2926
  581MOL0     C78347   6.711   6.304   8.801  0.0085 -0.0893  0.2737
  581MOL0     O78348   6.967   6.168   8.753  0.6865  0.2494  0.2698
  581MOL0     C78349   7.180   6.456   8.727  0.6624  0.1561 -0.3796
  581MOL0     C78350   7.313   6.507   8.702 -0.2676 -0.3985 -0.1668
  581MOL0     N78351   7.650   7.049   8.922 -0.9721  0.5154 -0.5507
  581MOL0     N78352   7.667   7.153   8.855 -0.3699 -0.0226 -0.9805
  581MOL0     C78353   8.959   7.252   8.672 -0.2085  0.2356  0.4229
  581MOL0     C78354   9.088   7.296   8.653 -0.0544 -0.2500  0.2630
  581MOL0     C78355   9.442   7.472   8.385  0.3122 -0.0662  0.5959
  581MOL0     C78356   9.506   7.531   8.492  0.0521 -0.9744 -0.2169
  581MOL0     C78357   9.637   7.581   8.475  0.0759 -0.8827  0.2114
  581MOL0     C78358   9.707   7.575   8.352  1.2294 -0.0301  0.9138
  581MOL0     O78359   9.834   7.614   8.335 -0.2627 -0.1795  0.3615
  581MOL0     C78360   9.902   7.605   8.200  0.7661  0.7013  0.5456
  581MOL0     C78361  10.035   7.679   8.202 -0.4214 -0.2003  0.0164
  581MOL0     C78362  10.146   7.575   8.230  0.3311 -0.6129 -0.7986
  581MOL0     C78363  10.291   7.620   8.193 -0.8313  0.0495 -0.4734
  581MOL0     C78364  10.341   7.717   8.289  0.1483 -0.3646 -0.5961
  581MOL0     C78365  10.368   7.798   8.371 -0.2447 -0.1690 -0.3057
  581MOL0     C78366   9.641   7.503   8.252  0.7929  0.6038  0.2685
  581MOL0     C78367   9.511   7.451   8.264  1.0591  0.2998 -0.1425
  581MOL0     H78368   9.032   7.522   8.390 -1.4181  0.1979 -1.0480
  581MOL0     H78369   8.804   7.433   8.429  2.9933  0.5838 -3.3184
  581MOL0     H78370   8.623   7.408   8.708 -0.6256 -1.6109  0.4767
  581MOL0     H78371   8.612   7.384   8.533 -0.4717 -1.4404 -0.9609
  581MOL0     H78372   8.506   7.163   8.554  0.3784  1.4267 -0.0170
  581MOL0     H78373   8.499   7.202   8.738  1.8159  2.8567  1.6142
  581MOL0     H78374   8.378   7.402   8.689 -0.7243 -1.3230  1.2724
  581MOL0     H78375   8.380   7.348   8.511 -1.5715 -1.3219 -0.4267
  581MOL0     H78376   8.254   7.179   8.539  0.3371 -2.2216  1.5752
  581MOL0     H78377   8.292   7.146   8.701 -1.4202 -0.6753  0.0294
  581MOL0     H78378   8.150   7.325   8.794 -2.8936  0.5846  0.1979
  581MOL0     H78379   8.157   7.415   8.644  1.6231  0.3764  2.8938
  581MOL0     H78380   8.026   7.209   8.548 -1.4845  0.5334 -0.3126
  581MOL0     H78381   8.037   7.144   8.706  2.0674  0.4815  0.1775
  581MOL0     H78382   7.888   7.340   8.789 -1.0492  1.5118 -0.3722
  581MOL0     H78383   7.887   7.391   8.614 -0.0372  0.0954  0.6823
  581MOL0     H78384   7.799   7.145   8.565 -1.9020 -2.3710  1.0977
  581MOL0     H78385   7.692   7.274   8.605  0.2959 -2.3966 -4.7181
  581MOL0     H78386   7.851   6.934   8.692 -0.8911  0.8162 -2.3396
  581MOL0     H78387   7.801   6.796   8.994 -1.1984  0.2386  0.3484
  581MOL0     H78388   7.631   6.779   8.978  0.4235 -2.2082  0.3018
  581MOL0     H78389   7.729   6.588   8.879  0.5406 -0.4326 -0.7865
  581MOL0     H78390   7.817   6.688   8.754  0.2317  1.7152  0.0362
  581MOL0     H78391   7.616   6.769   8.664  0.7746 -2.1454 -1.5986
  581MOL0     H78392   7.517   6.694   8.794 -0.2436  0.0760 -2.3969
  581MOL0     H78393   7.687   6.536   8.595 -0.2738 -0.3966  0.3027
  581MOL0     H78394   7.518   6.586   8.566 -0.8884 -1.7719  0.5316
  581MOL0     H78395   7.466   6.200   8.733  0.7618  1.0912 -3.7368
  581MOL0     H78396   7.174   6.056   8.888  0.5509 -3.7269 -0.5926
  581MOL0     H78397   7.201   6.022   8.713  2.6837  1.6753 -3.0608
  581MOL0     H78398   7.332   6.043   8.842 -1.7146  0.0642  1.1341
  581MOL0     H78399   6.782   6.472   8.511 -2.0972  2.1021 -0.2019
  581MOL0     H78400   6.547   6.446   8.479  2.9416  0.5672 -0.5055
  581MOL0     H78401   6.331   6.448   8.502  0.6347  1.0089  2.5266
  581MOL0     H78402   6.319   6.274   8.465 -1.1090  0.6327 -1.0574
  581MOL0     H78403   6.107   6.282   8.616 -1.4843  0.4038 -1.0893
  581MOL0     H78404   6.120   6.456   8.590  2.0852  0.3909 -0.1118
  581MOL0     H78405   6.091   6.264   8.366 -1.2785  0.5562 -0.3322
  581MOL0     H78406   6.098   6.444   8.357  0.9759  0.0824  1.2949
  581MOL0     H78407   5.884   6.299   8.522  1.5659 -2.3685 -1.7595
  581MOL0     H78408   5.887   6.467   8.472  0.2728  0.3846 -1.2199
  581MOL0     H78409   5.893   6.226   8.279  0.2826  0.6504 -0.9636
  581MOL0     H78410   5.860   6.392   8.238  1.7860  1.3183  1.4717
  581MOL0     H78411   5.669   6.232   8.417  1.7656 -1.1051  1.2509
  581MOL0     H78412   5.659   6.403   8.376 -2.4182 -1.0105 -0.1872
  581MOL0     H78413   5.657   6.168   8.183  1.2740 -0.0618  0.7117
  581MOL0     H78414   5.658   6.345   8.138 -2.9308 -0.8283 -1.1036
  581MOL0     H78415   5.437   6.212   8.156  2.8962 -1.4925  0.5082
  581MOL0     H78416   5.444   6.376   8.208 -2.7582 -0.4460 -1.2824
  581MOL0     H78417   6.520   6.208   8.839  1.2469  0.0905  0.5127
  581MOL0     H78418   6.763   6.260   8.886  1.1924  0.9349  0.1166
  581MOL0     H78419   7.095   6.522   8.713 -0.4535 -0.7941  1.5328
  581MOL0     H78420   7.322   6.604   8.654 -0.6316 -1.1461 -1.8044
  581MOL0     H78421   8.926   7.190   8.755 -3.1033  1.9786  0.7152
  581MOL0     H78422   9.168   7.267   8.719 -2.8168 -2.8979  2.7639
  581MOL0     H78423   9.463   7.530   8.591 -0.2358 -1.0214 -0.3417
  581MOL0     H78424   9.692   7.614   8.563  0.0996  4.6630 -1.4607
  581MOL0     H78425   9.905   7.502   8.163  1.1939  1.4039 -1.5478
  581MOL0     H78426   9.846   7.659   8.123  1.0372 -1.9559 -1.6894
  581MOL0     H78427  10.033   7.753   8.283  1.7018 -0.1185  0.0641
  581MOL0     H78428  10.050   7.727   8.105  0.5423 -1.3514 -0.4324
  581MOL0     H78429  10.125   7.489   8.165  1.4664 -1.7850  0.3073
  581MOL0     H78430  10.137   7.533   8.331 -0.7905 -3.1974 -1.8733
  581MOL0     H78431  10.306   7.664   8.094  1.9907  1.4773  0.4784
  581MOL0     H78432  10.357   7.534   8.200  0.2578  0.3955 -4.3854
  581MOL0     H78433  10.408   7.874   8.435  0.3626 -1.1239  0.4803
  581MOL0     H78434   9.681   7.489   8.152  1.4157  1.7966  0.3365
  581MOL0     H78435   9.457   7.402   8.183  0.4260 -1.1118  1.0778
  582MOL0     O78436   3.676   0.138  10.162 -0.3824 -0.6946 -0.1638
  582MOL0     C78437   3.797   0.114  10.173 -0.2094 -0.0559 -0.0161
  582MOL0     O78438   3.856   0.018  10.103 -0.0134 -0.3447 -0.0157
  582MOL0     C78439   3.776  -0.063  10.024 -0.1021  0.4097  0.7277
  582MOL0     C78440   3.804  -0.054   9.884  0.7430 -0.4485 -0.0943
  582MOL0     C78441   3.726  -0.122   9.793 -0.0412  0.0495  0.5863
  582MOL0     C78442   3.611  -0.192   9.841 -0.3973  0.7917  0.3284
  582MOL0     O78443   3.530  -0.276   9.775 -0.1845  0.0052  0.3923
  582MOL0     C78444   3.544  -0.314   9.635 -0.1380 -0.4943  0.4283
  582MOL0     C78445   3.437  -0.404   9.587  0.8909 -0.6797  0.4975
  582MOL0     C78446   3.297  -0.341   9.615 -0.5082 -0.3089 -0.0758
  582MOL0     C78447   3.191  -0.447   9.632 -0.1615  0.4744 -0.0857
  582MOL0     C78448   3.167  -0.523   9.508  0.0944  0.2568 -0.0443
  582MOL0     C78449   3.058  -0.620   9.518 -0.1218  0.8446 -0.7274
  582MOL0     C78450   3.045  -0.691   9.380  0.2564 -0.3313  0.1574
  582MOL0     C78451   3.138  -0.811   9.364 -0.0697  1.6131 -0.1417
  582MOL0     N78452   3.078  -0.934   9.435  1.3704  0.4511 -0.2912
  582MOL0     C78453   3.105  -0.987   9.559 -0.3671 -0.0006 -0.1831
  582MOL0     C78454   3.057  -1.119   9.555 -0.2745  0.6217 -0.1668
  582MOL0     C78455   3.077  -1.220   9.665  0.3847  0.2672  0.6571
  582MOL0     C78456   3.156  -1.176   9.788  0.7614 -0.2393 -0.1877
  582MOL0     C78457   3.172  -1.286   9.898  0.1394 -0.7779  0.0009
  582MOL0     C78458   3.044  -1.340   9.955 -0.3571 -0.1555 -0.9776
  582MOL0     O78459   2.956  -1.246  10.021 -0.0813  0.6071  0.5109
  582MOL0     C78460   2.826  -1.273  10.003 -0.1818 -0.2747 -0.2761
  582MOL0     C78461   2.756  -1.382   9.947  0.3430  0.1052 -0.3838
  582MOL0     C78462   2.616  -1.366   9.919  0.7174 -0.7294 -0.4388
  582MOL0     C78463   2.552  -1.485   9.843  0.6012 -0.8231  1.0142
  582MOL0     C78464   2.546  -1.251   9.968  0.4862  0.2155 -0.9781
  582MOL0     C78465   2.401  -1.226   9.949 -0.9260  0.6455 -0.1858
  582MOL0     O78466   2.354  -1.100   9.955 -0.1666 -0.3483  0.2138
  582MOL0     C78467   2.213  -1.082   9.944  0.0888  0.7058 -0.6202
  582MOL0     C78468   2.137  -1.074  10.064  0.7195  0.1305  0.2800
  582MOL0     C78469   1.992  -1.056  10.053 -0.0556  0.5359 -0.6471
  582MOL0     C78470   1.937  -1.030   9.933  0.3127  0.7367 -0.0128
  582MOL0     O78471   1.801  -1.020   9.924  0.1133  0.4878 -0.2865
  582MOL0     C78472   1.736  -0.927   9.847 -0.6366  0.1935 -0.2672
  582MOL0     C78473   1.600  -0.905   9.879  0.5091 -0.4930 -0.0650
  582MOL0     C78474   1.543  -0.782   9.797  0.1641 -0.0544 -0.2382
  582MOL0     C78475   1.406  -0.756   9.852  0.5899 -0.3137  0.5078
  582MOL0     C78476   1.301  -0.677   9.770  0.6199 -0.2617 -0.5007
  582MOL0     C78477   1.171  -0.688   9.843 -0.7952 -0.8252  0.5211
  582MOL0     C78478   1.072  -0.595   9.784  0.5775 -0.1044 -0.5591
  582MOL0     C78479   0.918  -0.648   9.789  0.1720 -0.8193 -0.0429
  582MOL0    Cl78480   0.885  -0.638   9.969 -0.0054 -0.0315 -0.0413
  582MOL0     C78481   2.017  -1.021   9.817  0.7826  0.6282  0.1108
  582MOL0     C78482   2.149  -1.054   9.823  0.8402  0.6247  0.8049
  582MOL0     O78483   2.331  -1.323   9.918 -0.1269  0.9447  0.4326
  582MOL0     C78484   2.616  -1.146  10.025 -0.7537 -0.3924  0.3776
  582MOL0     C78485   2.754  -1.161  10.045 -0.6472 -0.0076  0.3436
  582MOL0     N78486   3.004  -1.149   9.429  0.1306  0.2106 -0.3132
  582MOL0     N78487   3.027  -1.039   9.362 -0.0514  0.2174  0.9791
  582MOL0     C78488   3.580  -0.195   9.980 -0.3790 -0.1675 -0.9645
  582MOL0     C78489   3.667  -0.137  10.078  0.6785 -0.1461  0.6735
  582MOL0     C78490   3.878   0.195  10.274 -0.5632 -1.0066 -0.1741
  582MOL0     C78491   4.013   0.174  10.277 -0.7197  0.4376  0.1703
  582MOL0     C78492   4.096   0.252  10.360 -0.3277  0.7415 -1.5126
  582MOL0     C78493   4.037   0.351  10.455  0.1935 -0.4497  1.0190
  582MOL0     O78494   4.116   0.434  10.532 -0.0634 -0.3714  0.0863
  582MOL0     C78495   4.258   0.422  10.540 -0.0107  0.7530 -0.6798
  582MOL0     C78496   4.320   0.512  10.644 -0.5185 -0.9387  0.5321
  582MOL0     C78497   4.269   0.490  10.795 -0.0170  1.0087 -0.3181
  582MOL0     C78498   4.182   0.606  10.851  0.3817  0.8289  0.4689
  582MOL0     C78499   4.270   0.725  10.879 -0.0229 -0.1778 -0.0837
  582MOL0     C78500   4.338   0.818  10.910 -0.5459 -0.6575  0.4728
  582MOL0     C78501   3.896   0.363  10.446  0.4371  0.3583 -0.3879
  582MOL0     C78502   3.817   0.286  10.365  0.6584  0.4145  0.1458
  582MOL0     H78503   3.881   0.005   9.836 -1.0408 -0.4302 -3.2022
  582MOL0     H78504   3.759  -0.121   9.690 -2.2133 -3.7919 -0.3392
  582MOL0     H78505   3.542  -0.220   9.580 -2.2958 -1.9212 -2.2083
  582MOL0     H78506   3.641  -0.357   9.608  0.5907  2.2362 -1.8405
  582MOL0     H78507   3.438  -0.426   9.480 -4.2782  2.0799 -0.4734
  582MOL0     H78508   3.443  -0.503   9.633  0.9904 -1.2505 -0.7049
  582MOL0     H78509   3.291  -0.269   9.697  1.2706 -1.9439  1.5957
  582MOL0     H78510   3.266  -0.285   9.526 -1.6624  0.9256  1.0653
  582MOL0     H78511   3.210  -0.528   9.704  1.5332 -0.6456 -1.7032
  582MOL0     H78512   3.095  -0.400   9.656 -0.2676 -0.0339  0.5238
  582MOL0     H78513   3.131  -0.453   9.432 -1.3515  0.3524  0.7123
  582MOL0     H78514   3.266  -0.559   9.477  0.4057 -1.4103  2.6210
  582MOL0     H78515   3.088  -0.687   9.599  0.4143  0.0649 -1.5578
  582MOL0     H78516   2.965  -0.571   9.549  0.9229  3.2021 -1.1126
  582MOL0     H78517   2.950  -0.744   9.381 -0.0411  0.1787 -0.4863
  582MOL0     H78518   3.053  -0.617   9.300  2.2152 -0.8411 -0.1723
  582MOL0     H78519   3.239  -0.784   9.395 -0.8611  1.7900  2.5944
  582MOL0     H78520   3.137  -0.844   9.260 -4.2587 -2.9988  0.9248
  582MOL0     H78521   3.164  -0.943   9.639  1.9557 -0.6143 -1.4657
  582MOL0     H78522   2.982  -1.254   9.707  1.5495  0.6593  3.8473
  582MOL0     H78523   3.116  -1.313   9.621  1.5177  1.2746 -0.5586
  582MOL0     H78524   3.105  -1.087   9.826  0.9129 -0.3458  0.2662
  582MOL0     H78525   3.260  -1.147   9.767  1.2041 -1.1758  0.6310
  582MOL0     H78526   3.230  -1.245   9.981 -0.0582 -0.3195 -0.0842
  582MOL0     H78527   3.222  -1.377   9.862  1.1440  0.7678 -2.8074
  582MOL0     H78528   3.047  -1.428  10.020 -0.9694 -0.8314 -1.8492
  582MOL0     H78529   3.005  -1.391   9.868 -0.0522 -2.8059  0.3433
  582MOL0     H78530   2.797  -1.474   9.906  1.2368  0.6172 -0.6422
  582MOL0     H78531   2.503  -1.444   9.755  1.7791  0.4966  0.9426
  582MOL0     H78532   2.624  -1.563   9.817  1.3564 -0.3943  1.7493
  582MOL0     H78533   2.472  -1.533   9.899 -2.2171  0.1086 -1.9333
  582MOL0     H78534   2.192  -1.080  10.157  0.1768  0.4177  0.6213
  582MOL0     H78535   1.935  -1.056  10.145 -0.4773 -0.0408 -0.9028
  582MOL0     H78536   1.786  -0.831   9.863  2.7279 -1.2187 -1.4338
  582MOL0     H78537   1.745  -0.957   9.742 -0.7064 -0.3612 -0.1154
  582MOL0     H78538   1.532  -0.987   9.854 -1.9224  1.6755 -1.0020
  582MOL0     H78539   1.582  -0.884   9.985 -2.1378  1.8143 -0.8808
  582MOL0     H78540   1.533  -0.798   9.690  1.9850  1.4319 -0.6756
  582MOL0     H78541   1.601  -0.690   9.814  0.1686  0.3827 -2.4325
  582MOL0     H78542   1.368  -0.859   9.859  1.0941 -0.5287  0.1695
  582MOL0     H78543   1.412  -0.719   9.954  1.3138 -1.3917  0.8643
  582MOL0     H78544   1.297  -0.696   9.662  1.0327  0.5216 -0.6628
  582MOL0     H78545   1.330  -0.571   9.771 -1.4169  0.4476 -3.4301
  582MOL0     H78546   1.126  -0.787   9.830 -2.8961  0.3093 -1.6881
  582MOL0     H78547   1.179  -0.664   9.950 -1.4780 -0.5726  0.5201
  582MOL0     H78548   1.090  -0.583   9.677 -1.8132  1.9845 -0.8332
  582MOL0     H78549   1.065  -0.494   9.827 -1.0502 -0.7452  0.8117
  582MOL0     H78550   0.893  -0.747   9.749 -3.7381  0.4170 -1.1995
  582MOL0     H78551   0.859  -0.575   9.732 -1.2300  1.1439  3.5942
  582MOL0     H78552   1.970  -1.001   9.721 -3.0251  0.3724  1.7579
  582MOL0     H78553   2.205  -1.057   9.730  0.6306 -2.3949  0.6592
  582MOL0     H78554   2.575  -1.048  10.048  2.6475  0.6007  3.1675
  582MOL0     H78555   2.807  -1.071  10.076  1.7937 -1.1218 -0.3259
  582MOL0     H78556   3.500  -0.253  10.024  0.2445  0.4245  1.0386
  582MOL0     H78557   3.652  -0.145  10.185 -2.6838  2.1849  0.5341
  582MOL0     H78558   4.074   0.114  10.210  1.7697  2.1367  0.7782
  582MOL0     H78559   4.205   0.248  10.358 -0.2220  1.2370  0.4203
  582MOL0     H78560   4.281   0.323  10.580  1.3116  0.3874 -2.2312
  582MOL0     H78561   4.307   0.433  10.442  0.9559 -1.3794 -0.5037
  582MOL0     H78562   4.309   0.616  10.614 -2.3305 -1.0843  0.5809
  582MOL0     H78563   4.425   0.483  10.639  0.2012  1.1940  2.0766
  582MOL0     H78564   4.352   0.480  10.865 -0.4512  2.4895  0.4471
  582MOL0     H78565   4.209   0.399  10.799  2.1313 -0.4483  0.9534
  582MOL0     H78566   4.118   0.566  10.930 -0.9675  0.4635 -0.7656
  582MOL0     H78567   4.105   0.635  10.779 -2.0439 -1.5832  1.8857
  582MOL0     H78568   4.396   0.902  10.943  0.1779 -1.2797  0.8202
  582MOL0     H78569   3.836   0.428  10.509 -0.9775 -1.4484  0.2227
  582MOL0     H78570   3.709   0.283  10.372  0.6945 -2.7808  0.7847
  583MOL0     O78571   3.545   1.164   1.800  0.7563 -0.4373  0.0936
  583MOL0     C78572   3.626   1.152   1.706  0.8627 -0.1645 -0.7214
  583MOL0     O78573   3.591   1.121   1.578  0.5063 -0.4278  0.2414
  583MOL0     C78574   3.458   1.131   1.551 -0.5031 -0.0936  0.6964
  583MOL0     C78575   3.376   1.019   1.581 -0.6595 -0.4329 -0.5279
  583MOL0     C78576   3.238   1.027   1.557  0.0502 -0.6366  0.1197
  583MOL0     C78577   3.176   1.140   1.515 -0.0267  0.0835 -0.6111
  583MOL0     O78578   3.039   1.144   1.497 -0.6966  0.2835 -0.3798
  583MOL0     C78579   2.980   1.258   1.445 -0.5325  0.1839 -0.4360
  583MOL0     C78580   2.829   1.235   1.479 -0.8338 -0.1457  0.1000
  583MOL0     C78581   2.748   1.360   1.468  0.5687 -0.4744  0.6877
  583MOL0     C78582   2.599   1.325   1.452 -0.5032 -0.4772  0.3359
  583MOL0     C78583   2.500   1.438   1.453 -0.2552 -0.5236 -0.2986
  583MOL0     C78584   2.354   1.376   1.463  0.3823 -0.1327  0.5316
  583MOL0     C78585   2.246   1.483   1.484  0.2816  0.4300  0.7856
  583MOL0     C78586   2.120   1.406   1.513 -0.0653  0.7035  0.4332
  583MOL0     N78587   2.124   1.360   1.656 -0.8830 -0.6042 -0.1761
  583MOL0     C78588   2.105   1.440   1.768  0.0127 -0.0522  0.7312
  583MOL0     C78589   2.098   1.357   1.873  0.1657  0.8289  0.0042
  583MOL0     C78590   2.068   1.386   2.023  0.1469  0.6795  0.2706
  583MOL0     C78591   1.921   1.402   2.045  0.3281  0.6989  0.3642
  583MOL0     C78592   1.882   1.546   2.027 -0.8567 -0.6989  0.2956
  583MOL0     C78593   1.735   1.560   2.032  0.1709 -0.6124 -0.6666
  583MOL0     O78594   1.694   1.525   2.172 -0.6979 -0.5226 -0.0708
  583MOL0     C78595   1.561   1.507   2.191 -0.1942  0.7373  0.3324
  583MOL0     C78596   1.457   1.537   2.098 -0.4063 -0.4454 -0.5201
  583MOL0     C78597   1.325   1.508   2.132  0.1571  0.4558  0.1995
  583MOL0     C78598   1.218   1.534   2.019 -0.4222  0.4318  0.2439
  583MOL0     C78599   1.293   1.454   2.256  0.3610 -0.1134 -0.6776
  583MOL0     C78600   1.145   1.430   2.288  0.5107  0.8127 -0.0916
  583MOL0     O78601   1.104   1.484   2.407 -0.2346  0.3078 -0.1418
  583MOL0     C78602   0.992   1.433   2.474 -0.4045  0.6815 -0.1077
  583MOL0     C78603   1.022   1.399   2.601  0.7968 -1.0256  1.0249
  583MOL0     C78604   0.927   1.344   2.683  0.1574  0.4903 -0.3440
  583MOL0     C78605   0.793   1.333   2.642 -0.2216 -1.0290  0.1119
  583MOL0     O78606   0.696   1.286   2.728 -0.2948 -0.3775 -0.8691
  583MOL0     C78607   0.672   1.147   2.743 -0.3915 -1.0106 -0.3356
  583MOL0     C78608   0.551   1.142   2.836 -0.1552  0.4835  0.7395
  583MOL0     C78609   0.450   1.262   2.838  0.2591 -0.0002 -0.0029
  583MOL0     C78610   0.319   1.239   2.917  0.8241  0.1650 -0.6252
  583MOL0     C78611   0.225   1.354   2.913  0.0025 -0.4141  0.2880
  583MOL0     C78612   0.121   1.336   3.025 -0.5039  1.0355 -0.2823
  583MOL0     C78613   0.001   1.248   2.993  1.1697  0.4871  0.4937
  583MOL0     C78614  -0.103   1.308   2.894  0.2694  0.6490  0.3172
  583MOL0    Cl78615  -0.258   1.213   2.890 -0.3741  0.0186 -0.1618
  583MOL0     C78616   0.762   1.365   2.508  0.2222  0.7621 -0.0693
  583MOL0     C78617   0.865   1.410   2.422  0.2268  0.2540 -0.0804
  583MOL0     O78618   1.076   1.351   2.221 -1.0922 -0.5605 -0.3740
  583MOL0     C78619   1.400   1.432   2.353  0.1436  0.3945 -0.7517
  583MOL0     C78620   1.533   1.454   2.306  0.0574  0.2269 -0.9179
  583MOL0     N78621   2.111   1.230   1.823 -0.6272 -0.5673  0.1797
  583MOL0     N78622   2.131   1.233   1.696  0.8655 -1.0408 -0.2005
  583MOL0     C78623   3.258   1.251   1.486 -0.5451 -0.0193  0.0678
  583MOL0     C78624   3.396   1.245   1.503 -0.8483 -0.0688 -0.0281
  583MOL0     C78625   3.773   1.142   1.731 -0.0246 -0.6516 -0.0729
  583MOL0     C78626   3.827   1.140   1.855 -0.8611  0.8054 -0.9594
  583MOL0     C78627   3.966   1.141   1.875  0.2235  0.2006 -0.2048
  583MOL0     C78628   4.052   1.162   1.775  1.1173  0.7240  0.6762
  583MOL0     O78629   4.180   1.169   1.811  0.7062  0.3179 -0.0903
  583MOL0     C78630   4.271   1.207   1.711 -0.5656 -0.2365  0.4756
  583MOL0     C78631   4.411   1.189   1.769 -0.2564 -0.1153  0.5252
  583MOL0     C78632   4.444   1.287   1.881 -0.1517 -0.6056 -0.2838
  583MOL0     C78633   4.471   1.215   2.015 -0.2971  0.7418  0.5044
  583MOL0     C78634   4.494   1.307   2.126 -0.2870  0.1996  0.5093
  583MOL0     C78635   4.532   1.376   2.216 -0.4527  0.0644  0.4434
  583MOL0     C78636   4.001   1.162   1.644  0.3955  0.0207  0.1974
  583MOL0     C78637   3.865   1.148   1.621  0.0142 -0.9756  0.3961
  583MOL0     H78638   3.428   0.930   1.614  1.6417  1.6962  2.1326
  583MOL0     H78639   3.169   0.945   1.575 -1.3198  0.1435 -1.3181
  583MOL0     H78640   3.013   1.340   1.509 -0.0282 -0.3050 -0.0582
  583MOL0     H78641   2.999   1.273   1.338  1.6721  2.6285  0.2134
  583MOL0     H78642   2.798   1.151   1.416 -0.2136 -1.7752  1.8548
  583MOL0     H78643   2.829   1.201   1.584  1.7569 -0.9125 -0.0895
  583MOL0     H78644   2.760   1.431   1.551  2.4087  0.8267 -0.6076
  583MOL0     H78645   2.776   1.415   1.377 -1.6679  2.7340  1.7701
  583MOL0     H78646   2.599   1.268   1.358  1.4027  2.0586 -1.3554
  583MOL0     H78647   2.569   1.262   1.536 -1.6721 -1.0259 -0.4710
  583MOL0     H78648   2.515   1.488   1.549  0.8621  1.3147 -1.3605
  583MOL0     H78649   2.515   1.508   1.370  1.6160  1.0280  1.2479
  583MOL0     H78650   2.336   1.318   1.372 -1.1892  1.3543 -0.1547
  583MOL0     H78651   2.356   1.296   1.538  0.6817 -1.5825 -0.9576
  583MOL0     H78652   2.268   1.546   1.570  0.8428  1.1303  0.1364
  583MOL0     H78653   2.234   1.538   1.390  0.3493 -0.4350  0.2583
  583MOL0     H78654   2.111   1.321   1.445 -0.4418 -1.0305  2.5323
  583MOL0     H78655   2.032   1.471   1.504 -1.4619 -1.0116  1.1250
  583MOL0     H78656   2.090   1.547   1.758 -2.8414 -0.6089 -4.3208
  583MOL0     H78657   2.088   1.295   2.080 -0.4683  0.0886 -0.4354
  583MOL0     H78658   2.125   1.464   2.074 -2.7137  3.4106 -0.4034
  583MOL0     H78659   1.880   1.358   2.137  0.9922 -2.2370 -0.6239
  583MOL0     H78660   1.871   1.349   1.963 -1.7893  2.0511  0.6944
  583MOL0     H78661   1.916   1.586   1.931  0.1149  1.2711  1.4052
  583MOL0     H78662   1.932   1.610   2.101  1.6299 -2.5221  0.3369
  583MOL0     H78663   1.694   1.489   1.960 -2.2562  0.9975 -0.9580
  583MOL0     H78664   1.707   1.663   2.006  0.8598 -0.4674 -0.8631
  583MOL0     H78665   1.467   1.589   2.003 -2.5016  3.9869  1.3664
  583MOL0     H78666   1.186   1.436   1.982 -1.5616  1.0510 -0.4582
  583MOL0     H78667   1.127   1.584   2.054  0.9123  3.3008 -0.1202
  583MOL0     H78668   1.258   1.588   1.933 -1.0526  1.8877  0.8226
  583MOL0     H78669   1.122   1.405   2.643  0.5937 -0.3714  1.4320
  583MOL0     H78670   0.940   1.311   2.786  1.4695  0.8971 -0.3697
  583MOL0     H78671   0.655   1.099   2.646 -1.0016 -0.4664 -0.5092
  583MOL0     H78672   0.758   1.091   2.779  0.4109 -0.0771 -0.7545
  583MOL0     H78673   0.502   1.045   2.825 -2.7681  1.8781 -1.0863
  583MOL0     H78674   0.592   1.138   2.937  1.0137  0.7752  0.2854
  583MOL0     H78675   0.430   1.302   2.738  1.0465 -2.6755 -1.3174
  583MOL0     H78676   0.502   1.344   2.888  1.5576  0.8439 -2.5466
  583MOL0     H78677   0.266   1.150   2.881 -0.8755  0.6400  0.5977
  583MOL0     H78678   0.351   1.224   3.021 -1.9554  2.5935  0.7144
  583MOL0     H78679   0.185   1.367   2.812 -1.7136 -1.0437  0.8519
  583MOL0     H78680   0.285   1.442   2.938  1.3847 -0.8666 -1.2499
  583MOL0     H78681   0.173   1.307   3.117  3.6853 -0.1785 -2.7891
  583MOL0     H78682   0.086   1.436   3.051  0.4247  0.5406  3.4132
  583MOL0     H78683  -0.057   1.220   3.081 -1.6689  1.7896 -0.8411
  583MOL0     H78684   0.037   1.150   2.958 -3.5320 -2.0445  1.8914
  583MOL0     H78685  -0.066   1.313   2.791  0.9423  1.7928  0.5971
  583MOL0     H78686  -0.127   1.412   2.919  0.7165  0.9073 -0.2775
  583MOL0     H78687   0.661   1.347   2.473  0.1790  1.1591 -0.1476
  583MOL0     H78688   0.854   1.441   2.319  2.1966 -2.7957 -1.3554
  583MOL0     H78689   1.394   1.386   2.451 -0.0151 -0.9685 -1.3756
  583MOL0     H78690   1.614   1.429   2.374 -1.2254  3.1637  1.9256
  583MOL0     H78691   3.223   1.342   1.438  2.5658  0.0121 -2.4491
  583MOL0     H78692   3.460   1.328   1.476  0.5586 -1.4586 -1.1690
  583MOL0     H78693   3.756   1.145   1.937  1.9288  1.4020  1.5638
  583MOL0     H78694   3.993   1.120   1.978  0.3318 -2.5067 -0.7185
  583MOL0     H78695   4.263   1.137   1.628  3.0532  0.4759 -0.6551
  583MOL0     H78696   4.259   1.314   1.690  2.2553  0.6775  2.8332
  583MOL0     H78697   4.485   1.206   1.690  1.2771  0.5336  2.0252
  583MOL0     H78698   4.421   1.090   1.815 -1.1371 -0.9005 -0.9395
  583MOL0     H78699   4.356   1.350   1.898  3.0744  4.0762  0.9821
  583MOL0     H78700   4.517   1.365   1.859 -0.7130 -0.3007 -1.1142
  583MOL0     H78701   4.556   1.146   2.012 -0.8145  0.0148  1.7918
  583MOL0     H78702   4.384   1.153   2.035 -0.3410  0.9289  0.9165
  583MOL0     H78703   4.551   1.420   2.313 -1.4720 -3.9614  2.6730
  583MOL0     H78704   4.070   1.172   1.561 -1.9453  4.5595 -1.5890
  583MOL0     H78705   3.828   1.135   1.520  0.2835 -0.4056  0.2202
  584MOL0     O78706   3.585   0.926   7.357 -0.3162 -0.6465  0.1813
  584MOL0     C78707   3.634   0.864   7.264 -0.1104  0.0189 -0.0664
  584MOL0     O78708   3.612   0.730   7.238 -0.3114  1.1050 -0.3446
  584MOL0     C78709   3.505   0.679   7.316  0.7698  0.4573  0.5785
  584MOL0     C78710   3.518   0.621   7.439  0.1022  0.6776 -0.3137
  584MOL0     C78711   3.415   0.544   7.502 -0.1355 -0.4273 -0.2297
  584MOL0     C78712   3.292   0.527   7.448  0.2031  0.5075  0.3990
  584MOL0     O78713   3.197   0.446   7.511 -0.2784  0.1124  0.0310
  584MOL0     C78714   3.065   0.482   7.483 -0.5620 -0.0703 -0.3297
  584MOL0     C78715   2.980   0.425   7.606  0.5561 -0.3280  0.3825
  584MOL0     C78716   2.860   0.515   7.633  0.5043  0.3921 -0.6361
  584MOL0     C78717   2.768   0.446   7.734  0.0677 -0.2114 -0.5053
  584MOL0     C78718   2.639   0.523   7.758  0.0292  0.2152  0.4966
  584MOL0     C78719   2.518   0.450   7.700  0.1015  0.5236  0.0415
  584MOL0     C78720   2.459   0.341   7.794  0.3828 -0.1947  0.1275
  584MOL0     C78721   2.390   0.376   7.928  1.2112  0.2726 -0.8928
  584MOL0     N78722   2.259   0.441   7.902  0.2637  0.4145  0.3994
  584MOL0     C78723   2.238   0.577   7.898  0.6064  0.4706 -0.0728
  584MOL0     C78724   2.112   0.584   7.858  0.5329  0.0868 -0.5807
  584MOL0     C78725   2.028   0.710   7.845 -0.3850  0.0734  0.7344
  584MOL0     C78726   2.011   0.807   7.967 -1.2056  0.6493 -0.2566
  584MOL0     C78727   1.888   0.892   7.972 -0.0600 -0.5491 -0.0105
  584MOL0     C78728   1.897   1.004   8.081 -0.4161  0.5334  0.0709
  584MOL0     O78729   1.988   1.109   8.039  0.5168  0.3922  0.0018
  584MOL0     C78730   1.927   1.220   8.002 -0.2076 -0.4859 -0.2834
  584MOL0     C78731   1.934   1.325   8.088 -1.0410 -0.7772  0.3627
  584MOL0     C78732   1.849   1.440   8.072 -0.1075  0.1271  0.4719
  584MOL0     C78733   1.846   1.545   8.175  0.7376  0.4089 -0.5752
  584MOL0     C78734   1.771   1.448   7.955 -0.8693  0.2466  0.2124
  584MOL0     C78735   1.667   1.544   7.942 -0.6105 -0.3483  1.1498
  584MOL0     O78736   1.675   1.630   7.827 -0.2576  0.2317  0.5226
  584MOL0     C78737   1.564   1.699   7.802  0.4007  0.1735 -0.3568
  584MOL0     C78738   1.557   1.838   7.843 -0.2759  0.4061 -0.7605
  584MOL0     C78739   1.441   1.908   7.810  0.3209 -0.0375 -0.1674
  584MOL0     C78740   1.318   1.851   7.756 -0.3205 -0.1383 -1.4460
  584MOL0     O78741   1.195   1.922   7.737  0.8019  0.4426 -0.2676
  584MOL0     C78742   1.156   2.032   7.823 -1.0103  0.6803 -0.1542
  584MOL0     C78743   1.211   2.168   7.765  0.1452 -0.0504 -0.5056
  584MOL0     C78744   1.138   2.200   7.637 -0.0979  0.6654  0.0817
  584MOL0     C78745   1.182   2.333   7.577 -0.5854 -0.1248  0.2802
  584MOL0     C78746   1.090   2.379   7.467 -0.2302  0.0110  0.4691
  584MOL0     C78747   1.147   2.510   7.392 -0.2274  0.7364  0.5089
  584MOL0     C78748   1.058   2.530   7.273 -0.5714 -0.3633 -0.0686
  584MOL0     C78749   1.093   2.663   7.204  0.6042  0.1818 -0.9191
  584MOL0    Cl78750   0.992   2.682   7.051 -0.2663  0.5823 -0.1175
  584MOL0     C78751   1.325   1.712   7.733 -0.3771 -0.0793 -0.7782
  584MOL0     C78752   1.446   1.636   7.752  0.2754 -0.1358 -0.5146
  584MOL0     O78753   1.580   1.550   8.024  0.2660  0.0175 -0.1980
  584MOL0     C78754   1.781   1.345   7.856  0.3305  0.4790 -0.4720
  584MOL0     C78755   1.849   1.234   7.882  0.0478 -0.8033 -0.5174
  584MOL0     N78756   2.062   0.462   7.840  0.3973 -0.0849 -0.1232
  584MOL0     N78757   2.148   0.373   7.866  0.2135 -0.3402  0.0783
  584MOL0     C78758   3.274   0.584   7.322  0.1093  0.5242  0.4947
  584MOL0     C78759   3.373   0.657   7.256  0.0136 -0.2474 -0.2005
  584MOL0     C78760   3.699   0.943   7.156  0.3233 -0.2052  0.3223
  584MOL0     C78761   3.740   0.874   7.039  0.6902  0.3133 -1.1053
  584MOL0     C78762   3.809   0.942   6.942 -0.1711  0.2232 -0.1570
  584MOL0     C78763   3.838   1.072   6.949 -0.9140  0.0592  0.8991
  584MOL0     O78764   3.899   1.128   6.837  0.7240 -0.3233  0.9792
  584MOL0     C78765   3.920   1.276   6.834 -0.4696  0.4330 -0.9472
  584MOL0     C78766   3.786   1.343   6.784 -0.4494  0.0040  0.6500
  584MOL0     C78767   3.704   1.259   6.684  0.3439 -0.1233  0.1711
  584MOL0     C78768   3.568   1.329   6.634 -1.1411  0.3568 -0.2695
  584MOL0     C78769   3.453   1.317   6.722  0.3168  0.2287 -0.2887
  584MOL0     C78770   3.363   1.293   6.798 -0.1361 -0.1436  1.0650
  584MOL0     C78771   3.785   1.143   7.054  0.4392 -0.2594 -0.5191
  584MOL0     C78772   3.714   1.077   7.155 -0.3227 -0.0743 -0.1811
  584MOL0     H78773   3.612   0.615   7.494 -2.2827 -1.0634  4.0537
  584MOL0     H78774   3.424   0.514   7.606 -1.5609 -0.4056 -0.0815
  584MOL0     H78775   3.057   0.591   7.487  0.6825  0.0080  0.7119
  584MOL0     H78776   3.035   0.449   7.383  0.2373 -2.1718  0.0657
  584MOL0     H78777   2.935   0.327   7.592 -0.0789 -0.3399  2.2286
  584MOL0     H78778   3.036   0.417   7.700 -1.3508 -1.0657  1.5175
  584MOL0     H78779   2.893   0.612   7.671  0.3735 -0.1335  0.8841
  584MOL0     H78780   2.810   0.533   7.538 -0.3812  0.0780 -0.2326
  584MOL0     H78781   2.750   0.343   7.702  0.0442  0.6692 -3.6618
  584MOL0     H78782   2.821   0.444   7.830  0.5457 -1.9879 -0.7683
  584MOL0     H78783   2.638   0.532   7.867  1.8176  1.7871  0.4381
  584MOL0     H78784   2.641   0.622   7.712  1.1423 -0.3177 -0.6593
  584MOL0     H78785   2.435   0.521   7.697  0.3436  0.8812  1.1114
  584MOL0     H78786   2.545   0.409   7.602  0.3185  0.1261  0.2623
  584MOL0     H78787   2.385   0.290   7.730 -1.4914  1.8932  0.5229
  584MOL0     H78788   2.531   0.260   7.808  0.5517  0.1467  1.3371
  584MOL0     H78789   2.450   0.442   7.990  0.0828  2.0771 -1.6230
  584MOL0     H78790   2.373   0.282   7.981 -1.4699  1.8716  1.3793
  584MOL0     H78791   2.311   0.652   7.926  2.5629 -1.3386 -0.0747
  584MOL0     H78792   2.081   0.750   7.758  3.3098 -3.2822  1.1370
  584MOL0     H78793   1.934   0.680   7.798 -0.8459 -0.2141  1.8002
  584MOL0     H78794   2.097   0.875   7.974 -1.2669  0.5971  1.6456
  584MOL0     H78795   2.014   0.743   8.056  0.0680 -1.7679 -1.9065
  584MOL0     H78796   1.804   0.837   8.017 -0.3530 -0.6380 -0.6561
  584MOL0     H78797   1.860   0.944   7.881  0.4809 -1.2851 -0.6073
  584MOL0     H78798   1.929   0.960   8.175 -2.3764  0.0601  0.5631
  584MOL0     H78799   1.796   1.044   8.094 -1.6682 -1.4652 -2.5821
  584MOL0     H78800   2.011   1.317   8.164  1.5950  0.3308 -2.0011
  584MOL0     H78801   1.939   1.555   8.231 -0.2827 -0.7672  1.4507
  584MOL0     H78802   1.830   1.646   8.135  0.6454  0.8322  0.4980
  584MOL0     H78803   1.769   1.513   8.246  1.1601  0.2173 -0.2000
  584MOL0     H78804   1.644   1.877   7.895  0.2293 -1.6445  0.0168
  584MOL0     H78805   1.439   2.016   7.816 -1.4265  0.0502 -1.3660
  584MOL0     H78806   1.047   2.037   7.828 -1.2265 -2.1181 -0.4808
  584MOL0     H78807   1.207   2.022   7.919  3.2863 -1.3455 -2.3249
  584MOL0     H78808   1.197   2.248   7.839 -2.4041 -1.0463  0.1680
  584MOL0     H78809   1.316   2.165   7.735  0.3251  0.7894 -0.0158
  584MOL0     H78810   1.037   2.222   7.674  0.3855 -0.5274  2.2959
  584MOL0     H78811   1.140   2.118   7.565 -0.4307  0.9724 -0.2815
  584MOL0     H78812   1.177   2.416   7.648 -1.7364 -0.4138  0.5536
  584MOL0     H78813   1.281   2.309   7.536 -1.5211  0.8353 -2.7858
  584MOL0     H78814   0.992   2.407   7.506 -0.0587  0.1613  0.7978
  584MOL0     H78815   1.073   2.304   7.389  0.2128  3.3713 -3.1835
  584MOL0     H78816   1.128   2.579   7.475 -3.6767 -2.0085  2.2919
  584MOL0     H78817   1.252   2.509   7.362 -0.6793 -1.1225 -1.2479
  584MOL0     H78818   0.952   2.526   7.298  0.0888  0.4796  3.4722
  584MOL0     H78819   1.081   2.452   7.199 -0.5591  0.2525 -0.7248
  584MOL0     H78820   1.199   2.661   7.181  1.3172  1.2053  1.8182
  584MOL0     H78821   1.066   2.749   7.266 -0.8690 -0.6620 -0.3037
  584MOL0     H78822   1.231   1.662   7.713  0.1093 -1.3376 -0.0568
  584MOL0     H78823   1.437   1.528   7.750 -3.0801 -0.2257  3.3863
  584MOL0     H78824   1.726   1.333   7.763 -0.0147 -3.3578  0.0463
  584MOL0     H78825   1.831   1.143   7.826  0.4875 -1.4268  0.3222
  584MOL0     H78826   3.177   0.567   7.277 -0.8492  1.1256  2.2432
  584MOL0     H78827   3.354   0.690   7.154 -1.0465  0.0675  0.0898
  584MOL0     H78828   3.719   0.768   7.038 -2.8464  0.8734  0.4077
  584MOL0     H78829   3.844   0.886   6.856  0.1037  0.4813 -0.2124
  584MOL0     H78830   3.937   1.312   6.936 -3.8811 -1.6668  0.5119
  584MOL0     H78831   4.008   1.290   6.770  0.1384 -2.7521 -0.9634
  584MOL0     H78832   3.815   1.437   6.735 -0.3045 -0.2544  0.2360
  584MOL0     H78833   3.713   1.360   6.864 -0.1177  2.2290  0.5572
  584MOL0     H78834   3.680   1.159   6.721  0.4867  0.2465  1.2801
  584MOL0     H78835   3.763   1.245   6.593 -1.1199 -1.3040 -0.6523
  584MOL0     H78836   3.540   1.287   6.538  0.4310 -0.9074 -0.2159
  584MOL0     H78837   3.595   1.435   6.627  0.7907  0.0346  1.3039
  584MOL0     H78838   3.291   1.263   6.871  0.1541  1.4667  2.0824
  584MOL0     H78839   3.798   1.251   7.059 -2.4917  0.1507 -0.4243
  584MOL0     H78840   3.675   1.142   7.233 -3.1557 -0.5750 -1.0482
  585MOL0     O78841   5.294  10.955   6.633  0.0299 -0.5508  0.3212
  585MOL0     C78842   5.298  10.913   6.519 -0.4396  0.0773  0.1777
  585MOL0     O78843   5.193  10.856   6.451 -0.4062  0.0012 -0.6131
  585MOL0     C78844   5.074  10.838   6.515 -0.4167  0.1907 -0.2069
  585MOL0     C78845   4.979  10.936   6.521  0.0235 -0.8153  0.0731
  585MOL0     C78846   4.851  10.912   6.572  0.4709  0.5504  0.4661
  585MOL0     C78847   4.825  10.787   6.632 -0.2134  0.2491  0.0297
  585MOL0     O78848   4.699  10.782   6.690  0.6696  0.5512  0.1688
  585MOL0     C78849   4.633  10.655   6.683 -0.4198  0.6143  0.4662
  585MOL0     C78850   4.493  10.686   6.746  0.2777 -0.3391  0.7902
  585MOL0     C78851   4.431  10.555   6.810  0.2336  0.3335  0.5330
  585MOL0     C78852   4.337  10.472   6.725  0.7140 -0.2694 -0.9129
  585MOL0     C78853   4.212  10.545   6.674  0.6669  0.2551 -0.6445
  585MOL0     C78854   4.117  10.446   6.604 -1.0261 -0.0100 -0.0726
  585MOL0     C78855   3.981  10.502   6.560 -0.0406 -0.1203 -0.4203
  585MOL0     C78856   3.997  10.607   6.441  0.4468  0.7561  0.2087
  585MOL0     N78857   3.881  10.676   6.388 -0.1809  0.1143 -0.5628
  585MOL0     C78858   3.753  10.675   6.437  0.1758 -0.6048 -0.5518
  585MOL0     C78859   3.677  10.744   6.350 -0.0383  0.8787 -0.9832
  585MOL0     C78860   3.528  10.773   6.354 -0.3761  0.0191 -0.2834
  585MOL0     C78861   3.492  10.879   6.243 -0.5084 -0.0400 -0.1909
  585MOL0     C78862   3.477  10.797   6.112  0.4247 -0.0704  0.3173
  585MOL0     C78863   3.396  10.875   6.007 -1.1099 -0.0353 -0.8070
  585MOL0     O78864   3.255  10.842   6.005  0.0383  0.1583 -1.0738
  585MOL0     C78865   3.189  10.801   5.893  0.5977 -0.2019  0.2992
  585MOL0     C78866   3.116  10.899   5.831  0.1684  0.0345  0.8768
  585MOL0     C78867   3.046  10.875   5.719 -0.4659  0.7155  0.0066
  585MOL0     C78868   2.953  10.973   5.665  0.4958 -1.0096 -0.0119
  585MOL0     C78869   3.075  10.758   5.646 -0.5640 -0.1131  0.1505
  585MOL0     C78870   3.011  10.720   5.513  0.3792  0.4435  0.2713
  585MOL0     O78871   3.070  10.614   5.447 -0.3733 -0.6039 -0.0416
  585MOL0     C78872   3.024  10.581   5.321  0.0045 -0.1436 -0.0512
  585MOL0     C78873   2.993  10.673   5.221  0.9315 -0.4823  0.6704
  585MOL0     C78874   2.956  10.623   5.095 -0.8293  0.8624  0.2766
  585MOL0     C78875   2.959  10.486   5.065  0.8934  0.3945 -0.0976
  585MOL0     O78876   2.930  10.429   4.944 -0.1096  0.7718 -0.9694
  585MOL0     C78877   2.934  10.511   4.832  0.4637 -0.3111  0.8274
  585MOL0     C78878   3.069  10.554   4.777  0.2238  0.1407 -0.5594
  585MOL0     C78879   3.054  10.638   4.651 -0.0708 -0.4864  0.1281
  585MOL0     C78880   3.172  10.745   4.635 -0.4774  0.0155 -0.1071
  585MOL0     C78881   3.165  10.802   4.494 -1.1404 -0.7994  0.8773
  585MOL0     C78882   3.038  10.879   4.466 -0.4026 -0.6787 -0.1465
  585MOL0     C78883   3.023  11.019   4.548 -0.1480 -0.6909  0.8973
  585MOL0     C78884   3.122  11.120   4.493  0.8442  0.2406 -0.0654
  585MOL0    Cl78885   3.113  11.268   4.576  0.0566 -0.1060 -0.0256
  585MOL0     C78886   2.984  10.394   5.171 -0.8474  0.2333 -0.1790
  585MOL0     C78887   3.015  10.445   5.296 -1.0641  0.2528  0.1153
  585MOL0     O78888   2.902  10.766   5.484 -0.0127 -0.7934  0.1430
  585MOL0     C78889   3.179  10.672   5.690 -0.1512 -0.7250 -0.4256
  585MOL0     C78890   3.222  10.690   5.816  0.2092 -0.5340  0.2327
  585MOL0     N78891   3.757  10.794   6.249  1.0585  0.2324  0.0463
  585MOL0     N78892   3.878  10.754   6.273  0.1983 -0.8535 -0.0436
  585MOL0     C78893   4.923  10.691   6.629 -0.0997  0.0775 -0.5400
  585MOL0     C78894   5.041  10.713   6.567 -0.1231  0.2625 -0.4682
  585MOL0     C78895   5.423  10.917   6.444  0.3351  0.1033  0.1648
  585MOL0     C78896   5.541  10.973   6.502  0.4583  0.8990 -0.1817
  585MOL0     C78897   5.662  10.976   6.436  0.1273  0.2317 -1.1925
  585MOL0     C78898   5.669  10.941   6.297  0.0340 -0.7405  0.5333
  585MOL0     O78899   5.792  10.954   6.236 -0.0428 -0.2463 -0.4955
  585MOL0     C78900   5.806  10.907   6.097  0.3384 -1.0349  0.2508
  585MOL0     C78901   5.824  10.760   6.080 -0.1977  0.3839 -0.0440
  585MOL0     C78902   5.946  10.703   6.165  0.6529 -0.0771 -0.6296
  585MOL0     C78903   6.080  10.776   6.158  0.3140 -0.0950 -0.5057
  585MOL0     C78904   6.138  10.772   6.027  0.4859  0.5671 -0.5848
  585MOL0     C78905   6.183  10.771   5.915  0.0892  0.0097 -0.1398
  585MOL0     C78906   5.549  10.903   6.239  1.3320  0.7216 -0.4885
  585MOL0     C78907   5.424  10.890   6.315  0.4819  0.2321 -0.6432
  585MOL0     H78908   4.991  11.038   6.487  0.9824 -0.9774 -0.1027
  585MOL0     H78909   4.769  10.983   6.580 -2.0095 -1.9068 -1.1885
  585MOL0     H78910   4.621  10.622   6.579 -0.1309  0.9869  0.3069
  585MOL0     H78911   4.687  10.579   6.740 -0.1304  0.0687 -0.5057
  585MOL0     H78912   4.505  10.768   6.818  2.0558 -0.0816  0.2520
  585MOL0     H78913   4.424  10.735   6.676  1.7270  0.0876 -0.3871
  585MOL0     H78914   4.519  10.494   6.835  0.1137 -0.2085 -0.3381
  585MOL0     H78915   4.376  10.585   6.900 -0.9462  0.7040 -0.3038
  585MOL0     H78916   4.387  10.439   6.634 -0.0329 -2.3158 -0.6347
  585MOL0     H78917   4.303  10.386   6.783 -0.5445  1.2408  0.6882
  585MOL0     H78918   4.164  10.579   6.767  2.2131  1.2637 -0.1716
  585MOL0     H78919   4.230  10.635   6.614 -2.9680  2.4414  1.1455
  585MOL0     H78920   4.180  10.416   6.520 -0.0848  0.6313  0.3879
  585MOL0     H78921   4.088  10.370   6.676  1.7100 -0.0817  1.0826
  585MOL0     H78922   3.909  10.428   6.523 -1.4630  1.7259 -1.5352
  585MOL0     H78923   3.938  10.556   6.645 -0.1817 -0.3052 -0.3747
  585MOL0     H78924   4.044  10.541   6.368 -0.0305 -1.1235  1.5360
  585MOL0     H78925   4.068  10.685   6.469 -1.0898  1.5901  1.9715
  585MOL0     H78926   3.726  10.633   6.533  1.1338  3.5752  1.8081
  585MOL0     H78927   3.463  10.685   6.352  0.2250 -0.5627  2.5709
  585MOL0     H78928   3.504  10.807   6.455 -2.1849  0.9903 -0.9872
  585MOL0     H78929   3.573  10.952   6.237 -0.8072  0.1850 -1.9745
  585MOL0     H78930   3.397  10.930   6.264 -2.0392 -3.4921  2.2162
  585MOL0     H78931   3.432  10.700   6.134 -1.9659  0.3624 -2.1554
  585MOL0     H78932   3.580  10.775   6.082  0.0794 -0.6027 -0.5048
  585MOL0     H78933   3.431  10.863   5.904 -2.1262  6.0066 -2.2403
  585MOL0     H78934   3.404  10.978   6.043  1.0251 -1.0196  1.8843
  585MOL0     H78935   3.105  10.998   5.874  1.8738  1.2427 -1.2674
  585MOL0     H78936   2.970  11.004   5.561  0.8899  0.9820  0.6090
  585MOL0     H78937   2.847  10.946   5.661  0.5083 -1.3304  1.5411
  585MOL0     H78938   2.965  11.069   5.715 -0.1257 -0.1544 -1.4358
  585MOL0     H78939   2.997  10.778   5.246 -0.7252 -0.6184  1.7088
  585MOL0     H78940   2.924  10.702   5.028 -0.0799 -0.1683 -1.3588
  585MOL0     H78941   2.880  10.460   4.752  0.9237 -1.5758  1.2987
  585MOL0     H78942   2.868  10.596   4.851 -1.3639 -1.7827  1.3256
  585MOL0     H78943   3.112  10.629   4.843 -1.8203  2.0861 -1.3007
  585MOL0     H78944   3.137  10.469   4.770  0.3144  0.1940 -0.3460
  585MOL0     H78945   2.962  10.697   4.647  0.6000  0.5624 -0.1922
  585MOL0     H78946   3.050  10.576   4.561  0.5147  1.9156 -1.6726
  585MOL0     H78947   3.174  10.814   4.720  0.3776  1.6853 -1.4289
  585MOL0     H78948   3.275  10.707   4.637  0.2447  1.8494  2.5140
  585MOL0     H78949   3.163  10.716   4.426  0.0630  0.1334 -0.4100
  585MOL0     H78950   3.253  10.860   4.463 -0.6580 -2.0481 -0.1855
  585MOL0     H78951   3.029  10.900   4.359 -4.0356  0.8141  0.3140
  585MOL0     H78952   2.947  10.821   4.486 -0.3721 -0.4274  0.7697
  585MOL0     H78953   3.041  10.993   4.653 -0.5790  0.7116  1.3380
  585MOL0     H78954   2.926  11.069   4.539  0.5278  0.6261  0.5776
  585MOL0     H78955   3.104  11.153   4.390  1.1008 -1.7042 -0.7773
  585MOL0     H78956   3.220  11.072   4.500  1.0412  0.9018  2.7976
  585MOL0     H78957   3.003  10.288   5.156 -1.7792 -0.0975  0.8279
  585MOL0     H78958   3.043  10.375   5.374  0.3689  3.9683  3.2599
  585MOL0     H78959   3.202  10.582   5.633 -1.0223  1.0418 -3.9014
  585MOL0     H78960   3.300  10.627   5.857 -0.0843 -2.2758 -1.7259
  585MOL0     H78961   4.902  10.598   6.681 -1.2637  0.4407 -0.3449
  585MOL0     H78962   5.120  10.641   6.545  0.8265  0.5535  1.7810
  585MOL0     H78963   5.521  10.999   6.606 -2.4167  1.1260 -0.7291
  585MOL0     H78964   5.747  11.013   6.492 -0.1211  1.1499 -1.4113
  585MOL0     H78965   5.715  10.937   6.044  0.2595  0.5834  1.2416
  585MOL0     H78966   5.887  10.965   6.053 -0.9692  2.1342  1.6739
  585MOL0     H78967   5.850  10.737   5.976 -0.1867  0.0046  0.0403
  585MOL0     H78968   5.737  10.699   6.106  0.5313 -0.8689 -0.4310
  585MOL0     H78969   5.971  10.600   6.140 -2.6628 -1.2580  0.3584
  585MOL0     H78970   5.910  10.704   6.268  1.3001  2.0898 -0.3738
  585MOL0     H78971   6.155  10.738   6.228  2.4746  3.9615 -0.2800
  585MOL0     H78972   6.060  10.882   6.175 -1.7918 -0.1540 -2.1562
  585MOL0     H78973   6.227  10.771   5.817 -3.3765  2.5102 -1.9242
  585MOL0     H78974   5.540  10.883   6.133 -0.6905  0.9557 -0.4104
  585MOL0     H78975   5.336  10.856   6.261 -0.2066 -0.1325  0.6632
  586MOL0     O78976   1.483   0.330   7.065 -0.4184  0.1423  0.2706
  586MOL0     C78977   1.521   0.338   6.945  0.2790  0.0236 -0.1738
  586MOL0     O78978   1.440   0.359   6.835  0.1767  0.6967  0.7192
  586MOL0     C78979   1.304   0.356   6.846 -0.3178 -0.3261  0.2285
  586MOL0     C78980   1.228   0.304   6.954 -0.0436  0.2804 -0.6626
  586MOL0     C78981   1.086   0.311   6.949 -0.4851 -0.2425 -0.0622
  586MOL0     C78982   1.031   0.366   6.831  0.6800 -0.9471 -0.5491
  586MOL0     O78983   0.896   0.379   6.820  0.2772 -0.6474  0.5501
  586MOL0     C78984   0.811   0.286   6.899 -0.4415 -0.9357  0.8159
  586MOL0     C78985   0.674   0.286   6.839 -0.3177 -0.0188 -1.1115
  586MOL0     C78986   0.575   0.217   6.940 -0.2730 -0.1992  1.1278
  586MOL0     C78987   0.439   0.259   6.892 -0.2187  0.3202  0.1243
  586MOL0     C78988   0.335   0.201   6.988 -0.1858  0.4410  0.3604
  586MOL0     C78989   0.203   0.187   6.925  0.6155 -0.4169  0.7997
  586MOL0     C78990   0.092   0.141   7.023 -0.0159  0.8212  0.2683
  586MOL0     C78991  -0.038   0.111   6.949 -0.7350 -0.3173  0.2990
  586MOL0     N78992  -0.103   0.228   6.893  0.2168 -1.1438 -0.0064
  586MOL0     C78993  -0.226   0.227   6.825 -0.3137 -0.1662  0.3592
  586MOL0     C78994  -0.284   0.350   6.838  0.4790  0.2304  0.2640
  586MOL0     C78995  -0.422   0.380   6.790  0.9357  0.1735 -0.8251
  586MOL0     C78996  -0.536   0.363   6.882  0.8358 -0.6154 -0.0240
  586MOL0     C78997  -0.668   0.425   6.832 -0.3092  0.1047 -0.1777
  586MOL0     C78998  -0.785   0.398   6.926 -0.7096 -0.5308  0.1843
  586MOL0     O78999  -0.903   0.415   6.850  0.2291  0.1368 -0.9352
  586MOL0     C79000  -1.021   0.384   6.916  0.7896 -0.3763 -0.0796
  586MOL0     C79001  -1.036   0.327   7.043  1.2957  0.4544 -0.2177
  586MOL0     C79002  -1.167   0.307   7.104 -0.4238  0.1046  0.2692
  586MOL0     C79003  -1.172   0.231   7.237 -0.8216 -0.5352 -0.6735
  586MOL0     C79004  -1.283   0.365   7.027 -0.0155  0.2886  0.1091
  586MOL0     C79005  -1.423   0.356   7.077 -0.0847  0.1481 -0.0853
  586MOL0     O79006  -1.519   0.422   7.004  0.6062  0.4737 -0.1684
  586MOL0     C79007  -1.648   0.434   7.059 -0.3693  0.0470  0.1635
  586MOL0     C79008  -1.707   0.560   7.093  0.2574  0.3191  1.0543
  586MOL0     C79009  -1.833   0.558   7.166  1.0447 -1.2043 -0.6743
  586MOL0     C79010  -1.897   0.439   7.194  1.1520 -0.0329  0.2423
  586MOL0     O79011  -2.013   0.429   7.268 -0.4247  0.3224 -0.4528
  586MOL0     C79012  -2.093   0.552   7.281 -0.0265  0.0482  0.5410
  586MOL0     C79013  -2.235   0.511   7.304  0.0450  0.3896 -0.4177
  586MOL0     C79014  -2.278   0.471   7.448 -1.0055 -0.4927  0.8006
  586MOL0     C79015  -2.416   0.413   7.438  0.4573  1.0739  0.0122
  586MOL0     C79016  -2.452   0.334   7.561 -1.3697  1.2949  0.4042
  586MOL0     C79017  -2.573   0.244   7.550  0.0400 -0.1992  0.3534
  586MOL0     C79018  -2.541   0.105   7.493  0.5612  0.4280 -0.1612
  586MOL0     C79019  -2.670   0.029   7.456  0.1815 -0.9029  0.1364
  586MOL0    Cl79020  -2.805   0.043   7.574  0.0774  0.4132  0.2231
  586MOL0     C79021  -1.846   0.318   7.154  0.1986  0.4559  0.2684
  586MOL0     C79022  -1.720   0.322   7.089  1.0517 -0.5776 -0.4489
  586MOL0     O79023  -1.437   0.318   7.193  0.5893  0.5039 -0.3245
  586MOL0     C79024  -1.258   0.422   6.902 -0.1710  0.6662 -0.6495
  586MOL0     C79025  -1.133   0.430   6.848  0.5127  0.4020  0.3738
  586MOL0     N79026  -0.198   0.431   6.915  0.0351  0.5282  0.7005
  586MOL0     N79027  -0.091   0.362   6.930 -1.2162 -0.1122  0.5484
  586MOL0     C79028   1.108   0.429   6.733  0.5341 -0.2013 -0.1328
  586MOL0     C79029   1.246   0.427   6.738 -0.3347 -0.7370 -0.0351
  586MOL0     C79030   1.666   0.327   6.910  0.4640 -0.5630 -0.2978
  586MOL0     C79031   1.755   0.247   6.983  0.1201 -0.8176 -0.0324
  586MOL0     C79032   1.890   0.235   6.943 -1.3691  0.3492 -0.1312
  586MOL0     C79033   1.936   0.313   6.828  0.6667  0.5406  0.4572
  586MOL0     O79034   2.065   0.335   6.791  0.4620  0.4128 -0.0661
  586MOL0     C79035   2.167   0.297   6.888 -0.8183 -0.1747  0.0513
  586MOL0     C79036   2.297   0.369   6.852 -0.0920 -0.5092  0.2018
  586MOL0     C79037   2.351   0.315   6.720  0.1464  0.7404  0.1630
  586MOL0     C79038   2.501   0.344   6.713 -0.2375 -0.0510  0.3954
  586MOL0     C79039   2.537   0.469   6.656  0.1088 -0.1894  0.4509
  586MOL0     C79040   2.557   0.576   6.604  0.1017  0.2071 -0.9177
  586MOL0     C79041   1.850   0.393   6.756  0.0509  0.6995 -0.1984
  586MOL0     C79042   1.715   0.397   6.799 -0.4950  0.1667  0.4068
  586MOL0     H79043   1.275   0.259   7.040  0.5269  3.3734  0.7888
  586MOL0     H79044   1.032   0.281   7.039  1.5467 -0.2107  1.2364
  586MOL0     H79045   0.855   0.187   6.882  0.7635  0.0486 -2.7284
  586MOL0     H79046   0.804   0.309   7.005  1.4973 -1.8158  1.1691
  586MOL0     H79047   0.641   0.390   6.825 -0.7737  0.0085  0.0982
  586MOL0     H79048   0.664   0.236   6.742 -0.7231  1.0249 -1.6326
  586MOL0     H79049   0.593   0.109   6.945  2.5028 -0.2491 -3.5886
  586MOL0     H79050   0.578   0.268   7.037 -2.1635 -3.1729  2.8876
  586MOL0     H79051   0.424   0.367   6.897 -2.4754  0.0313  0.8763
  586MOL0     H79052   0.425   0.220   6.790  0.0228  0.6447 -0.0352
  586MOL0     H79053   0.365   0.103   7.026 -0.4792 -0.6213 -2.0070
  586MOL0     H79054   0.317   0.270   7.071 -1.3199  2.0774 -1.1693
  586MOL0     H79055   0.160   0.271   6.869 -1.8653 -0.7564  2.0357
  586MOL0     H79056   0.201   0.104   6.853  0.2556  0.7650 -0.6071
  586MOL0     H79057   0.111   0.051   7.082 -2.9821  0.9455  1.6291
  586MOL0     H79058   0.077   0.221   7.096  0.3582 -0.2923  1.6076
  586MOL0     H79059  -0.108   0.064   7.019 -3.2872  0.8637 -1.3124
  586MOL0     H79060  -0.021   0.035   6.873  1.0185  1.6681 -1.4103
  586MOL0     H79061  -0.259   0.140   6.769  0.8456  0.1272 -0.8257
  586MOL0     H79062  -0.419   0.489   6.781 -1.8679  0.4430  0.2229
  586MOL0     H79063  -0.438   0.341   6.689  1.1047  0.6672 -1.0435
  586MOL0     H79064  -0.520   0.389   6.987 -0.3936  0.7773 -0.1418
  586MOL0     H79065  -0.554   0.255   6.883  1.6506 -0.7520  1.0854
  586MOL0     H79066  -0.694   0.396   6.729  1.9177 -1.8541 -0.2800
  586MOL0     H79067  -0.648   0.532   6.831 -1.5128  0.3468 -0.8180
  586MOL0     H79068  -0.776   0.456   7.019  0.0989 -0.9144  0.3596
  586MOL0     H79069  -0.785   0.291   6.949 -1.2427 -0.8953 -1.4168
  586MOL0     H79070  -0.946   0.299   7.096  1.5104  0.0159 -0.8095
  586MOL0     H79071  -1.237   0.280   7.310  0.5716  0.3320  0.0162
  586MOL0     H79072  -1.224   0.135   7.227 -0.6492 -0.7277  0.2517
  586MOL0     H79073  -1.069   0.224   7.274 -0.9461 -4.8908 -0.5706
  586MOL0     H79074  -1.652   0.649   7.066 -1.3003  1.4539  1.4930
  586MOL0     H79075  -1.879   0.648   7.206  1.8198 -1.7183  1.5301
  586MOL0     H79076  -2.065   0.629   7.353  2.1075  1.7122 -1.9310
  586MOL0     H79077  -2.095   0.606   7.186 -1.8216 -0.4926  0.2333
  586MOL0     H79078  -2.307   0.589   7.279 -2.2906 -1.2184  0.9208
  586MOL0     H79079  -2.247   0.434   7.228 -1.6681  1.4227 -1.2587
  586MOL0     H79080  -2.299   0.561   7.507 -1.0956 -0.3303  0.5196
  586MOL0     H79081  -2.211   0.395   7.490  1.1762  0.3825 -0.8934
  586MOL0     H79082  -2.489   0.491   7.416  0.2379  1.4140  1.8671
  586MOL0     H79083  -2.428   0.339   7.358  0.4239  0.7247  0.3399
  586MOL0     H79084  -2.467   0.402   7.645  3.6292  0.9498  1.9126
  586MOL0     H79085  -2.374   0.270   7.602 -0.8945  1.8204  0.3278
  586MOL0     H79086  -2.620   0.227   7.647 -0.5777 -0.8982 -0.0621
  586MOL0     H79087  -2.644   0.291   7.481  0.5469 -0.4503 -0.3580
  586MOL0     H79088  -2.482   0.059   7.573 -0.9243 -2.3636 -0.5376
  586MOL0     H79089  -2.481   0.101   7.401 -0.4797 -3.6363 -0.8402
  586MOL0     H79090  -2.643  -0.076   7.438 -2.7375 -2.3042  2.8825
  586MOL0     H79091  -2.701   0.068   7.359  0.4968  1.2939  0.8747
  586MOL0     H79092  -1.907   0.230   7.175 -3.0351  2.3110 -0.6406
  586MOL0     H79093  -1.678   0.223   7.081 -1.2279 -1.9336  2.5295
  586MOL0     H79094  -1.337   0.483   6.859 -0.9129  1.0836  1.2155
  586MOL0     H79095  -1.118   0.488   6.758 -0.7959 -0.8299 -0.6737
  586MOL0     H79096   1.057   0.492   6.661 -1.4078 -1.5949 -0.0724
  586MOL0     H79097   1.306   0.471   6.659 -0.1646 -1.2990 -0.2243
  586MOL0     H79098   1.722   0.195   7.072  0.0274  1.0610  1.0929
  586MOL0     H79099   1.953   0.167   6.999  0.1732  1.2401 -0.7345
  586MOL0     H79100   2.127   0.334   6.983 -2.1700 -0.0033 -0.5615
  586MOL0     H79101   2.174   0.189   6.874  0.6139 -0.0371 -0.5296
  586MOL0     H79102   2.363   0.336   6.932  1.0605 -1.0165 -0.9299
  586MOL0     H79103   2.276   0.476   6.843 -0.7679 -0.7214 -1.0148
  586MOL0     H79104   2.291   0.344   6.634  0.5995  1.1483 -0.0204
  586MOL0     H79105   2.351   0.206   6.730  1.1821  0.5965 -1.1449
  586MOL0     H79106   2.543   0.272   6.642  1.9675 -0.3627  1.9218
  586MOL0     H79107   2.560   0.336   6.804 -2.5385  0.8918  2.0700
  586MOL0     H79108   2.579   0.670   6.558  1.6891 -0.9290 -2.6101
  586MOL0     H79109   1.888   0.450   6.671  0.1829 -0.0558 -0.6514
  586MOL0     H79110   1.644   0.465   6.753 -2.2750 -1.0196  1.2588
  587MOL0     O79111   2.175   5.116   8.602  0.1856  1.0692  0.5014
  587MOL0     C79112   2.190   5.017   8.529  1.0297 -0.3249 -0.2004
  587MOL0     O79113   2.086   4.937   8.476  0.2635 -0.2636  0.4164
  587MOL0     C79114   1.957   4.958   8.511  0.9222 -0.5348  0.3393
  587MOL0     C79115   1.907   4.978   8.637 -1.0866 -0.3168  0.3173
  587MOL0     C79116   1.770   4.995   8.667 -0.0856  0.0197  1.0075
  587MOL0     C79117   1.684   5.001   8.555  0.1447  0.1083  0.5084
  587MOL0     O79118   1.543   5.023   8.573 -0.1654  0.2018  0.2960
  587MOL0     C79119   1.484   4.963   8.689 -0.6793 -0.7366 -0.4646
  587MOL0     C79120   1.339   4.987   8.684 -0.0030  0.6744  0.1179
  587MOL0     C79121   1.274   4.881   8.776  0.1147 -1.0509 -0.5659
  587MOL0     C79122   1.121   4.892   8.781  0.0373  0.3304 -0.1431
  587MOL0     C79123   1.049   4.785   8.865 -0.5510 -0.4549  0.3423
  587MOL0     C79124   0.896   4.775   8.829 -0.1345  0.2361 -0.5343
  587MOL0     C79125   0.871   4.693   8.701 -0.6400  0.1827  0.5156
  587MOL0     C79126   0.794   4.770   8.593  0.4962  0.4082 -0.0542
  587MOL0     N79127   0.653   4.733   8.600 -0.6426  1.0266  0.1013
  587MOL0     C79128   0.582   4.621   8.532 -1.0071 -0.2307  0.2005
  587MOL0     C79129   0.453   4.618   8.586  0.0013 -0.3385  0.6320
  587MOL0     C79130   0.342   4.526   8.548 -0.4539 -0.0888 -0.4032
  587MOL0     C79131   0.277   4.465   8.675  0.2324 -0.9212  0.8635
  587MOL0     C79132   0.171   4.548   8.740  0.3453 -0.9325 -0.2789
  587MOL0     C79133   0.090   4.473   8.840 -0.4417 -0.1796 -0.3463
  587MOL0     O79134   0.012   4.386   8.762  0.3539 -0.0380 -0.5155
  587MOL0     C79135  -0.125   4.403   8.773 -0.7627 -0.3957  0.5764
  587MOL0     C79136  -0.195   4.491   8.700 -1.0635  0.1193  0.4769
  587MOL0     C79137  -0.335   4.488   8.706  0.3372  0.2644  0.5940
  587MOL0     C79138  -0.408   4.584   8.613 -0.5362  0.2789 -0.5479
  587MOL0     C79139  -0.413   4.393   8.793 -0.0761 -0.1180  0.3969
  587MOL0     C79140  -0.568   4.387   8.806  0.2009  1.0569  0.4766
  587MOL0     O79141  -0.637   4.499   8.770  0.0488 -0.2105 -0.2596
  587MOL0     C79142  -0.773   4.487   8.751 -0.0486  0.4863  0.3512
  587MOL0     C79143  -0.812   4.454   8.621  0.6934  0.1510  0.2991
  587MOL0     C79144  -0.949   4.445   8.583 -0.7257  0.1317  0.5261
  587MOL0     C79145  -1.047   4.478   8.680  0.0697 -0.6138 -0.3393
  587MOL0     O79146  -1.181   4.485   8.640 -0.8178  0.2815 -0.1492
  587MOL0     C79147  -1.231   4.424   8.523 -0.7651  0.0416  0.4017
  587MOL0     C79148  -1.367   4.377   8.550  0.2416 -0.2880  0.0715
  587MOL0     C79149  -1.454   4.500   8.573  0.6133 -0.2066 -0.1740
  587MOL0     C79150  -1.539   4.477   8.693 -0.4974  0.4617  0.7063
  587MOL0     C79151  -1.663   4.384   8.675 -0.0019  1.4792  0.6227
  587MOL0     C79152  -1.759   4.443   8.575  0.0225 -0.5969  0.0021
  587MOL0     C79153  -1.888   4.364   8.582 -0.4096 -0.0357 -0.6463
  587MOL0     C79154  -1.992   4.430   8.498 -0.0930  0.6402 -0.3988
  587MOL0    Cl79155  -1.925   4.499   8.345 -0.3087 -0.0363 -0.3272
  587MOL0     C79156  -1.009   4.519   8.809  0.1364  0.2223  0.3111
  587MOL0     C79157  -0.872   4.518   8.841 -0.1050 -0.9156  0.5805
  587MOL0     O79158  -0.614   4.276   8.832 -0.5063 -0.5200 -0.3974
  587MOL0     C79159  -0.335   4.304   8.872 -0.1530  0.0125  0.4549
  587MOL0     C79160  -0.198   4.304   8.851  0.1493  0.1778  0.3833
  587MOL0     N79161   0.452   4.722   8.679 -0.0698 -0.7365 -0.7193
  587MOL0     N79162   0.561   4.792   8.685  0.5995  0.8092  0.6897
  587MOL0     C79163   1.733   4.993   8.426  0.4939  1.0497 -0.0024
  587MOL0     C79164   1.875   4.971   8.404  0.2029 -0.8256  0.1932
  587MOL0     C79165   2.323   4.959   8.510 -1.0367  0.2587  0.1584
  587MOL0     C79166   2.331   4.834   8.437  0.3908  0.3977  0.1625
  587MOL0     C79167   2.452   4.783   8.412 -1.0176 -0.0634  0.4963
  587MOL0     C79168   2.571   4.838   8.461 -0.0772 -0.0316  0.2240
  587MOL0     O79169   2.684   4.766   8.441  0.4302 -0.0369  0.3155
  587MOL0     C79170   2.804   4.834   8.451 -0.8553 -0.0317  0.0312
  587MOL0     C79171   2.915   4.734   8.463 -0.2247  0.9746 -0.7137
  587MOL0     C79172   3.056   4.807   8.451  0.6950 -0.0150 -0.2918
  587MOL0     C79173   3.177   4.718   8.468 -0.3591  0.3604  0.8500
  587MOL0     C79174   3.211   4.640   8.346  0.0488  0.4361  0.5908
  587MOL0     C79175   3.239   4.574   8.246  0.9868 -1.1546 -0.1025
  587MOL0     C79176   2.570   4.973   8.523 -0.1965 -0.6226 -0.5589
  587MOL0     C79177   2.442   5.029   8.548 -0.0716  0.1217 -0.3655
  587MOL0     H79178   1.989   4.985   8.708  0.4054  0.8129 -1.4362
  587MOL0     H79179   1.746   5.007   8.773  2.2743  2.1243  1.4018
  587MOL0     H79180   1.504   4.856   8.695 -1.1747 -0.7729  3.8214
  587MOL0     H79181   1.529   5.009   8.777  0.1257 -1.1543 -0.6504
  587MOL0     H79182   1.332   5.094   8.706 -1.3433  1.5866 -3.8940
  587MOL0     H79183   1.301   4.954   8.587 -0.0312 -5.1347  1.6964
  587MOL0     H79184   1.305   4.786   8.732  0.6299 -0.3828 -1.6815
  587MOL0     H79185   1.302   4.894   8.881 -3.5560 -0.0730  0.4489
  587MOL0     H79186   1.094   4.990   8.821 -1.8932  0.0743 -0.7351
  587MOL0     H79187   1.094   4.880   8.675 -1.7681 -0.3616  0.3575
  587MOL0     H79188   1.093   4.686   8.850  1.0476  0.3499 -0.4939
  587MOL0     H79189   1.063   4.813   8.969 -1.9754 -0.6187  0.6052
  587MOL0     H79190   0.842   4.721   8.908 -2.2822  0.0255 -2.0598
  587MOL0     H79191   0.856   4.876   8.815 -0.5826 -0.0459 -1.3435
  587MOL0     H79192   0.971   4.676   8.660  0.2338  1.0783  2.1996
  587MOL0     H79193   0.834   4.590   8.710 -1.7792  0.2821 -2.0992
  587MOL0     H79194   0.842   4.751   8.497  0.8482  0.5850  0.0843
  587MOL0     H79195   0.806   4.876   8.619 -2.3201  0.8342 -0.1597
  587MOL0     H79196   0.620   4.543   8.467  0.1875 -0.5595  1.2665
  587MOL0     H79197   0.270   4.573   8.480 -1.3016  0.0449  0.5594
  587MOL0     H79198   0.393   4.445   8.496 -3.2334 -2.3378  0.1562
  587MOL0     H79199   0.351   4.455   8.756  1.7306  3.0609  0.1985
  587MOL0     H79200   0.241   4.367   8.641 -2.3789  1.2032 -3.2996
  587MOL0     H79201   0.100   4.597   8.673 -1.5564 -1.8633  0.9623
  587MOL0     H79202   0.218   4.627   8.800 -2.2368  1.4776 -1.2094
  587MOL0     H79203   0.027   4.545   8.892 -1.4743 -0.7501 -0.7741
  587MOL0     H79204   0.149   4.420   8.916  0.3114  1.2353  0.0875
  587MOL0     H79205  -0.142   4.561   8.636 -2.6015  1.0625  0.1942
  587MOL0     H79206  -0.455   4.660   8.676 -0.2188  1.5578 -1.8003
  587MOL0     H79207  -0.339   4.636   8.545 -0.6973  1.6031  0.2627
  587MOL0     H79208  -0.477   4.531   8.547  0.0551  2.3218 -2.9734
  587MOL0     H79209  -0.737   4.431   8.547  0.4424  2.8935 -0.9006
  587MOL0     H79210  -0.979   4.420   8.482  1.4178  2.0337 -0.6687
  587MOL0     H79211  -1.230   4.508   8.452 -3.3933 -0.8054 -0.7329
  587MOL0     H79212  -1.177   4.333   8.496 -2.5699 -0.5993 -1.2245
  587MOL0     H79213  -1.404   4.324   8.462  0.7548  1.0103 -0.9695
  587MOL0     H79214  -1.361   4.317   8.641  3.3487  2.3177  1.8067
  587MOL0     H79215  -1.519   4.515   8.486 -1.1329  0.3190  1.1744
  587MOL0     H79216  -1.394   4.591   8.584 -0.7339  0.7414 -0.4171
  587MOL0     H79217  -1.477   4.423   8.766 -1.0536 -1.6783 -0.3421
  587MOL0     H79218  -1.577   4.568   8.741  0.8334  0.8394  1.0915
  587MOL0     H79219  -1.721   4.377   8.768  0.6547  0.6925  0.9838
  587MOL0     H79220  -1.634   4.284   8.639 -1.5773  1.9687 -2.2987
  587MOL0     H79221  -1.767   4.547   8.608  1.8866 -1.1193  2.3100
  587MOL0     H79222  -1.711   4.429   8.477 -1.3403 -0.3967 -0.7181
  587MOL0     H79223  -1.915   4.364   8.688  2.3725 -1.4806  0.1286
  587MOL0     H79224  -1.864   4.265   8.543  0.3029 -1.0699  2.1782
  587MOL0     H79225  -2.039   4.509   8.557 -1.2519  0.6325 -1.2620
  587MOL0     H79226  -2.076   4.361   8.487 -0.9292  1.0601  2.5588
  587MOL0     H79227  -1.082   4.553   8.882 -0.8251  2.3059 -1.5109
  587MOL0     H79228  -0.852   4.548   8.944 -2.3394 -2.6378  1.5821
  587MOL0     H79229  -0.388   4.248   8.949 -1.6437 -0.8802 -1.1470
  587MOL0     H79230  -0.137   4.240   8.914 -2.3426 -1.0120  1.7330
  587MOL0     H79231   1.665   5.006   8.343 -0.6110  2.0479  1.0236
  587MOL0     H79232   1.928   4.967   8.310  1.8171 -0.4183  1.0393
  587MOL0     H79233   2.239   4.791   8.398  0.2075  0.8071  0.1372
  587MOL0     H79234   2.464   4.686   8.365 -0.0809  0.7477 -1.0196
  587MOL0     H79235   2.825   4.890   8.359 -1.4778 -2.8090 -1.9092
  587MOL0     H79236   2.813   4.892   8.543 -0.7019 -1.1552  0.7360
  587MOL0     H79237   2.916   4.657   8.385  0.1917  0.2897 -0.0507
  587MOL0     H79238   2.911   4.700   8.567 -0.6203 -0.2239 -1.1095
  587MOL0     H79239   3.054   4.893   8.519  1.0749  0.0300 -0.3358
  587MOL0     H79240   3.067   4.846   8.350  0.6567  1.5385  0.2712
  587MOL0     H79241   3.176   4.658   8.559  0.3186  0.1636  0.7344
  587MOL0     H79242   3.264   4.784   8.480  1.2386 -1.1006 -1.7547
  587MOL0     H79243   3.242   4.523   8.152  0.2947  1.0913 -1.4258
  587MOL0     H79244   2.659   5.024   8.560  2.5271 -5.8971  1.2648
  587MOL0     H79245   2.437   5.131   8.584  0.7463  0.5014 -1.2999
  588MOL0     O79246   9.509   5.778   8.953 -0.5133  1.3592 -0.6748
  588MOL0     C79247   9.516   5.729   9.068  0.0199  0.5237 -1.0134
  588MOL0     O79248   9.625   5.676   9.128  0.4171 -0.5520 -0.5334
  588MOL0     C79249   9.727   5.634   9.048 -0.4852 -0.0899  0.5629
  588MOL0     C79250   9.709   5.540   8.949 -1.2937  0.6952  0.0315
  588MOL0     C79251   9.815   5.496   8.866 -0.1613  0.4483 -0.3132
  588MOL0     C79252   9.943   5.555   8.877  0.4838 -0.3447  0.1435
  588MOL0     O79253  10.039   5.515   8.788 -0.6002 -0.5190 -0.5079
  588MOL0     C79254  10.177   5.515   8.847  0.2152 -0.2815  0.9290
  588MOL0     C79255  10.267   5.453   8.743  0.0204 -0.0354 -0.3546
  588MOL0     C79256  10.402   5.430   8.788 -0.4314 -0.2520  0.1119
  588MOL0     C79257  10.489   5.332   8.703 -0.3057  0.2869 -0.0910
  588MOL0     C79258  10.623   5.298   8.782  0.8952 -0.4735  0.7393
  588MOL0     C79259  10.716   5.213   8.699  0.4555  1.5314 -0.1060
  588MOL0     C79260  10.805   5.287   8.600  0.1866  0.4970  0.4900
  588MOL0     C79261  10.925   5.374   8.654 -0.2666 -0.1861  0.4134
  588MOL0     N79262  11.052   5.299   8.647  0.5440 -0.2465  0.1521
  588MOL0     C79263  11.151   5.305   8.748  0.8181  0.5107  0.4392
  588MOL0     C79264  11.260   5.271   8.691 -0.0365  0.4839  0.9505
  588MOL0     C79265  11.399   5.252   8.753 -0.0611  0.4816  0.6304
  588MOL0     C79266  11.467   5.376   8.759 -0.3747 -0.4630  0.1035
  588MOL0     C79267  11.604   5.348   8.829 -0.5131  0.3278 -0.4684
  588MOL0     C79268  11.706   5.270   8.747 -0.0714  0.0232  0.3742
  588MOL0     O79269  11.823   5.268   8.830  0.8802 -0.8897  0.0771
  588MOL0     C79270  11.942   5.238   8.759  0.4938 -0.0026 -0.5005
  588MOL0     C79271  11.942   5.181   8.635 -0.0060  0.0211 -0.7226
  588MOL0     C79272  12.063   5.162   8.564 -1.0479 -0.7602 -0.3660
  588MOL0     C79273  12.055   5.113   8.417 -0.3821  0.7590  0.2545
  588MOL0     C79274  12.190   5.208   8.633  0.4205 -0.5710  0.1750
  588MOL0     C79275  12.326   5.202   8.576 -0.4561  0.8893  0.1595
  588MOL0     O79276  12.336   5.173   8.446 -0.5161  0.3273  0.2001
  588MOL0     C79277  12.452   5.156   8.371  0.1482 -0.0446  0.0799
  588MOL0     C79278  12.419   5.141   8.233 -0.4563 -0.2804 -0.9573
  588MOL0     C79279  12.523   5.124   8.138 -0.1046 -0.2313  0.1246
  588MOL0     C79280  12.654   5.127   8.171  0.8861 -0.1162  0.5671
  588MOL0     O79281  12.732   5.123   8.062  0.3888  0.0693  0.1416
  588MOL0     C79282  12.866   5.160   8.065  0.2538  0.1170 -0.2081
  588MOL0     C79283  12.951   5.125   7.939 -0.3447 -0.0723  0.7643
  588MOL0     C79284  12.949   4.967   7.934  0.4033  0.6660 -0.3783
  588MOL0     C79285  13.018   4.920   7.800  0.0738 -0.2697 -0.9583
  588MOL0     C79286  13.170   4.934   7.805  0.3005 -0.3797  0.3234
  588MOL0     C79287  13.253   4.862   7.911 -0.1585 -0.6995 -0.9351
  588MOL0     C79288  13.407   4.904   7.905 -0.5662 -0.3005 -0.8168
  588MOL0     C79289  13.501   4.805   7.984 -0.5024  0.1747  0.4349
  588MOL0    Cl79290  13.463   4.828   8.155  0.3511 -0.3170 -0.0937
  588MOL0     C79291  12.694   5.145   8.300 -0.6764  0.4675  0.8689
  588MOL0     C79292  12.596   5.156   8.408  0.3401 -0.1640  0.4972
  588MOL0     O79293  12.425   5.197   8.651  0.0682  0.3446 -0.0021
  588MOL0     C79294  12.188   5.243   8.769 -0.3239 -0.4189  0.1531
  588MOL0     C79295  12.055   5.261   8.827 -0.6228 -0.7535 -0.0993
  588MOL0     N79296  11.232   5.221   8.563 -0.4388 -0.8280 -0.8697
  588MOL0     N79297  11.108   5.257   8.533 -0.1339  0.0296 -0.6593
  588MOL0     C79298   9.953   5.659   8.974  0.6425  0.6989 -0.4603
  588MOL0     C79299   9.850   5.698   9.060  0.1443  0.4926  0.2089
  588MOL0     C79300   9.396   5.736   9.146  0.5484 -0.2934 -0.8447
  588MOL0     C79301   9.280   5.802   9.109  0.3168 -0.5936  0.5030
  588MOL0     C79302   9.171   5.805   9.190 -0.1098 -0.3799  0.1622
  588MOL0     C79303   9.173   5.741   9.315 -0.8210  0.8337  0.4934
  588MOL0     O79304   9.068   5.764   9.398 -0.4854  0.3548  0.4083
  588MOL0     C79305   9.045   5.695   9.520 -0.1290  0.3779  0.2872
  588MOL0     C79306   9.092   5.783   9.643 -0.7709  0.7099  0.4907
  588MOL0     C79307   9.089   5.702   9.773  0.6859 -1.1576 -0.1013
  588MOL0     C79308   9.141   5.784   9.890 -0.6640  0.7014 -0.4818
  588MOL0     C79309   9.150   5.703  10.011  0.0352  0.7042 -1.0868
  588MOL0     C79310   9.143   5.652  10.117  1.3837 -1.2987 -0.0801
  588MOL0     C79311   9.293   5.673   9.352 -0.0745 -0.0356  0.2979
  588MOL0     C79312   9.402   5.667   9.271  0.0054  0.6639 -1.4047
  588MOL0     H79313   9.615   5.485   8.946 -0.6810 -0.8773  3.7528
  588MOL0     H79314   9.806   5.415   8.794  1.2444 -0.4686  0.4780
  588MOL0     H79315  10.214   5.615   8.872 -0.1638  0.7152 -2.0655
  588MOL0     H79316  10.185   5.453   8.937  1.0692 -2.3627 -0.4964
  588MOL0     H79317  10.232   5.355   8.710  1.1583 -1.8333  3.2514
  588MOL0     H79318  10.255   5.522   8.659  0.2948 -0.6602 -0.9091
  588MOL0     H79319  10.452   5.527   8.792 -0.6279 -0.1851  1.4547
  588MOL0     H79320  10.414   5.383   8.886  3.8821 -0.4834 -0.3258
  588MOL0     H79321  10.433   5.239   8.687  0.7820 -0.5401  0.7607
  588MOL0     H79322  10.515   5.376   8.607 -2.7900  1.1628 -0.4177
  588MOL0     H79323  10.661   5.391   8.825  0.9641 -0.5277  0.7959
  588MOL0     H79324  10.584   5.245   8.869  0.6848 -0.9408  0.3656
  588MOL0     H79325  10.781   5.148   8.758 -2.9909 -2.0992  0.1192
  588MOL0     H79326  10.663   5.140   8.637  1.3832  0.7878 -0.0609
  588MOL0     H79327  10.850   5.214   8.531  3.4811  0.6149  2.3282
  588MOL0     H79328  10.737   5.349   8.540  0.2958  0.0766 -0.0797
  588MOL0     H79329  10.906   5.399   8.759 -2.1177 -2.5089  0.7410
  588MOL0     H79330  10.945   5.463   8.595 -2.4925  0.8016  1.0450
  588MOL0     H79331  11.140   5.337   8.851  1.4642 -0.5711  0.8582
  588MOL0     H79332  11.392   5.204   8.851 -0.2688  1.0211  0.8830
  588MOL0     H79333  11.451   5.179   8.690  2.1105  0.0400  2.7716
  588MOL0     H79334  11.400   5.445   8.812 -3.2475 -0.6415 -2.9742
  588MOL0     H79335  11.488   5.427   8.665 -0.3421 -3.4740 -1.6673
  588MOL0     H79336  11.595   5.293   8.924  2.0553  1.7091  0.6625
  588MOL0     H79337  11.631   5.450   8.856 -2.3042  0.8834 -0.6282
  588MOL0     H79338  11.732   5.321   8.654 -1.2626 -0.1769 -0.0918
  588MOL0     H79339  11.664   5.171   8.726  0.0484 -0.0999  0.7098
  588MOL0     H79340  11.851   5.142   8.588  0.2403 -1.4469 -0.0266
  588MOL0     H79341  12.092   5.191   8.349 -1.4510  1.4071  0.4017
  588MOL0     H79342  12.129   5.034   8.401  1.4626  2.2170  1.0904
  588MOL0     H79343  11.954   5.091   8.383 -0.5595  1.2362  0.4699
  588MOL0     H79344  12.312   5.141   8.218 -0.6155 -0.8735  0.0997
  588MOL0     H79345  12.505   5.113   8.031  0.0360  0.7547 -0.0084
  588MOL0     H79346  12.858   5.269   8.067 -4.0758 -0.0356  0.5663
  588MOL0     H79347  12.919   5.108   8.145  1.4917 -1.5294 -1.9986
  588MOL0     H79348  12.900   5.159   7.849 -0.8411 -2.4960  0.0531
  588MOL0     H79349  13.043   5.183   7.943 -0.5736  0.2559  1.7615
  588MOL0     H79350  12.846   4.930   7.936  0.0501  1.2463 -3.2131
  588MOL0     H79351  13.003   4.919   8.016  1.2852 -0.1107 -1.3880
  588MOL0     H79352  12.999   4.817   7.770  0.8283 -0.1221 -1.9961
  588MOL0     H79353  12.980   4.983   7.718  2.0408  0.5598 -1.2698
  588MOL0     H79354  13.190   5.041   7.821 -0.1869 -0.3790  0.9854
  588MOL0     H79355  13.208   4.902   7.708 -0.3371 -2.5722  0.7438
  588MOL0     H79356  13.228   4.898   8.012  0.5180 -2.3111 -0.1486
  588MOL0     H79357  13.235   4.754   7.916 -0.8492 -0.5317  2.3144
  588MOL0     H79358  13.430   5.007   7.932  2.0200 -0.9715 -0.1883
  588MOL0     H79359  13.436   4.886   7.801  0.3533  1.1655 -0.8481
  588MOL0     H79360  13.605   4.828   7.962 -0.1895 -1.5508 -0.0153
  588MOL0     H79361  13.483   4.704   7.947  1.0016 -0.0057  0.1526
  588MOL0     H79362  12.796   5.146   8.337 -0.1737 -0.5732 -0.4183
  588MOL0     H79363  12.615   5.170   8.514  0.0001  2.3841  0.2931
  588MOL0     H79364  12.277   5.261   8.828  0.6382  2.0650 -1.8621
  588MOL0     H79365  12.069   5.296   8.929 -1.1654  1.1030 -0.6158
  588MOL0     H79366  10.043   5.716   8.999  2.6347 -2.8941  1.4210
  588MOL0     H79367   9.846   5.784   9.126 -0.4277 -0.0796  0.9260
  588MOL0     H79368   9.271   5.853   9.014  0.9356 -2.9702 -0.9345
  588MOL0     H79369   9.079   5.858   9.169 -0.9977 -0.7622  2.8210
  588MOL0     H79370   8.938   5.673   9.532 -0.0080 -0.7449 -0.5386
  588MOL0     H79371   9.092   5.596   9.512 -2.5943 -0.8221 -0.6782
  588MOL0     H79372   9.038   5.878   9.650 -0.4908  0.9582 -0.5669
  588MOL0     H79373   9.194   5.799   9.608 -1.2279 -1.0280 -1.8848
  588MOL0     H79374   9.169   5.629   9.758  2.3113 -0.3331  3.5502
  588MOL0     H79375   8.997   5.646   9.794 -1.1504  1.1191 -1.5930
  588MOL0     H79376   9.087   5.878   9.904 -0.7952  0.2051  3.2751
  588MOL0     H79377   9.242   5.814   9.862 -0.7404  1.0756 -0.3562
  588MOL0     H79378   9.134   5.596  10.208 -2.0691 -1.2173 -0.2526
  588MOL0     H79379   9.298   5.617   9.446  1.1126  0.0927  0.3203
  588MOL0     H79380   9.482   5.602   9.305 -1.7060 -0.2391  1.2052
  589MOL0     O79381   6.650   7.142   4.537  0.6047 -0.3330  0.2707
  589MOL0     C79382   6.738   7.108   4.612  0.5129 -0.3709  0.2712
  589MOL0     O79383   6.724   7.063   4.746  0.1845 -0.4263 -0.0392
  589MOL0     C79384   6.598   7.030   4.776 -0.2813  0.4368  0.0951
  589MOL0     C79385   6.511   6.954   4.694 -0.0709  0.0089  0.2537
  589MOL0     C79386   6.380   6.919   4.720  0.5809 -0.3878 -0.1445
  589MOL0     C79387   6.325   6.972   4.838 -0.5062  0.8081 -0.2373
  589MOL0     O79388   6.199   6.932   4.868 -0.0344 -0.0537 -0.8383
  589MOL0     C79389   6.136   7.013   4.964 -0.1004 -1.3429  0.2905
  589MOL0     C79390   5.984   7.000   4.944  0.2269  0.5930 -0.3930
  589MOL0     C79391   5.893   7.030   5.065 -0.7803  0.1474  0.7601
  589MOL0     C79392   5.896   6.927   5.172  0.8356 -0.1346  0.6433
  589MOL0     C79393   5.787   6.933   5.284  0.3118 -0.3310 -0.4509
  589MOL0     C79394   5.640   6.937   5.232  0.0055  0.3456  0.4223
  589MOL0     C79395   5.539   6.962   5.350 -0.1217 -0.8742 -0.4526
  589MOL0     C79396   5.506   6.835   5.430  0.0517 -0.4567  0.0706
  589MOL0     N79397   5.428   6.731   5.354  0.5358  0.5336 -0.7842
  589MOL0     C79398   5.289   6.734   5.313 -0.1056 -0.5187 -0.0379
  589MOL0     C79399   5.256   6.602   5.293  0.7352 -0.0152 -0.8048
  589MOL0     C79400   5.120   6.559   5.263 -0.0236  0.6598  0.0131
  589MOL0     C79401   5.083   6.575   5.117 -0.1716  1.3260 -0.0338
  589MOL0     C79402   4.928   6.567   5.097 -0.6641  0.3739 -0.1821
  589MOL0     C79403   4.897   6.550   4.952 -0.6164 -0.3369  0.0792
  589MOL0     O79404   4.895   6.668   4.872  0.6043  0.3749  0.5206
  589MOL0     C79405   4.787   6.676   4.779 -0.0723 -0.3747 -0.4211
  589MOL0     C79406   4.796   6.631   4.644 -0.6507 -0.2663 -0.0410
  589MOL0     C79407   4.711   6.668   4.538  1.3829  0.2121 -0.4154
  589MOL0     C79408   4.742   6.622   4.401  0.5441 -0.3589  0.2218
  589MOL0     C79409   4.600   6.754   4.571 -0.8803 -0.0924  0.5323
  589MOL0     C79410   4.515   6.810   4.466 -0.3425 -0.3453  0.5819
  589MOL0     O79411   4.402   6.856   4.517 -0.5018 -0.3112 -0.0950
  589MOL0     C79412   4.319   6.927   4.433 -0.0334  0.0273 -0.5331
  589MOL0     C79413   4.180   6.917   4.473  0.9669 -0.1058 -0.3729
  589MOL0     C79414   4.076   6.985   4.412  0.1921  0.4983 -0.9229
  589MOL0     C79415   4.102   7.058   4.295  0.7372  0.0007  0.2235
  589MOL0     O79416   4.003   7.132   4.226 -0.0278  0.7526  0.2516
  589MOL0     C79417   3.879   7.066   4.195 -0.1167  0.5611  0.0601
  589MOL0     C79418   3.771   7.178   4.175 -0.5390  0.3695 -0.2484
  589MOL0     C79419   3.630   7.125   4.182 -0.5547  0.0344  0.5147
  589MOL0     C79420   3.522   7.236   4.203 -0.0615 -0.1260 -0.2759
  589MOL0     C79421   3.464   7.288   4.067  0.5002 -0.0123  0.0291
  589MOL0     C79422   3.357   7.396   4.081  0.3954 -0.7450  0.5346
  589MOL0     C79423   3.242   7.347   4.170 -0.2358  0.3813  0.3339
  589MOL0     C79424   3.113   7.426   4.128  0.5279 -0.4756 -0.9349
  589MOL0    Cl79425   2.967   7.316   4.153  0.2019 -0.0884 -0.2423
  589MOL0     C79426   4.234   7.063   4.252 -1.1836  0.4694 -0.2722
  589MOL0     C79427   4.342   7.001   4.314  0.6312  0.5575 -0.2654
  589MOL0     O79428   4.548   6.807   4.350  0.7994 -0.9943  0.6267
  589MOL0     C79429   4.583   6.782   4.709 -0.3291  0.1784  1.1608
  589MOL0     C79430   4.674   6.744   4.809 -0.1339 -0.4512 -0.8187
  589MOL0     N79431   5.365   6.518   5.316 -0.4465 -0.7390  0.0153
  589MOL0     N79432   5.465   6.593   5.334 -0.6556 -0.1395  0.6260
  589MOL0     C79433   6.403   7.061   4.918 -1.3014  0.3348 -0.1842
  589MOL0     C79434   6.545   7.077   4.894  0.2002  0.2310 -0.9003
  589MOL0     C79435   6.877   7.139   4.577 -0.4219 -0.1378 -1.3113
  589MOL0     C79436   6.908   7.172   4.438  0.9132 -0.3432  0.6476
  589MOL0     C79437   7.036   7.206   4.404 -0.3492  0.0765 -0.5348
  589MOL0     C79438   7.142   7.203   4.500  0.8398 -0.4299  0.3798
  589MOL0     O79439   7.263   7.246   4.476  0.1107  0.5404  0.1987
  589MOL0     C79440   7.302   7.293   4.343  0.7677  0.4408 -0.6458
  589MOL0     C79441   7.449   7.290   4.324  0.2456 -0.3643 -0.6070
  589MOL0     C79442   7.528   7.402   4.407 -0.2672  0.4884  0.5116
  589MOL0     C79443   7.674   7.347   4.431  0.7455  0.1253  0.4532
  589MOL0     C79444   7.749   7.322   4.308 -0.6790 -0.2846  0.1193
  589MOL0     C79445   7.796   7.288   4.207 -0.0340 -0.6618  0.1885
  589MOL0     C79446   7.114   7.158   4.628  0.9604  0.4330 -0.5326
  589MOL0     C79447   6.978   7.130   4.669  0.9525 -0.2598 -0.1407
  589MOL0     H79448   6.556   6.913   4.604 -0.5260  1.7329 -0.7962
  589MOL0     H79449   6.318   6.874   4.643  0.7683  0.3892 -0.7615
  589MOL0     H79450   6.164   6.969   5.061 -0.7375 -0.8815  0.6914
  589MOL0     H79451   6.143   7.121   4.972 -4.2564 -0.7941 -0.9580
  589MOL0     H79452   5.963   7.085   4.879 -0.7341  0.5472 -0.1572
  589MOL0     H79453   5.961   6.908   4.888 -0.2245  2.2655 -3.1643
  589MOL0     H79454   5.914   7.126   5.114 -3.1327 -0.1735  2.5838
  589MOL0     H79455   5.794   7.038   5.020 -0.1035  2.2738 -0.5307
  589MOL0     H79456   5.900   6.828   5.125  4.6665  1.9835 -4.2797
  589MOL0     H79457   5.995   6.938   5.217  1.4043 -1.8542 -0.1061
  589MOL0     H79458   5.799   6.839   5.338 -0.1785  0.6981  1.5352
  589MOL0     H79459   5.798   7.021   5.348 -2.1792 -1.1535  1.2441
  589MOL0     H79460   5.620   7.018   5.162 -1.9219  0.2434  0.7891
  589MOL0     H79461   5.620   6.843   5.179 -0.2693 -0.0285  1.1748
  589MOL0     H79462   5.575   7.045   5.413 -1.6178  2.1876 -3.3133
  589MOL0     H79463   5.447   6.998   5.303  1.5141  1.9033 -1.7869
  589MOL0     H79464   5.461   6.869   5.524  2.3004 -0.7997  1.3318
  589MOL0     H79465   5.602   6.793   5.462 -1.9612 -4.5976  1.4384
  589MOL0     H79466   5.219   6.817   5.309  3.2890  2.6512  0.3900
  589MOL0     H79467   5.116   6.451   5.280 -3.4892  0.5935 -0.5564
  589MOL0     H79468   5.058   6.613   5.334  0.9473  0.7528  0.8086
  589MOL0     H79469   5.133   6.497   5.059  0.9644  2.8054 -1.0953
  589MOL0     H79470   5.125   6.668   5.076  1.5545 -0.0327 -1.5227
  589MOL0     H79471   4.878   6.657   5.135 -0.6986  0.7703 -1.1327
  589MOL0     H79472   4.890   6.482   5.155  0.6097  0.2010  0.4284
  589MOL0     H79473   4.799   6.503   4.955 -1.2109  0.6699 -1.8464
  589MOL0     H79474   4.961   6.474   4.907 -1.2315  0.1087 -1.6339
  589MOL0     H79475   4.874   6.560   4.617  0.2124  0.4080  0.6424
  589MOL0     H79476   4.767   6.709   4.339 -3.5038  0.3396 -0.7217
  589MOL0     H79477   4.820   6.546   4.403 -1.4267 -2.5046  0.5416
  589MOL0     H79478   4.653   6.581   4.352  0.0286  1.5082 -0.5013
  589MOL0     H79479   4.152   6.847   4.552 -1.2020  1.8695  0.7390
  589MOL0     H79480   3.975   6.978   4.452  0.6910  0.9182  0.4570
  589MOL0     H79481   3.885   7.010   4.102 -1.4023  0.7004 -0.1214
  589MOL0     H79482   3.849   7.002   4.278  0.8976 -1.1693 -0.8700
  589MOL0     H79483   3.793   7.258   4.247  1.3041  0.1038 -0.4604
  589MOL0     H79484   3.790   7.229   4.080 -0.5801 -0.4733 -0.7099
  589MOL0     H79485   3.639   7.064   4.272  2.4260  0.3842  0.5414
  589MOL0     H79486   3.605   7.065   4.094  3.0179  0.2222 -0.7892
  589MOL0     H79487   3.445   7.197   4.270 -1.2722  0.7439 -1.1102
  589MOL0     H79488   3.565   7.328   4.245 -2.9409  2.0092 -1.6239
  589MOL0     H79489   3.418   7.200   4.020  0.9057  0.4350 -1.2344
  589MOL0     H79490   3.546   7.318   4.003 -1.8009  0.5972 -2.8563
  589MOL0     H79491   3.399   7.483   4.131  1.3225 -0.5814 -0.4906
  589MOL0     H79492   3.325   7.432   3.982 -2.4480 -2.4393  0.7002
  589MOL0     H79493   3.273   7.366   4.274 -0.8892  2.0044  0.2514
  589MOL0     H79494   3.225   7.241   4.150 -1.9451  0.3589  1.6613
  589MOL0     H79495   3.115   7.458   4.023  1.8106 -0.2709 -0.8590
  589MOL0     H79496   3.100   7.521   4.181 -2.6033 -1.0449 -0.4727
  589MOL0     H79497   4.264   7.120   4.165  1.8872 -1.8056 -0.8717
  589MOL0     H79498   4.443   7.017   4.279  0.3303 -2.1199 -2.7183
  589MOL0     H79499   4.512   6.858   4.739  0.8886  3.2315 -2.8418
  589MOL0     H79500   4.658   6.768   4.914  1.2296 -2.6142 -0.0574
  589MOL0     H79501   6.378   7.101   5.015  3.3355 -1.6914  2.1503
  589MOL0     H79502   6.622   7.130   4.948 -0.4071  2.1533 -1.8418
  589MOL0     H79503   6.831   7.157   4.362  2.3093  0.2272 -0.9426
  589MOL0     H79504   7.043   7.261   4.311 -2.1128  0.0519 -0.7116
  589MOL0     H79505   7.268   7.221   4.268  0.2788  0.2168 -0.2137
  589MOL0     H79506   7.272   7.396   4.323  1.3412  0.9694  1.0270
  589MOL0     H79507   7.473   7.303   4.218  0.3779  4.5613 -0.2054
  589MOL0     H79508   7.471   7.185   4.348 -1.6196 -0.6982 -0.2399
  589MOL0     H79509   7.490   7.407   4.509 -1.4863  0.3752  0.0698
  589MOL0     H79510   7.519   7.503   4.366  0.4434  0.2217 -0.3608
  589MOL0     H79511   7.656   7.248   4.475 -1.0833  1.0624  1.9848
  589MOL0     H79512   7.720   7.415   4.503  1.7250 -0.3079  0.2480
  589MOL0     H79513   7.827   7.246   4.113 -0.1348  0.3024 -0.2851
  589MOL0     H79514   7.196   7.170   4.698 -1.0295  0.3941  1.9239
  589MOL0     H79515   6.947   7.120   4.773 -4.0775  1.1769 -1.2437
  590MOL0     O79516   1.767  11.306   9.669 -0.3380 -0.4210  0.6204
  590MOL0     C79517   1.824  11.220   9.727  0.8931  1.2059 -0.9496
  590MOL0     O79518   1.754  11.114   9.777  0.2741  0.3813 -0.3953
  590MOL0     C79519   1.619  11.102   9.743 -0.6010 -1.3188  0.3765
  590MOL0     C79520   1.583  11.020   9.633 -0.2148 -0.3216  1.2449
  590MOL0     C79521   1.451  11.023   9.591 -0.0191  0.9985 -0.8557
  590MOL0     C79522   1.349  11.088   9.659 -0.3674 -0.2640 -0.5758
  590MOL0     O79523   1.212  11.088   9.624 -0.2608  0.1900  0.0226
  590MOL0     C79524   1.173  11.007   9.514 -0.0131 -0.2836 -0.3547
  590MOL0     C79525   1.021  11.027   9.505  0.7016 -0.4134 -0.1064
  590MOL0     C79526   0.984  11.175   9.482 -0.3779  0.7382 -0.1907
  590MOL0     C79527   0.837  11.191   9.423  0.9693 -0.2586 -0.2085
  590MOL0     C79528   0.792  11.334   9.414  0.3047 -0.0264  0.2305
  590MOL0     C79529   0.742  11.381   9.552 -0.4824 -1.2484  0.0897
  590MOL0     C79530   0.596  11.399   9.553 -0.1124  0.4067 -0.6492
  590MOL0     C79531   0.524  11.264   9.578  0.2382 -0.3447 -0.4876
  590MOL0     N79532   0.376  11.277   9.574  0.1970 -0.8596 -0.0435
  590MOL0     C79533   0.301  11.338   9.674 -0.1060  0.6657  0.3160
  590MOL0     C79534   0.178  11.342   9.624  0.2328  0.0257 -1.0426
  590MOL0     C79535   0.057  11.415   9.679 -0.5607  0.5271  0.2930
  590MOL0     C79536   0.036  11.525   9.578  0.6181 -0.7621  0.7489
  590MOL0     C79537  -0.097  11.600   9.609 -0.2453  0.2433 -0.7248
  590MOL0     C79538  -0.115  11.640   9.751 -0.2428  0.1350 -0.5406
  590MOL0     O79539  -0.236  11.728   9.770 -1.1250  0.5843 -0.5110
  590MOL0     C79540  -0.361  11.678   9.756  0.3860  0.4902  0.3651
  590MOL0     C79541  -0.459  11.780   9.748  0.0109  0.2573  0.0429
  590MOL0     C79542  -0.596  11.751   9.748 -0.0560 -0.1313 -0.6236
  590MOL0     C79543  -0.684  11.860   9.724 -0.5704 -0.4249 -0.3429
  590MOL0     C79544  -0.639  11.616   9.759  0.4687 -0.2018  0.1440
  590MOL0     C79545  -0.778  11.575   9.784  0.1339 -0.6194  0.6641
  590MOL0     O79546  -0.868  11.669   9.819 -0.1775 -0.0767 -0.7568
  590MOL0     C79547  -0.999  11.648   9.850 -0.1606  0.1764 -0.6264
  590MOL0     C79548  -1.048  11.521   9.900  0.3340 -0.2457  0.0769
  590MOL0     C79549  -1.183  11.516   9.957 -0.1450 -0.0443  0.8050
  590MOL0     C79550  -1.258  11.636   9.965 -0.0481  0.2384 -1.3757
  590MOL0     O79551  -1.384  11.641  10.030 -0.4263  0.5129  0.2211
  590MOL0     C79552  -1.437  11.519  10.086  0.0499  0.1695 -0.3737
  590MOL0     C79553  -1.566  11.561  10.149  0.1413  0.2870 -0.2603
  590MOL0     C79554  -1.628  11.441  10.212 -0.1700  0.1833 -0.4712
  590MOL0     C79555  -1.767  11.472  10.267  0.0570 -0.3747 -1.0483
  590MOL0     C79556  -1.823  11.344  10.324 -0.4416  1.0255  0.8316
  590MOL0     C79557  -1.967  11.360  10.372 -0.0368  0.3126 -0.8169
  590MOL0     C79558  -2.014  11.226  10.444 -0.5744  0.0679 -0.1841
  590MOL0     C79559  -2.158  11.238  10.496  0.2734  0.2044 -0.4932
  590MOL0    Cl79560  -2.184  11.369  10.615 -0.2276  0.1067 -0.2206
  590MOL0     C79561  -1.206  11.755   9.921 -0.2950 -0.3468 -0.1690
  590MOL0     C79562  -1.075  11.760   9.871  0.3509  0.1079 -0.2622
  590MOL0     O79563  -0.808  11.467   9.747 -0.7503  0.1163 -0.4926
  590MOL0     C79564  -0.542  11.518   9.765 -0.2451 -0.8972  0.7744
  590MOL0     C79565  -0.404  11.539   9.759  0.1919 -0.7142  0.6250
  590MOL0     N79566   0.175  11.275   9.504  0.4867 -0.0697 -0.2335
  590MOL0     N79567   0.294  11.240   9.472 -0.1586 -0.5007  0.2226
  590MOL0     C79568   1.382  11.178   9.753  0.3449 -0.1431  0.3982
  590MOL0     C79569   1.515  11.190   9.796 -0.3528 -0.2237 -0.2400
  590MOL0     C79570   1.965  11.219   9.734  0.5855  0.1576  0.1337
  590MOL0     C79571   2.043  11.324   9.682  0.3871  0.2496  0.1303
  590MOL0     C79572   2.176  11.337   9.707  0.3812  0.4033 -0.3037
  590MOL0     C79573   2.255  11.239   9.767  0.3487 -0.2433 -0.2058
  590MOL0     O79574   2.393  11.254   9.760  0.8809  0.2895 -0.2006
  590MOL0     C79575   2.473  11.186   9.862  0.4824  0.7401 -0.5672
  590MOL0     C79576   2.530  11.057   9.813  0.1577  0.2085  0.7646
  590MOL0     C79577   2.632  11.087   9.708 -0.2968 -0.7012  0.4144
  590MOL0     C79578   2.684  10.959   9.639 -0.3631  0.7542 -0.3513
  590MOL0     C79579   2.772  11.009   9.530  0.3302  0.7192  1.0125
  590MOL0     C79580   2.834  11.068   9.443 -0.5504 -0.6882  0.2735
  590MOL0     C79581   2.181  11.134   9.821 -0.7093 -0.0033  0.0839
  590MOL0     C79582   2.040  11.124   9.809 -0.6006  0.3479  0.6712
  590MOL0     H79583   1.659  10.961   9.582  1.5645  2.2172  0.7786
  590MOL0     H79584   1.427  10.974   9.498  2.7204  0.3533 -1.3267
  590MOL0     H79585   1.237  11.036   9.430  0.4911  0.6162  0.3253
  590MOL0     H79586   1.208  10.904   9.529  2.3474  0.6106  0.6908
  590MOL0     H79587   0.981  10.962   9.426 -0.6884  0.6584 -0.3137
  590MOL0     H79588   0.976  10.985   9.596 -1.3480 -0.0990 -0.9109
  590MOL0     H79589   0.993  11.215   9.584  1.4919 -1.5782  0.6370
  590MOL0     H79590   1.053  11.216   9.407 -1.0393  0.4874 -0.9441
  590MOL0     H79591   0.835  11.140   9.326  0.0436 -2.0142  0.6800
  590MOL0     H79592   0.763  11.129   9.475 -0.3964  1.6505  0.2037
  590MOL0     H79593   0.877  11.394   9.380  0.2083 -0.4395 -0.7819
  590MOL0     H79594   0.719  11.347   9.334  1.9123  1.7010 -1.0385
  590MOL0     H79595   0.773  11.321   9.638  1.8286  0.1965  0.3726
  590MOL0     H79596   0.776  11.484   9.572  0.7959 -1.6903  0.3021
  590MOL0     H79597   0.576  11.472   9.632  1.8293 -0.9448  1.1889
  590MOL0     H79598   0.561  11.447   9.461 -1.6633 -0.1348 -0.3607
  590MOL0     H79599   0.561  11.233   9.675  2.9662  4.2623  0.2642
  590MOL0     H79600   0.558  11.188   9.507  1.3864 -1.8335  1.5703
  590MOL0     H79601   0.335  11.367   9.773 -0.1994 -0.3178  0.6428
  590MOL0     H79602  -0.026  11.344   9.690  0.4203 -0.5989  0.6133
  590MOL0     H79603   0.077  11.461   9.777 -0.8541  1.4880 -0.0880
  590MOL0     H79604   0.020  11.487   9.477 -1.1371  3.4852 -0.8089
  590MOL0     H79605   0.123  11.591   9.575  1.4200 -1.8477 -1.3787
  590MOL0     H79606  -0.184  11.538   9.590  1.2267 -2.2611  0.2726
  590MOL0     H79607  -0.108  11.681   9.537  0.2281  2.0739  1.1399
  590MOL0     H79608  -0.027  11.693   9.789  0.4693 -3.1404  3.0247
  590MOL0     H79609  -0.118  11.556   9.821  0.6660 -2.4345 -3.3769
  590MOL0     H79610  -0.425  11.878   9.716 -0.7356  0.2438 -0.8411
  590MOL0     H79611  -0.750  11.832   9.641  0.6066  2.0801 -2.2645
  590MOL0     H79612  -0.746  11.881   9.812 -1.1556  2.8611 -1.4135
  590MOL0     H79613  -0.628  11.951   9.703 -1.0540 -0.2245 -0.7876
  590MOL0     H79614  -0.991  11.428   9.890  2.7398  1.0541  0.8702
  590MOL0     H79615  -1.223  11.423   9.996  1.2523 -1.9238 -1.8971
  590MOL0     H79616  -1.459  11.450  10.004  1.7347  1.3516 -1.8772
  590MOL0     H79617  -1.376  11.470  10.164 -0.1209  2.4623  1.2867
  590MOL0     H79618  -1.564  11.651  10.211  2.5506  1.0650 -1.3472
  590MOL0     H79619  -1.632  11.591  10.067  0.0651 -0.1874 -0.3775
  590MOL0     H79620  -1.569  11.385  10.286  0.4554  1.3457 -0.0541
  590MOL0     H79621  -1.653  11.371  10.132 -0.9754 -0.4097  0.2661
  590MOL0     H79622  -1.763  11.550  10.344 -1.0487  0.1169 -1.4728
  590MOL0     H79623  -1.833  11.508  10.188  0.2413 -2.7898 -2.3996
  590MOL0     H79624  -1.753  11.305  10.398 -2.7939 -2.9035  1.2552
  590MOL0     H79625  -1.824  11.270  10.245  0.0942  2.0939 -0.2088
  590MOL0     H79626  -1.975  11.436  10.451  1.3529 -0.3107 -0.0220
  590MOL0     H79627  -2.043  11.373  10.295 -0.6893 -0.5187 -0.3216
  590MOL0     H79628  -1.957  11.209  10.536  0.0267  1.4853 -0.2605
  590MOL0     H79629  -2.005  11.143  10.373  1.5232 -0.5525  0.7232
  590MOL0     H79630  -2.193  11.144  10.541 -1.8820 -0.3489 -3.0733
  590MOL0     H79631  -2.227  11.240  10.411 -2.0221  3.6228  1.2278
  590MOL0     H79632  -1.259  11.849   9.930  0.6906  0.1908  0.1498
  590MOL0     H79633  -1.040  11.860   9.845  0.2010  0.2036 -0.0936
  590MOL0     H79634  -0.572  11.414   9.758 -0.8324 -0.6250 -2.5748
  590MOL0     H79635  -0.328  11.462   9.762  2.5708  0.9053 -4.8889
  590MOL0     H79636   1.301  11.229   9.803 -2.5130 -1.5183 -2.4870
  590MOL0     H79637   1.551  11.257   9.874  2.0205 -1.9695  0.2596
  590MOL0     H79638   1.995  11.397   9.617 -1.0324 -0.3679  0.4504
  590MOL0     H79639   2.233  11.416   9.658  1.1892 -2.3486 -4.3214
  590MOL0     H79640   2.549  11.261   9.887  1.4711  0.3938 -2.3194
  590MOL0     H79641   2.415  11.165   9.952 -1.3231 -2.4712 -2.2841
  590MOL0     H79642   2.446  10.997   9.777 -0.0799  0.3897  1.0193
  590MOL0     H79643   2.579  10.996   9.890 -0.2312 -1.5859 -0.3404
  590MOL0     H79644   2.719  11.128   9.760  0.3310  0.3250 -1.3534
  590MOL0     H79645   2.591  11.157   9.634 -1.4142  0.6703  2.2538
  590MOL0     H79646   2.605  10.898   9.595 -1.2535  1.1445  0.6564
  590MOL0     H79647   2.738  10.893   9.708 -1.6914 -1.8604 -1.6698
  590MOL0     H79648   2.880  11.118   9.360  1.2128  1.0329  2.1673
  590MOL0     H79649   2.223  11.047   9.870 -1.1321 -0.1037  0.2736
  590MOL0     H79650   2.002  11.044   9.871 -1.3342 -0.1173 -0.3457
  591MOL0     O79651   8.593   2.691   7.647  0.4369 -0.7959 -0.1152
  591MOL0     C79652   8.590   2.688   7.522  0.1230  0.5276  0.1166
  591MOL0     O79653   8.479   2.723   7.443 -0.4690  0.5234  0.2208
  591MOL0     C79654   8.367   2.758   7.508  0.1148 -0.3776  0.3269
  591MOL0     C79655   8.269   2.664   7.524  1.3914 -0.3652  0.1377
  591MOL0     C79656   8.154   2.683   7.596 -0.5643  0.2881  0.2436
  591MOL0     C79657   8.126   2.804   7.651 -0.4169 -0.1039  0.8000
  591MOL0     O79658   8.006   2.827   7.714  0.3877 -0.4348  0.3269
  591MOL0     C79659   8.013   2.783   7.853  0.0630 -0.2581 -0.1461
  591MOL0     C79660   7.914   2.668   7.871  0.2203 -0.3511  0.9716
  591MOL0     C79661   7.772   2.710   7.863 -0.3102  0.0612 -0.0435
  591MOL0     C79662   7.675   2.591   7.863  0.0554 -1.1356  1.1523
  591MOL0     C79663   7.544   2.647   7.910 -0.3823  0.5454 -0.1534
  591MOL0     C79664   7.431   2.548   7.889 -0.4102  0.0503 -0.7237
  591MOL0     C79665   7.380   2.555   7.736 -0.9310 -0.0074  0.6602
  591MOL0     C79666   7.237   2.547   7.728 -0.0275 -0.7996  0.6198
  591MOL0     N79667   7.216   2.565   7.583 -0.0215 -0.3749  0.0963
  591MOL0     C79668   7.219   2.687   7.527  0.4389  0.3269 -0.3868
  591MOL0     C79669   7.165   2.671   7.410 -0.3129 -0.6599  0.5817
  591MOL0     C79670   7.128   2.778   7.307 -0.3526  0.1101  0.3882
  591MOL0     C79671   7.119   2.924   7.360  0.1918 -0.2921  0.2168
  591MOL0     C79672   7.057   3.023   7.259  0.6989 -0.3755 -0.2517
  591MOL0     C79673   6.915   2.987   7.203 -0.3681 -0.4989 -0.1441
  591MOL0     O79674   6.842   2.903   7.295 -0.0749 -0.4326  0.3780
  591MOL0     C79675   6.719   2.854   7.267  0.4410 -0.3859  0.3915
  591MOL0     C79676   6.657   2.867   7.137 -0.2667 -1.3542 -0.5442
  591MOL0     C79677   6.543   2.801   7.105 -0.1326  0.2076  0.0000
  591MOL0     C79678   6.497   2.817   6.964  0.1610 -0.3097  1.0110
  591MOL0     C79679   6.481   2.716   7.202 -0.0580  0.1156 -0.3078
  591MOL0     C79680   6.368   2.624   7.167 -0.5942 -0.4412 -0.6968
  591MOL0     O79681   6.356   2.565   7.036 -0.4235 -0.3257  0.1956
  591MOL0     C79682   6.238   2.527   6.981 -0.1645  1.2246 -0.4028
  591MOL0     C79683   6.242   2.447   6.864 -1.2148  0.0962  0.3173
  591MOL0     C79684   6.122   2.395   6.818  0.2901  0.9491  0.5217
  591MOL0     C79685   5.997   2.429   6.864 -1.2669 -0.4101  0.8280
  591MOL0     O79686   5.889   2.375   6.797 -0.2167  0.6763 -0.4425
  591MOL0     C79687   5.768   2.450   6.792  0.0995 -0.5820 -0.0896
  591MOL0     C79688   5.663   2.377   6.701 -0.1392  0.4032  1.5851
  591MOL0     C79689   5.526   2.447   6.716 -1.4787  0.0352  0.3773
  591MOL0     C79690   5.431   2.391   6.612 -0.5726  0.1642  0.7630
  591MOL0     C79691   5.293   2.439   6.620 -0.8545  0.0153 -0.2844
  591MOL0     C79692   5.269   2.574   6.552 -0.0840  0.1504 -0.3963
  591MOL0     C79693   5.109   2.585   6.567 -0.9004 -0.7815  0.0128
  591MOL0     C79694   5.046   2.716   6.520 -0.1311  0.0842 -0.5157
  591MOL0    Cl79695   5.090   2.754   6.345 -0.2797 -0.1018  0.1304
  591MOL0     C79696   5.994   2.536   6.964  0.0289  0.2096 -0.2370
  591MOL0     C79697   6.118   2.580   7.023 -0.1893  0.5960 -0.4225
  591MOL0     O79698   6.305   2.598   7.262  0.7207  1.0794  0.3036
  591MOL0     C79699   6.540   2.711   7.335 -0.1627 -0.0272 -0.1376
  591MOL0     C79700   6.659   2.776   7.365 -0.2054  0.9065 -0.4156
  591MOL0     N79701   7.129   2.537   7.392  0.7378  0.6051 -0.0213
  591MOL0     N79702   7.167   2.479   7.493  0.1808 -0.0325 -0.6605
  591MOL0     C79703   8.217   2.906   7.624 -0.0857  0.3593 -0.2421
  591MOL0     C79704   8.333   2.890   7.545  0.0363 -0.1541  0.0383
  591MOL0     C79705   8.716   2.654   7.448 -0.0775  0.1284  0.6984
  591MOL0     C79706   8.805   2.551   7.496  0.1997  0.0849  0.4714
  591MOL0     C79707   8.934   2.544   7.435 -0.5282 -1.1530  0.3439
  591MOL0     C79708   8.956   2.617   7.317  0.5304  0.3669  0.3056
  591MOL0     O79709   9.081   2.613   7.259  0.5043  0.3511 -0.1907
  591MOL0     C79710   9.147   2.487   7.259  0.0103  0.1417  0.2076
  591MOL0     C79711   9.285   2.508   7.194 -0.0340 -0.3797  0.5770
  591MOL0     C79712   9.275   2.548   7.046 -0.3103  0.0379 -0.8264
  591MOL0     C79713   9.245   2.425   6.956 -0.4526 -0.8672  0.4154
  591MOL0     C79714   9.275   2.469   6.819  0.1137  0.4102  0.1995
  591MOL0     C79715   9.309   2.527   6.708 -0.3678  0.4802 -0.2605
  591MOL0     C79716   8.868   2.710   7.268  0.0876  0.2131 -0.7510
  591MOL0     C79717   8.746   2.732   7.334 -0.3080 -0.2146 -0.3244
  591MOL0     H79718   8.299   2.561   7.508  2.8266 -1.0723  5.4396
  591MOL0     H79719   8.083   2.602   7.611 -1.3217  0.6958 -0.9996
  591MOL0     H79720   8.111   2.747   7.887 -1.4390 -2.6273  2.1360
  591MOL0     H79721   7.979   2.862   7.920  0.0779  0.1107 -0.5681
  591MOL0     H79722   7.936   2.591   7.796 -0.5214 -0.6656  1.0685
  591MOL0     H79723   7.945   2.615   7.962  0.5503  0.6421  1.4544
  591MOL0     H79724   7.744   2.786   7.937  1.4048  3.7291 -2.8763
  591MOL0     H79725   7.754   2.758   7.767  1.2534 -0.2086 -0.4980
  591MOL0     H79726   7.661   2.550   7.763 -1.0628  0.2885  0.7018
  591MOL0     H79727   7.720   2.528   7.942 -0.6907 -0.7384  1.9106
  591MOL0     H79728   7.559   2.659   8.018 -1.2892  0.6091 -0.0219
  591MOL0     H79729   7.515   2.742   7.865 -1.5963  0.2020 -0.1365
  591MOL0     H79730   7.456   2.443   7.907  1.9955  0.8901  1.5011
  591MOL0     H79731   7.351   2.578   7.958  0.9275 -2.3974  2.1287
  591MOL0     H79732   7.425   2.642   7.687 -0.1323 -1.2243 -0.8566
  591MOL0     H79733   7.427   2.480   7.673 -1.3673  1.3064 -1.3261
  591MOL0     H79734   7.195   2.629   7.786  1.0201  1.8052 -2.0681
  591MOL0     H79735   7.206   2.448   7.763  0.2111  0.0432  3.4278
  591MOL0     H79736   7.251   2.775   7.581 -2.2968  0.6287  0.9619
  591MOL0     H79737   7.211   2.799   7.238 -0.6525  0.1810  0.0413
  591MOL0     H79738   7.037   2.739   7.259  0.4971 -1.6162  0.1111
  591MOL0     H79739   7.215   2.963   7.394  0.1437 -1.4048  1.7820
  591MOL0     H79740   7.062   2.917   7.454  2.0197  1.3027  1.5086
  591MOL0     H79741   7.119   3.027   7.169  0.8315 -0.8999 -0.1844
  591MOL0     H79742   7.058   3.126   7.296  1.6432  1.2773 -4.3090
  591MOL0     H79743   6.933   2.939   7.106 -0.2634  0.6827 -0.7225
  591MOL0     H79744   6.853   3.075   7.189 -0.9777 -0.7660  0.7420
  591MOL0     H79745   6.711   2.932   7.070 -1.3319  0.7795  0.5516
  591MOL0     H79746   6.528   2.750   6.884 -1.3427  3.7798 -3.4901
  591MOL0     H79747   6.388   2.824   6.957  0.3949  2.4474 -2.3141
  591MOL0     H79748   6.536   2.904   6.911  0.0487 -1.7157 -1.5215
  591MOL0     H79749   6.333   2.417   6.814 -2.1171 -1.8098 -0.3048
  591MOL0     H79750   6.128   2.315   6.745 -0.3823 -0.0174  1.4963
  591MOL0     H79751   5.718   2.455   6.890 -0.0096 -1.4994 -0.0922
  591MOL0     H79752   5.800   2.548   6.755  0.8404 -1.6482 -2.4299
  591MOL0     H79753   5.699   2.371   6.597 -3.6569 -1.4196  0.2971
  591MOL0     H79754   5.658   2.275   6.741  0.6927 -0.7994 -1.1047
  591MOL0     H79755   5.545   2.554   6.710 -1.9861  0.0695 -0.8758
  591MOL0     H79756   5.483   2.434   6.816  0.9443 -0.7788  1.3839
  591MOL0     H79757   5.484   2.403   6.517 -0.8322  0.8434  0.6971
  591MOL0     H79758   5.433   2.283   6.624  3.6326  0.0764  0.8444
  591MOL0     H79759   5.274   2.446   6.728 -1.0928  2.3521 -0.4276
  591MOL0     H79760   5.222   2.374   6.567 -0.8360 -1.1979  1.1206
  591MOL0     H79761   5.320   2.661   6.595  0.6030  0.3074 -1.4706
  591MOL0     H79762   5.301   2.574   6.447 -0.4060  2.3877 -0.5558
  591MOL0     H79763   5.083   2.577   6.673 -0.6719 -0.4767  0.0913
  591MOL0     H79764   5.057   2.512   6.503 -0.9730 -1.3224  0.6834
  591MOL0     H79765   5.066   2.804   6.582  0.5088  1.1009 -2.1119
  591MOL0     H79766   4.937   2.706   6.525  0.0811 -2.7898 -0.1006
  591MOL0     H79767   5.898   2.567   7.003 -0.2633 -0.5578 -0.3243
  591MOL0     H79768   6.117   2.646   7.109  0.9893 -0.6235  0.5729
  591MOL0     H79769   6.491   2.646   7.407  1.3868  1.0788  2.0432
  591MOL0     H79770   6.702   2.762   7.464 -1.5813 -0.6891 -0.0116
  591MOL0     H79771   8.183   3.001   7.662  0.9098  0.5057  0.3269
  591MOL0     H79772   8.402   2.974   7.536  1.6608 -1.4496 -0.1103
  591MOL0     H79773   8.774   2.500   7.586  0.7287 -0.9378  0.0844
  591MOL0     H79774   8.999   2.477   7.490  0.0928 -0.0942  0.9406
  591MOL0     H79775   9.170   2.442   7.356  0.8356 -1.0628 -0.5247
  591MOL0     H79776   9.094   2.407   7.205  0.5101  0.0407 -0.1386
  591MOL0     H79777   9.345   2.418   7.208 -1.6891 -1.5562  0.3408
  591MOL0     H79778   9.335   2.588   7.250 -0.1368 -0.5807  0.9538
  591MOL0     H79779   9.371   2.593   7.020  0.3015  0.1371  1.3937
  591MOL0     H79780   9.203   2.629   7.030 -0.4848  0.7131  2.5764
  591MOL0     H79781   9.138   2.402   6.955 -0.3340 -1.4044 -0.4831
  591MOL0     H79782   9.318   2.346   6.974 -0.4712 -0.6216  1.6623
  591MOL0     H79783   9.350   2.566   6.617  0.7844 -1.4634 -0.6344
  591MOL0     H79784   8.900   2.775   7.188 -1.6206  0.4556 -1.2740
  591MOL0     H79785   8.681   2.813   7.303 -2.9766 -1.4395  1.7088
  592MOL0     O79786   4.852   4.387   3.178 -0.0070  0.3179 -0.4228
  592MOL0     C79787   4.832   4.397   3.303  0.1127 -0.0011 -0.1565
  592MOL0     O79788   4.715   4.408   3.361  0.9296 -0.7280  0.0261
  592MOL0     C79789   4.606   4.400   3.269 -0.4329 -0.2725 -0.1985
  592MOL0     C79790   4.564   4.269   3.229  0.0621  0.8889  0.2028
  592MOL0     C79791   4.465   4.251   3.127  0.0460 -0.2011 -0.6154
  592MOL0     C79792   4.391   4.361   3.087 -0.4342  0.6982  0.6090
  592MOL0     O79793   4.278   4.334   3.012 -0.2045  0.0314 -0.0167
  592MOL0     C79794   4.205   4.440   2.954  0.6539 -0.3556 -0.1046
  592MOL0     C79795   4.069   4.389   2.910 -0.4686 -0.6112 -0.2618
  592MOL0     C79796   4.007   4.484   2.805  0.8207  0.4606 -0.9097
  592MOL0     C79797   3.849   4.462   2.792 -0.2351  1.1204  0.1002
  592MOL0     C79798   3.811   4.560   2.684 -0.4559  0.0540  0.0015
  592MOL0     C79799   3.847   4.508   2.548 -0.7710  0.8973 -1.3746
  592MOL0     C79800   3.811   4.621   2.455  0.0186 -0.5330 -0.1135
  592MOL0     C79801   3.875   4.592   2.320 -0.1814 -0.6717  0.8981
  592MOL0     N79802   3.840   4.684   2.216  0.0533  0.2045  0.2141
  592MOL0     C79803   3.769   4.650   2.100  0.6884 -0.5304  0.0356
  592MOL0     C79804   3.739   4.764   2.033  0.5375 -0.2085 -0.6944
  592MOL0     C79805   3.657   4.772   1.910 -0.0257 -0.3056 -0.5856
  592MOL0     C79806   3.531   4.843   1.929  1.0823  0.2801 -0.2338
  592MOL0     C79807   3.435   4.825   1.809  0.3173 -0.0199  0.3709
  592MOL0     C79808   3.303   4.912   1.811  0.3950  0.2240  0.4510
  592MOL0     O79809   3.225   4.888   1.928  0.0880 -0.4625  0.0357
  592MOL0     C79810   3.100   4.937   1.940  0.7203  0.2675  0.6039
  592MOL0     C79811   3.064   5.060   1.868  0.1063 -0.0759  0.1702
  592MOL0     C79812   2.928   5.109   1.863 -0.2609 -0.1476 -0.0385
  592MOL0     C79813   2.900   5.241   1.792 -0.3371  0.2131  1.0413
  592MOL0     C79814   2.829   5.032   1.933 -0.1155 -0.6940  0.1820
  592MOL0     C79815   2.681   5.078   1.931  0.5432  0.7195 -0.2455
  592MOL0     O79816   2.596   4.996   2.010  0.0247 -0.3987  0.3340
  592MOL0     C79817   2.461   5.010   1.999 -0.2853  0.6392  0.8752
  592MOL0     C79818   2.392   4.988   1.880  0.3328 -0.1003  0.1829
  592MOL0     C79819   2.262   4.997   1.875  0.5674  0.4759  0.5048
  592MOL0     C79820   2.180   5.023   1.985  1.1027  0.0264  0.6197
  592MOL0     O79821   2.045   5.031   1.975  0.1822  0.0554 -1.4391
  592MOL0     C79822   1.992   5.070   1.852 -0.5732 -0.0729  0.6830
  592MOL0     C79823   1.841   5.109   1.863 -0.6243 -0.6200  0.2991
  592MOL0     C79824   1.744   4.998   1.900  0.1671 -0.0863 -0.8003
  592MOL0     C79825   1.601   5.057   1.927 -0.5819 -0.2886  0.3904
  592MOL0     C79826   1.513   4.956   1.998  0.1464  0.0681 -0.1205
  592MOL0     C79827   1.375   5.022   2.032  0.1246  0.4903 -0.6436
  592MOL0     C79828   1.258   4.916   2.002 -0.6591  0.6744 -0.0094
  592MOL0     C79829   1.115   4.958   2.033  1.2072  0.1970  0.2855
  592MOL0    Cl79830   1.079   4.963   2.205  0.3166 -0.1211 -0.2906
  592MOL0     C79831   2.242   5.044   2.105 -0.1426 -0.0215  0.7437
  592MOL0     C79832   2.385   5.039   2.112  0.4022  0.3219 -0.1014
  592MOL0     O79833   2.643   5.173   1.859 -0.7579 -0.3808 -0.8645
  592MOL0     C79834   2.867   4.916   2.012  0.5120 -0.0817  0.1169
  592MOL0     C79835   2.999   4.874   2.014  0.2013  0.1007 -0.1369
  592MOL0     N79836   3.792   4.865   2.107  0.2486 -0.4477 -0.6309
  592MOL0     N79837   3.844   4.819   2.216  0.1580  0.3528  0.2786
  592MOL0     C79838   4.434   4.491   3.126 -0.5802 -0.5995 -0.5565
  592MOL0     C79839   4.538   4.513   3.215 -0.1899  0.6875  0.3845
  592MOL0     C79840   4.954   4.383   3.384 -0.1141  0.3432  0.0047
  592MOL0     C79841   5.081   4.395   3.327 -0.1103  0.5684  0.0315
  592MOL0     C79842   5.195   4.390   3.403 -0.2666  0.5043 -0.5306
  592MOL0     C79843   5.189   4.369   3.541  0.7217 -0.1419 -0.3364
  592MOL0     O79844   5.292   4.360   3.635  0.3123 -0.7448 -0.1914
  592MOL0     C79845   5.426   4.399   3.605  0.5563  0.8647  0.0514
  592MOL0     C79846   5.521   4.301   3.682 -0.0801 -1.6486 -0.3078
  592MOL0     C79847   5.563   4.345   3.824  0.5621 -0.1612 -0.5010
  592MOL0     C79848   5.664   4.252   3.887 -0.0133 -0.4246  0.1288
  592MOL0     C79849   5.797   4.291   3.851  0.1167 -0.9157 -1.0183
  592MOL0     C79850   5.912   4.323   3.835 -0.8261  0.0795 -0.0520
  592MOL0     C79851   5.061   4.360   3.600  0.0520  0.4725  0.2297
  592MOL0     C79852   4.943   4.372   3.524  0.3535 -0.0860  0.4805
  592MOL0     H79853   4.603   4.183   3.284 -0.1220  1.7928  1.8039
  592MOL0     H79854   4.436   4.153   3.091 -1.4028 -0.3123  0.7702
  592MOL0     H79855   4.191   4.530   3.015  1.1462  0.0866 -0.6354
  592MOL0     H79856   4.252   4.463   2.858 -0.6415  1.6632 -0.3183
  592MOL0     H79857   4.071   4.286   2.873  1.1484 -1.5490  2.1548
  592MOL0     H79858   4.011   4.390   3.003  2.5824 -1.8362  1.8013
  592MOL0     H79859   4.034   4.581   2.846  1.7386 -0.5462  1.0418
  592MOL0     H79860   4.064   4.472   2.713  2.3827  0.6865 -0.0099
  592MOL0     H79861   3.808   4.362   2.771  0.9912  0.8624 -1.2754
  592MOL0     H79862   3.784   4.496   2.873 -3.7245 -0.0111 -1.9824
  592MOL0     H79863   3.705   4.586   2.678 -0.5188 -0.0156  0.7130
  592MOL0     H79864   3.861   4.654   2.711 -0.5254 -0.1235  0.7663
  592MOL0     H79865   3.949   4.473   2.529 -0.1750  2.4429 -1.1892
  592MOL0     H79866   3.778   4.425   2.530  1.4424 -0.9588 -1.7515
  592MOL0     H79867   3.703   4.630   2.443  0.0078  1.3065  1.0994
  592MOL0     H79868   3.853   4.716   2.486 -3.1582  0.9270  0.0505
  592MOL0     H79869   3.850   4.495   2.275 -0.9474  1.1147 -2.9578
  592MOL0     H79870   3.983   4.600   2.334 -0.2398  2.6028  0.2849
  592MOL0     H79871   3.736   4.550   2.072 -1.2540 -0.0339  0.3595
  592MOL0     H79872   3.720   4.828   1.840 -0.3472  2.4959  1.1838
  592MOL0     H79873   3.631   4.679   1.859 -2.3707  1.0758 -2.0932
  592MOL0     H79874   3.541   4.950   1.948 -1.8156  0.1602  2.9179
  592MOL0     H79875   3.480   4.805   2.018  0.8656 -0.9447 -0.8531
  592MOL0     H79876   3.401   4.722   1.790  2.8404 -1.3856  2.5120
  592MOL0     H79877   3.492   4.859   1.722  0.1140  1.0957  0.6574
  592MOL0     H79878   3.247   4.885   1.721 -0.6430  2.1298  0.4621
  592MOL0     H79879   3.321   5.020   1.801 -1.4066  0.7281  2.0834
  592MOL0     H79880   3.147   5.110   1.820  0.1093  0.8950  1.1496
  592MOL0     H79881   2.991   5.293   1.761 -0.7736 -0.6820 -2.0743
  592MOL0     H79882   2.856   5.212   1.696 -0.1375  3.8794 -0.3316
  592MOL0     H79883   2.844   5.309   1.858 -1.2466  0.1437  0.3631
  592MOL0     H79884   2.449   4.953   1.794  2.2363 -1.4635  1.9016
  592MOL0     H79885   2.222   4.977   1.776 -3.4149 -1.6791  2.3139
  592MOL0     H79886   2.050   5.154   1.811  0.1066 -0.2065  1.3420
  592MOL0     H79887   1.998   4.991   1.777 -2.0623  0.2926  0.1363
  592MOL0     H79888   1.835   5.189   1.937  0.0172  0.4635 -0.7833
  592MOL0     H79889   1.814   5.155   1.768 -0.3004  2.5763  1.6377
  592MOL0     H79890   1.778   4.933   1.981 -1.0271 -0.3530 -0.4993
  592MOL0     H79891   1.732   4.927   1.817 -1.2443 -1.1379  0.2660
  592MOL0     H79892   1.605   5.147   1.989  1.8529 -1.1430  1.5866
  592MOL0     H79893   1.552   5.094   1.837 -0.0432  1.1691  0.6645
  592MOL0     H79894   1.544   4.913   2.093  1.0166 -3.0004 -1.6846
  592MOL0     H79895   1.505   4.877   1.923 -1.4756 -0.4552  0.5599
  592MOL0     H79896   1.371   5.060   2.135  0.7874 -1.9769  0.3774
  592MOL0     H79897   1.343   5.103   1.966 -0.8040  1.6983  1.1966
  592MOL0     H79898   1.277   4.819   2.049 -1.5035  0.8133  0.6676
  592MOL0     H79899   1.269   4.899   1.895  2.1792  4.1545 -0.4513
  592MOL0     H79900   1.052   4.890   1.974  0.1170  0.8664  0.6594
  592MOL0     H79901   1.090   5.056   1.992 -0.4473  0.0393  0.8397
  592MOL0     H79902   2.175   5.043   2.190 -1.1676 -4.0609  0.1340
  592MOL0     H79903   2.432   5.046   2.209  1.0873  1.1650 -0.4768
  592MOL0     H79904   2.786   4.860   2.057 -1.1283  0.3640 -2.0950
  592MOL0     H79905   3.026   4.790   2.076 -1.3568  0.1992  0.7007
  592MOL0     H79906   4.387   4.581   3.089  2.0341  1.5555  0.9534
  592MOL0     H79907   4.576   4.612   3.240 -0.8920  1.0905 -0.1133
  592MOL0     H79908   5.089   4.406   3.219 -1.3590 -1.2779 -0.2952
  592MOL0     H79909   5.289   4.376   3.351  0.1740 -0.7969  0.5722
  592MOL0     H79910   5.443   4.383   3.498 -0.2019  3.3888 -0.5070
  592MOL0     H79911   5.454   4.502   3.627  0.0193  0.8282  0.9770
  592MOL0     H79912   5.614   4.281   3.628  1.3068  0.1889  1.2720
  592MOL0     H79913   5.473   4.202   3.685  0.5717 -1.9486  1.4980
  592MOL0     H79914   5.470   4.327   3.879 -0.1869 -0.6842 -1.8768
  592MOL0     H79915   5.588   4.451   3.829  0.6317 -0.0841 -1.9956
  592MOL0     H79916   5.633   4.148   3.872  2.2692 -1.3095  1.1701
  592MOL0     H79917   5.662   4.262   3.996 -1.5916 -0.7542  0.1595
  592MOL0     H79918   6.017   4.341   3.825 -0.7045  2.5952  3.6803
  592MOL0     H79919   5.063   4.349   3.708 -3.1267  1.9216  0.5682
  592MOL0     H79920   4.847   4.371   3.575  0.4307 -0.2656  0.6224
  593MOL0     O79921   6.710   4.497   7.984 -0.2317  0.3124 -0.0040
  593MOL0     C79922   6.783   4.420   7.924 -0.0608 -1.1693 -0.5488
  593MOL0     O79923   6.756   4.300   7.863 -0.3312  0.0571 -0.2205
  593MOL0     C79924   6.641   4.237   7.897  0.1387 -0.6302 -0.0314
  593MOL0     C79925   6.568   4.257   8.016  1.0314 -0.5502 -0.4943
  593MOL0     C79926   6.458   4.174   8.041  0.2943  0.0631  0.9530
  593MOL0     C79927   6.412   4.082   7.947 -0.1147 -0.8253  0.0938
  593MOL0     O79928   6.319   3.999   8.001 -0.1659 -0.4614 -0.8519
  593MOL0     C79929   6.290   3.882   7.919  0.2488  0.0996 -0.5493
  593MOL0     C79930   6.170   3.796   7.965  0.6144 -0.5044 -0.0175
  593MOL0     C79931   6.040   3.880   7.951  0.2318 -0.1453  0.2083
  593MOL0     C79932   5.920   3.811   8.022 -0.4025 -0.9027  0.1530
  593MOL0     C79933   5.801   3.903   8.012 -0.0743  0.7935  0.0461
  593MOL0     C79934   5.697   3.869   8.111 -0.0378 -0.8542 -0.1748
  593MOL0     C79935   5.568   3.951   8.081 -0.1618 -0.2617 -0.3367
  593MOL0     C79936   5.443   3.873   8.143  0.0954 -1.4093  0.1664
  593MOL0     N79937   5.325   3.931   8.086  0.1444 -0.2154 -0.3733
  593MOL0     C79938   5.240   4.014   8.158  0.1596  0.3024  0.1505
  593MOL0     C79939   5.132   4.022   8.074  0.3988 -0.4598 -0.3578
  593MOL0     C79940   5.015   4.097   8.135 -0.3918 -0.4847 -0.2498
  593MOL0     C79941   4.911   4.128   8.033 -0.6775 -0.2238  0.0527
  593MOL0     C79942   4.832   4.014   7.983 -0.0459  0.0510 -0.5104
  593MOL0     C79943   4.739   4.052   7.870 -0.6600 -0.4598  0.0470
  593MOL0     O79944   4.609   4.097   7.920 -0.5606 -0.5178  0.0746
  593MOL0     C79945   4.506   4.093   7.835  0.0999  0.2510  0.1373
  593MOL0     C79946   4.511   4.061   7.700  0.3755  0.1941  0.2486
  593MOL0     C79947   4.384   4.073   7.632 -0.1821 -0.2198 -0.3416
  593MOL0     C79948   4.386   4.032   7.488  0.6465  0.1699 -0.6453
  593MOL0     C79949   4.262   4.121   7.695 -0.7119 -0.2122 -0.4328
  593MOL0     C79950   4.129   4.128   7.629  1.2631 -0.1730 -0.2876
  593MOL0     O79951   4.080   4.022   7.549 -0.8455 -0.4926 -0.3938
  593MOL0     C79952   3.956   4.037   7.499  0.7099  0.5619  0.0145
  593MOL0     C79953   3.942   4.070   7.359  0.4395  0.2537  0.0033
  593MOL0     C79954   3.824   4.101   7.288 -0.3315 -0.1676  0.1542
  593MOL0     C79955   3.709   4.101   7.363  0.4372 -0.1393 -0.1485
  593MOL0     O79956   3.592   4.141   7.300  0.2154 -0.0302  0.0111
  593MOL0     C79957   3.482   4.186   7.386 -0.0924 -0.4066 -0.8208
  593MOL0     C79958   3.361   4.213   7.295 -0.8611 -0.4910  0.8308
  593MOL0     C79959   3.230   4.245   7.365 -0.6550  0.5174  1.0125
  593MOL0     C79960   3.133   4.287   7.255  0.2790  0.6736 -0.0378
  593MOL0     C79961   3.025   4.366   7.327  0.5837 -0.5102  1.2243
  593MOL0     C79962   2.902   4.393   7.224 -0.5653 -0.1292 -0.9103
  593MOL0     C79963   2.783   4.469   7.299 -0.0019 -0.9888  0.4209
  593MOL0     C79964   2.665   4.484   7.209  0.3546  0.0021 -0.3204
  593MOL0    Cl79965   2.586   4.329   7.178  0.4940  0.1143  0.4076
  593MOL0     C79966   3.705   4.054   7.507  0.0863  0.2099  0.3471
  593MOL0     C79967   3.831   4.023   7.561  0.4601  0.4226 -0.2756
  593MOL0     O79968   4.069   4.231   7.643 -0.3377  0.3376  0.0368
  593MOL0     C79969   4.270   4.156   7.829  0.0977  0.2513 -0.1703
  593MOL0     C79970   4.390   4.145   7.895  0.0368  0.0159  0.1886
  593MOL0     N79971   5.148   3.947   7.964 -0.5540  0.1547 -0.1758
  593MOL0     N79972   5.274   3.901   7.969  0.1547  0.3277  0.2798
  593MOL0     C79973   6.476   4.075   7.825  0.5681  0.2395 -0.4872
  593MOL0     C79974   6.591   4.145   7.807  0.1905 -0.9383 -0.3096
  593MOL0     C79975   6.910   4.483   7.883 -0.3907 -0.6649  0.1557
  593MOL0     C79976   7.007   4.415   7.807  0.2069 -0.0097  0.0115
  593MOL0     C79977   7.121   4.485   7.757 -0.0783  1.0927  0.6801
  593MOL0     C79978   7.140   4.619   7.785  0.5121 -0.8451  0.3521
  593MOL0     O79979   7.241   4.694   7.743  0.7420  0.0624 -0.1769
  593MOL0     C79980   7.357   4.650   7.671  0.4502 -0.1070  0.2423
  593MOL0     C79981   7.463   4.758   7.654 -0.1666 -0.9214  1.1980
  593MOL0     C79982   7.532   4.776   7.787 -0.2665 -0.5292 -0.7158
  593MOL0     C79983   7.689   4.765   7.774  0.5919 -0.7226 -0.0858
  593MOL0     C79984   7.753   4.860   7.675 -0.2836  0.3713  0.1176
  593MOL0     C79985   7.807   4.955   7.618  0.0055 -0.3333  0.4543
  593MOL0     C79986   7.048   4.688   7.864 -0.0402  1.2483  0.2382
  593MOL0     C79987   6.933   4.618   7.914 -0.6400 -0.4555  0.1174
  593MOL0     H79988   6.603   4.332   8.086 -0.8104 -0.2210  0.1357
  593MOL0     H79989   6.403   4.186   8.133  1.2638 -0.5939  1.6369
  593MOL0     H79990   6.265   3.924   7.821  0.2531 -1.8479 -1.4345
  593MOL0     H79991   6.380   3.820   7.907  1.3778  1.4525  0.5365
  593MOL0     H79992   6.165   3.710   7.898  2.1027 -0.3672 -0.3418
  593MOL0     H79993   6.186   3.756   8.065 -0.0669 -0.8308 -0.0396
  593MOL0     H79994   6.051   3.980   7.994 -1.1810 -1.2786  3.5551
  593MOL0     H79995   6.021   3.902   7.846  0.6880  0.7980  0.3076
  593MOL0     H79996   5.904   3.721   7.961  2.0682 -0.6976 -0.9346
  593MOL0     H79997   5.941   3.792   8.128  1.8582  3.3678  0.6990
  593MOL0     H79998   5.835   4.003   8.038  1.5110  0.2917  0.0085
  593MOL0     H79999   5.771   3.891   7.908  2.5109 -1.3673 -0.5586
  593MOL0     H80000   5.668   3.764   8.103  0.8348 -1.3063  1.9803
  593MOL0     H80001   5.730   3.879   8.215 -1.2927  2.3495  0.0459
  593MOL0     H80002   5.583   4.052   8.122 -0.4746  1.2000 -3.5281
  593MOL0     H80003   5.556   3.965   7.974  1.4276  0.3525 -0.4624
  593MOL0     H80004   5.444   3.886   8.251  2.3880 -1.0315  0.1419
  593MOL0     H80005   5.456   3.768   8.113  3.7909 -0.6164 -1.5863
  593MOL0     H80006   5.263   4.062   8.252 -1.9733  0.1426  0.8085
  593MOL0     H80007   4.969   4.044   8.219  0.2152 -1.9470 -0.8083
  593MOL0     H80008   5.056   4.194   8.165  0.0963 -1.0232  0.9089
  593MOL0     H80009   4.966   4.183   7.956  1.5379 -0.8604  1.1100
  593MOL0     H80010   4.839   4.198   8.077  0.7979  0.0505  2.1636
  593MOL0     H80011   4.779   3.965   8.065  0.3506 -2.7087 -1.8031
  593MOL0     H80012   4.897   3.934   7.946 -0.1762 -1.2779  1.9448
  593MOL0     H80013   4.729   3.963   7.807 -0.5678 -3.1426  3.5249
  593MOL0     H80014   4.796   4.127   7.815 -0.0277 -1.7677 -1.1588
  593MOL0     H80015   4.602   4.045   7.643  1.1842  1.4479  1.1517
  593MOL0     H80016   4.337   3.936   7.469 -1.4422  1.1958 -0.6624
  593MOL0     H80017   4.332   4.109   7.433 -0.1824  1.0814  1.3295
  593MOL0     H80018   4.489   4.020   7.453  0.6127  1.1039 -1.0894
  593MOL0     H80019   4.035   4.076   7.303  0.0999 -0.3167 -0.6274
  593MOL0     H80020   3.837   4.127   7.183  2.1490 -1.3577  0.0752
  593MOL0     H80021   3.455   4.112   7.461  1.9496  1.3136  1.7781
  593MOL0     H80022   3.507   4.277   7.441  0.0644 -0.8397 -0.1730
  593MOL0     H80023   3.397   4.291   7.228 -1.5118 -1.4466 -0.6784
  593MOL0     H80024   3.355   4.124   7.231  2.5483  0.0605 -0.4444
  593MOL0     H80025   3.234   4.323   7.442 -1.4272  0.8760  0.6944
  593MOL0     H80026   3.205   4.146   7.404  3.0455 -0.9753  0.0495
  593MOL0     H80027   3.188   4.343   7.178 -1.2335  1.9903 -0.2071
  593MOL0     H80028   3.086   4.200   7.208  1.3256  1.1359 -2.0356
  593MOL0     H80029   3.062   4.459   7.373  0.4907  1.0168 -1.5508
  593MOL0     H80030   2.990   4.302   7.408 -1.3493 -0.6192  0.3494
  593MOL0     H80031   2.941   4.447   7.137  4.2888 -0.7375  0.5580
  593MOL0     H80032   2.852   4.300   7.195  1.7151 -2.3067  1.6193
  593MOL0     H80033   2.813   4.570   7.330  3.0693 -1.5920 -0.2136
  593MOL0     H80034   2.760   4.413   7.390  1.5640 -2.0453  0.2074
  593MOL0     H80035   2.704   4.523   7.115  0.4322  2.4534  0.6593
  593MOL0     H80036   2.581   4.547   7.239  1.1173  1.1005 -0.4493
  593MOL0     H80037   3.616   4.044   7.568  0.4829 -0.0115  0.8978
  593MOL0     H80038   3.832   3.987   7.664 -2.0379 -2.5287 -1.1566
  593MOL0     H80039   4.175   4.180   7.877 -0.0894  0.1954 -0.5093
  593MOL0     H80040   4.402   4.184   7.995  0.0028  0.9473 -0.1617
  593MOL0     H80041   6.453   3.995   7.755  0.1922  0.7986 -1.0082
  593MOL0     H80042   6.647   4.148   7.714  2.9846  0.6630  1.2739
  593MOL0     H80043   6.996   4.312   7.775 -0.0155 -0.2304  0.7615
  593MOL0     H80044   7.188   4.420   7.703 -0.0770  2.5139 -1.1327
  593MOL0     H80045   7.403   4.568   7.727  1.2015 -1.2701 -1.9485
  593MOL0     H80046   7.327   4.616   7.571  1.9251  1.3597 -0.7591
  593MOL0     H80047   7.410   4.853   7.642  0.4740 -0.1087  4.1164
  593MOL0     H80048   7.530   4.735   7.570 -1.0909  0.9841 -0.1400
  593MOL0     H80049   7.496   4.698   7.854 -1.2917  1.9545  1.8202
  593MOL0     H80050   7.510   4.870   7.840 -2.2807 -2.6655  2.5887
  593MOL0     H80051   7.708   4.660   7.748 -0.2154 -1.2650  1.4086
  593MOL0     H80052   7.739   4.789   7.868  3.2005  1.8398 -1.9509
  593MOL0     H80053   7.849   5.036   7.562  2.4588 -1.1250  1.0307
  593MOL0     H80054   7.071   4.793   7.873  1.3940  0.9589  0.2617
  593MOL0     H80055   6.862   4.683   7.963 -1.2318 -0.6331 -0.5006
  594MOL0     O80056   9.087   6.267  10.952  0.4504 -0.6021  0.3644
  594MOL0     C80057   9.100   6.275  10.827 -0.6411  0.1795 -0.2853
  594MOL0     O80058   9.000   6.242  10.731 -0.2299 -0.8718 -0.1060
  594MOL0     C80059   8.869   6.225  10.768  0.3990 -0.1340  0.5278
  594MOL0     C80060   8.801   6.287  10.879 -0.4740 -0.1452 -0.3637
  594MOL0     C80061   8.671   6.241  10.920  0.1834 -0.0852 -0.0454
  594MOL0     C80062   8.600   6.145  10.844 -0.3745  0.1920 -0.9754
  594MOL0     O80063   8.467   6.110  10.864  0.2802  0.3344 -0.1834
  594MOL0     C80064   8.375   6.189  10.944  0.0344 -0.8000 -0.0197
  594MOL0     C80065   8.292   6.295  10.869  0.0155  0.2799 -0.1292
  594MOL0     C80066   8.221   6.224  10.750 -0.0985  0.2926 -0.6675
  594MOL0     C80067   8.192   6.336  10.641  0.0558 -0.1782  0.3393
  594MOL0     C80068   8.068   6.306  10.554 -0.1734 -0.0173 -0.0302
  594MOL0     C80069   8.097   6.194  10.450 -0.6874  0.4201 -0.4817
  594MOL0     C80070   7.988   6.180  10.349  0.4663  0.0983  0.3925
  594MOL0     C80071   7.847   6.185  10.407  0.0968 -0.5818 -0.3629
  594MOL0     N80072   7.745   6.165  10.303  0.8243 -1.2659  0.3852
  594MOL0     C80073   7.667   6.271  10.258  0.1000  0.0546  0.1011
  594MOL0     C80074   7.594   6.218  10.161 -0.5466  0.3067 -0.1331
  594MOL0     C80075   7.499   6.286  10.079  0.6265  0.3627  0.7413
  594MOL0     C80076   7.359   6.222  10.082 -0.1631 -0.9016  0.1022
  594MOL0     C80077   7.341   6.120   9.972 -0.3847  0.0179  0.2291
  594MOL0     C80078   7.194   6.088   9.943  0.7050 -0.8715 -0.5439
  594MOL0     O80079   7.130   6.192   9.861 -1.0589  0.6269 -0.7168
  594MOL0     C80080   7.005   6.231   9.897 -0.3729  0.1506 -0.8123
  594MOL0     C80081   6.969   6.334   9.982 -0.7592 -0.5874  0.7405
  594MOL0     C80082   6.838   6.367  10.010 -0.4289  0.0074 -0.6660
  594MOL0     C80083   6.810   6.481  10.095  0.5742 -0.7791 -0.8111
  594MOL0     C80084   6.732   6.284   9.959 -0.3470 -0.2168  0.5487
  594MOL0     C80085   6.591   6.299   9.991  0.7075  0.4541 -0.2194
  594MOL0     O80086   6.496   6.241   9.901  0.1057  0.0437 -0.4420
  594MOL0     C80087   6.375   6.213   9.958 -0.0152 -0.0345 -0.4977
  594MOL0     C80088   6.340   6.087  10.001 -0.0684 -0.0750 -1.2904
  594MOL0     C80089   6.215   6.066  10.049  0.1054 -0.0307  0.3237
  594MOL0     C80090   6.121   6.162  10.044 -0.1150 -0.2733  0.3764
  594MOL0     O80091   5.993   6.120  10.066 -1.1619  0.1091  0.0477
  594MOL0     C80092   5.887   6.215  10.054 -0.1387 -0.3541 -0.1727
  594MOL0     C80093   5.746   6.168  10.036 -0.2492  0.0690  0.2641
  594MOL0     C80094   5.730   6.048  10.129  0.2560 -0.3059 -0.3719
  594MOL0     C80095   5.620   5.958  10.095  0.1733  0.6320 -0.4920
  594MOL0     C80096   5.485   6.016  10.146  0.5648 -0.8185 -0.7846
  594MOL0     C80097   5.367   5.936  10.097  0.3160 -0.2882  0.4423
  594MOL0     C80098   5.242   6.002  10.152  0.5740  0.1216 -0.2226
  594MOL0     C80099   5.115   5.952  10.079  0.5463 -0.7619  0.0345
  594MOL0    Cl80100   4.982   6.051  10.107  0.0839  0.1521  0.1382
  594MOL0     C80101   6.157   6.293  10.013 -0.6392 -0.4232 -0.3296
  594MOL0     C80102   6.285   6.320   9.969  0.0784  0.1362  0.1137
  594MOL0     O80103   6.565   6.336  10.103  0.3954  0.7954 -0.0782
  594MOL0     C80104   6.762   6.172   9.875 -0.6666  0.0827  0.4562
  594MOL0     C80105   6.903   6.149   9.849  0.5589 -0.2677  0.5348
  594MOL0     N80106   7.621   6.086  10.149  0.9365  0.2609  0.5597
  594MOL0     N80107   7.710   6.054  10.228 -0.6336 -0.2438 -0.7019
  594MOL0     C80108   8.663   6.090  10.737 -0.3844  0.0390  0.3110
  594MOL0     C80109   8.789   6.137  10.697 -0.0143 -0.0724  0.0822
  594MOL0     C80110   9.232   6.315  10.775  0.3910  0.5576 -0.0563
  594MOL0     C80111   9.332   6.370  10.857 -0.7225 -0.0746 -0.5061
  594MOL0     C80112   9.461   6.407  10.817 -0.5264  0.0813  0.0957
  594MOL0     C80113   9.488   6.391  10.682 -0.3702  0.8786  0.6540
  594MOL0     O80114   9.604   6.415  10.623 -0.3423  0.0497  0.1992
  594MOL0     C80115   9.721   6.468  10.684 -0.4270 -0.6564 -0.0225
  594MOL0     C80116   9.785   6.564  10.593  0.2647  0.1973 -0.1094
  594MOL0     C80117   9.865   6.494  10.484 -0.2235  0.4131 -0.6806
  594MOL0     C80118   9.936   6.581  10.379  0.0531  0.1732  0.3559
  594MOL0     C80119  10.023   6.672  10.451  1.0307 -0.8658  0.1172
  594MOL0     C80120  10.113   6.738  10.499 -0.3757  1.0484 -0.1833
  594MOL0     C80121   9.396   6.325  10.602  0.9120 -0.1213 -0.4828
  594MOL0     C80122   9.268   6.299  10.637 -1.0356  0.1775  0.3033
  594MOL0     H80123   8.848   6.368  10.934 -2.1381 -0.2416  1.2882
  594MOL0     H80124   8.618   6.292  11.000 -0.1858  1.1583 -1.0567
  594MOL0     H80125   8.310   6.119  10.998 -0.1517  0.2211  1.1090
  594MOL0     H80126   8.422   6.245  11.025 -0.5947  3.1664 -2.1786
  594MOL0     H80127   8.220   6.349  10.932 -0.4842  1.0274 -1.3060
  594MOL0     H80128   8.360   6.365  10.821 -0.2390  0.0447 -0.8496
  594MOL0     H80129   8.279   6.143  10.704 -0.5129  1.3095 -3.1619
  594MOL0     H80130   8.127   6.175  10.779  0.1774  1.0034  1.5655
  594MOL0     H80131   8.157   6.423  10.696  1.6371  0.1755  0.8272
  594MOL0     H80132   8.281   6.355  10.579 -1.4068 -0.6338 -2.0448
  594MOL0     H80133   7.985   6.275  10.619  0.3777 -0.9068  0.2679
  594MOL0     H80134   8.047   6.398  10.499  2.3007  0.6674  0.0499
  594MOL0     H80135   8.192   6.227  10.405  0.8061  1.1834  2.9581
  594MOL0     H80136   8.119   6.103  10.506 -0.5997  0.8023  0.1060
  594MOL0     H80137   7.988   6.258  10.273  1.2958  1.2402  1.5198
  594MOL0     H80138   8.005   6.090  10.289 -1.7340 -0.5942  0.7236
  594MOL0     H80139   7.827   6.283  10.451  2.0369 -0.1367 -0.3912
  594MOL0     H80140   7.844   6.111  10.487 -0.1628  1.6484  1.8133
  594MOL0     H80141   7.674   6.378  10.275 -0.2047 -0.0856  1.2222
  594MOL0     H80142   7.487   6.393  10.098 -1.9684  0.6668 -1.9190
  594MOL0     H80143   7.534   6.272   9.977 -0.8463 -2.2949  0.4984
  594MOL0     H80144   7.280   6.294  10.056 -0.0573 -0.8067  0.0427
  594MOL0     H80145   7.342   6.188  10.185 -0.8420  2.0370  1.0553
  594MOL0     H80146   7.391   6.031  10.010 -0.8989 -0.1282  0.5830
  594MOL0     H80147   7.385   6.145   9.876 -0.7161 -1.7416 -0.4138
  594MOL0     H80148   7.143   6.083  10.040  0.0605 -2.4891 -0.9454
  594MOL0     H80149   7.187   5.993   9.890 -0.4416 -1.4400  0.5705
  594MOL0     H80150   7.042   6.395  10.034  1.1263 -2.7141  0.7294
  594MOL0     H80151   6.725   6.537  10.054  1.8858  1.2479 -0.9212
  594MOL0     H80152   6.789   6.446  10.197  0.0506  1.5084 -0.0737
  594MOL0     H80153   6.899   6.544  10.094  2.1762 -2.8781 -3.6926
  594MOL0     H80154   6.410   6.004   9.991  3.8515  2.6025  1.3186
  594MOL0     H80155   6.178   5.965  10.063  0.4200 -0.2243 -0.1799
  594MOL0     H80156   5.900   6.278  10.143 -2.6371  0.4443 -0.3018
  594MOL0     H80157   5.898   6.283   9.969  0.9889  0.2151  0.4034
  594MOL0     H80158   5.678   6.249  10.062  0.5609  1.1883 -0.9967
  594MOL0     H80159   5.733   6.123   9.938 -0.5446 -1.3125  0.9101
  594MOL0     H80160   5.708   6.089  10.228  1.0709  2.8848 -1.3930
  594MOL0     H80161   5.819   5.984  10.125  1.5069  1.4314 -1.6715
  594MOL0     H80162   5.612   5.940   9.988 -0.7777  1.9658 -0.6727
  594MOL0     H80163   5.643   5.863  10.143 -0.2586  2.0105  2.7460
  594MOL0     H80164   5.479   6.121  10.116  2.2593 -0.4313  0.1201
  594MOL0     H80165   5.477   6.007  10.255 -0.7164 -0.8283 -0.8744
  594MOL0     H80166   5.377   5.919   9.990  0.4465 -1.1866  0.5875
  594MOL0     H80167   5.371   5.832  10.133 -1.7847 -1.0018 -1.2100
  594MOL0     H80168   5.251   6.109  10.131  0.9569  0.7284  2.6038
  594MOL0     H80169   5.233   5.993  10.260  2.7142 -2.4245 -0.1627
  594MOL0     H80170   5.078   5.856  10.117 -0.7428 -0.0447  0.6803
  594MOL0     H80171   5.128   5.942   9.971 -0.6051 -0.7052 -0.1231
  594MOL0     H80172   6.095   6.382  10.016 -0.1624 -0.1020  0.0686
  594MOL0     H80173   6.321   6.420   9.948  2.8141 -0.5298  1.0927
  594MOL0     H80174   6.678   6.107   9.850 -0.5771  1.0378 -2.6931
  594MOL0     H80175   6.935   6.077   9.774 -0.6317 -2.7762  2.2918
  594MOL0     H80176   8.618   6.019  10.670 -0.0192 -0.7261  0.8596
  594MOL0     H80177   8.843   6.087  10.618  0.3511  3.0764 -1.8306
  594MOL0     H80178   9.302   6.371  10.961  2.4239 -2.0958  0.5922
  594MOL0     H80179   9.528   6.467  10.879 -1.7073  2.3338 -0.7010
  594MOL0     H80180   9.700   6.532  10.771 -0.6516 -1.5507  0.5886
  594MOL0     H80181   9.789   6.389  10.716 -0.7434 -1.2605 -0.8384
  594MOL0     H80182   9.843   6.629  10.659  1.8507  0.1897 -1.4514
  594MOL0     H80183   9.711   6.630  10.547 -1.6324 -0.2937  2.0111
  594MOL0     H80184   9.801   6.432  10.420  3.2475 -4.0894 -0.2519
  594MOL0     H80185   9.945   6.440  10.533 -0.9032  1.1561  1.3456
  594MOL0     H80186   9.859   6.632  10.319 -1.0540 -3.4976 -1.6821
  594MOL0     H80187  10.001   6.526  10.310 -1.0135 -1.0546  0.2760
  594MOL0     H80188  10.185   6.810  10.534  2.7941 -1.2323 -1.5048
  594MOL0     H80189   9.417   6.309  10.496  0.9393  1.6392 -0.7757
  594MOL0     H80190   9.200   6.260  10.562 -1.5566  1.8643 -0.1567
  595MOL0     O80191   1.574   2.932   6.729 -0.0824  0.1316  0.1203
  595MOL0     C80192   1.593   2.816   6.770 -0.6831  0.3959 -0.3349
  595MOL0     O80193   1.513   2.756   6.863 -0.3077 -0.0691  0.4398
  595MOL0     C80194   1.408   2.833   6.921 -0.4031 -0.4952 -0.8871
  595MOL0     C80195   1.409   2.852   7.064 -0.2378  0.2091  0.0824
  595MOL0     C80196   1.311   2.927   7.118  0.1237 -1.0564  0.3454
  595MOL0     C80197   1.206   2.980   7.039  0.9696 -0.4188  0.0061
  595MOL0     O80198   1.113   3.050   7.103  0.2250 -0.1303  0.5892
  595MOL0     C80199   0.993   3.073   7.032  0.2460 -0.2088  0.2606
  595MOL0     C80200   0.882   3.126   7.122 -0.2277  0.4450 -0.1621
  595MOL0     C80201   0.747   3.155   7.045  0.5790  0.6824  0.7830
  595MOL0     C80202   0.624   3.100   7.106  0.1503  0.2764  0.2881
  595MOL0     C80203   0.492   3.173   7.065 -0.2867  0.2317  0.0136
  595MOL0     C80204   0.377   3.077   7.119 -0.4898 -0.5631  0.6987
  595MOL0     C80205   0.246   3.127   7.043  0.6756 -1.0362  1.0352
  595MOL0     C80206   0.149   3.018   7.024  0.9757 -0.5016  0.3025
  595MOL0     N80207   0.097   2.949   7.140  0.2652 -0.6914  0.8608
  595MOL0     C80208   0.021   3.009   7.234  0.4314  0.1959  0.5747
  595MOL0     C80209  -0.029   2.899   7.306 -0.5774  0.2724 -1.0128
  595MOL0     C80210  -0.121   2.915   7.418 -0.6463  0.2288 -0.6489
  595MOL0     C80211  -0.265   2.884   7.368 -0.0730  0.1606 -1.1153
  595MOL0     C80212  -0.368   2.905   7.483  0.2129 -0.3634 -0.1007
  595MOL0     C80213  -0.392   2.779   7.560  1.0951  0.7472 -0.7503
  595MOL0     O80214  -0.463   2.672   7.494  0.3865 -0.7395 -0.8153
  595MOL0     C80215  -0.597   2.687   7.503  0.2339 -0.2271 -0.3868
  595MOL0     C80216  -0.662   2.680   7.378 -0.0569  0.2584  0.1874
  595MOL0     C80217  -0.805   2.675   7.368  0.6746  0.2572  0.1128
  595MOL0     C80218  -0.867   2.647   7.235  0.7661  0.4146  0.3811
  595MOL0     C80219  -0.881   2.689   7.487 -1.0000  0.1196 -0.4900
  595MOL0     C80220  -1.026   2.711   7.491 -0.2877  0.8582 -0.4707
  595MOL0     O80221  -1.091   2.666   7.602 -0.3701 -0.6990 -0.1827
  595MOL0     C80222  -1.223   2.670   7.611  0.7357  0.0666 -0.0212
  595MOL0     C80223  -1.286   2.549   7.594 -0.0165 -0.4561  0.1006
  595MOL0     C80224  -1.428   2.544   7.596 -0.5178 -0.5745 -0.0326
  595MOL0     C80225  -1.506   2.662   7.618  0.4394 -0.2922  0.0321
  595MOL0     O80226  -1.644   2.641   7.608  0.0370  0.4175  0.3065
  595MOL0     C80227  -1.730   2.754   7.629 -0.4769 -0.7445  0.2870
  595MOL0     C80228  -1.864   2.726   7.550 -0.3493  0.1043 -0.9765
  595MOL0     C80229  -1.985   2.687   7.637  0.4614  0.8993  0.0421
  595MOL0     C80230  -2.121   2.700   7.559 -0.4657  0.0331 -0.7761
  595MOL0     C80231  -2.174   2.838   7.521 -0.5333  0.3089 -0.0990
  595MOL0     C80232  -2.171   2.936   7.635  0.4160  0.2002  0.0158
  595MOL0     C80233  -2.217   3.078   7.595  0.2364  0.1471 -1.1582
  595MOL0     C80234  -2.361   3.092   7.552  0.5336 -0.0015  0.8953
  595MOL0    Cl80235  -2.472   3.017   7.654 -0.4688 -0.0865  0.2729
  595MOL0     C80236  -1.435   2.781   7.638  0.0951 -0.2605  0.3215
  595MOL0     C80237  -1.297   2.789   7.623  0.2258  0.0272 -0.2405
  595MOL0     O80238  -1.080   2.762   7.396  0.9569 -0.6471  0.3904
  595MOL0     C80239  -0.815   2.694   7.612 -0.9905  0.2545  0.5047
  595MOL0     C80240  -0.674   2.688   7.621  0.0167  0.6761  0.1022
  595MOL0     N80241   0.035   2.781   7.261  0.5289  0.5449 -0.7144
  595MOL0     N80242   0.093   2.810   7.156 -0.9102 -0.6039  0.3490
  595MOL0     C80243   1.201   2.959   6.900  0.1602 -0.3140  0.6407
  595MOL0     C80244   1.296   2.874   6.852 -1.1431 -0.9322  0.2917
  595MOL0     C80245   1.719   2.753   6.723  0.0947 -0.1262 -0.7001
  595MOL0     C80246   1.717   2.618   6.701  0.2902 -0.0553 -0.3982
  595MOL0     C80247   1.835   2.566   6.646  0.2972 -0.2092  0.1410
  595MOL0     C80248   1.960   2.628   6.639 -0.2825 -0.4019  0.0118
  595MOL0     O80249   2.083   2.560   6.605 -0.4901 -0.2300 -0.4204
  595MOL0     C80250   2.197   2.630   6.563  0.4188  0.1262  0.2368
  595MOL0     C80251   2.309   2.536   6.507 -0.2394  0.2191 -0.1369
  595MOL0     C80252   2.439   2.613   6.493  0.3360 -0.7493  0.2860
  595MOL0     C80253   2.567   2.535   6.512  0.4230 -0.3284 -0.2555
  595MOL0     C80254   2.575   2.408   6.442 -0.1527 -0.0716 -0.9491
  595MOL0     C80255   2.588   2.305   6.377 -0.5205 -0.1685  0.8839
  595MOL0     C80256   1.957   2.755   6.677  0.4794  0.3736 -0.2461
  595MOL0     C80257   1.837   2.826   6.714 -0.7490 -0.3641  0.6856
  595MOL0     H80258   1.496   2.820   7.120 -0.3188 -0.8552 -0.3770
  595MOL0     H80259   1.295   2.948   7.223  2.0398  0.3536  0.3988
  595MOL0     H80260   1.014   3.147   6.955 -2.7671  1.7162  1.1227
  595MOL0     H80261   0.955   2.980   6.989 -0.8018  0.5360 -0.4820
  595MOL0     H80262   0.858   3.051   7.198 -2.7000 -0.8602 -2.0806
  595MOL0     H80263   0.912   3.216   7.176  1.5545  1.3109 -2.4457
  595MOL0     H80264   0.738   3.264   7.057 -2.1653  0.8828 -1.9508
  595MOL0     H80265   0.758   3.129   6.940  0.7432  3.9098 -0.1213
  595MOL0     H80266   0.621   2.994   7.078  2.5506  0.0837  0.5271
  595MOL0     H80267   0.622   3.113   7.214 -2.7371  0.9838  0.2209
  595MOL0     H80268   0.486   3.274   7.106  1.4019  1.7808 -3.1268
  595MOL0     H80269   0.497   3.174   6.955  2.0120  2.4735  0.0503
  595MOL0     H80270   0.399   2.978   7.079 -2.5266 -1.2209  1.0818
  595MOL0     H80271   0.372   3.069   7.228 -0.8931  2.8609  1.0479
  595MOL0     H80272   0.184   3.202   7.095 -0.4902  0.7020 -2.5302
  595MOL0     H80273   0.273   3.171   6.947  4.4466  2.7101  3.4367
  595MOL0     H80274   0.187   2.941   6.956  0.5984 -0.1796 -0.2857
  595MOL0     H80275   0.065   3.066   6.974  0.0994  0.1069  2.2842
  595MOL0     H80276  -0.011   3.113   7.225 -0.6839 -0.3217 -4.1032
  595MOL0     H80277  -0.087   2.857   7.504 -1.9343 -2.0128 -1.5785
  595MOL0     H80278  -0.122   3.021   7.445 -2.0404  0.6399 -2.1641
  595MOL0     H80279  -0.279   2.783   7.327 -1.3514  0.7032 -2.0769
  595MOL0     H80280  -0.289   2.961   7.295 -2.4015  3.2694  2.5010
  595MOL0     H80281  -0.460   2.939   7.434  2.7374  2.4914 -3.3544
  595MOL0     H80282  -0.331   2.975   7.558 -1.8378  0.2343  0.4200
  595MOL0     H80283  -0.440   2.814   7.652 -2.4891  0.0419 -2.1674
  595MOL0     H80284  -0.295   2.740   7.591  1.3832  1.8664 -0.2064
  595MOL0     H80285  -0.608   2.658   7.286 -4.0481 -1.9076 -1.9170
  595MOL0     H80286  -0.925   2.736   7.209  0.3922  0.0216 -0.1423
  595MOL0     H80287  -0.793   2.621   7.158  1.9275 -0.3627  1.6943
  595MOL0     H80288  -0.934   2.561   7.237 -1.0836  1.8028  0.5214
  595MOL0     H80289  -1.219   2.464   7.584  0.0556 -0.4266  0.3260
  595MOL0     H80290  -1.483   2.452   7.575  0.9311 -1.4514 -0.1108
  595MOL0     H80291  -1.738   2.763   7.738 -3.5987 -1.2017  0.2019
  595MOL0     H80292  -1.687   2.846   7.589 -0.8393 -0.9623 -0.6193
  595MOL0     H80293  -1.879   2.822   7.501  0.6930  3.0840  3.8347
  595MOL0     H80294  -1.845   2.649   7.475  1.1916  1.0499 -1.5821
  595MOL0     H80295  -1.993   2.753   7.724 -0.6620  1.0760 -0.1767
  595MOL0     H80296  -1.977   2.586   7.678 -1.0559 -0.3256 -2.4196
  595MOL0     H80297  -2.113   2.634   7.473 -1.5057  0.7056 -1.4134
  595MOL0     H80298  -2.203   2.669   7.625  0.2125  1.2747  0.7191
  595MOL0     H80299  -2.275   2.835   7.480  0.4272 -2.1148 -2.6080
  595MOL0     H80300  -2.101   2.877   7.449  0.9466 -0.0319  1.1485
  595MOL0     H80301  -2.237   2.900   7.714  2.6927 -1.5778  1.2295
  595MOL0     H80302  -2.076   2.960   7.683  0.0518  3.6415 -0.7227
  595MOL0     H80303  -2.165   3.121   7.508  1.1582 -0.9858 -1.1904
  595MOL0     H80304  -2.201   3.150   7.676  0.3482 -0.6182 -0.4899
  595MOL0     H80305  -2.365   3.049   7.452 -1.4277  1.2422  0.3774
  595MOL0     H80306  -2.386   3.198   7.537  0.0103 -0.1488  0.6975
  595MOL0     H80307  -1.480   2.876   7.665  1.8572  0.1778  1.8741
  595MOL0     H80308  -1.251   2.887   7.615  1.2712 -0.4422 -0.1160
  595MOL0     H80309  -0.873   2.716   7.701 -2.2154 -0.8262  0.0067
  595MOL0     H80310  -0.624   2.678   7.717  0.1468  1.3693  0.1139
  595MOL0     H80311   1.123   3.015   6.848 -0.5294  0.2315  2.1934
  595MOL0     H80312   1.301   2.849   6.746  1.5910  0.8080 -0.0723
  595MOL0     H80313   1.620   2.571   6.714 -1.8175  4.2931  1.9966
  595MOL0     H80314   1.834   2.458   6.633 -1.9801 -0.0611 -1.3013
  595MOL0     H80315   2.176   2.716   6.499 -3.3014 -1.8950 -1.5835
  595MOL0     H80316   2.237   2.675   6.655 -0.4012  1.6601 -0.1185
  595MOL0     H80317   2.282   2.502   6.406  1.7785  2.6387 -1.6278
  595MOL0     H80318   2.321   2.457   6.581 -2.6085  1.0634  1.2765
  595MOL0     H80319   2.440   2.695   6.566 -0.4590  2.0599 -2.6212
  595MOL0     H80320   2.447   2.658   6.393  1.6312 -2.6804 -0.5495
  595MOL0     H80321   2.594   2.506   6.615  0.4067  0.1472 -0.1170
  595MOL0     H80322   2.641   2.601   6.465 -1.0670  1.2209 -0.5242
  595MOL0     H80323   2.601   2.228   6.304  3.1980  0.5358  0.6002
  595MOL0     H80324   2.042   2.821   6.665  2.5204 -1.7240  1.6744
  595MOL0     H80325   1.844   2.930   6.745 -1.5607 -0.0390 -0.1681
  596MOL0     O80326  11.107   2.945   8.043  0.1491  0.2023  0.5444
  596MOL0     C80327  11.101   3.028   7.952  0.2416  0.4449 -0.7306
  596MOL0     O80328  10.996   3.115   7.927 -0.2282  0.8334 -0.5476
  596MOL0     C80329  10.869   3.061   7.934 -0.1533 -0.8345  1.2943
  596MOL0     C80330  10.772   3.159   7.954  0.5976  0.1204  0.4052
  596MOL0     C80331  10.636   3.125   7.933  0.2942 -0.1168 -0.3408
  596MOL0     C80332  10.592   2.995   7.906 -0.2696 -0.0468  0.6336
  596MOL0     O80333  10.457   2.963   7.897 -0.2220  0.3129 -0.2184
  596MOL0     C80334  10.360   3.071   7.887 -0.2377 -0.0761 -0.5274
  596MOL0     C80335  10.223   3.010   7.850  0.2803  0.0994  0.0534
  596MOL0     C80336  10.125   3.129   7.837  0.5482  0.4767  0.0025
  596MOL0     C80337   9.976   3.092   7.804 -0.0996  0.3859  0.7379
  596MOL0     C80338   9.881   3.213   7.803 -0.2862  0.1081  0.5126
  596MOL0     C80339   9.736   3.182   7.763 -0.3122 -0.3542 -0.2288
  596MOL0     C80340   9.666   3.321   7.764  0.1684  0.2997 -0.0597
  596MOL0     C80341   9.530   3.305   7.695 -0.3956  0.5260  0.2152
  596MOL0     N80342   9.414   3.299   7.786 -0.1731  0.1951 -0.4694
  596MOL0     C80343   9.324   3.403   7.801 -0.0106 -0.7182 -0.6105
  596MOL0     C80344   9.241   3.360   7.901 -0.4444  1.6713  0.4806
  596MOL0     C80345   9.128   3.437   7.956 -0.3425  0.3741  0.0718
  596MOL0     C80346   8.997   3.418   7.876  0.6719 -0.2181  0.8750
  596MOL0     C80347   8.957   3.264   7.881  0.8096 -0.2793 -0.5810
  596MOL0     C80348   8.946   3.200   8.022  0.7167 -0.5474 -0.3104
  596MOL0     O80349   8.841   3.256   8.099  0.9221 -0.2361  0.3701
  596MOL0     C80350   8.711   3.213   8.077  0.7152 -0.0345 -0.0743
  596MOL0     C80351   8.677   3.111   7.982  0.1804 -0.4168  0.1768
  596MOL0     C80352   8.549   3.074   7.960  1.0642  0.1927  0.2500
  596MOL0     C80353   8.509   3.016   7.824  0.0311 -0.3621  0.2374
  596MOL0     C80354   8.447   3.106   8.059 -0.7966  0.0177 -0.1048
  596MOL0     C80355   8.299   3.059   8.059 -0.3401  0.8039 -0.2338
  596MOL0     O80356   8.217   3.115   8.146 -0.0521 -0.2407  0.0189
  596MOL0     C80357   8.100   3.039   8.182 -0.2156 -0.5074  0.4174
  596MOL0     C80358   8.114   2.924   8.261 -0.4233  0.8032 -0.0168
  596MOL0     C80359   8.001   2.849   8.293  0.3506  0.2808 -0.6744
  596MOL0     C80360   7.873   2.892   8.251 -0.1977  0.4466  0.4341
  596MOL0     O80361   7.763   2.815   8.266 -0.4364  0.7336  0.5645
  596MOL0     C80362   7.635   2.849   8.211 -0.1130 -0.0920 -0.2919
  596MOL0     C80363   7.535   2.755   8.278  0.8888  0.4176  0.1882
  596MOL0     C80364   7.401   2.802   8.241  0.8005 -0.3081  0.0729
  596MOL0     C80365   7.297   2.702   8.282  0.6305 -0.0894 -0.6188
  596MOL0     C80366   7.159   2.750   8.232 -0.0222 -0.0285 -0.1893
  596MOL0     C80367   7.048   2.655   8.288 -1.0521 -0.1973 -0.3588
  596MOL0     C80368   6.909   2.696   8.229 -0.3683  1.0995 -0.1580
  596MOL0     C80369   6.842   2.832   8.276  0.6588 -0.7344  0.5932
  596MOL0    Cl80370   6.801   2.831   8.451  0.0455 -0.1316  0.1520
  596MOL0     C80371   7.868   3.012   8.177  2.1173 -0.2512  0.5180
  596MOL0     C80372   7.974   3.086   8.144  0.4465  0.5293 -0.0883
  596MOL0     O80373   8.280   2.944   8.002 -0.0908  0.2707 -0.3342
  596MOL0     C80374   8.475   3.195   8.161 -0.5717 -0.3480 -0.0275
  596MOL0     C80375   8.605   3.257   8.157 -0.4387 -1.4257 -0.2954
  596MOL0     N80376   9.273   3.232   7.946  1.1091  0.0296  0.4399
  596MOL0     N80377   9.380   3.204   7.874  0.9846  0.7265 -0.7253
  596MOL0     C80378  10.693   2.903   7.897  0.0470 -0.0968 -0.9492
  596MOL0     C80379  10.829   2.930   7.904 -0.7999 -0.9566 -0.0504
  596MOL0     C80380  11.222   3.034   7.871 -0.7528  0.3219 -0.6091
  596MOL0     C80381  11.265   3.157   7.832 -0.1445 -0.3468  0.0808
  596MOL0     C80382  11.372   3.161   7.737  0.1563  0.5315 -0.2176
  596MOL0     C80383  11.435   3.047   7.682  0.2685 -0.2799 -0.3320
  596MOL0     O80384  11.547   3.078   7.601  0.4126  0.3498 -0.0417
  596MOL0     C80385  11.590   2.979   7.505  0.9583  0.6525  0.8737
  596MOL0     C80386  11.721   2.925   7.554 -0.1009  0.9701  0.4513
  596MOL0     C80387  11.751   2.776   7.512 -0.1907 -0.7082  0.0584
  596MOL0     C80388  11.775   2.756   7.356 -0.3499 -0.4092 -0.2586
  596MOL0     C80389  11.918   2.768   7.332 -0.3999 -1.7043 -0.2852
  596MOL0     C80390  12.038   2.780   7.308  0.6372  0.7445 -0.3499
  596MOL0     C80391  11.392   2.931   7.737  0.6362  0.4181 -0.5888
  596MOL0     C80392  11.281   2.912   7.822  0.6639 -0.3636  0.6825
  596MOL0     H80393  10.787   3.266   7.969  0.1935  0.6063 -2.1705
  596MOL0     H80394  10.568   3.209   7.936  2.6267  1.9463 -1.8281
  596MOL0     H80395  10.353   3.127   7.981 -2.7798  1.1613 -1.3724
  596MOL0     H80396  10.398   3.150   7.821  0.0534 -0.2365 -0.5550
  596MOL0     H80397  10.228   2.950   7.759 -1.6174  1.9393 -1.3773
  596MOL0     H80398  10.185   2.942   7.927 -0.0743 -2.8221 -2.5175
  596MOL0     H80399  10.124   3.173   7.937 -0.7575  0.9150 -0.1863
  596MOL0     H80400  10.151   3.200   7.758 -2.3953  0.9043 -0.6893
  596MOL0     H80401   9.966   3.059   7.700  0.4805 -1.8974  1.3349
  596MOL0     H80402   9.943   3.013   7.873  0.4699  0.6857  1.3629
  596MOL0     H80403   9.882   3.264   7.900 -1.8546  2.8923 -0.8069
  596MOL0     H80404   9.919   3.278   7.724  1.4723 -0.0957  1.1320
  596MOL0     H80405   9.725   3.136   7.665 -0.3459  0.6971 -0.7328
  596MOL0     H80406   9.692   3.122   7.844  2.6090 -0.3207  1.5194
  596MOL0     H80407   9.661   3.360   7.866 -2.0651  1.1948 -0.4580
  596MOL0     H80408   9.729   3.385   7.701  1.0104 -1.1164 -0.6948
  596MOL0     H80409   9.520   3.214   7.634  2.8306  1.4745 -2.0104
  596MOL0     H80410   9.507   3.395   7.638 -3.2659  1.1573  2.1491
  596MOL0     H80411   9.320   3.503   7.759  0.2572 -1.7821 -3.3343
  596MOL0     H80412   9.119   3.406   8.060  1.7693  4.0505  1.5699
  596MOL0     H80413   9.144   3.546   7.958 -2.1504  0.6935  3.1799
  596MOL0     H80414   8.990   3.465   7.778 -3.1089 -2.6050 -0.1949
  596MOL0     H80415   8.912   3.463   7.929 -0.2294 -1.3071  0.4061
  596MOL0     H80416   9.020   3.199   7.819 -0.7889 -2.5739  0.0474
  596MOL0     H80417   8.861   3.257   7.829  1.0754  1.6738 -1.4091
  596MOL0     H80418   9.038   3.203   8.081 -0.1895 -0.0081  1.1143
  596MOL0     H80419   8.916   3.096   8.009 -1.9705  0.3584 -2.3316
  596MOL0     H80420   8.752   3.067   7.917 -0.4044 -2.4933  0.8056
  596MOL0     H80421   8.591   2.994   7.755  0.8256 -1.1601  1.3751
  596MOL0     H80422   8.436   2.936   7.826 -0.1782 -0.1694  0.3906
  596MOL0     H80423   8.456   3.090   7.764  1.4738  0.1419 -0.4729
  596MOL0     H80424   8.214   2.893   8.290 -0.0124  1.3887 -0.7536
  596MOL0     H80425   8.004   2.756   8.350  1.0507 -0.4921 -1.9319
  596MOL0     H80426   7.609   2.951   8.242 -0.8627  0.5916 -2.9754
  596MOL0     H80427   7.636   2.852   8.102  0.2545 -1.3646 -0.3428
  596MOL0     H80428   7.551   2.653   8.242 -0.0221  0.6379 -0.9293
  596MOL0     H80429   7.544   2.760   8.387 -4.7165 -2.3982  1.1686
  596MOL0     H80430   7.387   2.810   8.133  0.2889  1.4592  0.2440
  596MOL0     H80431   7.389   2.901   8.285  0.5067 -0.9691  1.5672
  596MOL0     H80432   7.304   2.604   8.235  2.8846 -0.8247  1.0724
  596MOL0     H80433   7.302   2.687   8.391 -1.5084 -0.8341 -0.5691
  596MOL0     H80434   7.146   2.757   8.123  0.7833  2.7209 -0.1683
  596MOL0     H80435   7.143   2.851   8.270 -0.8612  0.6320 -2.1319
  596MOL0     H80436   7.063   2.556   8.243  1.2581 -0.1879  0.2297
  596MOL0     H80437   7.053   2.656   8.397  1.0291  1.3136 -0.4021
  596MOL0     H80438   6.841   2.617   8.264  0.2653 -0.0816 -1.5237
  596MOL0     H80439   6.918   2.701   8.121 -0.0312  1.5763 -0.1094
  596MOL0     H80440   6.760   2.854   8.207  1.6570 -1.6649 -0.9631
  596MOL0     H80441   6.912   2.915   8.260  1.9938 -1.9399 -0.0787
  596MOL0     H80442   7.776   3.054   8.137  1.1631 -0.9534  1.8957
  596MOL0     H80443   7.974   3.180   8.088 -1.1876  0.9651  0.5956
  596MOL0     H80444   8.407   3.241   8.233  2.1995  0.5406  2.2237
  596MOL0     H80445   8.631   3.344   8.215 -0.6238 -0.1966 -1.9637
  596MOL0     H80446  10.672   2.798   7.880  1.9800 -0.9912  1.6848
  596MOL0     H80447  10.907   2.854   7.899 -1.0561 -1.3624  1.5144
  596MOL0     H80448  11.208   3.242   7.868 -0.6252 -1.4988  2.2163
  596MOL0     H80449  11.397   3.257   7.694 -1.2235  0.8290 -0.3959
  596MOL0     H80450  11.519   2.898   7.487 -0.2802  1.8305  0.2829
  596MOL0     H80451  11.603   3.025   7.406 -2.3474  0.4243  0.2312
  596MOL0     H80452  11.714   2.919   7.663 -1.1665 -0.4969  0.3264
  596MOL0     H80453  11.800   2.993   7.522  0.4091  0.2901  0.2357
  596MOL0     H80454  11.663   2.716   7.537  0.0621 -0.5729  1.3743
  596MOL0     H80455  11.837   2.741   7.570  3.0922  2.7334 -2.2506
  596MOL0     H80456  11.711   2.820   7.294  1.2443  2.7928  1.1249
  596MOL0     H80457  11.757   2.654   7.322 -1.4761 -0.1175 -0.5531
  596MOL0     H80458  12.142   2.787   7.282  1.1896  3.1795  1.9919
  596MOL0     H80459  11.434   2.835   7.708 -0.6910 -0.6339  0.7348
  596MOL0     H80460  11.239   2.814   7.845  1.3419 -0.9096 -0.3185
  597MOL0     O80461   5.240   1.959   6.535 -0.0984 -0.0730  0.3590
  597MOL0     C80462   5.312   2.034   6.464  0.2903  0.0792  0.4006
  597MOL0     O80463   5.265   2.122   6.371  0.5911 -0.3991 -0.1011
  597MOL0     C80464   5.130   2.138   6.351  0.6198  0.2519  0.3722
  597MOL0     C80465   5.033   2.029   6.342 -0.2468 -0.4987 -0.5690
  597MOL0     C80466   4.901   2.060   6.311 -0.2103  0.5631 -0.3210
  597MOL0     C80467   4.861   2.195   6.301  0.3042 -0.5264 -0.2809
  597MOL0     O80468   4.736   2.238   6.268 -0.0750 -0.6907  0.6503
  597MOL0     C80469   4.648   2.141   6.209 -0.1954 -0.2538 -0.4414
  597MOL0     C80470   4.528   2.223   6.152 -1.1802 -0.0459  0.0518
  597MOL0     C80471   4.408   2.239   6.261  0.0268 -0.3030  0.2146
  597MOL0     C80472   4.295   2.320   6.179 -0.4054 -0.4412 -0.2568
  597MOL0     C80473   4.175   2.346   6.273  0.7199  0.2088  0.5301
  597MOL0     C80474   4.069   2.443   6.208 -0.2130  0.0980 -0.1783
  597MOL0     C80475   4.120   2.588   6.202  0.2031 -0.0878 -0.6222
  597MOL0     C80476   4.022   2.691   6.152  1.0285  0.3275  1.1496
  597MOL0     N80477   3.943   2.654   6.024 -0.4792  0.2769  0.3964
  597MOL0     C80478   3.909   2.733   5.920  0.2267 -0.2583 -1.0192
  597MOL0     C80479   3.802   2.680   5.858 -0.2382  0.0240 -0.7820
  597MOL0     C80480   3.737   2.724   5.735  0.6364 -0.0363  0.0874
  597MOL0     C80481   3.599   2.794   5.758 -0.5097  0.2499  0.0823
  597MOL0     C80482   3.498   2.704   5.825  0.3475  0.4492 -0.7250
  597MOL0     C80483   3.352   2.751   5.823  0.2612  0.3221 -0.7274
  597MOL0     O80484   3.271   2.679   5.929 -0.7774  0.1895  0.2315
  597MOL0     C80485   3.149   2.712   5.960  0.1851 -0.6478  0.4570
  597MOL0     C80486   3.091   2.633   6.054 -0.2141  0.1305  0.1809
  597MOL0     C80487   2.965   2.651   6.114  0.5488  0.5173  0.1772
  597MOL0     C80488   2.927   2.543   6.214  0.2226  0.2159  0.1877
  597MOL0     C80489   2.881   2.761   6.070  0.0537  0.6841 -0.6367
  597MOL0     C80490   2.737   2.778   6.110  0.3490 -0.5714 -0.3241
  597MOL0     O80491   2.674   2.855   6.023  0.1626 -0.0805 -0.5376
  597MOL0     C80492   2.533   2.857   6.035  0.6763 -0.3364  0.2356
  597MOL0     C80493   2.462   2.798   5.929  0.3986  0.0518 -0.2715
  597MOL0     C80494   2.321   2.800   5.931  0.3219  0.1524 -0.0980
  597MOL0     C80495   2.254   2.865   6.040  0.0023  0.1357  0.4505
  597MOL0     O80496   2.115   2.869   6.029 -0.0382 -0.8185 -0.0777
  597MOL0     C80497   2.038   2.882   6.155  0.3314  1.1371  0.0434
  597MOL0     C80498   1.892   2.835   6.121 -0.4253 -0.1811 -0.0950
  597MOL0     C80499   1.788   2.864   6.233 -1.3650  0.0118 -0.9248
  597MOL0     C80500   1.652   2.801   6.202  0.0395 -0.0465 -0.1048
  597MOL0     C80501   1.538   2.844   6.308 -0.0993  0.0602  0.1722
  597MOL0     C80502   1.404   2.789   6.268  0.3037  0.2385 -0.4707
  597MOL0     C80503   1.284   2.823   6.365  0.1566  0.5234  0.1657
  597MOL0     C80504   1.151   2.829   6.295 -0.3930  0.1175  0.2563
  597MOL0    Cl80505   1.026   2.880   6.400  0.0393 -0.5224  0.0290
  597MOL0     C80506   2.324   2.926   6.141  0.6473  1.1023  0.4229
  597MOL0     C80507   2.465   2.917   6.140  0.7482  0.8403  0.2593
  597MOL0     O80508   2.684   2.714   6.199 -0.2856 -0.2113 -0.0551
  597MOL0     C80509   2.942   2.842   5.963  0.7150 -0.4460 -0.5977
  597MOL0     C80510   3.071   2.818   5.916  0.2851  0.3701 -0.9379
  597MOL0     N80511   3.762   2.570   5.930 -0.9497 -0.8857  0.4698
  597MOL0     N80512   3.854   2.549   6.026  0.3142  0.1419 -0.1481
  597MOL0     C80513   4.952   2.298   6.310  0.5973  1.1514 -0.0461
  597MOL0     C80514   5.090   2.270   6.323  0.4704  0.7589  0.1044
  597MOL0     C80515   5.455   2.040   6.500  1.0754 -0.2370  0.5048
  597MOL0     C80516   5.556   2.070   6.408 -0.7651  0.1637 -0.1387
  597MOL0     C80517   5.691   2.084   6.454 -0.0929 -0.5677  0.4723
  597MOL0     C80518   5.728   2.056   6.586 -0.1476  0.0575 -0.5461
  597MOL0     O80519   5.856   2.057   6.636 -0.3222  0.6443 -0.2416
  597MOL0     C80520   5.955   2.073   6.541  0.5394  0.6291  0.7660
  597MOL0     C80521   6.085   2.025   6.600 -0.3282  0.5985  0.5611
  597MOL0     C80522   6.209   2.088   6.531 -0.1486  0.1683 -0.5353
  597MOL0     C80523   6.219   2.047   6.386 -1.0939 -0.2614  0.0512
  597MOL0     C80524   6.316   2.134   6.311  0.6762  0.7514  0.7400
  597MOL0     C80525   6.387   2.215   6.253  0.4687 -0.2829 -0.5508
  597MOL0     C80526   5.630   2.011   6.670 -0.6641 -0.0995  0.5404
  597MOL0     C80527   5.502   1.997   6.627  0.4925  0.1222 -0.0627
  597MOL0     H80528   5.061   1.928   6.371  1.2099  0.1783  0.5141
  597MOL0     H80529   4.832   1.976   6.304  1.0640 -0.4890 -0.6851
  597MOL0     H80530   4.688   2.089   6.121 -1.9937  1.3623 -2.3114
  597MOL0     H80531   4.614   2.072   6.287 -0.2673  0.5298  0.2267
  597MOL0     H80532   4.559   2.321   6.114  0.2537 -0.6402 -0.3800
  597MOL0     H80533   4.490   2.169   6.065 -0.3302 -1.8740  0.7554
  597MOL0     H80534   4.374   2.136   6.278 -1.8770 -0.1784 -2.1921
  597MOL0     H80535   4.434   2.293   6.352  0.8188  0.6969 -0.5857
  597MOL0     H80536   4.345   2.405   6.132  1.8782 -0.8479  1.2281
  597MOL0     H80537   4.253   2.259   6.099  1.0216 -0.4099 -1.0689
  597MOL0     H80538   4.128   2.248   6.289 -0.4118  0.5816 -0.3471
  597MOL0     H80539   4.205   2.379   6.373  2.1835  2.1146 -0.4821
  597MOL0     H80540   4.048   2.421   6.103  1.0433  1.2763 -0.7106
  597MOL0     H80541   3.980   2.428   6.270 -1.4155  1.4526 -1.5120
  597MOL0     H80542   4.151   2.609   6.305  0.4315 -0.6331 -0.5752
  597MOL0     H80543   4.202   2.586   6.129  0.1594 -2.0809 -0.6804
  597MOL0     H80544   4.071   2.788   6.138  1.9949 -0.2725  0.2087
  597MOL0     H80545   3.949   2.721   6.227 -1.8733  0.4585 -1.5008
  597MOL0     H80546   3.958   2.823   5.882  1.9840  0.3370  2.3108
  597MOL0     H80547   3.809   2.784   5.677 -1.2899  0.8948 -1.4447
  597MOL0     H80548   3.719   2.636   5.672 -0.0998  1.7035 -2.2588
  597MOL0     H80549   3.550   2.835   5.669 -0.5419 -0.7064 -0.3536
  597MOL0     H80550   3.621   2.883   5.818 -4.9847 -0.0172  2.5443
  597MOL0     H80551   3.511   2.685   5.932 -0.7581  2.1399 -0.2535
  597MOL0     H80552   3.502   2.607   5.773 -2.2814  0.6104 -1.3605
  597MOL0     H80553   3.304   2.747   5.725 -2.2472  0.5076  0.4218
  597MOL0     H80554   3.343   2.858   5.844  3.4207  0.4091  0.7562
  597MOL0     H80555   3.148   2.547   6.088 -1.0180 -1.3566 -1.9949
  597MOL0     H80556   3.013   2.493   6.260 -0.3947  0.6687  1.9019
  597MOL0     H80557   2.860   2.574   6.295  0.9198  1.4127  0.3371
  597MOL0     H80558   2.866   2.477   6.153  0.1350  1.8120 -1.5543
  597MOL0     H80559   2.519   2.755   5.848  2.1821  0.9359  0.4552
  597MOL0     H80560   2.260   2.762   5.850 -2.7119  4.0246  0.0484
  597MOL0     H80561   2.084   2.822   6.234  3.9485  0.4599 -2.3396
  597MOL0     H80562   2.055   2.987   6.182  1.5312  1.5410 -2.0258
  597MOL0     H80563   1.867   2.896   6.034  2.4469  0.1889 -0.7606
  597MOL0     H80564   1.902   2.729   6.096  0.7526 -0.7238  2.3080
  597MOL0     H80565   1.773   2.972   6.242  0.9658  0.2811  0.4723
  597MOL0     H80566   1.827   2.833   6.331 -0.5991 -0.2512 -1.3076
  597MOL0     H80567   1.624   2.838   6.104 -0.9131 -1.6338 -0.4714
  597MOL0     H80568   1.664   2.692   6.197  4.8524  0.2818 -0.5057
  597MOL0     H80569   1.535   2.953   6.312  1.0235  0.2788 -2.7990
  597MOL0     H80570   1.554   2.803   6.408  2.6069 -0.9312 -0.5821
  597MOL0     H80571   1.375   2.822   6.168 -0.9337 -2.0195 -0.9284
  597MOL0     H80572   1.403   2.679   6.263  2.5181  0.0600  1.4337
  597MOL0     H80573   1.310   2.919   6.410 -0.1464  1.1616 -0.9820
  597MOL0     H80574   1.284   2.752   6.449  2.1781  2.3985  1.8986
  597MOL0     H80575   1.134   2.723   6.274 -3.8487  0.2237  1.8603
  597MOL0     H80576   1.178   2.890   6.209  1.6705 -0.4943  0.4122
  597MOL0     H80577   2.273   2.965   6.229  0.7876  1.4973  0.3316
  597MOL0     H80578   2.529   2.952   6.220  3.2294 -0.2953 -1.1200
  597MOL0     H80579   2.886   2.926   5.921  0.8222  0.2857  0.6613
  597MOL0     H80580   3.099   2.886   5.835  1.2884  1.8269  0.5612
  597MOL0     H80581   4.927   2.403   6.303  2.0538  1.4210 -2.5895
  597MOL0     H80582   5.159   2.354   6.318 -0.1113  1.3723  1.7099
  597MOL0     H80583   5.523   2.106   6.311 -0.5784  1.5401  0.2852
  597MOL0     H80584   5.758   2.103   6.370 -1.0734  0.4992 -0.1050
  597MOL0     H80585   5.932   2.020   6.448  3.0719  1.7227 -0.5822
  597MOL0     H80586   5.949   2.181   6.528 -1.8676  0.7721  2.3045
  597MOL0     H80587   6.105   1.918   6.591 -0.5189  0.7081 -1.7931
  597MOL0     H80588   6.091   2.047   6.707  1.8542 -0.4427  0.6972
  597MOL0     H80589   6.298   2.064   6.589  0.5578  3.5971 -0.0255
  597MOL0     H80590   6.204   2.197   6.543  2.0195  0.1905  0.6697
  597MOL0     H80591   6.120   2.054   6.341 -0.8571 -3.0588 -1.0701
  597MOL0     H80592   6.257   1.946   6.371  2.3849  1.1228 -1.8167
  597MOL0     H80593   6.449   2.277   6.192 -0.6077 -0.0905 -1.4742
  597MOL0     H80594   5.666   1.985   6.769 -2.5670 -0.7524  1.1133
  597MOL0     H80595   5.430   1.969   6.703 -1.1977  2.1274 -0.8114
  598MOL0     O80596   3.153   8.465   9.172  0.1341 -0.0413 -0.2910
  598MOL0     C80597   3.193   8.510   9.285 -0.2100  0.6300  0.6887
  598MOL0     O80598   3.114   8.524   9.396 -0.1877  0.3360 -0.5726
  598MOL0     C80599   2.985   8.471   9.396 -0.1142 -0.1381 -1.0949
  598MOL0     C80600   2.890   8.541   9.465  0.4027 -0.1841 -0.7011
  598MOL0     C80601   2.754   8.506   9.483  0.3640  0.3817  0.2996
  598MOL0     C80602   2.713   8.384   9.436 -0.9869 -0.3973 -0.1615
  598MOL0     O80603   2.581   8.346   9.433  0.2780 -0.1133  0.0817
  598MOL0     C80604   2.486   8.446   9.395 -0.6565 -0.6627 -0.3369
  598MOL0     C80605   2.348   8.394   9.411 -0.4885 -0.0214 -0.4664
  598MOL0     C80606   2.251   8.474   9.337  0.0833  0.1408 -0.6326
  598MOL0     C80607   2.104   8.422   9.360  0.4645 -0.2837 -0.5761
  598MOL0     C80608   1.995   8.501   9.276 -0.5195 -0.8058  0.1793
  598MOL0     C80609   1.864   8.428   9.280  0.3925 -0.0852 -1.1872
  598MOL0     C80610   1.760   8.511   9.198  0.6140 -0.4001 -0.4527
  598MOL0     C80611   1.619   8.454   9.201 -0.7465  0.0891  0.5234
  598MOL0     N80612   1.511   8.525   9.136 -0.0270 -0.5540 -1.0812
  598MOL0     C80613   1.463   8.655   9.170 -0.2353 -0.3913 -0.2595
  598MOL0     C80614   1.395   8.703   9.061  0.8551 -0.4765  0.1706
  598MOL0     C80615   1.332   8.836   9.039  0.2732 -0.2049  0.0138
  598MOL0     C80616   1.432   8.931   8.975 -1.5121 -0.2607 -0.3613
  598MOL0     C80617   1.532   8.987   9.072 -0.2586 -0.0268 -0.1799
  598MOL0     C80618   1.630   9.086   9.014 -0.0765 -1.4850  0.3629
  598MOL0     O80619   1.575   9.164   8.910 -0.2531 -0.6203  0.5413
  598MOL0     C80620   1.668   9.165   8.807  0.6262  0.1250  0.4803
  598MOL0     C80621   1.777   9.249   8.807  0.8057 -0.1226  0.0790
  598MOL0     C80622   1.862   9.265   8.691  0.2327  0.3957 -0.1935
  598MOL0     C80623   1.967   9.379   8.693  0.0020 -0.7485  0.0411
  598MOL0     C80624   1.844   9.176   8.584  0.8375  0.2962  0.3136
  598MOL0     C80625   1.917   9.186   8.458 -0.2468 -0.5016  0.8921
  598MOL0     O80626   2.052   9.206   8.462 -0.6626 -0.0844 -0.8499
  598MOL0     C80627   2.128   9.239   8.358  0.0186 -0.4957 -0.1672
  598MOL0     C80628   2.161   9.144   8.258  1.3066  0.1135 -0.5482
  598MOL0     C80629   2.231   9.184   8.149  0.0100  0.5368 -0.3189
  598MOL0     C80630   2.288   9.310   8.132 -0.9197 -0.5478  0.1926
  598MOL0     O80631   2.358   9.362   8.028 -0.1208  0.4430  0.1015
  598MOL0     C80632   2.432   9.269   7.946  0.1806  0.8110  0.2847
  598MOL0     C80633   2.502   9.339   7.835 -0.2766  0.2565  0.4441
  598MOL0     C80634   2.629   9.402   7.889 -0.2408  0.0978 -0.7195
  598MOL0     C80635   2.678   9.498   7.773 -0.0982  0.5805 -0.4049
  598MOL0     C80636   2.825   9.547   7.801  0.6719 -0.2408  0.2357
  598MOL0     C80637   2.921   9.541   7.687 -0.3847 -0.4110 -0.1972
  598MOL0     C80638   2.982   9.405   7.660 -0.9288  0.2439 -0.3681
  598MOL0     C80639   3.116   9.390   7.731  0.4011 -0.1500 -1.0410
  598MOL0    Cl80640   3.165   9.220   7.714  0.2419  0.2546 -0.1482
  598MOL0     C80641   2.259   9.405   8.231  0.0006  0.1596  0.0138
  598MOL0     C80642   2.181   9.368   8.343 -0.3317  0.7253  0.4122
  598MOL0     O80643   1.854   9.162   8.352 -0.3860  0.0416 -0.2141
  598MOL0     C80644   1.742   9.079   8.587 -0.5714 -0.3979 -0.2842
  598MOL0     C80645   1.654   9.074   8.698  0.0603 -0.6353 -0.1045
  598MOL0     N80646   1.398   8.603   8.967 -0.3182  0.4165  0.2866
  598MOL0     N80647   1.466   8.496   9.008  0.5651 -0.8512  0.6115
  598MOL0     C80648   2.810   8.304   9.374  0.5138  0.7517 -0.6348
  598MOL0     C80649   2.941   8.345   9.354 -0.2107  0.3148 -0.2665
  598MOL0     C80650   3.333   8.550   9.290  0.4699  0.2867 -0.0688
  598MOL0     C80651   3.409   8.551   9.173 -0.5410 -0.6284 -0.1312
  598MOL0     C80652   3.543   8.588   9.179  0.5918 -0.2498  0.3725
  598MOL0     C80653   3.603   8.626   9.292 -0.4807 -0.3095 -0.8363
  598MOL0     O80654   3.722   8.697   9.291  0.3525  0.2388  0.4121
  598MOL0     C80655   3.817   8.696   9.185 -0.1278 -0.6534 -0.0844
  598MOL0     C80656   3.889   8.556   9.195 -0.6238 -0.3457  1.1867
  598MOL0     C80657   3.943   8.525   9.333 -0.9456  0.3906 -0.6331
  598MOL0     C80658   4.025   8.398   9.329 -0.4837  0.2372  0.1786
  598MOL0     C80659   4.156   8.403   9.265 -1.4091 -0.2647 -0.0735
  598MOL0     C80660   4.270   8.404   9.212 -0.1604 -0.1067  0.1886
  598MOL0     C80661   3.527   8.628   9.413 -0.6929  0.2085  0.3301
  598MOL0     C80662   3.401   8.576   9.412  0.1971 -0.8136  0.2265
  598MOL0     H80663   2.910   8.641   9.503 -1.0901  0.0541 -0.4592
  598MOL0     H80664   2.688   8.574   9.535 -0.2903  0.5413 -0.7084
  598MOL0     H80665   2.496   8.540   9.450  0.7678  1.8204 -4.4047
  598MOL0     H80666   2.508   8.471   9.291 -1.5400  3.3216  0.2849
  598MOL0     H80667   2.349   8.294   9.367  2.0630 -0.4973  0.4467
  598MOL0     H80668   2.325   8.400   9.518  1.7751 -1.9823  0.2164
  598MOL0     H80669   2.249   8.580   9.365 -1.0363  0.3407 -1.4137
  598MOL0     H80670   2.274   8.457   9.231 -0.2867 -1.4537 -0.4709
  598MOL0     H80671   2.105   8.316   9.334 -0.1675 -0.6140  0.6945
  598MOL0     H80672   2.085   8.447   9.465  1.3658  2.4864 -0.9991
  598MOL0     H80673   1.985   8.604   9.312  3.3092 -0.8462  1.8742
  598MOL0     H80674   2.034   8.522   9.176  1.3551 -1.4124  0.7359
  598MOL0     H80675   1.871   8.334   9.224 -1.1800 -1.6463  1.0915
  598MOL0     H80676   1.840   8.407   9.384  2.1980  4.2353  0.3488
  598MOL0     H80677   1.761   8.616   9.230  2.5263 -0.6707  0.4672
  598MOL0     H80678   1.797   8.524   9.096  1.5954  2.4832  0.1637
  598MOL0     H80679   1.587   8.451   9.306  0.4874 -0.5704  0.9036
  598MOL0     H80680   1.631   8.353   9.160  2.8490 -0.6362  2.9181
  598MOL0     H80681   1.484   8.705   9.264 -0.6792 -0.6200 -0.0360
  598MOL0     H80682   1.235   8.835   8.988  0.7221  0.4416 -0.8845
  598MOL0     H80683   1.306   8.863   9.142  1.1057 -1.6257  0.6214
  598MOL0     H80684   1.370   9.013   8.937 -2.8146  0.2226  2.5414
  598MOL0     H80685   1.479   8.885   8.887 -3.0603 -0.6708 -1.0006
  598MOL0     H80686   1.590   8.904   9.112  0.5413 -0.8324 -2.8178
  598MOL0     H80687   1.481   9.043   9.151  0.6513  0.6699 -0.0811
  598MOL0     H80688   1.722   9.035   8.984  0.4197  1.8785 -5.0275
  598MOL0     H80689   1.663   9.162   9.086 -0.5257  2.7886 -3.4859
  598MOL0     H80690   1.803   9.318   8.887  2.8047  0.2236 -0.7991
  598MOL0     H80691   1.979   9.425   8.594  0.7606 -0.0762  0.4409
  598MOL0     H80692   1.933   9.447   8.772 -3.0671 -2.8975  0.7637
  598MOL0     H80693   2.065   9.353   8.732 -0.4912 -4.2312 -0.7687
  598MOL0     H80694   2.117   9.045   8.265 -0.1019  0.7756  0.5701
  598MOL0     H80695   2.244   9.099   8.082 -2.1857  0.1319 -0.3142
  598MOL0     H80696   2.495   9.197   8.000  1.5694  1.9712  0.2890
  598MOL0     H80697   2.360   9.199   7.904  1.6125 -0.2620 -0.4979
  598MOL0     H80698   2.515   9.265   7.756  0.2587  0.6545  0.1540
  598MOL0     H80699   2.431   9.411   7.794  1.6886  1.3931 -1.1752
  598MOL0     H80700   2.709   9.332   7.916  0.5648  0.0488 -3.0247
  598MOL0     H80701   2.599   9.460   7.977 -0.9776  1.0703 -1.5817
  598MOL0     H80702   2.676   9.453   7.673  0.4904  0.1346 -0.2207
  598MOL0     H80703   2.612   9.585   7.777 -0.2055  0.4555  0.6653
  598MOL0     H80704   2.857   9.485   7.885  0.5677  0.2525  0.6424
  598MOL0     H80705   2.819   9.646   7.847 -3.3302 -0.1085 -0.1856
  598MOL0     H80706   2.869   9.581   7.599  2.3971  0.3147 -1.6344
  598MOL0     H80707   2.997   9.615   7.710 -1.1903  0.1054  0.9133
  598MOL0     H80708   3.001   9.398   7.553  1.9627  2.3720 -0.1083
  598MOL0     H80709   2.917   9.322   7.690 -1.6132  0.9806  0.2343
  598MOL0     H80710   3.115   9.422   7.836 -1.8141  2.0818 -1.6487
  598MOL0     H80711   3.192   9.451   7.681  1.8248 -0.7507  0.2944
  598MOL0     H80712   2.304   9.504   8.220  1.3274 -0.3910  0.2205
  598MOL0     H80713   2.151   9.439   8.420  1.1491 -0.6415  2.3562
  598MOL0     H80714   1.724   9.016   8.500 -3.1345  0.1991 -0.2711
  598MOL0     H80715   1.565   9.012   8.695  1.0124 -2.0200 -0.4585
  598MOL0     H80716   2.781   8.208   9.334 -0.6913 -1.5516  4.8906
  598MOL0     H80717   3.006   8.280   9.295  1.6874 -1.0152  2.9931
  598MOL0     H80718   3.368   8.536   9.073  0.7697  0.3967 -0.8432
  598MOL0     H80719   3.605   8.587   9.090 -1.9833  4.1351 -1.8484
  598MOL0     H80720   3.782   8.726   9.085  0.9821 -1.1719 -0.6498
  598MOL0     H80721   3.898   8.766   9.202 -1.8444  2.4928 -3.4619
  598MOL0     H80722   3.973   8.550   9.125 -1.8234 -1.9775 -0.2001
  598MOL0     H80723   3.823   8.478   9.156  1.1349 -1.5724  0.4837
  598MOL0     H80724   3.857   8.517   9.401 -0.4921 -4.1396 -0.2428
  598MOL0     H80725   4.004   8.605   9.376 -3.4188  1.7663  0.5789
  598MOL0     H80726   3.963   8.325   9.275  0.8183 -0.2571 -0.6936
  598MOL0     H80727   4.033   8.368   9.434  1.8871  0.6255  0.1562
  598MOL0     H80728   4.364   8.411   9.162  0.7001 -1.4739  1.5029
  598MOL0     H80729   3.572   8.670   9.502  5.1174  0.2218 -2.1183
  598MOL0     H80730   3.346   8.576   9.505  0.5838 -1.2719  0.4612
  599MOL0     O80731  11.113  11.307   9.050 -0.1357 -0.2961  0.5150
  599MOL0     C80732  11.098  11.190   9.068  0.1732  0.9910 -0.3917
  599MOL0     O80733  10.990  11.109   9.053  0.8080 -0.1108 -0.3558
  599MOL0     C80734  10.867  11.163   9.031 -0.9844 -0.1055  0.4748
  599MOL0     C80735  10.800  11.236   9.127  0.0178  0.4291  0.0845
  599MOL0     C80736  10.680  11.302   9.089  0.1431  0.8948  0.4587
  599MOL0     C80737  10.637  11.297   8.954  0.1717 -0.5265  0.1081
  599MOL0     O80738  10.529  11.373   8.905 -0.5503  0.7393  0.0003
  599MOL0     C80739  10.421  11.393   8.996 -0.1831 -0.4573  0.4113
  599MOL0     C80740  10.309  11.478   8.921 -0.6580  0.0161 -0.2201
  599MOL0     C80741  10.182  11.474   9.010  0.4356  1.6536  0.5383
  599MOL0     C80742  10.078  11.568   8.956 -0.4235  0.5813 -0.1032
  599MOL0     C80743   9.954  11.575   9.048  0.1060 -0.7864  0.3136
  599MOL0     C80744   9.859  11.682   9.005  0.6425 -0.3447 -0.2943
  599MOL0     C80745   9.731  11.686   9.092 -0.2550 -1.5496  0.0418
  599MOL0     C80746   9.751  11.758   9.231 -0.1370  0.5666 -0.2250
  599MOL0     N80747   9.627  11.779   9.309  0.3378  0.9311 -0.9357
  599MOL0     C80748   9.506  11.722   9.281  0.4144  0.1680 -0.4338
  599MOL0     C80749   9.418  11.782   9.360 -0.0222  0.5574 -0.4179
  599MOL0     C80750   9.272  11.739   9.352 -0.0256  0.7874  0.5152
  599MOL0     C80751   9.257  11.679   9.490 -0.1682  0.0997 -0.2003
  599MOL0     C80752   9.151  11.573   9.513 -0.2984  0.3786  0.3134
  599MOL0     C80753   9.021  11.615   9.467 -0.0857  0.9682 -0.8096
  599MOL0     O80754   8.925  11.528   9.538  0.5989 -0.1225  0.7463
  599MOL0     C80755   8.794  11.555   9.523 -0.0825  0.0327 -0.0467
  599MOL0     C80756   8.737  11.675   9.468 -0.0361 -0.0914 -0.9925
  599MOL0     C80757   8.601  11.686   9.465  0.5965 -0.2960  0.3934
  599MOL0     C80758   8.551  11.811   9.406 -0.4988 -0.0746 -0.7765
  599MOL0     C80759   8.511  11.591   9.516 -0.0248  0.6832  0.6193
  599MOL0     C80760   8.365  11.595   9.508  0.3966 -0.3773  0.2173
  599MOL0     O80761   8.297  11.496   9.574 -0.2279  0.1098  0.8325
  599MOL0     C80762   8.162  11.490   9.562 -0.4271  0.0135 -0.0737
  599MOL0     C80763   8.106  11.364   9.565  0.0660  0.1552  0.6731
  599MOL0     C80764   7.965  11.339   9.575 -0.0434 -0.0565 -0.3300
  599MOL0     C80765   7.872  11.445   9.557 -1.3613  0.1429 -0.4471
  599MOL0     O80766   7.739  11.420   9.577  0.4719 -0.1728  0.0910
  599MOL0     C80767   7.640  11.518   9.551 -0.3352 -0.2743  0.6253
  599MOL0     C80768   7.503  11.468   9.582  0.2652 -0.3342 -0.2292
  599MOL0     C80769   7.419  11.563   9.670 -0.2988 -0.5787 -0.2460
  599MOL0     C80770   7.271  11.542   9.665  0.5100 -0.5848  0.3363
  599MOL0     C80771   7.185  11.620   9.766 -0.8011 -0.8891  0.7820
  599MOL0     C80772   7.206  11.779   9.760  0.4647 -0.3645 -0.5181
  599MOL0     C80773   7.115  11.861   9.841  0.7967 -0.9021  0.2003
  599MOL0     C80774   6.974  11.856   9.799  0.5885  0.0167 -0.0297
  599MOL0    Cl80775   6.871  11.977   9.886 -0.2883 -0.1175  0.2399
  599MOL0     C80776   7.934  11.580   9.554  0.3309 -0.3625 -0.6016
  599MOL0     C80777   8.069  11.599   9.563  0.6089 -0.1336  0.4304
  599MOL0     O80778   8.310  11.680   9.439  0.1736  0.7213 -0.9726
  599MOL0     C80779   8.577  11.478   9.578 -0.6565  0.0418  1.0927
  599MOL0     C80780   8.715  11.460   9.585 -0.6124 -0.2453  0.1354
  599MOL0     N80781   9.482  11.887   9.425 -0.1294 -0.1447 -0.4537
  599MOL0     N80782   9.605  11.892   9.387  0.6479 -0.3652  0.2975
  599MOL0     C80783  10.706  11.223   8.862 -0.4213  0.6719 -0.1491
  599MOL0     C80784  10.824  11.155   8.901  0.3043  0.0700  0.2417
  599MOL0     C80785  11.209  11.129   9.138  0.2343 -0.1094  0.1693
  599MOL0     C80786  11.335  11.204   9.148  0.3086  0.2852 -0.0128
  599MOL0     C80787  11.442  11.151   9.226  0.4875 -0.8491 -0.2670
  599MOL0     C80788  11.431  11.024   9.277  0.3142  0.0663  0.7186
  599MOL0     O80789  11.533  10.967   9.344  0.2958 -0.1514 -0.5031
  599MOL0     C80790  11.545  10.824   9.372 -0.1820  0.0653  0.0717
  599MOL0     C80791  11.680  10.802   9.434 -1.2355 -0.0213 -0.4081
  599MOL0     C80792  11.791  10.804   9.327  0.9322 -0.0297 -0.2971
  599MOL0     C80793  11.918  10.782   9.402 -0.1599 -0.7213  0.0794
  599MOL0     C80794  12.033  10.776   9.321 -0.8326  0.9437 -0.5150
  599MOL0     C80795  12.138  10.770   9.260  0.4946 -0.4909 -0.3520
  599MOL0     C80796  11.309  10.957   9.260 -0.4089 -0.5129  0.5855
  599MOL0     C80797  11.203  11.005   9.189  0.1903  1.0565  0.5924
  599MOL0     H80798  10.821  11.241   9.233 -3.8222  1.7413  0.9550
  599MOL0     H80799  10.626  11.362   9.162  0.0726 -2.2523  3.2147
  599MOL0     H80800  10.392  11.294   9.030  3.8633 -2.0791 -0.3280
  599MOL0     H80801  10.449  11.452   9.084  2.0888 -1.6982  0.6072
  599MOL0     H80802  10.353  11.578   8.931 -1.6382  0.3372  1.1321
  599MOL0     H80803  10.295  11.441   8.819  1.5246  2.4450 -1.5165
  599MOL0     H80804  10.151  11.369   9.012 -0.7821  1.9974  2.4716
  599MOL0     H80805  10.215  11.499   9.111 -1.3039 -0.4660  1.7182
  599MOL0     H80806  10.123  11.668   8.952  3.1200 -0.8539  0.3382
  599MOL0     H80807  10.047  11.542   8.854  0.8520 -0.5746 -0.2258
  599MOL0     H80808   9.907  11.477   9.047 -1.5267 -0.1691 -3.7758
  599MOL0     H80809   9.981  11.595   9.152  0.7369  0.2688 -0.0403
  599MOL0     H80810   9.909  11.779   9.015 -0.4367  0.2371 -0.4582
  599MOL0     H80811   9.845  11.664   8.898  0.9298 -1.0880 -0.2130
  599MOL0     H80812   9.656  11.741   9.033  0.5305  0.9227  1.2083
  599MOL0     H80813   9.680  11.590   9.107  0.2295 -1.6521  1.1487
  599MOL0     H80814   9.801  11.855   9.220  0.8957  0.0837  0.0178
  599MOL0     H80815   9.816  11.695   9.293  0.6189  1.8846  0.3549
  599MOL0     H80816   9.488  11.631   9.225  1.2352 -0.4089  0.2163
  599MOL0     H80817   9.206  11.825   9.334  1.1620  2.2875  2.7632
  599MOL0     H80818   9.260  11.665   9.273  0.6744 -0.9230  1.9338
  599MOL0     H80819   9.242  11.752   9.569  0.8511 -0.0780  0.1757
  599MOL0     H80820   9.346  11.621   9.515 -0.1139 -0.5692 -1.8304
  599MOL0     H80821   9.154  11.550   9.621 -2.6877 -1.1265  0.1339
  599MOL0     H80822   9.184  11.485   9.457 -1.8438  0.7097 -1.1922
  599MOL0     H80823   9.001  11.611   9.360  0.0944 -0.7163 -0.8121
  599MOL0     H80824   9.009  11.719   9.497 -0.0251  0.6340  0.4346
  599MOL0     H80825   8.797  11.752   9.419 -0.0068 -1.8840 -3.9969
  599MOL0     H80826   8.484  11.782   9.324 -1.1219 -1.6564  0.2354
  599MOL0     H80827   8.494  11.866   9.482 -2.2392 -1.7866 -0.7475
  599MOL0     H80828   8.632  11.881   9.381  1.3122 -2.1230 -0.9362
  599MOL0     H80829   8.176  11.280   9.561  1.5222  1.3339  0.5060
  599MOL0     H80830   7.927  11.239   9.591 -0.9550 -0.3083 -3.4381
  599MOL0     H80831   7.667  11.614   9.596 -0.9161  1.1225 -1.8360
  599MOL0     H80832   7.642  11.547   9.445  0.3556  3.1696  1.4613
  599MOL0     H80833   7.446  11.458   9.489  0.6320  0.5278 -0.5520
  599MOL0     H80834   7.510  11.369   9.628 -0.0777 -0.2292  0.0484
  599MOL0     H80835   7.448  11.666   9.648  1.3095 -0.9684 -0.0863
  599MOL0     H80836   7.446  11.548   9.775 -2.1795 -1.7452  0.1150
  599MOL0     H80837   7.230  11.551   9.564 -1.1164  0.3834  1.0445
  599MOL0     H80838   7.259  11.436   9.689 -2.0697 -0.6039 -0.7240
  599MOL0     H80839   7.204  11.582   9.867 -1.0084 -0.4917  0.9732
  599MOL0     H80840   7.083  11.601   9.733 -0.6080 -0.6497  0.0389
  599MOL0     H80841   7.307  11.817   9.781  0.5071  0.7498 -2.4800
  599MOL0     H80842   7.192  11.811   9.657  0.9676  2.1249  0.1380
  599MOL0     H80843   7.138  11.968   9.837 -1.7329 -0.2739  0.8391
  599MOL0     H80844   7.121  11.848   9.949 -3.4974  0.7679  0.8233
  599MOL0     H80845   6.933  11.756   9.816 -0.8653  0.2793 -1.6754
  599MOL0     H80846   6.974  11.863   9.690  1.8586  0.5186 -0.0118
  599MOL0     H80847   7.870  11.668   9.557  1.9931  0.9670 -1.7291
  599MOL0     H80848   8.109  11.700   9.560 -0.4381  0.2944  0.3717
  599MOL0     H80849   8.511  11.402   9.618 -2.1802  1.8487  2.2150
  599MOL0     H80850   8.748  11.373   9.640  1.8262  0.1445 -0.6093
  599MOL0     H80851  10.673  11.227   8.759  1.9715 -0.2744 -1.0322
  599MOL0     H80852  10.879  11.089   8.835 -0.7328 -0.9667  0.4065
  599MOL0     H80853  11.352  11.301   9.104  2.3041  0.5321  1.1743
  599MOL0     H80854  11.541  11.194   9.237 -0.2798  0.8315  0.4101
  599MOL0     H80855  11.468  10.784   9.438 -1.8983 -2.5163 -3.2101
  599MOL0     H80856  11.544  10.750   9.291  2.4252  0.1674 -0.1476
  599MOL0     H80857  11.682  10.707   9.488 -0.7653 -0.9520 -1.9821
  599MOL0     H80858  11.704  10.878   9.508 -0.8543 -3.0574  2.8499
  599MOL0     H80859  11.785  10.901   9.277  0.1854  0.2478  0.3175
  599MOL0     H80860  11.776  10.722   9.256  1.3933 -2.2943  2.0627
  599MOL0     H80861  11.920  10.690   9.462  0.8111 -1.3953 -0.9553
  599MOL0     H80862  11.934  10.866   9.470 -1.2078  0.9031 -1.5962
  599MOL0     H80863  12.235  10.764   9.215  0.7868 -0.2031  0.2359
  599MOL0     H80864  11.306  10.857   9.302 -0.0340 -0.2005  1.3735
  599MOL0     H80865  11.118  10.940   9.171  1.4818 -0.4462 -0.2899
  600MOL0     O80866   9.426   3.213   3.294  0.4780 -0.1566  0.7397
  600MOL0     C80867   9.481   3.105   3.261  0.4359 -0.1162  0.4060
  600MOL0     O80868   9.417   2.985   3.241  0.2283 -0.3264  0.1873
  600MOL0     C80869   9.280   2.980   3.279  0.5602  1.2484 -0.1674
  600MOL0     C80870   9.182   3.052   3.213 -0.6515  0.3220  0.1547
  600MOL0     C80871   9.049   3.047   3.264 -0.2365  0.7264  0.7304
  600MOL0     C80872   9.015   2.962   3.373  0.2263  0.6365  0.1423
  600MOL0     O80873   8.891   2.982   3.413 -0.5231  0.1954 -0.1094
  600MOL0     C80874   8.863   2.948   3.552  0.1906 -0.0903  0.4459
  600MOL0     C80875   8.714   2.966   3.589  0.2355  0.4313 -0.3083
  600MOL0     C80876   8.686   2.961   3.750  0.1741  0.5162  0.9407
  600MOL0     C80877   8.535   2.958   3.772  0.0255  0.1006  0.1347
  600MOL0     C80878   8.508   2.965   3.919 -0.9454 -0.1366 -0.3032
  600MOL0     C80879   8.369   2.941   3.950  0.8218  0.2089  0.0573
  600MOL0     C80880   8.335   2.934   4.100  0.1474  0.2206  0.4164
  600MOL0     C80881   8.176   2.924   4.125 -0.0348 -0.7349  0.4484
  600MOL0     N80882   8.120   3.056   4.138  0.5670  0.5703 -0.6322
  600MOL0     C80883   8.091   3.148   4.037 -1.3122 -0.3592 -0.0216
  600MOL0     C80884   8.012   3.235   4.082 -0.1573  0.4688  0.3721
  600MOL0     C80885   7.960   3.353   4.006 -0.7048  0.4353  0.3908
  600MOL0     C80886   7.813   3.324   3.963  0.5620 -0.3532  0.3686
  600MOL0     C80887   7.714   3.306   4.077 -0.3528  0.0183 -0.4356
  600MOL0     C80888   7.575   3.315   4.028  0.5096  1.6291  0.3201
  600MOL0     O80889   7.479   3.276   4.132 -0.4470  0.5829 -0.2561
  600MOL0     C80890   7.341   3.273   4.115  0.2871  1.0121  0.6917
  600MOL0     C80891   7.261   3.196   4.207 -0.0332 -0.1757  1.1942
  600MOL0     C80892   7.117   3.189   4.209  0.1817 -0.0901  0.1575
  600MOL0     C80893   7.050   3.100   4.309  0.7380 -0.5401 -0.1134
  600MOL0     C80894   7.052   3.268   4.113 -0.0429  1.1784  0.9357
  600MOL0     C80895   6.908   3.252   4.070 -0.5178  0.5810  0.0112
  600MOL0     O80896   6.839   3.154   4.134  0.3705  0.4066  0.8316
  600MOL0     C80897   6.703   3.135   4.130 -0.8105  0.4046  0.6237
  600MOL0     C80898   6.662   3.014   4.181  0.1134  0.8942 -0.6195
  600MOL0     C80899   6.523   2.986   4.196  0.3592  0.0703  0.6598
  600MOL0     C80900   6.432   3.081   4.151 -0.0933  0.7904  0.4659
  600MOL0     O80901   6.305   3.041   4.173 -0.2890  0.2650  0.4271
  600MOL0     C80902   6.196   3.128   4.170 -0.7230 -0.3986  0.6024
  600MOL0     C80903   6.068   3.069   4.209  0.6388  0.1239  0.2139
  600MOL0     C80904   5.941   3.155   4.172  0.1178 -0.2850  0.5291
  600MOL0     C80905   5.820   3.096   4.232 -0.2873  0.8736 -0.3043
  600MOL0     C80906   5.694   3.078   4.137  0.7590 -0.7748  0.6300
  600MOL0     C80907   5.564   3.045   4.204 -0.6962  0.3047  0.5910
  600MOL0     C80908   5.424   3.050   4.124  0.4279 -0.1700  0.1291
  600MOL0     C80909   5.305   3.001   4.212 -0.7728  0.1020 -0.5000
  600MOL0    Cl80910   5.308   2.814   4.211 -0.3310 -0.0096  0.2377
  600MOL0     C80911   6.473   3.204   4.112 -0.5696 -0.6044 -0.3019
  600MOL0     C80912   6.607   3.223   4.085  0.2670  0.5841 -0.3687
  600MOL0     O80913   6.856   3.333   3.992  0.1633 -0.3733  0.4095
  600MOL0     C80914   7.132   3.345   4.017  0.1166  0.3499  0.0402
  600MOL0     C80915   7.271   3.345   4.013 -0.3110 -0.1846 -0.3174
  600MOL0     N80916   7.984   3.209   4.214 -0.1839 -0.0941  0.1104
  600MOL0     N80917   8.053   3.105   4.247  0.3293 -0.2091 -0.1227
  600MOL0     C80918   9.114   2.889   3.437  0.1594 -0.4623 -0.1672
  600MOL0     C80919   9.243   2.898   3.382 -0.0800  0.3438 -0.3785
  600MOL0     C80920   9.626   3.113   3.223 -0.7865 -0.0296  0.2623
  600MOL0     C80921   9.679   2.997   3.163 -0.0586 -0.1503  0.0166
  600MOL0     C80922   9.810   2.989   3.118 -0.0787 -0.0632 -0.6153
  600MOL0     C80923   9.895   3.109   3.119 -0.0637 -0.0158  0.4902
  600MOL0     O80924  10.024   3.113   3.083 -0.3731 -0.1919  0.1595
  600MOL0     C80925  10.075   2.996   3.011  0.6215 -0.4875  0.3680
  600MOL0     C80926  10.018   2.995   2.867 -0.7116  0.0072  0.6590
  600MOL0     C80927  10.120   2.907   2.789  0.6397  0.5120 -0.6107
  600MOL0     C80928  10.059   2.867   2.654 -0.6092 -0.1271 -0.0565
  600MOL0     C80929  10.165   2.800   2.573 -0.1261  0.9464 -0.1971
  600MOL0     C80930  10.233   2.723   2.501  0.4086  0.0692 -0.8451
  600MOL0     C80931   9.839   3.224   3.176 -0.4518  0.3161 -0.2794
  600MOL0     C80932   9.711   3.222   3.232  0.1294 -0.2045  0.7256
  600MOL0     H80933   9.206   3.108   3.123 -1.6576  1.4328  0.5431
  600MOL0     H80934   8.984   3.123   3.223  1.6875  1.3015 -1.5331
  600MOL0     H80935   8.895   2.844   3.567  3.1960  1.0862  3.9753
  600MOL0     H80936   8.922   3.013   3.618 -1.0003  0.5962  0.8626
  600MOL0     H80937   8.679   3.061   3.547  0.2835  0.2518 -0.7669
  600MOL0     H80938   8.665   2.876   3.551 -0.7937 -0.1238  2.1505
  600MOL0     H80939   8.733   2.868   3.783 -0.9121 -0.8852 -1.2213
  600MOL0     H80940   8.729   3.041   3.811  0.4967 -0.3287  1.8447
  600MOL0     H80941   8.487   3.026   3.701 -0.4433 -0.9621 -0.6072
  600MOL0     H80942   8.493   2.863   3.737 -0.8194  0.5835 -0.2076
  600MOL0     H80943   8.564   2.892   3.977 -3.2133 -2.0088 -0.3142
  600MOL0     H80944   8.516   3.067   3.958 -1.1450 -0.3441  0.2910
  600MOL0     H80945   8.318   3.024   3.899 -0.3891 -1.1745 -1.0855
  600MOL0     H80946   8.334   2.845   3.909 -0.3532 -0.0642  1.5956
  600MOL0     H80947   8.400   2.857   4.142  0.0736 -1.5241 -2.4376
  600MOL0     H80948   8.360   3.033   4.141 -0.1346  1.0629 -1.3796
  600MOL0     H80949   8.157   2.874   4.221 -0.0641 -1.9158 -0.1606
  600MOL0     H80950   8.132   2.876   4.038  0.4740  0.5635 -0.5526
  600MOL0     H80951   8.127   3.147   3.935 -1.0965  1.5356  0.0056
  600MOL0     H80952   7.970   3.445   4.065  1.0782 -0.5061  1.6414
  600MOL0     H80953   8.016   3.375   3.915 -3.1331 -2.6232 -2.0425
  600MOL0     H80954   7.804   3.248   3.885  1.7591  0.4012 -0.5475
  600MOL0     H80955   7.783   3.424   3.929 -0.9267  0.4169  3.5429
  600MOL0     H80956   7.729   3.389   4.147  0.7795  0.1907 -0.8552
  600MOL0     H80957   7.726   3.207   4.123  3.1612 -0.7781 -2.6705
  600MOL0     H80958   7.570   3.253   3.938 -1.7410  0.2215  1.3220
  600MOL0     H80959   7.545   3.415   3.996 -0.7055  1.7040  1.6297
  600MOL0     H80960   7.308   3.135   4.284 -0.6396  0.1506  1.8354
  600MOL0     H80961   6.971   3.160   4.355  0.5014 -1.6365  0.9628
  600MOL0     H80962   7.009   3.009   4.264 -1.8051 -0.4054  1.7177
  600MOL0     H80963   7.114   3.059   4.388 -0.3920 -2.0316  0.0719
  600MOL0     H80964   6.741   2.945   4.205 -0.3489  0.0181 -1.5648
  600MOL0     H80965   6.491   2.887   4.228  1.7739 -0.1976  1.3234
  600MOL0     H80966   6.215   3.219   4.228 -1.0968 -1.0765  1.8219
  600MOL0     H80967   6.187   3.159   4.065  0.9886 -4.2588 -0.8703
  600MOL0     H80968   6.071   2.969   4.166  3.1117 -0.0128  0.5689
  600MOL0     H80969   6.086   3.045   4.314  0.4831 -0.7406  0.0489
  600MOL0     H80970   5.931   3.157   4.063  1.1974 -1.1278  0.4044
  600MOL0     H80971   5.948   3.262   4.197 -0.9372  0.5140 -2.2563
  600MOL0     H80972   5.843   2.999   4.277  0.1218  0.9094 -0.4271
  600MOL0     H80973   5.791   3.157   4.318 -1.2072 -1.3691  1.0672
  600MOL0     H80974   5.716   2.994   4.071 -1.8906 -2.3994  1.6913
  600MOL0     H80975   5.667   3.173   4.089  1.6129 -1.7699 -1.9740
  600MOL0     H80976   5.587   2.941   4.231 -1.1386  0.2710  0.8471
  600MOL0     H80977   5.555   3.097   4.300 -4.9189  2.1875 -0.5601
  600MOL0     H80978   5.421   2.988   4.034 -3.4294  2.3458 -1.7564
  600MOL0     H80979   5.404   3.148   4.081 -1.4667 -1.8503 -3.1952
  600MOL0     H80980   5.212   3.041   4.171 -0.4531  0.5458 -0.8009
  600MOL0     H80981   5.308   3.046   4.312  1.0925 -1.5663  0.2709
  600MOL0     H80982   6.400   3.276   4.077  0.7202  1.7412  1.5156
  600MOL0     H80983   6.635   3.321   4.048  1.0366 -0.0283 -1.4376
  600MOL0     H80984   7.084   3.404   3.940 -1.7488 -0.2333  0.7093
  600MOL0     H80985   7.330   3.404   3.944  1.1517 -0.4878  0.6294
  600MOL0     H80986   9.102   2.811   3.512  1.0485 -2.0000 -1.5302
  600MOL0     H80987   9.313   2.826   3.422 -1.2701  0.3669  1.9276
  600MOL0     H80988   9.625   2.906   3.140  0.7870 -0.4516 -0.8827
  600MOL0     H80989   9.859   2.898   3.083 -1.3756 -1.4879  1.0958
  600MOL0     H80990  10.183   3.011   3.001  0.1437  2.3672 -1.6021
  600MOL0     H80991  10.050   2.908   3.071 -3.1831 -0.7853 -1.3791
  600MOL0     H80992  10.025   3.094   2.821  4.5835 -1.2956 -2.1911
  600MOL0     H80993   9.916   2.956   2.858 -0.8239  0.2052  1.0558
  600MOL0     H80994  10.146   2.813   2.839  1.6994  0.1995 -1.7237
  600MOL0     H80995  10.211   2.963   2.767  0.1476  1.1367 -1.1152
  600MOL0     H80996  10.028   2.961   2.607 -4.0065 -0.7615  0.6838
  600MOL0     H80997   9.970   2.807   2.676  0.2901 -1.9341 -1.0520
  600MOL0     H80998  10.277   2.649   2.437  0.5489 -0.7248  0.1336
  600MOL0     H80999   9.898   3.315   3.184 -1.1056  0.6452  0.9535
  600MOL0     H81000   9.677   3.321   3.264  4.9937  1.7587  0.6677
  601MOL0     O81001   5.366   3.307   1.456 -0.8470  0.0438 -0.1735
  601MOL0     C81002   5.418   3.201   1.435 -0.6302 -0.7013 -0.9434
  601MOL0     O81003   5.354   3.081   1.418  0.3426  0.0020  0.3922
  601MOL0     C81004   5.222   3.085   1.441  0.7930  0.0221 -0.3293
  601MOL0     C81005   5.130   3.134   1.346  0.2280 -0.5516 -0.5411
  601MOL0     C81006   4.991   3.127   1.357  0.3810 -0.7828 -0.1224
  601MOL0     C81007   4.927   3.078   1.475 -0.6862 -0.5452 -0.2446
  601MOL0     O81008   4.793   3.069   1.498 -0.1494 -0.3175  1.0398
  601MOL0     C81009   4.692   3.090   1.405 -0.1329 -1.0908  0.1666
  601MOL0     C81010   4.559   3.075   1.483 -0.2018  0.3750  0.4307
  601MOL0     C81011   4.436   3.063   1.390  1.0655  0.7857 -0.4721
  601MOL0     C81012   4.415   3.193   1.300 -0.1680 -0.5173 -0.0116
  601MOL0     C81013   4.282   3.191   1.224  0.6754 -0.2984 -0.1784
  601MOL0     C81014   4.266   3.079   1.118 -0.1103 -0.2531 -0.2657
  601MOL0     C81015   4.361   3.077   1.006 -0.3434  0.0925 -0.0135
  601MOL0     C81016   4.288   3.008   0.893 -0.0658  0.9147 -0.0707
  601MOL0     N81017   4.196   3.084   0.828 -0.0019  0.2682 -0.7268
  601MOL0     C81018   4.229   3.175   0.731 -1.1193 -0.1516  0.8149
  601MOL0     C81019   4.111   3.216   0.682  0.6522  0.1502 -0.0118
  601MOL0     C81020   4.079   3.320   0.585  0.5184 -0.2902  0.3277
  601MOL0     C81021   4.110   3.303   0.438  0.2298 -0.5316  0.2923
  601MOL0     C81022   4.072   3.439   0.362  0.3297  0.0680  0.1003
  601MOL0     C81023   3.928   3.456   0.357  0.2338 -0.1636 -0.4864
  601MOL0     O81024   3.907   3.543   0.245  0.5427 -0.6095  1.1556
  601MOL0     C81025   3.777   3.560   0.201  0.0236 -0.6199 -0.0266
  601MOL0     C81026   3.745   3.666   0.106 -0.3739  0.0075  0.1360
  601MOL0     C81027   3.619   3.690   0.057 -0.4777 -0.2908  0.9682
  601MOL0     C81028   3.611   3.816  -0.032  0.5329  0.6575  0.1347
  601MOL0     C81029   3.514   3.607   0.096 -0.1381  0.5563  0.7332
  601MOL0     C81030   3.373   3.624   0.048  0.0672  0.0466 -0.1022
  601MOL0     O81031   3.275   3.580   0.128  0.3533  0.1485 -0.1793
  601MOL0     C81032   3.145   3.586   0.070 -1.1863  0.0860  0.9474
  601MOL0     C81033   3.072   3.467   0.051 -0.8892 -0.0589  0.3178
  601MOL0     C81034   2.934   3.471   0.010  0.0572 -0.8008 -0.0451
  601MOL0     C81035   2.864   3.590  -0.014 -0.4992  0.5159 -0.5434
  601MOL0     O81036   2.738   3.585  -0.050  0.9971 -0.5608 -0.4640
  601MOL0     C81037   2.667   3.708  -0.075 -0.2023  0.4971  0.2680
  601MOL0     C81038   2.526   3.671  -0.125  0.7707 -0.4439 -0.7483
  601MOL0     C81039   2.459   3.788  -0.176  0.0910  0.8632  1.2076
  601MOL0     C81040   2.397   3.873  -0.068 -0.0792 -0.7541 -0.3404
  601MOL0     C81041   2.323   3.990  -0.127  0.1036 -0.2120 -0.6952
  601MOL0     C81042   2.206   3.960  -0.216 -1.5157 -0.4023  0.9012
  601MOL0     C81043   2.102   4.065  -0.213 -0.4813 -0.6268  0.6913
  601MOL0     C81044   2.134   4.199  -0.271 -0.5960 -0.5005  0.0934
  601MOL0    Cl81045   1.999   4.318  -0.227 -0.1115  0.2256  0.2670
  601MOL0     C81046   2.944   3.709  -0.003 -1.0273  0.0477 -0.2235
  601MOL0     C81047   3.078   3.707   0.044  0.0103 -0.2090 -0.8296
  601MOL0     O81048   3.355   3.694  -0.056  0.0772 -0.2367 -0.2600
  601MOL0     C81049   3.536   3.511   0.195  0.9042 -0.1742  0.2851
  601MOL0     C81050   3.660   3.500   0.252 -0.9400  0.0387  0.1972
  601MOL0     N81051   4.003   3.154   0.738 -0.7353  0.8296 -0.1757
  601MOL0     N81052   4.056   3.076   0.827  0.2587  0.8112 -0.4028
  601MOL0     C81053   5.017   3.050   1.579  0.6207 -1.4786  0.1877
  601MOL0     C81054   5.154   3.044   1.558  0.3569  0.2870 -0.1552
  601MOL0     C81055   5.566   3.193   1.431 -0.0170  0.7195  0.3012
  601MOL0     C81056   5.630   3.063   1.438  1.2005  0.0974  0.3017
  601MOL0     C81057   5.762   3.051   1.456 -0.3824  0.3084 -0.3556
  601MOL0     C81058   5.847   3.165   1.443  0.3671 -0.3798  0.2220
  601MOL0     O81059   5.983   3.164   1.439  0.1126  0.8466  0.1825
  601MOL0     C81060   6.043   3.063   1.515 -0.3807 -0.3935  0.3135
  601MOL0     C81061   6.195   3.095   1.543  0.2050 -0.9172 -0.0812
  601MOL0     C81062   6.202   3.236   1.607 -0.9199  0.3667 -0.4902
  601MOL0     C81063   6.343   3.254   1.681  0.2708  0.1724 -0.0850
  601MOL0     C81064   6.445   3.245   1.577  1.1263 -0.1269  0.8647
  601MOL0     C81065   6.517   3.240   1.477 -0.4221 -0.4010 -0.5733
  601MOL0     C81066   5.777   3.291   1.431  0.3869  0.0389  0.5610
  601MOL0     C81067   5.644   3.313   1.435  0.3373  0.2219 -0.1763
  601MOL0     H81068   5.173   3.166   1.252  3.2595 -0.5888  0.7201
  601MOL0     H81069   4.922   3.169   1.285 -1.0013  3.4773  3.2473
  601MOL0     H81070   4.702   3.182   1.346 -2.2396 -1.2939 -0.5916
  601MOL0     H81071   4.698   3.011   1.330  0.1814  0.6530 -1.7199
  601MOL0     H81072   4.577   2.990   1.549  0.1662 -0.0050 -0.1551
  601MOL0     H81073   4.537   3.170   1.533 -0.1464 -0.0240  1.2321
  601MOL0     H81074   4.443   2.972   1.330 -1.7960 -1.8266  2.7262
  601MOL0     H81075   4.352   3.052   1.459 -0.1591  2.9064 -1.5030
  601MOL0     H81076   4.427   3.280   1.365  0.5210 -0.5359 -0.1137
  601MOL0     H81077   4.504   3.204   1.238  0.8434  0.8896  1.6352
  601MOL0     H81078   4.199   3.189   1.296 -0.5285  1.2772 -1.4447
  601MOL0     H81079   4.263   3.288   1.176 -1.0453 -0.4580  0.1044
  601MOL0     H81080   4.269   2.984   1.173 -0.8045  1.7561  3.5748
  601MOL0     H81081   4.163   3.088   1.084 -0.4145  1.9633  1.0605
  601MOL0     H81082   4.393   3.178   0.978 -0.0935  0.0617  0.1587
  601MOL0     H81083   4.450   3.027   1.046 -0.4193 -1.1855 -1.3481
  601MOL0     H81084   4.230   2.920   0.921  0.0553  0.9216  0.2078
  601MOL0     H81085   4.363   2.983   0.817 -0.7038  1.4633 -0.8892
  601MOL0     H81086   4.331   3.194   0.699 -0.9031 -1.1559  0.8917
  601MOL0     H81087   3.973   3.350   0.588  0.9661  2.2004 -2.6824
  601MOL0     H81088   4.136   3.408   0.616  0.9338  0.0307 -1.2422
  601MOL0     H81089   4.061   3.218   0.390  2.1681 -0.4360 -2.0485
  601MOL0     H81090   4.218   3.282   0.433  0.4569  0.7526 -2.5306
  601MOL0     H81091   4.120   3.441   0.263  0.7248 -1.5567  0.2263
  601MOL0     H81092   4.121   3.524   0.409  1.6529  0.8138 -2.4279
  601MOL0     H81093   3.905   3.501   0.454 -0.0185 -0.5103 -0.3823
  601MOL0     H81094   3.865   3.368   0.341 -0.1499 -0.7664  3.2564
  601MOL0     H81095   3.832   3.716   0.065  0.7362 -1.6396  0.3940
  601MOL0     H81096   3.566   3.887   0.038  1.0395 -0.8518  2.0529
  601MOL0     H81097   3.710   3.858  -0.052  1.6405 -0.6145  2.5685
  601MOL0     H81098   3.561   3.790  -0.126  1.8805 -0.8915 -0.2006
  601MOL0     H81099   3.128   3.375   0.065 -1.9939 -0.7586  0.2288
  601MOL0     H81100   2.888   3.373  -0.004  2.1811 -2.0166  1.1103
  601MOL0     H81101   2.670   3.750   0.026 -0.7097 -1.9141  1.3545
  601MOL0     H81102   2.717   3.772  -0.148  0.8272 -1.1539 -0.5222
  601MOL0     H81103   2.537   3.604  -0.211  2.4817 -0.8801 -0.2416
  601MOL0     H81104   2.469   3.620  -0.047  1.2857  0.2748  0.1190
  601MOL0     H81105   2.373   3.748  -0.231 -0.4634  1.5326  1.5741
  601MOL0     H81106   2.515   3.846  -0.250  0.6069  1.1492  1.8081
  601MOL0     H81107   2.319   3.818  -0.014 -1.4301  0.2026 -1.2389
  601MOL0     H81108   2.477   3.899   0.002 -0.4056  2.8735 -1.0812
  601MOL0     H81109   2.393   4.051  -0.185  0.1128  0.1947 -0.2621
  601MOL0     H81110   2.287   4.050  -0.042  0.0042 -1.6305  0.2911
  601MOL0     H81111   2.232   3.947  -0.322  1.3480 -0.0376  1.4870
  601MOL0     H81112   2.163   3.862  -0.196 -2.5328 -0.3128 -0.6518
  601MOL0     H81113   2.069   4.078  -0.110 -2.2462 -0.7500  0.1864
  601MOL0     H81114   2.018   4.040  -0.280 -2.1358  2.6150  1.3362
  601MOL0     H81115   2.154   4.194  -0.378  1.7585 -0.4452  0.4684
  601MOL0     H81116   2.229   4.232  -0.228 -0.7496 -1.1569  0.9723
  601MOL0     H81117   2.900   3.807  -0.024 -1.4876  0.0144  0.5385
  601MOL0     H81118   3.127   3.802   0.060  1.0157 -0.8466  0.0080
  601MOL0     H81119   3.455   3.467   0.251  0.6734  0.8541  0.7720
  601MOL0     H81120   3.680   3.447   0.345  2.0696 -1.8524 -1.3438
  601MOL0     H81121   4.991   3.017   1.680  1.3111  2.0987  1.6998
  601MOL0     H81122   5.218   3.020   1.642 -0.9722 -0.3735  0.6970
  601MOL0     H81123   5.566   2.977   1.451  0.4832  0.5845  0.0811
  601MOL0     H81124   5.801   2.950   1.460  0.1928  0.5785  2.5603
  601MOL0     H81125   5.991   3.046   1.610 -1.0470 -3.2579 -0.4673
  601MOL0     H81126   6.038   2.968   1.461  2.2569  0.1507 -1.0352
  601MOL0     H81127   6.248   3.085   1.448 -0.7574 -0.1811 -0.7130
  601MOL0     H81128   6.225   3.024   1.621 -0.2522  1.8413  2.8424
  601MOL0     H81129   6.124   3.244   1.683  1.1680  0.0455  1.8496
  601MOL0     H81130   6.191   3.324   1.544  2.1963  1.4133  0.2372
  601MOL0     H81131   6.354   3.172   1.753 -2.8738 -0.2059  0.1061
  601MOL0     H81132   6.344   3.348   1.738 -2.1823  0.4674 -0.4250
  601MOL0     H81133   6.591   3.220   1.401  0.1797  0.5717 -0.2584
  601MOL0     H81134   5.836   3.383   1.429 -0.8103  0.8295 -0.9045
  601MOL0     H81135   5.588   3.405   1.441 -1.3161 -0.7447 -0.1268
  602MOL0     O81136   0.356   5.474  10.980  0.1715  0.5193 -0.1924
  602MOL0     C81137   0.445   5.462  10.897 -0.1032  0.1088  0.3517
  602MOL0     O81138   0.426   5.438  10.765 -0.2251 -0.5517  0.1274
  602MOL0     C81139   0.299   5.409  10.717  1.2181 -0.7207  0.2240
  602MOL0     C81140   0.296   5.391  10.576 -0.2847 -0.3989  0.2446
  602MOL0     C81141   0.169   5.385  10.513 -0.5490  0.2262  0.1507
  602MOL0     C81142   0.054   5.356  10.584  0.4534  0.2357 -0.0705
  602MOL0     O81143  -0.058   5.361  10.510 -0.2351 -0.3529  0.4092
  602MOL0     C81144  -0.182   5.304  10.554  0.4443  0.8485 -0.3561
  602MOL0     C81145  -0.257   5.274  10.428  0.6155 -0.7179 -0.0855
  602MOL0     C81146  -0.403   5.226  10.451 -0.1106 -0.1592  0.7354
  602MOL0     C81147  -0.485   5.182  10.331  0.1606  0.4621 -0.1307
  602MOL0     C81148  -0.500   5.305  10.235 -0.2746  0.1422  0.0786
  602MOL0     C81149  -0.606   5.275  10.127 -0.4113  1.1219 -1.0824
  602MOL0     C81150  -0.616   5.377  10.022 -0.1053 -0.3618  0.1528
  602MOL0     C81151  -0.703   5.333   9.901  0.4557  0.0363 -0.4461
  602MOL0     N81152  -0.840   5.346   9.938  1.1483 -0.5083  0.1250
  602MOL0     C81153  -0.921   5.461   9.956 -0.3316 -0.3699 -0.0552
  602MOL0     C81154  -1.052   5.424   9.973 -0.0577 -0.7671  0.3163
  602MOL0     C81155  -1.178   5.516   9.980 -0.9294 -0.0076 -0.2281
  602MOL0     C81156  -1.238   5.515   9.833 -0.1079 -0.2398 -1.2423
  602MOL0     C81157  -1.300   5.380   9.782  0.4260 -0.1466 -0.1803
  602MOL0     C81158  -1.399   5.315   9.877 -1.0304 -0.0937  0.1336
  602MOL0     O81159  -1.468   5.201   9.819 -0.8154 -0.2767 -0.6396
  602MOL0     C81160  -1.399   5.084   9.776 -0.5115 -0.3575 -0.5830
  602MOL0     C81161  -1.283   5.044   9.836  0.8151 -0.0276 -0.6542
  602MOL0     C81162  -1.194   4.945   9.793 -0.1687 -0.7618  0.4076
  602MOL0     C81163  -1.063   4.921   9.867  0.5391  0.3357 -0.1020
  602MOL0     C81164  -1.253   4.854   9.690  0.1824 -0.5561 -0.3926
  602MOL0     C81165  -1.180   4.737   9.650  0.4839 -0.1469 -0.3367
  602MOL0     O81166  -1.213   4.687   9.518 -0.4243  0.5046  0.4384
  602MOL0     C81167  -1.162   4.569   9.461  0.3924  0.6368  0.4238
  602MOL0     C81168  -1.081   4.474   9.518 -0.7074 -0.1522  0.5051
  602MOL0     C81169  -1.022   4.380   9.424 -0.4740 -0.6220  0.4807
  602MOL0     C81170  -1.049   4.370   9.282  0.3009 -0.2934 -0.4256
  602MOL0     O81171  -0.999   4.269   9.204  0.0752 -0.4432  0.1603
  602MOL0     C81172  -1.020   4.269   9.062  0.0515  0.1881  0.0563
  602MOL0     C81173  -0.976   4.132   9.013 -0.8027 -0.2082 -0.8131
  602MOL0     C81174  -0.939   4.126   8.862  0.7640  0.4543 -0.3907
  602MOL0     C81175  -0.941   3.988   8.797  0.2063 -0.1839  0.3394
  602MOL0     C81176  -0.882   4.006   8.650  0.2732 -0.2813 -0.5024
  602MOL0     C81177  -0.732   4.048   8.641 -0.2538  0.1803  0.7023
  602MOL0     C81178  -0.641   3.990   8.748  0.3851 -0.2598  0.3856
  602MOL0     C81179  -0.495   3.987   8.721 -0.2108  0.5020 -0.4937
  602MOL0    Cl81180  -0.463   3.838   8.619 -0.4011  0.0323 -0.0990
  602MOL0     C81181  -1.141   4.473   9.239  0.4481  0.2874  0.2009
  602MOL0     C81182  -1.197   4.569   9.325 -0.8655 -0.1321  0.7785
  602MOL0     O81183  -1.083   4.689   9.714 -0.2001 -0.3957 -0.2155
  602MOL0     C81184  -1.379   4.892   9.639 -0.4629 -0.4698  0.4563
  602MOL0     C81185  -1.455   5.006   9.677 -0.2560 -1.1193 -0.2907
  602MOL0     N81186  -1.045   5.289   9.986 -0.2399 -0.4277 -0.1920
  602MOL0     N81187  -0.923   5.239   9.961  0.1584 -0.5168  0.0161
  602MOL0     C81188   0.060   5.353  10.724 -0.3778  0.1548  0.4407
  602MOL0     C81189   0.176   5.389  10.782 -0.2579  0.7365 -0.0677
  602MOL0     C81190   0.583   5.466  10.930  1.3596 -0.2976 -0.0520
  602MOL0     C81191   0.613   5.500  11.060 -1.0133 -0.1897 -0.4551
  602MOL0     C81192   0.750   5.519  11.097  0.0155 -0.9395  0.0281
  602MOL0     C81193   0.852   5.517  11.000 -0.6719 -0.6318  0.1855
  602MOL0     O81194   0.977   5.543  11.048  0.7926  0.5638 -0.1525
  602MOL0     C81195   1.087   5.498  10.959  0.9342 -0.0215  0.0270
  602MOL0     C81196   1.228   5.524  11.007  0.5311 -0.0519 -0.1643
  602MOL0     C81197   1.281   5.423  11.107 -0.0243 -0.8001 -1.0720
  602MOL0     C81198   1.248   5.454  11.251  0.4400 -0.5469  0.8201
  602MOL0     C81199   1.342   5.538  11.322 -0.2491  0.6703  0.2856
  602MOL0     C81200   1.410   5.607  11.394 -0.6071  0.3361  0.4612
  602MOL0     C81201   0.824   5.485  10.864  0.3862  0.5636 -0.5718
  602MOL0     C81202   0.687   5.470  10.831  0.4568  0.4677 -0.8089
  602MOL0     H81203   0.384   5.406  10.514  0.4683 -2.7621  0.6567
  602MOL0     H81204   0.151   5.392  10.406  0.9098 -0.3398 -0.1597
  602MOL0     H81205  -0.155   5.215  10.612  2.2570  1.1791 -0.6274
  602MOL0     H81206  -0.245   5.374  10.609  1.1818  0.6582  0.7742
  602MOL0     H81207  -0.258   5.359  10.359 -0.7408 -0.7050 -0.0631
  602MOL0     H81208  -0.203   5.186  10.390 -1.9311 -2.3161 -0.2579
  602MOL0     H81209  -0.388   5.138  10.514 -4.0729 -2.3689 -1.0262
  602MOL0     H81210  -0.461   5.308  10.492 -0.7328  0.0584 -0.5246
  602MOL0     H81211  -0.438   5.088  10.300  2.3024  0.9664  1.3400
  602MOL0     H81212  -0.583   5.149  10.366  0.6566 -2.7710 -1.4277
  602MOL0     H81213  -0.520   5.397  10.292 -0.0566  2.1096 -2.8213
  602MOL0     H81214  -0.405   5.322  10.184  1.5221  0.8153  3.3440
  602MOL0     H81215  -0.583   5.181  10.076  2.4520  1.2205 -0.1567
  602MOL0     H81216  -0.701   5.276  10.182  1.0216  6.3128  2.0042
  602MOL0     H81217  -0.639   5.474  10.067 -0.4456 -0.7826  0.9004
  602MOL0     H81218  -0.517   5.392   9.978  0.7616  0.1196  2.1337
  602MOL0     H81219  -0.687   5.231   9.867  0.1645 -0.5100  0.9779
  602MOL0     H81220  -0.691   5.407   9.821  0.9142  0.7189  0.2387
  602MOL0     H81221  -0.889   5.565   9.963  0.0192 -0.5010  0.2940
  602MOL0     H81222  -1.244   5.466  10.051 -0.9274 -2.6371 -1.9371
  602MOL0     H81223  -1.159   5.617  10.017 -0.6670 -1.1750  3.2179
  602MOL0     H81224  -1.162   5.539   9.758  1.4288 -2.1438 -0.3798
  602MOL0     H81225  -1.318   5.590   9.831  0.2337  0.1366 -0.9727
  602MOL0     H81226  -1.211   5.317   9.766  1.5849  0.6281  2.5747
  602MOL0     H81227  -1.344   5.402   9.685  0.6315  3.3078  0.3731
  602MOL0     H81228  -1.478   5.384   9.908  0.3212  0.9016  1.4672
  602MOL0     H81229  -1.343   5.277   9.963  0.3334 -0.0822 -0.7317
  602MOL0     H81230  -1.246   5.085   9.929  1.0928 -0.5193 -0.5417
  602MOL0     H81231  -1.051   5.010   9.930  2.1954  0.1791 -0.1649
  602MOL0     H81232  -1.062   4.835   9.934 -0.5255 -0.7497 -1.4145
  602MOL0     H81233  -0.975   4.919   9.803  0.5266 -3.7154 -0.2571
  602MOL0     H81234  -1.056   4.469   9.624 -4.3229 -2.4946  1.4778
  602MOL0     H81235  -0.950   4.307   9.460 -1.3001 -1.1452  1.1500
  602MOL0     H81236  -1.126   4.289   9.042  0.2969  0.2798 -1.2232
  602MOL0     H81237  -0.948   4.338   9.018  1.2892 -1.4994 -0.6925
  602MOL0     H81238  -0.892   4.096   9.073  0.7546  1.2012 -2.0796
  602MOL0     H81239  -1.056   4.056   9.014 -1.3680  0.2498 -3.4903
  602MOL0     H81240  -0.841   4.172   8.846  0.4500  0.6136 -1.9483
  602MOL0     H81241  -1.014   4.188   8.812  0.4173 -0.7004 -1.3365
  602MOL0     H81242  -0.887   3.923   8.866  2.6567  0.3042 -1.0168
  602MOL0     H81243  -1.045   3.957   8.782  0.9702 -2.5332 -0.5278
  602MOL0     H81244  -0.945   4.085   8.608 -2.7738 -1.3851  1.6229
  602MOL0     H81245  -0.904   3.909   8.602 -1.4890 -1.4885  2.4816
  602MOL0     H81246  -0.694   4.016   8.543  4.3270  0.2529  2.2096
  602MOL0     H81247  -0.721   4.157   8.642  2.0928  0.0122  0.3795
  602MOL0     H81248  -0.670   3.886   8.760  1.0409 -1.0925 -3.7747
  602MOL0     H81249  -0.663   4.035   8.845  0.7736 -0.4575  0.5671
  602MOL0     H81250  -0.442   3.985   8.816  1.3333  0.5889 -1.3173
  602MOL0     H81251  -0.466   4.079   8.668 -0.3663  1.0901  0.4120
  602MOL0     H81252  -1.156   4.476   9.132  0.2977 -3.0837  0.0027
  602MOL0     H81253  -1.258   4.647   9.280 -1.2038  0.1895  1.7815
  602MOL0     H81254  -1.402   4.836   9.549 -0.4000 -1.5058  1.0659
  602MOL0     H81255  -1.538   5.036   9.615 -1.9829 -2.2040  1.3776
  602MOL0     H81256  -0.030   5.326  10.776 -1.0601  0.9479 -0.2892
  602MOL0     H81257   0.187   5.383  10.890  0.9663  5.8290  0.3248
  602MOL0     H81258   0.528   5.520  11.124 -1.6731 -0.6294 -1.1767
  602MOL0     H81259   0.768   5.538  11.203  2.0412 -0.4531 -0.3571
  602MOL0     H81260   1.068   5.392  10.939 -0.3090  0.4479 -1.3693
  602MOL0     H81261   1.080   5.554  10.866 -1.2493 -0.3801 -0.0690
  602MOL0     H81262   1.238   5.628  11.038 -0.3798  0.2816 -0.9320
  602MOL0     H81263   1.298   5.508  10.924  0.1302 -1.3601 -0.2665
  602MOL0     H81264   1.388   5.431  11.085 -0.1585  0.6536 -1.2928
  602MOL0     H81265   1.244   5.328  11.067  3.8316 -2.1521 -1.8878
  602MOL0     H81266   1.239   5.357  11.300  1.2853 -0.7852  0.5327
  602MOL0     H81267   1.152   5.506  11.253  2.6094  4.0096 -0.3088
  602MOL0     H81268   1.454   5.667  11.472 -1.7644  0.3031  1.1541
  602MOL0     H81269   0.898   5.508  10.788  0.5050  1.9305 -0.0657
  602MOL0     H81270   0.668   5.450  10.726  0.9594 -2.3182 -0.4600
  603MOL0     O81271   2.238   9.483   2.647 -0.2517 -0.0854 -0.3054
  603MOL0     C81272   2.292   9.541   2.739  0.2872  0.6153  0.1855
  603MOL0     O81273   2.228   9.620   2.830  0.0690  0.1753 -0.0858
  603MOL0     C81274   2.096   9.631   2.847  0.0376  0.0133  0.0613
  603MOL0     C81275   1.998   9.540   2.803 -0.7538 -0.3188 -0.4475
  603MOL0     C81276   1.863   9.558   2.822 -0.4644 -0.5111  0.5157
  603MOL0     C81277   1.819   9.671   2.890 -0.6673 -0.5037 -0.1176
  603MOL0     O81278   1.683   9.679   2.904 -0.2002 -0.2087 -0.2954
  603MOL0     C81279   1.625   9.814   2.910  0.3504 -0.3966 -0.2187
  603MOL0     C81280   1.485   9.802   2.848  0.3701 -0.5313 -0.2112
  603MOL0     C81281   1.405   9.922   2.895  0.3470 -1.0026  0.1784
  603MOL0     C81282   1.309   9.962   2.781  0.6593  0.0708  0.1045
  603MOL0     C81283   1.207  10.072   2.827  0.4411 -0.3574 -0.0509
  603MOL0     C81284   1.113  10.132   2.714 -1.0917  0.4387 -0.4398
  603MOL0     C81285   0.982  10.194   2.783 -0.7952  0.4435 -0.2203
  603MOL0     C81286   0.900  10.264   2.675 -0.4301 -0.0890 -0.9338
  603MOL0     N81287   0.835  10.166   2.586  0.3242  0.2908  0.7884
  603MOL0     C81288   0.740  10.082   2.633 -0.4436  0.0669  0.1030
  603MOL0     C81289   0.679  10.041   2.524  0.5826  0.0996  0.2452
  603MOL0     C81290   0.562   9.945   2.514  0.2106  0.6683 -0.3643
  603MOL0     C81291   0.426  10.021   2.502 -0.9289 -0.1480  1.5976
  603MOL0     C81292   0.318   9.914   2.501 -0.8023 -0.5485  0.6581
  603MOL0     C81293   0.173   9.970   2.479 -0.0681 -0.0151 -0.6371
  603MOL0     O81294   0.167  10.037   2.352  0.6761 -0.1684  0.6514
  603MOL0     C81295   0.051  10.078   2.279 -0.1405 -0.4320 -0.8342
  603MOL0     C81296   0.068  10.155   2.161 -0.0945  0.4677 -0.1970
  603MOL0     C81297  -0.042  10.194   2.090 -0.1720 -0.4828  0.4746
  603MOL0     C81298  -0.011  10.256   1.962  0.6483  0.7924 -0.3670
  603MOL0     C81299  -0.173  10.164   2.138 -0.9171  0.8460  0.6299
  603MOL0     C81300  -0.298  10.209   2.063 -0.8768  0.0477  0.1575
  603MOL0     O81301  -0.415  10.185   2.134  0.2381 -0.1093  0.2122
  603MOL0     C81302  -0.538  10.181   2.062 -0.3690 -0.3158  0.3400
  603MOL0     C81303  -0.655  10.225   2.116  0.3313 -0.5197  1.0791
  603MOL0     C81304  -0.777  10.199   2.054  0.2066  1.1573 -0.5133
  603MOL0     C81305  -0.781  10.129   1.933 -0.5073  0.8619 -0.3896
  603MOL0     O81306  -0.903  10.109   1.868 -0.1550 -0.0543 -0.1549
  603MOL0     C81307  -0.918  10.137   1.731  0.4740  0.3163  0.4496
  603MOL0     C81308  -1.060  10.085   1.687  0.2046  0.4178 -0.5185
  603MOL0     C81309  -1.089  10.131   1.546 -0.6223  0.0669 -0.2193
  603MOL0     C81310  -1.234  10.130   1.526  0.8528 -0.2477  0.1708
  603MOL0     C81311  -1.289   9.989   1.537 -0.3000  0.1753 -0.5902
  603MOL0     C81312  -1.437   9.969   1.491 -0.3400  0.3665 -0.4517
  603MOL0     C81313  -1.471   9.819   1.469 -0.6920 -0.4150  0.0490
  603MOL0     C81314  -1.616   9.811   1.460  0.6537  0.7459 -0.8242
  603MOL0    Cl81315  -1.683   9.798   1.626 -0.0862  0.4766  0.1601
  603MOL0     C81316  -0.660  10.074   1.883 -0.7106  0.3281 -0.4355
  603MOL0     C81317  -0.538  10.095   1.948 -0.3812  0.1604  0.0535
  603MOL0     O81318  -0.292  10.258   1.950 -0.7074  0.1958  0.1440
  603MOL0     C81319  -0.189  10.092   2.262  0.5014 -0.3575  0.2629
  603MOL0     C81320  -0.077  10.056   2.334 -0.2014  0.3389 -0.7264
  603MOL0     N81321   0.730  10.106   2.407 -0.4023  0.3397 -0.8184
  603MOL0     N81322   0.821  10.184   2.449  0.0765 -0.4872 -0.2347
  603MOL0     C81323   1.911   9.762   2.930 -0.4381  0.9804 -0.3766
  603MOL0     C81324   2.047   9.745   2.911  0.1009 -0.8320 -0.3195
  603MOL0     C81325   2.442   9.540   2.740 -0.3231 -0.1670  0.3145
  603MOL0     C81326   2.523   9.549   2.847  0.2462  0.4731 -0.2209
  603MOL0     C81327   2.659   9.543   2.833  0.0147 -1.0891  0.5070
  603MOL0     C81328   2.728   9.549   2.717 -0.1490 -0.2371  0.1731
  603MOL0     O81329   2.864   9.532   2.720 -0.2492 -0.0891  0.1098
  603MOL0     C81330   2.934   9.507   2.596  0.4110 -0.5382 -0.2172
  603MOL0     C81331   3.061   9.439   2.634 -0.0542 -0.6501 -0.4690
  603MOL0     C81332   3.033   9.285   2.679 -0.0404 -1.0347 -0.1795
  603MOL0     C81333   3.167   9.199   2.673  0.8702 -0.1868  0.3386
  603MOL0     C81334   3.142   9.049   2.676  0.1553  0.3642  1.0508
  603MOL0     C81335   3.134   8.931   2.671 -0.6295 -0.1332  0.0031
  603MOL0     C81336   2.649   9.555   2.600 -0.0097 -0.4124 -0.2999
  603MOL0     C81337   2.508   9.545   2.610 -0.6642 -0.5860 -0.5897
  603MOL0     H81338   2.031   9.442   2.768 -2.3124 -0.6010 -1.2334
  603MOL0     H81339   1.791   9.488   2.782 -0.5559 -0.7645  1.1170
  603MOL0     H81340   1.620   9.847   3.015 -1.4671  0.0057 -0.3970
  603MOL0     H81341   1.694   9.876   2.852 -1.2737 -1.0944 -3.0840
  603MOL0     H81342   1.490   9.795   2.739 -1.1403 -1.1547 -0.2640
  603MOL0     H81343   1.447   9.712   2.896  1.7371 -1.2870 -0.4948
  603MOL0     H81344   1.351   9.892   2.985  1.0303  0.2285  1.0328
  603MOL0     H81345   1.473  10.006   2.912  0.7005 -1.1476 -0.5002
  603MOL0     H81346   1.382   9.994   2.706  0.5672 -0.2237 -0.1100
  603MOL0     H81347   1.253   9.875   2.746  0.0285 -0.1474  1.5779
  603MOL0     H81348   1.132  10.024   2.891 -1.7360  1.7164 -0.8722
  603MOL0     H81349   1.247  10.151   2.890  0.1510  0.1332 -0.4769
  603MOL0     H81350   1.168  10.214   2.666  0.9431 -1.2901 -1.2305
  603MOL0     H81351   1.088  10.056   2.640  1.8777 -2.0606  0.8814
  603MOL0     H81352   0.932  10.104   2.819  0.2289 -0.4386 -0.9132
  603MOL0     H81353   1.021  10.258   2.862 -0.6338 -0.6228  0.5944
  603MOL0     H81354   0.956  10.333   2.611  0.8932 -1.1588 -0.9778
  603MOL0     H81355   0.822  10.321   2.725  1.0196  1.6069 -0.5009
  603MOL0     H81356   0.715  10.043   2.732 -2.7289  0.4462 -0.2781
  603MOL0     H81357   0.578   9.869   2.436  2.4619 -0.3758  1.0082
  603MOL0     H81358   0.560   9.893   2.610 -1.7987 -0.8269 -1.1387
  603MOL0     H81359   0.422  10.085   2.413  0.8616 -0.9337  0.9010
  603MOL0     H81360   0.408  10.079   2.592  1.4738  0.1989  1.9194
  603MOL0     H81361   0.327   9.853   2.591 -2.3026  0.1250  1.2829
  603MOL0     H81362   0.325   9.853   2.410 -0.4994  1.9694 -1.1214
  603MOL0     H81363   0.160  10.041   2.561  4.4011  0.2283  0.1157
  603MOL0     H81364   0.096   9.893   2.485  0.5563 -0.8075 -2.1115
  603MOL0     H81365   0.172  10.170   2.133  0.0761  0.2837  0.3092
  603MOL0     H81366  -0.062  10.196   1.886 -1.2735  1.0273  0.6770
  603MOL0     H81367  -0.067  10.350   1.966 -2.5080 -0.8710 -2.1666
  603MOL0     H81368   0.098  10.270   1.959  0.5046  1.9024 -1.1829
  603MOL0     H81369  -0.629  10.278   2.207  2.3214 -0.6846  0.6647
  603MOL0     H81370  -0.869  10.224   2.107 -0.3179 -0.5803 -0.5557
  603MOL0     H81371  -0.906  10.245   1.721 -0.3288  0.2239 -2.5169
  603MOL0     H81372  -0.839  10.091   1.671  1.6641  1.9945  0.6539
  603MOL0     H81373  -1.067   9.976   1.692 -0.4822  0.4004 -1.4846
  603MOL0     H81374  -1.126  10.124   1.764  0.7877  4.1470 -1.7297
  603MOL0     H81375  -1.038  10.066   1.474  1.0871  0.8919  0.2035
  603MOL0     H81376  -1.069  10.238   1.545 -3.1670  0.7595  3.2319
  603MOL0     H81377  -1.278  10.191   1.606  3.2676  0.5960  0.9518
  603MOL0     H81378  -1.271  10.177   1.434 -0.6485  0.2442  0.9986
  603MOL0     H81379  -1.281   9.940   1.635 -0.6733 -1.0790 -1.1714
  603MOL0     H81380  -1.239   9.929   1.462 -3.1012 -0.7958 -1.8283
  603MOL0     H81381  -1.489  10.007   1.579  3.6967  2.8858  1.1045
  603MOL0     H81382  -1.452  10.026   1.398  2.5989  2.2386  0.0891
  603MOL0     H81383  -1.435   9.753   1.549 -0.8762 -0.1306  0.3688
  603MOL0     H81384  -1.424   9.790   1.375 -0.6191  2.0240 -0.7248
  603MOL0     H81385  -1.639   9.725   1.395 -0.1028  1.7533 -1.9339
  603MOL0     H81386  -1.667   9.894   1.411 -2.9095  0.8797  2.6262
  603MOL0     H81387  -0.666  10.022   1.788 -1.6439  1.8504 -1.2477
  603MOL0     H81388  -0.443  10.056   1.912 -1.1046 -1.0200 -0.6335
  603MOL0     H81389  -0.287  10.071   2.306  2.6383 -2.9028  4.5504
  603MOL0     H81390  -0.078  10.001   2.428  2.0650 -1.1360 -1.4790
  603MOL0     H81391   1.864   9.850   2.973 -2.8641 -0.6676  0.5866
  603MOL0     H81392   2.127   9.808   2.949 -0.4266 -0.5537  0.3546
  603MOL0     H81393   2.475   9.548   2.945  2.0239 -0.7227  0.6986
  603MOL0     H81394   2.716   9.545   2.926 -0.0907  1.4150  0.5789
  603MOL0     H81395   2.878   9.432   2.539 -2.0741  0.8595  0.2450
  603MOL0     H81396   2.948   9.600   2.540 -1.2933  1.4543  2.4264
  603MOL0     H81397   3.101   9.498   2.717  0.1656  0.1999 -1.1789
  603MOL0     H81398   3.121   9.436   2.543 -1.0775  3.0390 -1.4106
  603MOL0     H81399   2.963   9.231   2.614 -2.6759  0.6197  1.1315
  603MOL0     H81400   2.984   9.274   2.777  1.2787 -1.4577  0.4588
  603MOL0     H81401   3.233   9.224   2.756  0.5285  2.6635 -0.1434
  603MOL0     H81402   3.224   9.225   2.583 -0.3417 -3.5321 -1.5771
  603MOL0     H81403   3.126   8.825   2.653  2.5179 -1.2678  3.8593
  603MOL0     H81404   2.707   9.562   2.509  0.7822  0.0831  0.2309
  603MOL0     H81405   2.457   9.544   2.514  1.8700 -1.3004 -2.0286
  604MOL0     O81406   2.100   8.760   2.140  0.3725  0.1205  0.0018
  604MOL0     C81407   2.197   8.819   2.194 -0.3746 -1.1468  1.0232
  604MOL0     O81408   2.205   8.855   2.325  0.4245 -0.2756  0.1400
  604MOL0     C81409   2.087   8.832   2.395 -0.1916 -0.5670 -0.5160
  604MOL0     C81410   2.095   8.763   2.511  0.4036 -0.7924 -0.6184
  604MOL0     C81411   1.988   8.758   2.602  0.2670  0.1286 -0.1905
  604MOL0     C81412   1.861   8.808   2.571 -0.3251 -0.2049 -0.0982
  604MOL0     O81413   1.748   8.793   2.642 -0.4019 -0.4593 -0.6793
  604MOL0     C81414   1.757   8.724   2.768 -0.3579  0.4638 -0.2074
  604MOL0     C81415   1.800   8.819   2.889 -0.7827  0.7666  0.3977
  604MOL0     C81416   1.694   8.924   2.909 -0.0507  0.4093  0.5876
  604MOL0     C81417   1.703   8.961   3.055  0.0036  0.3109 -0.3606
  604MOL0     C81418   1.603   9.058   3.103 -0.1333 -0.1261  0.1111
  604MOL0     C81419   1.609   9.203   3.054  0.0193  1.0936  0.2886
  604MOL0     C81420   1.508   9.279   3.133  0.7324  1.0097 -0.4263
  604MOL0     C81421   1.504   9.420   3.070  0.4023 -0.1593 -0.7029
  604MOL0     N81422   1.383   9.482   3.095 -0.0322  0.5161 -0.1301
  604MOL0     C81423   1.296   9.510   2.996  0.5889 -0.4066 -0.4062
  604MOL0     C81424   1.221   9.607   3.049  0.2442  0.2228  0.5729
  604MOL0     C81425   1.114   9.688   2.986  0.9197 -0.6401  0.0662
  604MOL0     C81426   0.975   9.642   3.037  0.1780  0.0115 -0.0142
  604MOL0     C81427   0.864   9.688   2.942  0.3558  0.5364 -0.8717
  604MOL0     C81428   0.728   9.663   3.003 -0.0663 -0.0768  0.0816
  604MOL0     O81429   0.632   9.708   2.906  0.9494 -0.0883  0.5059
  604MOL0     C81430   0.496   9.679   2.934  0.0927 -0.4655 -0.1378
  604MOL0     C81431   0.437   9.683   3.060  0.2358 -0.3926 -0.0376
  604MOL0     C81432   0.297   9.664   3.083  0.7821  0.3167 -0.8182
  604MOL0     C81433   0.252   9.707   3.220 -0.7628  0.0445 -0.4811
  604MOL0     C81434   0.214   9.618   2.985 -0.4299 -0.1759  0.4458
  604MOL0     C81435   0.072   9.592   3.002 -0.4014  0.0942 -0.0116
  604MOL0     O81436   0.015   9.561   3.120  0.1135 -0.7361  0.5910
  604MOL0     C81437  -0.120   9.567   3.142 -0.5415  0.0387  0.3676
  604MOL0     C81438  -0.210   9.650   3.082 -0.1991 -0.3888 -0.0815
  604MOL0     C81439  -0.345   9.655   3.102 -0.2080 -0.2377  0.1872
  604MOL0     C81440  -0.394   9.576   3.215  0.1976  1.2234  0.8200
  604MOL0     O81441  -0.533   9.578   3.240 -0.0248  0.0297  0.4207
  604MOL0     C81442  -0.576   9.574   3.378 -1.0588  0.1724  0.4883
  604MOL0     C81443  -0.729   9.543   3.387 -1.2312 -0.8431  0.0780
  604MOL0     C81444  -0.776   9.542   3.541 -0.6331 -0.5898 -0.2849
  604MOL0     C81445  -0.928   9.512   3.551  0.6317 -0.2768  0.0004
  604MOL0     C81446  -1.001   9.586   3.663 -1.1077 -0.2480 -0.5830
  604MOL0     C81447  -1.150   9.569   3.641 -0.1915 -0.0444 -0.7538
  604MOL0     C81448  -1.235   9.603   3.769 -0.9977 -0.4608 -0.5778
  604MOL0     C81449  -1.387   9.567   3.744 -0.8994  0.0388 -0.9669
  604MOL0    Cl81450  -1.463   9.650   3.593 -0.1305  0.4523  0.2006
  604MOL0     C81451  -0.307   9.485   3.279  0.0048  0.1307 -0.0716
  604MOL0     C81452  -0.169   9.488   3.244  0.3955  0.2550 -0.1850
  604MOL0     O81453   0.014   9.590   2.899 -0.1505 -0.0211  0.5152
  604MOL0     C81454   0.274   9.587   2.858 -0.4423 -0.6639 -0.0499
  604MOL0     C81455   0.413   9.628   2.836  0.0183 -0.8350  0.0912
  604MOL0     N81456   1.254   9.634   3.185  0.0261 -0.0211  0.4117
  604MOL0     N81457   1.361   9.559   3.208 -0.0854  0.0873  0.9202
  604MOL0     C81458   1.850   8.867   2.447  0.4705  0.7607 -0.1733
  604MOL0     C81459   1.962   8.877   2.363  0.1398  0.5989  0.1891
  604MOL0     C81460   2.325   8.852   2.113 -0.0904  0.6366  0.1834
  604MOL0     C81461   2.330   8.857   1.973  0.7170 -0.9679  0.6341
  604MOL0     C81462   2.447   8.883   1.903 -0.5210 -0.6913  1.0093
  604MOL0     C81463   2.566   8.900   1.974  0.2200 -0.9257 -0.0628
  604MOL0     O81464   2.679   8.905   1.893 -0.1001  0.3837  0.2712
  604MOL0     C81465   2.799   8.861   1.952 -0.4896  0.2326 -0.6293
  604MOL0     C81466   2.910   8.881   1.846 -0.3235 -0.2261 -0.1100
  604MOL0     C81467   2.891   8.761   1.744 -0.3766  0.6076 -0.4243
  604MOL0     C81468   2.988   8.756   1.628  0.5036 -0.2232  0.3366
  604MOL0     C81469   3.122   8.759   1.685  0.8402 -0.5735  0.5019
  604MOL0     C81470   3.234   8.759   1.738  0.8816  0.7030  0.7898
  604MOL0     C81471   2.567   8.897   2.113  0.9742  0.1961  0.0870
  604MOL0     C81472   2.452   8.863   2.187  0.2781 -0.9602  0.1533
  604MOL0     H81473   2.196   8.734   2.539  1.0113 -0.6612 -2.4979
  604MOL0     H81474   2.009   8.719   2.701  0.5149 -0.2334 -0.3844
  604MOL0     H81475   1.662   8.678   2.799  0.2796 -1.1350 -0.5400
  604MOL0     H81476   1.822   8.636   2.773 -2.4769 -1.1378  1.8529
  604MOL0     H81477   1.807   8.755   2.978 -5.8756  0.3192  0.7538
  604MOL0     H81478   1.895   8.871   2.869 -1.0409  0.2520 -2.6063
  604MOL0     H81479   1.720   9.008   2.843 -1.1653 -0.9692 -1.7532
  604MOL0     H81480   1.592   8.896   2.882  0.0556 -1.7645  2.1885
  604MOL0     H81481   1.685   8.868   3.110  0.3046  0.3994 -0.1053
  604MOL0     H81482   1.801   9.003   3.081 -0.3539  0.6420  0.4870
  604MOL0     H81483   1.505   9.012   3.094  0.5966 -1.8292  0.5244
  604MOL0     H81484   1.620   9.067   3.210 -1.9489 -1.1445  0.5181
  604MOL0     H81485   1.715   9.232   3.057  0.7248 -0.6676 -2.9011
  604MOL0     H81486   1.582   9.204   2.948 -1.4583  1.9033  0.6461
  604MOL0     H81487   1.408   9.234   3.128  0.6812  0.9232  0.9972
  604MOL0     H81488   1.522   9.288   3.241 -3.9155 -1.9238  0.7350
  604MOL0     H81489   1.515   9.416   2.961 -0.6767 -0.4673 -0.8117
  604MOL0     H81490   1.578   9.486   3.116  0.1623  1.0009 -1.9388
  604MOL0     H81491   1.289   9.478   2.893 -0.4982 -1.0984 -0.1318
  604MOL0     H81492   1.124   9.792   3.016  1.7505 -0.0534 -2.0323
  604MOL0     H81493   1.126   9.689   2.877  0.2100 -0.1830 -0.0085
  604MOL0     H81494   0.957   9.685   3.136 -4.0028 -2.5929  0.6387
  604MOL0     H81495   0.977   9.534   3.058 -4.5574 -0.5106 -1.0637
  604MOL0     H81496   0.870   9.635   2.847 -1.3504  2.1433 -1.9686
  604MOL0     H81497   0.865   9.797   2.932 -0.8228  0.7067  0.5655
  604MOL0     H81498   0.707   9.721   3.093 -0.8111 -1.7941  1.0807
  604MOL0     H81499   0.699   9.562   3.035 -1.8888  0.4731  0.3116
  604MOL0     H81500   0.496   9.715   3.145  3.3438 -1.5087 -1.6111
  604MOL0     H81501   0.320   9.782   3.263  1.3012 -0.6413 -2.3557
  604MOL0     H81502   0.163   9.770   3.216 -0.7230  0.4838  2.7422
  604MOL0     H81503   0.238   9.626   3.293 -1.9907  1.0536  0.4487
  604MOL0     H81504  -0.179   9.710   2.998 -1.7354  0.5208 -0.0340
  604MOL0     H81505  -0.410   9.729   3.057 -2.1986  0.5651  3.9713
  604MOL0     H81506  -0.518   9.502   3.437  1.7270  1.2981 -0.6784
  604MOL0     H81507  -0.550   9.672   3.420  1.4481 -0.1295 -0.1974
  604MOL0     H81508  -0.783   9.614   3.323 -1.4278 -2.4805 -1.6570
  604MOL0     H81509  -0.765   9.451   3.342  0.7499 -1.0017 -1.2852
  604MOL0     H81510  -0.750   9.633   3.596 -2.5738  1.7496 -2.9521
  604MOL0     H81511  -0.727   9.459   3.594 -1.4073  1.2449  3.6447
  604MOL0     H81512  -0.978   9.544   3.459 -1.9101  1.8175  1.9608
  604MOL0     H81513  -0.953   9.406   3.563  1.0790 -0.2823  0.9451
  604MOL0     H81514  -0.973   9.690   3.677  1.4247 -1.1298  1.8180
  604MOL0     H81515  -0.968   9.538   3.756  0.1232  1.4870 -0.0854
  604MOL0     H81516  -1.168   9.642   3.561  2.3357  1.5550 -0.0101
  604MOL0     H81517  -1.165   9.463   3.619  0.6878  0.0856 -2.1607
  604MOL0     H81518  -1.218   9.706   3.801 -1.5335 -1.6799  4.4550
  604MOL0     H81519  -1.200   9.552   3.859 -1.0355  0.5329  0.0163
  604MOL0     H81520  -1.443   9.588   3.835  0.1213 -1.0111 -0.0697
  604MOL0     H81521  -1.387   9.460   3.722 -3.5506 -0.0094 -1.0555
  604MOL0     H81522  -0.341   9.416   3.355 -1.5108  0.8277 -0.0814
  604MOL0     H81523  -0.101   9.422   3.297 -1.4442 -1.3569  0.2760
  604MOL0     H81524   0.220   9.539   2.777 -0.0833 -0.9997 -0.0964
  604MOL0     H81525   0.463   9.625   2.740 -1.1639  0.1270 -0.5737
  604MOL0     H81526   1.748   8.898   2.430  0.3404  0.9733  0.9381
  604MOL0     H81527   1.940   8.933   2.273 -2.1977 -3.3957 -1.9915
  604MOL0     H81528   2.240   8.848   1.914  1.3162  0.1297 -0.4798
  604MOL0     H81529   2.454   8.888   1.795 -1.4239  3.5919  0.9942
  604MOL0     H81530   2.828   8.934   2.029  1.6496 -2.3764  1.2572
  604MOL0     H81531   2.800   8.759   1.992  0.3738  0.1588 -0.8216
  604MOL0     H81532   3.008   8.889   1.894  0.0943  0.2673 -1.0224
  604MOL0     H81533   2.895   8.979   1.799 -1.3096 -0.1503  0.3331
  604MOL0     H81534   2.791   8.776   1.705 -0.7827 -1.5849 -0.3596
  604MOL0     H81535   2.897   8.664   1.795 -0.4080  0.8420  0.0294
  604MOL0     H81536   2.984   8.840   1.559  2.1728 -1.3220 -1.1920
  604MOL0     H81537   2.969   8.662   1.575  1.0927 -0.5866  0.7655
  604MOL0     H81538   3.329   8.756   1.786  1.2641  0.2037  0.0291
  604MOL0     H81539   2.661   8.908   2.165  0.8183  1.1525  0.1835
  604MOL0     H81540   2.457   8.858   2.296 -0.0179  0.5837  0.2630
  605MOL0     O81541   9.373  10.827   9.645  0.3189  0.3791  0.1652
  605MOL0     C81542   9.409  10.892   9.547 -0.5258  0.2959 -0.1604
  605MOL0     O81543   9.330  10.971   9.468 -0.4308  0.3148 -0.3007
  605MOL0     C81544   9.199  10.968   9.499 -0.6080 -0.8295  0.0431
  605MOL0     C81545   9.111  10.874   9.449  0.0994 -0.0759 -0.5296
  605MOL0     C81546   8.972  10.881   9.475 -0.4828 -0.6951 -1.0234
  605MOL0     C81547   8.929  10.982   9.552 -0.2277  0.1152 -0.8567
  605MOL0     O81548   8.798  11.005   9.590  0.3027  0.4069  0.4207
  605MOL0     C81549   8.736  11.115   9.522 -0.1235 -0.0382  0.5523
  605MOL0     C81550   8.598  11.155   9.584  0.5241  0.7095  0.0139
  605MOL0     C81551   8.506  11.039   9.624  0.1355 -0.0989 -0.9804
  605MOL0     C81552   8.377  11.078   9.700  0.4386 -0.0379  0.8751
  605MOL0     C81553   8.269  10.973   9.676  0.4427  0.1541  0.0124
  605MOL0     C81554   8.145  10.994   9.770  0.8391  0.0168 -0.5684
  605MOL0     C81555   8.007  10.959   9.699  0.2147 -0.2819  0.3548
  605MOL0     C81556   7.898  10.982   9.804  0.0065 -0.3932 -0.5329
  605MOL0     N81557   7.767  10.963   9.748  0.0735  0.7333  0.0406
  605MOL0     C81558   7.662  10.888   9.807 -0.3933  1.0323  0.3973
  605MOL0     C81559   7.573  10.888   9.703 -0.0292 -0.5946 -0.0749
  605MOL0     C81560   7.443  10.811   9.694  0.1109 -0.6781 -0.6697
  605MOL0     C81561   7.371  10.836   9.829 -0.0907 -0.9950  0.2007
  605MOL0     C81562   7.230  10.780   9.840 -0.2929  0.2002  0.3726
  605MOL0     C81563   7.168  10.843   9.957  0.1004 -0.0224  0.2105
  605MOL0     O81564   7.044  10.775   9.967 -0.5308  0.3598  0.5562
  605MOL0     C81565   6.962  10.772  10.080  0.1624  0.6116 -0.0793
  605MOL0     C81566   6.964  10.863  10.191 -0.2201  0.4204  0.7696
  605MOL0     C81567   6.873  10.848  10.303  0.3740  0.0815 -0.0834
  605MOL0     C81568   6.873  10.944  10.413 -1.0764 -0.7214 -0.1464
  605MOL0     C81569   6.794  10.729  10.312  0.3399 -0.4948  0.2034
  605MOL0     C81570   6.702  10.703  10.429 -0.4486 -1.1763  0.1559
  605MOL0     O81571   6.594  10.626  10.393 -0.2609  0.0533  0.1933
  605MOL0     C81572   6.500  10.595  10.482  1.0245 -0.4580 -1.0413
  605MOL0     C81573   6.501  10.469  10.537  0.2133 -0.6142  0.2565
  605MOL0     C81574   6.399  10.434  10.629  0.3538 -0.1470  0.4909
  605MOL0     C81575   6.290  10.520  10.656 -0.4610  0.1837 -0.9768
  605MOL0     O81576   6.188  10.491  10.739  0.7556 -0.6609 -0.3825
  605MOL0     C81577   6.214  10.394  10.845  0.8543  0.1711 -0.2288
  605MOL0     C81578   6.112  10.279  10.833  0.1984 -0.8087 -0.2590
  605MOL0     C81579   6.111  10.208  10.700  0.0800  0.2864 -0.1020
  605MOL0     C81580   6.213  10.094  10.677  0.7556 -0.1395 -0.3638
  605MOL0     C81581   6.217  10.034  10.535 -0.6116 -0.1244  0.0029
  605MOL0     C81582   6.296  10.140  10.445 -1.0327 -0.5607  0.1118
  605MOL0     C81583   6.313  10.099  10.297  0.1886  0.0555  0.5571
  605MOL0     C81584   6.403  10.199  10.224 -0.1410  0.3687  0.3621
  605MOL0    Cl81585   6.399  10.156  10.050 -0.1449  0.1363 -0.0087
  605MOL0     C81586   6.297  10.647  10.609 -0.4663 -0.8563 -0.1546
  605MOL0     C81587   6.404  10.692  10.521  0.5083 -0.1653  0.1609
  605MOL0     O81588   6.717  10.753  10.538 -0.0368  0.0702 -0.0568
  605MOL0     C81589   6.797  10.639  10.198 -0.6268 -0.5146  0.7718
  605MOL0     C81590   6.883  10.665  10.097 -0.5160 -0.0785 -0.4283
  605MOL0     N81591   7.619  10.978   9.605  1.0905 -0.6288 -0.0503
  605MOL0     N81592   7.735  11.033   9.641  0.5182  0.1513 -0.7792
  605MOL0     C81593   9.018  11.077   9.601  0.2218  0.3488 -1.0888
  605MOL0     C81594   9.151  11.072   9.573  0.3634 -0.2904 -0.0297
  605MOL0     C81595   9.554  10.867   9.523 -0.5847 -0.7880  0.0223
  605MOL0     C81596   9.639  10.794   9.611  0.5198 -0.8977  0.4183
  605MOL0     C81597   9.771  10.778   9.579 -0.3718  0.3923  0.0192
  605MOL0     C81598   9.828  10.830   9.462 -0.6851  0.5783 -0.2791
  605MOL0     O81599   9.964  10.814   9.434 -0.3215  0.1195  0.2674
  605MOL0     C81600  10.021  10.832   9.302 -1.5371  1.1392  0.4075
  605MOL0     C81601  10.145  10.743   9.284  0.2457  0.4048 -0.5286
  605MOL0     C81602  10.236  10.749   9.408 -0.1730  0.1264 -0.5528
  605MOL0     C81603  10.352  10.657   9.393  0.0130 -0.0885  0.3831
  605MOL0     C81604  10.444  10.651   9.503 -0.3704 -0.3596  0.9450
  605MOL0     C81605  10.525  10.638   9.594 -0.0217  0.7899  0.6863
  605MOL0     C81606   9.748  10.903   9.381  0.4286  0.2025 -0.2467
  605MOL0     C81607   9.618  10.932   9.422 -0.8466 -0.5846  1.1410
  605MOL0     H81608   9.156  10.794   9.392  1.8172 -1.7197  2.8339
  605MOL0     H81609   8.911  10.807   9.425  1.5265 -2.0480 -1.6175
  605MOL0     H81610   8.805  11.199   9.517  1.3767 -1.2936 -1.2908
  605MOL0     H81611   8.716  11.081   9.420 -0.0494  3.2358 -0.6567
  605MOL0     H81612   8.623  11.208   9.677 -2.7877 -0.4158  1.6999
  605MOL0     H81613   8.550  11.225   9.516  1.2692  1.3661  0.1435
  605MOL0     H81614   8.469  11.002   9.528  1.0439 -0.3353 -1.2452
  605MOL0     H81615   8.572  10.973   9.680 -1.8110  0.1907  1.9233
  605MOL0     H81616   8.406  11.073   9.805  2.6639 -1.0022  0.2864
  605MOL0     H81617   8.339  11.177   9.673  0.6378 -0.0070  0.7000
  605MOL0     H81618   8.235  10.975   9.572 -0.4828 -0.4936  0.2902
  605MOL0     H81619   8.309  10.875   9.704  3.0737  1.1861  0.1253
  605MOL0     H81620   8.153  10.921   9.851  0.9913  1.5053  0.8259
  605MOL0     H81621   8.154  11.095   9.813  6.1504  0.4500 -1.9542
  605MOL0     H81622   7.994  11.027   9.614  5.2144  0.0119 -0.4631
  605MOL0     H81623   8.002  10.857   9.660  0.8961 -0.4861  0.7760
  605MOL0     H81624   7.903  11.085   9.841 -1.5500 -0.4797 -0.0111
  605MOL0     H81625   7.894  10.918   9.892 -1.7280 -0.2876 -0.4983
  605MOL0     H81626   7.660  10.822   9.893  0.7288  0.8313  0.2810
  605MOL0     H81627   7.385  10.845   9.607 -1.1893  1.3237  0.8699
  605MOL0     H81628   7.464  10.706   9.674  0.9521 -0.5138 -0.6859
  605MOL0     H81629   7.362  10.944   9.844 -0.6079 -1.2025  1.5720
  605MOL0     H81630   7.434  10.796   9.909  1.0395  0.2599 -0.0178
  605MOL0     H81631   7.225  10.671   9.849 -2.8007 -0.1159 -2.9877
  605MOL0     H81632   7.165  10.802   9.755 -2.6570 -3.4604  0.9856
  605MOL0     H81633   7.140  10.949   9.948  1.3172  0.5617  2.5304
  605MOL0     H81634   7.227  10.830  10.048 -0.6638 -1.1927  0.5609
  605MOL0     H81635   7.040  10.940  10.185 -1.0088  1.1204 -1.2154
  605MOL0     H81636   6.890  10.905  10.514 -0.8919  0.1669  0.1687
  605MOL0     H81637   6.949  11.020  10.397 -0.4475 -1.3780 -0.3554
  605MOL0     H81638   6.775  10.992  10.411 -1.2699 -0.8689  2.5057
  605MOL0     H81639   6.568  10.384  10.526 -1.2322 -1.6768 -0.9538
  605MOL0     H81640   6.402  10.333  10.669 -0.4943 -1.0864 -1.6284
  605MOL0     H81641   6.315  10.353  10.840  0.9387  0.4874 -4.2307
  605MOL0     H81642   6.203  10.440  10.943  0.9991 -0.5867  0.1481
  605MOL0     H81643   6.125  10.212  10.919  2.2427  1.0820  1.0261
  605MOL0     H81644   6.013  10.324  10.841 -0.6421 -2.9281  2.8686
  605MOL0     H81645   6.123  10.283  10.621  1.3196  3.1563  2.5752
  605MOL0     H81646   6.012  10.164  10.686 -0.1076  1.1876 -1.9721
  605MOL0     H81647   6.314  10.126  10.704  1.9359 -2.0609 -2.2369
  605MOL0     H81648   6.174  10.020  10.747 -2.0071  0.1359 -1.4849
  605MOL0     H81649   6.116  10.016  10.496 -0.3132 -1.4734 -0.1828
  605MOL0     H81650   6.266   9.936  10.535  1.3851  0.8091 -1.2264
  605MOL0     H81651   6.249  10.238  10.450 -1.2901 -0.7552  3.3841
  605MOL0     H81652   6.396  10.154  10.487 -1.1405  2.4706 -0.4279
  605MOL0     H81653   6.215  10.092  10.251  1.0647 -2.8097 -1.0901
  605MOL0     H81654   6.356   9.999  10.289 -0.4968 -0.4334  2.4159
  605MOL0     H81655   6.506  10.193  10.262 -0.3472  0.3924  0.9311
  605MOL0     H81656   6.376  10.303  10.244 -0.3086  0.4140 -0.0912
  605MOL0     H81657   6.240  10.738  10.623  1.4026  0.4408 -0.5656
  605MOL0     H81658   6.398  10.791  10.478  1.3696  0.1186  0.6898
  605MOL0     H81659   6.740  10.547  10.201 -2.6618  0.7309  1.9334
  605MOL0     H81660   6.905  10.581  10.033 -0.9213 -0.8237  0.3974
  605MOL0     H81661   8.983  11.163   9.657  0.5917 -0.5938  0.6685
  605MOL0     H81662   9.216  11.154   9.603 -1.1896  1.2710 -0.7770
  605MOL0     H81663   9.598  10.743   9.698 -2.3857 -0.1087 -0.3942
  605MOL0     H81664   9.835  10.723   9.648 -3.2216  0.4597  2.9607
  605MOL0     H81665   9.947  10.797   9.229  0.5854 -1.7498 -0.5744
  605MOL0     H81666  10.044  10.935   9.274 -1.7249  0.6062 -2.0041
  605MOL0     H81667  10.208  10.766   9.197  0.4739 -0.7110 -0.6743
  605MOL0     H81668  10.109  10.642   9.261  1.7668 -0.2053 -0.3619
  605MOL0     H81669  10.177  10.738   9.500  0.7335 -0.7780 -0.0597
  605MOL0     H81670  10.279  10.849   9.402  0.8129 -0.1946  0.8348
  605MOL0     H81671  10.409  10.688   9.306  3.6694 -3.5971  1.1939
  605MOL0     H81672  10.313  10.555   9.381 -1.4652  0.4751  0.3311
  605MOL0     H81673  10.593  10.624   9.676 -0.7594 -3.7077  0.7955
  605MOL0     H81674   9.769  10.951   9.286 -0.7477  0.7226 -0.2670
  605MOL0     H81675   9.563  11.005   9.363  2.3782 -0.6471 -2.3203
  606MOL0     O81676   3.373  10.813   4.892  0.1027  0.1310 -0.3531
  606MOL0     C81677   3.484  10.772   4.922  0.3675  0.5223 -0.9182
  606MOL0     O81678   3.604  10.795   4.853  0.3365 -0.3742  0.3131
  606MOL0     C81679   3.593  10.904   4.770  0.1772 -0.3618 -0.2242
  606MOL0     C81680   3.620  10.882   4.636  0.5404 -0.0074  0.3319
  606MOL0     C81681   3.609  10.988   4.545 -0.8496  0.8553 -1.2159
  606MOL0     C81682   3.580  11.113   4.585  0.3842  0.1205  0.1792
  606MOL0     O81683   3.582  11.220   4.497  0.0591  0.6443 -0.0618
  606MOL0     C81684   3.492  11.330   4.510  0.0406 -0.6279 -0.8132
  606MOL0     C81685   3.459  11.389   4.379 -0.0780 -0.4508  0.9506
  606MOL0     C81686   3.442  11.534   4.365  0.7042  0.2653  0.2867
  606MOL0     C81687   3.351  11.604   4.462 -0.4835 -0.0427  0.3980
  606MOL0     C81688   3.379  11.752   4.460 -0.0669  0.4228 -0.8443
  606MOL0     C81689   3.317  11.824   4.582  0.0947  0.1151 -0.5267
  606MOL0     C81690   3.423  11.905   4.666  1.3874  0.3226 -0.5487
  606MOL0     C81691   3.368  11.949   4.802 -0.7785 -0.2827  0.5572
  606MOL0     N81692   3.259  12.044   4.795  1.1339  0.0716 -0.1837
  606MOL0     C81693   3.269  12.176   4.769  0.4020  0.6520  0.6867
  606MOL0     C81694   3.144  12.229   4.778  0.7843  0.3824  0.3886
  606MOL0     C81695   3.106  12.366   4.737  0.9534  0.9749  0.2276
  606MOL0     C81696   2.961  12.400   4.787  0.4238 -1.3577 -0.9757
  606MOL0     C81697   2.849  12.421   4.681 -0.1002 -0.0719 -1.2546
  606MOL0     C81698   2.709  12.454   4.752  0.0195  0.3548  0.1727
  606MOL0     O81699   2.615  12.477   4.648  0.2378  0.0720  0.2437
  606MOL0     C81700   2.482  12.481   4.681 -0.4663 -0.7950 -0.0964
  606MOL0     C81701   2.388  12.454   4.580  0.7559  0.8859 -0.1197
  606MOL0     C81702   2.248  12.456   4.602 -0.1419  1.4244 -0.1724
  606MOL0     C81703   2.155  12.451   4.472  0.3597  0.5810  0.7947
  606MOL0     C81704   2.197  12.476   4.728  0.0222 -0.6438 -0.7417
  606MOL0     C81705   2.052  12.479   4.766 -0.5069  0.9370  0.4601
  606MOL0     O81706   1.981  12.384   4.697 -0.1813 -0.6355 -0.3774
  606MOL0     C81707   1.854  12.363   4.740 -0.3196 -0.8071  0.4804
  606MOL0     C81708   1.827  12.339   4.874 -0.5571  0.0943  0.1588
  606MOL0     C81709   1.691  12.323   4.909 -0.0778  0.1378 -0.6088
  606MOL0     C81710   1.582  12.321   4.818 -0.1371  0.0667  0.1462
  606MOL0     O81711   1.451  12.302   4.856  0.0665  0.0711 -0.2113
  606MOL0     C81712   1.423  12.227   4.979  0.6363 -0.4817 -1.0028
  606MOL0     C81713   1.272  12.203   4.989  0.0978  0.1514 -0.8740
  606MOL0     C81714   1.179  12.315   4.989  0.4820  0.1830  0.0700
  606MOL0     C81715   1.040  12.265   4.967  0.5270  0.0506  0.3203
  606MOL0     C81716   0.948  12.393   4.972 -0.0332 -0.2427  0.7000
  606MOL0     C81717   0.808  12.388   4.926  0.0443 -0.3233  0.8754
  606MOL0     C81718   0.740  12.281   5.011  0.6911 -0.3002 -0.2793
  606MOL0     C81719   0.590  12.264   4.978  0.8398 -0.1774  0.3676
  606MOL0    Cl81720   0.507  12.418   4.997  0.4053  0.1213  0.0779
  606MOL0     C81721   1.611  12.345   4.682 -0.1567  0.3649 -0.6164
  606MOL0     C81722   1.747  12.376   4.647  0.8058 -0.1123 -0.0303
  606MOL0     O81723   2.011  12.561   4.849 -0.4318 -0.8583 -0.1642
  606MOL0     C81724   2.293  12.505   4.830 -0.2843  0.7677  0.0054
  606MOL0     C81725   2.432  12.514   4.808  0.5865  0.5376 -0.3317
  606MOL0     N81726   3.059  12.123   4.804  0.3810 -0.0312  0.1360
  606MOL0     N81727   3.122  12.013   4.804  0.3691  0.1862 -0.6081
  606MOL0     C81728   3.553  11.136   4.720  0.0822 -0.7631 -0.7545
  606MOL0     C81729   3.554  11.029   4.816 -0.6067 -0.4795  0.0880
  606MOL0     C81730   3.486  10.680   5.040  1.0563 -0.0134 -0.6668
  606MOL0     C81731   3.602  10.656   5.105 -0.5333 -0.0496  0.3675
  606MOL0     C81732   3.605  10.589   5.225 -0.2248  0.3103 -1.2739
  606MOL0     C81733   3.494  10.532   5.277  0.3014  1.0433 -0.6058
  606MOL0     O81734   3.504  10.452   5.393 -0.4577  0.2635 -0.2262
  606MOL0     C81735   3.395  10.395   5.457 -0.5456  0.5113 -0.5412
  606MOL0     C81736   3.438  10.292   5.559  0.7013  0.8270  0.2608
  606MOL0     C81737   3.323  10.230   5.637 -0.5419 -0.0874 -0.6908
  606MOL0     C81738   3.379  10.100   5.728  0.7929 -0.6368  1.5230
  606MOL0     C81739   3.491  10.128   5.818  1.0782 -0.1774  0.3430
  606MOL0     C81740   3.574  10.168   5.900  0.1475  1.2825 -0.5441
  606MOL0     C81741   3.380  10.541   5.200  0.7638 -0.0418 -0.2122
  606MOL0     C81742   3.367  10.619   5.092 -1.3986 -0.1007 -0.5007
  606MOL0     H81743   3.670  10.790   4.608 -0.7703 -0.8170  0.5372
  606MOL0     H81744   3.625  10.964   4.441  0.6833  0.0829 -0.8295
  606MOL0     H81745   3.403  11.311   4.572  0.9785 -1.0559  0.4384
  606MOL0     H81746   3.537  11.410   4.571 -2.3862  1.4639 -1.5649
  606MOL0     H81747   3.540  11.358   4.312  0.9519  0.1182  1.8977
  606MOL0     H81748   3.363  11.344   4.354  0.5042 -1.2301  0.0468
  606MOL0     H81749   3.540  11.574   4.394  0.1092  0.9084  1.5109
  606MOL0     H81750   3.419  11.562   4.262 -1.0889  0.9288  0.8391
  606MOL0     H81751   3.248  11.579   4.437  0.8037 -4.3193 -1.6034
  606MOL0     H81752   3.372  11.568   4.563  1.8341  1.1898  0.4270
  606MOL0     H81753   3.483  11.782   4.468 -0.7260  2.6136  0.2266
  606MOL0     H81754   3.348  11.786   4.360 -2.1679 -3.9660 -1.9588
  606MOL0     H81755   3.236  11.891   4.551 -0.7101  0.5792  2.3372
  606MOL0     H81756   3.269  11.764   4.659  0.2168  2.6535  1.6966
  606MOL0     H81757   3.512  11.845   4.685  0.3881 -0.8860  0.5593
  606MOL0     H81758   3.435  11.990   4.598  0.4651  0.4280 -0.5921
  606MOL0     H81759   3.449  11.999   4.856  1.1953 -0.1161 -2.3449
  606MOL0     H81760   3.343  11.858   4.858  0.7581 -1.2084 -0.2022
  606MOL0     H81761   3.359  12.223   4.731  1.0549 -1.3979 -0.4258
  606MOL0     H81762   3.177  12.433   4.786  0.8114  0.7784  0.7091
  606MOL0     H81763   3.120  12.383   4.630  1.0867 -2.2437 -0.3612
  606MOL0     H81764   2.965  12.490   4.849  1.2537 -0.0199 -2.8546
  606MOL0     H81765   2.918  12.325   4.854 -0.3512 -0.3146 -0.2714
  606MOL0     H81766   2.849  12.337   4.612  1.0646  1.7563 -3.6280
  606MOL0     H81767   2.863  12.515   4.626 -2.1253  1.5162  0.7454
  606MOL0     H81768   2.731  12.541   4.814  0.8025  1.2497 -1.3096
  606MOL0     H81769   2.677  12.368   4.811 -2.8987  0.1536 -1.5126
  606MOL0     H81770   2.419  12.446   4.476 -1.7062 -1.0733 -0.8151
  606MOL0     H81771   2.212  12.475   4.382 -0.9956  2.1613  0.3224
  606MOL0     H81772   2.107  12.354   4.457  0.1543  1.0788 -2.3534
  606MOL0     H81773   2.076  12.527   4.478 -0.1287  0.1629 -0.1105
  606MOL0     H81774   1.909  12.334   4.945 -0.1959 -0.4052 -0.2875
  606MOL0     H81775   1.665  12.310   5.014  2.2677  1.3763  0.2184
  606MOL0     H81776   1.467  12.127   4.980  0.2230 -0.6645 -0.3319
  606MOL0     H81777   1.462  12.290   5.059  1.4752  2.2636 -3.4038
  606MOL0     H81778   1.252  12.128   4.911  1.4911 -2.5720  1.2134
  606MOL0     H81779   1.259  12.146   5.082 -0.6469  1.1302 -0.3599
  606MOL0     H81780   1.208  12.386   4.912 -0.1034 -1.6762 -1.9709
  606MOL0     H81781   1.187  12.370   5.084  0.2584 -1.9158  1.3740
  606MOL0     H81782   1.038  12.228   4.864  3.0416  0.0846  0.1969
  606MOL0     H81783   1.015  12.187   5.039 -1.9457  0.1970 -0.2742
  606MOL0     H81784   0.997  12.467   4.908 -2.9457  1.7222  0.5269
  606MOL0     H81785   0.943  12.445   5.068  1.1370  1.6748 -0.2114
  606MOL0     H81786   0.746  12.477   4.942 -1.4337 -0.7368 -1.9185
  606MOL0     H81787   0.805  12.357   4.821  1.4972 -0.2082  0.7822
  606MOL0     H81788   0.753  12.303   5.118 -1.7708  1.4712 -0.2742
  606MOL0     H81789   0.786  12.185   4.983 -1.0898 -1.4487  0.5959
  606MOL0     H81790   0.540  12.198   5.049  1.3488 -2.0624 -0.9587
  606MOL0     H81791   0.588  12.220   4.878  2.0415 -1.7733  0.9904
  606MOL0     H81792   1.530  12.358   4.611 -1.8882  2.4299  1.5458
  606MOL0     H81793   1.764  12.421   4.549  0.2168  1.2725  0.4822
  606MOL0     H81794   2.260  12.532   4.929  0.2381  0.9797  0.1236
  606MOL0     H81795   2.499  12.538   4.891 -1.8057  0.1870  1.8281
  606MOL0     H81796   3.515  11.232   4.757  2.1598 -0.3692  0.5108
  606MOL0     H81797   3.539  11.043   4.923 -0.4646 -0.7802  0.1474
  606MOL0     H81798   3.698  10.685   5.065  1.0910 -2.2092  2.3873
  606MOL0     H81799   3.701  10.574   5.274 -0.8367  0.9211  0.1574
  606MOL0     H81800   3.334  10.479   5.492  1.8908  2.1467  0.0043
  606MOL0     H81801   3.334  10.341   5.384 -0.8042 -0.4768  0.3695
  606MOL0     H81802   3.493  10.346   5.637 -1.6663  1.8769  1.3186
  606MOL0     H81803   3.507  10.217   5.520  1.4337  0.8652  1.4315
  606MOL0     H81804   3.253  10.191   5.561 -0.2820 -1.1566 -0.4023
  606MOL0     H81805   3.261  10.306   5.685 -0.7917 -1.0635  0.5862
  606MOL0     H81806   3.426  10.028   5.660  2.6947  0.9985  1.0272
  606MOL0     H81807   3.290  10.067   5.783  0.7753 -1.8867  0.7685
  606MOL0     H81808   3.647  10.208   5.968 -0.2485  1.5310 -0.2636
  606MOL0     H81809   3.302  10.471   5.228  1.5882 -1.1342 -0.5734
  606MOL0     H81810   3.273  10.628   5.038 -0.8913  3.1124 -1.0332
  607MOL0     O81811   0.438   1.590   0.518  0.0171  0.8071  0.3332
  607MOL0     C81812   0.469   1.709   0.511 -0.5912 -0.0134  0.5248
  607MOL0     O81813   0.388   1.812   0.542 -0.4861  0.1920  0.1701
  607MOL0     C81814   0.262   1.772   0.579  0.5915  0.5138  0.1541
  607MOL0     C81815   0.221   1.743   0.710  0.4910 -0.2816  0.5297
  607MOL0     C81816   0.088   1.714   0.737  1.0540 -0.3611 -0.0486
  607MOL0     C81817  -0.001   1.691   0.628  0.0216  1.6386 -0.0568
  607MOL0     O81818  -0.123   1.648   0.670 -0.3263  0.2008 -0.6030
  607MOL0     C81819  -0.232   1.712   0.604 -0.3823  0.2318  0.0772
  607MOL0     C81820  -0.368   1.675   0.674 -0.1261 -0.7263  0.2207
  607MOL0     C81821  -0.400   1.534   0.626  0.2230 -0.1099 -0.7910
  607MOL0     C81822  -0.526   1.486   0.694 -0.5708 -0.1019  0.6224
  607MOL0     C81823  -0.578   1.347   0.660 -0.0933 -1.3120 -0.3796
  607MOL0     C81824  -0.699   1.318   0.748  0.2436 -0.6639 -0.2318
  607MOL0     C81825  -0.746   1.167   0.734  0.5644 -0.3980 -0.6304
  607MOL0     C81826  -0.651   1.069   0.799 -0.0220 -0.6453  0.1812
  607MOL0     N81827  -0.664   1.084   0.953  0.1103 -0.4158  0.2877
  607MOL0     C81828  -0.580   1.167   1.022 -0.6867 -0.4603  0.6274
  607MOL0     C81829  -0.575   1.112   1.142 -0.3748  0.3348 -0.5897
  607MOL0     C81830  -0.500   1.164   1.257 -0.3188 -0.4451 -0.4146
  607MOL0     C81831  -0.358   1.108   1.253  1.0728  0.8501 -1.0033
  607MOL0     C81832  -0.345   0.952   1.284 -0.3431 -0.9259 -0.3223
  607MOL0     C81833  -0.200   0.898   1.293  0.3732 -0.2873  0.5826
  607MOL0     O81834  -0.120   0.932   1.180  0.1374  0.5026  0.1373
  607MOL0     C81835   0.015   0.934   1.202 -0.2800  0.1757 -0.1986
  607MOL0     C81836   0.075   0.858   1.308  0.1231 -0.7542  0.0545
  607MOL0     C81837   0.211   0.875   1.328 -0.5134 -0.0209  0.4387
  607MOL0     C81838   0.254   0.800   1.444  0.1062 -0.0864  0.4489
  607MOL0     C81839   0.289   0.947   1.245 -0.0834 -0.3084 -0.0494
  607MOL0     C81840   0.440   0.958   1.254 -0.2821  0.3950  0.1033
  607MOL0     O81841   0.500   0.907   1.364  0.0065  0.3378 -0.1209
  607MOL0     C81842   0.645   0.916   1.379 -1.3413 -0.5042 -0.1448
  607MOL0     C81843   0.741   0.979   1.301 -0.2457  0.2528  0.1594
  607MOL0     C81844   0.878   0.970   1.333  0.6318 -0.4005 -0.2462
  607MOL0     C81845   0.922   0.903   1.445 -0.2814 -1.3833  0.1031
  607MOL0     O81846   1.061   0.899   1.462  0.1403 -0.1421 -0.8807
  607MOL0     C81847   1.117   0.901   1.595  0.2967  0.5088  0.5780
  607MOL0     C81848   1.270   0.887   1.593 -0.4973 -0.8148 -0.0412
  607MOL0     C81849   1.321   0.865   1.737  1.3212 -1.1168 -0.3246
  607MOL0     C81850   1.457   0.806   1.747 -1.1295  0.7482  0.8588
  607MOL0     C81851   1.575   0.905   1.713  0.5077 -0.5194  0.0878
  607MOL0     C81852   1.707   0.832   1.727 -0.5127 -0.0384 -0.0915
  607MOL0     C81853   1.825   0.901   1.651 -0.2045 -0.2842 -0.3281
  607MOL0     C81854   1.868   1.029   1.713 -1.0672 -0.4538 -0.4296
  607MOL0    Cl81855   1.754   1.159   1.678 -0.0747 -0.4191 -0.3681
  607MOL0     C81856   0.830   0.849   1.533 -0.5562  0.2821  0.0221
  607MOL0     C81857   0.691   0.857   1.496  0.3903 -0.2910 -0.3175
  607MOL0     O81858   0.500   0.999   1.148 -0.2573  0.1740  0.8509
  607MOL0     C81859   0.235   0.997   1.124  1.0206 -0.7303 -0.5738
  607MOL0     C81860   0.099   0.996   1.106  0.5065 -0.1150 -0.4967
  607MOL0     N81861  -0.653   0.999   1.146  0.0187 -0.3886  0.0744
  607MOL0     N81862  -0.705   0.983   1.030  0.8429  0.0882  0.0419
  607MOL0     C81863   0.039   1.717   0.501 -0.3849  0.7454 -0.1601
  607MOL0     C81864   0.171   1.760   0.469  0.8321  0.7381 -0.4466
  607MOL0     C81865   0.611   1.748   0.491  0.9991 -0.0729 -0.6081
  607MOL0     C81866   0.651   1.854   0.407 -0.2498  0.4474 -0.3304
  607MOL0     C81867   0.781   1.874   0.379 -0.7788  0.5282 -0.0844
  607MOL0     C81868   0.886   1.792   0.428  0.6682  0.1740 -0.6452
  607MOL0     O81869   1.014   1.828   0.399 -0.5034  0.3652  0.2992
  607MOL0     C81870   1.113   1.827   0.506  0.9559 -0.7164 -0.1084
  607MOL0     C81871   1.234   1.900   0.454 -0.8604  0.0185 -0.6746
  607MOL0     C81872   1.268   2.009   0.559  0.4120  0.4560 -0.2621
  607MOL0     C81873   1.415   2.063   0.559  0.4088 -0.8310 -0.5933
  607MOL0     C81874   1.515   1.962   0.608 -1.1738  0.3849 -0.5230
  607MOL0     C81875   1.566   1.852   0.632  0.5285  0.3328  0.4677
  607MOL0     C81876   0.843   1.685   0.498 -0.2460 -0.6574  0.4874
  607MOL0     C81877   0.712   1.665   0.536  0.1496  0.8108  0.4488
  607MOL0     H81878   0.302   1.754   0.781  0.7777  2.6301 -0.0946
  607MOL0     H81879   0.066   1.701   0.842  1.4381  1.5821  0.3000
  607MOL0     H81880  -0.212   1.819   0.596  1.0857  0.0747  1.1057
  607MOL0     H81881  -0.246   1.670   0.505 -2.6804  0.1762  0.3716
  607MOL0     H81882  -0.350   1.668   0.782  2.6089  0.9389 -0.0557
  607MOL0     H81883  -0.454   1.740   0.654  0.5828  0.3796  0.6804
  607MOL0     H81884  -0.417   1.518   0.519 -2.3599 -2.4911 -0.1705
  607MOL0     H81885  -0.319   1.471   0.665  1.0197  1.7615  0.7578
  607MOL0     H81886  -0.497   1.496   0.799  0.0549 -0.8976  0.5317
  607MOL0     H81887  -0.613   1.550   0.676 -2.1874 -2.7579 -2.0824
  607MOL0     H81888  -0.603   1.335   0.554 -0.4257 -0.3199 -0.4224
  607MOL0     H81889  -0.496   1.277   0.680  1.4225  0.0357 -1.5351
  607MOL0     H81890  -0.673   1.331   0.853  1.6857  0.8511 -0.7306
  607MOL0     H81891  -0.781   1.382   0.714  0.6709 -1.0085 -2.0443
  607MOL0     H81892  -0.845   1.167   0.780 -0.9417  0.5007 -3.5820
  607MOL0     H81893  -0.772   1.139   0.632 -0.1242  0.1756 -0.6231
  607MOL0     H81894  -0.548   1.088   0.765  0.5532 -0.0286  2.1690
  607MOL0     H81895  -0.691   0.975   0.759 -1.7786  0.2362 -0.2302
  607MOL0     H81896  -0.523   1.255   0.994  1.6344 -0.9944  3.2782
  607MOL0     H81897  -0.491   1.273   1.267  0.6902 -0.6307  0.9824
  607MOL0     H81898  -0.553   1.135   1.349  0.4150 -0.2450  0.0823
  607MOL0     H81899  -0.289   1.158   1.322  2.1472 -1.6651 -0.1246
  607MOL0     H81900  -0.312   1.122   1.155  2.5693 -0.9434 -0.6078
  607MOL0     H81901  -0.405   0.889   1.218  0.1276 -0.4339 -1.2279
  607MOL0     H81902  -0.383   0.932   1.385  4.9134 -1.3903  1.8491
  607MOL0     H81903  -0.199   0.788   1.293  0.8810 -0.3293  2.8056
  607MOL0     H81904  -0.158   0.942   1.384  2.3948 -1.8295  0.4761
  607MOL0     H81905   0.006   0.791   1.360 -0.4363 -0.4803 -0.3228
  607MOL0     H81906   0.315   0.875   1.495 -0.8544  2.0958 -1.4539
  607MOL0     H81907   0.176   0.781   1.518  0.2821  2.7377  1.4668
  607MOL0     H81908   0.311   0.710   1.420 -0.3166 -0.3727  0.5040
  607MOL0     H81909   0.713   1.025   1.206  2.6325  0.9326 -0.4489
  607MOL0     H81910   0.952   1.022   1.274  0.5507  3.0039  2.3430
  607MOL0     H81911   1.087   1.003   1.621 -2.8478  0.2253 -1.3928
  607MOL0     H81912   1.061   0.825   1.652 -0.6023  0.4706 -0.3286
  607MOL0     H81913   1.290   0.797   1.533 -1.1432 -0.5514 -0.6689
  607MOL0     H81914   1.322   0.968   1.541 -0.5772 -1.0112 -0.4343
  607MOL0     H81915   1.260   0.797   1.797  1.2237 -0.7115  0.0391
  607MOL0     H81916   1.321   0.962   1.787  0.2942 -1.0225 -0.4981
  607MOL0     H81917   1.470   0.767   1.849  2.9592 -0.2245  0.1313
  607MOL0     H81918   1.454   0.715   1.686 -2.7282  1.9597 -0.9919
  607MOL0     H81919   1.573   0.999   1.768 -4.8951  0.3310 -0.9804
  607MOL0     H81920   1.559   0.930   1.608  0.6619 -1.0042 -0.0584
  607MOL0     H81921   1.733   0.821   1.833  2.0002 -3.5471 -0.9068
  607MOL0     H81922   1.700   0.729   1.691 -0.1799  0.6642 -2.3267
  607MOL0     H81923   1.794   0.923   1.549  0.0328 -3.1417 -1.1042
  607MOL0     H81924   1.915   0.839   1.643  0.0661  0.0485  0.0938
  607MOL0     H81925   1.967   1.051   1.671 -0.6374 -2.2583 -0.4191
  607MOL0     H81926   1.883   1.014   1.820 -0.0313  0.5646 -0.4088
  607MOL0     H81927   0.866   0.785   1.612 -0.9069 -0.1659 -0.1760
  607MOL0     H81928   0.613   0.813   1.557 -0.4228 -0.3076 -1.3306
  607MOL0     H81929   0.286   1.043   1.039 -2.4626  2.9245 -0.9704
  607MOL0     H81930   0.049   1.036   1.018 -0.2399  2.3405  0.9360
  607MOL0     H81931  -0.030   1.701   0.418  0.5637 -0.6673 -0.7079
  607MOL0     H81932   0.198   1.790   0.369  2.0901  1.6608  0.1394
  607MOL0     H81933   0.578   1.928   0.375  1.8783  3.1822  0.6226
  607MOL0     H81934   0.803   1.964   0.324 -0.8437  0.9074  0.5002
  607MOL0     H81935   1.070   1.862   0.601  0.9213 -0.8638 -0.0694
  607MOL0     H81936   1.144   1.725   0.526 -1.1460 -1.2701  0.6510
  607MOL0     H81937   1.232   1.935   0.350  2.6578  2.5338 -0.0810
  607MOL0     H81938   1.319   1.831   0.455  0.6865  1.7733 -2.4070
  607MOL0     H81939   1.241   1.981   0.661  1.5169 -0.9099 -0.3101
  607MOL0     H81940   1.201   2.094   0.545  0.6361  0.8599  1.0173
  607MOL0     H81941   1.407   2.148   0.627 -0.3655 -0.6014 -0.9499
  607MOL0     H81942   1.445   2.104   0.462  3.1177 -0.9972  0.1107
  607MOL0     H81943   1.602   1.753   0.649 -0.1064 -0.0727 -0.4634
  607MOL0     H81944   0.912   1.615   0.543  1.6805  1.0572  0.3817
  607MOL0     H81945   0.691   1.569   0.582 -0.5104  0.5260 -0.4284
  608MOL0     O81946  10.341   1.051   5.802  0.3238  0.3064 -0.5272
  608MOL0     C81947  10.334   1.157   5.861 -0.6056 -0.0235 -0.1034
  608MOL0     O81948  10.218   1.222   5.884 -0.0960  0.4166  0.0976
  608MOL0     C81949  10.117   1.185   5.804 -0.4359  0.1783 -0.2612
  608MOL0     C81950  10.119   1.203   5.661 -0.0679 -0.2979 -0.5943
  608MOL0     C81951  10.004   1.188   5.581 -1.5394 -0.3834  0.4298
  608MOL0     C81952   9.882   1.155   5.646  0.0167  0.2428  0.3124
  608MOL0     O81953   9.758   1.137   5.595  0.1843 -0.2852 -0.2861
  608MOL0     C81954   9.743   1.159   5.459  0.1474 -1.3063 -0.6173
  608MOL0     C81955   9.599   1.202   5.424  1.0294  0.5758  0.4733
  608MOL0     C81956   9.492   1.088   5.412  0.5931  0.4094 -1.0289
  608MOL0     C81957   9.466   1.009   5.551 -0.2263 -0.1683 -0.4011
  608MOL0     C81958   9.351   0.907   5.542  1.1353  0.1557  0.2590
  608MOL0     C81959   9.358   0.814   5.660 -0.2812 -0.7434  1.0193
  608MOL0     C81960   9.242   0.707   5.646 -0.6515 -0.2507 -0.5338
  608MOL0     C81961   9.303   0.580   5.586 -0.3322  0.3258  0.0994
  608MOL0     N81962   9.215   0.458   5.592  0.3269  0.0388 -0.3744
  608MOL0     C81963   9.153   0.394   5.488  0.5253  1.0074  0.4173
  608MOL0     C81964   9.070   0.298   5.553 -0.1658  0.2617 -0.5488
  608MOL0     C81965   8.969   0.199   5.507 -0.2037 -0.8243 -0.4645
  608MOL0     C81966   9.025   0.065   5.477  0.3943  0.7596 -1.0727
  608MOL0     C81967   9.031  -0.027   5.603  0.3000  0.1133  0.0346
  608MOL0     C81968   8.899  -0.076   5.654 -0.4576  0.5109  0.5935
  608MOL0     O81969   8.908  -0.195   5.729  0.0754  0.4718 -0.8029
  608MOL0     C81970   8.790  -0.249   5.781  0.8619  0.2205  0.0265
  608MOL0     C81971   8.678  -0.268   5.704  0.0285 -0.1359  0.1979
  608MOL0     C81972   8.563  -0.331   5.749 -0.6329 -0.7987  0.4094
  608MOL0     C81973   8.457  -0.343   5.639  0.4493 -0.4821 -0.0803
  608MOL0     C81974   8.554  -0.362   5.888 -0.0955  0.0635 -0.6931
  608MOL0     C81975   8.432  -0.427   5.948 -0.4210 -0.7913 -0.2323
  608MOL0     O81976   8.333  -0.454   5.863 -0.1799  0.1884  0.5096
  608MOL0     C81977   8.218  -0.511   5.902  0.2268  0.2552  0.1901
  608MOL0     C81978   8.107  -0.425   5.900  0.3935 -0.6098  0.0900
  608MOL0     C81979   7.993  -0.480   5.924  0.3609  0.7940 -0.6360
  608MOL0     C81980   7.973  -0.616   5.966 -0.5244  0.6214 -0.2640
  608MOL0     O81981   7.844  -0.669   5.969  0.4036  0.2630 -0.1457
  608MOL0     C81982   7.841  -0.800   6.038 -0.0092 -0.4620 -0.0988
  608MOL0     C81983   7.707  -0.824   6.101 -0.3565  0.3525  0.7147
  608MOL0     C81984   7.707  -0.955   6.181  0.4258 -0.0047 -0.4114
  608MOL0     C81985   7.571  -1.025   6.158 -0.0211  0.5577  0.2600
  608MOL0     C81986   7.590  -1.167   6.206  0.7860  0.0766 -0.6257
  608MOL0     C81987   7.455  -1.235   6.237 -0.0884 -0.3025 -0.1073
  608MOL0     C81988   7.468  -1.377   6.285 -0.3456 -0.1251  0.2155
  608MOL0     C81989   7.471  -1.387   6.443  0.3781 -0.1912  0.2337
  608MOL0    Cl81990   7.310  -1.341   6.503 -0.0025 -0.3458 -0.8447
  608MOL0     C81991   8.091  -0.704   5.951  0.5831 -0.1434  0.4631
  608MOL0     C81992   8.211  -0.643   5.915 -0.1588  0.6879 -0.5982
  608MOL0     O81993   8.424  -0.461   6.060  0.4734  0.1050 -0.2033
  608MOL0     C81994   8.665  -0.336   5.976 -0.2320  0.0363  0.2688
  608MOL0     C81995   8.782  -0.281   5.916 -0.1540 -0.7557  0.6628
  608MOL0     N81996   9.100   0.303   5.684 -0.3888 -0.1665  0.2464
  608MOL0     N81997   9.177   0.400   5.713 -0.1403  0.1828 -0.4347
  608MOL0     C81998   9.894   1.128   5.780  0.3916  0.3860  0.1481
  608MOL0     C81999  10.006   1.144   5.859 -0.3228 -0.0921  0.5278
  608MOL0     C82000  10.460   1.202   5.915 -0.3633 -0.6960 -0.0249
  608MOL0     C82001  10.582   1.160   5.883 -0.2379 -0.1357  0.8218
  608MOL0     C82002  10.695   1.223   5.930  0.0179  0.4714 -0.6521
  608MOL0     C82003  10.693   1.336   6.007  0.5914  0.0320  0.7017
  608MOL0     O82004  10.801   1.419   6.046 -0.0136  0.3429  0.0102
  608MOL0     C82005  10.933   1.376   6.001  0.7264  0.8372 -0.2180
  608MOL0     C82006  10.991   1.281   6.109  0.0309 -0.3004 -0.2239
  608MOL0     C82007  11.107   1.195   6.048  0.0878 -0.2619 -0.1446
  608MOL0     C82008  11.143   1.084   6.144  0.2202 -0.6946 -1.0644
  608MOL0     C82009  11.045   0.967   6.140 -0.5629 -1.7898 -0.1246
  608MOL0     C82010  10.961   0.884   6.142  0.0303 -0.3631  0.2501
  608MOL0     C82011  10.570   1.378   6.052 -0.1564  0.1575 -0.8167
  608MOL0     C82012  10.454   1.312   6.007  0.5052 -0.6108 -0.4343
  608MOL0     H82013  10.208   1.234   5.608  2.3268 -4.4959  0.5282
  608MOL0     H82014  10.025   1.201   5.475  3.1641 -0.8550  1.0760
  608MOL0     H82015   9.804   1.243   5.425 -0.5389 -0.7133 -0.3960
  608MOL0     H82016   9.778   1.076   5.396  1.5974 -1.2829  0.1267
  608MOL0     H82017   9.573   1.281   5.495 -2.1385 -0.3978  0.5420
  608MOL0     H82018   9.604   1.247   5.324  0.7932  2.5188  1.2915
  608MOL0     H82019   9.403   1.151   5.402  0.3636  0.2176 -0.2620
  608MOL0     H82020   9.506   1.032   5.319 -0.9601  0.6832 -1.4542
  608MOL0     H82021   9.552   0.949   5.585  0.2697  0.9240  0.3150
  608MOL0     H82022   9.441   1.082   5.628 -0.6512 -1.0655  0.3368
  608MOL0     H82023   9.257   0.963   5.553  0.2237 -1.2305 -0.2273
  608MOL0     H82024   9.345   0.855   5.446 -0.7110  0.3716  0.2158
  608MOL0     H82025   9.459   0.773   5.669 -0.4230 -1.2005  0.4987
  608MOL0     H82026   9.350   0.871   5.754 -0.9528 -2.4378  2.0324
  608MOL0     H82027   9.208   0.693   5.749  0.0002 -0.6244 -0.3684
  608MOL0     H82028   9.158   0.746   5.588 -0.0345 -2.1318 -2.8529
  608MOL0     H82029   9.403   0.558   5.626 -1.0594 -1.0271  1.2357
  608MOL0     H82030   9.312   0.603   5.479  0.5995 -2.2417 -0.4402
  608MOL0     H82031   9.149   0.422   5.383 -1.1598 -0.5104  0.0261
  608MOL0     H82032   8.902   0.208   5.593 -2.6241  0.6632 -2.3889
  608MOL0     H82033   8.918   0.235   5.417  3.1612  2.0885 -1.4588
  608MOL0     H82034   9.123   0.072   5.430  0.7290 -0.4723 -0.5903
  608MOL0     H82035   8.964   0.011   5.404 -0.0002 -1.2893  0.6630
  608MOL0     H82036   9.081   0.031   5.681 -1.9695  2.5802 -0.2010
  608MOL0     H82037   9.098  -0.108   5.570 -1.8009 -0.6727 -2.6248
  608MOL0     H82038   8.857  -0.108   5.558  0.5405 -1.0347  0.6489
  608MOL0     H82039   8.833   0.001   5.694 -0.7453  2.1650 -2.6718
  608MOL0     H82040   8.679  -0.255   5.596  1.0620 -0.6941  0.1330
  608MOL0     H82041   8.410  -0.441   5.655 -0.3835  0.0046  0.5082
  608MOL0     H82042   8.381  -0.268   5.663  0.9979 -0.2627  1.0422
  608MOL0     H82043   8.492  -0.341   5.535  1.1559  0.9584  0.1598
  608MOL0     H82044   8.119  -0.319   5.882  0.2808 -0.6264 -0.0754
  608MOL0     H82045   7.903  -0.420   5.908 -1.0365 -1.4016 -1.4268
  608MOL0     H82046   7.869  -0.886   5.975  1.2876 -0.8523  0.9701
  608MOL0     H82047   7.913  -0.798   6.120 -0.1809 -1.7039  0.1096
  608MOL0     H82048   7.688  -0.733   6.159  0.3327  1.8463 -1.2894
  608MOL0     H82049   7.636  -0.823   6.018  1.8678 -0.6780 -1.3187
  608MOL0     H82050   7.725  -0.923   6.284  6.7453  1.4728 -1.5167
  608MOL0     H82051   7.794  -1.014   6.150 -0.3441 -0.7431 -1.2395
  608MOL0     H82052   7.496  -0.980   6.223 -0.9895  0.5348 -0.8134
  608MOL0     H82053   7.547  -1.039   6.052  2.1907 -1.2009 -0.0694
  608MOL0     H82054   7.662  -1.166   6.289  1.5293  1.7722 -1.2434
  608MOL0     H82055   7.633  -1.222   6.123 -1.8229  1.4941 -3.1049
  608MOL0     H82056   7.395  -1.167   6.298  0.9222  0.3132  0.2321
  608MOL0     H82057   7.394  -1.242   6.147 -0.1328 -2.1261  0.0268
  608MOL0     H82058   7.563  -1.413   6.244  1.1305  1.8462  1.6750
  608MOL0     H82059   7.380  -1.431   6.249 -0.6362 -2.1165  3.5122
  608MOL0     H82060   7.553  -1.336   6.496  0.7295  1.4238 -1.7386
  608MOL0     H82061   7.472  -1.491   6.476 -0.5205  0.7496  3.6752
  608MOL0     H82062   8.079  -0.812   5.951 -1.6774  0.0629 -0.8808
  608MOL0     H82063   8.300  -0.703   5.903 -0.4820  0.5768 -3.1150
  608MOL0     H82064   8.653  -0.372   6.078 -3.0732 -2.9650 -0.9482
  608MOL0     H82065   8.869  -0.260   5.978 -1.8790  1.1837  2.6138
  608MOL0     H82066   9.809   1.099   5.841 -0.8838 -0.3213 -1.8658
  608MOL0     H82067  10.008   1.108   5.961 -1.2466 -2.2055 -0.1541
  608MOL0     H82068  10.601   1.087   5.805  2.2215  0.0020  1.2184
  608MOL0     H82069  10.792   1.189   5.894  0.5529  0.5586  0.6651
  608MOL0     H82070  10.925   1.344   5.897 -0.4041  0.8994 -0.1652
  608MOL0     H82071  11.001   1.461   6.003  0.5978  0.9589 -0.8921
  608MOL0     H82072  10.915   1.203   6.122 -1.9763  1.7549  0.8756
  608MOL0     H82073  11.025   1.328   6.201 -0.4372 -0.5275  0.0653
  608MOL0     H82074  11.192   1.259   6.025  0.2405 -0.9889 -1.7523
  608MOL0     H82075  11.081   1.144   5.955 -1.7823 -0.8554  0.6482
  608MOL0     H82076  11.169   1.109   6.248  3.3572 -0.5961 -1.7964
  608MOL0     H82077  11.239   1.052   6.105  0.4481 -0.5234 -0.6549
  608MOL0     H82078  10.887   0.807   6.131  1.0446 -1.3241 -0.0494
  608MOL0     H82079  10.561   1.473   6.105  0.0584 -0.4450  0.3239
  608MOL0     H82080  10.354   1.348   6.026  0.0212 -2.3078  0.3257
  609MOL0     O82081   6.729  10.750   4.810  0.3254  0.5114  0.6133
  609MOL0     C82082   6.741  10.776   4.927  0.4924 -0.9081 -0.1702
  609MOL0     O82083   6.649  10.756   5.026 -0.3661 -0.8841 -0.1406
  609MOL0     C82084   6.528  10.698   5.008 -0.0338 -0.1724  0.5838
  609MOL0     C82085   6.459  10.685   4.887  0.3392  0.6090 -0.0038
  609MOL0     C82086   6.324  10.636   4.889  0.2778 -0.7101 -0.0298
  609MOL0     C82087   6.272  10.585   5.007  0.7524 -0.2357 -0.8273
  609MOL0     O82088   6.146  10.533   5.029 -0.1672 -0.4307 -0.4325
  609MOL0     C82089   6.049  10.560   4.930  0.7104  0.0005  0.1714
  609MOL0     C82090   5.909  10.505   4.979  0.3647 -0.3239  0.6224
  609MOL0     C82091   5.778  10.573   4.932  0.5659  0.1735  0.2116
  609MOL0     C82092   5.657  10.496   4.975  0.3016 -0.3183 -0.0883
  609MOL0     C82093   5.531  10.542   4.900 -0.3868 -0.5627  0.9193
  609MOL0     C82094   5.474  10.675   4.937  0.2236 -0.4873 -0.5172
  609MOL0     C82095   5.383  10.737   4.822 -0.7458  0.1993 -0.0058
  609MOL0     C82096   5.246  10.679   4.818  0.3612 -0.3116  0.1027
  609MOL0     N82097   5.159  10.717   4.932  0.5074 -0.8228 -0.4519
  609MOL0     C82098   5.080  10.833   4.950  0.4015 -0.7088  0.4783
  609MOL0     C82099   5.030  10.820   5.075 -0.0661  0.4155  0.5211
  609MOL0     C82100   4.925  10.915   5.137 -0.1415  0.4920  0.4224
  609MOL0     C82101   4.780  10.876   5.097  0.3040  0.0131 -0.5236
  609MOL0     C82102   4.744  10.906   4.959 -0.5007  0.3215  0.2926
  609MOL0     C82103   4.589  10.884   4.937 -0.4607 -0.0947  0.4875
  609MOL0     O82104   4.545  10.886   4.800  0.7274  0.4377 -0.0513
  609MOL0     C82105   4.502  11.004   4.755  0.8303  0.7101 -0.4022
  609MOL0     C82106   4.462  11.118   4.827 -0.0012 -0.3824 -0.0783
  609MOL0     C82107   4.409  11.232   4.767 -0.2172  0.7885 -0.0581
  609MOL0     C82108   4.369  11.343   4.858  0.0851  0.0092  0.2662
  609MOL0     C82109   4.385  11.234   4.626  0.2337  0.3504  0.3450
  609MOL0     C82110   4.318  11.344   4.550 -0.1798  0.6382 -0.3779
  609MOL0     O82111   4.297  11.319   4.425 -0.1219 -0.3600  0.6818
  609MOL0     C82112   4.272  11.428   4.342 -0.4006  0.2257  0.8556
  609MOL0     C82113   4.326  11.559   4.355  0.3900 -0.9134 -0.3023
  609MOL0     C82114   4.302  11.662   4.262  0.0119 -0.7215 -0.7061
  609MOL0     C82115   4.207  11.640   4.155 -0.0611 -0.4873 -0.4740
  609MOL0     O82116   4.191  11.741   4.065  0.1961 -0.2500 -0.0884
  609MOL0     C82117   4.073  11.748   3.981  0.9074 -0.3574 -0.4813
  609MOL0     C82118   3.945  11.761   4.070 -0.7871  0.2848  0.2421
  609MOL0     C82119   3.846  11.865   4.030  1.0336 -0.1401  0.2338
  609MOL0     C82120   3.728  11.865   4.115 -0.2497 -0.6124  0.4884
  609MOL0     C82121   3.648  11.997   4.077  0.0092 -0.1278  0.9973
  609MOL0     C82122   3.508  11.990   4.127  0.2907  0.1527  0.2621
  609MOL0     C82123   3.453  12.129   4.097 -0.2040  0.3007 -0.5185
  609MOL0     C82124   3.319  12.179   4.151 -0.4741 -0.5419 -0.9631
  609MOL0    Cl82125   3.331  12.262   4.321 -0.1784 -0.1808  0.2043
  609MOL0     C82126   4.146  11.516   4.142  0.1885  0.3728 -1.0682
  609MOL0     C82127   4.175  11.410   4.239  0.0473  0.2075  0.1677
  609MOL0     O82128   4.284  11.442   4.608  0.5485 -0.2990  0.6298
  609MOL0     C82129   4.427  11.117   4.553  0.0193  0.1565  0.1316
  609MOL0     C82130   4.491  11.005   4.616  0.0097  0.1718 -0.2592
  609MOL0     N82131   5.074  10.702   5.125 -0.5477  0.0265  0.2647
  609MOL0     N82132   5.167  10.656   5.051 -0.3646  0.4905  0.0378
  609MOL0     C82133   6.349  10.589   5.123  0.6992 -0.0473  0.7895
  609MOL0     C82134   6.479  10.636   5.118  0.7046  0.7584  0.6884
  609MOL0     C82135   6.864  10.852   4.966 -1.1201  0.3230 -0.1943
  609MOL0     C82136   6.961  10.884   4.870 -0.1534 -1.0063  0.3115
  609MOL0     C82137   7.084  10.958   4.892  0.3452  0.6156 -0.5240
  609MOL0     C82138   7.107  11.009   5.022  0.3048 -0.3897  0.2283
  609MOL0     O82139   7.219  11.071   5.066  0.6197 -0.0940 -0.0449
  609MOL0     C82140   7.320  11.118   4.975 -0.2099 -0.2600 -0.4547
  609MOL0     C82141   7.426  11.206   5.052 -0.5165 -0.1180 -0.3022
  609MOL0     C82142   7.546  11.239   4.962 -0.0625  0.9352 -0.0646
  609MOL0     C82143   7.501  11.335   4.862 -0.2006 -0.6221 -0.3301
  609MOL0     C82144   7.599  11.422   4.801  0.1676 -0.3764 -0.0702
  609MOL0     C82145   7.688  11.475   4.746 -1.0013 -0.8095 -0.9382
  609MOL0     C82146   7.008  10.983   5.113  0.5745  0.3829  0.0521
  609MOL0     C82147   6.890  10.908   5.091  0.2657 -0.0443  0.4390
  609MOL0     H82148   6.488  10.713   4.786  0.9211 -1.4952 -0.4670
  609MOL0     H82149   6.268  10.629   4.796 -0.9487  0.8485  0.5331
  609MOL0     H82150   6.043  10.668   4.914 -1.5760  0.1075  1.3573
  609MOL0     H82151   6.076  10.513   4.835 -1.4077  0.4557 -0.7228
  609MOL0     H82152   5.904  10.401   4.947 -2.4101  0.4511 -1.8837
  609MOL0     H82153   5.897  10.504   5.088 -1.3349 -0.4290  0.4567
  609MOL0     H82154   5.773  10.680   4.955  2.6642  0.7555 -1.6218
  609MOL0     H82155   5.781  10.573   4.823 -0.9245 -0.7872  0.1464
  609MOL0     H82156   5.669  10.388   4.961 -1.3066 -1.0649  3.2014
  609MOL0     H82157   5.637  10.497   5.083 -0.2014 -0.9134 -0.1684
  609MOL0     H82158   5.569  10.559   4.799 -1.6663 -0.0211  0.5148
  609MOL0     H82159   5.449  10.470   4.900  0.0419 -1.0749 -0.3065
  609MOL0     H82160   5.411  10.652   5.023  1.8481 -0.5138  0.7066
  609MOL0     H82161   5.553  10.742   4.970  0.6255 -2.2392  2.5105
  609MOL0     H82162   5.383  10.846   4.835 -0.8941  0.2580 -0.4563
  609MOL0     H82163   5.411  10.712   4.719 -0.5083 -1.2936  0.4019
  609MOL0     H82164   5.268  10.572   4.823  1.2205 -0.0801  2.2104
  609MOL0     H82165   5.198  10.710   4.725  0.4879 -0.4880 -0.0220
  609MOL0     H82166   5.043  10.908   4.880 -3.9185 -0.8763  2.2483
  609MOL0     H82167   4.945  10.918   5.244  0.3473  0.4244  0.3343
  609MOL0     H82168   4.958  11.009   5.093  0.6995 -0.5661 -1.3563
  609MOL0     H82169   4.717  10.930   5.168 -0.1834 -0.1206 -0.8535
  609MOL0     H82170   4.765  10.770   5.117  0.2250  0.2598  0.8150
  609MOL0     H82171   4.796  10.842   4.889 -0.4583  0.1187  0.5080
  609MOL0     H82172   4.779  11.006   4.933  1.2084 -0.4098 -0.3252
  609MOL0     H82173   4.536  10.949   5.007  0.0749 -0.8338  1.6072
  609MOL0     H82174   4.566  10.781   4.967 -1.4513  0.2369  0.9354
  609MOL0     H82175   4.485  11.135   4.931  2.3420 -0.0065 -0.5939
  609MOL0     H82176   4.393  11.332   4.964  0.1925  1.7796  0.4501
  609MOL0     H82177   4.427  11.427   4.819 -0.5554  0.8863  1.1904
  609MOL0     H82178   4.264  11.372   4.847  0.3419  0.9510  0.2809
  609MOL0     H82179   4.398  11.570   4.437 -1.3318 -0.2782  1.1847
  609MOL0     H82180   4.331  11.763   4.287 -3.1966  0.1830 -0.1738
  609MOL0     H82181   4.092  11.836   3.918  2.4896 -0.2806  0.0618
  609MOL0     H82182   4.080  11.676   3.899  2.1215  0.0191 -0.7245
  609MOL0     H82183   3.890  11.666   4.073 -1.6364  0.7333 -0.8574
  609MOL0     H82184   3.978  11.781   4.173 -1.7212  0.9454  0.4215
  609MOL0     H82185   3.811  11.842   3.929  2.2977  0.5506 -0.3810
  609MOL0     H82186   3.893  11.963   4.042  0.0992  0.4538 -0.7456
  609MOL0     H82187   3.674  11.770   4.104  2.3090 -2.2668  1.3959
  609MOL0     H82188   3.762  11.875   4.218 -3.2832  0.5086  1.4966
  609MOL0     H82189   3.643  11.993   3.968 -0.8796 -4.5764  1.0132
  609MOL0     H82190   3.701  12.084   4.116  0.3887 -0.2906  0.8480
  609MOL0     H82191   3.451  11.906   4.087  1.3087 -0.7390  0.6263
  609MOL0     H82192   3.500  11.970   4.234  3.2160 -2.6416  0.1166
  609MOL0     H82193   3.439  12.135   3.989  0.4873 -0.5136 -0.6685
  609MOL0     H82194   3.520  12.207   4.135 -0.0671  0.0394 -0.2106
  609MOL0     H82195   3.273  12.084   4.179 -0.4815 -0.2789 -0.0441
  609MOL0     H82196   3.250  12.233   4.085 -0.6757 -2.9403 -2.8910
  609MOL0     H82197   4.065  11.492   4.075 -0.4858 -1.6701  0.3770
  609MOL0     H82198   4.125  11.315   4.225  1.4449 -0.4206 -0.7923
  609MOL0     H82199   4.426  11.118   4.444  0.4702 -1.9097  0.0662
  609MOL0     H82200   4.539  10.931   4.553 -0.7188 -0.8039  0.2822
  609MOL0     H82201   6.318  10.541   5.215  1.3426  0.0319  1.0541
  609MOL0     H82202   6.548  10.628   5.202  0.4123 -1.8137  0.7484
  609MOL0     H82203   6.954  10.862   4.764  0.2666  0.2292  0.0049
  609MOL0     H82204   7.157  10.971   4.813  0.2759  3.8332 -0.1940
  609MOL0     H82205   7.366  11.032   4.924 -0.1014  1.4413 -3.4630
  609MOL0     H82206   7.273  11.187   4.904 -0.3121  1.1392  0.9254
  609MOL0     H82207   7.457  11.154   5.144  2.0523  1.5326 -0.1507
  609MOL0     H82208   7.389  11.301   5.091  2.5964  2.6271 -3.4712
  609MOL0     H82209   7.577  11.146   4.913 -1.9099  0.3598 -0.2058
  609MOL0     H82210   7.632  11.280   5.016  2.5016 -0.5990 -2.6776
  609MOL0     H82211   7.420  11.393   4.906 -2.1144 -2.9120 -0.6311
  609MOL0     H82212   7.467  11.277   4.775 -1.3944 -2.3013  1.1900
  609MOL0     H82213   7.763  11.530   4.693 -2.1545  1.5729 -0.2212
  609MOL0     H82214   7.020  11.020   5.214 -0.2598  2.2812 -0.5038
  609MOL0     H82215   6.810  10.896   5.163 -1.4853  1.6954 -1.1151
  610MOL0     O82216   9.575   1.063  10.461  0.4610 -0.1606  0.2107
  610MOL0     C82217   9.672   1.022  10.520 -0.1293 -0.7079 -0.3133
  610MOL0     O82218   9.676   0.960  10.640  0.2282  0.1085 -0.0827
  610MOL0     C82219   9.560   0.939  10.704 -0.3754  0.0983 -0.5390
  610MOL0     C82220   9.559   0.997  10.831  0.2759  0.4891  0.0502
  610MOL0     C82221   9.452   0.968  10.921 -0.5107  0.5126 -0.9040
  610MOL0     C82222   9.359   0.875  10.881 -0.0619  0.8271 -0.6007
  610MOL0     O82223   9.259   0.859  10.978 -0.0491 -0.4616  0.4121
  610MOL0     C82224   9.148   0.761  10.950 -0.1986 -0.3899 -1.2162
  610MOL0     C82225   9.025   0.824  10.895  0.5069 -1.1473  0.8571
  610MOL0     C82226   8.962   0.925  11.002 -0.4559 -1.1166  0.0057
  610MOL0     C82227   8.831   0.983  10.942  0.0329  0.1581 -0.5372
  610MOL0     C82228   8.727   1.015  11.046 -0.0469  0.2409 -0.7472
  610MOL0     C82229   8.673   0.888  11.119 -0.0655 -0.6278  0.3772
  610MOL0     C82230   8.538   0.919  11.184 -0.9311  0.7929  1.1096
  610MOL0     C82231   8.418   0.841  11.130 -0.3348 -0.7723 -0.4091
  610MOL0     N82232   8.374   0.885  10.998  0.7072 -0.4999 -0.5619
  610MOL0     C82233   8.411   0.815  10.889 -0.5344 -1.2364 -0.0230
  610MOL0     C82234   8.412   0.906  10.790  0.0597  0.3733 -0.7383
  610MOL0     C82235   8.432   0.889  10.641 -0.1832 -0.5462 -0.6602
  610MOL0     C82236   8.308   0.882  10.543  0.7453 -0.3856  0.1431
  610MOL0     C82237   8.207   0.766  10.573  0.2212 -0.4604 -0.6609
  610MOL0     C82238   8.109   0.805  10.689 -0.4910  0.7443 -0.7937
  610MOL0     O82239   8.016   0.691  10.695 -0.2072  0.2607  0.4142
  610MOL0     C82240   7.902   0.697  10.769  0.2233  0.4937 -0.3150
  610MOL0     C82241   7.829   0.575  10.763 -0.2609 -0.2065  0.6201
  610MOL0     C82242   7.713   0.563  10.829  0.3942  0.1732  0.0851
  610MOL0     C82243   7.638   0.432  10.798 -0.3517 -1.3961 -0.5604
  610MOL0     C82244   7.659   0.672  10.909 -0.1170 -0.2412  0.3938
  610MOL0     C82245   7.532   0.663  10.989  0.8260 -0.2529  0.3735
  610MOL0     O82246   7.528   0.744  11.099 -0.8232  0.3992  0.5351
  610MOL0     C82247   7.420   0.726  11.180 -0.9999  0.2360  0.0436
  610MOL0     C82248   7.307   0.800  11.152 -0.1255 -0.6820  0.2842
  610MOL0     C82249   7.208   0.809  11.252  1.0092  0.7313  0.5677
  610MOL0     C82250   7.224   0.738  11.371 -0.3318  0.1749 -0.6166
  610MOL0     O82251   7.147   0.753  11.493  0.1710 -0.3825 -0.2784
  610MOL0     C82252   7.044   0.852  11.491  0.2143 -0.5130 -0.1028
  610MOL0     C82253   6.982   0.875  11.630 -0.6737  0.7955  0.2577
  610MOL0     C82254   7.099   0.885  11.737  0.1167 -0.7372 -0.3454
  610MOL0     C82255   7.118   0.756  11.832 -0.1502 -0.6594  0.3182
  610MOL0     C82256   7.264   0.742  11.892 -0.3642 -0.0461  0.2806
  610MOL0     C82257   7.276   0.709  12.036  0.6374  0.5289 -0.3658
  610MOL0     C82258   7.419   0.701  12.096  0.3367  0.0504  0.5214
  610MOL0     C82259   7.411   0.689  12.245 -0.4966 -0.0480  0.3488
  610MOL0    Cl82260   7.383   0.511  12.299  0.5740  0.2230  0.4291
  610MOL0     C82261   7.339   0.661  11.394 -0.8333 -0.1094  0.2527
  610MOL0     C82262   7.433   0.656  11.298 -0.1418 -0.1779  0.7953
  610MOL0     O82263   7.442   0.598  10.943  0.6140 -0.7142 -0.5224
  610MOL0     C82264   7.727   0.794  10.918  0.1873  1.1893 -0.6257
  610MOL0     C82265   7.847   0.804  10.842 -0.2081  0.2180 -0.5481
  610MOL0     N82266   8.369   1.022  10.838  0.3913 -0.9240  0.1081
  610MOL0     N82267   8.340   1.011  10.964  0.1852 -0.3269 -0.7343
  610MOL0     C82268   9.359   0.824  10.748 -0.0367 -0.2162 -0.4342
  610MOL0     C82269   9.458   0.851  10.661 -0.1090  0.2141 -0.1526
  610MOL0     C82270   9.797   1.062  10.457  1.4576  0.2633  0.0497
  610MOL0     C82271   9.799   1.107  10.323  0.1539 -0.6243 -0.1377
  610MOL0     C82272   9.920   1.161  10.273  0.8211  0.6570  0.6206
  610MOL0     C82273  10.037   1.174  10.350  1.2300 -0.2442  0.4247
  610MOL0     O82274  10.154   1.229  10.311  0.1725 -0.2635  0.0116
  610MOL0     C82275  10.143   1.324  10.197 -0.0439 -0.8043 -0.6680
  610MOL0     C82276  10.157   1.249  10.065  0.4528 -0.5159 -0.7896
  610MOL0     C82277  10.275   1.156  10.046  0.2030  0.1550 -0.7374
  610MOL0     C82278  10.276   1.089   9.901  0.6406 -0.9005 -0.1462
  610MOL0     C82279  10.412   1.042   9.882 -0.1991  0.1679  0.2573
  610MOL0     C82280  10.522   0.999   9.870  0.4623  0.1224 -0.4617
  610MOL0     C82281  10.038   1.105  10.466  0.0707  0.0780 -0.0133
  610MOL0     C82282   9.921   1.046  10.522  0.6148 -0.4808 -0.0426
  610MOL0     H82283   9.639   1.062  10.865  0.3409 -0.0892  1.0388
  610MOL0     H82284   9.447   1.003  11.023  0.1709 -2.4952  0.2829
  610MOL0     H82285   9.176   0.672  10.893 -0.1783 -2.3098  1.6100
  610MOL0     H82286   9.114   0.732  11.050 -1.8302  2.4695 -0.8298
  610MOL0     H82287   9.060   0.877  10.805  0.7100  0.9396  2.0874
  610MOL0     H82288   8.946   0.751  10.879  0.1072 -0.3686 -0.9507
  610MOL0     H82289   8.941   0.874  11.097 -2.1756  2.4479  1.7408
  610MOL0     H82290   9.020   1.011  11.037  1.2399 -1.7594 -1.0692
  610MOL0     H82291   8.859   1.076  10.893  3.9816 -0.0356  0.9566
  610MOL0     H82292   8.787   0.921  10.864 -0.5238 -0.8809  0.5510
  610MOL0     H82293   8.773   1.090  11.111  0.9838 -0.3480 -0.7812
  610MOL0     H82294   8.646   1.066  10.992  0.8026  2.5082  0.0033
  610MOL0     H82295   8.665   0.805  11.048 -1.4009  1.7153 -2.4348
  610MOL0     H82296   8.742   0.863  11.200 -0.1872 -1.6867  0.1737
  610MOL0     H82297   8.552   0.915  11.292  2.6293  2.5778  0.8815
  610MOL0     H82298   8.519   1.026  11.170 -0.3128  1.4071  4.2300
  610MOL0     H82299   8.334   0.852  11.198 -0.1721 -0.3681 -0.2698
  610MOL0     H82300   8.446   0.735  11.123 -2.0560 -1.1521 -3.7244
  610MOL0     H82301   8.466   0.721  10.885  1.0855 -0.3286 -0.1479
  610MOL0     H82302   8.493   0.975  10.613  1.6694 -1.3466  0.7576
  610MOL0     H82303   8.497   0.802  10.627 -0.6039 -1.3340  1.8274
  610MOL0     H82304   8.337   0.866  10.438  1.2293 -0.1392  0.2369
  610MOL0     H82305   8.249   0.974  10.549 -1.5570 -1.6293 -1.8772
  610MOL0     H82306   8.267   0.680  10.603  0.5592 -0.2121 -0.6252
  610MOL0     H82307   8.151   0.737  10.483  0.6484 -1.2605 -0.6773
  610MOL0     H82308   8.057   0.901  10.685  2.7494  2.7950  1.7685
  610MOL0     H82309   8.164   0.816  10.783  0.7710 -1.0618 -1.2610
  610MOL0     H82310   7.873   0.489  10.713 -1.6246  1.1309 -3.1992
  610MOL0     H82311   7.618   0.359  10.876 -0.9108 -0.7666 -0.0974
  610MOL0     H82312   7.540   0.464  10.761  0.5391  0.0138 -1.8375
  610MOL0     H82313   7.681   0.384  10.709 -1.4515  0.1097 -1.9761
  610MOL0     H82314   7.318   0.864  11.065  4.3210 -0.1723  1.0266
  610MOL0     H82315   7.119   0.869  11.238  2.2828  2.4870 -0.2664
  610MOL0     H82316   7.092   0.947  11.465 -0.7902 -0.2080 -0.9014
  610MOL0     H82317   6.963   0.832  11.421 -1.2570  2.2106  0.6731
  610MOL0     H82318   6.919   0.964  11.637 -0.9121  0.5917  0.7066
  610MOL0     H82319   6.918   0.792  11.661 -0.6846  1.3863  1.8869
  610MOL0     H82320   7.079   0.963  11.811  1.2941 -1.9697  1.3774
  610MOL0     H82321   7.192   0.912  11.687 -2.0773 -0.3729 -4.6285
  610MOL0     H82322   7.046   0.771  11.913  0.0554  1.7697  0.1249
  610MOL0     H82323   7.085   0.672  11.770  0.5905  0.9936 -2.4947
  610MOL0     H82324   7.322   0.830  11.863  0.8908 -0.8284  0.3552
  610MOL0     H82325   7.312   0.657  11.843  2.4953  0.7889  1.4427
  610MOL0     H82326   7.212   0.766  12.104  0.9841  1.6828 -0.9740
  610MOL0     H82327   7.244   0.605  12.047  0.1241  0.8423  1.5149
  610MOL0     H82328   7.470   0.792  12.062 -0.0426 -0.0840 -0.4483
  610MOL0     H82329   7.464   0.612  12.052  1.3815  0.7232  0.1868
  610MOL0     H82330   7.338   0.758  12.287 -0.6293 -0.2975  0.5298
  610MOL0     H82331   7.506   0.720  12.289  0.4945 -0.8756 -1.0968
  610MOL0     H82332   7.362   0.607  11.485 -2.1834 -0.4784  0.3953
  610MOL0     H82333   7.523   0.596  11.308  0.3201 -0.7192 -4.1101
  610MOL0     H82334   7.692   0.880  10.975  2.3560  1.4810  0.3948
  610MOL0     H82335   7.901   0.894  10.868  0.9130 -1.3624  3.4007
  610MOL0     H82336   9.277   0.757  10.721 -0.6215 -1.0840  2.9665
  610MOL0     H82337   9.454   0.806  10.562  0.9702  0.6309 -0.4042
  610MOL0     H82338   9.709   1.111  10.262  0.2038 -0.8980 -0.2337
  610MOL0     H82339   9.911   1.193  10.169  4.1448 -1.8215 -0.5931
  610MOL0     H82340  10.045   1.372  10.197  0.3232  0.0271 -2.4536
  610MOL0     H82341  10.222   1.400  10.202 -0.2442 -0.6609  1.5484
  610MOL0     H82342  10.174   1.330   9.993  0.5564  1.1607  1.0423
  610MOL0     H82343  10.072   1.183  10.045 -1.5972  1.2973  1.3955
  610MOL0     H82344  10.261   1.068  10.108  0.9733  1.3119  1.1534
  610MOL0     H82345  10.369   1.201  10.079  0.0996 -0.7503  0.8493
  610MOL0     H82346  10.238   1.156   9.823  0.9912 -0.4800  0.0341
  610MOL0     H82347  10.202   1.009   9.902  1.0551 -1.3386 -1.8055
  610MOL0     H82348  10.619   0.957   9.850 -0.1559  0.0042 -3.7894
  610MOL0     H82349  10.126   1.113  10.529  2.6434  0.4054 -3.3469
  610MOL0     H82350   9.915   1.005  10.622 -3.1032  0.2438  0.1783
  611MOL0     O82351   1.927   1.792   5.222 -0.1004  0.7804  0.0135
  611MOL0     C82352   1.960   1.792   5.103  0.5592 -0.5300 -0.2024
  611MOL0     O82353   1.880   1.811   4.997  0.1056  0.4709 -0.1500
  611MOL0     C82354   1.747   1.828   5.029 -0.8882 -0.1860  0.6576
  611MOL0     C82355   1.678   1.718   5.094 -0.0670 -0.2720  0.1482
  611MOL0     C82356   1.553   1.728   5.149  0.1682 -0.0944  0.2727
  611MOL0     C82357   1.479   1.842   5.135  0.7980  0.8485  0.5229
  611MOL0     O82358   1.351   1.868   5.176  0.5692  0.4370 -0.3486
  611MOL0     C82359   1.298   1.797   5.286  1.2863 -0.7385  0.1718
  611MOL0     C82360   1.150   1.825   5.307 -0.3378 -0.0753 -0.2141
  611MOL0     C82361   1.079   1.770   5.182  0.3722 -0.1514 -0.0851
  611MOL0     C82362   0.931   1.746   5.209  0.4119 -0.2584  0.1016
  611MOL0     C82363   0.850   1.752   5.081 -0.8705 -1.4507 -1.1693
  611MOL0     C82364   0.823   1.889   5.023  1.0886 -0.4117 -0.1793
  611MOL0     C82365   0.698   1.943   5.094  0.4257 -0.9131 -0.0097
  611MOL0     C82366   0.569   1.888   5.039  1.7710 -0.5992 -0.0401
  611MOL0     N82367   0.455   1.964   5.095  0.2425 -0.4104 -0.3098
  611MOL0     C82368   0.435   2.095   5.054  0.3233  0.9475  0.7539
  611MOL0     C82369   0.327   2.133   5.118  0.8468 -0.3768 -0.0540
  611MOL0     C82370   0.258   2.269   5.112  0.6839 -0.3875 -0.3924
  611MOL0     C82371   0.263   2.364   5.236 -0.0547  0.3943  0.6000
  611MOL0     C82372   0.282   2.517   5.207 -0.5385  0.4156  0.0432
  611MOL0     C82373   0.178   2.579   5.121  0.1831 -0.6491 -0.4674
  611MOL0     O82374   0.053   2.565   5.197 -0.2949 -0.0243  0.4037
  611MOL0     C82375  -0.056   2.633   5.154 -0.0830 -0.5770 -0.2135
  611MOL0     C82376  -0.063   2.731   5.055  0.8841 -0.1153  0.2578
  611MOL0     C82377  -0.178   2.801   5.028 -0.2169  0.4014  0.0962
  611MOL0     C82378  -0.181   2.898   4.916 -0.1068 -0.8209 -0.4414
  611MOL0     C82379  -0.296   2.760   5.103 -0.6944  0.0114  0.0966
  611MOL0     C82380  -0.432   2.816   5.083  0.4068  0.6510 -0.4697
  611MOL0     O82381  -0.532   2.740   5.131  0.2997  0.0016 -0.3906
  611MOL0     C82382  -0.659   2.791   5.122 -1.0001 -0.5712 -0.5187
  611MOL0     C82383  -0.729   2.785   5.002 -0.2065  0.0237 -0.0515
  611MOL0     C82384  -0.862   2.834   4.988  0.2722 -0.0620 -0.4886
  611MOL0     C82385  -0.926   2.885   5.103  0.2781 -0.6859 -0.2891
  611MOL0     O82386  -1.055   2.925   5.083 -0.1072 -0.6474  0.1554
  611MOL0     C82387  -1.137   2.910   5.197  0.6247  0.2455  0.7869
  611MOL0     C82388  -1.281   2.926   5.148  0.0023  0.2624  0.1340
  611MOL0     C82389  -1.393   2.884   5.246 -1.3875  0.2201  0.3565
  611MOL0     C82390  -1.402   2.996   5.355 -0.3525  0.1639 -0.9052
  611MOL0     C82391  -1.457   2.931   5.477 -0.0058 -0.4095 -0.2291
  611MOL0     C82392  -1.480   3.033   5.582 -0.3647 -0.1918 -0.1100
  611MOL0     C82393  -1.554   2.974   5.704  0.0207  0.6412  0.2765
  611MOL0     C82394  -1.466   2.923   5.808  0.1360 -0.1858  0.6666
  611MOL0    Cl82395  -1.559   2.903   5.963  0.0078  0.0321 -0.1133
  611MOL0     C82396  -0.855   2.890   5.223  0.2312  0.0368  0.5028
  611MOL0     C82397  -0.718   2.857   5.230  0.1262 -0.3046 -0.2988
  611MOL0     O82398  -0.443   2.927   5.037 -1.0824 -0.4742 -0.1095
  611MOL0     C82399  -0.283   2.653   5.201 -1.1458 -1.1498  0.2115
  611MOL0     C82400  -0.168   2.593   5.224 -0.5376 -0.5389 -0.3782
  611MOL0     N82401   0.272   2.023   5.190  0.9151  0.4188  0.3196
  611MOL0     N82402   0.354   1.923   5.180  0.5838  0.8627  0.0515
  611MOL0     C82403   1.538   1.942   5.054 -0.7165 -0.3078  0.5082
  611MOL0     C82404   1.668   1.936   4.996 -0.2539  0.3939  0.4073
  611MOL0     C82405   2.101   1.789   5.072 -0.0886 -0.1802 -0.3933
  611MOL0     C82406   2.199   1.773   5.175  0.1645 -0.2644 -0.6263
  611MOL0     C82407   2.335   1.792   5.148 -0.4439  0.3888 -0.0384
  611MOL0     C82408   2.382   1.783   5.014  0.0025  0.1573  0.5687
  611MOL0     O82409   2.514   1.797   4.971 -0.2588 -0.0521 -0.3256
  611MOL0     C82410   2.601   1.841   5.077  0.3349  0.0679 -0.4597
  611MOL0     C82411   2.738   1.874   5.031 -0.2619 -0.0581  0.4484
  611MOL0     C82412   2.742   2.002   4.937 -0.5121  0.5431  0.8227
  611MOL0     C82413   2.884   2.044   4.889 -0.4319  0.1170 -0.6495
  611MOL0     C82414   2.971   2.060   5.008 -0.1548 -0.2295  0.3571
  611MOL0     C82415   3.043   2.079   5.102  0.0206  0.4181  0.4540
  611MOL0     C82416   2.284   1.766   4.914 -0.2253 -0.2716 -0.5990
  611MOL0     C82417   2.149   1.781   4.940  0.9249  0.3566 -0.2814
  611MOL0     H82418   1.729   1.623   5.090  0.5509  0.0617 -0.0896
  611MOL0     H82419   1.505   1.643   5.195  1.7284 -0.7387  0.7798
  611MOL0     H82420   1.304   1.688   5.274 -0.0284 -1.5156  4.7867
  611MOL0     H82421   1.360   1.815   5.374 -0.0315 -1.3498  1.2585
  611MOL0     H82422   1.109   1.777   5.397  1.4808  1.9341  1.8166
  611MOL0     H82423   1.132   1.931   5.331  0.3051  0.2848 -1.2679
  611MOL0     H82424   1.079   1.844   5.101 -0.0757  1.0246  0.9433
  611MOL0     H82425   1.116   1.673   5.149 -1.8452 -1.5491  1.3132
  611MOL0     H82426   0.925   1.642   5.244 -0.3400 -0.1919  0.1895
  611MOL0     H82427   0.892   1.801   5.295 -1.3835 -3.8171  1.8059
  611MOL0     H82428   0.904   1.692   5.008  1.1336 -2.1893  0.8104
  611MOL0     H82429   0.751   1.706   5.093 -2.8286  2.8827  2.1676
  611MOL0     H82430   0.909   1.956   5.037  3.3984 -3.7640  3.8257
  611MOL0     H82431   0.802   1.879   4.916  0.0607  2.0322 -0.2877
  611MOL0     H82432   0.697   1.927   5.202 -2.5139  2.8846  0.7456
  611MOL0     H82433   0.697   2.052   5.083  1.5295 -1.0224 -1.5327
  611MOL0     H82434   0.554   1.781   5.056 -0.0026 -0.5488 -1.0204
  611MOL0     H82435   0.569   1.891   4.929 -0.4799 -0.9659 -0.1011
  611MOL0     H82436   0.497   2.144   4.980  1.1496 -3.2705 -1.6903
  611MOL0     H82437   0.324   2.322   5.042 -0.9656  0.3830 -1.4039
  611MOL0     H82438   0.152   2.267   5.086  0.4711 -0.4611  0.4389
  611MOL0     H82439   0.356   2.337   5.288 -0.6101 -3.1951 -0.0314
  611MOL0     H82440   0.183   2.343   5.308  0.7145 -0.8766  1.1231
  611MOL0     H82441   0.381   2.531   5.162 -0.4773 -2.6314 -1.0449
  611MOL0     H82442   0.292   2.575   5.300  0.6590  0.3861 -0.0490
  611MOL0     H82443   0.169   2.539   5.020 -1.3755 -0.9015 -0.2441
  611MOL0     H82444   0.205   2.685   5.114  1.0457 -0.8841 -0.9418
  611MOL0     H82445   0.027   2.748   4.998 -0.6251  2.0319 -1.6531
  611MOL0     H82446  -0.217   2.997   4.945 -2.6473 -0.7613 -3.2872
  611MOL0     H82447  -0.080   2.912   4.877  0.7855  0.0264  1.9538
  611MOL0     H82448  -0.254   2.860   4.844 -1.2058 -0.8961  0.6736
  611MOL0     H82449  -0.675   2.749   4.915  0.1453 -0.1227  0.2278
  611MOL0     H82450  -0.908   2.836   4.890 -1.1778  1.7848  0.1714
  611MOL0     H82451  -1.136   2.820   5.259 -0.7848  0.3647  1.0099
  611MOL0     H82452  -1.118   2.991   5.267  1.3466 -0.6261  1.6234
  611MOL0     H82453  -1.287   3.034   5.129  2.1368  0.3978 -0.0132
  611MOL0     H82454  -1.302   2.867   5.059  2.0408 -1.1070  0.4741
  611MOL0     H82455  -1.376   2.786   5.292  0.7179  0.6792  0.6270
  611MOL0     H82456  -1.484   2.884   5.184 -2.0125 -1.2273  1.2234
  611MOL0     H82457  -1.314   3.059   5.373 -0.8232 -0.1309  3.4834
  611MOL0     H82458  -1.467   3.078   5.322 -2.5432 -0.1247  2.3051
  611MOL0     H82459  -1.388   2.851   5.505  0.4819  0.4667  1.2076
  611MOL0     H82460  -1.555   2.889   5.453  0.5803 -0.8652 -1.9083
  611MOL0     H82461  -1.382   3.072   5.611 -0.4665  0.9862 -1.2477
  611MOL0     H82462  -1.527   3.120   5.536  0.7234 -0.4553 -1.8016
  611MOL0     H82463  -1.626   2.901   5.666  0.9223 -1.0659  1.7574
  611MOL0     H82464  -1.607   3.058   5.752  1.4903  0.7700  1.7480
  611MOL0     H82465  -1.390   2.998   5.829 -1.2067  1.6697 -0.7676
  611MOL0     H82466  -1.425   2.827   5.777 -2.0382 -0.6414 -1.0775
  611MOL0     H82467  -0.896   2.951   5.303 -1.1901  2.9585 -2.2310
  611MOL0     H82468  -0.661   2.878   5.320 -2.1332  1.1182  0.9170
  611MOL0     H82469  -0.360   2.626   5.272  1.2812 -0.5425  3.2792
  611MOL0     H82470  -0.169   2.507   5.290 -2.1686  0.3750  0.8493
  611MOL0     H82471   1.473   2.026   5.033 -1.6850  0.2892  4.9044
  611MOL0     H82472   1.706   2.013   4.930 -0.5042  0.9385  0.8895
  611MOL0     H82473   2.169   1.774   5.279 -0.0670  1.2468 -0.6859
  611MOL0     H82474   2.395   1.814   5.236  0.8008 -1.5121 -0.3530
  611MOL0     H82475   2.559   1.934   5.117 -0.4991 -0.6623  0.3760
  611MOL0     H82476   2.605   1.766   5.156 -1.4664 -1.3972 -1.7013
  611MOL0     H82477   2.791   1.797   4.975 -3.7168 -2.2874 -0.0213
  611MOL0     H82478   2.796   1.903   5.119  2.0398 -0.8802 -0.7125
  611MOL0     H82479   2.689   2.077   4.996 -2.4396 -1.2119  1.4487
  611MOL0     H82480   2.687   1.971   4.847  1.0646  0.2142 -0.0860
  611MOL0     H82481   2.882   2.141   4.838  0.8715  0.2161 -0.5578
  611MOL0     H82482   2.928   1.980   4.813  0.1948  1.0673 -1.1160
  611MOL0     H82483   3.120   2.084   5.176  1.1402  0.8977 -0.7010
  611MOL0     H82484   2.319   1.768   4.812 -2.3744  0.7637 -1.3646
  611MOL0     H82485   2.070   1.769   4.866 -2.0659 -0.4808  2.7870
  612MOL0     O82486   3.100   8.659   3.424  0.1087 -0.2147  0.6321
  612MOL0     C82487   3.110   8.545   3.375  0.5789  0.0200 -0.6389
  612MOL0     O82488   3.002   8.470   3.325 -0.0885  0.4136 -0.3481
  612MOL0     C82489   2.866   8.493   3.342  0.3866 -0.6408 -0.1793
  612MOL0     C82490   2.775   8.442   3.253 -0.5139  0.1309  0.3602
  612MOL0     C82491   2.643   8.461   3.271 -0.2221  0.4887 -0.2407
  612MOL0     C82492   2.587   8.540   3.375  0.4071  1.1591 -0.4149
  612MOL0     O82493   2.449   8.537   3.383  0.1477 -0.2704 -0.3084
  612MOL0     C82494   2.381   8.604   3.486 -0.7903 -0.2877 -0.5691
  612MOL0     C82495   2.230   8.595   3.486 -0.7552 -0.0318  0.7909
  612MOL0     C82496   2.172   8.644   3.625 -0.6937 -0.1606  0.6478
  612MOL0     C82497   2.021   8.663   3.608  0.8372 -0.6052 -0.0421
  612MOL0     C82498   1.948   8.720   3.731  0.1473  0.6159 -0.7914
  612MOL0     C82499   1.836   8.808   3.685 -0.0419  0.2370 -0.0510
  612MOL0     C82500   1.751   8.876   3.797 -0.6342 -0.0711 -0.1024
  612MOL0     C82501   1.620   8.938   3.755 -0.3906 -1.0692 -0.2363
  612MOL0     N82502   1.650   9.039   3.644  0.1467  0.0795 -0.4329
  612MOL0     C82503   1.647   9.178   3.656  0.8723  0.5001 -0.2059
  612MOL0     C82504   1.630   9.232   3.532 -0.6537  0.5536 -0.1666
  612MOL0     C82505   1.615   9.380   3.499 -0.3664 -0.5418  0.0668
  612MOL0     C82506   1.478   9.410   3.561 -0.7575  0.0338  0.0269
  612MOL0     C82507   1.444   9.561   3.545 -0.2866 -0.0437  0.2190
  612MOL0     C82508   1.315   9.595   3.623  0.0648 -0.2356  0.2995
  612MOL0     O82509   1.226   9.671   3.541  0.1047  0.3710  0.1748
  612MOL0     C82510   1.118   9.734   3.595 -0.9161 -0.1582 -1.1949
  612MOL0     C82511   1.079   9.718   3.732 -0.5393 -0.1041 -0.1980
  612MOL0     C82512   0.978   9.788   3.793  0.2687 -0.3970  0.4617
  612MOL0     C82513   0.955   9.743   3.936 -0.6057 -0.5061 -1.2724
  612MOL0     C82514   0.904   9.886   3.720 -0.7521 -0.4383  0.2734
  612MOL0     C82515   0.776   9.956   3.763  0.6915 -0.4167 -0.2200
  612MOL0     O82516   0.768   9.962   3.893  0.4282 -0.2701 -0.0486
  612MOL0     C82517   0.656  10.021   3.952 -0.7292 -0.3524  0.0467
  612MOL0     C82518   0.527  10.025   3.894  0.4430  0.2502  0.3840
  612MOL0     C82519   0.424  10.092   3.964  0.0268 -0.1671  0.4757
  612MOL0     C82520   0.439  10.147   4.087 -0.0939  0.1693  0.2090
  612MOL0     O82521   0.333  10.191   4.159  0.2093 -0.1485 -0.6318
  612MOL0     C82522   0.259  10.097   4.228 -0.4435  0.0467 -0.1177
  612MOL0     C82523   0.199  10.139   4.364 -0.4115  0.4585  0.1608
  612MOL0     C82524   0.167  10.288   4.361  0.2968 -0.1807 -0.7130
  612MOL0     C82525   0.060  10.330   4.266  0.1446 -0.7106 -0.7533
  612MOL0     C82526   0.029  10.473   4.291  0.0621  0.0162  0.0216
  612MOL0     C82527  -0.087  10.520   4.210  0.3846 -0.2543  1.1232
  612MOL0     C82528  -0.221  10.441   4.215 -1.1357  0.1477  0.2257
  612MOL0     C82529  -0.339  10.515   4.138  0.3080  0.2184  0.5483
  612MOL0    Cl82530  -0.428  10.639   4.238  0.0839  0.2681 -0.0040
  612MOL0     C82531   0.569  10.144   4.141 -0.6400 -0.0787 -0.2443
  612MOL0     C82532   0.678  10.085   4.072  0.3418 -0.6702  0.1476
  612MOL0     O82533   0.709  10.017   3.681  0.2681 -0.2937  0.0413
  612MOL0     C82534   0.930   9.893   3.581  0.3786 -0.4165  0.5221
  612MOL0     C82535   1.035   9.820   3.521  0.0312  0.7364 -0.5777
  612MOL0     N82536   1.635   9.126   3.445  0.7589  0.1458 -0.4746
  612MOL0     N82537   1.650   9.014   3.512  0.0646  0.1018 -0.8744
  612MOL0     C82538   2.680   8.583   3.472 -0.3158 -0.9263 -0.4899
  612MOL0     C82539   2.816   8.563   3.456 -0.0570 -0.2825 -0.3316
  612MOL0     C82540   3.250   8.491   3.339  0.1505  0.7954 -0.1761
  612MOL0     C82541   3.256   8.365   3.281  0.2980  0.3802 -0.1062
  612MOL0     C82542   3.381   8.323   3.228 -0.3946 -0.6031  0.1974
  612MOL0     C82543   3.497   8.401   3.254  1.1552 -0.9418  0.0110
  612MOL0     O82544   3.620   8.371   3.210  0.3023  0.0494  0.1691
  612MOL0     C82545   3.646   8.282   3.099  0.1809  0.0954  0.3254
  612MOL0     C82546   3.771   8.313   3.021  0.6324  0.0228 -0.2047
  612MOL0     C82547   3.777   8.471   3.005  0.1707  0.5549  0.8454
  612MOL0     C82548   3.908   8.499   2.920  0.7614  0.2262 -0.5395
  612MOL0     C82549   3.938   8.637   2.917  0.3578 -0.7059  0.0403
  612MOL0     C82550   3.989   8.750   2.925 -0.2016 -0.4792  1.3464
  612MOL0     C82551   3.493   8.521   3.329  0.3207  0.4016  0.5141
  612MOL0     C82552   3.362   8.564   3.365  0.7149  0.5753 -0.3356
  612MOL0     H82553   2.813   8.384   3.169  0.4134 -2.6282  2.5273
  612MOL0     H82554   2.574   8.429   3.194  0.3727 -3.3710  0.6656
  612MOL0     H82555   2.417   8.571   3.584 -0.2260 -2.0042 -1.3169
  612MOL0     H82556   2.403   8.710   3.469 -0.5865 -0.5044 -1.7330
  612MOL0     H82557   2.191   8.654   3.402 -0.1240 -0.6578  0.0417
  612MOL0     H82558   2.193   8.493   3.472  0.3676 -0.5226  1.3485
  612MOL0     H82559   2.195   8.567   3.699  5.0449 -0.2617 -0.7185
  612MOL0     H82560   2.223   8.735   3.658  1.0995 -1.2345  1.0311
  612MOL0     H82561   1.998   8.718   3.516  0.7824 -2.1161 -0.9663
  612MOL0     H82562   1.990   8.559   3.592 -0.1439 -0.2737 -0.3579
  612MOL0     H82563   1.911   8.633   3.785 -2.4007  1.8388 -0.4365
  612MOL0     H82564   2.018   8.778   3.792 -1.4610 -0.2786  2.0951
  612MOL0     H82565   1.879   8.884   3.619 -0.3483  0.5930  0.1515
  612MOL0     H82566   1.767   8.757   3.618 -2.9294  2.9523  0.5858
  612MOL0     H82567   1.735   8.804   3.878 -3.5225 -3.7793 -3.5416
  612MOL0     H82568   1.823   8.949   3.835  0.3993 -1.1295  0.0478
  612MOL0     H82569   1.586   8.980   3.850  2.0274 -1.9537  1.1220
  612MOL0     H82570   1.549   8.864   3.718  1.1165 -1.6060 -2.2988
  612MOL0     H82571   1.673   9.238   3.743  2.8354 -1.6382  0.7600
  612MOL0     H82572   1.701   9.425   3.550  0.5313 -4.1174  2.1486
  612MOL0     H82573   1.617   9.401   3.392  1.1434  2.5080  0.6061
  612MOL0     H82574   1.493   9.390   3.667 -1.2027 -1.7256 -0.2191
  612MOL0     H82575   1.407   9.345   3.510  1.9505 -2.4756 -0.8280
  612MOL0     H82576   1.430   9.586   3.439 -2.2042  0.8985  0.6415
  612MOL0     H82577   1.522   9.620   3.593 -0.0341 -0.5244  0.4053
  612MOL0     H82578   1.345   9.658   3.708  0.0734  1.7920 -1.1591
  612MOL0     H82579   1.258   9.512   3.667 -2.0629  0.1469 -1.5753
  612MOL0     H82580   1.143   9.651   3.789  0.9054  0.2764 -1.2940
  612MOL0     H82581   1.044   9.710   3.991 -1.3314 -0.3913  0.0175
  612MOL0     H82582   0.905   9.816   4.000 -0.0603 -1.6435  0.5384
  612MOL0     H82583   0.890   9.655   3.930  1.5477 -2.1569 -1.4694
  612MOL0     H82584   0.503   9.973   3.802 -0.0379 -1.6102  1.5130
  612MOL0     H82585   0.324  10.094   3.920 -0.3529 -1.1502  1.2401
  612MOL0     H82586   0.171  10.077   4.166 -1.8345 -0.0879  1.8121
  612MOL0     H82587   0.322  10.010   4.245  1.4592  1.3294 -0.3532
  612MOL0     H82588   0.105  10.086   4.381  0.0471 -0.3898  0.1398
  612MOL0     H82589   0.260  10.122   4.453 -2.4771 -5.5064  0.8454
  612MOL0     H82590   0.256  10.350   4.346 -0.0305  0.1091 -1.5198
  612MOL0     H82591   0.138  10.318   4.462 -3.0991 -2.3219 -0.8913
  612MOL0     H82592   0.097  10.321   4.163  1.2907 -0.7450 -0.3479
  612MOL0     H82593  -0.025  10.262   4.282 -0.0985  0.2817  2.8948
  612MOL0     H82594   0.114  10.532   4.254 -1.0401  0.0450 -2.7372
  612MOL0     H82595   0.017  10.506   4.394  1.3990  1.3435 -0.2215
  612MOL0     H82596  -0.101  10.617   4.259  2.2779 -1.2454  3.8405
  612MOL0     H82597  -0.059  10.537   4.106  1.5476 -2.3274  1.0485
  612MOL0     H82598  -0.244  10.426   4.321  1.3957 -1.5068  0.6290
  612MOL0     H82599  -0.196  10.345   4.171 -1.7061 -1.0744  2.3999
  612MOL0     H82600  -0.412  10.442   4.104 -0.1473  1.6039 -1.6751
  612MOL0     H82601  -0.299  10.568   4.050 -0.6659  1.7650  0.9964
  612MOL0     H82602   0.594  10.174   4.242  1.0497 -1.3582 -0.2505
  612MOL0     H82603   0.776  10.072   4.117  0.5959 -1.9399 -0.7040
  612MOL0     H82604   0.875   9.947   3.504  0.9256 -3.2812 -2.0654
  612MOL0     H82605   1.045   9.832   3.413  1.7306 -1.4535 -0.7244
  612MOL0     H82606   2.639   8.634   3.559  0.4298 -1.0057 -0.0835
  612MOL0     H82607   2.891   8.585   3.531  0.1044 -3.4321  0.5537
  612MOL0     H82608   3.169   8.305   3.259  0.5914 -0.3094  0.5835
  612MOL0     H82609   3.398   8.232   3.171  0.5906 -1.3413  1.5925
  612MOL0     H82610   3.647   8.176   3.129 -2.0524 -1.0736 -3.0345
  612MOL0     H82611   3.562   8.290   3.029  0.5954 -0.5842 -0.2598
  612MOL0     H82612   3.763   8.273   2.920 -1.3916 -0.1320 -0.0248
  612MOL0     H82613   3.860   8.277   3.074 -2.1939 -3.9483  2.4207
  612MOL0     H82614   3.778   8.525   3.100  3.3887  2.6981 -0.2432
  612MOL0     H82615   3.687   8.499   2.949  0.6053 -1.2950 -0.8875
  612MOL0     H82616   3.883   8.471   2.817  1.1729  0.7717 -0.7877
  612MOL0     H82617   3.998   8.445   2.952  0.1517  1.1896  3.4053
  612MOL0     H82618   4.037   8.846   2.918  0.1693 -0.7291  0.3840
  612MOL0     H82619   3.583   8.581   3.341 -1.8650  4.0563  0.3951
  612MOL0     H82620   3.354   8.664   3.406  0.9551  1.9425 -3.3372
  613MOL0     O82621   7.933   2.084   6.774 -0.1295  0.4355  0.5266
  613MOL0     C82622   7.957   2.208   6.787 -1.7032  0.6123 -0.5562
  613MOL0     O82623   7.862   2.303   6.773 -0.7100  0.9541  0.1835
  613MOL0     C82624   7.737   2.266   6.734  0.1549 -0.3639  0.4955
  613MOL0     C82625   7.709   2.210   6.602  0.0679 -0.7491  0.3596
  613MOL0     C82626   7.582   2.173   6.568 -0.0691  0.0610 -0.0766
  613MOL0     C82627   7.481   2.195   6.659  0.4171 -0.4663 -0.4280
  613MOL0     O82628   7.366   2.149   6.609  0.4440  0.0171 -0.6682
  613MOL0     C82629   7.249   2.145   6.703 -1.1723 -0.0270  0.7118
  613MOL0     C82630   7.135   2.060   6.623  0.1680 -0.7362 -0.0824
  613MOL0     C82631   7.009   2.049   6.706 -0.5941  0.3397 -0.6300
  613MOL0     C82632   7.032   1.950   6.818  0.5617 -0.2204 -0.6102
  613MOL0     C82633   6.899   1.930   6.904 -0.4399  0.2118  0.5514
  613MOL0     C82634   6.947   1.838   7.020  0.1321  0.1468  0.6308
  613MOL0     C82635   6.829   1.769   7.088  0.3908 -0.0987  0.2216
  613MOL0     C82636   6.724   1.868   7.143 -0.3739  0.2855  0.9330
  613MOL0     N82637   6.605   1.779   7.177 -0.6104 -0.1125 -0.6203
  613MOL0     C82638   6.540   1.701   7.079  0.2044  0.4919 -0.5756
  613MOL0     C82639   6.461   1.623   7.154  0.3244 -0.3971  0.1170
  613MOL0     C82640   6.360   1.543   7.089 -0.0900  0.2472 -0.5381
  613MOL0     C82641   6.219   1.600   7.054  0.3663 -0.1661 -0.0635
  613MOL0     C82642   6.151   1.689   7.170  0.2430  0.2474 -0.4107
  613MOL0     C82643   6.120   1.592   7.281  1.2709  0.8686  0.4249
  613MOL0     O82644   6.016   1.496   7.251 -0.0214  0.3785 -0.3495
  613MOL0     C82645   5.885   1.531   7.235  0.7687  0.0414  0.6699
  613MOL0     C82646   5.845   1.646   7.292 -0.5010 -0.2347  0.4021
  613MOL0     C82647   5.710   1.665   7.298 -0.2884  0.5166 -0.3869
  613MOL0     C82648   5.667   1.794   7.363 -0.0522  1.0835 -0.4132
  613MOL0     C82649   5.610   1.576   7.241  0.0583 -0.5382  0.1138
  613MOL0     C82650   5.461   1.606   7.238  0.7186 -0.0527 -0.5698
  613MOL0     O82651   5.406   1.705   7.321  0.0920 -0.2334  0.8785
  613MOL0     C82652   5.272   1.707   7.365  0.7155 -0.4003  0.8728
  613MOL0     C82653   5.177   1.779   7.285  0.3405  0.2943  0.2500
  613MOL0     C82654   5.043   1.765   7.332  0.5733 -0.2178 -0.2540
  613MOL0     C82655   5.009   1.696   7.450 -1.1853 -0.8416 -0.3488
  613MOL0     O82656   4.885   1.712   7.494  0.2716 -0.6480  0.6739
  613MOL0     C82657   4.836   1.657   7.614  0.4170 -0.0729 -0.2158
  613MOL0     C82658   4.685   1.677   7.624 -0.6877  0.9018 -1.0885
  613MOL0     C82659   4.646   1.602   7.758 -0.1765  0.6293  0.1033
  613MOL0     C82660   4.495   1.604   7.774 -0.5766 -0.0346  0.5649
  613MOL0     C82661   4.433   1.531   7.892  0.3711 -1.0615  0.4878
  613MOL0     C82662   4.286   1.505   7.863 -0.1909  1.0441 -0.2273
  613MOL0     C82663   4.199   1.492   7.989 -0.4306  0.7202 -0.4310
  613MOL0     C82664   4.082   1.389   7.964 -0.6603 -0.7983  0.2270
  613MOL0    Cl82665   3.981   1.447   7.838 -0.2407 -0.0837 -0.2790
  613MOL0     C82666   5.114   1.654   7.533  0.5176 -0.1815  0.5253
  613MOL0     C82667   5.245   1.655   7.485  0.2405 -0.7703 -0.0536
  613MOL0     O82668   5.401   1.523   7.176  1.2172  0.7061  0.4787
  613MOL0     C82669   5.663   1.464   7.186 -0.3285 -0.4857  0.1246
  613MOL0     C82670   5.786   1.432   7.197 -0.7044 -0.8409 -0.5065
  613MOL0     N82671   6.476   1.652   7.286 -0.7238 -0.6280  0.4549
  613MOL0     N82672   6.558   1.750   7.299  0.1182 -0.4119 -0.6631
  613MOL0     C82673   7.509   2.256   6.785  0.0764  0.4960 -0.5785
  613MOL0     C82674   7.639   2.295   6.819  0.3440 -0.6776 -0.0363
  613MOL0     C82675   8.099   2.245   6.803  0.7599  0.3413  0.3922
  613MOL0     C82676   8.200   2.150   6.803 -0.6211 -0.1867 -0.1326
  613MOL0     C82677   8.333   2.192   6.805 -0.1825 -1.3107 -0.6621
  613MOL0     C82678   8.370   2.327   6.807 -0.4845  0.2975 -0.3975
  613MOL0     O82679   8.505   2.355   6.810  0.5913  0.0935  0.1378
  613MOL0     C82680   8.553   2.476   6.869 -0.8009 -0.3433 -0.5325
  613MOL0     C82681   8.706   2.475   6.878 -0.3019 -0.3428  0.1185
  613MOL0     C82682   8.772   2.469   6.736  0.0816  0.8662 -0.3612
  613MOL0     C82683   8.918   2.481   6.731 -0.5526 -0.9443  0.0143
  613MOL0     C82684   8.972   2.488   6.593 -0.2550  0.2976  1.2636
  613MOL0     C82685   9.002   2.487   6.472 -0.1903  0.5524 -0.9627
  613MOL0     C82686   8.272   2.420   6.803  0.4959 -0.4169 -0.0109
  613MOL0     C82687   8.134   2.385   6.796 -0.3871  0.0983  0.1634
  613MOL0     H82688   7.789   2.187   6.533 -1.2329 -2.2870 -0.7022
  613MOL0     H82689   7.561   2.144   6.466  0.3105  1.4357 -0.5702
  613MOL0     H82690   7.281   2.105   6.799  2.8914 -0.1108 -0.5132
  613MOL0     H82691   7.218   2.249   6.718 -2.1564 -0.4025  1.4016
  613MOL0     H82692   7.112   2.093   6.522  0.7161 -0.0487  0.0065
  613MOL0     H82693   7.182   1.962   6.613  1.7794  0.1789 -1.9698
  613MOL0     H82694   6.985   2.143   6.757 -2.3076 -1.2947  1.8438
  613MOL0     H82695   6.922   2.027   6.644  0.0046  1.8684 -2.0728
  613MOL0     H82696   7.056   1.857   6.765 -1.6738 -0.0221 -2.0950
  613MOL0     H82697   7.114   1.987   6.881 -0.2666  3.3983 -1.4292
  613MOL0     H82698   6.861   2.027   6.937 -1.7466 -0.3413  0.7161
  613MOL0     H82699   6.824   1.887   6.837  0.9386  2.0192 -2.3678
  613MOL0     H82700   7.016   1.756   6.998  1.2489  1.3200 -0.3917
  613MOL0     H82701   6.991   1.913   7.086 -0.4338  0.5924  0.5130
  613MOL0     H82702   6.780   1.698   7.020 -0.0279  0.6194 -0.2474
  613MOL0     H82703   6.859   1.710   7.174 -2.3695 -1.6805  0.2066
  613MOL0     H82704   6.692   1.938   7.065  2.7244  0.3250 -0.4594
  613MOL0     H82705   6.771   1.921   7.226  1.5830  2.3959 -1.3509
  613MOL0     H82706   6.546   1.709   6.971 -0.8459  4.3051 -0.4706
  613MOL0     H82707   6.404   1.502   6.998 -0.0035 -0.4365 -0.1910
  613MOL0     H82708   6.348   1.457   7.156 -1.2732  2.4629  2.3511
  613MOL0     H82709   6.163   1.514   7.017  3.2442 -2.4016  0.4175
  613MOL0     H82710   6.227   1.660   6.963 -1.6585  2.3275  1.2805
  613MOL0     H82711   6.053   1.733   7.151 -0.1661  0.5129  2.0318
  613MOL0     H82712   6.217   1.770   7.202 -1.5176  1.5596  0.0945
  613MOL0     H82713   6.092   1.643   7.373 -3.2602  1.9415 -1.2452
  613MOL0     H82714   6.209   1.535   7.307  1.4015  0.4290 -0.9199
  613MOL0     H82715   5.914   1.724   7.323 -2.6271  1.5946  0.7107
  613MOL0     H82716   5.587   1.844   7.306 -2.4371 -1.5372  0.3796
  613MOL0     H82717   5.619   1.789   7.461 -2.8364 -0.0307 -1.7060
  613MOL0     H82718   5.747   1.864   7.384  1.0772 -0.5814  1.1100
  613MOL0     H82719   5.198   1.830   7.192  4.0726  2.0100  1.8390
  613MOL0     H82720   4.963   1.805   7.271  0.6093 -1.1908 -0.9709
  613MOL0     H82721   4.852   1.549   7.607 -0.6894 -0.1825 -1.6601
  613MOL0     H82722   4.882   1.709   7.698 -1.2361  2.0432 -0.5116
  613MOL0     H82723   4.665   1.785   7.623  0.8918  1.2525  0.5380
  613MOL0     H82724   4.625   1.636   7.542 -0.2812 -0.3212 -0.7907
  613MOL0     H82725   4.686   1.653   7.847 -1.1930  0.2010  0.8220
  613MOL0     H82726   4.683   1.500   7.745 -0.7510  0.5496 -1.0141
  613MOL0     H82727   4.471   1.710   7.789  1.3629  0.2337  2.1765
  613MOL0     H82728   4.441   1.575   7.683 -0.7159  2.5232 -0.2617
  613MOL0     H82729   4.450   1.575   7.990  2.0812  0.0508 -0.2793
  613MOL0     H82730   4.474   1.430   7.898  1.2446 -0.7430 -0.0320
  613MOL0     H82731   4.251   1.590   7.803  0.7495  0.3394 -1.8496
  613MOL0     H82732   4.282   1.411   7.807  0.2995  1.3164 -0.7303
  613MOL0     H82733   4.157   1.592   8.003  1.1474  1.0780  2.4662
  613MOL0     H82734   4.235   1.472   8.090 -2.3365 -0.0907  0.1294
  613MOL0     H82735   4.017   1.389   8.052 -3.0414  2.2148 -1.3217
  613MOL0     H82736   4.115   1.288   7.938 -0.6361 -0.7356  0.0097
  613MOL0     H82737   5.089   1.602   7.625  0.4757 -1.3414 -0.1275
  613MOL0     H82738   5.322   1.607   7.545  1.4459 -1.7577 -2.2483
  613MOL0     H82739   5.598   1.390   7.142 -0.1856 -1.5243  1.5800
  613MOL0     H82740   5.813   1.331   7.167 -0.2175 -1.3991  1.5935
  613MOL0     H82741   7.438   2.258   6.866 -0.3213 -1.2478 -0.8395
  613MOL0     H82742   7.659   2.340   6.915  2.7623  0.1722 -0.8692
  613MOL0     H82743   8.172   2.045   6.811 -2.1060  0.2998  1.7333
  613MOL0     H82744   8.415   2.122   6.813  1.7470  0.5718 -2.6368
  613MOL0     H82745   8.527   2.562   6.806 -1.2186  1.1713  1.6019
  613MOL0     H82746   8.506   2.503   6.964  0.3496  1.6033 -0.4804
  613MOL0     H82747   8.743   2.398   6.946 -0.7693 -0.3486  0.3673
  613MOL0     H82748   8.750   2.570   6.910 -0.8741 -0.2415  0.6052
  613MOL0     H82749   8.727   2.555   6.685 -0.3202  0.6177 -0.4317
  613MOL0     H82750   8.747   2.373   6.691  0.7423  0.1029  0.8531
  613MOL0     H82751   8.968   2.396   6.777  1.0522 -0.3014 -0.4644
  613MOL0     H82752   8.959   2.563   6.791 -0.2316 -3.2099  3.0908
  613MOL0     H82753   9.039   2.485   6.371 -2.9105  1.6521 -2.0700
  613MOL0     H82754   8.298   2.526   6.809  1.0501 -0.6183  1.4778
  613MOL0     H82755   8.052   2.456   6.794 -1.4188 -1.0326  0.9304
  614MOL0     O82756   5.929   7.543   2.443 -0.1898 -0.0443 -0.0297
  614MOL0     C82757   5.973   7.648   2.393 -0.1308  0.2503 -0.8124
  614MOL0     O82758   5.917   7.778   2.402  0.3589 -0.1388 -0.1602
  614MOL0     C82759   5.814   7.793   2.497  1.0482  0.3504  0.0428
  614MOL0     C82760   5.685   7.816   2.461  0.3466 -0.3559  0.0767
  614MOL0     C82761   5.591   7.864   2.552 -0.2283  0.2071 -0.4246
  614MOL0     C82762   5.616   7.868   2.687 -0.1588  0.0349 -0.2070
  614MOL0     O82763   5.512   7.911   2.762 -1.4632 -0.1722 -0.1662
  614MOL0     C82764   5.474   7.823   2.867  0.8808 -0.9798  0.1494
  614MOL0     C82765   5.329   7.848   2.888 -0.0331  0.3393  1.3399
  614MOL0     C82766   5.251   7.805   2.764  0.7495  0.0882 -0.5718
  614MOL0     C82767   5.097   7.831   2.779  0.4333  0.1712 -1.3170
  614MOL0     C82768   5.025   7.802   2.648  0.3275  0.1820  0.3229
  614MOL0     C82769   4.891   7.853   2.646  0.6961 -0.2344  0.6504
  614MOL0     C82770   4.804   7.800   2.529  0.9246 -0.7284 -0.2818
  614MOL0     C82771   4.694   7.897   2.498  0.2418 -0.3339 -0.5964
  614MOL0     N82772   4.583   7.893   2.598 -0.4198 -0.0321 -0.5105
  614MOL0     C82773   4.478   7.803   2.612  0.4378 -0.3799 -0.6496
  614MOL0     C82774   4.414   7.830   2.729 -0.3198  0.6176 -0.7629
  614MOL0     C82775   4.297   7.754   2.787 -0.5714  0.6962 -0.6555
  614MOL0     C82776   4.162   7.820   2.771  0.6283  0.2013  0.5278
  614MOL0     C82777   4.082   7.801   2.903 -0.1156 -0.2299  1.1582
  614MOL0     C82778   3.942   7.864   2.881 -0.2537 -0.0413 -0.1639
  614MOL0     O82779   3.864   7.838   3.000 -0.4775  0.7712 -0.2034
  614MOL0     C82780   3.728   7.853   3.007  0.8834 -0.1247 -0.9775
  614MOL0     C82781   3.656   7.819   3.129 -0.2841  0.0546 -0.3262
  614MOL0     C82782   3.516   7.817   3.142  0.7357 -0.4563  0.4616
  614MOL0     C82783   3.462   7.772   3.284 -0.5555 -0.4612  0.1874
  614MOL0     C82784   3.440   7.875   3.032 -0.1608 -0.2983 -0.7293
  614MOL0     C82785   3.292   7.888   3.039 -0.0906  0.1452  0.6419
  614MOL0     O82786   3.230   7.913   2.917  0.9502  0.5406  0.0093
  614MOL0     C82787   3.097   7.951   2.937 -0.3478  0.3958 -0.3036
  614MOL0     C82788   3.053   8.053   3.031 -0.0080  0.2523 -0.0021
  614MOL0     C82789   2.914   8.073   3.053 -0.0845 -0.0995  0.0300
  614MOL0     C82790   2.821   7.987   2.985  0.0315  0.2808 -0.9388
  614MOL0     O82791   2.684   7.990   3.007  0.6725 -0.2502 -0.4162
  614MOL0     C82792   2.617   8.106   3.058 -0.8019 -0.0766  1.1348
  614MOL0     C82793   2.466   8.079   3.073  0.5572 -0.7398 -0.1393
  614MOL0     C82794   2.374   8.189   3.017 -0.0805  0.2463  0.2461
  614MOL0     C82795   2.229   8.164   3.052  0.2549 -0.2640  0.2459
  614MOL0     C82796   2.160   8.299   3.010 -0.5085  0.0730 -0.4439
  614MOL0     C82797   2.008   8.283   3.035  0.1148  0.5101  0.2418
  614MOL0     C82798   1.950   8.298   3.173  0.2220  0.3057 -0.0613
  614MOL0     C82799   1.963   8.434   3.228 -0.5820 -0.9337  0.8933
  614MOL0    Cl82800   1.865   8.545   3.125  0.1821 -0.4748  0.1597
  614MOL0     C82801   2.863   7.895   2.892  0.1404 -0.6829 -0.2413
  614MOL0     C82802   3.002   7.878   2.873  0.4236  1.4898 -0.5122
  614MOL0     O82803   3.239   7.873   3.150  0.9775  0.0552 -0.1795
  614MOL0     C82804   3.504   7.915   2.913  0.3670  0.1014 -0.1225
  614MOL0     C82805   3.646   7.896   2.903 -0.0016 -1.6938  0.7059
  614MOL0     N82806   4.495   7.926   2.797  0.0996  0.7947  0.2140
  614MOL0     N82807   4.587   7.960   2.716 -0.5991  0.3139  0.4660
  614MOL0     C82808   5.745   7.834   2.729  0.6487 -0.5817 -0.3556
  614MOL0     C82809   5.849   7.799   2.629 -0.4148  0.2044 -0.5699
  614MOL0     C82810   6.109   7.638   2.341 -0.2829  0.0803 -0.4689
  614MOL0     C82811   6.164   7.737   2.263  0.1389 -0.8908  0.7204
  614MOL0     C82812   6.295   7.732   2.209  0.0349 -0.2552  0.4930
  614MOL0     C82813   6.376   7.623   2.225  0.2205 -0.1739 -0.0456
  614MOL0     O82814   6.493   7.612   2.151  0.0327  0.4136  0.5315
  614MOL0     C82815   6.599   7.534   2.196 -0.1275 -0.0241 -0.4249
  614MOL0     C82816   6.702   7.617   2.272  0.6258 -0.0879  0.1931
  614MOL0     C82817   6.640   7.657   2.411 -0.4193  0.1393 -0.6308
  614MOL0     C82818   6.747   7.711   2.511  0.4149 -1.1305  0.4757
  614MOL0     C82819   6.824   7.613   2.574 -0.7518 -0.5391  0.1436
  614MOL0     C82820   6.883   7.526   2.635 -0.1844 -0.3102 -0.3748
  614MOL0     C82821   6.320   7.517   2.295 -0.4692 -0.4153  0.1549
  614MOL0     C82822   6.190   7.519   2.346 -0.3219 -0.0085  0.6493
  614MOL0     H82823   5.666   7.830   2.355 -2.6202  0.4711  0.6141
  614MOL0     H82824   5.493   7.904   2.525 -0.2190  0.2247 -0.4310
  614MOL0     H82825   5.490   7.717   2.844 -0.4466 -0.9650 -0.9741
  614MOL0     H82826   5.527   7.850   2.958 -1.9054  1.7307  1.1724
  614MOL0     H82827   5.289   7.807   2.981 -1.0195  2.6191  1.9942
  614MOL0     H82828   5.311   7.955   2.905  0.3845  0.1732  2.9187
  614MOL0     H82829   5.290   7.858   2.676 -2.1244  1.1542 -1.3183
  614MOL0     H82830   5.274   7.699   2.754 -1.0582 -0.5068  0.9988
  614MOL0     H82831   5.058   7.780   2.867  0.5207  2.5986  0.2206
  614MOL0     H82832   5.086   7.938   2.800  2.1153  0.2133 -0.4741
  614MOL0     H82833   5.080   7.851   2.566  3.9567 -1.1434  1.7574
  614MOL0     H82834   5.022   7.693   2.640  0.1305  0.2264 -0.2608
  614MOL0     H82835   4.851   7.807   2.737 -0.4722 -1.0254 -0.2385
  614MOL0     H82836   4.877   7.961   2.654  1.1667 -0.0460 -0.8009
  614MOL0     H82837   4.866   7.784   2.440  1.3127 -5.4382  0.5967
  614MOL0     H82838   4.763   7.701   2.550 -0.9768  0.0614 -0.0999
  614MOL0     H82839   4.651   7.872   2.400  0.9897  0.7596 -1.2231
  614MOL0     H82840   4.729   8.000   2.494 -0.1852  0.0500  2.7578
  614MOL0     H82841   4.447   7.728   2.539 -2.1688  0.5399 -0.5982
  614MOL0     H82842   4.290   7.657   2.737  0.6372  0.6492 -0.7554
  614MOL0     H82843   4.327   7.733   2.890  1.5131  2.4479 -0.8276
  614MOL0     H82844   4.107   7.760   2.698 -0.3720 -1.8587  2.8184
  614MOL0     H82845   4.176   7.926   2.746 -1.6883 -0.0394 -2.3356
  614MOL0     H82846   4.138   7.857   2.979 -2.3348  2.4021  0.9994
  614MOL0     H82847   4.085   7.694   2.924  1.4856 -0.5681 -0.4929
  614MOL0     H82848   3.902   7.821   2.790  1.0324 -0.3074 -0.6257
  614MOL0     H82849   3.946   7.973   2.866 -2.4612  0.2450  0.9294
  614MOL0     H82850   3.714   7.782   3.213 -1.5045  1.5506  1.2361
  614MOL0     H82851   3.409   7.851   3.337 -0.0619  0.7287 -1.0430
  614MOL0     H82852   3.393   7.688   3.272 -1.2924 -0.2693  2.5507
  614MOL0     H82853   3.534   7.725   3.352 -2.1579 -0.7512  1.7737
  614MOL0     H82854   3.118   8.126   3.080 -0.9489  1.0269  0.1224
  614MOL0     H82855   2.892   8.151   3.125  1.5700  1.6938 -1.2738
  614MOL0     H82856   2.657   8.142   3.153 -0.2107  0.6664  0.6124
  614MOL0     H82857   2.636   8.187   2.986  3.3012 -2.0932 -0.3348
  614MOL0     H82858   2.436   7.985   3.025 -3.4478  0.5693 -0.6078
  614MOL0     H82859   2.444   8.051   3.176 -0.4956 -1.2629 -0.4902
  614MOL0     H82860   2.396   8.215   2.913  0.2848  3.1695  0.9763
  614MOL0     H82861   2.400   8.278   3.075  5.5296  0.6435 -2.1620
  614MOL0     H82862   2.184   8.082   2.997 -1.1211 -0.4597  1.5783
  614MOL0     H82863   2.204   8.142   3.156 -1.0860 -0.6168 -0.1379
  614MOL0     H82864   2.176   8.306   2.902  0.4834 -1.2810 -0.4133
  614MOL0     H82865   2.197   8.388   3.062 -1.1002  0.7847 -1.2145
  614MOL0     H82866   1.951   8.351   2.971  0.7860  0.7336 -0.1287
  614MOL0     H82867   1.982   8.180   3.007 -2.7673  0.9832  0.9168
  614MOL0     H82868   1.988   8.217   3.235 -1.1461  0.8388  1.5536
  614MOL0     H82869   1.844   8.274   3.159  0.5682  0.0799 -2.8615
  614MOL0     H82870   2.068   8.462   3.218 -0.0822 -3.1396 -1.0141
  614MOL0     H82871   1.933   8.446   3.332 -2.1035  0.6332  0.3261
  614MOL0     H82872   2.788   7.838   2.838  0.1202 -3.3198  2.3132
  614MOL0     H82873   3.034   7.797   2.808 -0.4919 -0.8161  1.7181
  614MOL0     H82874   3.457   7.962   2.828 -0.2205 -0.3717 -0.0629
  614MOL0     H82875   3.696   7.913   2.809  1.1922 -0.0838  1.5851
  614MOL0     H82876   5.765   7.842   2.835  3.4315  0.0075 -0.8368
  614MOL0     H82877   5.950   7.775   2.660 -0.4711 -0.3404 -0.7976
  614MOL0     H82878   6.102   7.825   2.245 -0.7103 -1.3137  1.5045
  614MOL0     H82879   6.321   7.814   2.142 -1.2315 -1.8629 -2.1463
  614MOL0     H82880   6.561   7.450   2.254  2.2977 -1.0891 -0.2651
  614MOL0     H82881   6.656   7.480   2.120 -1.5951 -4.7622  1.4647
  614MOL0     H82882   6.717   7.709   2.215 -1.1590  0.7369  0.9665
  614MOL0     H82883   6.795   7.563   2.294  0.9604  0.4394  0.0866
  614MOL0     H82884   6.593   7.568   2.454 -0.2596  1.8066  3.3879
  614MOL0     H82885   6.562   7.726   2.378 -0.3290  0.2115 -0.6935
  614MOL0     H82886   6.693   7.757   2.595 -0.9255  0.2845 -1.0866
  614MOL0     H82887   6.817   7.782   2.467 -0.9721  1.0247  1.5363
  614MOL0     H82888   6.939   7.444   2.674 -1.3421 -1.4560 -1.0497
  614MOL0     H82889   6.375   7.424   2.308  0.9917 -0.1664 -3.1751
  614MOL0     H82890   6.165   7.427   2.397 -1.7283  0.0836  0.1596
  615MOL0     O82891   4.328   4.833   2.516  0.8147 -0.2606  0.0278
  615MOL0     C82892   4.251   4.811   2.614  0.2056  0.6579 -0.4391
  615MOL0     O82893   4.291   4.739   2.717 -0.5804 -0.4809  0.4701
  615MOL0     C82894   4.403   4.659   2.707 -0.2606  0.4521 -0.3560
  615MOL0     C82895   4.471   4.647   2.832 -0.0451 -0.6105 -0.0120
  615MOL0     C82896   4.591   4.561   2.830  0.2389 -0.5692  0.0539
  615MOL0     C82897   4.635   4.500   2.716  0.3884 -0.4316  0.0794
  615MOL0     O82898   4.755   4.422   2.711 -0.1892 -0.7946  0.1226
  615MOL0     C82899   4.828   4.385   2.828 -0.2767  0.0368  0.2575
  615MOL0     C82900   4.961   4.345   2.777  0.0052  0.1127  0.8070
  615MOL0     C82901   5.046   4.307   2.900  0.1387 -0.6930  0.7312
  615MOL0     C82902   5.191   4.325   2.854  0.5665 -0.1228 -0.0597
  615MOL0     C82903   5.285   4.284   2.955  0.2588 -0.6993 -1.1899
  615MOL0     C82904   5.426   4.347   2.932 -0.5393 -0.0767  1.2371
  615MOL0     C82905   5.431   4.495   3.007  0.8328 -0.2566  0.0029
  615MOL0     C82906   5.555   4.583   2.996 -0.3386  0.2803 -0.3897
  615MOL0     N82907   5.681   4.512   3.033  0.5307  0.1043 -0.8280
  615MOL0     C82908   5.806   4.532   2.972  0.2254 -0.7131 -0.6134
  615MOL0     C82909   5.893   4.458   3.056  1.4697 -0.1033  0.0036
  615MOL0     C82910   6.044   4.460   3.038  0.9446 -0.6424  0.0594
  615MOL0     C82911   6.123   4.600   3.048  0.4751 -0.5347 -0.9715
  615MOL0     C82912   6.122   4.666   3.186 -0.6473 -0.8521 -0.1991
  615MOL0     C82913   5.989   4.738   3.223  0.8837 -0.8423 -0.2466
  615MOL0     O82914   5.981   4.856   3.142 -0.1474  0.1160 -0.5063
  615MOL0     C82915   5.858   4.903   3.096  0.5514  0.2493 -0.6059
  615MOL0     C82916   5.739   4.875   3.159 -0.2884 -0.3964  0.0456
  615MOL0     C82917   5.613   4.922   3.120  0.1299 -0.4714  0.7512
  615MOL0     C82918   5.493   4.888   3.203  0.4725 -0.4455  0.7315
  615MOL0     C82919   5.609   5.005   2.999  0.5482  0.2921 -1.3970
  615MOL0     C82920   5.491   5.084   2.953 -0.1082 -0.0546  0.1618
  615MOL0     O82921   5.385   5.092   3.036  0.1375 -0.6925  0.5542
  615MOL0     C82922   5.272   5.156   2.999  1.1249 -0.3147  0.6805
  615MOL0     C82923   5.224   5.199   2.871 -0.8063 -0.6408  0.5409
  615MOL0     C82924   5.112   5.269   2.864 -0.5312 -0.6076  0.2913
  615MOL0     C82925   5.035   5.301   2.972  0.0457 -0.4858  0.5028
  615MOL0     O82926   4.926   5.375   2.941 -0.1815 -0.4377  0.7447
  615MOL0     C82927   4.855   5.432   3.056  0.1361 -0.0837  0.1754
  615MOL0     C82928   4.763   5.544   3.018 -0.2238  1.0498 -0.0147
  615MOL0     C82929   4.656   5.510   2.911 -0.7697 -0.4173 -1.2699
  615MOL0     C82930   4.555   5.414   2.974  0.5699  0.6636  0.5297
  615MOL0     C82931   4.422   5.407   2.898 -0.0817  0.2902 -0.6698
  615MOL0     C82932   4.336   5.293   2.949 -0.4617  0.0367 -0.2418
  615MOL0     C82933   4.184   5.314   2.931 -0.2620  0.5602  0.1912
  615MOL0     C82934   4.137   5.176   2.903  0.7191  0.0365  0.5444
  615MOL0    Cl82935   3.961   5.202   2.922 -0.1184  0.0023  0.3376
  615MOL0     C82936   5.071   5.252   3.102 -0.1280 -0.5665 -0.0812
  615MOL0     C82937   5.190   5.180   3.108  0.1275  0.5530 -0.0297
  615MOL0     O82938   5.501   5.144   2.844 -0.2018 -0.2038  0.6685
  615MOL0     C82939   5.733   5.031   2.927  0.1276 -0.4436  0.7504
  615MOL0     C82940   5.850   4.984   2.982  0.4309  0.1069  0.7852
  615MOL0     N82941   5.814   4.411   3.163 -0.3024  0.0278  0.1741
  615MOL0     N82942   5.692   4.447   3.158 -0.9076 -0.0891  1.2896
  615MOL0     C82943   4.555   4.500   2.602 -0.1168  0.4218 -0.4601
  615MOL0     C82944   4.445   4.583   2.596 -0.5731  0.8823 -0.7181
  615MOL0     C82945   4.118   4.871   2.619  0.4762 -0.2575 -0.5221
  615MOL0     C82946   4.058   4.890   2.746 -0.7011  0.2750  0.2744
  615MOL0     C82947   3.926   4.945   2.739 -0.8813  0.4593 -0.3703
  615MOL0     C82948   3.860   4.990   2.620  0.1025 -0.2507  0.8902
  615MOL0     O82949   3.743   5.045   2.648  0.0036  0.4317  0.0424
  615MOL0     C82950   3.661   5.088   2.536 -0.1884  0.5946  0.2997
  615MOL0     C82951   3.548   5.174   2.585  0.0194  0.2344 -1.6239
  615MOL0     C82952   3.453   5.222   2.475 -0.0604  0.1869  0.6817
  615MOL0     C82953   3.521   5.318   2.379  0.2950 -0.5449 -0.7278
  615MOL0     C82954   3.563   5.446   2.431 -0.3768 -0.1734 -0.5200
  615MOL0     C82955   3.592   5.540   2.504  0.4103 -0.6772 -0.0269
  615MOL0     C82956   3.930   4.983   2.501 -0.4623  0.4717 -0.3212
  615MOL0     C82957   4.052   4.917   2.501 -1.1388  0.6285 -0.7853
  615MOL0     H82958   4.432   4.707   2.914 -0.5621 -0.0279 -0.6571
  615MOL0     H82959   4.658   4.552   2.915  0.2691 -3.4371 -0.1671
  615MOL0     H82960   4.850   4.470   2.893  1.5891  0.1919 -0.5265
  615MOL0     H82961   4.780   4.299   2.876 -0.5985 -0.3967 -0.7953
  615MOL0     H82962   4.953   4.250   2.723 -0.4722  0.9313 -0.6473
  615MOL0     H82963   5.009   4.411   2.703  0.9484 -2.7361 -1.2906
  615MOL0     H82964   5.010   4.371   2.982 -1.0744 -1.1615  0.5883
  615MOL0     H82965   5.031   4.202   2.927  2.3543 -1.2633 -0.0482
  615MOL0     H82966   5.217   4.265   2.766 -0.3998  0.6141 -0.8570
  615MOL0     H82967   5.202   4.430   2.829 -0.3910 -0.4161 -1.8271
  615MOL0     H82968   5.248   4.325   3.050  1.0119 -1.8349 -0.3806
  615MOL0     H82969   5.298   4.176   2.960  0.1671 -0.6930  3.2910
  615MOL0     H82970   5.504   4.282   2.971 -1.0418 -1.2951  0.3010
  615MOL0     H82971   5.464   4.365   2.830 -0.8988  3.9912  1.6625
  615MOL0     H82972   5.351   4.558   2.967  0.3471 -1.4883 -1.0143
  615MOL0     H82973   5.415   4.476   3.113 -2.8493  0.0227 -0.3809
  615MOL0     H82974   5.546   4.671   3.061 -0.3479  1.8254 -2.4118
  615MOL0     H82975   5.554   4.643   2.905  1.0380  1.0242  0.0538
  615MOL0     H82976   5.831   4.590   2.884 -3.2124 -2.4287 -2.9659
  615MOL0     H82977   6.087   4.403   3.121 -1.4612 -1.1267  1.0645
  615MOL0     H82978   6.077   4.422   2.941  0.0703  3.0492 -1.8305
  615MOL0     H82979   6.097   4.667   2.965 -0.5294  1.1094  0.5866
  615MOL0     H82980   6.229   4.573   3.037  1.1298  0.7367  1.3735
  615MOL0     H82981   6.205   4.737   3.195 -1.2737 -0.2849  1.3874
  615MOL0     H82982   6.138   4.588   3.261 -0.7909 -0.6257  0.0664
  615MOL0     H82983   5.986   4.778   3.324 -0.2124 -0.7375 -0.3095
  615MOL0     H82984   5.904   4.669   3.212 -2.5139  2.7922  0.7160
  615MOL0     H82985   5.730   4.804   3.241 -0.0647  1.7997  2.0722
  615MOL0     H82986   5.408   4.878   3.134 -0.1124 -1.9234  1.6029
  615MOL0     H82987   5.494   4.793   3.257 -0.4616 -2.0709 -1.9005
  615MOL0     H82988   5.462   4.973   3.265 -2.7694 -1.3110  0.5220
  615MOL0     H82989   5.273   5.173   2.779 -1.4998  1.0191 -0.3480
  615MOL0     H82990   5.068   5.299   2.770  0.7261 -1.2631 -0.5453
  615MOL0     H82991   4.807   5.348   3.108  2.4176 -2.6175 -1.5210
  615MOL0     H82992   4.923   5.480   3.126  0.4378  1.5479 -1.1665
  615MOL0     H82993   4.720   5.586   3.109  3.4533 -1.5609  3.2576
  615MOL0     H82994   4.835   5.617   2.980  2.4133 -1.3068  0.1411
  615MOL0     H82995   4.709   5.473   2.822  2.0172  1.9316 -0.7161
  615MOL0     H82996   4.611   5.602   2.872 -0.0666  0.9208  0.9114
  615MOL0     H82997   4.586   5.310   2.965  0.1285  0.6221 -0.6345
  615MOL0     H82998   4.531   5.428   3.080 -1.9205  0.1441  0.1030
  615MOL0     H82999   4.445   5.392   2.792 -2.1699  0.0939 -1.1376
  615MOL0     H83000   4.372   5.503   2.915 -0.0676 -0.1645  2.3858
  615MOL0     H83001   4.380   5.201   2.909 -1.5141  0.5790 -2.8348
  615MOL0     H83002   4.358   5.287   3.056  0.3609 -0.5969 -0.4296
  615MOL0     H83003   4.147   5.381   2.853  2.2529  0.1938 -1.3977
  615MOL0     H83004   4.149   5.357   3.026  2.0578  1.0854  0.8650
  615MOL0     H83005   4.175   5.113   2.984 -0.3843 -0.5745  0.6005
  615MOL0     H83006   4.180   5.133   2.812 -1.5833  0.8665 -1.0305
  615MOL0     H83007   5.010   5.281   3.187  0.3100  0.0324  0.0373
  615MOL0     H83008   5.234   5.157   3.205  0.6002  0.4814 -0.2587
  615MOL0     H83009   5.738   5.091   2.837  1.0395 -1.6399 -0.0328
  615MOL0     H83010   5.946   4.993   2.932 -0.8883 -0.4130 -2.0267
  615MOL0     H83011   4.586   4.446   2.513 -0.3975 -1.3228  0.4584
  615MOL0     H83012   4.393   4.584   2.501 -0.6096 -2.4372 -0.8485
  615MOL0     H83013   4.106   4.870   2.841 -1.1950 -0.0083  0.4695
  615MOL0     H83014   3.876   4.953   2.835  0.5720  0.1733  0.4403
  615MOL0     H83015   3.714   5.141   2.456 -2.6254  1.2896 -0.9430
  615MOL0     H83016   3.633   4.998   2.481  0.4138  1.6982 -1.9405
  615MOL0     H83017   3.585   5.261   2.639 -2.9018  0.0533  0.9409
  615MOL0     H83018   3.495   5.116   2.661 -0.3197  2.7466  0.1793
  615MOL0     H83019   3.364   5.272   2.513 -1.0452 -0.2819 -0.8762
  615MOL0     H83020   3.409   5.141   2.415  1.7171  0.6612 -1.4083
  615MOL0     H83021   3.445   5.346   2.305  0.2932  2.0213  0.1487
  615MOL0     H83022   3.599   5.263   2.325 -0.0126 -0.4606 -1.2611
  615MOL0     H83023   3.634   5.613   2.569 -2.2979  0.3267  0.7337
  615MOL0     H83024   3.886   5.018   2.408 -0.3086  4.2602  0.8896
  615MOL0     H83025   4.108   4.890   2.412 -1.9525 -2.6858 -0.4329
  616MOL0     O83026   4.978   5.171   7.910 -0.6703  0.8971 -0.1555
  616MOL0     C83027   4.928   5.069   7.871 -0.0578  0.2858 -0.2789
  616MOL0     O83028   4.813   5.016   7.908 -0.8667 -0.3501  0.2959
  616MOL0     C83029   4.727   5.084   7.985  0.1546  0.1756  0.0755
  616MOL0     C83030   4.684   5.215   7.950 -0.4823  0.8575  0.2124
  616MOL0     C83031   4.593   5.284   8.034 -1.0727  0.0843 -0.5048
  616MOL0     C83032   4.553   5.228   8.154  0.3785 -0.1664 -0.2435
  616MOL0     O83033   4.477   5.290   8.246  0.6268 -0.3970  0.1855
  616MOL0     C83034   4.414   5.414   8.202 -0.1423  0.1621  0.7244
  616MOL0     C83035   4.346   5.462   8.336  0.5017  1.2131 -0.4020
  616MOL0     C83036   4.273   5.594   8.321 -0.0682  0.6284 -0.2193
  616MOL0     C83037   4.217   5.634   8.458  0.5775  0.0207  0.0668
  616MOL0     C83038   4.110   5.749   8.451 -0.8133  0.3872 -0.0098
  616MOL0     C83039   4.179   5.890   8.428  0.4909  0.0900 -1.0642
  616MOL0     C83040   4.081   6.008   8.396  0.6851  1.0102  0.3555
  616MOL0     C83041   4.147   6.148   8.412 -1.0309 -0.6974  0.4853
  616MOL0     N83042   4.040   6.244   8.399  0.1781 -0.7744  0.3225
  616MOL0     C83043   3.939   6.277   8.481 -0.2885 -0.0391  0.4252
  616MOL0     C83044   3.883   6.393   8.439  0.5889 -0.4291 -0.9462
  616MOL0     C83045   3.765   6.461   8.509 -0.0498  0.4455  1.0278
  616MOL0     C83046   3.635   6.393   8.469 -0.4341  0.0148 -0.5204
  616MOL0     C83047   3.608   6.412   8.321  0.4469  0.3424  1.3167
  616MOL0     C83048   3.457   6.369   8.288 -0.5997 -0.3582  1.2921
  616MOL0     O83049   3.370   6.479   8.308  0.3597  0.1758  0.6539
  616MOL0     C83050   3.234   6.467   8.288  0.1460  0.1344 -0.0934
  616MOL0     C83051   3.179   6.359   8.219 -0.8229  0.3983  0.0210
  616MOL0     C83052   3.041   6.346   8.192  0.1216 -0.2667 -0.4101
  616MOL0     C83053   2.996   6.224   8.113  0.9308 -0.7607 -0.0193
  616MOL0     C83054   2.949   6.441   8.248  1.1195 -0.9396  0.4071
  616MOL0     C83055   2.804   6.438   8.240 -0.0255  0.0837 -0.5877
  616MOL0     O83056   2.759   6.330   8.180 -0.8142 -0.3189 -0.6788
  616MOL0     C83057   2.621   6.312   8.159 -0.0242 -0.1700 -0.7299
  616MOL0     C83058   2.562   6.405   8.068  0.2766 -0.6289 -0.4967
  616MOL0     C83059   2.425   6.402   8.045 -0.6018 -0.7365 -1.1350
  616MOL0     C83060   2.349   6.321   8.126  0.0142 -0.0287 -0.6342
  616MOL0     O83061   2.214   6.341   8.119  0.2378 -0.1674  0.2767
  616MOL0     C83062   2.123   6.244   8.170  0.1545  0.0450 -0.4696
  616MOL0     C83063   1.976   6.290   8.144  0.4107 -0.6231 -0.1578
  616MOL0     C83064   1.919   6.354   8.271 -0.3387  0.0390 -0.2156
  616MOL0     C83065   1.789   6.418   8.238  0.5205 -1.1450  0.0491
  616MOL0     C83066   1.748   6.492   8.366 -0.1034 -0.0440  0.2745
  616MOL0     C83067   1.641   6.589   8.329  0.1824  0.3612 -0.1381
  616MOL0     C83068   1.591   6.655   8.464 -0.0296 -0.3087 -0.3705
  616MOL0     C83069   1.481   6.756   8.447  0.5002  0.2169 -0.1762
  616MOL0    Cl83070   1.549   6.922   8.385  0.3023 -0.2460 -0.6159
  616MOL0     C83071   2.408   6.229   8.219  0.0537 -0.1067  0.6386
  616MOL0     C83072   2.548   6.220   8.225 -0.5618 -0.2690  0.5985
  616MOL0     O83073   2.732   6.522   8.288 -0.0887 -0.4585 -0.1029
  616MOL0     C83074   3.008   6.544   8.320 -0.0492  0.1862 -0.1583
  616MOL0     C83075   3.147   6.558   8.335 -0.4610 -0.3639  0.7916
  616MOL0     N83076   3.943   6.425   8.325 -0.4527  0.0669  0.3931
  616MOL0     N83077   4.045   6.343   8.301 -0.4170 -0.3226  0.4700
  616MOL0     C83078   4.587   5.102   8.185 -0.0806 -0.0916  0.7235
  616MOL0     C83079   4.672   5.033   8.102 -0.3369  0.2182  0.6495
  616MOL0     C83080   5.016   4.988   7.787 -0.4320  0.3076  0.2681
  616MOL0     C83081   5.152   5.019   7.792  0.5885  0.8184  0.5474
  616MOL0     C83082   5.234   4.943   7.703  0.0816  1.0835  0.3414
  616MOL0     C83083   5.189   4.850   7.620 -0.2408 -0.7365  0.1495
  616MOL0     O83084   5.264   4.774   7.525  0.8776  0.5231  0.3518
  616MOL0     C83085   5.401   4.793   7.510  1.0210  0.5165  0.0540
  616MOL0     C83086   5.431   4.921   7.418  0.8651 -0.2260 -0.9402
  616MOL0     C83087   5.565   4.973   7.450 -0.0228 -1.0124  0.1923
  616MOL0     C83088   5.607   5.059   7.335  0.5294 -0.5422  0.5562
  616MOL0     C83089   5.728   5.137   7.377 -0.0086 -0.7417  0.5375
  616MOL0     C83090   5.840   5.191   7.398  0.5994 -0.1482 -0.3484
  616MOL0     C83091   5.050   4.822   7.622 -0.7811  0.2269  0.3059
  616MOL0     C83092   4.967   4.889   7.711 -0.6380  1.0319  0.5200
  616MOL0     H83093   4.720   5.261   7.859 -0.8002 -0.0431 -0.3777
  616MOL0     H83094   4.575   5.386   8.000  0.5675  0.5869  0.0490
  616MOL0     H83095   4.496   5.483   8.178  1.8189 -1.8062  1.3564
  616MOL0     H83096   4.345   5.406   8.117  0.6527  1.2161 -0.0474
  616MOL0     H83097   4.269   5.390   8.365  1.1053  0.8206  0.2618
  616MOL0     H83098   4.415   5.478   8.418 -0.9118  1.9632  0.6809
  616MOL0     H83099   4.344   5.669   8.286  0.6064  0.1712  0.1475
  616MOL0     H83100   4.192   5.594   8.247  1.8258 -0.1689 -2.3902
  616MOL0     H83101   4.164   5.550   8.504 -0.8257  0.7053 -0.2432
  616MOL0     H83102   4.297   5.670   8.524  1.7778  1.2378 -1.9495
  616MOL0     H83103   4.034   5.732   8.375 -1.3172 -0.6471  0.6968
  616MOL0     H83104   4.057   5.763   8.546 -3.2993 -2.1617 -0.8791
  616MOL0     H83105   4.235   5.920   8.516 -0.9029 -0.1850 -0.0507
  616MOL0     H83106   4.253   5.876   8.348  0.4404 -0.7208 -0.9819
  616MOL0     H83107   4.049   6.001   8.292  0.8709  1.0846  0.2921
  616MOL0     H83108   3.996   5.999   8.464 -0.8582  1.0913 -1.4908
  616MOL0     H83109   4.222   6.170   8.335 -0.1924  1.0261  1.7185
  616MOL0     H83110   4.205   6.161   8.503  2.5936 -1.4594 -1.4996
  616MOL0     H83111   3.914   6.233   8.577  0.6434 -2.9042 -0.5502
  616MOL0     H83112   3.780   6.470   8.617 -2.2096  2.9924  1.2360
  616MOL0     H83113   3.770   6.568   8.483  1.5556  0.3761  0.9511
  616MOL0     H83114   3.551   6.407   8.537 -0.3206 -2.7295  0.3135
  616MOL0     H83115   3.663   6.287   8.471  3.8380  0.9182  2.5301
  616MOL0     H83116   3.680   6.363   8.256  1.1723  0.8635  1.7161
  616MOL0     H83117   3.609   6.519   8.302 -0.1672  0.0787 -0.3304
  616MOL0     H83118   3.427   6.285   8.352 -2.6784 -0.7493 -0.0810
  616MOL0     H83119   3.454   6.338   8.184 -0.0506  1.3571  0.7407
  616MOL0     H83120   3.251   6.282   8.194  3.6347  3.4717  2.1791
  616MOL0     H83121   2.920   6.156   8.150 -1.6700  1.1762 -1.4741
  616MOL0     H83122   2.965   6.265   8.017  2.0896  0.2032 -0.0214
  616MOL0     H83123   3.082   6.162   8.087  0.7827 -0.0242 -2.5732
  616MOL0     H83124   2.636   6.475   8.029 -0.4082  0.7887  0.6826
  616MOL0     H83125   2.377   6.463   7.968  1.5470  0.6291 -1.4634
  616MOL0     H83126   2.143   6.148   8.121 -0.7774  1.0150 -2.8739
  616MOL0     H83127   2.136   6.231   8.278  0.0094  2.1403 -0.1707
  616MOL0     H83128   1.983   6.363   8.063 -0.2530 -2.1976 -1.7062
  616MOL0     H83129   1.916   6.205   8.109 -0.2476 -0.3848  0.3731
  616MOL0     H83130   1.986   6.429   8.315 -1.9484  2.3284 -1.4387
  616MOL0     H83131   1.899   6.283   8.352  0.8255 -0.3157 -0.2142
  616MOL0     H83132   1.815   6.495   8.165  0.4275  1.5985  2.7085
  616MOL0     H83133   1.711   6.345   8.211 -0.0590 -0.3693 -0.4340
  616MOL0     H83134   1.830   6.543   8.417  0.4244 -0.2679 -0.3463
  616MOL0     H83135   1.709   6.421   8.439  1.0152 -0.7942  0.1590
  616MOL0     H83136   1.689   6.668   8.270  3.9051 -1.4309  0.2314
  616MOL0     H83137   1.555   6.542   8.280  1.9725 -0.9954 -2.1087
  616MOL0     H83138   1.675   6.710   8.509  0.6380  0.7676 -2.7696
  616MOL0     H83139   1.569   6.584   8.544 -1.1194  0.8890  0.4449
  616MOL0     H83140   1.422   6.780   8.536 -0.5190 -1.5634 -0.3155
  616MOL0     H83141   1.415   6.703   8.378 -0.3698 -2.4065  2.4599
  616MOL0     H83142   2.357   6.146   8.267  2.5543 -2.6996 -0.8700
  616MOL0     H83143   2.579   6.151   8.303 -1.3169  1.0262  2.0930
  616MOL0     H83144   2.953   6.631   8.353  2.4379  1.4027  1.0886
  616MOL0     H83145   3.181   6.652   8.378 -2.1783  0.9713 -0.5938
  616MOL0     H83146   4.550   5.045   8.269 -2.8688 -0.6000 -0.7427
  616MOL0     H83147   4.701   4.933   8.135 -2.1479 -0.7097 -0.4132
  616MOL0     H83148   5.189   5.105   7.847 -0.8874  2.4094 -0.8341
  616MOL0     H83149   5.340   4.963   7.694  0.3197  0.4022  1.3588
  616MOL0     H83150   5.442   4.820   7.608 -1.9619  2.4409  0.8874
  616MOL0     H83151   5.447   4.706   7.461 -1.2184 -1.2071  0.8627
  616MOL0     H83152   5.357   4.999   7.435  0.9886 -0.4723  0.8656
  616MOL0     H83153   5.420   4.872   7.320  1.2900 -0.4014 -0.9039
  616MOL0     H83154   5.647   4.900   7.452  1.1504  0.2717  0.5848
  616MOL0     H83155   5.555   5.036   7.539 -0.3790  1.8252 -1.7212
  616MOL0     H83156   5.525   5.122   7.300  0.3604 -0.3520  1.2706
  616MOL0     H83157   5.629   4.996   7.249  1.2651 -0.7631  0.9000
  616MOL0     H83158   5.927   5.247   7.429  0.1742  0.3428 -0.0079
  616MOL0     H83159   5.015   4.741   7.560  1.1084 -0.2804 -0.1578
  616MOL0     H83160   4.862   4.867   7.729 -0.7074  1.2023  0.3238
  617MOL0     O83161   1.843  11.251   6.081  0.8527 -0.1505  0.0239
  617MOL0     C83162   1.899  11.327   6.001 -0.2367  0.0452  0.1291
  617MOL0     O83163   1.837  11.429   5.931 -0.6666  0.0887 -0.4372
  617MOL0     C83164   1.695  11.439   5.947 -1.2357 -0.5151  0.2235
  617MOL0     C83165   1.651  11.567   5.927  0.9931 -0.3332  0.8140
  617MOL0     C83166   1.519  11.593   5.934 -0.0092 -0.0060  0.2689
  617MOL0     C83167   1.424  11.497   5.954  0.0870  0.9128 -0.2325
  617MOL0     O83168   1.295  11.533   5.942  0.2637 -0.5444  0.6736
  617MOL0     C83169   1.197  11.433   5.933  0.9452  0.1844 -0.1789
  617MOL0     C83170   1.060  11.494   5.950  0.3092 -1.0517 -0.7911
  617MOL0     C83171   0.947  11.388   5.964 -0.7628 -0.9283 -0.3199
  617MOL0     C83172   0.937  11.277   5.858  0.2748  0.1551 -0.3359
  617MOL0     C83173   0.927  11.327   5.716  0.8019  0.1623  0.0872
  617MOL0     C83174   0.914  11.214   5.607  0.5122 -0.2803 -0.9549
  617MOL0     C83175   1.019  11.118   5.614 -0.5215  0.8070 -0.4765
  617MOL0     C83176   1.166  11.167   5.599  0.5648  0.1752  0.4631
  617MOL0     N83177   1.256  11.085   5.672 -0.3110  0.1087 -0.1417
  617MOL0     C83178   1.261  10.949   5.681  0.4068 -0.2523 -0.3470
  617MOL0     C83179   1.343  10.914   5.776  0.0964 -0.3665 -0.6544
  617MOL0     C83180   1.371  10.774   5.818  0.2173  0.0332  0.4744
  617MOL0     C83181   1.467  10.783   5.937 -0.3869  0.3804  0.7931
  617MOL0     C83182   1.463  10.649   6.014  0.6846 -0.4960 -1.0120
  617MOL0     C83183   1.538  10.545   5.947  0.1827  0.7244 -0.0491
  617MOL0     O83184   1.523  10.438   6.037 -0.4638  0.5820  0.0601
  617MOL0     C83185   1.583  10.316   6.006  0.0029  0.4107  0.4783
  617MOL0     C83186   1.559  10.202   6.091 -0.4663  0.0090 -0.3225
  617MOL0     C83187   1.627  10.078   6.074 -0.2733 -0.1300  0.3012
  617MOL0     C83188   1.593   9.968   6.172  0.2576  0.0113 -0.4268
  617MOL0     C83189   1.722  10.065   5.965  0.6352  0.8999  0.4915
  617MOL0     C83190   1.810   9.951   5.929 -0.2756  0.1546  0.7536
  617MOL0     O83191   1.910   9.968   5.831 -0.2930 -0.0714  0.5548
  617MOL0     C83192   2.000   9.869   5.808  0.5612  0.5115 -1.0944
  617MOL0     C83193   2.053   9.780   5.909 -0.2241 -0.5792  0.0404
  617MOL0     C83194   2.148   9.690   5.870  0.0488 -0.1464  0.7876
  617MOL0     C83195   2.193   9.679   5.735  0.5698 -0.1423 -0.4427
  617MOL0     O83196   2.294   9.599   5.694  1.8095 -0.7645  0.0612
  617MOL0     C83197   2.379   9.540   5.795 -0.3644  0.4007 -0.0032
  617MOL0     C83198   2.488   9.639   5.860  0.0979  0.0727  0.5807
  617MOL0     C83199   2.598   9.545   5.905 -0.8157 -0.6508  0.0754
  617MOL0     C83200   2.705   9.618   5.987 -0.2997  0.0623 -0.3970
  617MOL0     C83201   2.814   9.519   6.038  0.5881 -0.4888  0.1990
  617MOL0     C83202   2.915   9.496   5.922 -0.6663  0.4124  0.4487
  617MOL0     C83203   3.030   9.398   5.949  0.8398 -0.2024  0.6088
  617MOL0     C83204   3.093   9.361   5.815  0.0029  0.6726  0.2746
  617MOL0    Cl83205   3.222   9.241   5.846  0.1117  0.3737  0.2240
  617MOL0     C83206   2.137   9.766   5.639 -1.1035  0.5135  0.4116
  617MOL0     C83207   2.040   9.857   5.671 -0.4168 -0.0515 -0.2385
  617MOL0     O83208   1.785   9.850   5.991  0.1702 -0.4966 -0.6637
  617MOL0     C83209   1.730  10.175   5.872 -0.3212  0.2771  0.4760
  617MOL0     C83210   1.663  10.297   5.888  0.0991 -0.6059 -0.3162
  617MOL0     N83211   1.385  11.036   5.841 -0.5677 -0.3602  0.0425
  617MOL0     N83212   1.332  11.133   5.773  0.6503  0.1557  0.2840
  617MOL0     C83213   1.470  11.372   5.978  0.0541  0.5767  0.3614
  617MOL0     C83214   1.604  11.333   5.980 -0.0072  0.0471  0.0808
  617MOL0     C83215   2.053  11.302   6.000  0.3691  0.9349  0.3418
  617MOL0     C83216   2.147  11.396   5.952  0.2806  0.1437 -0.0363
  617MOL0     C83217   2.287  11.365   5.957 -0.0739  0.5431  0.0160
  617MOL0     C83218   2.337  11.248   6.000  0.3353 -1.0063  0.5811
  617MOL0     O83219   2.470  11.228   5.969  0.3099 -0.4928 -0.4343
  617MOL0     C83220   2.527  11.102   6.008 -0.6085  0.1590  0.7497
  617MOL0     C83221   2.688  11.101   5.984  0.3844 -0.3998  0.3155
  617MOL0     C83222   2.758  11.211   6.065 -0.1896 -0.0698 -0.8760
  617MOL0     C83223   2.903  11.233   6.023 -0.3084  0.3319  0.3743
  617MOL0     C83224   2.908  11.291   5.893  0.7175 -0.9734  0.0540
  617MOL0     C83225   2.923  11.354   5.789 -1.2759 -0.2291 -1.0622
  617MOL0     C83226   2.251  11.158   6.061  0.3632 -0.5240  0.0813
  617MOL0     C83227   2.105  11.182   6.050 -0.4365  1.1050 -0.0420
  617MOL0     H83228   1.719  11.647   5.901  2.1289 -1.1547  1.2041
  617MOL0     H83229   1.486  11.692   5.906  0.0491 -0.6387 -2.2546
  617MOL0     H83230   1.203  11.391   5.832 -1.6992  3.2853 -1.7865
  617MOL0     H83231   1.202  11.354   6.009  1.3428  0.7880  0.4253
  617MOL0     H83232   1.048  11.573   6.025 -0.3886 -0.0541 -1.9053
  617MOL0     H83233   1.050  11.553   5.858  0.4062 -0.7859 -0.6337
  617MOL0     H83234   0.969  11.343   6.061 -3.1329  2.2579  1.9179
  617MOL0     H83235   0.846  11.429   5.976 -0.8458 -1.1992 -0.0768
  617MOL0     H83236   1.028  11.219   5.877 -2.2065 -3.3776  1.7505
  617MOL0     H83237   0.842  11.228   5.880  0.2466  0.3603  0.0058
  617MOL0     H83238   0.834  11.384   5.710  2.3623  3.1239  1.4788
  617MOL0     H83239   1.008  11.399   5.695  0.5705 -0.1123 -1.8857
  617MOL0     H83240   0.818  11.164   5.619  1.4776 -2.2084 -0.9514
  617MOL0     H83241   0.909  11.264   5.510 -2.4985  0.7216 -0.4144
  617MOL0     H83242   1.003  11.075   5.713  1.5108 -1.7355 -1.1185
  617MOL0     H83243   1.002  11.036   5.542 -0.4421  0.4989 -0.1462
  617MOL0     H83244   1.167  11.269   5.638 -1.4406  0.0253  1.0271
  617MOL0     H83245   1.179  11.182   5.491 -3.8295  0.1980 -0.2518
  617MOL0     H83246   1.191  10.884   5.630 -2.8576  0.6515  2.6151
  617MOL0     H83247   1.275  10.733   5.848 -0.4379  0.8948 -0.3928
  617MOL0     H83248   1.417  10.705   5.747  1.3613  1.2486 -0.0118
  617MOL0     H83249   1.448  10.864   6.009 -0.5998  2.9293 -1.9207
  617MOL0     H83250   1.567  10.797   5.895 -0.2674  1.0042  1.2733
  617MOL0     H83251   1.362  10.618   6.042  1.5716 -3.6795 -0.9488
  617MOL0     H83252   1.514  10.672   6.108 -0.2709 -0.2672 -0.5390
  617MOL0     H83253   1.644  10.573   5.942  0.9317 -1.9994 -1.0882
  617MOL0     H83254   1.503  10.520   5.846 -1.7631  0.6291  0.6014
  617MOL0     H83255   1.495  10.203   6.178  1.9882 -0.3173  1.5954
  617MOL0     H83256   1.681   9.909   6.197 -0.8112 -2.6816 -2.5531
  617MOL0     H83257   1.559  10.017   6.264 -3.0633  2.8236 -2.8671
  617MOL0     H83258   1.516   9.897   6.140  1.3945 -1.6295  0.3624
  617MOL0     H83259   2.021   9.796   6.011 -1.7342  0.0665 -0.5114
  617MOL0     H83260   2.177   9.623   5.951  0.6722  0.2107  0.8639
  617MOL0     H83261   2.325   9.487   5.873  0.7083  2.1363  2.0269
  617MOL0     H83262   2.423   9.454   5.744  0.4750  0.6915  0.2133
  617MOL0     H83263   2.524   9.712   5.786  4.0470  0.0356  2.2429
  617MOL0     H83264   2.444   9.692   5.945  1.1358  0.3837  0.9391
  617MOL0     H83265   2.632   9.497   5.813 -4.1025  1.1846 -2.3299
  617MOL0     H83266   2.550   9.467   5.964 -0.0950 -2.7633 -1.9886
  617MOL0     H83267   2.757   9.693   5.927  1.3944  0.1986  1.1536
  617MOL0     H83268   2.640   9.667   6.061 -1.6917 -1.6912 -0.3854
  617MOL0     H83269   2.762   9.428   6.069 -3.1496  1.1221 -0.7387
  617MOL0     H83270   2.863   9.574   6.120 -0.2755 -1.2413  1.2441
  617MOL0     H83271   2.852   9.454   5.843 -1.7737 -0.0204  1.5231
  617MOL0     H83272   2.958   9.588   5.882  0.6532  0.3300  1.5947
  617MOL0     H83273   3.008   9.312   6.012 -0.9127 -0.0988  0.2026
  617MOL0     H83274   3.091   9.468   6.007 -2.3827  1.8933  1.7590
  617MOL0     H83275   3.140   9.449   5.771  1.5578  0.0882  0.7055
  617MOL0     H83276   3.027   9.316   5.741 -1.2032 -0.3477  1.8963
  617MOL0     H83277   2.179   9.768   5.538 -3.0385  2.1167 -0.4235
  617MOL0     H83278   1.993   9.923   5.599  3.1793  1.9784 -0.9942
  617MOL0     H83279   1.798  10.169   5.787  0.3722 -3.1493  1.1402
  617MOL0     H83280   1.673  10.370   5.809 -4.3588 -1.5038 -1.9490
  617MOL0     H83281   1.401  11.289   5.991 -1.9755  2.2841  1.1462
  617MOL0     H83282   1.637  11.231   5.995  0.9846  0.6076  2.1638
  617MOL0     H83283   2.108  11.484   5.902 -0.7883 -1.3257 -1.9453
  617MOL0     H83284   2.368  11.419   5.909  2.5550 -2.1488  1.0696
  617MOL0     H83285   2.514  11.078   6.114  0.3871  0.6618  0.9972
  617MOL0     H83286   2.478  11.027   5.944  0.6627  0.4217 -0.5659
  617MOL0     H83287   2.709  11.108   5.877 -1.2174  2.5313  0.0620
  617MOL0     H83288   2.732  11.011   6.026  0.1144 -0.1305  1.1965
  617MOL0     H83289   2.756  11.190   6.172 -0.6299 -0.3799 -0.9444
  617MOL0     H83290   2.695  11.300   6.053  1.4745  1.0810 -1.4866
  617MOL0     H83291   2.957  11.138   6.024 -1.0042 -0.0744  0.3668
  617MOL0     H83292   2.955  11.299   6.093 -1.0499  0.9625  0.3439
  617MOL0     H83293   2.918  11.422   5.706 -0.2946  1.8293  0.4494
  617MOL0     H83294   2.281  11.062   6.103 -0.5864 -1.8013 -1.9728
  617MOL0     H83295   2.043  11.104   6.094  0.7199  0.2248  0.0640
  618MOL0     O83296   4.338  10.707   2.662  0.4761  0.5414  0.0155
  618MOL0     C83297   4.370  10.644   2.561  0.8802 -0.3444  0.9978
  618MOL0     O83298   4.285  10.578   2.475  1.2024  0.3345 -0.5171
  618MOL0     C83299   4.159  10.546   2.522  0.1304  0.9012 -0.7692
  618MOL0     C83300   4.053  10.617   2.460  0.4662  0.4471  0.0964
  618MOL0     C83301   3.918  10.601   2.494  0.3230  0.3863 -0.1276
  618MOL0     C83302   3.889  10.503   2.593 -0.0652  0.4313  0.1874
  618MOL0     O83303   3.763  10.454   2.625 -0.5532 -0.1694 -0.7724
  618MOL0     C83304   3.652  10.510   2.557 -0.1449 -0.2716  0.3935
  618MOL0     C83305   3.525  10.442   2.607  0.3710  0.2951  0.5201
  618MOL0     C83306   3.396  10.524   2.586 -0.0979 -0.2011 -0.6433
  618MOL0     C83307   3.281  10.453   2.660  1.1394  0.7018 -0.4856
  618MOL0     C83308   3.152  10.531   2.621  0.1817 -0.4273  0.4603
  618MOL0     C83309   3.028  10.456   2.672  0.4342 -0.2700  0.3286
  618MOL0     C83310   2.890  10.515   2.627  0.5569 -0.2983  0.4604
  618MOL0     C83311   2.862  10.653   2.692 -1.0243 -0.8885  0.2485
  618MOL0     N83312   2.727  10.702   2.651 -0.1030 -0.0430  0.4052
  618MOL0     C83313   2.607  10.662   2.713  0.1401  0.2416 -0.6360
  618MOL0     C83314   2.510  10.727   2.639  0.4616  0.1481 -0.2695
  618MOL0     C83315   2.359  10.722   2.672  0.5808  0.2479 -0.4553
  618MOL0     C83316   2.275  10.673   2.558 -0.0667  0.0690 -0.8536
  618MOL0     C83317   2.133  10.624   2.600  0.2530 -0.2526 -0.6905
  618MOL0     C83318   2.046  10.738   2.666  1.0966 -0.7543 -0.3544
  618MOL0     O83319   1.903  10.702   2.690  0.1735 -0.1974 -0.5315
  618MOL0     C83320   1.820  10.693   2.581  0.5801 -0.1579  0.2070
  618MOL0     C83321   1.845  10.743   2.455  0.0359  0.1026  0.5089
  618MOL0     C83322   1.745  10.730   2.350  1.0480 -0.5353 -0.1600
  618MOL0     C83323   1.778  10.801   2.217  0.2034 -0.2680 -0.2899
  618MOL0     C83324   1.619  10.671   2.381 -0.4603  0.3045 -0.6099
  618MOL0     C83325   1.503  10.643   2.280  0.4846 -0.3891 -0.3114
  618MOL0     O83326   1.386  10.586   2.332 -0.5248 -0.6046 -0.7692
  618MOL0     C83327   1.261  10.595   2.272 -0.2339  0.5671 -0.4015
  618MOL0     C83328   1.229  10.692   2.172  0.2096  0.4729 -0.2861
  618MOL0     C83329   1.101  10.702   2.114  0.6411  0.1533 -0.5798
  618MOL0     C83330   0.998  10.615   2.162 -0.6680  0.6157  0.2909
  618MOL0     O83331   0.888  10.588   2.083 -0.1835  0.7724 -0.2219
  618MOL0     C83332   0.884  10.456   2.015 -0.4521  0.4596 -0.4974
  618MOL0     C83333   0.893  10.477   1.868  0.2114 -0.1960 -0.2141
  618MOL0     C83334   0.779  10.557   1.815  0.2338  0.4862 -0.8318
  618MOL0     C83335   0.649  10.476   1.777  0.9327 -0.1992 -0.3070
  618MOL0     C83336   0.543  10.562   1.705 -0.2815 -0.2911 -0.3986
  618MOL0     C83337   0.402  10.505   1.732 -0.7060  0.0301 -0.4424
  618MOL0     C83338   0.288  10.599   1.713  0.5731  0.5147  0.2863
  618MOL0     C83339   0.164  10.532   1.769 -0.2735 -0.3503 -0.0821
  618MOL0    Cl83340   0.124  10.385   1.677 -0.2195 -0.4561  0.6663
  618MOL0     C83341   1.027  10.526   2.268  0.3282 -0.5889 -0.0053
  618MOL0     C83342   1.154  10.520   2.320  0.1487  0.3424 -0.0301
  618MOL0     O83343   1.530  10.648   2.160  0.4666  0.1333  0.1315
  618MOL0     C83344   1.593  10.628   2.514 -0.2408 -1.0127  0.1977
  618MOL0     C83345   1.696  10.627   2.607 -0.3137  0.4091 -0.0783
  618MOL0     N83346   2.566  10.791   2.529 -0.0262  0.0736 -1.1906
  618MOL0     N83347   2.695  10.773   2.541 -0.3997 -0.5049 -0.1483
  618MOL0     C83348   3.995  10.439   2.660  0.9131 -0.3547 -0.4586
  618MOL0     C83349   4.126  10.457   2.626  1.3834  0.9056  0.2809
  618MOL0     C83350   4.514  10.640   2.526  0.0381  0.5375  0.1226
  618MOL0     C83351   4.565  10.617   2.392 -0.0237  0.1321 -1.1110
  618MOL0     C83352   4.697  10.604   2.367  0.2870 -0.5849  0.2747
  618MOL0     C83353   4.794  10.634   2.466  0.2166 -1.0040  0.2490
  618MOL0     O83354   4.931  10.619   2.446  0.7444 -0.0536  0.0572
  618MOL0     C83355   4.982  10.559   2.321  0.1385 -0.2417 -1.3773
  618MOL0     C83356   5.138  10.559   2.303 -0.2984  0.3828 -0.0872
  618MOL0     C83357   5.179  10.512   2.163 -0.1374  0.4088  0.2581
  618MOL0     C83358   5.317  10.549   2.113 -0.6443 -1.3854  0.0543
  618MOL0     C83359   5.325  10.500   1.977  1.0837  0.3287 -0.4905
  618MOL0     C83360   5.353  10.441   1.876  0.4437  1.0713  0.0891
  618MOL0     C83361   4.745  10.666   2.594  0.4112  0.1161  0.0680
  618MOL0     C83362   4.614  10.670   2.628  0.1806  0.1781  0.4682
  618MOL0     H83363   4.084  10.694   2.390 -0.6525  0.5127 -0.3431
  618MOL0     H83364   3.843  10.663   2.445  0.7266  2.4817  1.7697
  618MOL0     H83365   3.648  10.616   2.584  1.0141 -0.1389  0.1028
  618MOL0     H83366   3.663  10.504   2.449 -2.4336  0.2283  0.0977
  618MOL0     H83367   3.517  10.348   2.551  0.8201 -0.2001  1.2557
  618MOL0     H83368   3.530  10.422   2.714 -0.6751  2.4035  1.0032
  618MOL0     H83369   3.404  10.627   2.621  1.9953  0.4969 -2.9557
  618MOL0     H83370   3.385  10.528   2.477  0.1604 -2.1641 -0.7837
  618MOL0     H83371   3.270  10.349   2.627  1.3084 -0.1302  1.8992
  618MOL0     H83372   3.305  10.446   2.766 -1.5116 -3.0540  0.0678
  618MOL0     H83373   3.149  10.624   2.678  0.6364  0.2506 -0.6048
  618MOL0     H83374   3.145  10.549   2.514  1.2234 -5.1155 -0.6417
  618MOL0     H83375   3.035  10.350   2.648  1.5803 -0.2279  0.4413
  618MOL0     H83376   3.024  10.456   2.781  0.0368  1.5592  0.3462
  618MOL0     H83377   2.896  10.524   2.518  0.6614 -0.8662  0.4194
  618MOL0     H83378   2.800  10.460   2.656 -0.1023  1.1096  1.1708
  618MOL0     H83379   2.942  10.719   2.658  0.3981 -1.4659  2.2519
  618MOL0     H83380   2.860  10.648   2.801 -1.1169 -0.1529  0.2843
  618MOL0     H83381   2.601  10.602   2.803 -1.2146 -1.1110 -1.5682
  618MOL0     H83382   2.344  10.649   2.752  0.1804  1.7196  0.8623
  618MOL0     H83383   2.315  10.812   2.715 -2.0414 -1.9725  1.8951
  618MOL0     H83384   2.312  10.575   2.527 -0.4044  0.5606 -3.0051
  618MOL0     H83385   2.280  10.751   2.482  1.8287  2.7292  1.7791
  618MOL0     H83386   2.140  10.545   2.675 -3.0942 -0.6072 -0.6134
  618MOL0     H83387   2.090  10.590   2.506  1.2473  0.9191 -1.6118
  618MOL0     H83388   2.053  10.821   2.596  0.2549 -1.0387 -0.7818
  618MOL0     H83389   2.090  10.766   2.763  1.8076  2.5612 -1.5296
  618MOL0     H83390   1.936  10.793   2.425  0.8674 -1.4592  0.3414
  618MOL0     H83391   1.699  10.831   2.148  0.9835  2.8562  0.0101
  618MOL0     H83392   1.851  10.881   2.231 -0.1867  0.0784 -0.2055
  618MOL0     H83393   1.838  10.731   2.158 -3.8537 -1.6548 -3.2159
  618MOL0     H83394   1.302  10.763   2.134  0.3093  1.0306  0.8896
  618MOL0     H83395   1.093  10.756   2.020 -1.9139 -2.1473 -1.8311
  618MOL0     H83396   0.963  10.385   2.040 -0.0098  0.3571 -2.0801
  618MOL0     H83397   0.790  10.411   2.048  1.1465 -1.4677  1.7273
  618MOL0     H83398   0.991  10.523   1.849 -1.2592  3.3409  0.0288
  618MOL0     H83399   0.891  10.382   1.812  0.0664 -1.5209  1.9217
  618MOL0     H83400   0.810  10.624   1.734  1.0154 -2.1219 -2.8722
  618MOL0     H83401   0.746  10.623   1.895  0.2830 -1.8554  1.2642
  618MOL0     H83402   0.686  10.394   1.715  1.8393 -0.6579  0.8047
  618MOL0     H83403   0.607  10.424   1.863 -1.7211  0.3925 -1.1457
  618MOL0     H83404   0.560  10.565   1.596  2.1097  2.4535 -0.0801
  618MOL0     H83405   0.551  10.664   1.743  1.6213  0.2346 -2.0241
  618MOL0     H83406   0.384  10.423   1.661 -4.1430  0.8001 -0.6714
  618MOL0     H83407   0.385  10.466   1.833 -1.3449 -0.7363 -0.8367
  618MOL0     H83408   0.293  10.622   1.607 -0.6898 -3.5085 -0.8456
  618MOL0     H83409   0.305  10.689   1.773 -0.3402 -1.0493  3.1231
  618MOL0     H83410   0.084  10.606   1.754 -0.7626 -1.1742 -1.6480
  618MOL0     H83411   0.171  10.494   1.872  1.5169 -1.3258 -0.5122
  618MOL0     H83412   0.946  10.462   2.300 -1.8107  0.4571 -2.8654
  618MOL0     H83413   1.165  10.451   2.403  1.0260 -0.0776 -0.4747
  618MOL0     H83414   1.500  10.592   2.557 -2.1620  1.7514 -1.3315
  618MOL0     H83415   1.668  10.592   2.706 -0.3606  1.0251  0.1358
  618MOL0     H83416   3.979  10.359   2.732 -0.9804 -0.2646 -0.7376
  618MOL0     H83417   4.205  10.403   2.678  0.7234 -0.5452 -0.1481
  618MOL0     H83418   4.500  10.590   2.309 -1.1643 -1.8023  0.3332
  618MOL0     H83419   4.723  10.572   2.267 -1.6877  0.3768 -0.6229
  618MOL0     H83420   4.966  10.451   2.322  0.5177 -0.3387 -3.0145
  618MOL0     H83421   4.941  10.596   2.226 -0.5503  0.9094 -0.6578
  618MOL0     H83422   5.187  10.493   2.375  0.5263 -0.6320 -1.5343
  618MOL0     H83423   5.159  10.663   2.329  0.0600 -0.1918  2.0887
  618MOL0     H83424   5.105  10.546   2.090 -1.4047 -0.9358  0.8639
  618MOL0     H83425   5.176  10.402   2.165 -0.7554  0.3929 -0.9116
  618MOL0     H83426   5.395  10.516   2.182 -0.5863 -1.7734 -0.1929
  618MOL0     H83427   5.325  10.656   2.090 -2.1064 -0.8766  1.7067
  618MOL0     H83428   5.351  10.387   1.784 -0.1956  2.5969 -0.8403
  618MOL0     H83429   4.824  10.682   2.667 -0.9696 -3.1523  2.5136
  618MOL0     H83430   4.593  10.680   2.735  1.0511 -1.1568  0.7809
  619MOL0     O83431   1.924   4.565  10.141  0.6855 -0.2066  0.3094
  619MOL0     C83432   1.986   4.662  10.192 -0.0213  0.2758 -0.1041
  619MOL0     O83433   1.931   4.782  10.233 -1.0301  0.2514  0.6133
  619MOL0     C83434   1.800   4.795  10.209  0.6526  0.5128  0.2752
  619MOL0     C83435   1.754   4.827  10.082 -0.4091 -0.2515 -0.1305
  619MOL0     C83436   1.623   4.868  10.063  0.5757  0.3222 -0.4212
  619MOL0     C83437   1.532   4.857  10.168  1.0452 -0.3973 -0.0357
  619MOL0     O83438   1.400   4.888  10.137 -0.8775 -0.8963  0.3965
  619MOL0     C83439   1.305   4.783  10.163  0.5896 -0.1418 -0.2322
  619MOL0     C83440   1.170   4.844  10.125 -0.1436  0.0510  0.0107
  619MOL0     C83441   1.061   4.758  10.186 -0.6474 -0.3425  0.3823
  619MOL0     C83442   0.932   4.827  10.152  0.6325  0.7133 -0.2318
  619MOL0     C83443   0.800   4.767  10.209  0.2059  0.1655 -0.4783
  619MOL0     C83444   0.675   4.862  10.207 -0.1716  0.3924  0.0809
  619MOL0     C83445   0.636   4.905  10.064  0.2229  0.5729  0.3103
  619MOL0     C83446   0.551   5.038  10.084 -0.9618 -0.1820 -0.9467
  619MOL0     N83447   0.440   5.019  10.175  0.1207  0.4057  0.1091
  619MOL0     C83448   0.307   5.020  10.137  0.1774  0.3204 -0.6683
  619MOL0     C83449   0.230   5.046  10.246  0.0741 -0.5858 -0.3070
  619MOL0     C83450   0.076   5.052  10.257  0.0737  0.6444  0.0946
  619MOL0     C83451   0.023   4.920  10.204  0.5059  0.1760  0.0105
  619MOL0     C83452  -0.122   4.899  10.237  0.0455  0.3766  0.1529
  619MOL0     C83453  -0.201   4.791  10.161 -0.0447 -0.1138 -0.3649
  619MOL0     O83454  -0.332   4.803  10.219  0.3154  0.4984  0.3733
  619MOL0     C83455  -0.413   4.692  10.210 -0.4146 -0.8920 -0.2098
  619MOL0     C83456  -0.504   4.662  10.318 -0.2947  0.0632  0.1219
  619MOL0     C83457  -0.595   4.550  10.317 -0.2871 -0.5170  0.6516
  619MOL0     C83458  -0.661   4.515  10.450  1.1471  0.7630 -0.3692
  619MOL0     C83459  -0.613   4.484  10.192  0.6070  0.4529 -0.2419
  619MOL0     C83460  -0.716   4.373  10.161  0.1280  0.0957 -1.4881
  619MOL0     O83461  -0.740   4.348  10.035  0.0953 -0.1801 -0.0807
  619MOL0     C83462  -0.845   4.275   9.995 -0.4552 -0.0361  0.2360
  619MOL0     C83463  -0.959   4.342   9.947  0.5891  0.0554 -0.5637
  619MOL0     C83464  -1.073   4.267   9.910 -0.6675  1.3384 -0.0541
  619MOL0     C83465  -1.065   4.126   9.912  0.4208 -0.2256  0.4577
  619MOL0     O83466  -1.159   4.047   9.860  0.8854  0.2648  0.5495
  619MOL0     C83467  -1.156   4.037   9.711  0.7351 -0.0268 -0.7233
  619MOL0     C83468  -1.276   4.115   9.663 -0.0305  0.0419  0.6339
  619MOL0     C83469  -1.280   4.114   9.511 -0.5485  0.5525 -0.4561
  619MOL0     C83470  -1.403   4.184   9.459  0.1507  0.2106 -0.7510
  619MOL0     C83471  -1.379   4.183   9.311 -0.0327  0.2380  0.2091
  619MOL0     C83472  -1.505   4.215   9.232  0.3745 -1.1133  0.4426
  619MOL0     C83473  -1.482   4.220   9.078  0.3517 -0.8089  0.1675
  619MOL0     C83474  -1.498   4.087   9.002 -0.0410 -0.3403 -0.7108
  619MOL0    Cl83475  -1.400   4.113   8.858  0.0124 -0.2367 -0.1455
  619MOL0     C83476  -0.944   4.067   9.944  0.0301 -0.5858 -0.6476
  619MOL0     C83477  -0.834   4.136   9.986  0.5644 -0.2619 -0.6664
  619MOL0     O83478  -0.768   4.312  10.256 -0.0633 -0.0630  0.4486
  619MOL0     C83479  -0.522   4.519  10.087  0.6725 -0.2602 -0.4528
  619MOL0     C83480  -0.422   4.613  10.096 -0.5433 -0.3588 -0.1726
  619MOL0     N83481   0.319   5.056  10.354  0.1007  0.6955 -0.0928
  619MOL0     N83482   0.443   5.042  10.309 -0.3810 -0.6903 -0.2529
  619MOL0     C83483   1.577   4.824  10.296  0.2189  0.0927  0.1265
  619MOL0     C83484   1.711   4.797  10.320  0.7898 -0.5556  0.3838
  619MOL0     C83485   2.134   4.638  10.212  0.7402  0.3276 -0.0789
  619MOL0     C83486   2.205   4.517  10.177  0.2505  0.0709  0.5420
  619MOL0     C83487   2.339   4.494  10.194  0.2623  0.5832 -0.9752
  619MOL0     C83488   2.423   4.592  10.246 -0.4464 -0.8818  0.7298
  619MOL0     O83489   2.557   4.583  10.279  0.0950  1.0330 -0.4643
  619MOL0     C83490   2.622   4.465  10.224  0.3845  0.2952 -0.6196
  619MOL0     C83491   2.757   4.448  10.299 -0.5606  0.3752 -0.4752
  619MOL0     C83492   2.734   4.374  10.433  0.0300 -0.3780 -0.1016
  619MOL0     C83493   2.859   4.298  10.461 -0.2541 -0.6970  0.6753
  619MOL0     C83494   2.852   4.228  10.588 -0.1084  0.4099  0.4473
  619MOL0     C83495   2.830   4.165  10.690  0.4417  0.2040  0.3668
  619MOL0     C83496   2.355   4.712  10.279 -0.8774  0.6234 -0.4296
  619MOL0     C83497   2.219   4.734  10.266  0.7540 -0.1381 -0.8481
  619MOL0     H83498   1.813   4.825   9.991  0.7116  0.1477  0.5717
  619MOL0     H83499   1.582   4.892   9.966 -1.1949 -2.0782 -0.3407
  619MOL0     H83500   1.312   4.687  10.112 -3.0750 -1.3356  1.2191
  619MOL0     H83501   1.303   4.768  10.271  1.3320  2.3387  0.2072
  619MOL0     H83502   1.163   4.950  10.150 -3.3455  0.6748 -2.8172
  619MOL0     H83503   1.164   4.845  10.016  3.9797  1.5405 -0.3906
  619MOL0     H83504   1.067   4.652  10.159  2.9510  0.0121 -0.7577
  619MOL0     H83505   1.070   4.768  10.294 -1.9509  0.6616  0.4190
  619MOL0     H83506   0.942   4.931  10.184 -0.8755  0.6371  0.6059
  619MOL0     H83507   0.919   4.829  10.043 -1.5910 -0.4420 -0.0396
  619MOL0     H83508   0.774   4.679  10.150 -1.7823  1.0845 -1.0462
  619MOL0     H83509   0.822   4.743  10.313 -2.9622 -1.1877  0.0067
  619MOL0     H83510   0.598   4.801  10.255 -0.6857  0.8000 -0.2026
  619MOL0     H83511   0.699   4.946  10.273 -0.7860 -0.5416  1.5215
  619MOL0     H83512   0.724   4.921  10.000  0.9732  2.0064  1.6286
  619MOL0     H83513   0.571   4.841  10.004 -1.5930  1.8501  0.8026
  619MOL0     H83514   0.521   5.081   9.988 -1.5611  3.0544  0.5184
  619MOL0     H83515   0.621   5.104  10.137  0.1215 -1.6602 -0.4846
  619MOL0     H83516   0.267   5.011  10.037 -1.4955 -0.4802  0.0347
  619MOL0     H83517   0.054   5.063  10.364 -1.0329 -1.7378  0.1808
  619MOL0     H83518   0.028   5.130  10.196 -0.2367 -0.2792 -0.8825
  619MOL0     H83519   0.080   4.836  10.244  1.4584  0.7784 -0.0438
  619MOL0     H83520   0.025   4.924  10.094 -1.9131 -1.6224 -0.1813
  619MOL0     H83521  -0.166   5.000  10.237 -0.2216  0.2941  1.7373
  619MOL0     H83522  -0.131   4.863  10.340 -2.7646 -2.3365 -0.8730
  619MOL0     H83523  -0.155   4.692  10.169  0.1798 -0.0621 -0.9942
  619MOL0     H83524  -0.205   4.823  10.057 -2.3472 -0.1480 -0.3501
  619MOL0     H83525  -0.526   4.727  10.401  3.0856  0.6591  0.6932
  619MOL0     H83526  -0.767   4.491  10.435  1.4235 -1.1351  0.3991
  619MOL0     H83527  -0.613   4.436  10.509  0.0264  2.3118  2.9093
  619MOL0     H83528  -0.661   4.602  10.517 -0.8711  1.5727 -1.3259
  619MOL0     H83529  -0.941   4.446   9.922 -0.7633  0.1609 -1.1758
  619MOL0     H83530  -1.159   4.316   9.866 -1.4993 -0.1175 -0.1062
  619MOL0     H83531  -1.063   4.082   9.674  2.0572 -0.4086  1.8854
  619MOL0     H83532  -1.175   3.935   9.677 -1.1400  0.1445 -0.2494
  619MOL0     H83533  -1.357   4.058   9.710  0.7455 -0.6808  1.1336
  619MOL0     H83534  -1.268   4.216   9.703 -1.3202  0.0688  0.8722
  619MOL0     H83535  -1.263   4.010   9.482  3.3970  0.4804  1.4222
  619MOL0     H83536  -1.185   4.156   9.475 -0.9420  0.1850 -2.0175
  619MOL0     H83537  -1.495   4.136   9.493  0.5738  1.4172  2.4147
  619MOL0     H83538  -1.400   4.291   9.485  1.2233  0.3348 -1.3513
  619MOL0     H83539  -1.351   4.084   9.274  1.6495  1.8584 -3.3444
  619MOL0     H83540  -1.301   4.254   9.283 -0.2788  1.3496  2.2071
  619MOL0     H83541  -1.583   4.138   9.241 -2.3091  0.6602 -3.9377
  619MOL0     H83542  -1.543   4.313   9.263  2.0444 -0.8461  1.7726
  619MOL0     H83543  -1.381   4.258   9.062 -0.3531  2.1320  1.7855
  619MOL0     H83544  -1.546   4.292   9.025  0.1662  0.3594  1.8922
  619MOL0     H83545  -1.601   4.056   8.981 -0.1865  0.9597 -2.0782
  619MOL0     H83546  -1.443   4.012   9.058  1.4888  1.0465 -0.2895
  619MOL0     H83547  -0.937   3.959   9.940 -0.3435 -0.5841 -1.5920
  619MOL0     H83548  -0.745   4.088  10.026 -0.4567 -3.2668 -1.7208
  619MOL0     H83549  -0.521   4.474   9.988  0.4168 -0.3689 -0.4082
  619MOL0     H83550  -0.358   4.614  10.008 -1.9274  1.1083 -1.2127
  619MOL0     H83551   1.510   4.835  10.381 -0.2635  0.3752 -0.2859
  619MOL0     H83552   1.737   4.774  10.423 -2.1252  1.0685  1.6086
  619MOL0     H83553   2.145   4.434  10.142 -0.6020  0.6593  0.5705
  619MOL0     H83554   2.370   4.394  10.165 -1.5158 -1.3850  3.1057
  619MOL0     H83555   2.563   4.374  10.240 -1.0248  1.4337  1.0587
  619MOL0     H83556   2.643   4.483  10.118 -0.5844 -0.2548 -0.9156
  619MOL0     H83557   2.816   4.539  10.311  0.1231 -0.0383 -0.5698
  619MOL0     H83558   2.825   4.389  10.236  0.0876  0.9307 -0.3041
  619MOL0     H83559   2.646   4.309  10.427 -1.8429  1.8508  1.4839
  619MOL0     H83560   2.716   4.446  10.513  2.8603  1.2277 -0.7829
  619MOL0     H83561   2.942   4.365  10.485  2.3782 -3.5870  0.2152
  619MOL0     H83562   2.900   4.231  10.386 -2.5941 -0.4307 -0.9505
  619MOL0     H83563   2.826   4.126  10.790 -1.0994  2.4361  1.2407
  619MOL0     H83564   2.417   4.785  10.329  1.1066 -0.2657 -1.4555
  619MOL0     H83565   2.184   4.832  10.297 -0.0908 -1.0104  1.1010
  620MOL0     O83566   8.453  11.202   0.766  0.1995  0.4954 -0.5107
  620MOL0     C83567   8.483  11.249   0.660  0.3885  0.1544 -0.1589
  620MOL0     O83568   8.408  11.336   0.591  0.2204 -0.5171 -0.3208
  620MOL0     C83569   8.275  11.347   0.622 -0.4143  0.2313 -0.4933
  620MOL0     C83570   8.243  11.442   0.719  0.1039 -0.1697 -0.7971
  620MOL0     C83571   8.106  11.442   0.758  0.1459  0.4409  0.0573
  620MOL0     C83572   8.018  11.349   0.707  0.3301 -0.2405  0.4009
  620MOL0     O83573   7.886  11.376   0.743 -0.1766  0.1832 -0.0610
  620MOL0     C83574   7.795  11.358   0.638  0.2535  0.0386 -0.2983
  620MOL0     C83575   7.683  11.456   0.678  0.1511 -0.1043 -0.3351
  620MOL0     C83576   7.601  11.418   0.795  0.9119 -0.0289 -0.2589
  620MOL0     C83577   7.464  11.475   0.810  0.7235 -0.1731 -0.0820
  620MOL0     C83578   7.385  11.434   0.941  0.7031  0.3171  0.3190
  620MOL0     C83579   7.232  11.410   0.925  0.1013 -0.2459 -0.0968
  620MOL0     C83580   7.154  11.538   0.886 -0.0959  0.0544  0.5258
  620MOL0     C83581   7.013  11.498   0.822 -0.6780  0.1363  0.2578
  620MOL0     N83582   6.916  11.604   0.830  0.9885 -0.2555 -0.0571
  620MOL0     C83583   6.960  11.724   0.791  1.0105 -0.7881  0.3549
  620MOL0     C83584   6.864  11.813   0.845  0.7191  0.1452 -1.0355
  620MOL0     C83585   6.876  11.967   0.833 -0.2316 -0.0339 -0.7020
  620MOL0     C83586   6.799  12.018   0.704 -0.2811  0.4391 -0.1749
  620MOL0     C83587   6.661  11.952   0.687 -0.5528  0.4486 -0.1563
  620MOL0     C83588   6.576  12.020   0.584  0.3517  0.0356 -0.0631
  620MOL0     O83589   6.634  12.139   0.535 -0.1908 -1.0633 -0.3082
  620MOL0     C83590   6.568  12.251   0.486 -0.2102  0.0375  0.8654
  620MOL0     C83591   6.441  12.246   0.429  0.0472 -0.0051 -0.9757
  620MOL0     C83592   6.373  12.363   0.383  0.0181  1.1881  0.2757
  620MOL0     C83593   6.231  12.337   0.349 -0.1794  0.4370 -0.5544
  620MOL0     C83594   6.432  12.489   0.399  0.2980 -0.5156 -0.0700
  620MOL0     C83595   6.362  12.617   0.353  0.8803 -0.7880 -1.2523
  620MOL0     O83596   6.392  12.720   0.439 -0.9244  0.8086  0.4239
  620MOL0     C83597   6.293  12.808   0.453 -0.3431 -0.2621  0.2035
  620MOL0     C83598   6.307  12.943   0.421 -0.5675 -0.2306 -0.1725
  620MOL0     C83599   6.205  13.038   0.436 -0.6226 -0.5288 -0.5404
  620MOL0     C83600   6.076  12.994   0.479  0.7048 -0.3485 -0.9893
  620MOL0     O83601   5.968  13.079   0.482  0.0662 -0.9424  0.2459
  620MOL0     C83602   5.952  13.172   0.373 -0.1549  0.0329  0.4834
  620MOL0     C83603   5.857  13.277   0.433  0.0451 -0.4158 -0.7730
  620MOL0     C83604   5.711  13.248   0.464  0.1052 -0.1726  0.6288
  620MOL0     C83605   5.648  13.370   0.530 -0.1198 -0.4027  0.1663
  620MOL0     C83606   5.502  13.373   0.503  0.7005  0.6676  0.1217
  620MOL0     C83607   5.445  13.480   0.598 -0.8676  0.3045  0.7148
  620MOL0     C83608   5.294  13.483   0.573 -0.1960  0.1578 -0.6599
  620MOL0     C83609   5.231  13.353   0.611 -0.5297 -0.7051  0.2198
  620MOL0    Cl83610   5.064  13.383   0.631  0.0743  0.4615  0.3903
  620MOL0     C83611   6.064  12.867   0.529  0.3485 -0.4026 -0.6120
  620MOL0     C83612   6.174  12.777   0.512  0.6950  0.9698  0.6769
  620MOL0     O83613   6.299  12.627   0.251  0.4312 -0.1980  0.2954
  620MOL0     C83614   6.557  12.497   0.475  0.6279  0.2322  0.2364
  620MOL0     C83615   6.621  12.380   0.509  0.4504 -0.0189  0.1049
  620MOL0     N83616   6.770  11.734   0.924  0.3229 -0.0658  0.9059
  620MOL0     N83617   6.814  11.612   0.919  0.0189 -0.1223  0.3796
  620MOL0     C83618   8.051  11.248   0.622  0.2973 -0.3909  0.2922
  620MOL0     C83619   8.182  11.250   0.569  0.6000 -0.4767 -0.3614
  620MOL0     C83620   8.619  11.219   0.610 -0.2256 -0.7114 -0.2663
  620MOL0     C83621   8.640  11.234   0.477 -0.8585  0.0640  1.5031
  620MOL0     C83622   8.762  11.214   0.420  0.0957 -0.3063  1.0091
  620MOL0     C83623   8.879  11.177   0.489 -0.0705  0.1290  0.1113
  620MOL0     O83624   8.999  11.147   0.430 -0.2305 -0.2392  0.4401
  620MOL0     C83625   9.022  11.190   0.300 -0.3261  0.1497 -0.8724
  620MOL0     C83626   9.039  11.344   0.292 -0.3250  0.3226 -0.1960
  620MOL0     C83627   9.157  11.385   0.208 -0.2162 -0.4271  0.1582
  620MOL0     C83628   9.136  11.329   0.068 -0.8044 -0.1584  1.1732
  620MOL0     C83629   9.243  11.368  -0.020  0.0870  0.6955  0.4101
  620MOL0     C83630   9.344  11.402  -0.089  0.1257 -0.6897  0.3003
  620MOL0     C83631   8.854  11.155   0.630  0.1155 -1.1341  1.2029
  620MOL0     C83632   8.729  11.188   0.686 -0.3272  0.7846 -0.3404
  620MOL0     H83633   8.296  11.531   0.752 -0.5643  0.1701 -0.6287
  620MOL0     H83634   8.063  11.526   0.813 -0.4445 -0.3378  0.8150
  620MOL0     H83635   7.841  11.363   0.539  1.8681  0.4532  0.4408
  620MOL0     H83636   7.758  11.255   0.645 -0.3627  0.3333  1.3006
  620MOL0     H83637   7.726  11.554   0.698  1.1742 -0.3151 -1.3773
  620MOL0     H83638   7.617  11.462   0.591  0.6658 -3.8088 -1.1521
  620MOL0     H83639   7.598  11.309   0.797 -1.0872 -0.0092  1.2722
  620MOL0     H83640   7.659  11.453   0.881  3.2252 -1.9185 -0.9589
  620MOL0     H83641   7.460  11.583   0.799 -1.8796 -0.2119 -0.0089
  620MOL0     H83642   7.398  11.440   0.731 -4.1245  0.4894  3.2483
  620MOL0     H83643   7.430  11.337   0.967 -0.5411 -0.1665  0.7371
  620MOL0     H83644   7.396  11.516   1.012 -3.8112  1.9271 -0.4741
  620MOL0     H83645   7.216  11.337   0.846  1.1280 -1.8937  1.1503
  620MOL0     H83646   7.188  11.368   1.017 -1.7204  2.2850  0.2935
  620MOL0     H83647   7.133  11.598   0.975  0.4481  0.8035  0.1567
  620MOL0     H83648   7.211  11.596   0.814  0.1659 -0.6589  0.1459
  620MOL0     H83649   6.967  11.418   0.881 -0.5172  0.1658  0.4230
  620MOL0     H83650   7.032  11.460   0.721  1.1478  0.3431  0.4826
  620MOL0     H83651   7.052  11.755   0.743  0.5549  1.5787  0.9043
  620MOL0     H83652   6.831  12.008   0.924  0.5505 -0.6596 -0.0190
  620MOL0     H83653   6.979  11.999   0.817 -1.0720  3.1918 -0.3796
  620MOL0     H83654   6.867  12.000   0.620  0.4767 -2.1302  0.9157
  620MOL0     H83655   6.772  12.124   0.713 -0.9489  0.2034  0.7471
  620MOL0     H83656   6.611  11.951   0.784  0.3992 -1.8563  0.3850
  620MOL0     H83657   6.675  11.847   0.657 -3.0294 -0.8007  2.5809
  620MOL0     H83658   6.475  12.031   0.625 -1.6500 -1.0091 -4.1949
  620MOL0     H83659   6.569  11.961   0.493  0.2205 -1.1450  0.6920
  620MOL0     H83660   6.408  12.144   0.414  2.9476 -1.6730  2.2900
  620MOL0     H83661   6.226  12.247   0.288 -0.0347  1.2355 -1.7766
  620MOL0     H83662   6.158  12.327   0.431 -0.0703  0.8189 -0.4046
  620MOL0     H83663   6.187  12.414   0.284 -0.8476  1.7376  1.3222
  620MOL0     H83664   6.407  12.979   0.401 -0.1107 -1.2228  0.2383
  620MOL0     H83665   6.217  13.145   0.425  1.7445 -0.5051  1.3995
  620MOL0     H83666   6.041  13.223   0.334 -1.2067  1.1859 -0.4838
  620MOL0     H83667   5.905  13.129   0.284 -3.1448 -0.6612  2.2862
  620MOL0     H83668   5.904  13.319   0.522 -1.6760  1.0627 -0.4876
  620MOL0     H83669   5.862  13.371   0.377 -0.2587  1.7718  2.6395
  620MOL0     H83670   5.711  13.171   0.542 -0.6143 -1.2769 -0.4158
  620MOL0     H83671   5.659  13.215   0.373  0.7771 -0.3981  0.3156
  620MOL0     H83672   5.661  13.371   0.639 -1.2550  0.0102  0.3094
  620MOL0     H83673   5.683  13.466   0.491 -2.3158  0.2078 -0.4154
  620MOL0     H83674   5.459  13.274   0.516 -1.1457  1.5839  1.3516
  620MOL0     H83675   5.480  13.398   0.399 -1.0270  1.8811  0.7293
  620MOL0     H83676   5.470  13.468   0.704 -2.8706  1.1403  1.3265
  620MOL0     H83677   5.484  13.572   0.553  1.7983 -0.9120  0.3413
  620MOL0     H83678   5.272  13.512   0.470  3.1514  0.0507 -1.5083
  620MOL0     H83679   5.245  13.540   0.653 -0.7137 -1.4222  0.1967
  620MOL0     H83680   5.260  13.330   0.714 -2.7673 -2.0159  0.6310
  620MOL0     H83681   5.242  13.270   0.541 -2.3937  0.7588 -1.9274
  620MOL0     H83682   5.963  12.845   0.564  0.5897 -0.3010  0.1665
  620MOL0     H83683   6.174  12.671   0.535  2.0725 -0.0154 -3.0642
  620MOL0     H83684   6.605  12.594   0.480  0.4649  0.3628 -0.5207
  620MOL0     H83685   6.717  12.397   0.558  0.1092  3.1109 -0.1103
  620MOL0     H83686   7.969  11.178   0.605  2.2758 -2.3965 -1.7197
  620MOL0     H83687   8.212  11.173   0.498 -1.3979 -0.1918 -1.5968
  620MOL0     H83688   8.556  11.261   0.414 -0.7946  2.5037  2.3530
  620MOL0     H83689   8.751  11.229   0.313 -1.9209 -0.5173  1.1580
  620MOL0     H83690   9.121  11.148   0.281  0.7568  2.5542 -0.8987
  620MOL0     H83691   8.957  11.153   0.220 -0.3927  2.2473 -1.8584
  620MOL0     H83692   9.066  11.380   0.392  0.4536 -1.5124  0.3056
  620MOL0     H83693   8.942  11.390   0.270 -0.5428  0.5211  1.1044
  620MOL0     H83694   9.252  11.352   0.251  0.4173 -1.0336 -1.6391
  620MOL0     H83695   9.158  11.493   0.193 -1.9016 -0.5474 -1.0564
  620MOL0     H83696   9.033  11.342   0.034 -0.2925 -0.7636 -0.7678
  620MOL0     H83697   9.153  11.221   0.070  0.5672 -0.1513 -2.3731
  620MOL0     H83698   9.428  11.448  -0.136 -0.5311  1.0065  0.6894
  620MOL0     H83699   8.941  11.125   0.688  3.3332 -0.3694 -2.7375
  620MOL0     H83700   8.711  11.181   0.793  2.1588  1.1035  0.1462
  621MOL0     O83701   5.714   5.839   3.368 -0.0391  0.3739  0.9147
  621MOL0     C83702   5.663   5.871   3.258 -0.2419  0.1092 -0.4904
  621MOL0     O83703   5.535   5.898   3.224 -0.7185  0.0979 -1.0100
  621MOL0     C83704   5.428   5.867   3.299  1.5323 -0.6246  0.2756
  621MOL0     C83705   5.431   5.770   3.405 -0.4847  0.8829 -0.2748
  621MOL0     C83706   5.314   5.749   3.476 -0.0127  0.0724  0.3180
  621MOL0     C83707   5.196   5.814   3.447 -0.5004  1.5614  0.6104
  621MOL0     O83708   5.089   5.761   3.518  0.4330 -0.5714  0.3531
  621MOL0     C83709   4.963   5.794   3.463 -0.4572 -0.0051  0.3547
  621MOL0     C83710   4.860   5.681   3.508 -0.1130 -0.3639 -0.3906
  621MOL0     C83711   4.735   5.693   3.425  0.5020 -0.2505 -0.3042
  621MOL0     C83712   4.643   5.577   3.457  0.4169  0.4034  0.2081
  621MOL0     C83713   4.524   5.580   3.359  0.1146 -0.3709 -0.7912
  621MOL0     C83714   4.405   5.495   3.397 -1.1741  0.8537 -0.9727
  621MOL0     C83715   4.430   5.345   3.369  0.6009 -0.0213  0.7693
  621MOL0     C83716   4.338   5.247   3.431  0.3497 -0.3959 -0.3019
  621MOL0     N83717   4.209   5.255   3.375  0.6826 -0.4253  0.1685
  621MOL0     C83718   4.097   5.323   3.420 -0.4993 -0.1672  0.0929
  621MOL0     C83719   4.007   5.307   3.317 -0.5752 -0.4492  0.5075
  621MOL0     C83720   3.878   5.383   3.294  0.1066  0.4434 -0.7809
  621MOL0     C83721   3.754   5.331   3.364 -0.7214 -0.8087 -0.8158
  621MOL0     C83722   3.722   5.179   3.327  0.2761 -0.6848  0.1191
  621MOL0     C83723   3.573   5.149   3.353  0.7410  0.7652  0.3229
  621MOL0     O83724   3.484   5.237   3.289  0.6729  0.6498  0.5359
  621MOL0     C83725   3.354   5.236   3.326  0.0539 -0.1228 -0.4224
  621MOL0     C83726   3.289   5.129   3.384 -0.1898 -0.1390 -0.8655
  621MOL0     C83727   3.158   5.137   3.439  0.5614  0.5232  0.1998
  621MOL0     C83728   3.113   5.031   3.537  0.1906  0.4016 -0.3927
  621MOL0     C83729   3.091   5.251   3.409  0.4467  0.5400  1.1209
  621MOL0     C83730   2.950   5.277   3.434 -0.6746  0.8739  0.2238
  621MOL0     O83731   2.918   5.411   3.440 -0.8750 -0.0156  0.3720
  621MOL0     C83732   2.790   5.471   3.465 -0.0108  0.4254 -0.1250
  621MOL0     C83733   2.677   5.444   3.395  0.3332 -0.4026 -0.0592
  621MOL0     C83734   2.559   5.512   3.418  0.5873 -0.6643 -0.8042
  621MOL0     C83735   2.553   5.628   3.500 -0.5531 -0.3632  0.6501
  621MOL0     O83736   2.432   5.698   3.496 -0.0129 -0.7553  0.5312
  621MOL0     C83737   2.437   5.840   3.504 -0.7083 -0.1273  0.0499
  621MOL0     C83738   2.297   5.896   3.488  0.1499  1.1775 -0.2226
  621MOL0     C83739   2.310   6.051   3.480 -0.2295  0.7880 -0.6804
  621MOL0     C83740   2.353   6.111   3.620  0.3864 -0.6492 -0.5496
  621MOL0     C83741   2.368   6.270   3.601 -0.4919  1.0750  0.4118
  621MOL0     C83742   2.434   6.350   3.718 -0.6362  0.5976  0.7705
  621MOL0     C83743   2.351   6.353   3.844  0.5500  0.2542 -0.0527
  621MOL0     C83744   2.374   6.485   3.929  0.3235  0.2913  0.6388
  621MOL0    Cl83745   2.514   6.466   4.048  0.2606 -0.0458 -0.2430
  621MOL0     C83746   2.669   5.667   3.563 -1.8159  0.5534 -0.2987
  621MOL0     C83747   2.784   5.583   3.548 -0.6006 -0.7593 -0.0923
  621MOL0     O83748   2.873   5.179   3.436  0.2526 -0.2243 -0.5340
  621MOL0     C83749   3.160   5.367   3.349 -0.1290 -0.4375 -0.1219
  621MOL0     C83750   3.288   5.358   3.300 -0.3301  0.3705 -0.6894
  621MOL0     N83751   4.058   5.215   3.229  0.3778  0.3838  1.6745
  621MOL0     N83752   4.182   5.193   3.256  0.6468 -0.1688  0.5377
  621MOL0     C83753   5.198   5.920   3.358  0.4881  0.5812  0.6437
  621MOL0     C83754   5.311   5.948   3.286 -0.4335 -0.5292  0.6502
  621MOL0     C83755   5.755   5.863   3.139  0.3767 -0.5425 -0.3766
  621MOL0     C83756   5.893   5.878   3.151  0.0315 -0.1372  0.1651
  621MOL0     C83757   5.979   5.893   3.042 -0.6201 -0.3647 -0.6690
  621MOL0     C83758   5.931   5.884   2.912 -1.4856  0.7820  0.2832
  621MOL0     O83759   6.028   5.894   2.819  0.6387 -0.0141  0.3586
  621MOL0     C83760   5.999   5.885   2.678  0.1215 -0.4125 -0.0771
  621MOL0     C83761   5.912   6.002   2.609  0.1598  0.7048  0.0094
  621MOL0     C83762   5.878   5.974   2.463  0.2885 -0.4414 -0.4280
  621MOL0     C83763   5.784   6.068   2.391 -0.2616 -0.0872 -0.1111
  621MOL0     C83764   5.831   6.207   2.366 -0.0210  1.0977 -0.0569
  621MOL0     C83765   5.891   6.310   2.363  1.6069 -0.1275 -0.5940
  621MOL0     C83766   5.791   5.866   2.898 -0.3649  0.0454 -0.8202
  621MOL0     C83767   5.705   5.852   3.010 -0.2199  0.4931  0.3451
  621MOL0     H83768   5.517   5.706   3.421  0.0905  1.0838 -2.2724
  621MOL0     H83769   5.317   5.673   3.553  1.4213 -0.1413  0.0922
  621MOL0     H83770   4.930   5.892   3.500 -0.5043 -0.5108  1.7072
  621MOL0     H83771   4.963   5.791   3.354  1.7546 -0.1405  0.3051
  621MOL0     H83772   4.912   5.587   3.486  1.6732  0.8513 -1.5347
  621MOL0     H83773   4.843   5.680   3.616  1.7453 -0.7011 -0.0594
  621MOL0     H83774   4.694   5.790   3.451  1.4917  0.1787 -0.2946
  621MOL0     H83775   4.758   5.694   3.318 -1.6101  2.7594 -0.8272
  621MOL0     H83776   4.697   5.485   3.435  0.4611  0.8453 -1.7306
  621MOL0     H83777   4.617   5.573   3.563  0.4949 -2.3053  0.1844
  621MOL0     H83778   4.486   5.683   3.359  0.1273 -0.3349  0.9877
  621MOL0     H83779   4.552   5.551   3.257  0.6024  0.3270 -0.8634
  621MOL0     H83780   4.407   5.501   3.507 -2.3280  3.0944 -1.0217
  621MOL0     H83781   4.313   5.538   3.357 -2.0315  2.9483  2.7038
  621MOL0     H83782   4.435   5.333   3.261  1.1210  2.3406  0.4637
  621MOL0     H83783   4.531   5.320   3.401  0.9616  3.3977  2.9075
  621MOL0     H83784   4.329   5.274   3.537  0.5475  0.6751 -0.5435
  621MOL0     H83785   4.378   5.145   3.425  0.8289 -0.2633  0.4431
  621MOL0     H83786   4.082   5.378   3.512 -0.0226 -0.5939  0.4335
  621MOL0     H83787   3.889   5.490   3.315  2.4878  0.6710 -2.7361
  621MOL0     H83788   3.855   5.378   3.187 -2.4218  0.8347 -0.3148
  621MOL0     H83789   3.667   5.390   3.333  1.0987  2.2866 -0.4531
  621MOL0     H83790   3.773   5.338   3.472 -3.0695  0.4428 -0.4116
  621MOL0     H83791   3.780   5.123   3.401  2.7151 -0.7544 -1.6942
  621MOL0     H83792   3.760   5.149   3.229  0.1905  2.8944 -1.1213
  621MOL0     H83793   3.565   5.160   3.461 -0.4857  1.7606  0.1550
  621MOL0     H83794   3.545   5.048   3.319 -5.4365  2.1001  0.2426
  621MOL0     H83795   3.349   5.039   3.385  1.7617  1.0940 -1.3748
  621MOL0     H83796   3.049   5.070   3.617 -1.1562 -0.4460 -1.0257
  621MOL0     H83797   3.056   4.950   3.490  3.1634 -1.7468 -0.5963
  621MOL0     H83798   3.200   4.975   3.572 -0.6861 -1.4063 -0.9689
  621MOL0     H83799   2.674   5.359   3.328 -1.3883 -0.0638 -0.4554
  621MOL0     H83800   2.463   5.501   3.369 -0.2339  0.4549  0.4936
  621MOL0     H83801   2.476   5.874   3.600 -1.1393 -1.9687  0.9193
  621MOL0     H83802   2.508   5.875   3.428  1.0134 -1.0938  1.1580
  621MOL0     H83803   2.253   5.858   3.395 -0.7846  0.8444  0.3385
  621MOL0     H83804   2.235   5.873   3.575 -3.2620  1.0752 -2.4714
  621MOL0     H83805   2.211   6.090   3.454 -0.6999  0.4342  0.4950
  621MOL0     H83806   2.373   6.080   3.396  1.5005 -0.7119  0.0372
  621MOL0     H83807   2.276   6.092   3.695  3.1953  0.4517  2.8469
  621MOL0     H83808   2.444   6.073   3.666  0.9033  0.0721 -0.9556
  621MOL0     H83809   2.272   6.309   3.565 -0.6873 -0.7670 -1.2326
  621MOL0     H83810   2.430   6.279   3.511 -1.2548 -0.4822 -0.3247
  621MOL0     H83811   2.527   6.299   3.745 -0.0446  1.1859 -0.1154
  621MOL0     H83812   2.458   6.450   3.681  0.1388 -0.0101 -0.4292
  621MOL0     H83813   2.361   6.258   3.896 -0.1195  1.3724  2.2902
  621MOL0     H83814   2.244   6.358   3.819 -0.1462  0.0224  2.5713
  621MOL0     H83815   2.290   6.518   3.992  0.0685 -0.1700  0.5455
  621MOL0     H83816   2.393   6.571   3.864 -1.5305  1.3113  1.3770
  621MOL0     H83817   2.678   5.761   3.616 -1.1541  1.2771 -1.6279
  621MOL0     H83818   2.874   5.602   3.604 -1.3172  1.2750  0.4447
  621MOL0     H83819   3.111   5.461   3.325 -2.2220 -1.3271  0.4689
  621MOL0     H83820   3.345   5.440   3.259  1.3600  0.9698  2.4740
  621MOL0     H83821   5.103   5.970   3.340  0.4625  0.3518  0.1130
  621MOL0     H83822   5.314   6.034   3.220 -0.5767 -1.0544 -0.0433
  621MOL0     H83823   5.942   5.878   3.248 -0.4878 -2.5133  0.5086
  621MOL0     H83824   6.084   5.906   3.065 -0.7990  0.5729 -0.3496
  621MOL0     H83825   6.088   5.853   2.623  0.9722  0.5536  0.6856
  621MOL0     H83826   5.931   5.801   2.662 -1.9112  1.5744 -2.7005
  621MOL0     H83827   5.969   6.095   2.617 -2.2476  2.4348 -1.4101
  621MOL0     H83828   5.817   6.019   2.662  0.1023 -1.6290  0.7967
  621MOL0     H83829   5.836   5.873   2.459  2.2194 -1.2556 -1.4813
  621MOL0     H83830   5.973   5.981   2.408  0.7118  4.6068  0.4889
  621MOL0     H83831   5.688   6.067   2.443  0.0330  3.3170  0.7237
  621MOL0     H83832   5.767   6.025   2.292 -0.6324  2.2504 -1.1117
  621MOL0     H83833   5.945   6.402   2.368  0.2183  0.7925 -1.6997
  621MOL0     H83834   5.741   5.863   2.802 -1.5939 -0.1546 -0.1961
  621MOL0     H83835   5.597   5.848   2.998 -0.1916 -0.2443  0.3116
  622MOL0     O83836   1.132  10.180   3.637  0.1393 -0.4475 -0.3011
  622MOL0     C83837   1.248  10.217   3.601  0.6470  1.1033 -0.0173
  622MOL0     O83838   1.276  10.311   3.510 -0.9585  0.3384  0.1369
  622MOL0     C83839   1.183  10.388   3.454  0.4656  0.1018  0.7488
  622MOL0     C83840   1.057  10.427   3.505  0.0153 -0.4073  0.0903
  622MOL0     C83841   0.973  10.516   3.435  1.4987 -0.0884  0.0313
  622MOL0     C83842   1.011  10.581   3.315 -0.1859  0.0963  0.1731
  622MOL0     O83843   0.932  10.667   3.248  0.1260 -0.0794 -0.2587
  622MOL0     C83844   0.993  10.758   3.155  0.4236  0.7484  0.3956
  622MOL0     C83845   0.888  10.853   3.102  0.2277  0.0902 -0.2207
  622MOL0     C83846   0.839  10.949   3.209 -0.4805 -0.6374 -0.3936
  622MOL0     C83847   0.716  11.038   3.175  0.5525  0.3430  0.5149
  622MOL0     C83848   0.755  11.150   3.084  0.6308  0.4320 -0.1551
  622MOL0     C83849   0.626  11.234   3.039 -0.4268  0.3924  0.3352
  622MOL0     C83850   0.548  11.176   2.927  0.0964  0.1860 -0.8163
  622MOL0     C83851   0.611  11.204   2.793 -0.3949 -0.3066 -0.3140
  622MOL0     N83852   0.557  11.121   2.691 -0.0930  0.8506  0.3588
  622MOL0     C83853   0.552  10.986   2.707  0.1316 -0.3176 -0.3771
  622MOL0     C83854   0.466  10.938   2.612 -0.0658 -0.5765 -0.3719
  622MOL0     C83855   0.405  10.810   2.620  0.3851 -0.1805 -0.7609
  622MOL0     C83856   0.268  10.806   2.680  0.2163 -0.4873  0.8380
  622MOL0     C83857   0.195  10.679   2.638  0.5709 -0.3883  0.1886
  622MOL0     C83858   0.052  10.691   2.687  0.8620 -0.2508 -0.6715
  622MOL0     O83859  -0.018  10.793   2.623 -0.0449 -0.0449  0.1759
  622MOL0     C83860  -0.155  10.789   2.637 -0.0659  0.3267  0.7759
  622MOL0     C83861  -0.216  10.902   2.584 -1.0736  0.0813  0.8911
  622MOL0     C83862  -0.360  10.935   2.586 -0.2276  0.3478  0.1117
  622MOL0     C83863  -0.396  11.058   2.504  0.1548 -0.3751 -0.2058
  622MOL0     C83864  -0.446  10.838   2.646 -0.4755  0.0722 -0.7613
  622MOL0     C83865  -0.602  10.857   2.652  0.0164  0.8405  0.6785
  622MOL0     O83866  -0.677  10.737   2.641  0.0763  0.0373 -0.2068
  622MOL0     C83867  -0.776  10.714   2.737  0.4400 -0.1704  1.3965
  622MOL0     C83868  -0.906  10.689   2.692 -0.1518  0.0777 -0.5875
  622MOL0     C83869  -1.008  10.676   2.793  0.2697 -0.1625  0.6100
  622MOL0     C83870  -0.978  10.674   2.931  0.5872 -0.0162 -1.3694
  622MOL0     O83871  -1.064  10.645   3.040 -0.8295 -0.1744  0.1779
  622MOL0     C83872  -1.198  10.688   3.030 -0.3968  0.1170 -0.2176
  622MOL0     C83873  -1.225  10.812   3.125  0.1229 -0.8872  0.0478
  622MOL0     C83874  -1.164  10.950   3.094 -0.3582  0.0739 -0.7073
  622MOL0     C83875  -1.164  10.996   2.949 -0.3851  0.1864  0.0555
  622MOL0     C83876  -1.312  11.027   2.900  0.5065  0.4719  0.0789
  622MOL0     C83877  -1.308  11.096   2.765  0.1733  0.0784  0.1901
  622MOL0     C83878  -1.441  11.087   2.695  0.3563  0.4431 -0.1148
  622MOL0     C83879  -1.562  11.153   2.769  0.7139  0.6095 -0.1283
  622MOL0    Cl83880  -1.626  11.047   2.895 -0.1424  0.1977 -0.0619
  622MOL0     C83881  -0.851  10.701   2.969 -0.1137  0.4270  0.0846
  622MOL0     C83882  -0.747  10.721   2.875 -0.0566  0.6709  0.0695
  622MOL0     O83883  -0.640  10.961   2.672 -0.4944 -0.0217  0.1857
  622MOL0     C83884  -0.385  10.715   2.689 -0.7491  0.9871 -0.6232
  622MOL0     C83885  -0.243  10.693   2.687 -0.0862 -0.1735  0.7843
  622MOL0     N83886   0.428  11.044   2.528  0.4339 -0.3905  0.3455
  622MOL0     N83887   0.494  11.155   2.575  0.9080 -0.2858 -0.6339
  622MOL0     C83888   1.137  10.542   3.268 -0.8137 -0.1254  0.2626
  622MOL0     C83889   1.223  10.451   3.337  0.0623 -0.1465 -0.0308
  622MOL0     C83890   1.364  10.123   3.627 -0.5727 -0.0092 -1.5968
  622MOL0     C83891   1.494  10.151   3.574 -0.0114 -0.4914 -0.6403
  622MOL0     C83892   1.609  10.088   3.617  0.5557 -0.0500 -0.0211
  622MOL0     C83893   1.601   9.982   3.712 -1.2505  0.1947  0.9595
  622MOL0     O83894   1.719   9.911   3.728 -0.0394 -0.0838 -0.5795
  622MOL0     C83895   1.708   9.780   3.800 -0.8147  0.6371 -0.6098
  622MOL0     C83896   1.837   9.693   3.798  0.5738 -0.0106 -1.5388
  622MOL0     C83897   1.884   9.669   3.652 -0.1363 -0.1633 -0.6424
  622MOL0     C83898   2.014   9.565   3.638  0.4562 -0.4217 -1.2395
  622MOL0     C83899   1.984   9.433   3.695 -0.5281  0.4877  0.7027
  622MOL0     C83900   1.960   9.318   3.710  0.7334  0.4853  0.0308
  622MOL0     C83901   1.477   9.945   3.754 -0.0987  0.1771 -0.1154
  622MOL0     C83902   1.357  10.015   3.720 -0.8634  0.4342  0.1391
  622MOL0     H83903   1.038  10.399   3.608  1.8504  0.4630  0.7000
  622MOL0     H83904   0.885  10.560   3.480  0.9500 -0.7724 -0.3444
  622MOL0     H83905   1.073  10.818   3.200  3.3344 -2.6241  0.1501
  622MOL0     H83906   1.029  10.700   3.070 -2.1513 -3.0388  1.6087
  622MOL0     H83907   0.931  10.909   3.019 -0.9916 -0.2873 -1.1286
  622MOL0     H83908   0.799  10.794   3.078 -1.6384  1.0145  3.5473
  622MOL0     H83909   0.806  10.896   3.299  0.2712  1.0822  0.9505
  622MOL0     H83910   0.915  11.022   3.238 -0.7621  1.6661 -4.7096
  622MOL0     H83911   0.648  10.973   3.119 -0.4869  1.1262  0.8405
  622MOL0     H83912   0.672  11.066   3.271 -1.7277 -1.1048 -0.0243
  622MOL0     H83913   0.822  11.218   3.137  1.0399  0.7196 -1.0248
  622MOL0     H83914   0.807  11.116   2.994  1.1767 -0.9866  0.6657
  622MOL0     H83915   0.549  11.236   3.116 -0.8912 -1.1595 -0.0673
  622MOL0     H83916   0.643  11.337   3.005  0.7641  0.1837  0.2617
  622MOL0     H83917   0.539  11.068   2.946 -1.6082  0.2056 -1.3625
  622MOL0     H83918   0.443  11.205   2.927  0.2593  0.9182 -2.7852
  622MOL0     H83919   0.719  11.187   2.798 -0.5302 -1.2128 -0.3637
  622MOL0     H83920   0.605  11.310   2.765  0.3871 -0.1053  0.2358
  622MOL0     H83921   0.598  10.918   2.777  1.0853 -2.0981 -2.6186
  622MOL0     H83922   0.412  10.771   2.518  0.2960  0.8886 -1.1808
  622MOL0     H83923   0.464  10.737   2.677  1.9839 -1.6709 -4.0417
  622MOL0     H83924   0.216  10.890   2.632  0.1373 -0.7559  0.4437
  622MOL0     H83925   0.282  10.800   2.788  0.3662  1.3216  0.9491
  622MOL0     H83926   0.238  10.590   2.684 -0.6146 -0.4930  1.1458
  622MOL0     H83927   0.190  10.667   2.529 -1.2783  1.9216 -0.0628
  622MOL0     H83928   0.034  10.704   2.794 -3.2764  0.7238 -1.3274
  622MOL0     H83929   0.010  10.591   2.668  1.9604 -0.8347 -0.1511
  622MOL0     H83930  -0.145  10.966   2.531 -0.9368 -0.6322  0.1859
  622MOL0     H83931  -0.426  11.050   2.399 -0.2296  1.0525 -0.2162
  622MOL0     H83932  -0.478  11.105   2.559  1.0438  1.2857 -0.2454
  622MOL0     H83933  -0.313  11.129   2.517  1.8727 -2.3818  0.3937
  622MOL0     H83934  -0.939  10.712   2.591 -3.6065  2.0275  0.7858
  622MOL0     H83935  -1.109  10.663   2.757  1.0789 -0.4361 -1.7752
  622MOL0     H83936  -1.229  10.715   2.929  0.5175  1.8909 -0.0647
  622MOL0     H83937  -1.251  10.598   3.060  1.6157 -0.1963  2.9615
  622MOL0     H83938  -1.332  10.837   3.124  0.2759 -0.0019 -2.7373
  622MOL0     H83939  -1.209  10.767   3.224  2.1683 -1.3909 -0.4680
  622MOL0     H83940  -1.065  10.936   3.137 -0.6866 -0.9439 -0.2485
  622MOL0     H83941  -1.215  11.026   3.155  0.8225  0.4491 -0.1445
  622MOL0     H83942  -1.111  11.088   2.921 -4.2402  3.0906  1.4937
  622MOL0     H83943  -1.128  10.911   2.890 -2.1738 -0.0513 -0.7361
  622MOL0     H83944  -1.356  11.106   2.960 -0.4824  0.8724 -1.1350
  622MOL0     H83945  -1.368  10.933   2.902  2.3282 -0.6878 -0.6225
  622MOL0     H83946  -1.274  11.198   2.784  0.6444  0.0228 -0.3171
  622MOL0     H83947  -1.242  11.049   2.692  0.4832 -0.6170  0.9012
  622MOL0     H83948  -1.471  10.984   2.671  1.8672  0.4263 -2.2568
  622MOL0     H83949  -1.421  11.136   2.599  2.7676  0.8035  0.4975
  622MOL0     H83950  -1.645  11.168   2.700 -2.4474  0.9794  3.4561
  622MOL0     H83951  -1.528  11.252   2.801 -2.2413  2.0303 -1.0513
  622MOL0     H83952  -0.833  10.721   3.074  0.2498 -1.5207  0.4261
  622MOL0     H83953  -0.652  10.754   2.916 -0.0974  0.9137 -0.0322
  622MOL0     H83954  -0.467  10.655   2.728 -1.6137  1.6387 -1.4067
  622MOL0     H83955  -0.203  10.600   2.727 -0.8817 -1.1105 -0.5188
  622MOL0     H83956   1.165  10.574   3.168 -0.6298  0.4785  0.5055
  622MOL0     H83957   1.325  10.434   3.303 -0.0152 -1.5743  0.3675
  622MOL0     H83958   1.513  10.232   3.505  1.5278 -0.7562 -0.5686
  622MOL0     H83959   1.702  10.124   3.574 -0.4774  0.2044 -2.2095
  622MOL0     H83960   1.692   9.794   3.908  1.4549 -0.4365 -0.0661
  622MOL0     H83961   1.620   9.725   3.765 -0.6100  0.0649 -0.2475
  622MOL0     H83962   1.805   9.605   3.854 -1.1305  1.6171  0.2199
  622MOL0     H83963   1.903   9.755   3.860  0.7425 -1.3006 -0.3782
  622MOL0     H83964   1.918   9.764   3.611 -0.0192  0.7564  1.4750
  622MOL0     H83965   1.808   9.618   3.592 -0.0410  0.3008 -1.1650
  622MOL0     H83966   2.104   9.609   3.681  1.3119  1.3564 -4.5316
  622MOL0     H83967   2.029   9.553   3.531 -2.7861 -0.6153 -1.7717
  622MOL0     H83968   1.942   9.213   3.705 -2.0768  0.9351 -1.7789
  622MOL0     H83969   1.454   9.875   3.834  0.8170  2.2068  2.0547
  622MOL0     H83970   1.260   9.991   3.762 -0.9283 -0.2155 -0.3631
  623MOL0     O83971   9.598   2.313   0.978  0.0609 -0.3791  1.0532
  623MOL0     C83972   9.583   2.209   1.039 -0.7491  0.0988  0.0339
  623MOL0     O83973   9.485   2.185   1.127 -0.2965 -0.3302 -0.7443
  623MOL0     C83974   9.396   2.285   1.159 -0.3327 -0.2172 -0.0264
  623MOL0     C83975   9.423   2.356   1.273 -0.5334  0.2493  0.1148
  623MOL0     C83976   9.334   2.440   1.330 -0.0051  0.2165 -0.2942
  623MOL0     C83977   9.209   2.455   1.278  0.6537 -0.5671  1.2683
  623MOL0     O83978   9.108   2.532   1.337 -0.2598  0.9216  0.0974
  623MOL0     C83979   9.136   2.660   1.381  0.5029  0.3315 -0.3123
  623MOL0     C83980   9.013   2.745   1.412  0.5065  0.5651 -0.1923
  623MOL0     C83981   8.884   2.665   1.407 -0.3159  1.1586 -0.4564
  623MOL0     C83982   8.759   2.745   1.467 -0.0261 -0.6382 -0.3748
  623MOL0     C83983   8.629   2.662   1.461  0.9716  0.2860 -0.3808
  623MOL0     C83984   8.507   2.708   1.543 -0.1770  0.4007  0.4880
  623MOL0     C83985   8.383   2.618   1.524  0.0573 -0.7390 -0.5730
  623MOL0     C83986   8.301   2.621   1.652  0.0410 -0.2228 -0.9697
  623MOL0     N83987   8.179   2.534   1.635  0.2568 -0.5226  0.1455
  623MOL0     C83988   8.187   2.403   1.605 -0.3465  0.5355 -0.0375
  623MOL0     C83989   8.066   2.355   1.598 -0.2625  0.0340  0.1413
  623MOL0     C83990   8.031   2.208   1.587  0.2381  0.0360 -0.7905
  623MOL0     C83991   7.912   2.187   1.492  0.1893 -0.7096 -0.9169
  623MOL0     C83992   7.877   2.039   1.474 -0.5994  0.3832 -0.0892
  623MOL0     C83993   7.726   2.025   1.451  0.3280 -1.6514 -0.3066
  623MOL0     O83994   7.687   1.882   1.458 -0.1932 -0.0304  0.5568
  623MOL0     C83995   7.555   1.855   1.465  0.1840 -0.2323  0.7563
  623MOL0     C83996   7.446   1.944   1.453  0.2655  0.3701  0.3080
  623MOL0     C83997   7.316   1.890   1.461 -0.0182 -0.2600  0.9577
  623MOL0     C83998   7.206   1.997   1.459  0.0826  0.4192  0.0479
  623MOL0     C83999   7.293   1.753   1.464 -0.4401 -0.6319  0.1293
  623MOL0     C84000   7.166   1.678   1.465 -0.4294 -0.4121  0.3654
  623MOL0     O84001   7.163   1.545   1.439 -0.0674 -0.2715  0.0953
  623MOL0     C84002   7.044   1.501   1.427  0.0182  0.6716  0.0963
  623MOL0     C84003   6.990   1.506   1.302  0.2706  0.1907  0.2610
  623MOL0     C84004   6.877   1.429   1.280 -0.3910 -0.5854  0.4415
  623MOL0     C84005   6.827   1.337   1.379 -0.4752  0.5532  0.7237
  623MOL0     O84006   6.725   1.252   1.362 -0.2528  0.2047 -0.1628
  623MOL0     C84007   6.619   1.296   1.282 -0.1221 -0.8467  0.5562
  623MOL0     C84008   6.500   1.212   1.311  0.7454 -0.2223  0.0974
  623MOL0     C84009   6.381   1.248   1.215 -0.8434 -0.1092 -1.2546
  623MOL0     C84010   6.253   1.188   1.250 -0.2966  0.1234 -0.5969
  623MOL0     C84011   6.134   1.240   1.167 -0.5337 -0.1840  0.5157
  623MOL0     C84012   6.005   1.185   1.219 -0.2228  0.5807 -0.6113
  623MOL0     C84013   5.895   1.248   1.141  0.6842  0.0103  0.1889
  623MOL0     C84014   5.758   1.186   1.162  0.3888 -0.3503 -0.3033
  623MOL0    Cl84015   5.686   1.225   1.326 -0.0420 -0.0923  0.2183
  623MOL0     C84016   6.895   1.333   1.498  0.2716 -0.0544  0.1807
  623MOL0     C84017   7.002   1.417   1.525  0.0909  0.1592  0.7068
  623MOL0     O84018   7.065   1.742   1.512 -0.3857 -0.2945  0.8866
  623MOL0     C84019   7.408   1.672   1.472 -1.0069  0.1522  0.5853
  623MOL0     C84020   7.536   1.722   1.474  0.1319 -0.5077 -0.5110
  623MOL0     N84021   7.988   2.465   1.607 -0.2983 -0.3344  0.7814
  623MOL0     N84022   8.052   2.573   1.620 -0.0125 -0.3691 -0.0615
  623MOL0     C84023   9.172   2.381   1.158  0.1234 -0.3152  0.6841
  623MOL0     C84024   9.268   2.302   1.096  0.8167  0.0328 -0.6609
  623MOL0     C84025   9.701   2.115   1.020 -0.0610 -0.3353 -0.6761
  623MOL0     C84026   9.785   2.115   0.906 -0.4358  0.6688  0.0619
  623MOL0     C84027   9.884   2.020   0.889 -0.5727  0.2637 -1.0438
  623MOL0     C84028   9.904   1.914   0.983  1.0958 -0.6240 -0.6531
  623MOL0     O84029  10.008   1.831   0.954  0.0941  0.0430  0.6109
  623MOL0     C84030  10.019   1.707   1.029  0.6450 -0.0945 -0.0900
  623MOL0     C84031   9.956   1.590   0.952 -1.0095 -0.5681 -1.0133
  623MOL0     C84032   9.959   1.461   1.034 -0.7285 -0.6324 -0.7451
  623MOL0     C84033   9.923   1.324   0.963 -0.3371  0.0900  0.0448
  623MOL0     C84034   9.867   1.234   1.064 -0.2699 -0.2113  0.5168
  623MOL0     C84035   9.812   1.158   1.145 -0.4895  0.0262  0.2803
  623MOL0     C84036   9.827   1.916   1.099  0.2682  0.0904  0.0674
  623MOL0     C84037   9.724   2.015   1.111  0.2030  0.4598 -0.5467
  623MOL0     H84038   9.515   2.324   1.320 -0.3591 -1.4964 -1.2868
  623MOL0     H84039   9.348   2.493   1.424  1.4019  2.3478 -1.6122
  623MOL0     H84040   9.201   2.660   1.469  1.9834 -1.6183 -1.3233
  623MOL0     H84041   9.188   2.715   1.302 -2.0757  1.3459 -1.4357
  623MOL0     H84042   9.028   2.790   1.510  3.0806  0.2156 -0.3340
  623MOL0     H84043   9.005   2.833   1.348 -1.2942  1.2223  0.8711
  623MOL0     H84044   8.864   2.634   1.304  1.6116 -0.1205 -0.4979
  623MOL0     H84045   8.896   2.573   1.464 -1.6993  1.3882  0.2503
  623MOL0     H84046   8.776   2.793   1.564 -2.0156  0.1825 -0.3913
  623MOL0     H84047   8.743   2.830   1.401  2.1178 -0.3371 -0.5746
  623MOL0     H84048   8.611   2.670   1.353  3.3711  3.6863 -0.6913
  623MOL0     H84049   8.647   2.555   1.474 -2.6376 -0.4945 -0.8328
  623MOL0     H84050   8.534   2.731   1.646 -1.2352 -0.7189  1.0358
  623MOL0     H84051   8.480   2.810   1.516  0.1170  0.1789 -0.7076
  623MOL0     H84052   8.321   2.652   1.441 -0.9265 -1.0956 -0.0102
  623MOL0     H84053   8.405   2.511   1.519  3.2841 -0.6610  4.6146
  623MOL0     H84054   8.268   2.724   1.670  0.6243 -0.3604  1.1773
  623MOL0     H84055   8.368   2.598   1.736 -1.9333  0.8335  1.0128
  623MOL0     H84056   8.269   2.333   1.612  1.3794  2.4893  0.2315
  623MOL0     H84057   8.120   2.155   1.550 -0.1931 -0.4956 -1.0749
  623MOL0     H84058   8.009   2.172   1.687 -0.9029  0.0095 -1.0458
  623MOL0     H84059   7.928   2.234   1.395  2.1348 -1.7482 -1.1394
  623MOL0     H84060   7.827   2.234   1.544  0.4046 -2.5844  1.2972
  623MOL0     H84061   7.904   1.989   1.567  1.6442  0.1345 -0.8128
  623MOL0     H84062   7.944   1.993   1.400 -1.6013 -1.3897  0.0687
  623MOL0     H84063   7.708   2.053   1.346  1.2076  0.1130 -0.0351
  623MOL0     H84064   7.666   2.084   1.521  0.3273  0.8205 -2.2251
  623MOL0     H84065   7.476   2.047   1.437  0.9258  0.2966  0.9935
  623MOL0     H84066   7.151   2.024   1.550 -2.0262  1.1898 -1.3731
  623MOL0     H84067   7.254   2.091   1.429  4.1899 -0.3763  3.2765
  623MOL0     H84068   7.127   1.961   1.391 -0.2416 -0.9547  1.1072
  623MOL0     H84069   7.043   1.563   1.226 -0.2124 -0.3521 -0.4938
  623MOL0     H84070   6.837   1.426   1.179  2.1476 -0.9199 -0.6217
  623MOL0     H84071   6.589   1.399   1.307 -0.5555 -0.2347 -2.1572
  623MOL0     H84072   6.635   1.286   1.174  0.1506 -1.1932  0.6258
  623MOL0     H84073   6.530   1.107   1.315  1.5839  0.0224  0.3605
  623MOL0     H84074   6.460   1.237   1.410 -0.5507  1.5371 -0.8138
  623MOL0     H84075   6.404   1.222   1.111 -1.1887  0.7079 -1.5413
  623MOL0     H84076   6.370   1.357   1.221  0.0389 -0.0765  0.4464
  623MOL0     H84077   6.262   1.079   1.251  2.1132  0.2399  1.3582
  623MOL0     H84078   6.242   1.217   1.355  0.7655 -1.7324  0.0726
  623MOL0     H84079   6.156   1.207   1.065 -1.2927 -0.0989  0.3164
  623MOL0     H84080   6.122   1.348   1.171 -2.4099 -0.2237 -1.6148
  623MOL0     H84081   6.001   1.076   1.222 -3.8486  0.6239  0.4389
  623MOL0     H84082   6.004   1.216   1.324  2.0416  0.0226 -0.3604
  623MOL0     H84083   5.902   1.239   1.032 -2.6743  2.3679 -0.4112
  623MOL0     H84084   5.884   1.354   1.167 -0.8478 -0.2553  0.7702
  623MOL0     H84085   5.762   1.077   1.153  1.7154 -0.4282  0.7918
  623MOL0     H84086   5.695   1.240   1.092  0.8142  1.5241  0.6826
  623MOL0     H84087   6.873   1.254   1.569 -0.9646  0.0721 -0.0414
  623MOL0     H84088   7.045   1.410   1.625 -2.0514  0.5862  1.7080
  623MOL0     H84089   7.393   1.564   1.466  1.0527 -0.1756  0.8040
  623MOL0     H84090   7.623   1.658   1.485  1.7142  1.5073 -0.7019
  623MOL0     H84091   9.076   2.378   1.107  1.9377 -1.6506 -2.9465
  623MOL0     H84092   9.256   2.234   1.012  0.6884  0.7348 -1.2177
  623MOL0     H84093   9.777   2.191   0.829 -1.1993  1.4458  0.8905
  623MOL0     H84094   9.949   2.024   0.801 -0.5652  1.2498 -1.0090
  623MOL0     H84095  10.126   1.684   1.020  0.5606  0.0125 -1.6868
  623MOL0     H84096   9.999   1.707   1.136  3.7726 -1.9978  0.6240
  623MOL0     H84097  10.007   1.580   0.856  0.3225  1.8988 -0.6372
  623MOL0     H84098   9.852   1.616   0.931 -1.8111  1.4169  3.9956
  623MOL0     H84099   9.899   1.476   1.124  1.0334  3.2869  0.0087
  623MOL0     H84100  10.059   1.431   1.068 -1.7900 -3.1202  0.4348
  623MOL0     H84101  10.012   1.274   0.924 -0.6802 -1.2991  0.9604
  623MOL0     H84102   9.853   1.347   0.882 -1.5358  3.5313  1.8261
  623MOL0     H84103   9.768   1.085   1.209  2.7577 -2.4894 -0.0772
  623MOL0     H84104   9.831   1.848   1.184 -1.0278  0.8138  0.7367
  623MOL0     H84105   9.659   2.007   1.198 -0.0858 -0.0664 -0.8047
  624MOL0     O84106   6.252   6.022  10.475  0.2980 -1.1484  1.1757
  624MOL0     C84107   6.263   5.922  10.406  0.4069 -0.1240 -0.3113
  624MOL0     O84108   6.185   5.823  10.401 -0.3315  1.2775 -0.0203
  624MOL0     C84109   6.056   5.831  10.455 -0.6278  0.3518  0.1323
  624MOL0     C84110   5.952   5.797  10.367  0.4362 -0.1401 -0.2381
  624MOL0     C84111   5.825   5.825  10.411 -0.2746 -0.0410 -0.3007
  624MOL0     C84112   5.792   5.843  10.546  0.2561 -0.3154  0.3687
  624MOL0     O84113   5.657   5.855  10.583 -0.0677 -0.3566  1.4565
  624MOL0     C84114   5.612   5.744  10.659  0.2925 -0.6337  0.3148
  624MOL0     C84115   5.499   5.807  10.740 -0.1293 -0.3972 -0.0267
  624MOL0     C84116   5.454   5.705  10.848  0.5467 -0.5109 -0.9601
  624MOL0     C84117   5.324   5.756  10.925  0.7447  0.8469  0.7217
  624MOL0     C84118   5.305   5.674  11.047 -0.6151 -0.8140  1.0760
  624MOL0     C84119   5.194   5.714  11.146  0.3509  0.9894  0.7619
  624MOL0     C84120   5.204   5.858  11.194  0.0359 -0.2210  0.4121
  624MOL0     C84121   5.245   5.851  11.336  0.0203 -0.4768 -0.5843
  624MOL0     N84122   5.378   5.795  11.354  0.4787  0.9560 -0.4483
  624MOL0     C84123   5.409   5.671  11.400  0.2458  0.3300 -0.1545
  624MOL0     C84124   5.541   5.676  11.428 -0.5584  0.1961 -0.1972
  624MOL0     C84125   5.627   5.570  11.486 -0.9022 -0.8002 -0.5043
  624MOL0     C84126   5.646   5.572  11.637 -0.8978 -0.8779 -0.5686
  624MOL0     C84127   5.505   5.582  11.706  0.5930  0.8197  0.4269
  624MOL0     C84128   5.515   5.568  11.856 -0.2204  0.0370  0.1703
  624MOL0     O84129   5.530   5.434  11.904 -0.2691 -0.6266  0.4052
  624MOL0     C84130   5.593   5.423  12.027 -0.3521 -0.1294 -0.5668
  624MOL0     C84131   5.624   5.302  12.060  0.4296  0.0410 -0.1035
  624MOL0     C84132   5.676   5.268  12.184  0.0090 -0.2316 -0.0888
  624MOL0     C84133   5.714   5.126  12.189  1.2341 -0.9093 -0.6979
  624MOL0     C84134   5.694   5.364  12.288 -0.0822  0.1040 -0.2509
  624MOL0     C84135   5.769   5.343  12.412  0.5295  0.8099 -0.9121
  624MOL0     O84136   5.829   5.452  12.466  0.5393 -0.6124  0.5248
  624MOL0     C84137   5.913   5.445  12.574 -0.3064  0.6834 -0.7969
  624MOL0     C84138   6.049   5.419  12.544  0.7353  0.2445 -0.0108
  624MOL0     C84139   6.147   5.431  12.639 -0.6248  0.8656 -0.7038
  624MOL0     C84140   6.114   5.435  12.778 -0.4795 -0.5890 -0.5037
  624MOL0     O84141   6.195   5.408  12.890  0.1198  0.5919  0.3310
  624MOL0     C84142   6.336   5.382  12.865 -0.2755 -0.3167 -0.8132
  624MOL0     C84143   6.406   5.520  12.839  0.3668 -0.8545  0.0705
  624MOL0     C84144   6.542   5.480  12.789  0.7132 -0.1323 -0.0683
  624MOL0     C84145   6.639   5.472  12.906 -0.4628  0.0371 -0.0320
  624MOL0     C84146   6.764   5.395  12.864  0.3267 -0.0549 -0.1345
  624MOL0     C84147   6.837   5.441  12.741 -0.1140  1.1219  0.2118
  624MOL0     C84148   6.944   5.342  12.694  0.5677 -0.2286  0.1289
  624MOL0     C84149   7.065   5.406  12.621  0.1722 -0.1190 -0.2260
  624MOL0    Cl84150   7.198   5.284  12.604  0.0888  0.3595 -0.0914
  624MOL0     C84151   5.981   5.471  12.809 -0.0455 -0.0442 -0.2186
  624MOL0     C84152   5.886   5.480  12.710  0.4233 -0.6846  0.7514
  624MOL0     O84153   5.765   5.235  12.467  0.5657 -0.0003  0.0755
  624MOL0     C84154   5.633   5.491  12.259  0.0094 -0.2958 -0.3091
  624MOL0     C84155   5.581   5.518  12.132  0.4696 -0.8688  0.4384
  624MOL0     N84156   5.596   5.801  11.393  0.4666  0.1475 -0.0518
  624MOL0     N84157   5.490   5.865  11.351  0.7146  0.0121 -0.5452
  624MOL0     C84158   5.898   5.883  10.629 -0.0134 -0.3138  0.1223
  624MOL0     C84159   6.030   5.883  10.583  0.7224 -0.9842  0.0798
  624MOL0     C84160   6.391   5.911  10.322  0.3551  0.3651  0.5135
  624MOL0     C84161   6.442   5.780  10.297 -0.4916 -0.1769  0.4815
  624MOL0     C84162   6.570   5.767  10.235 -0.3825  0.1184  0.1006
  624MOL0     C84163   6.656   5.876  10.207  0.3697 -0.4050  0.0205
  624MOL0     O84164   6.786   5.842  10.191  0.6586  0.2433  0.1020
  624MOL0     C84165   6.875   5.950  10.180 -0.5165 -0.3636 -0.9575
  624MOL0     C84166   6.912   6.007  10.312  1.2044  0.1428  0.2182
  624MOL0     C84167   7.013   6.124  10.296  0.5952 -0.3652  0.5777
  624MOL0     C84168   7.004   6.210  10.421  0.4559 -1.0064 -0.2334
  624MOL0     C84169   7.087   6.148  10.528 -0.0622  0.3895  0.0247
  624MOL0     C84170   7.156   6.097  10.607 -0.7048 -0.1568 -0.6797
  624MOL0     C84171   6.596   6.001  10.235  0.0281  0.1613 -0.3222
  624MOL0     C84172   6.462   6.021  10.276 -0.0534  0.1731  0.5391
  624MOL0     H84173   5.975   5.753  10.271 -1.7664 -0.0310 -0.8637
  624MOL0     H84174   5.739   5.817  10.346  0.9734 -1.1846 -1.8731
  624MOL0     H84175   5.581   5.665  10.590 -2.1350  0.7727 -0.3204
  624MOL0     H84176   5.689   5.713  10.730 -1.6687 -2.1203  1.9289
  624MOL0     H84177   5.540   5.891  10.797 -0.4673  1.1315 -1.9390
  624MOL0     H84178   5.416   5.839  10.677  0.6214  2.9660  0.4950
  624MOL0     H84179   5.440   5.609  10.798 -2.7686 -1.1241  0.8414
  624MOL0     H84180   5.528   5.695  10.927  0.0920  0.3391 -0.4140
  624MOL0     H84181   5.329   5.862  10.950  2.5411  0.5798  1.6816
  624MOL0     H84182   5.240   5.744  10.855  0.9395 -1.3405  0.7803
  624MOL0     H84183   5.290   5.570  11.016 -0.4865 -0.9373  1.4216
  624MOL0     H84184   5.401   5.689  11.097  0.3432 -2.3455 -0.2390
  624MOL0     H84185   5.107   5.716  11.080 -1.2018 -0.8920  2.6302
  624MOL0     H84186   5.171   5.632  11.214 -1.0700  0.8731  0.1746
  624MOL0     H84187   5.268   5.916  11.127 -2.3929 -0.6802 -2.5363
  624MOL0     H84188   5.108   5.909  11.178 -0.0076  0.2976  2.1332
  624MOL0     H84189   5.168   5.799  11.394  1.3834 -0.3822  1.4090
  624MOL0     H84190   5.255   5.948  11.386  1.0835 -0.7525 -0.2343
  624MOL0     H84191   5.343   5.585  11.412  1.0832 -0.2081  0.8038
  624MOL0     H84192   5.587   5.470  11.467  1.0067 -1.5831 -0.5468
  624MOL0     H84193   5.726   5.577  11.442 -0.2512  3.7011  1.1031
  624MOL0     H84194   5.719   5.648  11.666 -1.2801 -0.0989 -1.5554
  624MOL0     H84195   5.695   5.481  11.672  0.3237  1.0474  3.3125
  624MOL0     H84196   5.430   5.514  11.664  0.9599  0.0784  0.9511
  624MOL0     H84197   5.466   5.681  11.681 -0.6190 -0.2429 -2.3352
  624MOL0     H84198   5.419   5.607  11.891  1.4817  2.3546  2.6245
  624MOL0     H84199   5.597   5.627  11.896  1.4725 -1.8665 -0.3472
  624MOL0     H84200   5.602   5.227  11.984  1.3922  1.1398 -1.5330
  624MOL0     H84201   5.822   5.132  12.171  1.0870  1.9033 -0.9410
  624MOL0     H84202   5.689   5.072  12.281  0.2252  0.0599 -0.3970
  624MOL0     H84203   5.672   5.070  12.105  1.6878 -3.0594  0.4309
  624MOL0     H84204   6.077   5.403  12.440  0.2866 -2.0919  0.1641
  624MOL0     H84205   6.253   5.425  12.614 -0.3235 -1.3734  0.7581
  624MOL0     H84206   6.382   5.329  12.948  0.6420 -0.5989 -1.4846
  624MOL0     H84207   6.349   5.308  12.785 -0.2038 -3.9935  2.3520
  624MOL0     H84208   6.348   5.589  12.778  1.7276  0.9897  0.7755
  624MOL0     H84209   6.411   5.575  12.934 -3.8240  0.9882 -0.5415
  624MOL0     H84210   6.578   5.557  12.720 -3.6957  2.9659  0.6823
  624MOL0     H84211   6.535   5.392  12.725  3.7268  0.4852 -1.4334
  624MOL0     H84212   6.669   5.574  12.933  2.6018 -0.6646 -0.5101
  624MOL0     H84213   6.599   5.419  12.992  2.0453 -1.1300  0.4934
  624MOL0     H84214   6.739   5.292  12.836  0.3496  0.6569 -3.0207
  624MOL0     H84215   6.832   5.394  12.949  1.8120 -0.4950 -1.2925
  624MOL0     H84216   6.766   5.446  12.659  0.6069 -3.4682 -1.0070
  624MOL0     H84217   6.883   5.533  12.777  0.4865  0.1409  2.1218
  624MOL0     H84218   6.889   5.267  12.636 -0.5237  2.0901 -2.0575
  624MOL0     H84219   6.989   5.305  12.786 -1.4703 -1.6517  0.6142
  624MOL0     H84220   7.105   5.498  12.667 -1.2659 -1.2287  3.6836
  624MOL0     H84221   7.021   5.437  12.526  0.6496  2.8841  0.4107
  624MOL0     H84222   5.953   5.465  12.914  3.2498 -3.2124  0.6616
  624MOL0     H84223   5.787   5.523  12.720  0.7670  0.4201 -0.3231
  624MOL0     H84224   5.637   5.573  12.330 -2.6211 -1.2747  1.0893
  624MOL0     H84225   5.541   5.618  12.121  1.8786  0.1384  3.5160
  624MOL0     H84226   5.871   5.906  10.731 -0.5720 -1.2690  0.2039
  624MOL0     H84227   6.110   5.906  10.653  0.7304  1.1502 -0.5838
  624MOL0     H84228   6.393   5.686  10.319 -0.7166 -0.6146 -1.6614
  624MOL0     H84229   6.603   5.669  10.203  0.6867  1.1087 -1.9809
  624MOL0     H84230   6.972   5.914  10.143  1.3216  3.0504  0.0605
  624MOL0     H84231   6.848   6.029  10.109 -0.3715  2.2108  1.6981
  624MOL0     H84232   6.954   5.934  10.381  1.1299  0.7203  0.8881
  624MOL0     H84233   6.820   6.056  10.347  0.6875  1.5875 -2.8296
  624MOL0     H84234   6.992   6.189  10.211  0.5398  0.9735  1.5786
  624MOL0     H84235   7.113   6.081  10.290 -0.5865 -3.1961 -4.1529
  624MOL0     H84236   6.905   6.238  10.457  0.8586  1.1185 -0.6239
  624MOL0     H84237   7.046   6.309  10.401 -1.5552 -0.2224 -0.7820
  624MOL0     H84238   7.202   6.051  10.692 -2.9887 -0.5765  0.3961
  624MOL0     H84239   6.648   6.094  10.216  1.8705 -0.4108  1.5683
  624MOL0     H84240   6.430   6.123  10.297 -0.7009  0.9615 -3.4553
  625MOL0     O84241   5.648   0.292   8.269 -0.5227  0.1205  0.0119
  625MOL0     C84242   5.718   0.360   8.339 -0.1002  0.6021 -0.3134
  625MOL0     O84243   5.710   0.369   8.473 -0.1129  0.5533  0.1913
  625MOL0     C84244   5.597   0.317   8.534 -0.3122 -0.1866 -1.2043
  625MOL0     C84245   5.466   0.359   8.500  0.8262 -0.2849 -0.0735
  625MOL0     C84246   5.356   0.327   8.590  0.5757  0.3645 -1.1979
  625MOL0     C84247   5.375   0.244   8.703 -0.1515 -1.1315  0.4186
  625MOL0     O84248   5.268   0.224   8.790 -0.1769  0.8612 -0.5203
  625MOL0     C84249   5.134   0.253   8.757 -0.1501  0.4675  0.1492
  625MOL0     C84250   5.042   0.171   8.863 -0.2293  0.3049  1.0237
  625MOL0     C84251   5.041   0.235   8.999 -0.3252 -0.0804  0.3297
  625MOL0     C84252   4.920   0.338   9.014  0.1167 -0.1952  0.2756
  625MOL0     C84253   4.942   0.434   9.127 -0.6150  0.0577  0.0343
  625MOL0     C84254   4.980   0.383   9.263  0.2461  0.1395 -0.0121
  625MOL0     C84255   4.858   0.330   9.350 -0.8720 -0.0707  0.2059
  625MOL0     C84256   4.906   0.315   9.501 -0.1300  1.0619  0.3520
  625MOL0     N84257   4.786   0.289   9.589  0.8295  0.2433  0.2036
  625MOL0     C84258   4.716   0.166   9.612 -0.5038  0.6443  0.2733
  625MOL0     C84259   4.602   0.201   9.675 -0.3329  0.5394  0.2180
  625MOL0     C84260   4.495   0.113   9.725 -0.4208 -0.2173  0.0643
  625MOL0     C84261   4.548   0.041   9.843  0.3870  0.0449  0.1126
  625MOL0     C84262   4.456  -0.062   9.912 -0.1812 -0.8427  0.5934
  625MOL0     C84263   4.413  -0.178   9.826 -0.1244 -0.1175 -0.5332
  625MOL0     O84264   4.286  -0.138   9.758 -0.1988 -1.0876 -0.2568
  625MOL0     C84265   4.211  -0.242   9.706 -0.4798 -1.9666  0.4585
  625MOL0     C84266   4.250  -0.367   9.688 -0.2556  0.8895  0.2137
  625MOL0     C84267   4.170  -0.472   9.634  0.0725 -0.0037 -0.6857
  625MOL0     C84268   4.232  -0.609   9.631 -0.8512  0.2352  0.3337
  625MOL0     C84269   4.041  -0.436   9.591  0.1970 -0.2825  0.2493
  625MOL0     C84270   3.950  -0.534   9.520 -0.5234 -0.3482 -0.8258
  625MOL0     O84271   3.818  -0.490   9.510 -0.2265  0.2835  0.2579
  625MOL0     C84272   3.731  -0.569   9.441 -0.7341 -0.3493  0.4464
  625MOL0     C84273   3.659  -0.495   9.344 -0.5872 -0.3220 -0.3157
  625MOL0     C84274   3.571  -0.565   9.265  0.5808 -0.3045 -0.1832
  625MOL0     C84275   3.559  -0.703   9.281 -0.1675  0.0772  0.2493
  625MOL0     O84276   3.475  -0.792   9.211 -0.1768 -0.1639  0.1284
  625MOL0     C84277   3.410  -0.751   9.089 -0.2648 -0.1726 -0.1333
  625MOL0     C84278   3.314  -0.853   9.018 -0.8199  0.3288  0.7700
  625MOL0     C84279   3.383  -0.963   8.938 -1.0395 -0.1499 -0.5141
  625MOL0     C84280   3.417  -0.913   8.797  0.1635  0.2278  0.0779
  625MOL0     C84281   3.472  -1.020   8.707 -0.0346 -0.5100  1.0162
  625MOL0     C84282   3.517  -0.974   8.566 -0.3261 -0.6094 -0.3547
  625MOL0     C84283   3.637  -0.880   8.561 -0.3514 -1.5146 -0.0581
  625MOL0     C84284   3.686  -0.867   8.422  0.3805  0.6321 -0.0173
  625MOL0    Cl84285   3.841  -0.791   8.451 -0.0617 -0.2759  0.1263
  625MOL0     C84286   3.621  -0.765   9.379 -0.7441 -0.2921 -0.3923
  625MOL0     C84287   3.710  -0.710   9.470  1.1608 -0.0723 -0.3435
  625MOL0     O84288   3.999  -0.633   9.471 -0.0758 -0.9037  0.5791
  625MOL0     C84289   4.000  -0.302   9.604  0.3610 -0.9410  1.0151
  625MOL0     C84290   4.089  -0.209   9.661 -0.0897  0.0399  0.3624
  625MOL0     N84291   4.608   0.338   9.704 -0.6594  0.6216 -0.6177
  625MOL0     N84292   4.718   0.389   9.651  0.3734  0.7020  0.3158
  625MOL0     C84293   5.498   0.201   8.736 -1.0247  1.1239  0.2652
  625MOL0     C84294   5.609   0.240   8.654  0.1905  0.2142  0.4311
  625MOL0     C84295   5.821   0.431   8.272 -0.1659  0.4424 -0.1811
  625MOL0     C84296   5.949   0.439   8.333  0.0582 -0.7808 -0.2894
  625MOL0     C84297   6.055   0.487   8.258  0.3550  0.1152 -0.2179
  625MOL0     C84298   6.043   0.521   8.119 -0.4907 -1.3818  0.0317
  625MOL0     O84299   6.145   0.569   8.042  0.5740 -0.1086 -0.0373
  625MOL0     C84300   6.279   0.540   8.076 -0.3067  0.5995  0.7650
  625MOL0     C84301   6.347   0.475   7.949  0.8084  0.6451  0.5100
  625MOL0     C84302   6.275   0.346   7.901  0.4872  0.9370  0.2259
  625MOL0     C84303   6.270   0.237   8.013 -0.4756  0.4372 -0.1737
  625MOL0     C84304   6.396   0.199   8.069 -0.8532 -0.2242  0.6460
  625MOL0     C84305   6.510   0.190   8.103  0.2472 -0.0736 -0.0656
  625MOL0     C84306   5.917   0.512   8.061 -1.0375  0.6786 -0.7909
  625MOL0     C84307   5.808   0.472   8.138  0.4711 -0.6603  0.0446
  625MOL0     H84308   5.435   0.421   8.417 -3.1769  1.3297  2.3479
  625MOL0     H84309   5.262   0.372   8.559 -0.0686 -0.8384 -1.0553
  625MOL0     H84310   5.116   0.358   8.782 -0.0994  0.3775  0.5858
  625MOL0     H84311   5.115   0.230   8.652  0.1366 -0.1801  0.2370
  625MOL0     H84312   4.944   0.159   8.817  0.8893 -2.7186 -0.8319
  625MOL0     H84313   5.084   0.070   8.864  2.0733  1.0749 -2.2437
  625MOL0     H84314   5.041   0.165   9.082  1.0270 -0.6519 -0.1277
  625MOL0     H84315   5.137   0.287   9.007  0.1914 -0.3889 -2.7536
  625MOL0     H84316   4.914   0.399   8.923  0.8384  1.2365  1.1488
  625MOL0     H84317   4.821   0.292   9.012  0.4325 -0.8726 -1.5617
  625MOL0     H84318   5.024   0.503   9.105 -1.4965  0.6084 -1.6306
  625MOL0     H84319   4.857   0.502   9.123  0.9585  2.0248 -1.6929
  625MOL0     H84320   5.056   0.304   9.256  0.7358  0.6270 -0.2719
  625MOL0     H84321   5.022   0.467   9.320  1.3919 -0.3454 -0.1011
  625MOL0     H84322   4.779   0.404   9.342 -2.6337 -1.8452  0.5127
  625MOL0     H84323   4.816   0.234   9.319 -1.6293  0.4613 -0.4552
  625MOL0     H84324   4.941   0.411   9.539  0.7742  0.8492  0.0820
  625MOL0     H84325   4.976   0.232   9.512 -2.0049 -0.2529  3.7027
  625MOL0     H84326   4.734   0.068   9.570  0.1753  2.1086 -3.1989
  625MOL0     H84327   4.399   0.165   9.737  1.2543  3.5248 -1.1222
  625MOL0     H84328   4.475   0.034   9.653  1.3747 -0.9635  0.3410
  625MOL0     H84329   4.575   0.121   9.913 -1.8511  0.6077  0.4029
  625MOL0     H84330   4.630  -0.023   9.809 -0.8846  0.0516 -3.2886
  625MOL0     H84331   4.371   0.000   9.942  0.9407  1.6732 -1.1359
  625MOL0     H84332   4.509  -0.099  10.001 -0.5105  0.2046  1.2512
  625MOL0     H84333   4.408  -0.268   9.888 -1.0800 -0.8639 -1.6371
  625MOL0     H84334   4.485  -0.191   9.744  0.7782  0.4751  0.1514
  625MOL0     H84335   4.342  -0.397   9.737 -0.1413  2.2955  0.9162
  625MOL0     H84336   4.318  -0.616   9.698 -1.7866 -0.6755  1.5120
  625MOL0     H84337   4.160  -0.682   9.670  0.3578  0.3056  2.8773
  625MOL0     H84338   4.263  -0.626   9.528  1.8292  4.6452  0.1717
  625MOL0     H84339   3.685  -0.391   9.330  1.7951 -0.7381  0.4990
  625MOL0     H84340   3.498  -0.515   9.202  0.1812  0.9626  1.2204
  625MOL0     H84341   3.342  -0.670   9.117  0.2858  0.1556  0.2911
  625MOL0     H84342   3.486  -0.707   9.024  0.9817 -0.9923  0.7113
  625MOL0     H84343   3.267  -0.910   9.099  2.5333 -2.7435  0.7451
  625MOL0     H84344   3.237  -0.802   8.958  0.9892 -0.6241 -2.5980
  625MOL0     H84345   3.312  -1.046   8.934  1.2338 -2.2205 -0.2383
  625MOL0     H84346   3.468  -1.009   8.989 -2.6382 -0.5311  1.9773
  625MOL0     H84347   3.328  -0.872   8.750 -1.5233  0.1817  2.9869
  625MOL0     H84348   3.493  -0.835   8.810 -2.4365  2.6857  1.6071
  625MOL0     H84349   3.396  -1.095   8.683  1.1942 -1.7501  0.8727
  625MOL0     H84350   3.562  -1.063   8.752  0.1426  1.4757  2.7463
  625MOL0     H84351   3.544  -1.058   8.501  1.4930  0.0866 -0.5575
  625MOL0     H84352   3.433  -0.918   8.525 -1.4879  0.0108  2.6460
  625MOL0     H84353   3.713  -0.918   8.631  1.2018  1.4022 -0.0172
  625MOL0     H84354   3.619  -0.777   8.592  0.9737 -0.8594 -1.3648
  625MOL0     H84355   3.630  -0.798   8.358 -1.1109 -1.8644 -1.5904
  625MOL0     H84356   3.704  -0.966   8.379  0.2356  0.6643 -0.1516
  625MOL0     H84357   3.602  -0.871   9.394  0.4156 -0.2092  2.2479
  625MOL0     H84358   3.766  -0.771   9.539  1.3603 -1.0636 -1.3445
  625MOL0     H84359   3.915  -0.260   9.551  1.0033  0.6748  1.2345
  625MOL0     H84360   4.064  -0.103   9.665  0.6226  0.1701  2.0578
  625MOL0     H84361   5.505   0.133   8.820 -2.6402 -1.1592 -1.3221
  625MOL0     H84362   5.708   0.198   8.674  1.3316  1.6651 -1.7552
  625MOL0     H84363   5.961   0.429   8.440  1.0771  0.9830 -0.2014
  625MOL0     H84364   6.153   0.501   8.303  0.6449 -0.9465 -0.4913
  625MOL0     H84365   6.323   0.636   8.107 -1.4211  0.5268  2.7153
  625MOL0     H84366   6.286   0.471   8.160 -1.1400 -0.5642 -0.0804
  625MOL0     H84367   6.451   0.443   7.961  1.2894  0.6899 -2.7175
  625MOL0     H84368   6.344   0.551   7.871  0.3701  0.0382 -0.0761
  625MOL0     H84369   6.334   0.297   7.822  1.4767  3.4089 -0.6587
  625MOL0     H84370   6.175   0.356   7.859 -0.7674 -5.7573  0.5493
  625MOL0     H84371   6.220   0.149   7.972  0.0514 -0.9070  1.9391
  625MOL0     H84372   6.220   0.281   8.100 -1.5568  1.5317 -1.2870
  625MOL0     H84373   6.611   0.163   8.126 -0.7321 -1.4358  3.0685
  625MOL0     H84374   5.897   0.543   7.959  2.8614  0.9599 -1.6259
  625MOL0     H84375   5.704   0.477   8.107  0.3860 -1.9017  0.0908
  626MOL0     O84376   3.348  10.867   8.162  0.1665  0.1254  0.4811
  626MOL0     C84377   3.339  10.960   8.230  0.1793 -0.5908 -0.7115
  626MOL0     O84378   3.236  11.052   8.242  0.1640  0.2105  0.6868
  626MOL0     C84379   3.117  11.041   8.169 -0.1728  0.4082 -0.4670
  626MOL0     C84380   3.057  10.918   8.155 -0.6770 -0.3377  0.1537
  626MOL0     C84381   2.928  10.906   8.099 -0.6578 -0.2897  0.0558
  626MOL0     C84382   2.868  11.019   8.048  0.4830 -0.1071  0.9209
  626MOL0     O84383   2.753  11.023   7.971  0.1329 -0.5470  0.8366
  626MOL0     C84384   2.694  10.902   7.924  0.5182 -0.0646  0.6568
  626MOL0     C84385   2.608  10.955   7.807  1.0694  0.5628  0.3260
  626MOL0     C84386   2.515  11.076   7.837 -1.0535  0.5290  0.0117
  626MOL0     C84387   2.429  11.090   7.712  0.0963 -0.7656  0.6253
  626MOL0     C84388   2.356  11.226   7.724 -1.1286 -0.7003 -0.7193
  626MOL0     C84389   2.283  11.268   7.595  0.3114  0.2042  0.6252
  626MOL0     C84390   2.228  11.408   7.590 -0.1877 -0.5246 -0.7767
  626MOL0     C84391   2.127  11.425   7.478 -0.1524 -0.2763  0.3439
  626MOL0     N84392   2.108  11.557   7.419 -0.2470 -0.0018 -0.5715
  626MOL0     C84393   2.120  11.677   7.489  0.0912 -0.2204  0.6087
  626MOL0     C84394   2.082  11.771   7.400 -0.2730 -0.1697 -0.7087
  626MOL0     C84395   2.060  11.920   7.448 -0.7297 -0.3169 -0.2399
  626MOL0     C84396   1.941  11.979   7.375  0.5875  0.7067 -0.1204
  626MOL0     C84397   1.813  11.896   7.410  0.0456  0.1781 -0.4321
  626MOL0     C84398   1.777  11.867   7.565  1.0615  0.6758 -0.3290
  626MOL0     O84399   1.741  11.988   7.618  0.4121 -0.0805  0.2630
  626MOL0     C84400   1.617  12.048   7.605 -0.4525 -0.2153  0.4973
  626MOL0     C84401   1.614  12.180   7.651  0.2672 -0.1439 -0.0247
  626MOL0     C84402   1.496  12.252   7.629 -0.7141  0.4498 -0.2123
  626MOL0     C84403   1.500  12.384   7.700 -0.1683  0.4678  0.1068
  626MOL0     C84404   1.398  12.209   7.541 -0.3428  0.1007  0.3497
  626MOL0     C84405   1.293  12.298   7.500 -0.0995  1.2254  0.6324
  626MOL0     O84406   1.214  12.241   7.404  0.4584  0.7132  0.1342
  626MOL0     C84407   1.118  12.327   7.358  0.2005  0.9289  1.5470
  626MOL0     C84408   0.983  12.317   7.395 -0.2064  0.4788  0.0275
  626MOL0     C84409   0.892  12.418   7.348  0.4287  0.2898 -0.8255
  626MOL0     C84410   0.930  12.521   7.262  0.4872 -0.5608  0.4973
  626MOL0     O84411   0.848  12.615   7.202  0.4430  0.2132  0.4518
  626MOL0     C84412   0.737  12.672   7.278 -0.1722  0.3847 -0.1432
  626MOL0     C84413   0.599  12.617   7.241  0.0595  0.7903 -0.1918
  626MOL0     C84414   0.494  12.671   7.330  0.4307 -0.4699  0.3116
  626MOL0     C84415   0.458  12.821   7.304 -0.3970 -0.8797 -0.0445
  626MOL0     C84416   0.320  12.838   7.243  0.9679  0.0509  0.0363
  626MOL0     C84417   0.300  12.759   7.105  0.0768  0.5149  0.1481
  626MOL0     C84418   0.176  12.822   7.036 -0.1890  0.5969 -0.0479
  626MOL0     C84419   0.049  12.787   7.115 -0.0086 -0.1810  0.0598
  626MOL0    Cl84420  -0.091  12.770   7.007 -0.2425 -0.2415  0.1065
  626MOL0     C84421   1.061  12.525   7.215  0.3441  0.1000 -0.3083
  626MOL0     C84422   1.153  12.430   7.267  0.1908 -0.0475 -0.0800
  626MOL0     O84423   1.285  12.414   7.531  0.3009  0.2733 -0.9069
  626MOL0     C84424   1.404  12.073   7.492 -0.3820  0.4864 -0.4787
  626MOL0     C84425   1.514  11.997   7.525 -0.1691  0.1513  0.3038
  626MOL0     N84426   2.055  11.717   7.277 -0.0703 -1.0077 -0.8378
  626MOL0     N84427   2.078  11.586   7.294 -0.1904  0.9682  0.9276
  626MOL0     C84428   2.938  11.140   8.057 -0.2220  0.1465 -0.6410
  626MOL0     C84429   3.059  11.156   8.123  0.2022  0.3570  0.1977
  626MOL0     C84430   3.450  10.976   8.325 -0.0600 -0.1442  1.3559
  626MOL0     C84431   3.546  10.879   8.339 -0.5620  0.2462 -0.5028
  626MOL0     C84432   3.663  10.916   8.409  0.1038 -0.7086  0.7523
  626MOL0     C84433   3.684  11.033   8.476 -0.1445  0.4137 -0.0987
  626MOL0     O84434   3.800  11.033   8.549  0.7302 -0.1983 -0.1523
  626MOL0     C84435   3.845  11.155   8.610 -0.0386  0.0252 -0.2407
  626MOL0     C84436   3.954  11.110   8.701  0.1833 -0.5745 -0.0608
  626MOL0     C84437   4.013  11.238   8.754  0.3042 -0.4702 -0.8173
  626MOL0     C84438   4.147  11.216   8.825 -0.3265 -1.0146 -0.6395
  626MOL0     C84439   4.190  11.346   8.873 -0.1146  0.4686 -1.0370
  626MOL0     C84440   4.210  11.459   8.921  0.0751 -0.4340  0.9165
  626MOL0     C84441   3.581  11.120   8.481  0.1743  0.3339 -0.4802
  626MOL0     C84442   3.468  11.106   8.397 -0.6926  0.4400  0.9607
  626MOL0     H84443   3.108  10.837   8.206 -1.0835 -0.1937  0.8088
  626MOL0     H84444   2.879  10.809   8.096 -2.1236  0.4470 -0.3719
  626MOL0     H84445   2.765  10.828   7.887  0.2828  0.1177 -0.1716
  626MOL0     H84446   2.628  10.859   8.000  0.9272  2.5357  2.6372
  626MOL0     H84447   2.666  10.979   7.717 -0.2586  0.8793 -0.4804
  626MOL0     H84448   2.542  10.871   7.783  1.5985  0.1689  0.2409
  626MOL0     H84449   2.454  11.045   7.923  0.0143 -0.0395  0.5861
  626MOL0     H84450   2.576  11.160   7.871 -1.1676 -0.1540  2.0537
  626MOL0     H84451   2.489  11.098   7.621 -2.3645 -0.6753 -1.0786
  626MOL0     H84452   2.360  11.006   7.701 -0.6949 -0.0324 -0.2036
  626MOL0     H84453   2.286  11.220   7.808 -1.4079 -1.5161 -1.0044
  626MOL0     H84454   2.420  11.309   7.759 -2.5405  1.0578 -2.1159
  626MOL0     H84455   2.350  11.257   7.510 -3.0461 -1.1302 -2.1251
  626MOL0     H84456   2.195  11.204   7.581 -0.4523  0.9614  1.7436
  626MOL0     H84457   2.181  11.435   7.685 -1.2496 -1.0739 -1.1214
  626MOL0     H84458   2.321  11.465   7.593  1.4502 -3.0898  1.1650
  626MOL0     H84459   2.030  11.383   7.506 -0.6494 -0.9081 -2.1044
  626MOL0     H84460   2.143  11.359   7.392 -3.8895  0.6246 -1.2360
  626MOL0     H84461   2.144  11.707   7.591 -0.0113  2.2418 -0.0285
  626MOL0     H84462   2.049  11.936   7.556  2.9675 -0.5095  0.2765
  626MOL0     H84463   2.151  11.975   7.422  0.0435 -1.0253  0.8596
  626MOL0     H84464   1.948  11.977   7.266  2.0253  2.1697 -0.0935
  626MOL0     H84465   1.928  12.081   7.413  0.5161  0.4299  0.6270
  626MOL0     H84466   1.811  11.796   7.364  1.1970  0.2547 -0.6719
  626MOL0     H84467   1.735  11.957   7.364  2.5212  4.2732  0.2898
  626MOL0     H84468   1.871  11.832   7.610  1.0911  1.3299  0.1328
  626MOL0     H84469   1.702  11.790   7.580  0.3684  1.4278  0.1788
  626MOL0     H84470   1.698  12.208   7.714  0.0314 -0.2622  0.3460
  626MOL0     H84471   1.403  12.424   7.731  0.1412 -0.2980  2.2042
  626MOL0     H84472   1.557  12.368   7.792  0.4365 -0.0508 -0.3548
  626MOL0     H84473   1.561  12.452   7.641 -2.1715  1.2601 -1.1695
  626MOL0     H84474   0.942  12.232   7.448 -1.2131 -0.0896 -1.5670
  626MOL0     H84475   0.785  12.406   7.365  0.3699 -1.5702 -2.1277
  626MOL0     H84476   0.767  12.657   7.382  1.1837 -0.7146 -0.6592
  626MOL0     H84477   0.736  12.781   7.264 -1.4122  0.1577 -2.2890
  626MOL0     H84478   0.580  12.630   7.134  3.6146 -0.6066 -1.1695
  626MOL0     H84479   0.594  12.509   7.259 -2.6279  0.8568 -0.2077
  626MOL0     H84480   0.531  12.674   7.433 -0.8979  1.3941  0.7923
  626MOL0     H84481   0.407  12.605   7.329  0.5522 -0.6665 -2.1031
  626MOL0     H84482   0.461  12.874   7.400  3.6554 -1.3896  0.2775
  626MOL0     H84483   0.538  12.863   7.243 -0.0543 -0.6655  0.5350
  626MOL0     H84484   0.296  12.944   7.237 -3.5200 -0.4500  3.3355
  626MOL0     H84485   0.244  12.811   7.317  0.8016 -3.7214 -1.2834
  626MOL0     H84486   0.380  12.783   7.034 -1.7869 -0.2292 -2.3608
  626MOL0     H84487   0.298  12.650   7.109  3.0727  0.4083  0.6862
  626MOL0     H84488   0.149  12.783   6.938  0.6608  2.2542 -0.9805
  626MOL0     H84489   0.195  12.930   7.038 -1.0984  0.7991 -1.3018
  626MOL0     H84490   0.026  12.852   7.200 -1.9007 -1.5505  0.6690
  626MOL0     H84491   0.065  12.688   7.159 -1.7283 -0.8288 -0.6830
  626MOL0     H84492   1.093  12.604   7.149  2.1083 -1.0312 -0.8697
  626MOL0     H84493   1.250  12.440   7.220 -1.7783  0.3638 -4.4841
  626MOL0     H84494   1.328  12.035   7.424  1.7156  0.6985 -3.1219
  626MOL0     H84495   1.517  11.899   7.477  2.9633  1.5799 -2.8363
  626MOL0     H84496   2.882  11.229   8.033 -3.0875 -0.7937  1.9845
  626MOL0     H84497   3.131  11.236   8.140  2.5488 -1.6909  0.5230
  626MOL0     H84498   3.545  10.784   8.287  2.3067  1.6812 -3.5661
  626MOL0     H84499   3.738  10.839   8.426  0.6219 -0.2807  0.4103
  626MOL0     H84500   3.893  11.218   8.535 -0.3224  1.1995  0.5305
  626MOL0     H84501   3.770  11.209   8.669 -0.0201  0.8951 -0.9936
  626MOL0     H84502   4.023  11.045   8.646 -0.7518  0.5315 -2.7152
  626MOL0     H84503   3.916  11.057   8.789  2.4559 -0.5593  0.9931
  626MOL0     H84504   3.934  11.279   8.817  1.0212  1.6068 -1.1883
  626MOL0     H84505   4.018  11.314   8.676 -2.6165  1.1740  0.4384
  626MOL0     H84506   4.218  11.173   8.754  0.3966 -0.0862 -0.4980
  626MOL0     H84507   4.144  11.153   8.914 -0.7334 -1.8751 -1.2544
  626MOL0     H84508   4.222  11.559   8.959  2.1658  0.9198 -2.6951
  626MOL0     H84509   3.585  11.196   8.557 -0.5342  0.3349 -0.4321
  626MOL0     H84510   3.387  11.178   8.395 -0.5469  0.6378  1.7673
  627MOL0     O84511   8.670   8.392   2.665  0.1044 -0.1737 -0.4149
  627MOL0     C84512   8.687   8.425   2.549 -0.4271  0.4931 -0.1479
  627MOL0     O84513   8.602   8.395   2.449 -0.6783  0.2444 -0.0942
  627MOL0     C84514   8.485   8.326   2.476 -0.3960  0.2503  0.2365
  627MOL0     C84515   8.445   8.226   2.382  0.5139  0.4696  0.0204
  627MOL0     C84516   8.318   8.153   2.404  0.6813  0.3239 -0.0434
  627MOL0     C84517   8.243   8.180   2.521 -0.3412  0.2162 -0.0187
  627MOL0     O84518   8.118   8.122   2.542  0.4124  1.1638  0.3027
  627MOL0     C84519   8.038   8.082   2.432 -0.2884 -0.9681  0.1890
  627MOL0     C84520   7.891   8.073   2.471  0.3624 -0.9424  0.1447
  627MOL0     C84521   7.806   8.022   2.353  0.6056  0.2145 -0.4842
  627MOL0     C84522   7.663   8.019   2.403 -0.1896 -0.6333  0.1343
  627MOL0     C84523   7.561   8.017   2.289  0.5924  0.1854  1.0844
  627MOL0     C84524   7.422   8.068   2.341  0.1147 -0.7318  0.0307
  627MOL0     C84525   7.326   8.053   2.227 -0.7391  0.4093  0.0952
  627MOL0     C84526   7.190   8.090   2.261  0.1646 -0.0814 -0.8774
  627MOL0     N84527   7.145   8.224   2.230  0.0454 -0.4541  0.4983
  627MOL0     C84528   7.107   8.271   2.108  0.4830 -0.2532 -0.7910
  627MOL0     C84529   7.032   8.386   2.135 -0.6866 -0.5135  1.6423
  627MOL0     C84530   6.985   8.475   2.022 -0.2431 -0.0031 -0.2038
  627MOL0     C84531   6.874   8.411   1.942  0.0806  0.6321  1.1220
  627MOL0     C84532   6.857   8.470   1.805  1.0067  0.3179  0.4471
  627MOL0     C84533   6.716   8.437   1.751 -0.1949  0.3916  0.1049
  627MOL0     O84534   6.705   8.482   1.615 -0.1409 -1.3553  0.4126
  627MOL0     C84535   6.588   8.467   1.546  0.0912  0.0760  0.3008
  627MOL0     C84536   6.573   8.528   1.420 -0.3237  0.3968 -1.0981
  627MOL0     C84537   6.459   8.513   1.342 -0.3087 -0.1035  0.6760
  627MOL0     C84538   6.454   8.599   1.218 -0.1021  0.0440 -0.4881
  627MOL0     C84539   6.356   8.424   1.389  0.7373  0.3945 -0.0934
  627MOL0     C84540   6.228   8.393   1.307  0.8412 -0.6946 -0.5547
  627MOL0     O84541   6.111   8.382   1.374 -0.4493  0.2142  0.2985
  627MOL0     C84542   5.996   8.354   1.297  0.1523  0.1069  0.3848
  627MOL0     C84543   5.907   8.252   1.336 -0.2687 -0.0630  0.5728
  627MOL0     C84544   5.780   8.234   1.277 -0.2297  0.1051  0.1014
  627MOL0     C84545   5.759   8.289   1.149 -0.0742  0.0780  0.2430
  627MOL0     O84546   5.647   8.265   1.076  0.0538  0.4978  0.0529
  627MOL0     C84547   5.544   8.349   1.104  0.0997  0.7005 -0.2732
  627MOL0     C84548   5.418   8.266   1.093 -0.1455 -0.2942  0.5309
  627MOL0     C84549   5.392   8.157   1.206  0.1545 -0.4043 -0.0086
  627MOL0     C84550   5.241   8.131   1.237  0.4329  0.3475  0.0870
  627MOL0     C84551   5.205   8.069   1.377  0.0565 -0.6882 -0.0678
  627MOL0     C84552   5.070   8.015   1.368  0.7745  0.1284  0.8626
  627MOL0     C84553   5.029   7.932   1.489 -1.1118  0.3806  0.2018
  627MOL0     C84554   4.926   7.846   1.446 -0.2650  0.5026  0.9055
  627MOL0    Cl84555   4.783   7.951   1.413  0.0847 -0.0543 -0.4917
  627MOL0     C84556   5.846   8.392   1.110  0.3918 -0.6922 -0.3067
  627MOL0     C84557   5.957   8.422   1.182 -0.0978 -0.8043  0.0723
  627MOL0     O84558   6.246   8.373   1.186  0.0889 -0.6281 -0.3497
  627MOL0     C84559   6.380   8.352   1.497 -0.9670 -0.1535  1.0858
  627MOL0     C84560   6.490   8.380   1.582  0.3178 -0.0614 -0.9529
  627MOL0     N84561   7.049   8.419   2.265  0.3363 -0.1327 -1.1197
  627MOL0     N84562   7.112   8.321   2.325 -0.4683 -0.1145  0.5440
  627MOL0     C84563   8.287   8.276   2.608 -0.5705  0.6931 -0.9431
  627MOL0     C84564   8.401   8.349   2.579  0.2220 -0.8655  0.5466
  627MOL0     C84565   8.816   8.491   2.518 -0.4427  0.2657  0.8185
  627MOL0     C84566   8.840   8.556   2.391 -0.9240 -0.2874  1.2839
  627MOL0     C84567   8.954   8.629   2.356 -0.6800  0.0328 -0.0465
  627MOL0     C84568   9.059   8.630   2.446  0.2990 -0.3066  0.5583
  627MOL0     O84569   9.179   8.690   2.404  0.3159 -0.0617 -0.5048
  627MOL0     C84570   9.295   8.679   2.498  0.0342  0.0389  1.8525
  627MOL0     C84571   9.386   8.787   2.446  0.0618 -0.5551  0.0618
  627MOL0     C84572   9.529   8.762   2.482  0.2632  0.1891  0.6105
  627MOL0     C84573   9.615   8.855   2.395  0.7775  0.0987  0.7655
  627MOL0     C84574   9.757   8.836   2.408 -0.3025 -0.3860  0.0917
  627MOL0     C84575   9.881   8.839   2.420  0.3929  0.2575  0.0800
  627MOL0     C84576   9.046   8.567   2.574  0.2128 -0.1265 -0.6094
  627MOL0     C84577   8.927   8.496   2.605  0.5566  0.5567  0.3428
  627MOL0     H84578   8.504   8.219   2.291  1.0896 -0.1924  0.4368
  627MOL0     H84579   8.288   8.081   2.329  3.7613 -1.9076  0.6527
  627MOL0     H84580   8.051   8.162   2.358  2.0782 -0.5016  1.0184
  627MOL0     H84581   8.069   7.984   2.394  0.8670  0.1986 -2.0847
  627MOL0     H84582   7.882   8.005   2.557 -1.6899  1.4495  1.9679
  627MOL0     H84583   7.844   8.163   2.513  1.0391 -0.7907  0.5956
  627MOL0     H84584   7.807   8.098   2.275 -0.0398  1.7494  0.9521
  627MOL0     H84585   7.848   7.926   2.320 -0.1467 -0.4205  0.3538
  627MOL0     H84586   7.647   7.928   2.462  2.3416 -2.2391 -1.4567
  627MOL0     H84587   7.642   8.107   2.464  0.5912  2.4853 -3.6918
  627MOL0     H84588   7.599   8.092   2.219  3.2670 -1.5971  0.5071
  627MOL0     H84589   7.562   7.921   2.237  2.9940  2.3210 -3.3754
  627MOL0     H84590   7.385   8.026   2.435  2.6290 -0.2182  1.3295
  627MOL0     H84591   7.442   8.175   2.359  1.1154 -0.9514  0.2921
  627MOL0     H84592   7.348   8.111   2.137  1.3962 -1.5468 -0.7487
  627MOL0     H84593   7.330   7.946   2.203 -0.6391  0.0747  1.4889
  627MOL0     H84594   7.186   8.073   2.369  2.5253  3.0119 -0.1517
  627MOL0     H84595   7.124   8.017   2.214  0.4940 -0.7140 -0.3802
  627MOL0     H84596   7.100   8.220   2.013  3.0843 -0.0188 -1.1815
  627MOL0     H84597   6.946   8.569   2.062 -2.4050 -0.3073 -1.4013
  627MOL0     H84598   7.080   8.499   1.974  1.3389  1.1398  3.1878
  627MOL0     H84599   6.779   8.414   1.997 -0.3818 -0.7358  0.4414
  627MOL0     H84600   6.892   8.303   1.934 -4.5263 -0.5191  2.5075
  627MOL0     H84601   6.932   8.430   1.736 -1.4679 -1.0626 -1.6164
  627MOL0     H84602   6.865   8.579   1.810 -0.8167  0.5648 -1.0773
  627MOL0     H84603   6.650   8.489   1.821 -0.4808  1.6436 -1.0555
  627MOL0     H84604   6.697   8.329   1.759  0.0493  0.3804  0.6293
  627MOL0     H84605   6.662   8.571   1.376 -0.6120 -1.8383 -4.2689
  627MOL0     H84606   6.548   8.597   1.162  0.3327  3.3759 -0.0663
  627MOL0     H84607   6.367   8.575   1.156 -2.9642  0.6322  2.9619
  627MOL0     H84608   6.436   8.706   1.232  0.4546 -0.0659  1.3479
  627MOL0     H84609   5.934   8.208   1.431 -2.8941 -0.3781  1.2352
  627MOL0     H84610   5.721   8.160   1.329  0.1951 -1.3581 -1.4235
  627MOL0     H84611   5.543   8.385   1.207 -1.2654 -1.5628  0.5790
  627MOL0     H84612   5.533   8.429   1.030 -1.7031 -1.7386 -2.8626
  627MOL0     H84613   5.336   8.338   1.097  1.4176  1.7001 -0.9299
  627MOL0     H84614   5.427   8.213   0.998 -1.3268 -0.2029  0.3456
  627MOL0     H84615   5.444   8.181   1.299 -1.9321 -0.2685  1.1777
  627MOL0     H84616   5.441   8.070   1.162  0.3913  0.4266 -1.4680
  627MOL0     H84617   5.190   8.228   1.230 -1.6836 -0.8028 -1.5374
  627MOL0     H84618   5.196   8.069   1.159  1.2212  0.7268 -0.6878
  627MOL0     H84619   5.213   8.149   1.451  2.8431  0.2954 -1.2914
  627MOL0     H84620   5.269   7.984   1.402  2.0266  1.3541  2.3979
  627MOL0     H84621   4.998   8.096   1.349  1.4853  0.4656 -0.5561
  627MOL0     H84622   5.058   7.956   1.277 -1.8865  0.3280  1.0046
  627MOL0     H84623   4.993   7.990   1.575  1.1254  1.8044  0.2520
  627MOL0     H84624   5.118   7.881   1.525 -1.4836  0.3837  1.1756
  627MOL0     H84625   4.900   7.774   1.524  1.6354 -1.7321 -0.4117
  627MOL0     H84626   4.957   7.785   1.361 -2.1887 -2.2383  2.0180
  627MOL0     H84627   5.828   8.443   1.016 -2.2075 -0.5643  0.1954
  627MOL0     H84628   6.020   8.496   1.134  1.8714 -1.9489  0.7595
  627MOL0     H84629   6.311   8.273   1.526 -2.2059  0.0272 -1.1251
  627MOL0     H84630   6.489   8.325   1.675 -0.2453  1.8098  0.2040
  627MOL0     H84631   8.227   8.306   2.693  0.3003  3.5065 -1.1911
  627MOL0     H84632   8.433   8.432   2.642 -0.7023 -0.4284  0.4564
  627MOL0     H84633   8.757   8.547   2.321 -0.2815 -1.5102  0.6449
  627MOL0     H84634   8.959   8.689   2.266 -0.9360 -1.1964 -0.9171
  627MOL0     H84635   9.252   8.707   2.594  0.3972 -1.0478  2.3407
  627MOL0     H84636   9.344   8.583   2.485 -1.1944 -0.2480 -1.9219
  627MOL0     H84637   9.360   8.889   2.476  1.9507 -0.4412  1.4681
  627MOL0     H84638   9.381   8.785   2.337 -0.6261  0.4329  0.0540
  627MOL0     H84639   9.556   8.657   2.469 -0.3937  0.2169 -1.2441
  627MOL0     H84640   9.552   8.786   2.587  4.0399 -1.3969  0.2882
  627MOL0     H84641   9.599   8.962   2.414  1.0025  0.4045 -0.6299
  627MOL0     H84642   9.592   8.832   2.290 -1.3011 -2.3113  1.6472
  627MOL0     H84643   9.985   8.816   2.433 -0.1741 -3.1224 -0.5095
  627MOL0     H84644   9.132   8.567   2.640 -0.6179 -0.7727  0.5020
  627MOL0     H84645   8.925   8.454   2.705  3.3231 -0.6006  0.0248
  628MOL0     O84646   9.494   1.752   0.629  0.6246 -0.4419  0.7924
  628MOL0     C84647   9.610   1.773   0.592  0.1872 -0.1403  0.9421
  628MOL0     O84648   9.704   1.672   0.566  0.0278  0.1414 -0.2513
  628MOL0     C84649   9.678   1.544   0.616 -0.5165 -0.3936 -0.1964
  628MOL0     C84650   9.645   1.512   0.753 -0.2573 -0.6221 -0.0415
  628MOL0     C84651   9.626   1.380   0.797 -0.6767  0.4778  0.0578
  628MOL0     C84652   9.655   1.276   0.702  1.1514  0.1456 -0.7763
  628MOL0     O84653   9.636   1.146   0.725 -0.0357  0.1701  0.7421
  628MOL0     C84654   9.566   1.096   0.830 -0.6782 -0.3358 -0.8225
  628MOL0     C84655   9.601   0.950   0.838  0.7215  1.0526  0.0336
  628MOL0     C84656   9.728   0.923   0.908 -0.6303 -0.3795 -0.1029
  628MOL0     C84657   9.794   0.802   0.850 -1.4407 -0.4299 -0.0610
  628MOL0     C84658   9.912   0.749   0.942 -0.3244  0.4344 -0.0554
  628MOL0     C84659   9.872   0.713   1.087 -0.5713  0.2743 -0.1041
  628MOL0     C84660   9.993   0.673   1.172  0.5040 -0.4495  0.0121
  628MOL0     C84661   9.946   0.632   1.317  0.2777 -0.3519  0.2528
  628MOL0     N84662   9.897   0.497   1.332 -0.6799 -0.4388 -0.5069
  628MOL0     C84663   9.767   0.463   1.335  0.4041 -0.1188 -0.0771
  628MOL0     C84664   9.759   0.326   1.359  0.0344  0.8164 -0.2417
  628MOL0     C84665   9.637   0.245   1.400  0.6669  0.4537  0.5134
  628MOL0     C84666   9.532   0.317   1.476 -0.2652  0.3582  0.3393
  628MOL0     C84667   9.413   0.237   1.527  0.5087 -0.0097 -0.1316
  628MOL0     C84668   9.322   0.336   1.601  0.0856  0.6145 -0.1342
  628MOL0     O84669   9.271   0.441   1.509 -0.8284  0.8383  0.2703
  628MOL0     C84670   9.131   0.441   1.501 -0.3498  0.0040  0.2398
  628MOL0     C84671   9.073   0.447   1.371 -0.8184  0.2770 -0.3400
  628MOL0     C84672   8.930   0.447   1.355 -0.2550  0.1230 -1.0393
  628MOL0     C84673   8.874   0.445   1.217 -0.5923  0.6023 -0.9979
  628MOL0     C84674   8.841   0.457   1.467 -0.1273 -0.5803 -0.3019
  628MOL0     C84675   8.690   0.468   1.462  0.2621 -0.0267 -0.4287
  628MOL0     O84676   8.626   0.522   1.567  0.3653  0.6770 -0.4052
  628MOL0     C84677   8.491   0.490   1.581 -0.6847  0.0862  0.2374
  628MOL0     C84678   8.387   0.570   1.513 -0.0448  0.0478 -0.3822
  628MOL0     C84679   8.253   0.537   1.530  0.0229 -0.1715 -0.2977
  628MOL0     C84680   8.221   0.439   1.616  0.3145 -0.1969  0.4089
  628MOL0     O84681   8.096   0.409   1.649  0.8711  0.5914  0.1725
  628MOL0     C84682   7.996   0.406   1.544 -0.1608  0.4134  0.5087
  628MOL0     C84683   7.876   0.340   1.604 -0.1612  0.0631  0.5560
  628MOL0     C84684   7.773   0.341   1.502  0.5077  0.7416  0.0400
  628MOL0     C84685   7.630   0.297   1.543 -0.1260 -0.6094 -0.4389
  628MOL0     C84686   7.535   0.318   1.421  0.4061  0.4050  0.2560
  628MOL0     C84687   7.386   0.325   1.456 -1.1396  0.3252  0.3975
  628MOL0     C84688   7.299   0.375   1.341  0.1860 -0.1051 -0.3237
  628MOL0     C84689   7.160   0.308   1.350  0.6119  0.2824 -0.1287
  628MOL0    Cl84690   7.170   0.118   1.332  0.9216 -0.0702  0.1586
  628MOL0     C84691   8.317   0.374   1.691 -0.1411  0.4503 -0.2589
  628MOL0     C84692   8.455   0.395   1.668  0.2198  0.1989  0.4657
  628MOL0     O84693   8.625   0.432   1.360  0.0126  0.0629 -0.3771
  628MOL0     C84694   8.906   0.454   1.591  0.2453  0.6153  0.5149
  628MOL0     C84695   9.045   0.442   1.614 -1.2635  0.2874  0.1117
  628MOL0     N84696   9.885   0.279   1.341  0.2706 -0.0716  0.9084
  628MOL0     N84697   9.971   0.374   1.341 -0.4714 -0.4363 -0.6999
  628MOL0     C84698   9.684   1.309   0.575 -0.0557  0.4763 -0.5925
  628MOL0     C84699   9.703   1.437   0.530  0.3224 -0.1970 -0.2584
  628MOL0     C84700   9.647   1.915   0.581 -0.6095 -1.2541  0.3533
  628MOL0     C84701   9.762   1.951   0.500  0.3237  0.1430 -0.2643
  628MOL0     C84702   9.788   2.083   0.480 -0.3523 -0.5196 -0.4012
  628MOL0     C84703   9.711   2.188   0.545  0.7312  0.2069  0.4109
  628MOL0     O84704   9.748   2.314   0.508 -0.4581  0.6826  0.1147
  628MOL0     C84705   9.730   2.420   0.613  0.0892  0.1242  0.5051
  628MOL0     C84706   9.825   2.530   0.571 -0.7584  0.0263  0.1189
  628MOL0     C84707   9.973   2.482   0.585  0.0304  0.5459 -0.0510
  628MOL0     C84708  10.077   2.577   0.520  0.1920 -0.3547  0.6692
  628MOL0     C84709  10.217   2.534   0.522 -0.1196 -0.1134  0.3893
  628MOL0     C84710  10.336   2.511   0.519 -0.1797 -0.6764 -0.9687
  628MOL0     C84711   9.609   2.152   0.626  0.5936 -0.6219 -0.5160
  628MOL0     C84712   9.572   2.020   0.650 -0.5417  0.3967 -0.8491
  628MOL0     H84713   9.603   1.596   0.807 -0.4531  0.0202 -1.1708
  628MOL0     H84714   9.591   1.357   0.897 -0.0995 -1.0616 -0.0563
  628MOL0     H84715   9.602   1.142   0.922 -1.5814 -3.2579  1.1287
  628MOL0     H84716   9.460   1.113   0.809 -0.9149 -1.6048 -0.7631
  628MOL0     H84717   9.523   0.898   0.894  2.6187 -3.8092 -1.3183
  628MOL0     H84718   9.605   0.903   0.740 -0.5026  0.6099  0.1744
  628MOL0     H84719   9.793   1.009   0.891  1.6173 -1.8871  0.4073
  628MOL0     H84720   9.703   0.918   1.014  2.4505 -1.8128  0.6653
  628MOL0     H84721   9.725   0.717   0.840  0.4231 -2.3163  2.1247
  628MOL0     H84722   9.843   0.832   0.757  0.5214  0.4093  1.1897
  628MOL0     H84723   9.961   0.666   0.891  0.8509 -0.2015  1.9897
  628MOL0     H84724   9.984   0.832   0.948 -1.8933  2.1258 -2.5899
  628MOL0     H84725   9.808   0.785   1.139  1.2619  3.5857 -2.0816
  628MOL0     H84726   9.818   0.618   1.079 -0.8647  0.1150  2.8577
  628MOL0     H84727  10.056   0.591   1.136  2.0389 -0.3108  2.2136
  628MOL0     H84728  10.058   0.761   1.185  0.0824 -0.3620  1.7176
  628MOL0     H84729   9.877   0.708   1.355  0.2300 -0.4501  0.3646
  628MOL0     H84730  10.036   0.645   1.379  0.2846  3.5270 -0.3078
  628MOL0     H84731   9.676   0.520   1.319 -0.8297 -1.8855  0.3514
  628MOL0     H84732   9.577   0.228   1.310  0.5501 -1.4002  0.8999
  628MOL0     H84733   9.671   0.153   1.447  4.5618  1.6952  0.4565
  628MOL0     H84734   9.493   0.396   1.412 -2.6620  2.8275  4.4158
  628MOL0     H84735   9.568   0.371   1.564 -2.5597  1.4631  0.6809
  628MOL0     H84736   9.447   0.156   1.592  1.7696 -0.9358 -1.8598
  628MOL0     H84737   9.352   0.200   1.445 -0.1542  1.3924 -0.2876
  628MOL0     H84738   9.361   0.386   1.690 -1.1826  0.8945  0.2804
  628MOL0     H84739   9.235   0.275   1.625  0.0190  0.4356 -0.7874
  628MOL0     H84740   9.147   0.424   1.295 -0.3381 -1.0324  0.4833
  628MOL0     H84741   8.952   0.405   1.150  0.4539  3.1815 -1.4213
  628MOL0     H84742   8.795   0.370   1.204 -0.0966  0.0422 -0.8222
  628MOL0     H84743   8.857   0.545   1.178 -0.0024  0.1111 -2.6200
  628MOL0     H84744   8.423   0.642   1.441 -1.6306  2.5191  1.1341
  628MOL0     H84745   8.170   0.588   1.482  0.2464 -2.4120 -3.4016
  628MOL0     H84746   7.982   0.505   1.499  0.8107 -0.6172 -2.2963
  628MOL0     H84747   8.034   0.345   1.462  2.1546  1.3002  0.8495
  628MOL0     H84748   7.903   0.236   1.628 -1.5780 -1.1904 -2.6486
  628MOL0     H84749   7.849   0.395   1.694 -2.2465 -1.6129  1.0548
  628MOL0     H84750   7.815   0.277   1.424  0.2376 -2.1256  2.0870
  628MOL0     H84751   7.755   0.446   1.480 -2.0534  0.6029  1.0952
  628MOL0     H84752   7.635   0.196   1.584 -1.4169 -0.4312  0.2099
  628MOL0     H84753   7.588   0.350   1.628  0.8242  0.2994 -0.5122
  628MOL0     H84754   7.554   0.237   1.350  1.5242  0.9411 -0.0661
  628MOL0     H84755   7.573   0.407   1.371  3.1893 -1.0573 -0.4481
  628MOL0     H84756   7.367   0.224   1.494  2.6296 -0.2126  1.2651
  628MOL0     H84757   7.378   0.393   1.541  2.8833  0.6513  0.7229
  628MOL0     H84758   7.351   0.351   1.248  1.2723  0.5078  0.1003
  628MOL0     H84759   7.295   0.484   1.340 -0.7751 -0.1324 -0.4455
  628MOL0     H84760   7.104   0.349   1.266 -0.5233 -1.2053 -0.1452
  628MOL0     H84761   7.111   0.337   1.443  0.1946  0.7607 -0.4897
  628MOL0     H84762   8.297   0.315   1.779 -1.1883  0.3295 -0.5681
  628MOL0     H84763   8.540   0.360   1.725  0.7358 -0.9902 -0.9780
  628MOL0     H84764   8.835   0.453   1.673  1.7247  0.4012  1.8345
  628MOL0     H84765   9.073   0.431   1.719  2.7207 -1.6772 -0.9618
  628MOL0     H84766   9.703   1.230   0.503  2.5355  3.5759 -3.6581
  628MOL0     H84767   9.722   1.459   0.425  1.8285 -1.8150 -0.3614
  628MOL0     H84768   9.826   1.868   0.470  1.9194  0.4232  2.1214
  628MOL0     H84769   9.864   2.117   0.411  2.6807 -1.6956  2.1589
  628MOL0     H84770   9.627   2.455   0.607  0.3693  0.9072  0.1335
  628MOL0     H84771   9.756   2.385   0.713  1.2337 -1.7158 -0.3780
  628MOL0     H84772   9.815   2.614   0.640  4.3706  0.9702  0.0975
  628MOL0     H84773   9.802   2.555   0.467  3.9091 -0.7149 -1.3263
  628MOL0     H84774   9.988   2.387   0.532  2.2685 -0.7982  2.7296
  628MOL0     H84775   9.995   2.476   0.692  2.2975  2.5220 -0.3145
  628MOL0     H84776  10.074   2.663   0.588 -1.3252 -0.2035  0.4396
  628MOL0     H84777  10.045   2.608   0.421  2.0262 -1.2247 -0.2479
  628MOL0     H84778  10.439   2.485   0.502  1.2952  1.9845  2.5469
  628MOL0     H84779   9.573   2.234   0.687 -1.8210 -1.6796 -0.4153
  628MOL0     H84780   9.513   1.986   0.735  0.1147  0.3488 -0.4043
  629MOL0     O84781   7.370   9.781   7.861  0.4382  0.1348 -1.1050
  629MOL0     C84782   7.436   9.774   7.760  0.4281 -0.7096 -0.3208
  629MOL0     O84783   7.425   9.866   7.656 -0.4181  0.8565 -1.0375
  629MOL0     C84784   7.326   9.958   7.661 -0.3868 -0.0878  0.0461
  629MOL0     C84785   7.202   9.916   7.644  0.6901  0.0445 -0.0330
  629MOL0     C84786   7.093  10.002   7.645 -0.5568 -0.8930  0.1359
  629MOL0     C84787   7.112  10.143   7.658 -0.4524  0.2755  0.6533
  629MOL0     O84788   7.017  10.234   7.644  0.6495 -0.4938  0.8121
  629MOL0     C84789   6.877  10.192   7.661 -0.6886  0.0368 -0.0040
  629MOL0     C84790   6.791  10.316   7.688 -0.4192  0.6932 -0.3329
  629MOL0     C84791   6.642  10.290   7.734 -0.5473  0.5289 -0.0852
  629MOL0     C84792   6.547  10.255   7.625  0.0104  0.0428 -0.1441
  629MOL0     C84793   6.418  10.220   7.680  1.2462  0.7337 -0.5209
  629MOL0     C84794   6.319  10.204   7.564  0.1587 -0.2971  1.0303
  629MOL0     C84795   6.180  10.214   7.611 -0.5305  0.3835 -0.2356
  629MOL0     C84796   6.096  10.162   7.488  0.7264  0.4337 -0.0515
  629MOL0     N84797   5.953  10.171   7.529 -0.2538  1.0214 -0.2786
  629MOL0     C84798   5.897  10.072   7.611  0.3301  0.3206 -0.0950
  629MOL0     C84799   5.766  10.076   7.576  1.3192 -0.1000 -0.1511
  629MOL0     C84800   5.675   9.967   7.625  0.2706  0.1958 -0.1114
  629MOL0     C84801   5.524   9.997   7.602  0.4764 -0.6598 -0.3676
  629MOL0     C84802   5.434   9.927   7.706  1.1894 -0.1001 -0.1013
  629MOL0     C84803   5.294   9.934   7.669 -0.9474  0.2530  0.6954
  629MOL0     O84804   5.245  10.065   7.639 -0.9187 -0.2156  0.1981
  629MOL0     C84805   5.196  10.137   7.744 -0.2545  0.3436 -0.1413
  629MOL0     C84806   5.169  10.080   7.874 -0.0463 -0.1921 -0.2402
  629MOL0     C84807   5.119  10.156   7.977  0.0822  1.3144 -0.6376
  629MOL0     C84808   5.090  10.087   8.106 -0.3153 -1.0209  0.6090
  629MOL0     C84809   5.081  10.286   7.952 -1.7376 -0.0248 -0.1031
  629MOL0     C84810   5.033  10.379   8.058 -0.3265  0.1210 -0.5263
  629MOL0     O84811   5.074  10.356   8.188 -0.4649  0.0037 -0.9016
  629MOL0     C84812   4.986  10.372   8.297  0.2030 -0.6501  0.2460
  629MOL0     C84813   4.855  10.308   8.295 -0.2087 -1.4623 -0.4349
  629MOL0     C84814   4.778  10.313   8.407 -0.7009  1.0366  0.0786
  629MOL0     C84815   4.809  10.385   8.522 -0.2392  0.4472 -0.3165
  629MOL0     O84816   4.728  10.380   8.634  0.6452 -0.2164 -0.0486
  629MOL0     C84817   4.714  10.482   8.732 -0.3458 -0.5826  0.0451
  629MOL0     C84818   4.598  10.448   8.820 -0.1983 -0.0669  0.4768
  629MOL0     C84819   4.461  10.461   8.746 -0.8588  0.3120 -0.4064
  629MOL0     C84820   4.343  10.418   8.835 -0.1223  0.6965  0.2280
  629MOL0     C84821   4.205  10.445   8.761 -0.4015  0.3491  0.0451
  629MOL0     C84822   4.084  10.417   8.858  0.0474 -0.2090  0.1134
  629MOL0     C84823   3.952  10.470   8.790  0.3298 -0.1839 -0.1862
  629MOL0     C84824   3.837  10.468   8.896  0.0061  0.8945  0.7553
  629MOL0    Cl84825   3.785  10.304   8.933 -0.2738  0.1249  0.1436
  629MOL0     C84826   4.929  10.458   8.525 -0.9458  0.0406 -0.4636
  629MOL0     C84827   5.018  10.453   8.416  0.9086  0.8380  0.4609
  629MOL0     O84828   4.946  10.459   8.030 -0.5469  0.3808 -0.9385
  629MOL0     C84829   5.100  10.344   7.826 -0.4652  0.1489 -0.1391
  629MOL0     C84830   5.159  10.267   7.728  0.1484 -0.2011 -0.1550
  629MOL0     N84831   5.747  10.185   7.485 -0.4894  0.6683 -0.7755
  629MOL0     N84832   5.863  10.235   7.455  0.7683 -0.4090  0.1260
  629MOL0     C84833   7.245  10.184   7.683  0.0691 -0.4424  0.6574
  629MOL0     C84834   7.348  10.097   7.684 -0.8426  0.4023 -0.4039
  629MOL0     C84835   7.551   9.680   7.757 -0.4627  0.4168 -0.4095
  629MOL0     C84836   7.556   9.566   7.835  0.0166 -0.0070  0.3474
  629MOL0     C84837   7.661   9.479   7.816 -0.0887  0.2554 -0.4071
  629MOL0     C84838   7.761   9.505   7.720 -0.1453  0.0073 -0.6179
  629MOL0     O84839   7.864   9.412   7.712  0.4935 -0.5020  0.1919
  629MOL0     C84840   7.845   9.338   7.586  0.6807 -0.6212 -0.1618
  629MOL0     C84841   7.976   9.263   7.558  0.3878 -0.8524  0.3092
  629MOL0     C84842   8.097   9.356   7.535  0.8693 -0.3724 -0.2456
  629MOL0     C84843   8.217   9.281   7.476 -0.0421 -0.0650  0.3594
  629MOL0     C84844   8.221   9.282   7.328 -1.1333  0.4784 -0.6913
  629MOL0     C84845   8.212   9.294   7.207  0.7457  0.6650 -0.0572
  629MOL0     C84846   7.766   9.629   7.653 -0.4486 -0.5797 -0.9805
  629MOL0     C84847   7.657   9.712   7.672 -0.2673 -0.4427 -0.4522
  629MOL0     H84848   7.181   9.812   7.624 -0.2777  0.6758 -2.7898
  629MOL0     H84849   6.989   9.970   7.643 -0.7102 -0.7595  2.9484
  629MOL0     H84850   6.841  10.132   7.577 -0.5072 -0.2417  0.1183
  629MOL0     H84851   6.860  10.131   7.750  0.8157  0.3698  0.5407
  629MOL0     H84852   6.848  10.361   7.769 -0.3326  0.8427 -0.4764
  629MOL0     H84853   6.782  10.375   7.597 -2.0110 -3.1326 -2.9492
  629MOL0     H84854   6.637  10.198   7.793  0.2585 -1.0084 -2.2863
  629MOL0     H84855   6.606  10.374   7.794  0.6855 -0.7076  2.5429
  629MOL0     H84856   6.542  10.345   7.563  1.5275  0.0739 -0.2444
  629MOL0     H84857   6.584  10.178   7.558  0.8696 -0.2530  0.6531
  629MOL0     H84858   6.429  10.126   7.734 -0.2032  1.9017  1.9900
  629MOL0     H84859   6.388  10.291   7.758  1.7206  1.7954 -1.2793
  629MOL0     H84860   6.339  10.277   7.486  1.2385 -0.4605  1.1328
  629MOL0     H84861   6.336  10.102   7.529 -0.1885 -0.8424  2.3678
  629MOL0     H84862   6.154  10.161   7.703 -0.2664 -3.5181 -2.2210
  629MOL0     H84863   6.158  10.318   7.637  2.0818  0.7593  0.7325
  629MOL0     H84864   6.125  10.058   7.468  2.1238  1.1374 -2.0622
  629MOL0     H84865   6.111  10.228   7.401 -0.2462 -0.0892 -0.6320
  629MOL0     H84866   5.940   9.990   7.667 -0.2292 -1.4927 -2.1699
  629MOL0     H84867   5.707   9.880   7.567  2.0133  0.0692  0.9827
  629MOL0     H84868   5.690   9.957   7.733 -0.7235 -0.5529 -0.0302
  629MOL0     H84869   5.505   9.959   7.501  0.0942  2.7204 -1.7092
  629MOL0     H84870   5.503  10.105   7.606 -1.2686 -1.0203  1.5996
  629MOL0     H84871   5.436   9.972   7.805 -0.3029 -2.7387  1.2340
  629MOL0     H84872   5.469   9.824   7.714 -0.0187 -0.7221 -2.0726
  629MOL0     H84873   5.232   9.873   7.735 -0.5386  0.1065  0.9481
  629MOL0     H84874   5.298   9.885   7.572  0.8824  2.1380 -0.2679
  629MOL0     H84875   5.194   9.979   7.903  0.1685 -0.0954 -0.0853
  629MOL0     H84876   5.075   9.979   8.096  0.7866 -1.1662  0.3819
  629MOL0     H84877   5.176  10.099   8.173  1.1726 -1.7897 -1.0877
  629MOL0     H84878   4.996  10.129   8.143  0.1023 -1.2066  1.9308
  629MOL0     H84879   4.796  10.260   8.217 -0.5845 -0.1458 -0.9793
  629MOL0     H84880   4.680  10.272   8.388 -0.7214  1.9591 -2.1158
  629MOL0     H84881   4.812  10.483   8.781 -0.5549 -1.1945  0.4854
  629MOL0     H84882   4.698  10.580   8.686  0.6825  0.0413  0.9542
  629MOL0     H84883   4.614  10.349   8.863  2.1173  0.1910  0.3173
  629MOL0     H84884   4.600  10.519   8.903 -0.1914 -0.6932  1.0166
  629MOL0     H84885   4.461  10.389   8.663 -1.1069  0.7720 -0.8089
  629MOL0     H84886   4.439  10.564   8.718 -1.1418  0.4358  0.2524
  629MOL0     H84887   4.341  10.309   8.845 -2.8426  0.7790  1.2639
  629MOL0     H84888   4.339  10.464   8.934 -1.5139  1.8409 -0.3333
  629MOL0     H84889   4.191  10.377   8.677  0.8355 -0.2355  0.2874
  629MOL0     H84890   4.196  10.544   8.715 -2.5550 -0.1641 -0.7246
  629MOL0     H84891   4.080  10.313   8.891  0.6601 -0.4541 -0.5686
  629MOL0     H84892   4.102  10.469   8.953  1.6596  1.6264 -1.0995
  629MOL0     H84893   3.928  10.407   8.705 -2.3172  2.3516 -1.5272
  629MOL0     H84894   3.952  10.576   8.760 -1.3974  0.5525  2.0559
  629MOL0     H84895   3.749  10.521   8.860  0.0064  0.8992  0.7612
  629MOL0     H84896   3.875  10.518   8.985  0.2013 -0.8119  1.6671
  629MOL0     H84897   4.957  10.516   8.612 -0.5977  0.3707 -0.7890
  629MOL0     H84898   5.113  10.506   8.415  0.0160  2.4991 -0.0578
  629MOL0     H84899   5.069  10.444   7.798  0.0931  0.0948 -0.9770
  629MOL0     H84900   5.172  10.306   7.628  1.1208  0.2062  0.1148
  629MOL0     H84901   7.274  10.288   7.693 -0.0344 -0.1098 -1.8883
  629MOL0     H84902   7.449  10.134   7.695 -0.6588  1.3512 -4.0106
  629MOL0     H84903   7.484   9.546   7.913 -0.1894  1.0358  0.4423
  629MOL0     H84904   7.660   9.390   7.879  1.7518 -2.4036 -3.7814
  629MOL0     H84905   7.756   9.276   7.603  1.1816 -1.3473 -0.1343
  629MOL0     H84906   7.827   9.420   7.516  0.2240  2.6322  3.3885
  629MOL0     H84907   7.961   9.201   7.470 -1.7611  2.9902 -2.3508
  629MOL0     H84908   7.999   9.194   7.640  0.5757 -1.6200 -0.3793
  629MOL0     H84909   8.123   9.393   7.634 -2.3522  0.9120  0.2364
  629MOL0     H84910   8.066   9.441   7.474 -0.0349 -0.6635 -0.2096
  629MOL0     H84911   8.224   9.184   7.525 -1.0178 -0.6956 -0.6998
  629MOL0     H84912   8.312   9.328   7.499 -0.8718  1.1224  1.4946
  629MOL0     H84913   8.202   9.278   7.102  0.3399  0.3866  0.0229
  629MOL0     H84914   7.849   9.664   7.592 -0.2319  0.0115 -0.3606
  629MOL0     H84915   7.655   9.816   7.642  2.1747 -0.1464  0.1936
  630MOL0     O84916   9.279   8.011   6.662 -0.0983 -0.3054 -0.5980
  630MOL0     C84917   9.353   8.002   6.571 -0.4883 -0.4530  0.4094
  630MOL0     O84918   9.320   7.952   6.448  0.3533 -0.0036 -0.5169
  630MOL0     C84919   9.187   7.932   6.401 -0.2324 -0.4681  0.0910
  630MOL0     C84920   9.077   7.992   6.460  0.9570  0.3021 -0.2294
  630MOL0     C84921   8.951   7.969   6.414  0.5949  1.5963 -0.4142
  630MOL0     C84922   8.926   7.887   6.307 -0.0305  0.3389 -0.3618
  630MOL0     O84923   8.809   7.826   6.256  0.4474  0.5467 -0.2862
  630MOL0     C84924   8.706   7.808   6.360 -0.2751  0.5409 -0.0825
  630MOL0     C84925   8.580   7.725   6.309 -0.5156  0.0829 -0.5416
  630MOL0     C84926   8.501   7.801   6.201  0.1979  0.6156 -0.2002
  630MOL0     C84927   8.386   7.717   6.143 -0.0235  0.4905  1.0846
  630MOL0     C84928   8.271   7.717   6.232  0.3960  1.1534 -0.0044
  630MOL0     C84929   8.162   7.650   6.156 -0.1932 -0.5186 -0.6735
  630MOL0     C84930   8.040   7.595   6.230  0.9804 -0.2043 -0.0405
  630MOL0     C84931   7.901   7.621   6.168  0.1763 -0.4187  0.2471
  630MOL0     N84932   7.793   7.640   6.270  0.5018  0.6664 -0.0129
  630MOL0     C84933   7.733   7.534   6.338  0.5778  0.5340  0.4994
  630MOL0     C84934   7.629   7.587   6.410  0.3609 -1.0851 -1.3058
  630MOL0     C84935   7.533   7.506   6.491  0.2887 -0.3842  0.7215
  630MOL0     C84936   7.421   7.589   6.553  0.0142 -0.1614 -0.2910
  630MOL0     C84937   7.311   7.634   6.450  0.0344  0.4324 -0.3260
  630MOL0     C84938   7.184   7.670   6.525  0.5360  0.3566  0.2573
  630MOL0     O84939   7.194   7.795   6.578 -0.2731 -0.6450 -0.1849
  630MOL0     C84940   7.080   7.872   6.596 -0.1197 -0.2638  0.9956
  630MOL0     C84941   7.104   7.997   6.639  0.2617  0.1014 -1.0711
  630MOL0     C84942   7.006   8.092   6.653 -0.3437 -0.0446  0.4060
  630MOL0     C84943   7.054   8.233   6.687 -0.4543  0.4405 -0.0436
  630MOL0     C84944   6.870   8.048   6.633  0.2642  0.0347  0.5413
  630MOL0     C84945   6.753   8.144   6.652 -0.3551  0.6557  0.1942
  630MOL0     O84946   6.635   8.091   6.607  0.6161 -0.1629  0.2420
  630MOL0     C84947   6.535   8.175   6.588  0.6347 -1.7293  0.4248
  630MOL0     C84948   6.490   8.207   6.451 -0.5426 -0.7987  0.7082
  630MOL0     C84949   6.384   8.294   6.424 -0.5394  0.4543  0.0750
  630MOL0     C84950   6.298   8.327   6.530  0.4034  0.1543  0.4705
  630MOL0     O84951   6.191   8.408   6.492 -0.2410  0.1660 -0.3743
  630MOL0     C84952   6.152   8.506   6.587  0.9732 -0.0946  0.3445
  630MOL0     C84953   6.019   8.569   6.532  0.0401  0.2664 -1.1127
  630MOL0     C84954   5.999   8.724   6.543  0.2201  0.4865 -0.4538
  630MOL0     C84955   6.085   8.806   6.455 -0.6573 -0.9196 -0.1579
  630MOL0     C84956   6.053   8.792   6.308  0.9871 -0.4114 -0.0372
  630MOL0     C84957   5.909   8.828   6.258 -0.0139  1.0138  0.4861
  630MOL0     C84958   5.878   8.975   6.293  0.5175  0.9459  0.3858
  630MOL0     C84959   5.727   9.005   6.301 -1.0215 -0.6228 -0.6903
  630MOL0    Cl84960   5.647   8.919   6.441 -0.4248  0.2934  0.0946
  630MOL0     C84961   6.340   8.300   6.662  0.2380  0.1499  0.2682
  630MOL0     C84962   6.458   8.232   6.693  0.1965 -0.2227 -0.1216
  630MOL0     O84963   6.776   8.254   6.699  0.2566  0.0009  0.9129
  630MOL0     C84964   6.845   7.916   6.592 -0.2384 -1.8057 -0.2213
  630MOL0     C84965   6.951   7.833   6.576  0.5873  1.2351 -0.5430
  630MOL0     N84966   7.621   7.723   6.388  0.5486 -0.3676  0.4961
  630MOL0     N84967   7.712   7.755   6.298 -0.7497 -0.2998  0.4932
  630MOL0     C84968   9.039   7.842   6.231  0.3415  0.7331 -0.3521
  630MOL0     C84969   9.171   7.857   6.285 -0.0897 -0.1791 -0.2331
  630MOL0     C84970   9.500   8.044   6.595 -0.0687 -0.2534  0.6956
  630MOL0     C84971   9.559   8.094   6.717  0.1451  0.5393 -0.1672
  630MOL0     C84972   9.695   8.135   6.711 -0.0980  0.2455 -0.0403
  630MOL0     C84973   9.771   8.130   6.594  0.4007 -0.0857  0.3843
  630MOL0     O84974   9.904   8.178   6.581  0.1399 -0.1488 -0.0380
  630MOL0     C84975   9.936   8.305   6.650 -0.1361  0.6373  0.1698
  630MOL0     C84976  10.047   8.377   6.579 -0.4208  0.1112 -0.3671
  630MOL0     C84977  10.182   8.312   6.600 -0.4153  0.2004  0.2719
  630MOL0     C84978  10.252   8.337   6.735 -0.4866  0.5412  0.3659
  630MOL0     C84979  10.305   8.475   6.744 -0.0317  0.9625  0.2771
  630MOL0     C84980  10.349   8.593   6.743  0.2235 -0.1505 -0.0053
  630MOL0     C84981   9.713   8.073   6.483 -0.1362 -0.3771 -0.4310
  630MOL0     C84982   9.579   8.031   6.484 -1.0178 -1.3182 -0.3096
  630MOL0     H84983   9.086   8.044   6.555 -0.0837  1.0422 -0.5229
  630MOL0     H84984   8.867   8.010   6.470 -0.2827 -0.0111 -0.4751
  630MOL0     H84985   8.738   7.750   6.447  3.5760  1.9308 -0.3718
  630MOL0     H84986   8.666   7.905   6.391 -1.8532 -0.2865  0.6001
  630MOL0     H84987   8.624   7.634   6.267  2.1453  1.4345 -0.9159
  630MOL0     H84988   8.526   7.692   6.398  0.2997 -3.3902 -1.1966
  630MOL0     H84989   8.463   7.898   6.234  0.2764  0.4346  0.4397
  630MOL0     H84990   8.570   7.818   6.118 -0.2788  1.0542 -0.5098
  630MOL0     H84991   8.370   7.751   6.041 -1.6691  2.2613  1.8811
  630MOL0     H84992   8.419   7.613   6.130 -2.7284 -0.7911  3.2885
  630MOL0     H84993   8.300   7.658   6.319  1.0988  0.7604 -0.4955
  630MOL0     H84994   8.233   7.816   6.258 -0.8707  1.5143 -2.9107
  630MOL0     H84995   8.124   7.714   6.077  0.0184  1.0638  0.4648
  630MOL0     H84996   8.198   7.559   6.106  0.6241 -0.4232 -0.2866
  630MOL0     H84997   8.058   7.487   6.234 -0.9514 -0.6516 -1.8804
  630MOL0     H84998   8.041   7.642   6.329 -0.6978 -0.4177  0.1117
  630MOL0     H84999   7.868   7.538   6.105 -1.0186 -0.7800  1.3276
  630MOL0     H85000   7.901   7.716   6.113 -1.2270 -0.4623  0.1303
  630MOL0     H85001   7.769   7.432   6.328 -2.2686 -0.7071  1.7684
  630MOL0     H85002   7.493   7.425   6.430 -0.7433 -0.1124  1.0261
  630MOL0     H85003   7.585   7.454   6.573  2.4788  0.3862 -0.1012
  630MOL0     H85004   7.461   7.680   6.599  0.4030 -0.0805 -0.7918
  630MOL0     H85005   7.377   7.534   6.637  2.0862 -0.9070  0.3715
  630MOL0     H85006   7.288   7.554   6.379  1.9989 -0.5867  0.1109
  630MOL0     H85007   7.337   7.724   6.393  0.0791 -0.4581 -1.7456
  630MOL0     H85008   7.163   7.595   6.603 -0.1562 -1.5238 -1.6443
  630MOL0     H85009   7.103   7.654   6.454  0.8905  0.7532 -0.2374
  630MOL0     H85010   7.203   8.036   6.658 -0.6848  0.7999  3.4850
  630MOL0     H85011   7.040   8.248   6.794  1.4470 -1.0974  0.4569
  630MOL0     H85012   7.162   8.246   6.676 -0.5774  0.1212 -2.0227
  630MOL0     H85013   6.994   8.307   6.633  1.0120  0.8318 -1.2175
  630MOL0     H85014   6.551   8.157   6.376  0.4421 -2.1429  2.3270
  630MOL0     H85015   6.353   8.312   6.322  1.7705  1.3086 -0.5388
  630MOL0     H85016   6.135   8.471   6.689  1.8792 -1.1730  0.1432
  630MOL0     H85017   6.218   8.593   6.593  0.0184  0.6761  0.0644
  630MOL0     H85018   6.007   8.533   6.430  0.2579 -0.4606 -0.8889
  630MOL0     H85019   5.945   8.514   6.591  3.5722 -1.9348  1.6941
  630MOL0     H85020   6.019   8.751   6.647  0.9376  1.9607 -0.9505
  630MOL0     H85021   5.894   8.747   6.526  0.4089  3.6545  1.7142
  630MOL0     H85022   6.069   8.909   6.487 -0.2520 -0.4112 -1.5015
  630MOL0     H85023   6.187   8.767   6.463  0.2422  0.8258 -2.0273
  630MOL0     H85024   6.065   8.686   6.284 -0.6184 -0.7037  0.3311
  630MOL0     H85025   6.119   8.848   6.241 -1.7113  1.0310 -1.6436
  630MOL0     H85026   5.904   8.810   6.151  1.8789 -0.6072  0.6011
  630MOL0     H85027   5.839   8.767   6.317 -0.3865  0.9183 -0.0516
  630MOL0     H85028   5.928   9.038   6.218  4.0029 -2.3860 -0.3917
  630MOL0     H85029   5.920   8.998   6.391  0.7573  2.2635 -0.0023
  630MOL0     H85030   5.683   8.970   6.207 -0.1347 -0.0676 -1.3238
  630MOL0     H85031   5.709   9.111   6.323 -0.7963 -1.1014  2.2867
  630MOL0     H85032   6.289   8.334   6.751  0.9815 -0.4356  0.9354
  630MOL0     H85033   6.467   8.191   6.793 -3.1406 -2.3081 -0.5426
  630MOL0     H85034   6.747   7.868   6.589 -0.9662 -0.3720 -0.0094
  630MOL0     H85035   6.933   7.730   6.550  2.8404  0.0987  1.9251
  630MOL0     H85036   9.035   7.772   6.149 -1.9502  1.7150 -1.1757
  630MOL0     H85037   9.262   7.810   6.246  0.3076 -0.7717  1.3307
  630MOL0     H85038   9.492   8.092   6.803  0.0750 -2.7238 -0.1952
  630MOL0     H85039   9.743   8.160   6.806  1.9418 -2.2787 -0.2880
  630MOL0     H85040   9.859   8.383   6.657  0.4855  1.2715  0.0793
  630MOL0     H85041   9.965   8.290   6.754 -3.7411 -3.4619  0.8736
  630MOL0     H85042  10.051   8.475   6.626  3.4666 -1.3635  2.9672
  630MOL0     H85043  10.025   8.377   6.472 -0.7054 -1.2285 -0.3283
  630MOL0     H85044  10.249   8.350   6.522  3.7117  0.2696  3.4905
  630MOL0     H85045  10.170   8.204   6.600 -2.6744  0.4083 -0.2739
  630MOL0     H85046  10.341   8.274   6.729 -0.6847  0.3984 -2.4861
  630MOL0     H85047  10.192   8.322   6.825 -0.1093  1.6347  0.8172
  630MOL0     H85048  10.378   8.695   6.753  1.1607 -0.5294  1.2949
  630MOL0     H85049   9.766   8.074   6.388  0.7507  2.5622 -0.0008
  630MOL0     H85050   9.541   7.995   6.388 -1.1333 -0.7986 -0.4615
  631MOL0     O85051   5.942   5.804   9.353  0.3387 -0.2417  1.0796
  631MOL0     C85052   5.958   5.688   9.323  0.0891  0.5528  0.0351
  631MOL0     O85053   5.867   5.593   9.316 -0.4717 -0.0132 -1.2128
  631MOL0     C85054   5.738   5.622   9.318 -0.1185 -0.8213  0.4471
  631MOL0     C85055   5.663   5.609   9.431 -0.7383 -0.4144  0.6859
  631MOL0     C85056   5.529   5.650   9.433  0.4270  0.3781 -0.3946
  631MOL0     C85057   5.473   5.691   9.313  0.1283 -0.9379  0.9113
  631MOL0     O85058   5.342   5.742   9.310  0.4470  0.2129  0.2808
  631MOL0     C85059   5.289   5.804   9.421  0.6745  0.8856 -0.0857
  631MOL0     C85060   5.156   5.869   9.377 -0.6364  0.4786  0.2946
  631MOL0     C85061   5.141   6.009   9.441  0.1320  0.9863 -0.2780
  631MOL0     C85062   4.999   6.062   9.438 -0.4201  1.3005 -0.2225
  631MOL0     C85063   4.921   6.020   9.559 -0.3692  0.9653  0.5615
  631MOL0     C85064   4.775   6.079   9.558 -0.4465  0.2209 -0.0961
  631MOL0     C85065   4.691   5.995   9.460 -0.0147  0.6083 -0.5573
  631MOL0     C85066   4.542   6.051   9.465 -0.3840 -0.6105  0.5275
  631MOL0     N85067   4.492   6.085   9.599  0.5103  1.1073 -0.1897
  631MOL0     C85068   4.433   6.206   9.634 -0.3259 -0.4163  0.9452
  631MOL0     C85069   4.389   6.200   9.763  0.8145 -0.1450  0.0644
  631MOL0     C85070   4.332   6.302   9.849  0.1238 -0.0487 -0.6841
  631MOL0     C85071   4.244   6.396   9.759 -0.0012 -0.0307  0.3112
  631MOL0     C85072   4.139   6.323   9.669  0.9232 -0.8592  0.0197
  631MOL0     C85073   4.012   6.283   9.742  0.8076  0.3167  0.3723
  631MOL0     O85074   3.936   6.398   9.791 -1.1434  0.2863  0.0787
  631MOL0     C85075   3.831   6.368   9.876 -0.3360  0.6809  0.1934
  631MOL0     C85076   3.850   6.377  10.011  0.4574 -0.0765 -0.6540
  631MOL0     C85077   3.742   6.342  10.099  0.9452  0.2438  0.9145
  631MOL0     C85078   3.754   6.354  10.247 -0.8845  0.0475 -0.7013
  631MOL0     C85079   3.612   6.314  10.047  0.5242 -0.0557 -1.1485
  631MOL0     C85080   3.496   6.282  10.123  0.0781 -0.1787  0.0479
  631MOL0     O85081   3.475   6.156  10.163  0.8976 -0.0800  0.3782
  631MOL0     C85082   3.402   6.126  10.278  0.1274 -0.0729  0.5783
  631MOL0     C85083   3.263   6.120  10.274  0.2975 -0.2698 -0.0224
  631MOL0     C85084   3.187   6.115  10.394  0.0149 -0.5594  0.3100
  631MOL0     C85085   3.255   6.094  10.515 -0.4528  0.1354 -0.2109
  631MOL0     O85086   3.191   6.057  10.632  0.2690  0.5584  0.1811
  631MOL0     C85087   3.059   6.096  10.646  0.5883  0.0424 -0.6061
  631MOL0     C85088   3.011   6.064  10.783 -0.9122  0.6262 -0.5179
  631MOL0     C85089   2.868   6.118  10.818 -0.6179 -0.1350  0.2227
  631MOL0     C85090   2.791   6.039  10.919 -0.8155 -0.1640 -0.8962
  631MOL0     C85091   2.660   6.109  10.977 -1.2303 -0.7042  1.0043
  631MOL0     C85092   2.551   6.129  10.879  0.1209 -0.4234  0.9631
  631MOL0     C85093   2.484   5.994  10.846 -0.1353 -0.2164  0.0358
  631MOL0     C85094   2.355   6.024  10.778 -0.2213 -0.6439 -0.3782
  631MOL0    Cl85095   2.285   5.870  10.741 -0.0662 -0.0771  0.1346
  631MOL0     C85096   3.389   6.097  10.528 -0.0510 -0.8741  0.2161
  631MOL0     C85097   3.462   6.124  10.410  0.0329  0.0541  0.1467
  631MOL0     O85098   3.417   6.376  10.150 -0.0093  0.5081 -0.6325
  631MOL0     C85099   3.598   6.312   9.908 -0.6229  0.2176  0.1704
  631MOL0     C85100   3.706   6.329   9.825 -0.3852 -0.3172  0.1350
  631MOL0     N85101   4.414   6.070   9.799  0.3207  0.5077  0.4101
  631MOL0     N85102   4.471   6.008   9.704 -0.8791  0.5270  0.6937
  631MOL0     C85103   5.546   5.686   9.195 -0.0768  0.0946 -0.1381
  631MOL0     C85104   5.678   5.658   9.197  0.9364 -0.0899  0.9934
  631MOL0     C85105   6.092   5.648   9.289 -0.0252  0.1688 -0.1805
  631MOL0     C85106   6.124   5.516   9.269 -0.3301 -0.4475 -0.8749
  631MOL0     C85107   6.245   5.477   9.224 -0.1312  0.1720 -0.5986
  631MOL0     C85108   6.347   5.570   9.202 -1.1413  0.0810  0.3508
  631MOL0     O85109   6.475   5.534   9.165 -0.8732 -0.0142  0.1657
  631MOL0     C85110   6.478   5.429   9.062 -0.1405 -0.4218 -0.6148
  631MOL0     C85111   6.613   5.410   8.998 -0.5338 -0.5670 -0.1589
  631MOL0     C85112   6.691   5.317   9.084  0.4467  0.1425  0.1503
  631MOL0     C85113   6.815   5.259   9.014  0.2917  0.9915  0.0519
  631MOL0     C85114   6.911   5.368   8.979  0.5515  0.2301 -0.4211
  631MOL0     C85115   6.985   5.463   8.973  0.5336 -0.4794  0.1288
  631MOL0     C85116   6.321   5.707   9.215 -0.3347  0.8812 -0.2778
  631MOL0     C85117   6.189   5.747   9.261 -0.8346  0.4854 -0.1912
  631MOL0     H85118   5.712   5.599   9.527  0.1174  0.3400  0.3413
  631MOL0     H85119   5.464   5.652   9.519  0.8455  0.9702 -0.0828
  631MOL0     H85120   5.271   5.734   9.503  1.5230  2.4472  1.4793
  631MOL0     H85121   5.361   5.879   9.454  1.3615  0.2443 -0.1034
  631MOL0     H85122   5.162   5.877   9.268 -0.7624 -0.5911  0.2064
  631MOL0     H85123   5.075   5.798   9.394  0.4278 -1.2172 -1.2822
  631MOL0     H85124   5.185   5.998   9.540  1.5156 -0.0012 -0.9587
  631MOL0     H85125   5.203   6.079   9.384  0.8661 -1.2280 -2.3511
  631MOL0     H85126   5.015   6.170   9.435  0.3009  1.2075 -3.2673
  631MOL0     H85127   4.947   6.021   9.351  1.8059 -5.1671  0.9149
  631MOL0     H85128   4.915   5.911   9.566 -1.6096  1.0830  1.9913
  631MOL0     H85129   4.972   6.052   9.650 -0.5501 -0.9102  1.3803
  631MOL0     H85130   4.736   6.062   9.659  0.1847  0.5784  0.2126
  631MOL0     H85131   4.773   6.180   9.516 -2.2495  0.6066  0.8182
  631MOL0     H85132   4.714   6.001   9.353 -2.3822 -2.0759 -1.3768
  631MOL0     H85133   4.700   5.888   9.480 -0.5566  0.8833  1.2940
  631MOL0     H85134   4.481   5.968   9.430  1.2100 -1.3376 -0.6518
  631MOL0     H85135   4.528   6.134   9.396 -1.0864  0.8243  2.2966
  631MOL0     H85136   4.439   6.295   9.572 -3.4090  0.6529  1.9843
  631MOL0     H85137   4.279   6.257   9.933 -2.4648  0.3024 -2.0525
  631MOL0     H85138   4.416   6.359   9.890  0.1607 -0.1701 -0.5890
  631MOL0     H85139   4.316   6.461   9.708  2.4840 -1.8321  1.2978
  631MOL0     H85140   4.187   6.465   9.822  3.0765  1.6502  1.4772
  631MOL0     H85141   4.182   6.236   9.617 -1.5297 -1.0384 -1.8892
  631MOL0     H85142   4.108   6.396   9.594  2.1910 -0.9972 -0.6677
  631MOL0     H85143   4.043   6.217   9.823  2.6949  3.7328  2.6758
  631MOL0     H85144   3.940   6.239   9.672 -2.0286  4.8236  0.0372
  631MOL0     H85145   3.948   6.405  10.048  0.8989 -1.0853 -1.0224
  631MOL0     H85146   3.855   6.383  10.277 -0.5712 -1.7841  0.1523
  631MOL0     H85147   3.682   6.429  10.281 -0.6057 -0.5247  1.2790
  631MOL0     H85148   3.735   6.262  10.303 -0.4095  0.1094 -0.4393
  631MOL0     H85149   3.207   6.135  10.182 -1.0579 -3.6468  0.1335
  631MOL0     H85150   3.079   6.106  10.388  0.0649 -1.2056  0.3017
  631MOL0     H85151   3.033   6.196  10.611 -1.1016 -0.8593 -2.1388
  631MOL0     H85152   2.999   6.034  10.579  0.0336  0.0075 -0.0845
  631MOL0     H85153   2.993   5.956  10.782  0.1653  0.4249  0.1767
  631MOL0     H85154   3.081   6.096  10.861  0.3071 -3.1462  0.1550
  631MOL0     H85155   2.807   6.139  10.729 -0.4712 -1.0190 -0.1046
  631MOL0     H85156   2.896   6.218  10.851  3.9612 -1.1891  0.2241
  631MOL0     H85157   2.772   5.935  10.890 -1.6952  0.1207 -1.3839
  631MOL0     H85158   2.862   6.023  11.000 -1.0818 -2.4650 -1.0431
  631MOL0     H85159   2.692   6.204  11.020  1.3963 -1.4443  0.8736
  631MOL0     H85160   2.631   6.053  11.066  2.2218 -3.4801  0.5931
  631MOL0     H85161   2.470   6.190  10.918 -0.1563  1.5304 -2.2805
  631MOL0     H85162   2.590   6.178  10.789 -4.0269 -2.4515 -2.2975
  631MOL0     H85163   2.454   5.939  10.936 -2.1840 -1.8706 -1.5675
  631MOL0     H85164   2.548   5.933  10.782 -2.7858 -1.8590 -1.2016
  631MOL0     H85165   2.379   6.082  10.688 -1.3375  3.1383  1.5475
  631MOL0     H85166   2.279   6.082  10.832  0.6003 -0.2453  0.3824
  631MOL0     H85167   3.433   6.082  10.626  0.2082  2.7668  0.8093
  631MOL0     H85168   3.568   6.147  10.412 -0.5377  3.2825 -0.8864
  631MOL0     H85169   3.508   6.290   9.852  1.8797 -2.0298 -3.4156
  631MOL0     H85170   3.696   6.325   9.717 -1.6097  1.4513  0.1413
  631MOL0     H85171   5.501   5.703   9.097 -1.4848  2.1029  0.7666
  631MOL0     H85172   5.726   5.665   9.100  0.0095 -0.6821  0.4731
  631MOL0     H85173   6.048   5.441   9.290 -3.5466  3.3376  2.6629
  631MOL0     H85174   6.258   5.370   9.228 -0.3012  0.1577 -0.4451
  631MOL0     H85175   6.451   5.340   9.120  1.6250  0.0150  0.9665
  631MOL0     H85176   6.400   5.441   8.986 -0.2925 -2.2138 -0.7996
  631MOL0     H85177   6.647   5.514   9.001 -0.5563 -0.5560 -0.2961
  631MOL0     H85178   6.598   5.369   8.898  0.9918 -2.0118  0.1628
  631MOL0     H85179   6.625   5.232   9.104  0.7857 -1.2741 -3.8622
  631MOL0     H85180   6.719   5.361   9.180  0.9236  2.4312 -0.9942
  631MOL0     H85181   6.789   5.229   8.912  2.2114  2.7829 -1.0415
  631MOL0     H85182   6.856   5.177   9.073 -0.4318 -0.3541 -1.2351
  631MOL0     H85183   7.054   5.545   8.964 -0.0554 -0.1218 -1.5970
  631MOL0     H85184   6.407   5.774   9.211  0.8585 -0.6607 -2.8042
  631MOL0     H85185   6.164   5.851   9.278 -0.6701  0.5384 -0.2683
  632MOL0     O85186  10.940  10.607   5.117 -0.2638  0.0116 -0.2917
  632MOL0     C85187  10.955  10.690   5.028 -0.4594 -0.0450 -0.5543
  632MOL0     O85188  10.861  10.778   4.977  0.1175 -0.1795 -0.3787
  632MOL0     C85189  10.726  10.761   4.999  0.0570 -0.4377 -0.1032
  632MOL0     C85190  10.683  10.769   5.135 -0.0428  0.1681  0.8640
  632MOL0     C85191  10.547  10.756   5.159  0.7568  0.7561 -0.2899
  632MOL0     C85192  10.449  10.737   5.067  0.0383 -0.3232 -0.6914
  632MOL0     O85193  10.320  10.718   5.113 -0.6632 -0.4847 -0.4697
  632MOL0     C85194  10.217  10.698   5.011  0.3155 -0.5351 -0.6397
  632MOL0     C85195  10.079  10.698   5.072 -0.1267 -1.0734  0.3715
  632MOL0     C85196  10.043  10.579   5.155  0.4015 -0.0478  0.1439
  632MOL0     C85197   9.909  10.584   5.226 -0.8513 -0.1291  0.1072
  632MOL0     C85198   9.875  10.464   5.317 -0.7684 -0.2546  0.0464
  632MOL0     C85199   9.726  10.459   5.342 -0.4371 -1.1118 -0.9444
  632MOL0     C85200   9.681  10.342   5.428 -0.0686  0.0414  0.2274
  632MOL0     C85201   9.531  10.339   5.479  0.4878 -0.8322  0.7118
  632MOL0     N85202   9.435  10.328   5.366 -0.0316 -0.0433  0.6456
  632MOL0     C85203   9.397  10.222   5.280 -0.9184  0.2500 -0.3350
  632MOL0     C85204   9.297  10.271   5.204 -0.3027  0.2574  0.8333
  632MOL0     C85205   9.230  10.210   5.088  0.4960 -0.5649 -0.4167
  632MOL0     C85206   9.175  10.076   5.139 -0.0183 -0.5684 -0.5087
  632MOL0     C85207   9.116   9.990   5.025  0.1826  0.0515 -0.5457
  632MOL0     C85208   9.048   9.870   5.081  0.5152 -0.5772  0.7092
  632MOL0     O85209   8.952   9.895   5.185  0.9994 -0.3032 -0.2043
  632MOL0     C85210   8.832   9.817   5.186  0.7386 -0.2585 -0.4200
  632MOL0     C85211   8.818   9.694   5.132  0.4243  0.2696  0.4532
  632MOL0     C85212   8.699   9.620   5.160 -0.2565  0.5450  0.6855
  632MOL0     C85213   8.690   9.476   5.096 -0.0917 -0.2051  0.6917
  632MOL0     C85214   8.601   9.675   5.235 -0.3348 -0.3164  0.0858
  632MOL0     C85215   8.481   9.604   5.281 -0.4006  0.1290 -0.5515
  632MOL0     O85216   8.365   9.677   5.312  0.0319  0.4463 -0.0295
  632MOL0     C85217   8.247   9.609   5.339 -0.7260  0.6782 -0.7408
  632MOL0     C85218   8.185   9.507   5.265  0.4200 -1.2521  0.1050
  632MOL0     C85219   8.072   9.444   5.312  0.4686  0.0825  0.1451
  632MOL0     C85220   8.012   9.475   5.429 -0.2544 -0.8918  0.2786
  632MOL0     O85221   7.902   9.391   5.453 -0.2286 -0.0350 -0.0161
  632MOL0     C85222   7.836   9.406   5.578 -0.2231 -0.6017  0.4857
  632MOL0     C85223   7.712   9.320   5.573 -0.1162  0.2966 -0.5942
  632MOL0     C85224   7.628   9.336   5.696  0.0244 -1.2755  0.2150
  632MOL0     C85225   7.479   9.296   5.715 -0.5689  0.0678 -0.1516
  632MOL0     C85226   7.409   9.376   5.820 -0.6094  0.1558  0.2690
  632MOL0     C85227   7.257   9.364   5.813  0.0746  0.2969  0.0894
  632MOL0     C85228   7.209   9.219   5.819 -0.3221  0.6391  0.4421
  632MOL0     C85229   7.249   9.131   5.942  0.0242  0.4320  0.1866
  632MOL0    Cl85230   7.178   8.972   5.909  0.0259  0.6480  0.2851
  632MOL0     C85231   8.083   9.559   5.508  1.0618  0.3259 -1.3278
  632MOL0     C85232   8.197   9.625   5.472 -0.2998  0.2525 -0.5385
  632MOL0     O85233   8.483   9.479   5.292 -0.4600  0.1398  0.5990
  632MOL0     C85234   8.619   9.802   5.293 -0.2833  0.4674 -0.1889
  632MOL0     C85235   8.731   9.872   5.257  0.0197 -0.5826 -0.4432
  632MOL0     N85236   9.269  10.400   5.239  0.2753 -0.2948 -0.0992
  632MOL0     N85237   9.354  10.431   5.330 -0.0027  0.6979  0.0098
  632MOL0     C85238  10.495  10.750   4.929  0.1273  0.2312 -1.3626
  632MOL0     C85239  10.628  10.755   4.896  0.0842 -0.1659 -0.3669
  632MOL0     C85240  11.089  10.710   4.973 -0.0401  0.1044  0.1310
  632MOL0     C85241  11.143  10.831   4.914  0.2154 -0.2931 -0.9726
  632MOL0     C85242  11.270  10.832   4.866  0.2736 -1.1448 -0.4248
  632MOL0     C85243  11.346  10.712   4.855  0.9859 -0.3275  0.1720
  632MOL0     O85244  11.464  10.717   4.792  0.5805  0.8082 -0.1936
  632MOL0     C85245  11.523  10.604   4.726  0.7287  0.0581 -0.1785
  632MOL0     C85246  11.650  10.635   4.640 -0.1618 -0.1732  0.4591
  632MOL0     C85247  11.783  10.604   4.708  0.2775  0.1561  0.0857
  632MOL0     C85248  11.898  10.612   4.603  0.2239 -0.3551 -0.2862
  632MOL0     C85249  11.895  10.491   4.521  0.4045  0.1484 -0.4599
  632MOL0     C85250  11.882  10.390   4.450  0.4299  0.0593  0.5330
  632MOL0     C85251  11.290  10.596   4.910  0.5461  0.5353  0.1646
  632MOL0     C85252  11.174  10.600   4.979 -0.7780 -0.5508 -0.3524
  632MOL0     H85253  10.755  10.764   5.216 -0.1170  1.9356  1.0713
  632MOL0     H85254  10.527  10.763   5.266  3.0055  0.5642  0.1911
  632MOL0     H85255  10.210  10.780   4.938 -2.8584 -1.4154 -1.4750
  632MOL0     H85256  10.221  10.605   4.955  0.4209 -1.8063  1.3947
  632MOL0     H85257  10.067  10.798   5.113 -2.1719  0.6507 -3.7793
  632MOL0     H85258  10.016  10.694   4.982  1.1336 -2.3206 -0.5066
  632MOL0     H85259  10.039  10.486   5.097  0.8588 -0.5471  0.8895
  632MOL0     H85260  10.120  10.570   5.232  0.6679  0.4365 -0.0658
  632MOL0     H85261   9.903  10.669   5.295 -0.4114 -1.2584  1.5797
  632MOL0     H85262   9.841  10.572   5.142  1.3100 -1.9006 -1.4843
  632MOL0     H85263   9.903  10.371   5.265 -0.0807  0.2561 -0.5211
  632MOL0     H85264   9.936  10.475   5.407  0.7835  2.5704 -1.2046
  632MOL0     H85265   9.694  10.554   5.386 -0.8068 -1.1205 -1.1932
  632MOL0     H85266   9.679  10.434   5.246 -0.5682  0.3012 -1.2582
  632MOL0     H85267   9.694  10.257   5.361  1.5847  1.0380 -0.7643
  632MOL0     H85268   9.750  10.324   5.511  2.6499  3.9418 -0.9411
  632MOL0     H85269   9.506  10.433   5.531  0.2368  1.2182 -2.7987
  632MOL0     H85270   9.510  10.248   5.536  1.6243 -1.9671 -0.6461
  632MOL0     H85271   9.435  10.120   5.277 -2.9636 -0.5198 -2.0668
  632MOL0     H85272   9.144  10.273   5.061  0.8895 -0.5818 -1.8229
  632MOL0     H85273   9.291  10.189   4.999 -0.5093 -0.1048 -1.2422
  632MOL0     H85274   9.094  10.087   5.212 -0.1092 -1.6229 -0.4381
  632MOL0     H85275   9.258  10.021   5.184 -1.5121  0.0378  3.2995
  632MOL0     H85276   9.194   9.966   4.953  1.3026 -1.5047  1.1058
  632MOL0     H85277   9.040  10.053   4.979 -0.9325 -0.2717  0.7655
  632MOL0     H85278   9.118   9.789   5.107 -0.6446 -2.2346 -1.0550
  632MOL0     H85279   9.000   9.823   4.995 -1.4780  0.3865  1.2404
  632MOL0     H85280   8.888   9.646   5.065 -0.7394  1.4580 -1.6897
  632MOL0     H85281   8.590   9.458   5.056 -0.2493 -0.3423  1.1352
  632MOL0     H85282   8.762   9.469   5.015  0.0829  0.0984  0.8207
  632MOL0     H85283   8.724   9.404   5.171  0.7972 -1.2945 -0.6986
  632MOL0     H85284   8.225   9.476   5.169  1.1602 -0.1032  0.0257
  632MOL0     H85285   8.034   9.366   5.247 -1.7411  1.9757 -0.9905
  632MOL0     H85286   7.896   9.375   5.664  2.3390  0.9681 -0.6393
  632MOL0     H85287   7.798   9.505   5.603  2.3934 -0.0169  2.4603
  632MOL0     H85288   7.647   9.338   5.487  1.3679  1.0515 -1.5957
  632MOL0     H85289   7.746   9.217   5.560  0.1872  0.3986 -0.6001
  632MOL0     H85290   7.635   9.438   5.736  1.8982 -0.5824 -1.6740
  632MOL0     H85291   7.682   9.269   5.762 -0.2196 -1.3089  0.3806
  632MOL0     H85292   7.425   9.316   5.622 -2.4994 -0.0567  0.9093
  632MOL0     H85293   7.463   9.190   5.734 -2.0087  0.9624  5.0785
  632MOL0     H85294   7.432   9.482   5.808  0.4450 -0.3009 -2.6071
  632MOL0     H85295   7.441   9.339   5.918 -2.9785 -1.3478  0.5436
  632MOL0     H85296   7.210   9.427   5.889  1.5177  3.0070 -1.1394
  632MOL0     H85297   7.228   9.409   5.718 -0.5481  0.7056  0.4681
  632MOL0     H85298   7.237   9.164   5.729 -0.5302 -1.2757  1.5017
  632MOL0     H85299   7.101   9.233   5.823 -0.4417 -0.1239  0.0535
  632MOL0     H85300   7.221   9.187   6.032  0.3974  3.4677 -1.4566
  632MOL0     H85301   7.356   9.109   5.952 -0.5342 -2.7185  0.1275
  632MOL0     H85302   8.049   9.577   5.609  3.7014  1.2637 -0.5053
  632MOL0     H85303   8.243   9.702   5.533 -1.3274  0.8534 -0.4910
  632MOL0     H85304   8.544   9.851   5.355  0.7105  0.5024  1.0244
  632MOL0     H85305   8.751   9.972   5.294 -3.1875  1.2300 -3.0342
  632MOL0     H85306  10.423  10.737   4.848 -1.4101 -1.2733  0.1671
  632MOL0     H85307  10.654  10.744   4.791  0.6898 -1.4254 -0.0962
  632MOL0     H85308  11.082  10.921   4.919 -0.6640 -0.9420  1.1731
  632MOL0     H85309  11.317  10.927   4.843  2.0989 -1.7871  0.4184
  632MOL0     H85310  11.545  10.535   4.808 -1.2137 -0.2655  0.1268
  632MOL0     H85311  11.451  10.555   4.660  1.2763  1.3340 -1.7746
  632MOL0     H85312  11.655  10.735   4.594  1.3889  0.5649  2.1190
  632MOL0     H85313  11.640  10.571   4.551 -2.1872 -1.8278  1.7911
  632MOL0     H85314  11.774  10.501   4.744 -3.4755  0.5312  0.5605
  632MOL0     H85315  11.802  10.678   4.787  1.3686  0.6201 -0.5927
  632MOL0     H85316  11.997  10.631   4.647  1.9983 -0.7524 -3.7105
  632MOL0     H85317  11.881  10.696   4.534 -3.8169 -0.3916  0.4267
  632MOL0     H85318  11.874  10.300   4.393 -1.6907 -0.1381  1.0756
  632MOL0     H85319  11.348  10.506   4.894  0.2267  0.4987 -0.8493
  632MOL0     H85320  11.153  10.504   5.024  1.7320 -1.3060 -0.6108
  633MOL0     O85321  10.037   4.019   3.592 -0.1291 -0.6873  0.6031
  633MOL0     C85322  10.096   4.032   3.697 -1.5578 -0.1045  1.0968
  633MOL0     O85323  10.046   4.068   3.812 -0.2776 -0.0980  0.4644
  633MOL0     C85324   9.909   4.084   3.825 -0.6174  0.6982 -0.4000
  633MOL0     C85325   9.872   4.196   3.893 -0.2806  0.3617 -0.3248
  633MOL0     C85326   9.735   4.214   3.914  0.2041 -0.3654  0.4932
  633MOL0     C85327   9.638   4.118   3.864 -0.7019 -1.0553 -0.8684
  633MOL0     O85328   9.501   4.147   3.891 -0.6766  0.3456  0.2382
  633MOL0     C85329   9.416   4.030   3.907  0.0982  0.2268 -0.0021
  633MOL0     C85330   9.275   4.092   3.885  0.3205 -0.2379 -0.7881
  633MOL0     C85331   9.153   3.989   3.899 -0.2952  0.4370 -1.1634
  633MOL0     C85332   9.164   3.856   3.817  0.1746 -0.0876 -0.2352
  633MOL0     C85333   9.028   3.797   3.785 -0.2371 -0.7108 -0.0170
  633MOL0     C85334   9.035   3.686   3.679  0.3841 -0.0438  0.2517
  633MOL0     C85335   8.901   3.611   3.663  0.4118  0.3822 -0.6363
  633MOL0     C85336   8.793   3.690   3.582 -0.3776 -0.2767  0.1184
  633MOL0     N85337   8.663   3.631   3.614  0.3135 -0.1616 -0.5850
  633MOL0     C85338   8.641   3.502   3.655 -0.2264  0.2198 -0.1516
  633MOL0     C85339   8.503   3.470   3.651  0.5905  0.7440 -0.9520
  633MOL0     C85340   8.424   3.349   3.688 -0.3713  0.2280  0.3281
  633MOL0     C85341   8.333   3.300   3.580 -0.5555 -0.0731  0.5699
  633MOL0     C85342   8.190   3.268   3.633  0.9520  0.6158  0.7816
  633MOL0     C85343   8.085   3.285   3.521  0.0105 -0.4336  0.4836
  633MOL0     O85344   7.959   3.291   3.577  0.0252  0.2300 -0.0148
  633MOL0     C85345   7.854   3.344   3.505 -0.5271  0.6391  0.0976
  633MOL0     C85346   7.739   3.365   3.581 -0.5406  0.8220  0.1415
  633MOL0     C85347   7.619   3.417   3.524  0.5062 -0.1843 -0.0763
  633MOL0     C85348   7.507   3.451   3.618  0.5423  0.3884 -0.0959
  633MOL0     C85349   7.620   3.443   3.381  0.3197 -0.2385 -0.4521
  633MOL0     C85350   7.511   3.512   3.302  0.0506 -0.0313  0.6950
  633MOL0     O85351   7.403   3.541   3.376 -0.2101  0.0575  0.4097
  633MOL0     C85352   7.299   3.560   3.291  0.1520 -0.2449  0.0408
  633MOL0     C85353   7.209   3.455   3.261  1.4375  0.4825 -0.6668
  633MOL0     C85354   7.094   3.479   3.188 -0.4850 -0.6084 -0.6226
  633MOL0     C85355   7.065   3.609   3.135  0.0887 -0.8245 -0.8629
  633MOL0     O85356   6.949   3.618   3.062 -1.0248 -0.5309 -0.6652
  633MOL0     C85357   6.873   3.744   3.072 -0.3945  0.2850  0.4906
  633MOL0     C85358   6.726   3.707   3.039 -0.1707 -0.5727  0.5869
  633MOL0     C85359   6.643   3.832   2.996 -0.9305  0.9967 -0.7230
  633MOL0     C85360   6.493   3.818   3.022  0.0019 -0.0356  0.6427
  633MOL0     C85361   6.416   3.953   3.009  0.5873 -0.4806 -0.3612
  633MOL0     C85362   6.449   4.057   3.117 -0.9857  0.6025  0.1947
  633MOL0     C85363   6.332   4.161   3.125  0.1397  0.1429  0.4347
  633MOL0     C85364   6.367   4.275   3.212  0.3172  0.0477 -0.4067
  633MOL0    Cl85365   6.476   4.395   3.137  0.8948 -0.1502  0.4021
  633MOL0     C85366   7.141   3.719   3.187 -0.3166  0.2231  0.4039
  633MOL0     C85367   7.258   3.691   3.261 -0.4173  1.1928  0.6624
  633MOL0     O85368   7.528   3.536   3.181  0.0125  0.2798 -0.1583
  633MOL0     C85369   7.735   3.415   3.310  0.2929  0.2427 -0.0511
  633MOL0     C85370   7.855   3.367   3.368  0.5535  0.2266  0.5630
  633MOL0     N85371   8.446   3.586   3.597 -0.0113  0.1492 -0.8465
  633MOL0     N85372   8.536   3.681   3.583 -0.8479  0.4604  0.3498
  633MOL0     C85373   9.679   4.005   3.801  0.2200 -0.3774 -0.3986
  633MOL0     C85374   9.813   3.980   3.787  0.1468  0.2959  0.3744
  633MOL0     C85375  10.237   3.997   3.696  0.0604 -0.4686  0.1485
  633MOL0     C85376  10.316   4.068   3.793  0.9504 -0.4236  0.3163
  633MOL0     C85377  10.450   4.044   3.797  0.0042  1.1595 -0.8416
  633MOL0     C85378  10.514   3.941   3.728  0.2115  0.4178  0.7140
  633MOL0     O85379  10.644   3.915   3.756 -0.3361 -0.5668 -0.6531
  633MOL0     C85380  10.718   3.824   3.668 -0.1359  0.0571 -0.0625
  633MOL0     C85381  10.869   3.867   3.687  0.1902 -0.0698  0.4784
  633MOL0     C85382  10.971   3.765   3.645  0.0064  0.0076  0.1285
  633MOL0     C85383  10.958   3.637   3.732  1.2518 -0.2600 -0.2103
  633MOL0     C85384  11.070   3.549   3.716 -0.7012 -0.3826  0.3975
  633MOL0     C85385  11.169   3.473   3.709  0.0974 -0.9563  0.4752
  633MOL0     C85386  10.437   3.858   3.641 -0.1751 -0.0682 -0.8840
  633MOL0     C85387  10.301   3.887   3.626 -0.2029  0.0769 -0.5898
  633MOL0     H85388   9.954   4.262   3.919 -0.0284 -1.2063  3.4906
  633MOL0     H85389   9.689   4.291   3.976  0.5332 -2.3018  3.3059
  633MOL0     H85390   9.428   3.956   3.828 -1.7896  1.3335 -1.4194
  633MOL0     H85391   9.438   3.982   4.003 -0.2794 -0.0749 -0.0653
  633MOL0     H85392   9.264   4.174   3.957  2.2671  0.5811 -1.3658
  633MOL0     H85393   9.276   4.135   3.785  2.4955 -1.8650 -1.5471
  633MOL0     H85394   9.138   3.975   4.006  0.5294  2.8149 -0.6650
  633MOL0     H85395   9.064   4.045   3.869 -2.1839 -2.0912 -0.5507
  633MOL0     H85396   9.205   3.885   3.720 -2.0366  0.5828 -1.0384
  633MOL0     H85397   9.231   3.785   3.867  1.9968  1.5056 -0.3248
  633MOL0     H85398   8.988   3.760   3.880  0.7365 -0.1414  0.6271
  633MOL0     H85399   8.968   3.875   3.738 -0.5946 -2.2659 -2.3379
  633MOL0     H85400   9.055   3.730   3.581  0.7059  1.4558  0.9640
  633MOL0     H85401   9.107   3.607   3.704  1.1989  0.0263 -1.7052
  633MOL0     H85402   8.922   3.518   3.610  1.6736  0.0267  0.4464
  633MOL0     H85403   8.864   3.585   3.762 -0.1652  1.2775 -0.6012
  633MOL0     H85404   8.809   3.678   3.474 -0.3399  1.0972 -0.0446
  633MOL0     H85405   8.780   3.796   3.602 -1.9478 -0.1287 -1.4358
  633MOL0     H85406   8.719   3.439   3.697 -1.2493  1.1361  3.5321
  633MOL0     H85407   8.484   3.269   3.734  1.4986  0.8533 -0.8911
  633MOL0     H85408   8.367   3.388   3.773 -0.4411  1.0187 -0.0765
  633MOL0     H85409   8.381   3.217   3.528 -1.7495 -0.4407  0.0097
  633MOL0     H85410   8.327   3.387   3.513 -0.7722 -1.4626 -1.3158
  633MOL0     H85411   8.171   3.349   3.704  3.6831  0.3043  2.0010
  633MOL0     H85412   8.177   3.168   3.673 -1.4412  0.6402  0.2131
  633MOL0     H85413   8.083   3.204   3.448 -0.4830  1.3871 -1.6606
  633MOL0     H85414   8.100   3.381   3.469 -1.6980 -1.0757 -1.3079
  633MOL0     H85415   7.734   3.337   3.686 -1.8812 -0.9700 -0.3623
  633MOL0     H85416   7.538   3.418   3.717  1.1066  1.1957  0.0083
  633MOL0     H85417   7.470   3.554   3.622 -1.5304 -0.3441  2.1317
  633MOL0     H85418   7.416   3.395   3.598 -0.2720  1.4213  0.6061
  633MOL0     H85419   7.219   3.350   3.288 -1.2543  0.4477  0.5228
  633MOL0     H85420   7.046   3.388   3.152 -1.8533  0.2172 -0.9164
  633MOL0     H85421   6.875   3.789   3.172 -0.3400  2.0758 -0.2701
  633MOL0     H85422   6.915   3.821   3.006  0.4415  0.5219  1.2846
  633MOL0     H85423   6.728   3.628   2.963 -0.4716 -0.2393  0.2346
  633MOL0     H85424   6.691   3.663   3.134 -1.3355 -3.2990 -0.9865
  633MOL0     H85425   6.664   3.849   2.890  1.9924  0.5664 -0.3086
  633MOL0     H85426   6.687   3.916   3.051  2.0349  0.1390 -1.5876
  633MOL0     H85427   6.454   3.758   2.939  2.5990 -2.4537  1.0175
  633MOL0     H85428   6.463   3.761   3.111 -1.7833  1.1159  0.8411
  633MOL0     H85429   6.311   3.925   3.026  1.0513 -1.6974  0.5866
  633MOL0     H85430   6.416   3.997   2.909  0.9866 -1.8031 -0.9609
  633MOL0     H85431   6.454   3.995   3.207 -2.4042 -1.8662 -1.3321
  633MOL0     H85432   6.545   4.100   3.086 -1.0334 -1.9085 -4.2807
  633MOL0     H85433   6.245   4.109   3.166 -1.0151  1.3899 -0.3961
  633MOL0     H85434   6.298   4.200   3.029 -4.4285 -1.0689  1.3304
  633MOL0     H85435   6.400   4.232   3.307 -3.4297 -4.1814 -0.7078
  633MOL0     H85436   6.276   4.330   3.240  1.8551  3.4108 -1.4264
  633MOL0     H85437   7.135   3.824   3.162  2.0364  0.6726  1.4973
  633MOL0     H85438   7.312   3.772   3.309  3.2312 -2.3163  3.1754
  633MOL0     H85439   7.735   3.431   3.203 -1.8028 -0.6769 -0.2527
  633MOL0     H85440   7.936   3.339   3.300 -1.3180  0.6921 -2.0098
  633MOL0     H85441   9.610   3.931   3.763 -1.8358  0.1530  2.0237
  633MOL0     H85442   9.853   3.887   3.749 -3.0722 -1.3556  0.7234
  633MOL0     H85443  10.278   4.162   3.833 -1.4941 -0.3769 -1.7862
  633MOL0     H85444  10.504   4.105   3.869 -0.3539 -0.0267  0.4862
  633MOL0     H85445  10.698   3.721   3.700  1.7316  0.6774  3.7567
  633MOL0     H85446  10.686   3.851   3.567  3.0471 -0.4369 -1.3074
  633MOL0     H85447  10.896   3.912   3.783  2.1234  2.2653 -1.0175
  633MOL0     H85448  10.873   3.957   3.623 -0.9967  1.9924  3.1193
  633MOL0     H85449  11.072   3.807   3.648  0.1119 -0.1821 -0.6123
  633MOL0     H85450  10.954   3.738   3.540 -0.4378  1.4879 -0.2067
  633MOL0     H85451  10.874   3.577   3.698  2.3057 -1.3473 -0.9840
  633MOL0     H85452  10.946   3.661   3.838  0.7966 -0.0722 -0.3039
  633MOL0     H85453  11.264   3.427   3.690  0.8627  0.7421 -0.0265
  633MOL0     H85454  10.470   3.763   3.600 -0.0197  0.0099 -0.9415
  633MOL0     H85455  10.244   3.818   3.564  0.6413 -0.8309 -0.3759
  634MOL0     O85456   4.518   1.616   1.863  0.1154 -0.3744 -0.7126
  634MOL0     C85457   4.465   1.707   1.927  0.4889  0.2720  0.4383
  634MOL0     O85458   4.353   1.775   1.888  0.0202 -0.1440  0.1141
  634MOL0     C85459   4.304   1.757   1.763 -0.0534 -0.5280 -0.4574
  634MOL0     C85460   4.382   1.752   1.650  0.8248 -0.0573 -0.5519
  634MOL0     C85461   4.326   1.732   1.526 -0.0255  0.1347  0.7123
  634MOL0     C85462   4.189   1.732   1.501  0.2829  0.7261 -0.0255
  634MOL0     O85463   4.134   1.732   1.374 -0.5005 -0.7238 -0.2382
  634MOL0     C85464   4.026   1.827   1.356 -0.3911  0.7581 -0.4123
  634MOL0     C85465   4.013   1.865   1.209 -0.8807 -0.0457  0.1603
  634MOL0     C85466   3.875   1.834   1.153  0.2656  0.3299 -0.2063
  634MOL0     C85467   3.870   1.876   1.006 -0.4392 -0.7032  0.1180
  634MOL0     C85468   3.750   1.815   0.932 -0.7014  0.3166 -1.2274
  634MOL0     C85469   3.620   1.862   1.002 -0.0859  0.2428  0.2937
  634MOL0     C85470   3.504   1.855   0.905 -0.8788  0.3726  0.7213
  634MOL0     C85471   3.375   1.881   0.972  0.0626 -0.3658 -0.4783
  634MOL0     N85472   3.252   1.861   0.895 -0.7657  0.0154  0.4105
  634MOL0     C85473   3.186   1.945   0.821 -0.0225 -0.2816  0.0273
  634MOL0     C85474   3.098   1.861   0.763  0.7506  0.4049 -0.2270
  634MOL0     C85475   2.990   1.907   0.669 -0.3387 -0.1683  0.4955
  634MOL0     C85476   2.859   1.825   0.687  0.2790 -0.3567  0.5441
  634MOL0     C85477   2.740   1.864   0.589 -0.0320 -0.0262 -0.8648
  634MOL0     C85478   2.624   1.780   0.641 -0.8089 -0.9966 -0.5750
  634MOL0     O85479   2.517   1.765   0.546 -0.0614  0.1138  0.1447
  634MOL0     C85480   2.443   1.872   0.512  0.3895 -0.4103  0.6628
  634MOL0     C85481   2.466   2.005   0.556  0.7991  0.0035  0.6717
  634MOL0     C85482   2.390   2.115   0.497  0.4043  0.0638 -0.0718
  634MOL0     C85483   2.423   2.249   0.543  0.4700  0.1863  0.3058
  634MOL0     C85484   2.290   2.090   0.398  0.1773 -0.0128  0.7618
  634MOL0     C85485   2.210   2.199   0.327  0.3702  0.9494 -1.1066
  634MOL0     O85486   2.102   2.155   0.247  0.1044 -0.6928 -0.4250
  634MOL0     C85487   2.058   2.251   0.160 -0.5257 -0.2148  0.5198
  634MOL0     C85488   1.933   2.315   0.188 -0.8493 -0.9027 -0.4648
  634MOL0     C85489   1.890   2.407   0.089  0.0659 -0.3400  0.5437
  634MOL0     C85490   1.961   2.435  -0.027 -0.4890  0.3913 -0.0165
  634MOL0     O85491   1.902   2.518  -0.122 -0.4769 -0.5669  0.1685
  634MOL0     C85492   1.954   2.544  -0.252 -0.2867 -0.1843 -0.4040
  634MOL0     C85493   1.858   2.600  -0.353  1.0516  0.0108  0.2560
  634MOL0     C85494   1.735   2.504  -0.372  0.1963 -0.0023  0.2267
  634MOL0     C85495   1.754   2.427  -0.503  0.4984 -0.1614 -1.1266
  634MOL0     C85496   1.651   2.314  -0.530  0.6139 -0.6571 -1.0801
  634MOL0     C85497   1.679   2.237  -0.652 -0.4568  0.5084 -0.0589
  634MOL0     C85498   1.555   2.152  -0.689 -0.4968 -0.8230  0.3037
  634MOL0     C85499   1.564   2.096  -0.833  0.2354  0.5935 -0.8703
  634MOL0    Cl85500   1.392   2.043  -0.866 -0.2357 -0.0704  0.1093
  634MOL0     C85501   2.085   2.381  -0.040 -0.1758  0.3046  0.4639
  634MOL0     C85502   2.137   2.284   0.046 -0.3208  0.1141 -0.0760
  634MOL0     O85503   2.247   2.316   0.331  0.3114 -0.1053  0.0173
  634MOL0     C85504   2.261   1.956   0.358 -0.2178  0.0730  0.1632
  634MOL0     C85505   2.349   1.849   0.405  0.4048  0.1233 -1.0785
  634MOL0     N85506   3.117   1.730   0.785  0.0295 -0.3647  0.5364
  634MOL0     N85507   3.217   1.731   0.868  0.0908 -0.1544 -0.0036
  634MOL0     C85508   4.106   1.735   1.612 -0.2985  0.8477  0.5019
  634MOL0     C85509   4.164   1.754   1.742 -0.8849  0.5401 -0.2290
  634MOL0     C85510   4.525   1.747   2.059  0.4380  0.6461 -0.5359
  634MOL0     C85511   4.456   1.831   2.156 -0.0001  0.3224 -0.2327
  634MOL0     C85512   4.514   1.857   2.284  0.1191  0.5099  0.1085
  634MOL0     C85513   4.639   1.797   2.313  0.2776 -0.5119  0.1462
  634MOL0     O85514   4.712   1.827   2.422 -0.7116 -0.0955  0.0078
  634MOL0     C85515   4.643   1.840   2.548 -0.3169  0.6649  0.5193
  634MOL0     C85516   4.564   1.711   2.582  0.9411 -0.2165 -0.4189
  634MOL0     C85517   4.662   1.597   2.635  0.0860 -0.0743  0.0225
  634MOL0     C85518   4.584   1.497   2.722  0.5881 -0.3549  0.7744
  634MOL0     C85519   4.516   1.398   2.634  0.3730 -0.4815  0.1304
  634MOL0     C85520   4.464   1.316   2.559 -0.1444  0.6942 -0.2953
  634MOL0     C85521   4.701   1.715   2.220 -0.5946 -0.0870  0.0571
  634MOL0     C85522   4.650   1.690   2.099  0.5182  0.3241  1.0762
  634MOL0     H85523   4.490   1.763   1.655  0.8755 -0.0261 -1.5701
  634MOL0     H85524   4.395   1.723   1.442 -0.4198 -0.6822  0.4625
  634MOL0     H85525   3.931   1.779   1.379 -0.4044 -0.0625 -2.0654
  634MOL0     H85526   4.040   1.917   1.418  0.4773 -0.8588  1.8946
  634MOL0     H85527   4.038   1.971   1.209 -2.3208  0.3387 -1.3334
  634MOL0     H85528   4.085   1.807   1.149 -2.4716 -1.3550 -0.5442
  634MOL0     H85529   3.854   1.727   1.155  0.2905  0.3215 -0.4008
  634MOL0     H85530   3.820   1.901   1.220  1.5664  0.6408  0.5709
  634MOL0     H85531   3.856   1.984   0.996 -1.7078 -0.6548  1.8529
  634MOL0     H85532   3.960   1.842   0.954 -1.6092 -0.0951 -2.4629
  634MOL0     H85533   3.746   1.845   0.827 -0.2303 -0.0993 -1.3631
  634MOL0     H85534   3.756   1.706   0.934 -2.2186  0.1230  3.1999
  634MOL0     H85535   3.609   1.803   1.094  3.1760  0.5648  0.9952
  634MOL0     H85536   3.611   1.965   1.036 -0.7464 -0.5737  2.7661
  634MOL0     H85537   3.510   1.939   0.836 -0.0791  0.1707  0.5418
  634MOL0     H85538   3.480   1.761   0.853 -1.8799  0.0893  1.6438
  634MOL0     H85539   3.382   1.985   1.005  2.4132 -1.1216  1.7872
  634MOL0     H85540   3.364   1.824   1.065  2.4490 -2.4615 -1.3672
  634MOL0     H85541   3.181   2.051   0.801 -0.6308 -0.1907  0.6196
  634MOL0     H85542   2.958   2.010   0.684 -0.1550  0.4113 -2.4860
  634MOL0     H85543   3.008   1.911   0.561 -0.4297  1.4012  0.5246
  634MOL0     H85544   2.824   1.831   0.791 -1.2913  0.5662  0.0076
  634MOL0     H85545   2.885   1.722   0.661 -2.6433 -0.4720 -2.5943
  634MOL0     H85546   2.774   1.833   0.489  3.3147  0.2024  0.1080
  634MOL0     H85547   2.727   1.972   0.588  1.1925  0.3933  4.3435
  634MOL0     H85548   2.589   1.829   0.732 -0.0983 -0.0763 -0.7771
  634MOL0     H85549   2.659   1.680   0.669  2.2658 -0.0452 -0.6289
  634MOL0     H85550   2.536   2.031   0.635  0.7721  2.4676 -0.0498
  634MOL0     H85551   2.329   2.290   0.580 -0.8641 -0.6975 -1.8833
  634MOL0     H85552   2.497   2.254   0.623  1.5718  0.5916 -0.6988
  634MOL0     H85553   2.453   2.308   0.456 -1.1212  0.4554 -0.0866
  634MOL0     H85554   1.868   2.281   0.268 -3.3826  0.7119 -1.7226
  634MOL0     H85555   1.795   2.457   0.101  0.6880  1.1950 -0.6594
  634MOL0     H85556   2.033   2.620  -0.246 -1.6951  1.4706 -1.7306
  634MOL0     H85557   1.997   2.451  -0.290 -3.8592 -2.2086  0.0630
  634MOL0     H85558   1.839   2.699  -0.311  1.7803  0.0521  0.5075
  634MOL0     H85559   1.916   2.614  -0.445  1.8313  0.2653  0.7725
  634MOL0     H85560   1.650   2.572  -0.375  1.6713  1.9090 -2.1354
  634MOL0     H85561   1.728   2.438  -0.285  1.3816  0.3809  0.6382
  634MOL0     H85562   1.749   2.494  -0.590  1.9048  1.2752 -0.1445
  634MOL0     H85563   1.852   2.379  -0.508  0.3037 -0.6676 -0.3684
  634MOL0     H85564   1.557   2.366  -0.549  0.1828 -0.0635  2.1475
  634MOL0     H85565   1.641   2.251  -0.442  1.3466  0.4309 -0.1903
  634MOL0     H85566   1.677   2.309  -0.734 -0.7748  0.0084 -0.4977
  634MOL0     H85567   1.773   2.181  -0.647  0.3445  1.2656 -3.7241
  634MOL0     H85568   1.475   2.227  -0.690 -0.1995 -0.4525 -1.8737
  634MOL0     H85569   1.537   2.084  -0.606 -0.2912 -0.4912  0.6234
  634MOL0     H85570   1.622   2.004  -0.847  0.2492  0.9763 -4.0781
  634MOL0     H85571   1.610   2.175  -0.894  1.8033 -0.0493 -0.5655
  634MOL0     H85572   2.145   2.402  -0.128  1.4946 -0.6435  1.3378
  634MOL0     H85573   2.229   2.239   0.008 -1.6281 -1.4735 -1.5311
  634MOL0     H85574   2.179   1.940   0.288 -1.2676  1.1546  1.0949
  634MOL0     H85575   2.322   1.756   0.357 -1.4788 -1.2921  2.3734
  634MOL0     H85576   3.998   1.731   1.604 -0.4254  1.9377  1.4156
  634MOL0     H85577   4.094   1.762   1.825 -0.9935  3.0000 -0.4567
  634MOL0     H85578   4.355   1.865   2.137 -0.4585 -1.1378 -0.5017
  634MOL0     H85579   4.462   1.919   2.357  1.3046  0.8236  0.7082
  634MOL0     H85580   4.712   1.874   2.626 -1.3779  1.3483  1.1956
  634MOL0     H85581   4.572   1.922   2.530  1.1229  1.1677 -4.3090
  634MOL0     H85582   4.509   1.669   2.497  0.3883 -0.9230  0.2805
  634MOL0     H85583   4.491   1.751   2.652  1.7938  2.9325 -1.1424
  634MOL0     H85584   4.728   1.654   2.702 -3.5346  1.6863  2.4547
  634MOL0     H85585   4.714   1.559   2.547  1.4039  1.0151  0.2969
  634MOL0     H85586   4.505   1.547   2.778  1.0319  2.6383 -1.0727
  634MOL0     H85587   4.642   1.441   2.796 -0.0742  0.5680  2.0082
  634MOL0     H85588   4.414   1.245   2.496  0.4072 -0.1056  0.1482
  634MOL0     H85589   4.801   1.678   2.240 -0.2382  0.1445 -1.2715
  634MOL0     H85590   4.706   1.626   2.032 -0.2353  1.0153 -0.2517
  635MOL0     O85591   6.830   8.667   7.471  0.8853  0.1580 -0.5254
  635MOL0     C85592   6.864   8.589   7.559 -0.1353 -0.3896  0.1406
  635MOL0     O85593   6.790   8.476   7.597  0.0776 -0.2827 -0.6851
  635MOL0     C85594   6.671   8.461   7.523  0.0231  0.2233 -0.4364
  635MOL0     C85595   6.547   8.481   7.598 -0.0676  0.7020  0.1084
  635MOL0     C85596   6.424   8.474   7.531 -1.1694 -0.1263  1.4935
  635MOL0     C85597   6.418   8.456   7.391  0.6280 -0.1591 -0.1932
  635MOL0     O85598   6.301   8.466   7.314  0.2338  0.4417 -0.2225
  635MOL0     C85599   6.167   8.441   7.366  0.4100 -0.1462  0.0050
  635MOL0     C85600   6.065   8.534   7.301 -0.6605  0.3067  0.6247
  635MOL0     C85601   5.921   8.483   7.313 -0.4799  0.4948 -0.4405
  635MOL0     C85602   5.819   8.601   7.273  1.5215 -0.6098 -0.3115
  635MOL0     C85603   5.672   8.558   7.254  0.6653  0.3696  0.3724
  635MOL0     C85604   5.589   8.689   7.211  0.7111  0.0935 -0.1651
  635MOL0     C85605   5.439   8.692   7.257 -0.8921  0.2290 -0.4448
  635MOL0     C85606   5.371   8.824   7.199  0.2664  0.2395 -0.0341
  635MOL0     N85607   5.227   8.828   7.244  0.4746 -0.1204  0.0404
  635MOL0     C85608   5.175   8.816   7.374 -0.1726  0.0732  0.1259
  635MOL0     C85609   5.041   8.808   7.359 -0.2160 -0.4134  0.3770
  635MOL0     C85610   4.931   8.814   7.465 -0.0246 -0.0342 -0.5112
  635MOL0     C85611   4.981   8.860   7.608  0.2724 -0.0563  0.0506
  635MOL0     C85612   4.867   8.838   7.705  0.1088  0.8321 -0.2602
  635MOL0     C85613   4.863   8.920   7.826  0.0123 -0.7169 -0.1812
  635MOL0     O85614   4.789   8.849   7.931 -0.0228  0.3257  0.5274
  635MOL0     C85615   4.654   8.847   7.930 -0.3687  0.7563 -0.4750
  635MOL0     C85616   4.582   8.775   8.023  0.6170 -1.0425 -0.6893
  635MOL0     C85617   4.437   8.776   8.025  0.8374  0.4827  0.7379
  635MOL0     C85618   4.371   8.688   8.127  0.0538 -0.4367  0.7981
  635MOL0     C85619   4.363   8.871   7.949  0.0159 -0.1016  0.3233
  635MOL0     C85620   4.215   8.895   7.958 -0.8995  0.5411 -0.1812
  635MOL0     O85621   4.161   8.956   7.852  0.2878 -0.5616  0.0963
  635MOL0     C85622   4.031   8.969   7.824  0.4306  0.4927  0.6836
  635MOL0     C85623   4.008   9.016   7.696 -0.8499  1.4985  0.3432
  635MOL0     C85624   3.878   9.036   7.646  0.5337 -0.9756 -0.1269
  635MOL0     C85625   3.768   9.028   7.731  0.7795 -0.0079  0.0088
  635MOL0     O85626   3.643   9.062   7.683 -0.3097 -0.5554  0.6387
  635MOL0     C85627   3.553   9.134   7.759 -0.0803 -0.2518 -0.4852
  635MOL0     C85628   3.588   9.279   7.767 -0.3900 -0.5482  0.2593
  635MOL0     C85629   3.476   9.351   7.837  0.2497 -0.2553 -0.2473
  635MOL0     C85630   3.523   9.494   7.880 -0.1361  0.2553 -0.0705
  635MOL0     C85631   3.417   9.578   7.953 -0.4980 -0.4385  0.1259
  635MOL0     C85632   3.472   9.720   7.966  0.8600 -0.4478  0.1415
  635MOL0     C85633   3.360   9.814   8.033 -0.7707  0.2837 -0.5898
  635MOL0     C85634   3.261   9.869   7.939 -0.0732 -0.3023  0.4060
  635MOL0    Cl85635   3.140   9.976   8.027  0.2743 -0.8487  0.2864
  635MOL0     C85636   3.791   8.979   7.859 -0.6947 -0.2523 -0.0514
  635MOL0     C85637   3.920   8.949   7.907 -0.0399 -0.0241  0.5855
  635MOL0     O85638   4.158   8.874   8.064 -0.0492 -0.8801  0.5592
  635MOL0     C85639   4.447   8.939   7.856 -0.6769 -0.4210 -0.7036
  635MOL0     C85640   4.583   8.927   7.840 -0.1461 -0.3059 -0.9152
  635MOL0     N85641   5.011   8.820   7.217 -0.2372  1.0154 -0.2894
  635MOL0     N85642   5.125   8.825   7.155 -0.0633 -0.2093 -0.0301
  635MOL0     C85643   6.541   8.442   7.317 -0.3527 -0.1885  0.0592
  635MOL0     C85644   6.666   8.428   7.388  0.7071  0.7101 -0.0156
  635MOL0     C85645   6.997   8.606   7.623 -1.0054 -0.1676  0.5365
  635MOL0     C85646   7.015   8.565   7.759  0.2196  0.1184 -1.1194
  635MOL0     C85647   7.137   8.589   7.821  1.1820  0.4082  0.2192
  635MOL0     C85648   7.238   8.653   7.766  0.4373 -1.2242 -0.6713
  635MOL0     O85649   7.326   8.703   7.856 -0.2144  0.1589 -0.0811
  635MOL0     C85650   7.450   8.769   7.822  0.1214 -0.0086 -0.1303
  635MOL0     C85651   7.540   8.673   7.755  0.1996  0.7010 -0.4016
  635MOL0     C85652   7.561   8.543   7.842 -0.8474 -0.8875  0.3266
  635MOL0     C85653   7.688   8.471   7.795 -0.3508  0.3159 -0.8354
  635MOL0     C85654   7.800   8.529   7.868 -0.6761  0.1375 -0.0112
  635MOL0     C85655   7.889   8.592   7.916  0.1450 -0.0159 -0.0469
  635MOL0     C85656   7.232   8.684   7.630 -0.4594 -0.3194 -0.5152
  635MOL0     C85657   7.107   8.658   7.556 -0.6230  0.6659 -0.1422
  635MOL0     H85658   6.553   8.505   7.703  2.9144  0.1781  0.1216
  635MOL0     H85659   6.332   8.488   7.587 -0.9044  2.4240  1.3775
  635MOL0     H85660   6.136   8.337   7.357  0.3269 -0.2887  1.7074
  635MOL0     H85661   6.171   8.467   7.472 -4.1446  2.2376 -0.1601
  635MOL0     H85662   6.083   8.630   7.350  1.3588  0.6375 -0.6316
  635MOL0     H85663   6.102   8.550   7.199  1.5480 -0.5518  1.2397
  635MOL0     H85664   5.909   8.405   7.237  2.9966 -0.2928 -0.3449
  635MOL0     H85665   5.893   8.437   7.409 -2.0686 -2.9310 -2.3748
  635MOL0     H85666   5.833   8.683   7.344  2.2052  2.2427 -3.4682
  635MOL0     H85667   5.846   8.665   7.189  0.0188  0.7638  0.2147
  635MOL0     H85668   5.661   8.489   7.169  2.4255  1.3835 -0.7504
  635MOL0     H85669   5.628   8.520   7.346 -1.3575  1.9639  0.1403
  635MOL0     H85670   5.644   8.775   7.249  0.7147  1.5764 -3.2789
  635MOL0     H85671   5.591   8.687   7.102  0.3512 -1.9178 -0.1841
  635MOL0     H85672   5.387   8.603   7.220 -1.4122  1.2526 -2.3193
  635MOL0     H85673   5.441   8.703   7.366 -0.8048  3.4972 -0.6544
  635MOL0     H85674   5.366   8.828   7.090 -0.7174  1.0939  0.0220
  635MOL0     H85675   5.429   8.910   7.234  0.7128  0.6126 -1.6019
  635MOL0     H85676   5.224   8.793   7.469 -0.9748 -1.5068  0.2027
  635MOL0     H85677   4.859   8.884   7.421  0.8214 -0.4422 -2.6990
  635MOL0     H85678   4.886   8.714   7.472  1.2319 -0.5550  0.4004
  635MOL0     H85679   5.004   8.967   7.607  1.2974 -0.2632  0.6974
  635MOL0     H85680   5.068   8.798   7.630 -0.1343 -0.9435 -0.7521
  635MOL0     H85681   4.873   8.734   7.740 -1.0680  0.9191  0.2516
  635MOL0     H85682   4.772   8.853   7.653  0.3520  2.1061 -0.3647
  635MOL0     H85683   4.825   9.019   7.800 -2.8440 -2.1265 -1.8608
  635MOL0     H85684   4.967   8.929   7.861 -0.7760 -0.7303  2.3807
  635MOL0     H85685   4.633   8.702   8.084 -1.7844 -2.9852 -0.8584
  635MOL0     H85686   4.332   8.748   8.210  0.3973 -1.9296  2.0814
  635MOL0     H85687   4.296   8.624   8.079  0.7506 -0.8555  0.2489
  635MOL0     H85688   4.449   8.615   8.152  0.8803 -1.0110 -2.8253
  635MOL0     H85689   4.087   9.024   7.622 -2.1012  0.7900 -1.1214
  635MOL0     H85690   3.849   9.068   7.547  2.1141  3.0556  0.5184
  635MOL0     H85691   3.456   9.137   7.709 -0.1902  1.7858 -0.2159
  635MOL0     H85692   3.545   9.089   7.859 -3.6438  1.1513  0.0127
  635MOL0     H85693   3.689   9.297   7.805  0.3609 -0.7804 -1.5469
  635MOL0     H85694   3.599   9.309   7.663 -0.7578 -0.5677  0.2127
  635MOL0     H85695   3.446   9.303   7.931 -0.3349  0.9914  0.2211
  635MOL0     H85696   3.385   9.367   7.778  0.4507  3.3127  0.2190
  635MOL0     H85697   3.615   9.482   7.938 -0.8745  0.2776  1.1350
  635MOL0     H85698   3.545   9.545   7.786 -1.4390 -1.2723 -1.2800
  635MOL0     H85699   3.386   9.532   8.048 -3.5762  3.2911  1.2060
  635MOL0     H85700   3.331   9.581   7.886  1.1104  0.3616 -2.0313
  635MOL0     H85701   3.562   9.725   8.028  0.3582 -0.3452  0.8783
  635MOL0     H85702   3.501   9.759   7.868  0.6158 -3.6356 -1.3288
  635MOL0     H85703   3.405   9.902   8.078  2.6534 -1.6426  0.0929
  635MOL0     H85704   3.310   9.756   8.112  0.5711 -1.2777 -0.8341
  635MOL0     H85705   3.204   9.787   7.893  0.7207 -2.0226  2.3630
  635MOL0     H85706   3.315   9.926   7.863 -3.4242  1.4209 -0.9195
  635MOL0     H85707   3.719   8.971   7.940  0.8445  1.2205  1.5377
  635MOL0     H85708   3.923   8.921   8.012 -1.3109 -0.7592  0.4335
  635MOL0     H85709   4.397   9.008   7.788 -0.9260  0.8970  0.7495
  635MOL0     H85710   4.629   8.994   7.767  0.3732  1.2398  0.7566
  635MOL0     H85711   6.539   8.417   7.212 -2.0621 -3.7130  0.7821
  635MOL0     H85712   6.746   8.386   7.327 -2.6730 -2.3464 -2.8427
  635MOL0     H85713   6.934   8.529   7.821  2.4889  2.3957  3.7328
  635MOL0     H85714   7.151   8.567   7.926  2.8856  0.1141 -0.0399
  635MOL0     H85715   7.432   8.853   7.753 -1.1569 -0.7496 -0.7356
  635MOL0     H85716   7.496   8.803   7.915 -1.9259  1.1983  0.5084
  635MOL0     H85717   7.629   8.733   7.733  0.3756  1.1030  1.2415
  635MOL0     H85718   7.500   8.638   7.659  0.2693  0.3081 -0.2893
  635MOL0     H85719   7.481   8.469   7.846 -1.1466 -0.5391  3.6890
  635MOL0     H85720   7.569   8.580   7.945 -3.1994 -1.7398  0.8722
  635MOL0     H85721   7.705   8.478   7.687 -3.0674  1.5609 -1.2890
  635MOL0     H85722   7.680   8.368   7.828  5.1564 -0.4735 -1.1196
  635MOL0     H85723   7.972   8.653   7.945  1.2575 -1.6542  0.3491
  635MOL0     H85724   7.315   8.742   7.592 -0.6671  3.2755  3.6188
  635MOL0     H85725   7.096   8.687   7.452 -1.9975 -0.1097 -0.2462
  636MOL0     O85726   2.267   4.255   5.609  0.2951  0.2419  0.1000
  636MOL0     C85727   2.264   4.145   5.561  0.4421 -0.3135 -0.1298
  636MOL0     O85728   2.165   4.049   5.584  0.3619  0.4200 -0.2067
  636MOL0     C85729   2.045   4.093   5.631  0.3971  0.2546 -0.4686
  636MOL0     C85730   2.033   4.131   5.769  0.3081  0.0067  0.0750
  636MOL0     C85731   1.906   4.156   5.825 -0.2162 -0.3115  0.9153
  636MOL0     C85732   1.794   4.140   5.749 -0.1906 -0.0129  0.5114
  636MOL0     O85733   1.660   4.157   5.786  0.1061  0.5290  0.4307
  636MOL0     C85734   1.622   4.175   5.918 -0.1326 -0.7351 -0.3187
  636MOL0     C85735   1.479   4.132   5.929 -0.2961  1.1429  0.0674
  636MOL0     C85736   1.406   4.157   6.063 -0.7681  0.0490 -0.7084
  636MOL0     C85737   1.261   4.129   6.059  0.3079  0.1249 -0.5291
  636MOL0     C85738   1.196   4.095   6.192 -0.0594 -0.8700  0.1419
  636MOL0     C85739   1.209   4.209   6.301 -0.0677  0.3349  0.2666
  636MOL0     C85740   1.177   4.153   6.441  0.9614 -0.3289  0.2831
  636MOL0     C85741   1.039   4.084   6.454  0.1453 -0.1518 -0.0568
  636MOL0     N85742   1.013   4.034   6.580  0.2357 -0.2946 -0.3342
  636MOL0     C85743   1.073   3.920   6.633 -0.7333  0.0327 -0.6738
  636MOL0     C85744   1.021   3.914   6.761 -0.6266 -0.2519  0.2542
  636MOL0     C85745   1.044   3.810   6.866  1.5459  0.3590  0.6188
  636MOL0     C85746   1.197   3.760   6.890 -0.0180 -0.0388  0.7996
  636MOL0     C85747   1.267   3.689   6.775 -0.4247 -0.9017 -0.7278
  636MOL0     C85748   1.402   3.616   6.816 -0.3417  0.0194  0.0661
  636MOL0     O85749   1.386   3.485   6.869  0.0007 -0.1262  0.6667
  636MOL0     C85750   1.489   3.397   6.885 -0.4987  0.2297  0.4489
  636MOL0     C85751   1.620   3.434   6.876 -0.9613  0.1366  0.2898
  636MOL0     C85752   1.728   3.351   6.897 -0.3023  0.4092 -0.1133
  636MOL0     C85753   1.863   3.408   6.866 -0.5059 -0.5444  0.8010
  636MOL0     C85754   1.696   3.213   6.924 -0.7571  0.1724  0.0728
  636MOL0     C85755   1.813   3.116   6.943  0.7408 -0.5583 -0.2323
  636MOL0     O85756   1.941   3.149   6.932 -0.8283  0.0290  0.0947
  636MOL0     C85757   2.051   3.062   6.963  0.3362  0.0808  0.2315
  636MOL0     C85758   2.058   2.949   7.055  0.2872 -0.0023  0.7818
  636MOL0     C85759   2.170   2.861   7.060 -0.3104  0.1972  0.3546
  636MOL0     C85760   2.278   2.885   6.973 -0.6232 -0.6452  0.9405
  636MOL0     O85761   2.388   2.804   6.982  0.7387  0.1409  0.1894
  636MOL0     C85762   2.475   2.786   6.868  0.2622 -1.2267 -0.1187
  636MOL0     C85763   2.537   2.648   6.885  0.4625  0.5745  0.0038
  636MOL0     C85764   2.623   2.657   7.012  0.5633 -0.3646  0.5101
  636MOL0     C85765   2.709   2.538   7.029 -0.5951 -0.4935  0.4527
  636MOL0     C85766   2.799   2.568   7.155  0.2388  0.5579 -0.5786
  636MOL0     C85767   2.923   2.665   7.136 -0.2311 -0.5464 -0.6539
  636MOL0     C85768   3.027   2.577   7.068 -0.0146 -0.0677  0.7407
  636MOL0     C85769   3.163   2.641   7.084  0.0967  0.7680 -0.1395
  636MOL0    Cl85770   3.172   2.795   6.998 -0.2086 -0.1782  0.5201
  636MOL0     C85771   2.276   2.992   6.879  0.4445  0.4050 -0.5225
  636MOL0     C85772   2.159   3.074   6.874 -0.5952 -0.5875  0.4512
  636MOL0     O85773   1.770   3.002   6.981 -0.2958  0.1833  0.4452
  636MOL0     C85774   1.561   3.176   6.931 -0.5724  0.6784 -0.1926
  636MOL0     C85775   1.460   3.266   6.911  0.7444 -0.4369  0.5930
  636MOL0     N85776   0.934   4.022   6.779 -0.6150  0.0204  0.1756
  636MOL0     N85777   0.937   4.099   6.674 -0.7528  0.3405  0.2562
  636MOL0     C85778   1.802   4.106   5.613  0.0901 -0.4748 -0.0055
  636MOL0     C85779   1.930   4.084   5.560  0.7311 -0.2622  0.2888
  636MOL0     C85780   2.383   4.103   5.482  0.0772  0.2372 -0.1367
  636MOL0     C85781   2.403   3.958   5.452  1.1111  0.0646 -0.6679
  636MOL0     C85782   2.520   3.921   5.405  0.4779 -0.0506 -0.4677
  636MOL0     C85783   2.620   4.010   5.370 -0.1113 -0.0350  0.4082
  636MOL0     O85784   2.741   3.981   5.304  0.6889  1.1340  0.1193
  636MOL0     C85785   2.734   3.878   5.199  0.1112  0.3464 -0.1432
  636MOL0     C85786   2.864   3.882   5.128 -0.0871 -0.6311 -0.0845
  636MOL0     C85787   2.984   3.833   5.217  0.6672  0.4668  0.5783
  636MOL0     C85788   3.120   3.901   5.187  0.4986  0.2776 -0.2652
  636MOL0     C85789   3.166   3.887   5.047 -0.3981  0.8024 -0.2685
  636MOL0     C85790   3.214   3.891   4.932  1.8470 -0.0421  0.2628
  636MOL0     C85791   2.597   4.147   5.386 -0.7757  0.3438  0.1252
  636MOL0     C85792   2.478   4.199   5.445  0.0592 -0.1766  0.4896
  636MOL0     H85793   2.121   4.155   5.829 -0.0704  1.2288  0.1836
  636MOL0     H85794   1.899   4.178   5.931  0.1317  0.9913  0.6791
  636MOL0     H85795   1.688   4.122   5.987 -0.1325  0.6801  0.8338
  636MOL0     H85796   1.619   4.284   5.930 -0.8562 -0.7079 -0.6859
  636MOL0     H85797   1.421   4.188   5.855 -2.9990 -0.9646  0.4149
  636MOL0     H85798   1.482   4.026   5.904  1.3672  0.6981  1.9123
  636MOL0     H85799   1.451   4.088   6.136  0.7446  0.3615 -1.3086
  636MOL0     H85800   1.421   4.259   6.101 -0.0375  0.1229 -1.1729
  636MOL0     H85801   1.206   4.213   6.014  1.9304  2.6355  1.8957
  636MOL0     H85802   1.250   4.041   5.994  2.5849  0.8060 -1.9495
  636MOL0     H85803   1.087   4.089   6.176 -0.1035  0.3253 -0.1491
  636MOL0     H85804   1.240   4.004   6.232  0.7453  0.0659  1.4295
  636MOL0     H85805   1.315   4.236   6.302  1.3440 -4.1963 -0.7271
  636MOL0     H85806   1.148   4.295   6.274  1.2420  0.7199 -1.7027
  636MOL0     H85807   1.258   4.085   6.470 -0.4640 -2.7991 -1.2118
  636MOL0     H85808   1.174   4.235   6.514  1.7797  0.0718 -0.1238
  636MOL0     H85809   1.048   4.010   6.374  1.0705  2.3902 -2.4575
  636MOL0     H85810   0.965   4.161   6.427  3.5503  3.2783 -0.4247
  636MOL0     H85811   1.125   3.840   6.581  1.6206 -1.6292  3.7458
  636MOL0     H85812   0.996   3.833   6.962  0.4373  1.2324 -0.1115
  636MOL0     H85813   0.984   3.726   6.828  2.2095  0.3528 -0.4426
  636MOL0     H85814   1.198   3.688   6.972 -0.1082  1.2770  1.9964
  636MOL0     H85815   1.268   3.839   6.915  1.0326  0.2300 -2.4452
  636MOL0     H85816   1.288   3.772   6.708  1.7085 -1.3913 -0.7404
  636MOL0     H85817   1.213   3.616   6.714  0.2162  1.7086 -4.7562
  636MOL0     H85818   1.459   3.673   6.890 -0.2651 -2.7310  2.2765
  636MOL0     H85819   1.471   3.603   6.732  1.7804 -1.1845  1.8902
  636MOL0     H85820   1.638   3.538   6.851 -0.7955 -0.5641 -3.0596
  636MOL0     H85821   1.913   3.346   6.791  0.6599  1.4308 -0.1134
  636MOL0     H85822   1.857   3.512   6.833  0.0849 -1.3212 -2.0196
  636MOL0     H85823   1.932   3.406   6.950  0.0745  0.0392  0.3504
  636MOL0     H85824   1.966   2.936   7.112 -0.3130  1.2016  0.1085
  636MOL0     H85825   2.182   2.785   7.137  0.8909  1.8220  1.8501
  636MOL0     H85826   2.418   2.807   6.777 -0.1703 -1.4425  0.0960
  636MOL0     H85827   2.559   2.855   6.870 -0.3713 -0.4492  0.1206
  636MOL0     H85828   2.458   2.574   6.900  1.0990  0.0283  0.7370
  636MOL0     H85829   2.601   2.611   6.804 -1.7631  0.2390 -1.6956
  636MOL0     H85830   2.573   2.671   7.108  3.8508  0.6851  2.2590
  636MOL0     H85831   2.689   2.744   6.998 -0.0679 -0.1588 -1.5447
  636MOL0     H85832   2.645   2.453   7.055 -0.7132 -0.4707  0.2338
  636MOL0     H85833   2.759   2.509   6.937 -0.4289  0.8750  0.0927
  636MOL0     H85834   2.826   2.480   7.213  0.6891  1.7054  1.0167
  636MOL0     H85835   2.732   2.611   7.230 -2.5021 -0.6557 -2.1563
  636MOL0     H85836   2.892   2.753   7.078 -1.9215 -0.1933  0.6921
  636MOL0     H85837   2.947   2.703   7.236 -1.8002 -1.3563  0.0715
  636MOL0     H85838   3.017   2.562   6.960 -0.1945 -2.5723  1.0349
  636MOL0     H85839   3.037   2.481   7.121 -2.9538 -0.7138  0.2875
  636MOL0     H85840   3.239   2.567   7.059  1.6741  2.1056  0.5845
  636MOL0     H85841   3.177   2.658   7.191  1.6741 -0.2932 -0.1598
  636MOL0     H85842   2.364   3.010   6.818  2.5739 -0.8483  1.9578
  636MOL0     H85843   2.147   3.151   6.799 -2.9333 -1.3804 -0.0881
  636MOL0     H85844   1.525   3.074   6.937 -0.6098  0.5848 -1.6184
  636MOL0     H85845   1.357   3.233   6.920  0.3693  1.0126  2.4510
  636MOL0     H85846   1.717   4.087   5.550  0.9724 -2.2872 -0.7114
  636MOL0     H85847   1.934   4.064   5.453 -0.9316 -0.3736  0.2217
  636MOL0     H85848   2.319   3.892   5.474  0.7343 -0.0013 -2.1701
  636MOL0     H85849   2.532   3.815   5.385 -3.3091 -0.1420 -3.5141
  636MOL0     H85850   2.711   3.776   5.229 -1.7505  0.8375  0.2321
  636MOL0     H85851   2.650   3.903   5.134  0.6931  2.5826 -0.1391
  636MOL0     H85852   2.896   3.982   5.096  0.1057  0.2693  2.6541
  636MOL0     H85853   2.869   3.826   5.034  0.4916 -3.5313  1.5470
  636MOL0     H85854   2.996   3.727   5.193  1.5439  0.7853 -0.5089
  636MOL0     H85855   2.968   3.837   5.325  0.0100  0.0284  0.4954
  636MOL0     H85856   3.190   3.863   5.263 -0.0734  2.0735  1.2393
  636MOL0     H85857   3.110   4.008   5.209  0.2615 -0.1082  1.7819
  636MOL0     H85858   3.255   3.895   4.833  1.3855 -0.7675  0.0363
  636MOL0     H85859   2.680   4.210   5.355 -0.0561  0.1700  1.6189
  636MOL0     H85860   2.469   4.305   5.466 -1.9684 -0.4723  1.3926
  637MOL0     O85861   1.333   3.743   1.188 -0.1008  0.5001 -0.0107
  637MOL0     C85862   1.349   3.781   1.070 -0.5365  0.3344  0.3794
  637MOL0     O85863   1.249   3.809   0.972 -0.0411  0.4284  0.0663
  637MOL0     C85864   1.115   3.823   1.009 -0.8101  0.1945 -0.2579
  637MOL0     C85865   1.025   3.858   0.899 -0.0227  0.2397  0.0038
  637MOL0     C85866   0.885   3.879   0.928  0.6150  0.8234 -0.2834
  637MOL0     C85867   0.839   3.865   1.058  0.0535 -0.5799  0.0024
  637MOL0     O85868   0.705   3.893   1.077 -0.5773 -0.3667  0.3795
  637MOL0     C85869   0.645   3.823   1.186 -0.4830 -0.3105 -0.0089
  637MOL0     C85870   0.496   3.837   1.163  0.1070 -0.8543  0.1009
  637MOL0     C85871   0.395   3.771   1.262 -0.4503 -0.3138 -0.6289
  637MOL0     C85872   0.262   3.753   1.192 -0.7741 -0.1664  0.0916
  637MOL0     C85873   0.162   3.678   1.284 -0.3576 -0.2418 -0.5840
  637MOL0     C85874   0.012   3.685   1.248 -0.3481 -0.5455 -0.1884
  637MOL0     C85875  -0.071   3.602   1.355 -0.3873 -0.3337 -0.7637
  637MOL0     C85876  -0.037   3.445   1.364 -0.1583  0.3417  0.2385
  637MOL0     N85877  -0.115   3.374   1.475 -0.6611 -0.1165  0.0202
  637MOL0     C85878  -0.150   3.422   1.598 -0.1875  0.5596 -0.4073
  637MOL0     C85879  -0.221   3.320   1.662 -0.4781 -0.5128 -0.1612
  637MOL0     C85880  -0.280   3.329   1.797 -0.4410 -0.9221  0.4729
  637MOL0     C85881  -0.420   3.401   1.808 -0.9257 -0.5786 -0.3518
  637MOL0     C85882  -0.517   3.314   1.731 -0.4646  1.1623 -0.6844
  637MOL0     C85883  -0.658   3.367   1.745  0.3279  0.1600 -0.8362
  637MOL0     O85884  -0.682   3.405   1.882 -0.2368 -0.2808 -0.0159
  637MOL0     C85885  -0.813   3.446   1.911 -0.2384 -0.2803  0.0714
  637MOL0     C85886  -0.842   3.452   2.043  0.9024  0.7179  0.7362
  637MOL0     C85887  -0.967   3.495   2.095  0.2806 -0.3909  0.5625
  637MOL0     C85888  -0.970   3.531   2.245  1.3265 -0.4607 -0.8646
  637MOL0     C85889  -1.076   3.504   1.995 -0.4603 -0.2945 -0.6945
  637MOL0     C85890  -1.217   3.535   2.023  0.7129  0.0201 -0.7180
  637MOL0     O85891  -1.314   3.548   1.915  0.6915 -0.3509 -0.4500
  637MOL0     C85892  -1.442   3.575   1.954 -0.1286 -1.2598  0.1878
  637MOL0     C85893  -1.491   3.704   1.948  0.3840  0.0111  0.6222
  637MOL0     C85894  -1.620   3.736   1.960  1.0048 -0.0792  0.3944
  637MOL0     C85895  -1.711   3.623   1.971 -0.5129 -0.6984  0.4380
  637MOL0     O85896  -1.843   3.655   1.986 -0.0154 -0.2218 -0.0825
  637MOL0     C85897  -1.903   3.600   2.105  1.1121 -0.8961  0.1602
  637MOL0     C85898  -2.018   3.680   2.157 -0.2090 -0.1196 -0.2711
  637MOL0     C85899  -2.136   3.703   2.058 -0.3107 -0.5645 -0.2541
  637MOL0     C85900  -2.213   3.581   2.016 -0.0936 -0.5813 -0.0240
  637MOL0     C85901  -2.296   3.614   1.886  0.9306  0.6452  0.0832
  637MOL0     C85902  -2.400   3.507   1.844  0.9470  0.3356 -0.2824
  637MOL0     C85903  -2.506   3.565   1.740 -0.8000 -0.8697 -0.2765
  637MOL0     C85904  -2.613   3.467   1.696  0.1115  0.2855 -0.0700
  637MOL0    Cl85905  -2.744   3.556   1.609  0.5836 -0.2906 -0.3443
  637MOL0     C85906  -1.664   3.489   1.977  0.1326  0.0467 -0.6436
  637MOL0     C85907  -1.528   3.470   1.974 -1.0649 -0.5985  0.0723
  637MOL0     O85908  -1.245   3.550   2.140 -0.0541 -0.2114 -0.5060
  637MOL0     C85909  -1.044   3.475   1.860 -0.0499  0.6077 -0.3316
  637MOL0     C85910  -0.915   3.464   1.817 -0.0492  0.2405  0.5174
  637MOL0     N85911  -0.206   3.209   1.581 -0.0131  0.3318  0.3574
  637MOL0     N85912  -0.148   3.238   1.468  0.4080 -0.3332  0.4709
  637MOL0     C85913   0.929   3.839   1.168  0.3765  0.3299  0.3212
  637MOL0     C85914   1.060   3.819   1.139  0.8168  1.0378  0.2609
  637MOL0     C85915   1.485   3.778   1.014 -0.1546 -0.0032 -0.2141
  637MOL0     C85916   1.505   3.841   0.885 -0.0095 -0.3198  0.6363
  637MOL0     C85917   1.640   3.862   0.857  0.1136  1.2376  0.7663
  637MOL0     C85918   1.747   3.833   0.947 -0.3003  0.0650  0.1372
  637MOL0     O85919   1.883   3.849   0.922  0.2448 -0.4537  0.4075
  637MOL0     C85920   1.917   3.880   0.787  0.0272  0.1364  0.4232
  637MOL0     C85921   2.073   3.880   0.778  0.4256  0.2139 -0.2878
  637MOL0     C85922   2.136   3.741   0.803 -0.4526  0.4463  0.0042
  637MOL0     C85923   2.280   3.739   0.760 -0.2296  0.2851  0.5950
  637MOL0     C85924   2.343   3.612   0.805  1.4247 -0.7563  1.2654
  637MOL0     C85925   2.406   3.524   0.859  1.0814 -0.9828 -0.1932
  637MOL0     C85926   1.716   3.769   1.066 -0.0227 -0.7075 -0.5798
  637MOL0     C85927   1.590   3.737   1.099  0.6245  0.3141  0.0841
  637MOL0     H85928   1.068   3.859   0.799 -1.7394 -1.8193 -0.8273
  637MOL0     H85929   0.812   3.903   0.850  1.2702 -1.8365 -1.8283
  637MOL0     H85930   0.665   3.717   1.200  2.1898  0.0854 -0.4497
  637MOL0     H85931   0.683   3.869   1.278 -1.4074 -1.1194  0.8070
  637MOL0     H85932   0.472   3.944   1.163 -2.2877 -1.3103 -1.7061
  637MOL0     H85933   0.468   3.800   1.064 -0.1913 -0.0569 -0.1235
  637MOL0     H85934   0.429   3.674   1.298  0.0302  0.5465  1.3910
  637MOL0     H85935   0.384   3.837   1.349  0.2778  0.0561 -0.8147
  637MOL0     H85936   0.216   3.851   1.180 -0.8702  0.0818  2.0459
  637MOL0     H85937   0.282   3.686   1.108  1.6480 -0.5074  0.8515
  637MOL0     H85938   0.194   3.574   1.272  2.9286  0.2307  2.3533
  637MOL0     H85939   0.180   3.706   1.388  0.6417 -1.2254 -0.4698
  637MOL0     H85940  -0.010   3.792   1.251  0.8671 -0.2271 -1.3869
  637MOL0     H85941  -0.013   3.647   1.148 -1.2321 -2.1414  0.5915
  637MOL0     H85942  -0.046   3.657   1.446  2.1536  1.2046 -2.2663
  637MOL0     H85943  -0.177   3.618   1.333 -0.4876  0.5769  0.2922
  637MOL0     H85944   0.069   3.433   1.391 -0.8932  0.3034  3.5314
  637MOL0     H85945  -0.065   3.401   1.268 -1.3911  0.4269  0.5488
  637MOL0     H85946  -0.119   3.516   1.642  1.9093 -1.8658  3.9679
  637MOL0     H85947  -0.295   3.228   1.835  1.3630 -1.4241 -0.0453
  637MOL0     H85948  -0.211   3.374   1.870 -0.4212  0.2615 -0.2373
  637MOL0     H85949  -0.415   3.497   1.756 -1.7098 -0.1950  0.2463
  637MOL0     H85950  -0.452   3.404   1.913 -1.8307 -2.4950 -0.5327
  637MOL0     H85951  -0.516   3.210   1.766 -0.1540  1.1381 -0.7596
  637MOL0     H85952  -0.492   3.291   1.627  0.8496 -2.2838  0.2526
  637MOL0     H85953  -0.720   3.286   1.707  1.2265 -2.8925  3.5005
  637MOL0     H85954  -0.672   3.459   1.687  1.7705 -0.1763 -1.7551
  637MOL0     H85955  -0.766   3.424   2.116  2.0071  1.5666 -0.0380
  637MOL0     H85956  -1.063   3.496   2.291 -0.1212  0.1591 -3.1455
  637MOL0     H85957  -0.876   3.501   2.291  1.5665  1.5168  0.0261
  637MOL0     H85958  -0.980   3.640   2.251 -0.0595 -0.4667 -2.2887
  637MOL0     H85959  -1.430   3.792   1.931  1.6484 -0.4190  2.6349
  637MOL0     H85960  -1.665   3.834   1.971  0.5430 -0.4753  2.3322
  637MOL0     H85961  -1.931   3.497   2.082  0.0802 -0.2580 -1.6062
  637MOL0     H85962  -1.833   3.598   2.189 -1.1700  2.0358  2.3517
  637MOL0     H85963  -2.057   3.627   2.244 -1.1110 -0.9041 -1.1329
  637MOL0     H85964  -1.983   3.780   2.186  1.7680 -0.9321  0.3315
  637MOL0     H85965  -2.097   3.753   1.969 -2.0009 -1.4728 -1.5789
  637MOL0     H85966  -2.207   3.773   2.104 -0.2146  0.1611 -1.1766
  637MOL0     H85967  -2.153   3.490   2.005 -1.6577 -1.7189  0.6635
  637MOL0     H85968  -2.277   3.561   2.101  0.0642  0.3738  0.3313
  637MOL0     H85969  -2.231   3.629   1.800 -2.5384  0.5211 -2.7941
  637MOL0     H85970  -2.354   3.705   1.902 -1.0612 -0.4065 -0.8486
  637MOL0     H85971  -2.348   3.416   1.813 -0.4769  0.4342 -3.2431
  637MOL0     H85972  -2.458   3.486   1.935 -0.9022 -0.2949 -1.5511
  637MOL0     H85973  -2.439   3.595   1.659 -2.5195 -1.0584 -1.8166
  637MOL0     H85974  -2.556   3.653   1.779 -0.5698 -0.3976 -1.0300
  637MOL0     H85975  -2.656   3.419   1.784  0.6707 -2.1469 -1.0549
  637MOL0     H85976  -2.582   3.379   1.640  1.5692  0.7306 -0.0087
  637MOL0     H85977  -1.739   3.410   1.980 -0.4257  0.5771 -0.1838
  637MOL0     H85978  -1.490   3.369   1.987 -2.7310 -1.1573  0.9068
  637MOL0     H85979  -1.129   3.483   1.793 -0.6059  1.9929  0.4997
  637MOL0     H85980  -0.914   3.454   1.709 -0.5584 -0.0581  0.5333
  637MOL0     H85981   0.888   3.828   1.268 -2.1857  0.2874 -0.6449
  637MOL0     H85982   1.111   3.800   1.233  1.3430  0.3101 -0.1638
  637MOL0     H85983   1.429   3.887   0.821  3.1002  2.5689 -1.2991
  637MOL0     H85984   1.675   3.918   0.770  0.2406 -1.4884 -1.0646
  637MOL0     H85985   1.875   3.799   0.727 -3.1161  0.7132  1.6391
  637MOL0     H85986   1.877   3.977   0.755  1.1349 -0.1877 -2.2091
  637MOL0     H85987   2.103   3.943   0.862 -2.9277 -2.2250  3.0673
  637MOL0     H85988   2.112   3.939   0.695 -0.1275  2.4001  0.9364
  637MOL0     H85989   2.072   3.670   0.750  0.5295 -0.7405  0.3478
  637MOL0     H85990   2.132   3.716   0.910 -1.3722 -0.2923 -0.1885
  637MOL0     H85991   2.329   3.825   0.806 -0.8219  0.7238  0.4143
  637MOL0     H85992   2.288   3.748   0.651  0.4497 -1.8561  0.4051
  637MOL0     H85993   2.470   3.450   0.904  5.5403  2.0458 -0.8942
  637MOL0     H85994   1.793   3.750   1.140 -0.7466  0.7927  0.6123
  637MOL0     H85995   1.587   3.687   1.195  0.6848 -2.3946 -1.2500
  638MOL0     O85996   0.717   5.653   7.135 -0.2208  0.2674 -0.2541
  638MOL0     C85997   0.754   5.759   7.179 -0.7575  0.4962 -0.9505
  638MOL0     O85998   0.680   5.855   7.218  0.5845 -0.9646 -0.3512
  638MOL0     C85999   0.565   5.895   7.148  0.0919 -0.7954  0.1811
  638MOL0     C86000   0.484   5.980   7.216 -0.5332  0.2685 -0.3890
  638MOL0     C86001   0.356   6.025   7.167 -0.5708  0.0143  0.3113
  638MOL0     C86002   0.317   5.984   7.035  0.5353 -0.2601 -1.5472
  638MOL0     O86003   0.205   6.015   6.976  0.6461  0.3622  0.2341
  638MOL0     C86004   0.106   6.099   7.040 -0.1454 -0.1682 -0.0662
  638MOL0     C86005  -0.022   6.076   6.963  0.0864  0.8292 -1.1049
  638MOL0     C86006  -0.139   6.164   7.000  1.2804 -0.5635 -0.1970
  638MOL0     C86007  -0.265   6.099   6.936 -0.0032  0.8178 -1.0385
  638MOL0     C86008  -0.394   6.180   6.954 -0.5708 -0.0036 -0.0429
  638MOL0     C86009  -0.433   6.211   7.101 -0.9537 -0.3182 -0.5348
  638MOL0     C86010  -0.491   6.084   7.162  0.0190 -0.7071 -0.1299
  638MOL0     C86011  -0.532   6.085   7.316 -0.3874  0.1802 -0.2447
  638MOL0     N86012  -0.542   5.951   7.360  0.7008 -0.0322  0.5040
  638MOL0     C86013  -0.438   5.864   7.348 -0.8247  0.7596 -0.4961
  638MOL0     C86014  -0.486   5.740   7.395  0.2948 -0.1094  0.0784
  638MOL0     C86015  -0.418   5.612   7.417 -0.4700  0.7619  0.8169
  638MOL0     C86016  -0.270   5.628   7.464  1.4087 -0.5202  0.1139
  638MOL0     C86017  -0.264   5.630   7.618  0.2933  0.4468 -0.1671
  638MOL0     C86018  -0.268   5.493   7.671 -0.0971 -0.4245  1.1761
  638MOL0     O86019  -0.251   5.511   7.813  0.0158  1.2222  1.1895
  638MOL0     C86020  -0.358   5.520   7.900 -0.9547 -0.7834  0.8513
  638MOL0     C86021  -0.320   5.529   8.031 -0.2366  0.7397 -0.0555
  638MOL0     C86022  -0.414   5.552   8.133 -0.0892  0.6069  0.1803
  638MOL0     C86023  -0.364   5.548   8.276 -0.0918  0.0919 -0.9092
  638MOL0     C86024  -0.552   5.577   8.098  0.6961 -0.2461 -0.7742
  638MOL0     C86025  -0.656   5.611   8.206  0.2500  0.7077  1.0993
  638MOL0     O86026  -0.749   5.690   8.164  0.2722 -0.7500 -0.2105
  638MOL0     C86027  -0.858   5.726   8.238 -0.7394 -0.8026  0.1744
  638MOL0     C86028  -0.843   5.800   8.353  0.4523  1.2428 -0.2461
  638MOL0     C86029  -0.954   5.834   8.426  0.8349  0.2438 -0.5232
  638MOL0     C86030  -1.072   5.787   8.378  1.2882 -0.1740  0.3534
  638MOL0     O86031  -1.178   5.815   8.457  0.4618  0.0129 -0.1933
  638MOL0     C86032  -1.294   5.735   8.459  0.0741  0.8027  0.2337
  638MOL0     C86033  -1.390   5.777   8.571 -0.8126  0.0476  0.1593
  638MOL0     C86034  -1.511   5.689   8.569  0.1655 -0.4134  0.7985
  638MOL0     C86035  -1.595   5.725   8.439  0.8264  0.2542  0.4477
  638MOL0     C86036  -1.740   5.677   8.442  0.4032 -0.3670 -0.7196
  638MOL0     C86037  -1.837   5.783   8.490  0.1862  0.2098  0.7597
  638MOL0     C86038  -1.820   5.823   8.633  0.0435  0.7629  0.5870
  638MOL0     C86039  -1.955   5.897   8.682 -0.7512  0.1237 -0.4087
  638MOL0    Cl86040  -1.937   6.070   8.661 -0.3677  0.1769  0.1344
  638MOL0     C86041  -1.097   5.703   8.270 -0.0525 -0.9215  0.8420
  638MOL0     C86042  -0.982   5.679   8.191 -0.1405 -0.0331 -0.4062
  638MOL0     O86043  -0.644   5.568   8.321 -0.5330  0.4079 -0.4721
  638MOL0     C86044  -0.590   5.571   7.960 -0.3918 -0.1496  0.6049
  638MOL0     C86045  -0.491   5.551   7.866 -0.1029 -0.6391  0.0524
  638MOL0     N86046  -0.623   5.760   7.410  0.2850 -0.1665 -0.2103
  638MOL0     N86047  -0.652   5.888   7.397  0.1764  0.3798 -0.3335
  638MOL0     C86048   0.404   5.901   6.968 -0.2733 -0.1833 -0.2305
  638MOL0     C86049   0.524   5.858   7.016  0.3468 -0.5108 -0.5463
  638MOL0     C86050   0.904   5.766   7.196  0.2667  0.7662  0.9004
  638MOL0     C86051   0.992   5.658   7.172  1.0658 -1.1255 -0.1019
  638MOL0     C86052   1.128   5.679   7.190  0.0046 -0.4023  0.0793
  638MOL0     C86053   1.187   5.799   7.230  0.7303  0.6017  0.3998
  638MOL0     O86054   1.329   5.813   7.247  0.2115 -1.0726 -0.1839
  638MOL0     C86055   1.365   5.946   7.296 -1.2897  0.1587  0.0611
  638MOL0     C86056   1.494   5.940   7.376  0.3141  0.8071  1.0933
  638MOL0     C86057   1.609   5.864   7.310 -0.1789  0.4245  0.3258
  638MOL0     C86058   1.727   5.855   7.417 -0.7505  0.3061  0.0607
  638MOL0     C86059   1.834   5.767   7.380  0.6870  0.6994  0.3233
  638MOL0     C86060   1.933   5.702   7.348  0.0842 -0.4058 -0.1864
  638MOL0     C86061   1.093   5.904   7.245 -0.4326  0.0970  0.5103
  638MOL0     C86062   0.959   5.889   7.234  0.4133 -0.3915  0.1106
  638MOL0     H86063   0.497   6.024   7.315 -3.3101  1.9235 -0.6593
  638MOL0     H86064   0.290   6.086   7.227 -0.4356 -0.6343  1.1478
  638MOL0     H86065   0.089   6.064   7.142  2.0838  1.5583  0.9694
  638MOL0     H86066   0.130   6.205   7.047  2.4670 -0.7101  0.2595
  638MOL0     H86067  -0.002   6.090   6.857  0.4175  0.6221 -1.0727
  638MOL0     H86068  -0.044   5.969   6.971 -2.0647  1.3053  0.1132
  638MOL0     H86069  -0.158   6.172   7.108  1.0052  0.1288 -0.2903
  638MOL0     H86070  -0.129   6.263   6.953  1.2070 -0.4117  0.1025
  638MOL0     H86071  -0.251   6.092   6.828 -1.3875  1.1095 -1.2678
  638MOL0     H86072  -0.267   5.994   6.963  4.2682  1.4065  2.7562
  638MOL0     H86073  -0.383   6.274   6.900 -0.2146  0.5358  0.9452
  638MOL0     H86074  -0.474   6.129   6.899  0.3611 -0.4667 -1.0280
  638MOL0     H86075  -0.344   6.233   7.160 -1.3964  0.8428 -0.2909
  638MOL0     H86076  -0.503   6.295   7.109 -1.7401 -0.5848 -3.3771
  638MOL0     H86077  -0.588   6.063   7.116  0.6093 -2.8797 -0.5067
  638MOL0     H86078  -0.416   6.006   7.147  1.1183 -0.0474  1.6133
  638MOL0     H86079  -0.627   6.139   7.320 -0.5640 -0.0172 -1.5151
  638MOL0     H86080  -0.456   6.148   7.365  0.5590 -1.1432  0.0360
  638MOL0     H86081  -0.335   5.875   7.317  0.9597 -2.2562  3.4018
  638MOL0     H86082  -0.472   5.547   7.487  0.5045 -1.0255 -0.0139
  638MOL0     H86083  -0.429   5.566   7.318  1.2512  0.2176  0.8427
  638MOL0     H86084  -0.233   5.719   7.416  4.3919 -2.4509 -1.6450
  638MOL0     H86085  -0.217   5.538   7.430  1.6832 -0.6384  0.8481
  638MOL0     H86086  -0.341   5.693   7.662  2.4639  2.2883  1.2558
  638MOL0     H86087  -0.171   5.684   7.641  0.5180  0.9641 -2.0604
  638MOL0     H86088  -0.181   5.442   7.628 -1.3669 -0.8158 -1.0868
  638MOL0     H86089  -0.358   5.436   7.646 -0.0872 -0.6067  1.5476
  638MOL0     H86090  -0.217   5.502   8.052 -0.2164 -1.9057 -2.8563
  638MOL0     H86091  -0.368   5.652   8.310 -0.7696 -0.2837  0.1889
  638MOL0     H86092  -0.430   5.496   8.345 -0.1990  0.4003 -0.7771
  638MOL0     H86093  -0.259   5.520   8.283  0.8943  3.5570  0.4241
  638MOL0     H86094  -0.743   5.829   8.384  0.5425 -0.7135  1.4584
  638MOL0     H86095  -0.955   5.887   8.521 -1.8370 -2.5867  1.2180
  638MOL0     H86096  -1.349   5.745   8.365 -0.4172  1.6523  0.5991
  638MOL0     H86097  -1.271   5.629   8.470  1.4902  1.0086 -0.6001
  638MOL0     H86098  -1.345   5.761   8.669 -0.0530 -3.6271 -0.6618
  638MOL0     H86099  -1.414   5.884   8.564  0.3630  0.3602  0.6579
  638MOL0     H86100  -1.573   5.703   8.658 -4.5359  1.7986 -2.4400
  638MOL0     H86101  -1.487   5.582   8.569  0.5446 -0.3361  1.5907
  638MOL0     H86102  -1.596   5.833   8.421 -1.2623  0.4581  1.4801
  638MOL0     H86103  -1.555   5.660   8.360 -2.4726 -2.3051  0.6856
  638MOL0     H86104  -1.744   5.591   8.510  0.7475  0.2747  0.1338
  638MOL0     H86105  -1.775   5.637   8.347 -3.2134 -0.5984  0.5553
  638MOL0     H86106  -1.821   5.870   8.425 -0.9374  0.5780  0.9564
  638MOL0     H86107  -1.938   5.745   8.474  0.1400  0.7129 -0.2317
  638MOL0     H86108  -1.737   5.894   8.628  0.1332  0.5956 -0.4589
  638MOL0     H86109  -1.797   5.741   8.701 -4.0335  0.3648  1.7227
  638MOL0     H86110  -1.977   5.873   8.786  0.4534  1.8752  0.2946
  638MOL0     H86111  -2.042   5.858   8.628  0.8055 -1.9869 -1.5580
  638MOL0     H86112  -1.197   5.683   8.231 -0.2131 -0.3704  0.9683
  638MOL0     H86113  -0.992   5.628   8.096 -0.8224  2.2953 -1.6586
  638MOL0     H86114  -0.693   5.585   7.929  0.1435 -1.0295 -1.7934
  638MOL0     H86115  -0.502   5.543   7.758 -0.2297 -1.2729  0.1085
  638MOL0     H86116   0.378   5.874   6.866  1.9359  2.2339 -1.5719
  638MOL0     H86117   0.584   5.786   6.962 -2.2028 -1.6458 -2.0420
  638MOL0     H86118   0.952   5.562   7.142 -0.0155 -0.9117  0.5736
  638MOL0     H86119   1.194   5.593   7.183 -0.3402 -0.7288  0.7626
  638MOL0     H86120   1.384   6.008   7.207 -0.9752  0.5734  0.4134
  638MOL0     H86121   1.297   5.994   7.366 -1.1421  1.1998 -0.4866
  638MOL0     H86122   1.476   5.893   7.473 -0.3299  1.3828  1.2568
  638MOL0     H86123   1.524   6.045   7.380 -1.7432  1.4820 -0.0702
  638MOL0     H86124   1.650   5.913   7.222  2.9955 -2.1477  0.2062
  638MOL0     H86125   1.569   5.770   7.270  1.1280 -0.7469  1.6779
  638MOL0     H86126   1.686   5.826   7.515  1.4170 -0.0047  0.9281
  638MOL0     H86127   1.775   5.948   7.449  2.1939  0.6292 -4.5242
  638MOL0     H86128   2.015   5.634   7.336  1.1237  0.4299  1.6622
  638MOL0     H86129   1.122   6.007   7.263 -2.0661  0.3651  1.9040
  638MOL0     H86130   0.884   5.965   7.250  0.9668 -0.0104  0.9245
  639MOL0     O86131   1.255   7.821  10.845  0.0549 -0.0815 -0.0664
  639MOL0     C86132   1.273   7.731  10.762 -0.9101  0.2029 -0.4389
  639MOL0     O86133   1.174   7.658  10.698  0.2793 -0.5410  0.3288
  639MOL0     C86134   1.047   7.698  10.664 -0.1478  0.0124 -0.2884
  639MOL0     C86135   1.009   7.686  10.536 -0.2672 -0.0499 -0.1246
  639MOL0     C86136   0.883   7.731  10.489  0.8617 -0.0608 -0.0320
  639MOL0     C86137   0.793   7.796  10.577  0.0214  0.6602 -0.0161
  639MOL0     O86138   0.675   7.847  10.531 -0.0876  0.4749  0.5837
  639MOL0     C86139   0.675   7.957  10.450  0.2828 -0.5151  0.7748
  639MOL0     C86140   0.563   8.049  10.524  0.4595 -0.6783  0.6027
  639MOL0     C86141   0.430   7.983  10.520  0.0944 -0.0084 -0.5831
  639MOL0     C86142   0.310   8.062  10.579 -0.7044  0.7673  0.0463
  639MOL0     C86143   0.281   8.179  10.481 -0.4177 -0.8599  0.4062
  639MOL0     C86144   0.136   8.233  10.499 -0.4674 -0.2199  0.2012
  639MOL0     C86145   0.102   8.330  10.383  0.5612 -0.5202  0.0478
  639MOL0     C86146   0.105   8.477  10.428  0.0385  0.2659  0.2763
  639MOL0     N86147   0.031   8.556  10.328 -0.3958 -0.4319 -0.0258
  639MOL0     C86148   0.098   8.649  10.245 -0.2708  0.8983  0.2721
  639MOL0     C86149   0.005   8.719  10.177  0.7645  0.0191 -0.9233
  639MOL0     C86150   0.035   8.824  10.072  0.3934  0.2545  0.6733
  639MOL0     C86151   0.027   8.777   9.924  0.4323 -0.5509 -0.3761
  639MOL0     C86152  -0.116   8.775   9.867 -0.3283  0.0407  0.1389
  639MOL0     C86153  -0.193   8.896   9.889 -0.1716 -0.8681  0.5760
  639MOL0     O86154  -0.318   8.917   9.815 -0.5923 -0.4890 -0.8314
  639MOL0     C86155  -0.422   8.832   9.840  0.4462  0.9025 -0.1852
  639MOL0     C86156  -0.441   8.758   9.955 -0.3111  0.4318  0.9572
  639MOL0     C86157  -0.556   8.673   9.971  0.6173  0.3149  0.5510
  639MOL0     C86158  -0.552   8.590  10.098 -0.0359  0.8671 -0.5199
  639MOL0     C86159  -0.662   8.673   9.873 -0.3722 -0.4745  0.4735
  639MOL0     C86160  -0.790   8.613   9.885  0.5521  0.9803  0.7894
  639MOL0     O86161  -0.870   8.606   9.773 -0.5439  0.0963 -0.0516
  639MOL0     C86162  -0.999   8.566   9.765 -0.5150  0.4350  0.7342
  639MOL0     C86163  -1.091   8.531   9.861  0.2457 -0.2640  0.0958
  639MOL0     C86164  -1.228   8.513   9.836 -0.8810  0.5183 -0.1614
  639MOL0     C86165  -1.270   8.496   9.700 -0.2485  0.4174  0.0886
  639MOL0     O86166  -1.399   8.466   9.663 -0.8665  0.2664 -0.6587
  639MOL0     C86167  -1.509   8.478   9.756  0.1548 -0.0193  0.8057
  639MOL0     C86168  -1.638   8.425   9.684  0.2610  0.2532  0.6951
  639MOL0     C86169  -1.757   8.402   9.778 -0.3354  0.9861 -0.5700
  639MOL0     C86170  -1.889   8.387   9.699  0.0532 -0.1028  0.1181
  639MOL0     C86171  -1.998   8.356   9.801 -0.1488 -0.3755 -0.1519
  639MOL0     C86172  -2.136   8.345   9.736  0.8225  0.0124  0.1205
  639MOL0     C86173  -2.244   8.338   9.856  0.0831 -0.2877 -0.6285
  639MOL0     C86174  -2.387   8.300   9.818  0.5318  0.6112 -0.0870
  639MOL0    Cl86175  -2.453   8.425   9.715  0.2564  0.0981  0.1325
  639MOL0     C86176  -1.164   8.492   9.603 -0.4102  0.5538  0.0938
  639MOL0     C86177  -1.033   8.542   9.632 -0.3056 -0.3405  0.6221
  639MOL0     O86178  -0.827   8.560   9.994  0.8242 -0.0783  0.6084
  639MOL0     C86179  -0.637   8.747   9.757  0.6749 -0.7903 -0.2843
  639MOL0     C86180  -0.522   8.827   9.745 -0.2373  0.4113 -0.1433
  639MOL0     N86181  -0.121   8.671  10.216  0.1639 -0.5347 -0.2065
  639MOL0     N86182  -0.107   8.565  10.295  0.1282 -0.3678  1.1138
  639MOL0     C86183   0.827   7.813  10.713  0.0035 -0.2856 -0.0275
  639MOL0     C86184   0.956   7.757  10.762 -0.0250  0.6745  0.9268
  639MOL0     C86185   1.414   7.692  10.723  0.7740  0.1365 -0.1581
  639MOL0     C86186   1.524   7.730  10.808 -0.1052 -0.1843 -0.8021
  639MOL0     C86187   1.648   7.692  10.782  0.7806 -0.3837  0.1155
  639MOL0     C86188   1.670   7.618  10.664 -0.6933  0.3490 -0.1213
  639MOL0     O86189   1.790   7.565  10.632 -0.5876 -0.5154 -0.5580
  639MOL0     C86190   1.902   7.580  10.728 -0.1780 -0.0180 -0.2964
  639MOL0     C86191   2.031   7.535  10.658  0.7634 -0.0791  0.3769
  639MOL0     C86192   2.145   7.583  10.744 -0.1710  0.4927  0.8405
  639MOL0     C86193   2.278   7.569  10.670 -0.4090  0.9299 -0.1114
  639MOL0     C86194   2.297   7.425  10.637  0.0363  0.1921 -0.2239
  639MOL0     C86195   2.324   7.313  10.600 -0.3126 -0.4296  0.9362
  639MOL0     C86196   1.565   7.576  10.585  0.4600  0.6170  1.0192
  639MOL0     C86197   1.436   7.611  10.614  0.1824  0.3124  0.4585
  639MOL0     H86198   1.076   7.651  10.459  0.0940 -1.4572  0.8013
  639MOL0     H86199   0.845   7.729  10.387  0.1048 -1.9359  0.2513
  639MOL0     H86200   0.768   8.014  10.440  0.3816 -0.7000  0.6391
  639MOL0     H86201   0.635   7.945  10.349 -0.3607  0.4102  0.9082
  639MOL0     H86202   0.578   8.062  10.632 -2.7698 -2.4172  1.3893
  639MOL0     H86203   0.569   8.146  10.474 -2.4005 -0.3034  0.8372
  639MOL0     H86204   0.409   7.959  10.415  0.9550  1.0680 -1.0298
  639MOL0     H86205   0.435   7.889  10.574 -0.4782 -0.8632 -1.9584
  639MOL0     H86206   0.220   8.000  10.573 -2.1719  2.8463 -0.6186
  639MOL0     H86207   0.331   8.104  10.677 -2.5164 -3.3086  2.4527
  639MOL0     H86208   0.360   8.255  10.476 -1.1577 -0.1209 -3.7239
  639MOL0     H86209   0.291   8.142  10.378  0.5142  0.0470  0.1533
  639MOL0     H86210   0.069   8.147  10.489  0.6631 -0.9298 -2.2379
  639MOL0     H86211   0.121   8.292  10.590 -0.7380  1.8909 -1.1220
  639MOL0     H86212   0.160   8.313  10.291 -0.8574 -0.9721 -0.7873
  639MOL0     H86213   0.000   8.301  10.356 -0.7462  1.3087  2.6978
  639MOL0     H86214   0.201   8.517  10.462 -0.7892  0.2126  2.8898
  639MOL0     H86215   0.048   8.479  10.522 -0.1208  0.6693  0.1717
  639MOL0     H86216   0.206   8.651  10.242 -0.2802  0.3455 -1.5391
  639MOL0     H86217  -0.026   8.915  10.083 -2.9198 -1.6596 -0.4468
  639MOL0     H86218   0.139   8.855  10.086  1.3239 -1.5848 -1.5550
  639MOL0     H86219   0.073   8.678   9.922  0.0700 -0.8194  1.7547
  639MOL0     H86220   0.089   8.841   9.861  0.6438 -0.2305  0.1479
  639MOL0     H86221  -0.165   8.690   9.915 -1.1626  0.4736  0.0760
  639MOL0     H86222  -0.099   8.742   9.764 -0.4899 -2.5282  0.8767
  639MOL0     H86223  -0.121   8.972   9.857  0.0545 -1.3214 -0.0261
  639MOL0     H86224  -0.229   8.911   9.991 -1.7910 -0.4016 -0.0270
  639MOL0     H86225  -0.367   8.774  10.033 -0.5442  2.3305  0.8404
  639MOL0     H86226  -0.578   8.484  10.091 -0.5043  1.0020 -0.7965
  639MOL0     H86227  -0.452   8.590  10.144 -0.5784  2.1951  0.7255
  639MOL0     H86228  -0.613   8.632  10.178  0.9267 -0.8093  1.1786
  639MOL0     H86229  -1.067   8.544   9.966  2.1668  1.6822 -0.5265
  639MOL0     H86230  -1.289   8.512   9.925 -1.3669 -1.9073 -0.4417
  639MOL0     H86231  -1.500   8.414   9.845  1.0526 -1.7546 -0.4654
  639MOL0     H86232  -1.518   8.585   9.777 -0.4768  0.0598  0.1599
  639MOL0     H86233  -1.669   8.476   9.592 -1.0539 -3.2318 -0.9912
  639MOL0     H86234  -1.604   8.323   9.663  1.6986  0.0275  3.6387
  639MOL0     H86235  -1.756   8.479   9.855  2.6360 -0.1514  0.6711
  639MOL0     H86236  -1.740   8.309   9.833  0.2132  0.0751 -2.2067
  639MOL0     H86237  -1.912   8.472   9.634  2.4159  0.7133  0.2517
  639MOL0     H86238  -1.885   8.309   9.623 -1.8103  0.4248 -0.5713
  639MOL0     H86239  -2.008   8.433   9.879 -1.6913 -1.1589  0.4753
  639MOL0     H86240  -1.976   8.260   9.848 -2.5482 -0.4105  1.0727
  639MOL0     H86241  -2.161   8.432   9.675 -1.2797 -0.9538 -0.4806
  639MOL0     H86242  -2.138   8.260   9.668 -2.8217  1.4552 -1.8381
  639MOL0     H86243  -2.240   8.429   9.916 -0.9858 -2.7861  3.6957
  639MOL0     H86244  -2.209   8.264   9.929 -1.0659  1.2754  1.6241
  639MOL0     H86245  -2.441   8.312   9.912 -1.4052  2.7817 -1.3748
  639MOL0     H86246  -2.387   8.202   9.769  1.2878  0.4906  0.1515
  639MOL0     H86247  -1.186   8.463   9.501  1.0940  5.3732 -1.8769
  639MOL0     H86248  -0.955   8.561   9.559  2.3367  1.5559  3.6702
  639MOL0     H86249  -0.705   8.741   9.673  2.5803  2.5355 -2.2743
  639MOL0     H86250  -0.529   8.882   9.652 -3.7720  2.6262  1.2346
  639MOL0     H86251   0.768   7.872  10.782  1.9750  0.1905  1.3213
  639MOL0     H86252   0.987   7.769  10.865 -1.1375  0.8538  1.2580
  639MOL0     H86253   1.510   7.802  10.888  1.9667  0.7858 -1.2480
  639MOL0     H86254   1.719   7.732  10.853  2.4120 -0.3483 -1.4750
  639MOL0     H86255   1.910   7.686  10.756  0.9865 -0.0397 -0.5263
  639MOL0     H86256   1.870   7.523  10.815 -2.7838 -0.2947 -1.3462
  639MOL0     H86257   2.031   7.575  10.556  0.9952 -0.2581  0.3053
  639MOL0     H86258   2.033   7.426  10.647  2.7322 -0.1279  0.8285
  639MOL0     H86259   2.142   7.532  10.841  0.2219  0.5335  0.8766
  639MOL0     H86260   2.135   7.690  10.763 -1.3449  0.0745  2.9409
  639MOL0     H86261   2.363   7.614  10.721  0.9702  0.1294 -1.6139
  639MOL0     H86262   2.263   7.620  10.575  0.7139  0.1849 -0.7088
  639MOL0     H86263   2.339   7.211  10.571 -0.3857  0.3896 -2.3707
  639MOL0     H86264   1.592   7.510  10.502 -1.2212 -0.4992  1.3011
  639MOL0     H86265   1.359   7.578  10.544  0.1797  0.4500  0.3973
  640MOL0     O86266   0.048   1.057  10.624  0.3393  0.5961  0.0279
  640MOL0     C86267   0.030   0.934  10.617  0.4543 -0.6460  0.0974
  640MOL0     O86268  -0.088   0.874  10.619  0.2975 -0.4555  0.2118
  640MOL0     C86269  -0.218   0.928  10.608 -0.0052  0.0413 -0.2156
  640MOL0     C86270  -0.327   0.845  10.635 -0.1874 -0.2471 -0.4420
  640MOL0     C86271  -0.459   0.884  10.607 -0.2934  0.4039  0.3858
  640MOL0     C86272  -0.483   1.003  10.533 -0.3679  1.2965  0.0944
  640MOL0     O86273  -0.601   1.042  10.486  0.4327 -0.7985  0.3476
  640MOL0     C86274  -0.713   0.971  10.525  0.0674 -0.3750 -0.8681
  640MOL0     C86275  -0.836   1.013  10.441 -0.0160 -0.7109 -0.0667
  640MOL0     C86276  -0.968   0.988  10.519 -0.5744 -0.7349  0.0026
  640MOL0     C86277  -0.981   0.844  10.553  0.4830 -0.0363 -0.2238
  640MOL0     C86278  -1.121   0.807  10.604 -0.1564 -0.1467 -0.5431
  640MOL0     C86279  -1.140   0.656  10.651  0.3178  0.1695 -0.1766
  640MOL0     C86280  -1.282   0.613  10.693  0.0126 -0.1031 -0.0218
  640MOL0     C86281  -1.346   0.698  10.809 -0.6227 -0.6120 -0.4558
  640MOL0     N86282  -1.473   0.625  10.839 -0.5525 -0.3268  0.2523
  640MOL0     C86283  -1.597   0.640  10.777 -0.0728 -0.5805  0.6055
  640MOL0     C86284  -1.673   0.537  10.819 -1.0252  0.1548 -0.2580
  640MOL0     C86285  -1.806   0.512  10.761 -0.0048 -0.4363 -0.3664
  640MOL0     C86286  -1.905   0.435  10.837  0.3927 -0.6577  0.5357
  640MOL0     C86287  -1.940   0.503  10.970  0.1146  0.2291 -0.7298
  640MOL0     C86288  -2.056   0.433  11.044  0.8888 -0.3298 -0.6797
  640MOL0     O86289  -2.181   0.419  10.972  0.5768 -0.3728 -0.6150
  640MOL0     C86290  -2.276   0.364  11.049  0.3144 -1.0618  0.0787
  640MOL0     C86291  -2.364   0.454  11.107 -0.2643  0.4766 -1.5240
  640MOL0     C86292  -2.462   0.409  11.192  0.8808  0.5546  0.1297
  640MOL0     C86293  -2.556   0.514  11.256  0.0307  0.1470  0.0943
  640MOL0     C86294  -2.472   0.263  11.214 -0.5905 -0.6237  0.3851
  640MOL0     C86295  -2.589   0.193  11.278  0.0051  0.0362  0.6069
  640MOL0     O86296  -2.575   0.072  11.352 -0.1456  0.4198  0.6008
  640MOL0     C86297  -2.688   0.015  11.401  0.0394 -0.0673 -0.2038
  640MOL0     C86298  -2.779   0.080  11.486 -0.2349  0.0030 -0.3390
  640MOL0     C86299  -2.905   0.026  11.526  0.3138  0.2017 -0.5741
  640MOL0     C86300  -2.931  -0.101  11.487 -0.4881 -0.2835  0.5261
  640MOL0     O86301  -3.044  -0.165  11.541  0.4422 -0.3645 -0.1831
  640MOL0     C86302  -3.112  -0.267  11.467 -0.5070 -0.0717  0.4043
  640MOL0     C86303  -3.245  -0.287  11.533  0.0988  0.4505 -0.8040
  640MOL0     C86304  -3.335  -0.163  11.548  0.2621 -0.8735 -0.0634
  640MOL0     C86305  -3.478  -0.209  11.588  0.2981 -0.0170 -0.3075
  640MOL0     C86306  -3.584  -0.097  11.574  0.0831  0.0327  0.1788
  640MOL0     C86307  -3.724  -0.148  11.598 -0.1246  0.2027 -0.8714
  640MOL0     C86308  -3.820  -0.024  11.603 -1.3348  0.4970  0.8917
  640MOL0     C86309  -3.948  -0.052  11.678 -0.0685 -1.0485 -0.8343
  640MOL0    Cl86310  -4.023  -0.177  11.584 -0.2997 -0.0496  0.1161
  640MOL0     C86311  -2.841  -0.167  11.389  0.1354  0.1576  0.6202
  640MOL0     C86312  -2.725  -0.108  11.353 -1.3085 -0.1540 -0.4349
  640MOL0     O86313  -2.692   0.255  11.258  0.2088  0.0608 -0.2319
  640MOL0     C86314  -2.386   0.180  11.150 -0.4043  0.2242 -0.5849
  640MOL0     C86315  -2.286   0.228  11.068  0.2717  0.4816 -0.3035
  640MOL0     N86316  -1.597   0.458  10.911  0.2021  0.0612 -0.7612
  640MOL0     N86317  -1.473   0.508  10.918 -0.4551  0.7186 -0.4681
  640MOL0     C86318  -0.373   1.094  10.516 -0.2474  0.1677 -0.0880
  640MOL0     C86319  -0.242   1.053  10.551 -0.6183  0.1392 -0.1001
  640MOL0     C86320   0.148   0.844  10.586  1.0965  0.4709  0.5667
  640MOL0     C86321   0.135   0.712  10.545 -0.1679  0.2609 -0.5223
  640MOL0     C86322   0.244   0.640  10.498  0.0770 -0.0683  0.7239
  640MOL0     C86323   0.375   0.695  10.500 -0.4079  0.6401  0.2763
  640MOL0     O86324   0.489   0.622  10.452  0.2236 -0.3336 -0.0170
  640MOL0     C86325   0.620   0.679  10.459  0.7342 -0.1525  1.1268
  640MOL0     C86326   0.728   0.595  10.389 -0.4498  0.7090  0.2018
  640MOL0     C86327   0.702   0.568  10.242  0.7654  0.6063 -0.3240
  640MOL0     C86328   0.777   0.446  10.194 -0.0881  0.0319 -0.8773
  640MOL0     C86329   0.925   0.453  10.221  0.3656 -0.7643  0.4512
  640MOL0     C86330   1.042   0.467  10.247  0.7687 -0.4485  0.2962
  640MOL0     C86331   0.385   0.820  10.567 -0.2718 -0.0747  1.0380
  640MOL0     C86332   0.274   0.895  10.611 -0.6369  0.4243  0.3773
  640MOL0     H86333  -0.316   0.747  10.679  2.4663 -0.2047 -0.8527
  640MOL0     H86334  -0.535   0.813  10.637 -0.8373  0.4864 -0.7224
  640MOL0     H86335  -0.697   0.868  10.491 -0.2603 -0.9934  0.7667
  640MOL0     H86336  -0.736   0.976  10.632  2.0401  0.0536 -0.4226
  640MOL0     H86337  -0.827   1.120  10.421  1.9685 -1.0569 -1.2786
  640MOL0     H86338  -0.827   0.964  10.344  0.9510 -2.0267  0.6557
  640MOL0     H86339  -0.981   1.049  10.608  1.0728  2.7388 -1.9339
  640MOL0     H86340  -1.040   1.008  10.439  0.1636  0.8861 -0.3104
  640MOL0     H86341  -0.953   0.779  10.469  2.1104 -1.5724  1.4260
  640MOL0     H86342  -0.909   0.810  10.628 -1.6237 -1.2643  1.3662
  640MOL0     H86343  -1.129   0.859  10.700 -1.0410 -2.4155  0.7076
  640MOL0     H86344  -1.195   0.841  10.531  0.9923 -0.0095 -1.6629
  640MOL0     H86345  -1.116   0.591  10.566 -1.9837 -0.6279 -0.2970
  640MOL0     H86346  -1.079   0.635  10.739 -1.1123 -3.1941  0.1637
  640MOL0     H86347  -1.345   0.633  10.606  0.4443 -0.4082 -0.4085
  640MOL0     H86348  -1.276   0.510  10.731 -3.5538  0.3446  2.1992
  640MOL0     H86349  -1.359   0.803  10.781 -4.6172 -0.4867  1.2583
  640MOL0     H86350  -1.280   0.698  10.896 -0.1275 -0.4193 -0.8193
  640MOL0     H86351  -1.635   0.718  10.711  0.3924 -0.6975  0.1976
  640MOL0     H86352  -1.847   0.611  10.738  0.3866 -0.0065  0.7054
  640MOL0     H86353  -1.791   0.464  10.664 -0.2199 -1.5532  0.1331
  640MOL0     H86354  -1.859   0.338  10.861 -2.3420 -1.8659  1.2495
  640MOL0     H86355  -1.996   0.416  10.780 -1.7852  0.9657  3.2218
  640MOL0     H86356  -1.950   0.611  10.954  2.2401  0.5641 -0.0458
  640MOL0     H86357  -1.855   0.498  11.038  0.5489 -0.1244 -1.2867
  640MOL0     H86358  -2.071   0.496  11.132 -0.9237 -3.0157  1.1011
  640MOL0     H86359  -2.021   0.339  11.089 -0.5641  0.5505  2.5688
  640MOL0     H86360  -2.363   0.561  11.089  0.7634  0.7913  0.2063
  640MOL0     H86361  -2.585   0.493  11.359 -0.3767  0.7113  0.0969
  640MOL0     H86362  -2.503   0.609  11.264 -3.0254  2.0077 -0.4059
  640MOL0     H86363  -2.640   0.531  11.188  0.1553 -1.0385 -0.3877
  640MOL0     H86364  -2.747   0.182  11.505  0.4550  0.1860 -2.2504
  640MOL0     H86365  -2.972   0.066  11.601  0.8584  1.8025 -0.9188
  640MOL0     H86366  -3.114  -0.235  11.363  1.9552 -0.4821  0.1761
  640MOL0     H86367  -3.057  -0.362  11.461 -2.9132 -1.4439 -2.4587
  640MOL0     H86368  -3.288  -0.367  11.472 -0.3158 -0.4453  0.6198
  640MOL0     H86369  -3.220  -0.323  11.633  2.9153 -0.6874 -1.8073
  640MOL0     H86370  -3.334  -0.096  11.462 -0.2628  2.7145  2.5282
  640MOL0     H86371  -3.303  -0.089  11.622 -1.2998 -1.0134  0.8045
  640MOL0     H86372  -3.502  -0.293  11.522  2.2333  0.3229 -1.5108
  640MOL0     H86373  -3.484  -0.252  11.689 -3.1660  0.6694 -0.0790
  640MOL0     H86374  -3.573  -0.044  11.478  2.6484  2.3978  1.6425
  640MOL0     H86375  -3.556  -0.023  11.649 -0.9684  0.7274 -0.1041
  640MOL0     H86376  -3.755  -0.217  11.520 -1.5793 -1.0575  0.7231
  640MOL0     H86377  -3.729  -0.208  11.690 -0.2502  1.6621  0.1192
  640MOL0     H86378  -3.834   0.014  11.501 -0.1429 -3.6516 -1.0110
  640MOL0     H86379  -3.767   0.052  11.661 -0.1917 -1.2883  2.3173
  640MOL0     H86380  -4.012   0.037  11.671  2.8094  1.0036 -4.4047
  640MOL0     H86381  -3.924  -0.081  11.780  2.6880 -0.0205 -1.1264
  640MOL0     H86382  -2.879  -0.257  11.342 -2.3003  0.9046  1.0175
  640MOL0     H86383  -2.662  -0.165  11.286 -0.0174 -0.8431  1.2828
  640MOL0     H86384  -2.402   0.073  11.155 -0.3270  0.1577 -1.4576
  640MOL0     H86385  -2.211   0.158  11.030 -0.0332  0.4633 -0.8805
  640MOL0     H86386  -0.391   1.185  10.459 -1.6938  0.3065  0.5516
  640MOL0     H86387  -0.156   1.111  10.519  0.1332 -0.4239  0.8216
  640MOL0     H86388   0.033   0.680  10.531 -0.0250  0.4205 -2.0345
  640MOL0     H86389   0.217   0.544  10.457 -0.7460  0.8815 -1.1106
  640MOL0     H86390   0.620   0.777  10.410  1.7747 -0.0011  1.4195
  640MOL0     H86391   0.650   0.685  10.564 -0.6141  3.6605  1.4621
  640MOL0     H86392   0.733   0.506  10.452 -1.9970  0.0913 -0.4696
  640MOL0     H86393   0.824   0.646  10.386  0.6371 -1.2779 -0.4924
  640MOL0     H86394   0.719   0.660  10.186  1.6838 -0.4688 -1.9053
  640MOL0     H86395   0.596   0.542  10.235  0.6057 -0.7442  4.2742
  640MOL0     H86396   0.761   0.429  10.087  2.1342  1.0266 -1.4201
  640MOL0     H86397   0.740   0.359  10.250  1.7201  0.1270  0.5406
  640MOL0     H86398   1.139   0.487  10.288  0.1819 -0.3000  1.6928
  640MOL0     H86399   0.481   0.857  10.601  0.2780 -1.1144  0.6442
  640MOL0     H86400   0.281   0.993  10.656 -2.1917  0.4529  0.6127
  641MOL0     O86401   1.210   3.782   2.318  0.4409  0.0709  0.2847
  641MOL0     C86402   1.228   3.729   2.209 -0.3471  0.2251 -0.9075
  641MOL0     O86403   1.143   3.689   2.121  0.0794 -0.1568 -1.0285
  641MOL0     C86404   1.010   3.679   2.151 -0.3246  0.0858 -0.5001
  641MOL0     C86405   0.907   3.694   2.061  0.4670  0.0952 -0.3373
  641MOL0     C86406   0.772   3.687   2.096  0.8232 -0.0686  0.0630
  641MOL0     C86407   0.732   3.659   2.228 -0.5551  0.2549  0.4673
  641MOL0     O86408   0.605   3.665   2.278  0.0098  0.7771  0.3407
  641MOL0     C86409   0.518   3.772   2.234  0.1312  0.0455  0.8582
  641MOL0     C86410   0.412   3.798   2.343 -0.0931  0.4012 -0.9216
  641MOL0     C86411   0.307   3.898   2.305 -0.0192 -0.3193  0.7758
  641MOL0     C86412   0.188   3.897   2.397 -0.2844  0.8943  0.6175
  641MOL0     C86413   0.058   3.976   2.361 -1.0092  0.5251 -0.5143
  641MOL0     C86414   0.093   4.112   2.324 -0.2335 -0.3013 -0.0481
  641MOL0     C86415  -0.031   4.206   2.322 -0.1556 -0.4405 -0.3801
  641MOL0     C86416  -0.074   4.243   2.466  0.0431  0.3718  0.3839
  641MOL0     N86417  -0.113   4.383   2.467  0.1999  0.6932 -0.0756
  641MOL0     C86418  -0.233   4.431   2.416 -0.7773  0.3759  0.7027
  641MOL0     C86419  -0.212   4.559   2.380 -0.2497  0.7019  0.2999
  641MOL0     C86420  -0.276   4.638   2.278 -0.9072  0.2264  0.1882
  641MOL0     C86421  -0.408   4.703   2.331 -0.9196 -0.5395 -0.6219
  641MOL0     C86422  -0.387   4.816   2.430  0.1958  0.8808 -0.7302
  641MOL0     C86423  -0.513   4.897   2.462  0.0774 -0.2518  0.1568
  641MOL0     O86424  -0.574   4.830   2.568 -0.1901  0.2556  0.6058
  641MOL0     C86425  -0.705   4.863   2.598  0.1923 -1.0129  1.1023
  641MOL0     C86426  -0.765   4.973   2.528 -1.1490  0.2986  0.1209
  641MOL0     C86427  -0.899   5.022   2.559 -0.4417 -0.7463 -0.2602
  641MOL0     C86428  -0.953   5.145   2.491 -0.0296 -0.4251  0.1773
  641MOL0     C86429  -0.968   4.941   2.650  0.6022 -0.0144 -0.6035
  641MOL0     C86430  -1.106   4.978   2.697 -0.4194  0.0244  0.7730
  641MOL0     O86431  -1.184   4.868   2.739 -0.1302  0.4042 -0.0606
  641MOL0     C86432  -1.318   4.869   2.766 -0.0849  0.2933 -0.6020
  641MOL0     C86433  -1.398   4.977   2.765 -0.5415 -1.0021 -0.0495
  641MOL0     C86434  -1.531   4.965   2.787 -0.5130 -0.1241 -0.5156
  641MOL0     C86435  -1.596   4.836   2.809 -1.0170 -0.8364 -0.7554
  641MOL0     O86436  -1.726   4.822   2.832  0.0980  0.1875  0.0949
  641MOL0     C86437  -1.814   4.919   2.782  1.0318 -0.7111 -0.2022
  641MOL0     C86438  -1.953   4.855   2.799 -1.5491 -0.1985  0.1774
  641MOL0     C86439  -2.075   4.950   2.757  1.1183 -0.3294 -0.4525
  641MOL0     C86440  -2.159   4.891   2.638 -0.2435 -0.3397  0.1064
  641MOL0     C86441  -2.275   4.990   2.616  0.4655  0.3438  0.3557
  641MOL0     C86442  -2.357   4.943   2.489  0.0682 -0.0224  0.0817
  641MOL0     C86443  -2.490   5.005   2.473  0.6945 -1.0021 -0.3286
  641MOL0     C86444  -2.571   4.927   2.365 -0.3273  0.1839  0.1201
  641MOL0    Cl86445  -2.481   4.949   2.219 -0.4832  0.1345  0.4447
  641MOL0     C86446  -1.509   4.731   2.818  0.3229  0.6677  0.7941
  641MOL0     C86447  -1.376   4.743   2.786  0.5357  0.4266 -0.3403
  641MOL0     O86448  -1.142   5.091   2.692  0.1647 -0.2219 -0.0701
  641MOL0     C86449  -0.922   4.828   2.704 -0.8435 -0.1133 -0.2369
  641MOL0     C86450  -0.788   4.791   2.685  0.6268  0.3045  0.4781
  641MOL0     N86451  -0.077   4.593   2.422  0.8401  0.1947 -0.1052
  641MOL0     N86452  -0.025   4.485   2.489 -0.0611 -0.0932  0.1243
  641MOL0     C86453   0.830   3.629   2.322 -0.8303  0.0320  0.8971
  641MOL0     C86454   0.962   3.643   2.282 -0.7706  0.2568  0.1157
  641MOL0     C86455   1.367   3.722   2.170  0.4673 -0.1210 -0.0141
  641MOL0     C86456   1.466   3.745   2.265 -0.5031 -0.3535 -0.3907
  641MOL0     C86457   1.601   3.738   2.231  0.4669 -0.2191 -0.3139
  641MOL0     C86458   1.641   3.712   2.104 -0.8969  0.1669  1.2523
  641MOL0     O86459   1.771   3.689   2.073  0.2616 -0.1598 -0.6420
  641MOL0     C86460   1.873   3.751   2.158 -0.1474 -0.1469  0.6168
  641MOL0     C86461   1.880   3.898   2.163  0.9364 -0.3426  0.5999
  641MOL0     C86462   1.920   3.957   2.022 -0.3492 -0.3246  0.0454
  641MOL0     C86463   2.065   3.921   1.969  0.3756  0.4855 -0.4403
  641MOL0     C86464   2.167   3.911   2.077 -0.1102  0.4987 -0.7927
  641MOL0     C86465   2.239   3.902   2.175  0.5481 -0.0224  0.5350
  641MOL0     C86466   1.541   3.694   2.005 -0.5705  0.5343 -0.6920
  641MOL0     C86467   1.407   3.700   2.037  0.5424 -0.0950 -0.6520
  641MOL0     H86468   0.930   3.705   1.956  0.5736 -2.8232 -0.7129
  641MOL0     H86469   0.702   3.705   2.015  1.7200 -0.2954 -0.7916
  641MOL0     H86470   0.572   3.866   2.218  2.0756 -1.2466 -0.7153
  641MOL0     H86471   0.462   3.760   2.141 -0.9813  2.8618  1.0588
  641MOL0     H86472   0.368   3.703   2.372  1.3474  0.5181  1.9579
  641MOL0     H86473   0.463   3.846   2.427 -0.2750 -0.0249 -0.5682
  641MOL0     H86474   0.352   3.997   2.298  0.1982 -0.4630  0.0105
  641MOL0     H86475   0.272   3.871   2.205 -0.5579 -0.4162  0.9913
  641MOL0     H86476   0.165   3.791   2.415  2.8446  0.3569  2.1043
  641MOL0     H86477   0.226   3.936   2.491 -1.4377 -0.1805  1.5616
  641MOL0     H86478   0.000   3.925   2.283 -2.6180 -0.6486  1.3541
  641MOL0     H86479  -0.008   3.968   2.448  0.7311 -2.9114  0.6491
  641MOL0     H86480   0.162   4.164   2.391 -2.9509 -0.9850  3.5769
  641MOL0     H86481   0.135   4.102   2.223  5.0258  0.3647  1.8059
  641MOL0     H86482   0.014   4.295   2.277  0.6619 -1.7466 -2.2474
  641MOL0     H86483  -0.115   4.171   2.261  0.3192 -2.6670  0.1595
  641MOL0     H86484  -0.005   4.220   2.547 -0.3595 -3.1690 -0.1099
  641MOL0     H86485  -0.149   4.173   2.502 -0.2460  0.3926 -0.1568
  641MOL0     H86486  -0.311   4.365   2.380  0.2470 -0.8180  0.6183
  641MOL0     H86487  -0.210   4.715   2.238 -0.0656 -0.2465  0.6534
  641MOL0     H86488  -0.306   4.564   2.203  3.4659 -1.3882 -0.2506
  641MOL0     H86489  -0.476   4.631   2.379 -0.6337  0.5347  1.4966
  641MOL0     H86490  -0.455   4.747   2.243  3.2411  3.9744 -0.9632
  641MOL0     H86491  -0.309   4.885   2.398  1.5142 -1.4822 -2.9191
  641MOL0     H86492  -0.346   4.774   2.523  0.9289  0.6853 -1.1355
  641MOL0     H86493  -0.568   4.904   2.368 -0.4671 -4.0213  0.0190
  641MOL0     H86494  -0.481   4.996   2.495 -1.4182  0.2587  0.1286
  641MOL0     H86495  -0.722   5.022   2.441  0.1337 -0.3430  0.3746
  641MOL0     H86496  -1.033   5.101   2.430  0.4150 -0.6471 -0.2494
  641MOL0     H86497  -0.988   5.224   2.559 -1.5578 -0.8596 -0.0601
  641MOL0     H86498  -0.878   5.179   2.419  0.2204  0.3453  0.7924
  641MOL0     H86499  -1.366   5.078   2.742 -2.7852 -0.0343  0.8065
  641MOL0     H86500  -1.592   5.055   2.789 -0.3519 -0.0202 -0.2511
  641MOL0     H86501  -1.805   5.004   2.850 -0.5588 -2.5162  2.4457
  641MOL0     H86502  -1.788   4.951   2.680  0.7706  1.7696  0.4387
  641MOL0     H86503  -1.953   4.761   2.742 -4.8790 -1.2262  1.6085
  641MOL0     H86504  -1.960   4.841   2.907  1.7347 -1.5391  0.3119
  641MOL0     H86505  -2.037   5.049   2.731  2.3624  0.0980  2.5188
  641MOL0     H86506  -2.133   4.961   2.849  0.6933  0.3382 -0.7966
  641MOL0     H86507  -2.111   4.881   2.540 -2.9699  2.5712 -1.7313
  641MOL0     H86508  -2.198   4.795   2.672 -0.3178 -0.5837 -0.6367
  641MOL0     H86509  -2.242   5.092   2.596 -1.7707  1.3163  1.3001
  641MOL0     H86510  -2.341   4.976   2.702  1.0723 -0.2953  0.7342
  641MOL0     H86511  -2.289   4.942   2.404 -0.4569  0.6901 -0.3596
  641MOL0     H86512  -2.373   4.837   2.511 -2.3319  0.1205 -0.6186
  641MOL0     H86513  -2.467   5.110   2.455 -0.3723 -0.8233 -0.7505
  641MOL0     H86514  -2.549   4.994   2.565  2.1589 -1.6960  0.5667
  641MOL0     H86515  -2.673   4.963   2.349  0.0876  1.4205  0.2156
  641MOL0     H86516  -2.569   4.818   2.381  0.3790 -0.6029 -4.0511
  641MOL0     H86517  -1.553   4.632   2.828  2.2549 -0.2033  1.0844
  641MOL0     H86518  -1.318   4.655   2.762 -0.5481  0.1639 -2.2239
  641MOL0     H86519  -0.976   4.770   2.779  0.1843  0.4186  0.9431
  641MOL0     H86520  -0.749   4.696   2.719  0.7149 -1.7181 -4.5723
  641MOL0     H86521   0.805   3.609   2.426  1.5496  0.3803  1.5838
  641MOL0     H86522   1.024   3.608   2.364 -2.1899 -3.2309 -0.1319
  641MOL0     H86523   1.432   3.768   2.366 -3.0402  2.5474 -1.7372
  641MOL0     H86524   1.656   3.743   2.324 -2.7673 -2.6084  1.9735
  641MOL0     H86525   1.844   3.721   2.260 -2.3760  0.6580  0.2745
  641MOL0     H86526   1.965   3.702   2.124 -0.9785 -2.4538  1.4637
  641MOL0     H86527   1.956   3.931   2.235  1.9301  2.2577 -1.4861
  641MOL0     H86528   1.780   3.935   2.186 -1.8217 -3.7662 -4.1742
  641MOL0     H86529   1.909   4.065   2.007  5.3651  0.2130 -3.0747
  641MOL0     H86530   1.854   3.908   1.950  0.6975  0.7927 -1.7605
  641MOL0     H86531   2.106   3.998   1.902  0.1269  2.8879  1.9719
  641MOL0     H86532   2.052   3.827   1.915  0.8048  0.0874  0.1406
  641MOL0     H86533   2.302   3.897   2.261  0.8193 -2.0923  0.2759
  641MOL0     H86534   1.574   3.663   1.906  0.6806  2.8396 -1.0765
  641MOL0     H86535   1.334   3.688   1.958  1.3474 -0.1884 -1.3984
  642MOL0     O86536   0.033   0.987  10.213 -0.1245 -0.3288  0.0585
  642MOL0     C86537   0.099   0.889  10.193 -0.8264  0.3182  0.8638
  642MOL0     O86538   0.051   0.763  10.162  0.1851  0.4503 -0.4994
  642MOL0     C86539  -0.086   0.741  10.162  0.6750 -0.4585 -0.7514
  642MOL0     C86540  -0.167   0.755  10.274 -0.5523 -0.3877 -0.9497
  642MOL0     C86541  -0.300   0.755  10.264 -0.0805 -0.7039 -0.6717
  642MOL0     C86542  -0.364   0.745  10.137  0.6565  0.2857 -0.0608
  642MOL0     O86543  -0.504   0.753  10.150 -0.0411  0.5317 -0.4920
  642MOL0     C86544  -0.595   0.671  10.078  0.0707  0.4157 -1.1127
  642MOL0     C86545  -0.735   0.716  10.113 -0.7392 -0.7266 -0.1114
  642MOL0     C86546  -0.849   0.667  10.023 -0.1550 -0.8938  0.3231
  642MOL0     C86547  -0.987   0.721  10.069  0.3623  0.2909  0.0550
  642MOL0     C86548  -1.053   0.642  10.189 -0.0128 -0.4217  0.5942
  642MOL0     C86549  -1.176   0.717  10.237  0.1898  0.1051  0.6243
  642MOL0     C86550  -1.279   0.781  10.135  0.1002 -0.0830  0.1753
  642MOL0     C86551  -1.412   0.835  10.203  0.4981  0.6284 -0.3670
  642MOL0     N86552  -1.511   0.722  10.244 -0.5033  0.3001  0.6887
  642MOL0     C86553  -1.616   0.679  10.165  0.5038  0.1497 -0.0135
  642MOL0     C86554  -1.678   0.586  10.250 -0.1932 -0.5782 -0.2574
  642MOL0     C86555  -1.804   0.515  10.216 -0.0109 -0.1333  0.5395
  642MOL0     C86556  -1.885   0.480  10.350 -0.4901  0.2725  0.0273
  642MOL0     C86557  -2.027   0.422  10.324  0.5866  1.3615  0.0483
  642MOL0     C86558  -2.098   0.387  10.458 -0.3331  0.4087  0.9006
  642MOL0     O86559  -2.110   0.500  10.536  0.2038 -0.3154  0.7230
  642MOL0     C86560  -2.236   0.527  10.578 -0.0731 -1.3942 -0.0397
  642MOL0     C86561  -2.316   0.618  10.519 -0.2830 -0.1192 -0.6362
  642MOL0     C86562  -2.449   0.629  10.572 -0.5069  0.6775 -0.1922
  642MOL0     C86563  -2.540   0.729  10.515 -1.1420  1.0314  0.0492
  642MOL0     C86564  -2.501   0.551  10.678 -0.0952 -0.5693 -0.4932
  642MOL0     C86565  -2.628   0.571  10.752 -0.3565  0.3154  0.0302
  642MOL0     O86566  -2.682   0.455  10.800  0.7524 -0.4796 -0.3481
  642MOL0     C86567  -2.810   0.470  10.860  0.0816  0.1487  0.2242
  642MOL0     C86568  -2.927   0.501  10.785 -0.4132  0.6570  0.9052
  642MOL0     C86569  -3.050   0.505  10.852 -0.3819 -0.5186  0.8400
  642MOL0     C86570  -3.070   0.451  10.984 -0.8555  0.0141 -0.1174
  642MOL0     O86571  -3.186   0.435  11.043  0.2906  0.7411 -0.6475
  642MOL0     C86572  -3.304   0.502  11.003  0.9376  0.7159  0.1801
  642MOL0     C86573  -3.413   0.522  11.111  0.8824 -0.2018  0.4974
  642MOL0     C86574  -3.370   0.598  11.237  0.1685  0.8635 -0.8486
  642MOL0     C86575  -3.479   0.624  11.347 -0.1690 -0.2968 -0.9093
  642MOL0     C86576  -3.413   0.705  11.467  0.3630 -1.2325 -0.3598
  642MOL0     C86577  -3.477   0.688  11.606 -0.6458 -0.2307  1.3574
  642MOL0     C86578  -3.618   0.760  11.601  0.1478  0.1648  0.9106
  642MOL0     C86579  -3.700   0.730  11.724  0.1132  0.7253  0.0974
  642MOL0    Cl86580  -3.678   0.849  11.849 -0.2672  0.0854 -0.0243
  642MOL0     C86581  -2.954   0.412  11.053  0.4013 -0.4749 -0.7352
  642MOL0     C86582  -2.830   0.428  10.993 -1.4988 -0.1917 -1.2636
  642MOL0     O86583  -2.671   0.684  10.779 -0.6669  0.1988 -0.0519
  642MOL0     C86584  -2.414   0.451  10.728  0.8259 -0.3630 -0.9228
  642MOL0     C86585  -2.289   0.440  10.679 -0.5430  0.2865 -0.0926
  642MOL0     N86586  -1.600   0.573  10.363  0.6610  1.0298  0.3588
  642MOL0     N86587  -1.509   0.656  10.366  0.1603  0.7080 -0.1263
  642MOL0     C86588  -0.287   0.719  10.027 -0.2449  0.1273 -0.1302
  642MOL0     C86589  -0.151   0.729  10.039  0.2612  0.3913 -0.0295
  642MOL0     C86590   0.243   0.900  10.201 -0.9155 -0.4110 -0.0332
  642MOL0     C86591   0.300   1.025  10.243 -0.7509  0.0850  0.1495
  642MOL0     C86592   0.442   1.031  10.237 -0.7030  0.6458  0.4298
  642MOL0     C86593   0.522   0.926  10.185 -0.8095  0.6970  0.4346
  642MOL0     O86594   0.661   0.934  10.177  0.8761  0.4308  0.4911
  642MOL0     C86595   0.727   1.050  10.239 -0.0027  0.5600 -0.1409
  642MOL0     C86596   0.878   1.022  10.252 -0.2833 -0.8346 -0.1767
  642MOL0     C86597   0.939   1.002  10.111 -0.5502  0.6858  0.2660
  642MOL0     C86598   1.092   1.020  10.107 -0.0725 -0.4656 -0.2724
  642MOL0     C86599   1.161   0.935  10.203 -0.6191  0.2800  0.3882
  642MOL0     C86600   1.247   0.872  10.263  0.4079 -0.0673  0.2485
  642MOL0     C86601   0.465   0.814  10.140 -0.9955  0.5723 -0.4814
  642MOL0     C86602   0.329   0.794  10.153 -0.2617 -0.5126  0.2279
  642MOL0     H86603  -0.120   0.775  10.370 -0.0051 -1.3318 -1.0145
  642MOL0     H86604  -0.354   0.773  10.357 -0.4811  1.9920 -1.3357
  642MOL0     H86605  -0.585   0.684   9.969 -0.0131 -0.4445 -1.2304
  642MOL0     H86606  -0.583   0.569  10.114  3.5232  1.8007  2.3114
  642MOL0     H86607  -0.760   0.670  10.209 -2.8693  1.6676  0.6050
  642MOL0     H86608  -0.745   0.825  10.119 -1.6062 -0.8242  0.4014
  642MOL0     H86609  -0.834   0.704   9.921  0.4911  1.8990  1.3420
  642MOL0     H86610  -0.843   0.558  10.031  1.6017 -0.7493  1.5784
  642MOL0     H86611  -0.978   0.828  10.094 -0.6782  0.4299 -0.1074
  642MOL0     H86612  -1.058   0.727   9.986  0.3364  1.6915  0.1431
  642MOL0     H86613  -1.069   0.537  10.164  4.8197 -1.6277  1.5871
  642MOL0     H86614  -0.990   0.633  10.278 -0.7548 -0.1181  1.1597
  642MOL0     H86615  -1.231   0.654  10.307  0.2684  0.3954  0.9483
  642MOL0     H86616  -1.128   0.796  10.295 -0.5254  0.1362  1.1885
  642MOL0     H86617  -1.233   0.875  10.102  0.7125  0.8126  3.2362
  642MOL0     H86618  -1.305   0.716  10.051  2.7107 -2.2202  0.8679
  642MOL0     H86619  -1.458   0.903  10.131  0.2657 -0.8992 -1.7002
  642MOL0     H86620  -1.385   0.884  10.298  1.6172 -0.9438  0.1600
  642MOL0     H86621  -1.653   0.722  10.072 -1.0077  2.7472  1.6841
  642MOL0     H86622  -1.856   0.579  10.144  0.7887 -0.3322 -0.2393
  642MOL0     H86623  -1.769   0.424  10.166  0.8347 -0.4169  1.6006
  642MOL0     H86624  -1.898   0.580  10.395  0.2810  0.8169 -0.9324
  642MOL0     H86625  -1.818   0.422  10.414 -1.1171 -0.0915  0.3670
  642MOL0     H86626  -2.013   0.329  10.268 -0.0719  0.8372  0.7465
  642MOL0     H86627  -2.099   0.471  10.257  0.7975 -0.4633 -1.6007
  642MOL0     H86628  -2.035   0.314  10.509  1.5456 -1.1687 -3.2285
  642MOL0     H86629  -2.196   0.343  10.439 -0.7721  1.1058  1.5423
  642MOL0     H86630  -2.280   0.678  10.435  5.1226 -4.3579 -1.9431
  642MOL0     H86631  -2.511   0.769  10.418 -1.3058 -1.4111 -1.0712
  642MOL0     H86632  -2.635   0.677  10.503 -0.8003  0.6808 -1.2545
  642MOL0     H86633  -2.539   0.810  10.589 -1.8126  0.5379  0.6085
  642MOL0     H86634  -2.918   0.544  10.686 -0.0297  1.9939  1.5007
  642MOL0     H86635  -3.129   0.555  10.798  0.4463 -0.4635 -0.3538
  642MOL0     H86636  -3.272   0.601  10.971 -0.5808  1.0965 -0.2682
  642MOL0     H86637  -3.346   0.451  10.916 -0.1811  0.8661  0.6102
  642MOL0     H86638  -3.494   0.580  11.066  1.6664  1.5242  1.2206
  642MOL0     H86639  -3.459   0.427  11.143  1.1560 -1.0448 -1.4620
  642MOL0     H86640  -3.326   0.691  11.200  0.2059 -0.4868 -4.4989
  642MOL0     H86641  -3.293   0.532  11.277 -0.1760 -0.4009 -2.1960
  642MOL0     H86642  -3.555   0.689  11.303  0.4468  0.8354 -0.3385
  642MOL0     H86643  -3.520   0.533  11.392 -2.2165  0.7734 -0.4800
  642MOL0     H86644  -3.403   0.810  11.438  0.1013 -0.1485  3.1038
  642MOL0     H86645  -3.312   0.668  11.485  2.0705  3.0885  0.2337
  642MOL0     H86646  -3.487   0.580  11.619  2.3967 -0.8182 -0.2112
  642MOL0     H86647  -3.405   0.715  11.684 -0.0659 -1.5910  1.3118
  642MOL0     H86648  -3.668   0.727  11.509 -0.7211  1.1849  1.0003
  642MOL0     H86649  -3.613   0.869  11.592 -0.5580  0.3064  1.9513
  642MOL0     H86650  -3.693   0.629  11.764  0.4491 -0.2691 -2.2633
  642MOL0     H86651  -3.805   0.747  11.698 -0.6802  2.9591  4.0111
  642MOL0     H86652  -2.959   0.388  11.159 -0.4627  1.1816 -0.3634
  642MOL0     H86653  -2.742   0.423  11.057 -1.9312  0.5201 -0.5870
  642MOL0     H86654  -2.442   0.395  10.817 -0.8128  1.3656 -0.2874
  642MOL0     H86655  -2.250   0.348  10.722 -3.2523 -0.4727  0.9887
  642MOL0     H86656  -0.343   0.696   9.936 -1.4835  0.4607  0.5301
  642MOL0     H86657  -0.094   0.712   9.948 -0.5396 -2.7912 -0.0711
  642MOL0     H86658   0.247   1.119  10.254  0.8645  0.8229  2.3092
  642MOL0     H86659   0.478   1.132  10.257 -0.9955  0.8944 -0.2389
  642MOL0     H86660   0.692   1.139  10.187 -1.3881 -0.4162 -0.9683
  642MOL0     H86661   0.702   1.062  10.345  1.0774  1.4880  0.0345
  642MOL0     H86662   0.899   0.933  10.313  1.8665  0.4635  1.1260
  642MOL0     H86663   0.924   1.112  10.296  1.1377 -0.4315 -2.3518
  642MOL0     H86664   0.895   1.059  10.028 -1.0382 -1.1060 -0.7457
  642MOL0     H86665   0.915   0.900  10.082  3.4756  0.4589 -3.2908
  642MOL0     H86666   1.105   1.128  10.118 -2.4626 -0.2009  0.5702
  642MOL0     H86667   1.123   0.989  10.007 -1.9316  3.4729 -2.2791
  642MOL0     H86668   1.317   0.833  10.335 -0.0638  0.7908  1.2051
  642MOL0     H86669   0.518   0.725  10.110 -2.2535 -0.1639 -0.5897
  642MOL0     H86670   0.282   0.700  10.125  2.5148 -1.4465 -1.6949
  643MOL0     O86671   1.828   5.804   1.341 -0.2509 -0.1467  0.3788
  643MOL0     C86672   1.896   5.700   1.325 -0.1002 -0.5852  0.2234
  643MOL0     O86673   1.857   5.597   1.258  0.2077  1.2869  0.7482
  643MOL0     C86674   1.720   5.573   1.237  0.0543  0.3866 -0.1439
  643MOL0     C86675   1.610   5.612   1.320 -0.3388 -0.9448  0.0306
  643MOL0     C86676   1.480   5.586   1.283  0.5994 -0.1261  0.4642
  643MOL0     C86677   1.445   5.527   1.161 -0.0084 -0.0849 -0.8315
  643MOL0     O86678   1.314   5.473   1.145 -0.8656 -0.6105  0.1362
  643MOL0     C86679   1.311   5.332   1.141 -0.2798  0.0093  0.4461
  643MOL0     C86680   1.171   5.285   1.128  0.5874 -0.5815 -0.4015
  643MOL0     C86681   1.109   5.311   0.991 -0.3399 -0.1777  0.7758
  643MOL0     C86682   1.163   5.217   0.883  0.8962  0.7047  0.3334
  643MOL0     C86683   1.116   5.264   0.746  0.1846 -0.0665  0.1045
  643MOL0     C86684   0.962   5.229   0.731 -0.4699 -0.2591 -0.1592
  643MOL0     C86685   0.913   5.219   0.583 -0.0364  0.3542 -0.7444
  643MOL0     C86686   0.908   5.350   0.518  0.0963 -0.7288  1.2523
  643MOL0     N86687   0.910   5.339   0.369 -0.4250  0.5044 -0.4610
  643MOL0     C86688   0.795   5.311   0.296 -0.4138 -0.1475  0.5436
  643MOL0     C86689   0.846   5.272   0.173 -0.7289 -0.3437 -1.5662
  643MOL0     C86690   0.775   5.223   0.047 -0.2011 -0.0186  0.4038
  643MOL0     C86691   0.636   5.280   0.044  0.4157  0.5313 -0.6370
  643MOL0     C86692   0.561   5.203  -0.067  0.3014  0.1521 -0.2445
  643MOL0     C86693   0.425   5.263  -0.112 -0.7791  0.3151  0.0772
  643MOL0     O86694   0.323   5.198  -0.040  0.1743 -0.1486  0.6407
  643MOL0     C86695   0.198   5.196  -0.097  0.6190 -0.5860  0.4271
  643MOL0     C86696   0.124   5.074  -0.101  0.2004 -0.4208 -0.4642
  643MOL0     C86697  -0.004   5.064  -0.153 -0.1331  0.0195  0.1372
  643MOL0     C86698  -0.070   4.925  -0.135  0.7259  0.9203  0.8067
  643MOL0     C86699  -0.056   5.177  -0.221  0.4622  0.2920  0.3040
  643MOL0     C86700  -0.194   5.170  -0.299  0.0861 -0.0316 -0.4574
  643MOL0     O86701  -0.226   5.278  -0.372 -0.3031 -0.7971 -0.2131
  643MOL0     C86702  -0.343   5.289  -0.434 -0.5281  0.1260  0.7146
  643MOL0     C86703  -0.386   5.421  -0.455 -0.5329 -0.6075  0.0690
  643MOL0     C86704  -0.494   5.454  -0.530  0.0000 -0.1479 -0.6033
  643MOL0     C86705  -0.577   5.357  -0.586  0.4844 -0.3900 -0.2316
  643MOL0     O86706  -0.695   5.414  -0.647  0.4870  0.3697 -0.1699
  643MOL0     C86707  -0.775   5.324  -0.726 -0.5249 -0.9711 -0.2091
  643MOL0     C86708  -0.878   5.403  -0.807 -0.7443 -0.1302  0.7152
  643MOL0     C86709  -0.974   5.315  -0.884  0.6685  0.3504  0.4388
  643MOL0     C86710  -1.090   5.403  -0.931 -0.4093  0.0495  0.0159
  643MOL0     C86711  -1.180   5.337  -1.031  0.3901  0.2144  0.0682
  643MOL0     C86712  -1.256   5.213  -0.986 -0.2500  0.0448  0.4625
  643MOL0     C86713  -1.365   5.170  -1.088  0.6363 -0.2975  0.9450
  643MOL0     C86714  -1.479   5.090  -1.034  0.2522  0.3436 -0.4012
  643MOL0    Cl86715  -1.428   4.962  -0.916 -0.3758  0.3562  0.5793
  643MOL0     C86716  -0.543   5.222  -0.567  0.3352 -0.2539 -1.2357
  643MOL0     C86717  -0.426   5.187  -0.492  0.4011  0.1410 -0.1278
  643MOL0     O86718  -0.263   5.068  -0.287 -0.3444  0.3403 -0.1982
  643MOL0     C86719   0.021   5.294  -0.221  0.2248  0.1179 -0.0790
  643MOL0     C86720   0.143   5.310  -0.158 -0.3032  0.5491  0.1717
  643MOL0     N86721   0.983   5.283   0.173  0.5527  0.1359 -0.4120
  643MOL0     N86722   1.019   5.319   0.287  0.0204 -0.1478 -0.4621
  643MOL0     C86723   1.555   5.488   1.084 -0.4885  0.0395 -0.2269
  643MOL0     C86724   1.687   5.506   1.124  0.3484 -0.2488  0.6035
  643MOL0     C86725   2.033   5.712   1.369 -0.3149  0.1412  0.6561
  643MOL0     C86726   2.117   5.600   1.352  0.1655 -0.0090 -0.8229
  643MOL0     C86727   2.251   5.603   1.393 -0.5202  0.3458 -0.9887
  643MOL0     C86728   2.309   5.713   1.453 -0.0493  0.3558  0.7681
  643MOL0     O86729   2.445   5.704   1.474 -0.4568 -0.3464 -0.4993
  643MOL0     C86730   2.508   5.819   1.538 -0.9528  0.5340 -0.5459
  643MOL0     C86731   2.527   5.936   1.427 -0.7726 -0.0796 -0.3095
  643MOL0     C86732   2.614   5.896   1.295  0.1297 -0.2400 -0.3347
  643MOL0     C86733   2.623   6.017   1.190  0.0823  0.1155 -0.2788
  643MOL0     C86734   2.674   5.962   1.065  0.2620 -1.2813 -0.2350
  643MOL0     C86735   2.710   5.893   0.966 -0.6158  0.0335  0.1824
  643MOL0     C86736   2.227   5.825   1.466  0.7886  0.6054 -0.0914
  643MOL0     C86737   2.093   5.827   1.434  0.1772  0.5166  0.2458
  643MOL0     H86738   1.626   5.663   1.415 -1.7110 -1.7584  0.7275
  643MOL0     H86739   1.400   5.596   1.355  2.4673 -0.4225  2.6801
  643MOL0     H86740   1.365   5.289   1.056  0.3084 -3.0157  2.1825
  643MOL0     H86741   1.353   5.284   1.230  0.4870  2.6151  1.5944
  643MOL0     H86742   1.162   5.178   1.150 -1.5837  0.2921  4.2482
  643MOL0     H86743   1.101   5.345   1.187  0.3751 -0.6987 -0.5322
  643MOL0     H86744   1.000   5.304   0.991 -0.3308 -0.3812  1.7805
  643MOL0     H86745   1.145   5.412   0.967  0.0434 -1.0782 -3.1739
  643MOL0     H86746   1.271   5.216   0.866  1.1004 -3.2230  0.8791
  643MOL0     H86747   1.144   5.111   0.904  0.6368  0.4321 -1.1777
  643MOL0     H86748   1.134   5.370   0.725 -2.0585  0.6985  1.6504
  643MOL0     H86749   1.176   5.200   0.681 -2.4543 -1.2937 -1.2776
  643MOL0     H86750   0.935   5.139   0.786 -0.3847  0.2445  0.7329
  643MOL0     H86751   0.908   5.313   0.776 -1.0621  0.8168 -2.6957
  643MOL0     H86752   0.980   5.147   0.535 -0.7211  1.0826 -2.8976
  643MOL0     H86753   0.821   5.161   0.593  0.3320  0.1508  2.2271
  643MOL0     H86754   0.995   5.411   0.545 -1.1322  1.5467  0.3443
  643MOL0     H86755   0.816   5.406   0.539 -0.6616 -0.8542 -1.3204
  643MOL0     H86756   0.692   5.303   0.329 -1.0069  0.2666 -1.1008
  643MOL0     H86757   0.839   5.259  -0.034  1.3013 -4.1567 -0.4968
  643MOL0     H86758   0.775   5.114   0.042 -1.8240 -0.0237 -0.1139
  643MOL0     H86759   0.645   5.387   0.022  1.1857  0.3348 -1.3023
  643MOL0     H86760   0.574   5.263   0.133 -1.5633  0.3564 -1.9998
  643MOL0     H86761   0.552   5.099  -0.037 -0.2324 -0.5601 -2.6509
  643MOL0     H86762   0.623   5.199  -0.157 -1.3348 -0.1948 -1.4041
  643MOL0     H86763   0.417   5.255  -0.221  2.5220 -0.3299 -0.2319
  643MOL0     H86764   0.418   5.371  -0.096  0.2611  0.5078 -0.7008
  643MOL0     H86765   0.170   4.989  -0.052 -0.5830  0.2256  1.5051
  643MOL0     H86766  -0.005   4.868  -0.068  1.7895  1.3208  0.1534
  643MOL0     H86767  -0.170   4.943  -0.094  0.3261  2.5991 -0.7468
  643MOL0     H86768  -0.084   4.866  -0.227 -0.4754 -0.5714  1.9054
  643MOL0     H86769  -0.321   5.496  -0.413  1.1253 -1.9134 -0.0631
  643MOL0     H86770  -0.526   5.555  -0.549  1.1902  1.1112  3.0571
  643MOL0     H86771  -0.716   5.265  -0.797  2.4021  1.6916 -0.1708
  643MOL0     H86772  -0.820   5.256  -0.653  0.5765 -2.5225 -0.9276
  643MOL0     H86773  -0.924   5.479  -0.743 -1.4343  0.3270 -0.3074
  643MOL0     H86774  -0.817   5.455  -0.881 -1.4419  0.3532  0.4657
  643MOL0     H86775  -1.014   5.231  -0.827  0.2875  1.5366  1.9653
  643MOL0     H86776  -0.917   5.273  -0.968 -0.1442 -0.0870  0.0940
  643MOL0     H86777  -1.148   5.423  -0.840 -0.8403 -2.4121  0.3627
  643MOL0     H86778  -1.044   5.492  -0.974 -0.4232  1.3631  2.4848
  643MOL0     H86779  -1.115   5.317  -1.117 -1.1117 -1.5721 -0.7188
  643MOL0     H86780  -1.256   5.411  -1.057 -0.5281 -1.0193 -0.8434
  643MOL0     H86781  -1.183   5.133  -0.992  1.7474  1.8343 -0.3837
  643MOL0     H86782  -1.314   5.240  -0.898 -3.4416  1.7750 -1.9356
  643MOL0     H86783  -1.326   5.103  -1.165 -3.5358  0.1220 -1.8801
  643MOL0     H86784  -1.400   5.253  -1.150 -0.9470 -0.0515  2.0735
  643MOL0     H86785  -1.549   5.053  -1.110  2.4892 -0.1136 -2.3325
  643MOL0     H86786  -1.544   5.155  -0.974 -0.6221 -1.0461  0.2257
  643MOL0     H86787  -0.608   5.142  -0.600 -2.0660  1.3798 -0.7199
  643MOL0     H86788  -0.410   5.081  -0.475  1.5571  0.7604  3.7435
  643MOL0     H86789  -0.010   5.376  -0.284  2.2110  1.5070  0.6554
  643MOL0     H86790   0.208   5.395  -0.176  0.7923 -0.2323  0.3315
  643MOL0     H86791   1.541   5.431   0.993  2.2484 -1.3096  0.1132
  643MOL0     H86792   1.770   5.480   1.060  2.2982 -0.4716  3.0874
  643MOL0     H86793   2.092   5.514   1.290 -0.8399  0.4977 -1.1442
  643MOL0     H86794   2.306   5.510   1.378  2.3990  1.9891 -1.2144
  643MOL0     H86795   2.449   5.860   1.620 -0.0279  2.6966 -0.8930
  643MOL0     H86796   2.602   5.791   1.587 -1.6304 -1.5662 -0.3468
  643MOL0     H86797   2.581   6.023   1.466  0.5071 -1.1684  0.4543
  643MOL0     H86798   2.431   5.974   1.392  0.0436  2.2644 -0.1765
  643MOL0     H86799   2.580   5.804   1.245  1.8799 -0.7867 -0.6014
  643MOL0     H86800   2.715   5.878   1.335  1.7346  2.7429 -2.6368
  643MOL0     H86801   2.676   6.106   1.223 -1.9631  0.7242  1.5720
  643MOL0     H86802   2.518   6.039   1.165  0.2055 -0.1862 -1.1157
  643MOL0     H86803   2.764   5.835   0.894 -2.9240 -2.2354  0.1250
  643MOL0     H86804   2.267   5.912   1.516  0.6318  0.9765 -0.6026
  643MOL0     H86805   2.038   5.920   1.446  0.6993  1.1689 -1.8352
  644MOL0     O86806   3.505  10.407   2.036 -0.0354 -0.7283  0.3678
  644MOL0     C86807   3.531  10.381   2.157  0.1719  0.2750 -0.1176
  644MOL0     O86808   3.445  10.367   2.264 -0.3200 -0.5895  0.2523
  644MOL0     C86809   3.310  10.370   2.239  0.5896 -0.1873 -0.0160
  644MOL0     C86810   3.246  10.295   2.345  0.2297  1.0364  0.5462
  644MOL0     C86811   3.104  10.289   2.354 -0.3056  0.4267  0.0951
  644MOL0     C86812   3.020  10.363   2.268 -0.0742  0.3362  0.4470
  644MOL0     O86813   2.887  10.354   2.278 -0.0784  0.0964 -0.0176
  644MOL0     C86814   2.795  10.457   2.237  0.5374  0.2428  0.0707
  644MOL0     C86815   2.649  10.464   2.308  0.0522  0.0307 -0.0884
  644MOL0     C86816   2.570  10.329   2.275  0.3105  0.0386 -0.0122
  644MOL0     C86817   2.431  10.349   2.338  0.5635  0.0324  0.4471
  644MOL0     C86818   2.340  10.454   2.270 -0.8682  0.0028 -0.3082
  644MOL0     C86819   2.324  10.443   2.115  0.1244  0.8481 -0.2368
  644MOL0     C86820   2.208  10.524   2.058  0.0504  0.2218  0.8375
  644MOL0     C86821   2.072  10.453   2.026 -0.4974  0.5317 -0.2512
  644MOL0     N86822   2.031  10.378   2.147  0.0088 -0.0403 -0.3715
  644MOL0     C86823   1.956  10.429   2.255  0.1415  0.1029  0.5348
  644MOL0     C86824   1.901  10.315   2.315 -0.0107  0.8410  0.0067
  644MOL0     C86825   1.794  10.302   2.419 -0.5220 -0.1690  1.0680
  644MOL0     C86826   1.653  10.280   2.363 -0.3480 -0.2704  0.4246
  644MOL0     C86827   1.559  10.251   2.478  0.1013 -1.2219  0.3346
  644MOL0     C86828   1.410  10.234   2.436  0.2813  0.5591  0.3278
  644MOL0     O86829   1.394  10.121   2.356  0.5832  0.4097 -0.1559
  644MOL0     C86830   1.281  10.110   2.280  0.2697 -0.3932 -1.0621
  644MOL0     C86831   1.296  10.042   2.159  0.4960  0.0108  0.2056
  644MOL0     C86832   1.201  10.038   2.059  0.4696 -0.5742  0.9993
  644MOL0     C86833   1.238   9.968   1.932  0.0002  0.2383 -0.6535
  644MOL0     C86834   1.076  10.105   2.092 -0.4624  0.2961  0.2650
  644MOL0     C86835   0.963  10.106   1.994 -0.1171  1.0081 -0.7270
  644MOL0     O86836   0.833  10.127   2.039 -0.0615  0.5376 -0.1059
  644MOL0     C86837   0.713  10.112   1.988  0.1706  0.0279  0.4914
  644MOL0     C86838   0.686  10.027   1.883 -0.3774 -0.1360 -0.1088
  644MOL0     C86839   0.552  10.011   1.847 -0.6637  1.2867 -0.2725
  644MOL0     C86840   0.440  10.083   1.903 -0.3350  0.2928  0.0825
  644MOL0     O86841   0.305  10.070   1.871  0.2522 -0.9283  0.3509
  644MOL0     C86842   0.275   9.989   1.750  0.5394 -0.5316 -0.5057
  644MOL0     C86843   0.139  10.028   1.700  0.8125  0.0275  0.0638
  644MOL0     C86844   0.091   9.918   1.600 -0.4231 -0.1096 -0.2507
  644MOL0     C86845  -0.040   9.954   1.533  0.0290 -0.0667 -0.3610
  644MOL0     C86846  -0.090   9.840   1.445 -1.0486 -0.8722 -0.1880
  644MOL0     C86847  -0.245   9.865   1.417 -0.4017 -0.4988 -0.0229
  644MOL0     C86848  -0.302   9.753   1.334 -0.6823 -0.2289  0.0855
  644MOL0     C86849  -0.457   9.748   1.328  0.4604 -0.2651 -0.6020
  644MOL0    Cl86850  -0.502   9.600   1.234 -0.1344 -0.4724 -0.0654
  644MOL0     C86851   0.475  10.169   2.014 -0.2566  0.7219  0.0242
  644MOL0     C86852   0.608  10.182   2.052 -0.1737 -0.2742 -0.5930
  644MOL0     O86853   0.993  10.079   1.880 -0.6953 -0.1983  0.5072
  644MOL0     C86854   1.059  10.152   2.222 -0.2655 -0.4074 -0.0476
  644MOL0     C86855   1.164  10.163   2.315  0.0029  0.6461  0.6479
  644MOL0     N86856   1.973  10.208   2.260  0.1351 -0.7833  0.3648
  644MOL0     N86857   2.037  10.244   2.160  0.1707  0.9296  0.6060
  644MOL0     C86858   3.086  10.447   2.181 -0.0018  0.3783  0.2221
  644MOL0     C86859   3.229  10.450   2.164  0.3182  0.4451  0.0765
  644MOL0     C86860   3.667  10.327   2.182 -0.5342 -0.6172  0.0830
  644MOL0     C86861   3.767  10.338   2.087  0.0651  0.7981  0.4441
  644MOL0     C86862   3.897  10.299   2.114  0.5774 -0.8883  0.5712
  644MOL0     C86863   3.934  10.245   2.235  0.4640 -0.5573  0.6238
  644MOL0     O86864   4.059  10.182   2.247  0.6350 -0.2945  0.4052
  644MOL0     C86865   4.147  10.221   2.353  1.0181  0.3305  0.5828
  644MOL0     C86866   4.290  10.199   2.333 -0.6866  0.4245  0.1191
  644MOL0     C86867   4.364  10.216   2.460  0.1091 -0.3928  0.6520
  644MOL0     C86868   4.518  10.238   2.438 -0.1369  0.0303 -0.3730
  644MOL0     C86869   4.584  10.249   2.570 -0.6880 -0.5312 -0.2435
  644MOL0     C86870   4.639  10.246   2.685  0.0049 -0.1647  0.7609
  644MOL0     C86871   3.841  10.231   2.329 -0.4481  0.6348 -0.7888
  644MOL0     C86872   3.709  10.278   2.308  0.8948  0.8943  0.2945
  644MOL0     H86873   3.297  10.230   2.416  0.7767  2.5872  1.6383
  644MOL0     H86874   3.066  10.236   2.441 -0.4481  1.7468  0.8587
  644MOL0     H86875   2.849  10.549   2.261  0.5310  1.0154 -2.5419
  644MOL0     H86876   2.776  10.452   2.129 -2.6010 -1.3508  0.5835
  644MOL0     H86877   2.671  10.482   2.414  1.5261 -0.2287 -0.3201
  644MOL0     H86878   2.596  10.549   2.263  0.6622 -0.2633 -1.4324
  644MOL0     H86879   2.568  10.313   2.167  2.1670  1.2731 -0.2920
  644MOL0     H86880   2.623  10.242   2.314 -0.1856  0.0682  0.7544
  644MOL0     H86881   2.371  10.258   2.334  1.1108 -0.3626 -3.6607
  644MOL0     H86882   2.433  10.373   2.444 -2.1805  0.5436  0.4335
  644MOL0     H86883   2.241  10.434   2.311 -2.8803  2.2697 -3.5038
  644MOL0     H86884   2.363  10.559   2.292  0.3075 -0.0318 -1.2394
  644MOL0     H86885   2.416  10.463   2.059  2.5697 -2.3578  2.1732
  644MOL0     H86886   2.308  10.335   2.099  0.8290  0.4803  1.3590
  644MOL0     H86887   2.192  10.608   2.126  0.3280 -0.0879  1.2898
  644MOL0     H86888   2.242  10.552   1.958 -4.5499 -0.3862 -1.1466
  644MOL0     H86889   2.089  10.370   1.957  3.9266  0.4809  0.5604
  644MOL0     H86890   1.997  10.525   1.992 -1.2606 -0.6231 -1.0753
  644MOL0     H86891   1.928  10.531   2.282 -1.1849 -0.9807  3.7701
  644MOL0     H86892   1.830  10.209   2.464  1.9300  1.2817  2.2469
  644MOL0     H86893   1.792  10.383   2.492  0.4133 -1.0289  2.0779
  644MOL0     H86894   1.666  10.188   2.305  2.8051 -0.8775  1.9071
  644MOL0     H86895   1.615  10.366   2.307 -1.2983 -1.6784 -1.1951
  644MOL0     H86896   1.568  10.330   2.554  0.9371 -1.1200  0.1456
  644MOL0     H86897   1.584  10.156   2.525  0.5788 -0.3986  1.8503
  644MOL0     H86898   1.377  10.322   2.379 -1.9858  0.8405  1.9408
  644MOL0     H86899   1.347  10.224   2.525 -0.5237 -0.2293 -0.3085
  644MOL0     H86900   1.396  10.017   2.125 -0.0741  0.0448 -1.6174
  644MOL0     H86901   1.238  10.053   1.862  1.4564  0.8152  0.0250
  644MOL0     H86902   1.339   9.929   1.922 -0.2511 -0.5978 -0.0221
  644MOL0     H86903   1.163   9.892   1.907  2.0363 -0.6916 -4.7267
  644MOL0     H86904   0.769   9.972   1.840 -0.7670  0.4257 -1.6380
  644MOL0     H86905   0.529   9.945   1.764  0.1520  0.6090  0.0268
  644MOL0     H86906   0.344  10.014   1.670 -1.0398 -0.0122 -1.7513
  644MOL0     H86907   0.290   9.886   1.784  4.2234 -0.3465 -1.1732
  644MOL0     H86908   0.068  10.010   1.783 -0.1663 -1.1749 -0.9825
  644MOL0     H86909   0.129  10.126   1.654  0.3822 -0.1329 -0.1988
  644MOL0     H86910   0.081   9.822   1.652  0.6578 -0.3815 -0.5250
  644MOL0     H86911   0.168   9.907   1.523 -0.9074 -0.2581 -0.7171
  644MOL0     H86912  -0.111   9.971   1.615  0.5107 -1.3776  0.3634
  644MOL0     H86913  -0.031  10.051   1.484  0.3704  1.6914  2.8485
  644MOL0     H86914  -0.083   9.749   1.506  3.0353 -0.5095  0.1893
  644MOL0     H86915  -0.024   9.821   1.359  2.5848  2.3168  1.5814
  644MOL0     H86916  -0.298   9.868   1.512 -0.7812  0.4776 -0.2525
  644MOL0     H86917  -0.254   9.961   1.365  0.1934 -1.1736 -1.4327
  644MOL0     H86918  -0.257   9.660   1.371  1.5810 -1.4780 -4.9433
  644MOL0     H86919  -0.250   9.761   1.238 -1.4016 -0.2739 -0.3131
  644MOL0     H86920  -0.505   9.835   1.282 -1.0432 -1.0325 -0.5463
  644MOL0     H86921  -0.484   9.746   1.434 -0.6292  0.7956 -0.8414
  644MOL0     H86922   0.396  10.224   2.065 -1.4697 -0.6355 -0.3333
  644MOL0     H86923   0.638  10.246   2.134 -0.9557 -1.1740  0.4287
  644MOL0     H86924   0.971  10.196   2.267  1.4378  1.4774  1.6710
  644MOL0     H86925   1.148  10.206   2.413 -0.5831 -0.8062  1.2236
  644MOL0     H86926   3.035  10.511   2.110 -1.2652  0.1537  0.8907
  644MOL0     H86927   3.281  10.522   2.101  0.6765 -0.7280 -0.9899
  644MOL0     H86928   3.747  10.380   1.989  0.3399 -2.3905 -1.0902
  644MOL0     H86929   3.975  10.321   2.042 -0.7141  0.7157 -0.4095
  644MOL0     H86930   4.134  10.330   2.359  2.2318  0.7183 -2.0914
  644MOL0     H86931   4.111  10.170   2.442 -0.5344  0.3336 -0.0162
  644MOL0     H86932   4.316  10.278   2.262  1.1474  0.6594  1.0002
  644MOL0     H86933   4.316  10.100   2.295 -0.9974 -0.5017  2.1695
  644MOL0     H86934   4.349  10.125   2.519 -4.0016 -0.2921  0.0513
  644MOL0     H86935   4.323  10.302   2.513 -0.7723  0.2734 -1.0127
  644MOL0     H86936   4.536  10.332   2.385  0.5645  0.1870  0.1250
  644MOL0     H86937   4.568  10.152   2.395  1.8647 -0.9262  3.3948
  644MOL0     H86938   4.686  10.244   2.781 -2.3938  0.3630  2.0487
  644MOL0     H86939   3.867  10.192   2.427  3.3013  0.2873 -1.7761
  644MOL0     H86940   3.637  10.269   2.388 -0.1341 -0.0549 -0.6879
  645MOL0     O86941   1.395   6.508   4.032  0.4164  0.6332 -0.3297
  645MOL0     C86942   1.488   6.584   4.044  0.5968  0.6483 -0.3684
  645MOL0     O86943   1.503   6.713   3.985  0.2511 -0.3446  1.0638
  645MOL0     C86944   1.418   6.751   3.882 -0.4027 -0.0570  0.6384
  645MOL0     C86945   1.283   6.783   3.903 -0.7760  0.2529  0.2749
  645MOL0     C86946   1.212   6.823   3.793  1.1120  0.4104 -0.1883
  645MOL0     C86947   1.254   6.824   3.665  0.0324  0.4740 -0.4177
  645MOL0     O86948   1.173   6.864   3.565  0.5132  0.4409 -0.8253
  645MOL0     C86949   1.107   6.752   3.500  0.0625 -0.7466 -0.6416
  645MOL0     C86950   0.960   6.772   3.474  0.0768 -0.7775 -0.2361
  645MOL0     C86951   0.901   6.638   3.430 -0.9094  0.3203  0.1478
  645MOL0     C86952   0.754   6.663   3.409  1.0119  0.3803 -0.0427
  645MOL0     C86953   0.674   6.536   3.367  0.1044  0.5116 -0.5368
  645MOL0     C86954   0.523   6.565   3.392 -1.1577  0.0336  0.4717
  645MOL0     C86955   0.482   6.604   3.535  0.5798  0.6046 -0.4882
  645MOL0     C86956   0.441   6.751   3.554  0.6393 -0.4512 -1.1287
  645MOL0     N86957   0.318   6.778   3.478  0.4435  0.3836 -0.7763
  645MOL0     C86958   0.305   6.858   3.365 -0.0879  0.8456 -0.7334
  645MOL0     C86959   0.175   6.839   3.330 -0.2897  1.1817  0.7989
  645MOL0     C86960   0.131   6.907   3.198  0.4200  0.0393 -0.9470
  645MOL0     C86961   0.124   7.061   3.209 -0.1429 -0.1718 -0.0185
  645MOL0     C86962   0.053   7.115   3.337 -0.4428  0.8986  0.3210
  645MOL0     C86963   0.048   7.268   3.329  0.5799 -0.6341  0.1267
  645MOL0     O86964   0.014   7.323   3.453  0.1039  0.0159 -0.5132
  645MOL0     C86965  -0.041   7.450   3.462 -0.1385  0.2328  0.6555
  645MOL0     C86966  -0.026   7.555   3.378  0.1260 -0.6243 -0.1201
  645MOL0     C86967  -0.094   7.677   3.401 -0.3505  0.9709  0.0387
  645MOL0     C86968  -0.063   7.792   3.310  0.2153 -0.5204  0.0674
  645MOL0     C86969  -0.165   7.694   3.524  0.2194  0.8807  0.0975
  645MOL0     C86970  -0.217   7.824   3.582  0.1224  0.1939  0.0682
  645MOL0     O86971  -0.146   7.940   3.559  0.4971  0.6723  0.0266
  645MOL0     C86972  -0.200   8.067   3.558  0.4512  0.1344 -0.0428
  645MOL0     C86973  -0.336   8.096   3.530  0.9413  0.5121 -0.8361
  645MOL0     C86974  -0.383   8.229   3.543 -0.6583 -0.4708  0.5493
  645MOL0     C86975  -0.298   8.335   3.585  0.2309 -0.3778  0.0776
  645MOL0     O86976  -0.354   8.464   3.601  0.8263  0.4282  0.2940
  645MOL0     C86977  -0.266   8.577   3.569  0.1831 -0.6369 -0.1564
  645MOL0     C86978  -0.342   8.712   3.562 -0.3699  0.2174 -0.7260
  645MOL0     C86979  -0.272   8.835   3.515  0.2759  0.0792  0.5499
  645MOL0     C86980  -0.166   8.884   3.615  0.7482 -0.5457 -0.4234
  645MOL0     C86981  -0.068   8.987   3.573 -0.6373 -0.4926  0.1315
  645MOL0     C86982  -0.134   9.124   3.576  0.2880  0.3834 -0.0480
  645MOL0     C86983  -0.057   9.227   3.516 -0.7953 -0.1101  0.2380
  645MOL0     C86984   0.052   9.294   3.603 -0.4417 -0.0304 -0.1765
  645MOL0    Cl86985   0.144   9.393   3.482 -0.1283  0.0143 -0.2064
  645MOL0     C86986  -0.162   8.305   3.600 -0.3536 -0.3216  0.6903
  645MOL0     C86987  -0.117   8.172   3.586  0.1048 -0.6229  0.0721
  645MOL0     O86988  -0.313   7.812   3.663 -0.5827 -0.3267 -0.0379
  645MOL0     C86989  -0.193   7.581   3.604  0.1990 -0.2054 -0.3927
  645MOL0     C86990  -0.129   7.466   3.574 -0.3083  0.4869 -0.3558
  645MOL0     N86991   0.113   6.742   3.410 -0.9596 -0.5160  0.1384
  645MOL0     N86992   0.192   6.713   3.506  0.5816 -0.0846 -0.5040
  645MOL0     C86993   1.389   6.789   3.643  0.2283 -0.2176 -0.0087
  645MOL0     C86994   1.470   6.760   3.748 -0.4884  0.1775  0.5914
  645MOL0     C86995   1.606   6.542   4.125  0.1437  0.3539  0.6194
  645MOL0     C86996   1.611   6.415   4.176 -0.2805 -0.0738 -0.8442
  645MOL0     C86997   1.714   6.367   4.250 -0.4165 -0.2211 -0.4604
  645MOL0     C86998   1.812   6.456   4.293  0.6197  0.2569 -0.0026
  645MOL0     O86999   1.900   6.422   4.398  0.4255 -0.5504  0.6636
  645MOL0     C87000   1.953   6.293   4.392 -0.3463  0.2799 -0.0733
  645MOL0     C87001   2.031   6.267   4.263  0.1466  0.6151  0.3086
  645MOL0     C87002   2.125   6.374   4.212 -0.7250  0.6350 -0.2073
  645MOL0     C87003   2.225   6.425   4.318 -0.2276  0.0793 -0.5201
  645MOL0     C87004   2.328   6.322   4.327  0.1705  0.7417 -1.3504
  645MOL0     C87005   2.409   6.234   4.316 -0.9696  0.6042 -0.2841
  645MOL0     C87006   1.811   6.586   4.245 -0.1432 -0.2363  0.3616
  645MOL0     C87007   1.718   6.626   4.142  0.9670  0.0023  0.4695
  645MOL0     H87008   1.242   6.758   4.000  0.2868 -0.0790  0.6493
  645MOL0     H87009   1.111   6.859   3.808  0.2044 -1.7699 -0.6524
  645MOL0     H87010   1.155   6.745   3.402  0.9295 -0.5194 -0.2396
  645MOL0     H87011   1.131   6.659   3.552 -2.3880 -0.1512  1.7616
  645MOL0     H87012   0.906   6.810   3.562  2.1414  0.4602  0.5834
  645MOL0     H87013   0.957   6.845   3.393  0.9329 -1.6694 -1.0921
  645MOL0     H87014   0.952   6.610   3.337 -3.4684 -1.9080 -0.7150
  645MOL0     H87015   0.915   6.553   3.497  0.0063 -0.6962 -1.2628
  645MOL0     H87016   0.725   6.709   3.504  3.1997  1.3421  0.2342
  645MOL0     H87017   0.747   6.739   3.331  1.4275  1.0423  0.5443
  645MOL0     H87018   0.685   6.519   3.260  0.1760  0.9337 -0.5995
  645MOL0     H87019   0.711   6.448   3.420  0.0466 -0.5424 -2.2156
  645MOL0     H87020   0.488   6.640   3.321 -1.1211 -0.3390  0.0539
  645MOL0     H87021   0.483   6.465   3.375  0.4624 -0.5512 -0.1320
  645MOL0     H87022   0.398   6.546   3.574  0.7166  0.4677 -0.3953
  645MOL0     H87023   0.569   6.590   3.600 -0.4409  1.1947  1.0374
  645MOL0     H87024   0.517   6.822   3.519 -0.5722  0.1735 -2.6145
  645MOL0     H87025   0.418   6.772   3.658  3.1508  1.1910 -0.8116
  645MOL0     H87026   0.377   6.928   3.325  1.1633  1.8467  2.8896
  645MOL0     H87027   0.197   6.875   3.117 -1.5757 -1.8178 -1.9493
  645MOL0     H87028   0.026   6.877   3.190 -0.8686  3.2199  1.6294
  645MOL0     H87029   0.069   7.092   3.120  0.3441 -1.0516 -0.6362
  645MOL0     H87030   0.224   7.105   3.215 -0.7986  2.3921 -4.3187
  645MOL0     H87031   0.108   7.084   3.426 -0.0555  1.9105  0.4509
  645MOL0     H87032  -0.046   7.070   3.337 -0.9437  1.9780  0.1036
  645MOL0     H87033  -0.024   7.298   3.252  0.3849 -0.5303  0.3492
  645MOL0     H87034   0.144   7.307   3.295 -0.3700  0.7783 -1.0732
  645MOL0     H87035   0.044   7.547   3.295  0.8971  1.3115  0.2838
  645MOL0     H87036  -0.014   7.758   3.219 -0.0724  0.0818 -0.3188
  645MOL0     H87037  -0.158   7.842   3.289 -0.4530 -2.0312 -0.6671
  645MOL0     H87038   0.003   7.858   3.368 -0.0952 -1.2756  1.3332
  645MOL0     H87039  -0.409   8.019   3.507  2.5721 -1.5118  0.4476
  645MOL0     H87040  -0.484   8.269   3.536 -0.3517  0.7091  2.2551
  645MOL0     H87041  -0.188   8.599   3.643 -0.9829  0.8175  0.7000
  645MOL0     H87042  -0.222   8.562   3.470  2.3267  2.6119  0.1557
  645MOL0     H87043  -0.418   8.689   3.486 -0.9079 -2.9727  0.6057
  645MOL0     H87044  -0.398   8.719   3.656  1.6386  0.0784  0.5435
  645MOL0     H87045  -0.353   8.909   3.508 -0.1179 -0.3274  0.7633
  645MOL0     H87046  -0.223   8.818   3.420 -1.9653 -2.1124 -0.3308
  645MOL0     H87047  -0.221   8.916   3.704  0.4628 -0.0867 -0.7649
  645MOL0     H87048  -0.108   8.794   3.639 -0.9340 -1.6707 -0.3948
  645MOL0     H87049  -0.017   8.967   3.479  2.3672 -0.4423  1.6407
  645MOL0     H87050   0.013   8.989   3.646 -0.9050  0.3543  0.4119
  645MOL0     H87051  -0.225   9.111   3.517 -0.0673  2.2268  0.0116
  645MOL0     H87052  -0.157   9.151   3.680  0.2074 -0.0752  0.0565
  645MOL0     H87053  -0.130   9.308   3.506  0.2833  0.7163 -1.3755
  645MOL0     H87054  -0.027   9.207   3.413 -1.6098  1.4302 -0.3292
  645MOL0     H87055   0.117   9.226   3.659 -2.2756 -1.6684  0.0573
  645MOL0     H87056   0.010   9.358   3.681  0.7286 -1.4197  1.7062
  645MOL0     H87057  -0.092   8.386   3.620 -1.6787  1.4646 -1.4074
  645MOL0     H87058  -0.011   8.148   3.590  0.4231  0.8762  3.0140
  645MOL0     H87059  -0.244   7.585   3.700 -1.2010  0.8505 -1.1405
  645MOL0     H87060  -0.142   7.384   3.644  0.1627  1.6204  1.1219
  645MOL0     H87061   1.444   6.781   3.550  1.6379  1.1373  0.6570
  645MOL0     H87062   1.573   6.730   3.729 -1.0840 -1.3112 -0.5427
  645MOL0     H87063   1.521   6.354   4.166 -0.7944 -0.1874  2.8299
  645MOL0     H87064   1.710   6.265   4.289  1.7426 -1.3061 -2.8474
  645MOL0     H87065   2.012   6.290   4.484  0.4967  4.7778 -0.2270
  645MOL0     H87066   1.872   6.220   4.406 -0.7074  0.9459  1.5677
  645MOL0     H87067   1.957   6.250   4.185  1.7872  1.9596 -1.6373
  645MOL0     H87068   2.092   6.178   4.278  0.1660  0.6367  0.3609
  645MOL0     H87069   2.075   6.460   4.165  0.0803  0.4184 -1.5115
  645MOL0     H87070   2.176   6.329   4.127 -3.2494 -3.0228 -0.0236
  645MOL0     H87071   2.176   6.431   4.415 -0.3204 -1.7156 -0.4124
  645MOL0     H87072   2.269   6.523   4.300  3.1186 -1.0410  0.7927
  645MOL0     H87073   2.476   6.151   4.324 -1.5225 -0.4069 -4.1544
  645MOL0     H87074   1.888   6.657   4.273  0.8629 -0.2518 -2.0913
  645MOL0     H87075   1.728   6.727   4.103  0.2973  0.7418  2.1605
  646MOL0     O87076  10.394   1.455   8.679  0.0410  0.9088  0.1161
  646MOL0     C87077  10.457   1.404   8.589 -0.7927 -0.1773  0.9398
  646MOL0     O87078  10.405   1.354   8.476  0.0348  0.0426 -0.3127
  646MOL0     C87079  10.269   1.330   8.448 -0.3371 -0.1523  0.2335
  646MOL0     C87080  10.159   1.374   8.521  0.8444  0.2588  0.1742
  646MOL0     C87081  10.025   1.353   8.475  1.2789  0.0165 -1.1637
  646MOL0     C87082  10.002   1.283   8.354  0.1637 -0.7293 -0.0793
  646MOL0     O87083   9.876   1.268   8.319 -0.0158  1.0404  0.0674
  646MOL0     C87084   9.846   1.274   8.182  0.7456 -0.6931 -0.5095
  646MOL0     C87085   9.695   1.224   8.178 -0.7056  0.3890  0.1519
  646MOL0     C87086   9.586   1.313   8.249  0.0709  0.9076  0.1655
  646MOL0     C87087   9.453   1.252   8.211  0.1609 -0.6292 -0.1955
  646MOL0     C87088   9.341   1.334   8.262 -0.1522  0.1554  0.4486
  646MOL0     C87089   9.214   1.242   8.262  0.1235  0.1235 -0.3804
  646MOL0     C87090   9.106   1.304   8.358  1.0741  0.1429 -0.3392
  646MOL0     C87091   8.996   1.205   8.366 -0.2399 -1.1589 -0.0217
  646MOL0     N87092   8.886   1.268   8.448 -0.3446  0.2675  0.4920
  646MOL0     C87093   8.782   1.353   8.400 -0.4584  0.5986  0.8555
  646MOL0     C87094   8.695   1.370   8.502  1.0691  0.6529  0.8010
  646MOL0     C87095   8.571   1.450   8.487  0.0979 -0.2091 -0.3378
  646MOL0     C87096   8.445   1.366   8.486  0.2206 -0.1810 -0.4748
  646MOL0     C87097   8.333   1.459   8.445 -0.6527  0.3686 -0.0748
  646MOL0     C87098   8.213   1.377   8.420  0.1136  0.6908  0.2150
  646MOL0     O87099   8.155   1.341   8.547 -0.0130 -0.2966 -0.8263
  646MOL0     C87100   8.031   1.395   8.582  0.3985 -0.0866 -0.4544
  646MOL0     C87101   7.921   1.403   8.496  1.5890  0.0927  0.4223
  646MOL0     C87102   7.793   1.460   8.534 -0.1414  0.0010 -0.9975
  646MOL0     C87103   7.687   1.465   8.425  0.0852  0.7190  0.2117
  646MOL0     C87104   7.775   1.489   8.673  0.3218 -0.0460  0.4844
  646MOL0     C87105   7.644   1.535   8.744 -0.1112  0.2059  0.3744
  646MOL0     O87106   7.633   1.522   8.880 -0.2817  0.5639 -0.6854
  646MOL0     C87107   7.530   1.587   8.945  0.4738  0.0766  0.2272
  646MOL0     C87108   7.421   1.509   8.959 -0.3798 -0.9929 -0.0176
  646MOL0     C87109   7.311   1.559   9.031 -0.3482 -0.4179  1.0452
  646MOL0     C87110   7.316   1.690   9.089 -0.5598 -0.7800  0.1765
  646MOL0     O87111   7.204   1.732   9.157 -0.0906 -0.5139  0.7344
  646MOL0     C87112   7.169   1.871   9.135 -0.3594  0.4312  0.4529
  646MOL0     C87113   7.044   1.912   9.219 -0.2520  0.0424  0.3487
  646MOL0     C87114   6.919   1.861   9.142 -0.3846 -0.7519 -0.0969
  646MOL0     C87115   6.805   1.866   9.247 -0.3813  0.1771  0.1431
  646MOL0     C87116   6.675   1.825   9.177 -0.3946  0.2628  0.1044
  646MOL0     C87117   6.560   1.821   9.276  0.0389  0.2667  0.1569
  646MOL0     C87118   6.426   1.783   9.209 -0.2507  0.0606 -0.7740
  646MOL0     C87119   6.295   1.819   9.293  0.1455  0.5496  0.3209
  646MOL0    Cl87120   6.152   1.753   9.200  0.4014  0.4445 -0.3082
  646MOL0     C87121   7.436   1.768   9.077 -0.1197  0.2214 -0.7406
  646MOL0     C87122   7.539   1.712   9.009 -0.2333  1.0331 -0.4490
  646MOL0     O87123   7.549   1.565   8.673 -0.4706  0.1064  0.1798
  646MOL0     C87124   7.879   1.464   8.754  0.4121  1.4468 -0.1271
  646MOL0     C87125   8.009   1.422   8.717 -0.9078 -1.0634 -0.2545
  646MOL0     N87126   8.745   1.299   8.611 -0.8797  0.0506  0.0345
  646MOL0     N87127   8.860   1.244   8.574  0.0495  0.3875 -0.6122
  646MOL0     C87128  10.116   1.227   8.285 -0.2812 -0.1150  0.0518
  646MOL0     C87129  10.248   1.249   8.331  0.2498  0.1542 -1.1155
  646MOL0     C87130  10.601   1.377   8.612 -0.4758 -0.0583  0.2647
  646MOL0     C87131  10.660   1.271   8.548  1.0444 -0.2016  0.0190
  646MOL0     C87132  10.792   1.240   8.569 -0.0041 -0.2065  0.1656
  646MOL0     C87133  10.881   1.338   8.637  0.3823  0.4129 -0.2649
  646MOL0     O87134  11.013   1.308   8.656  0.7886 -0.0335 -0.2097
  646MOL0     C87135  11.074   1.193   8.587 -0.2854 -0.0728 -0.2926
  646MOL0     C87136  11.229   1.185   8.599  0.0532 -0.1888 -0.0019
  646MOL0     C87137  11.297   1.294   8.518  0.0589 -0.2341 -0.6636
  646MOL0     C87138  11.452   1.293   8.530  0.3065  0.1639  0.1290
  646MOL0     C87139  11.510   1.283   8.663  0.6861  0.2286 -0.1268
  646MOL0     C87140  11.557   1.297   8.781  0.5926  0.7838  0.1272
  646MOL0     C87141  10.819   1.448   8.702 -0.3602  0.8894  0.5475
  646MOL0     C87142  10.681   1.461   8.699 -0.0290  0.1048 -0.3690
  646MOL0     H87143  10.164   1.442   8.606  1.4383 -1.1330  1.2952
  646MOL0     H87144   9.942   1.394   8.532  0.8326 -1.3783 -0.7660
  646MOL0     H87145   9.868   1.373   8.143  1.4586 -1.2618 -1.6212
  646MOL0     H87146   9.897   1.201   8.118  1.0534 -1.1047  0.1877
  646MOL0     H87147   9.683   1.194   8.073  0.5946 -0.0321  0.1115
  646MOL0     H87148   9.701   1.124   8.223  1.6412  0.9423  1.2191
  646MOL0     H87149   9.596   1.313   8.358 -4.3519  0.9988  0.7636
  646MOL0     H87150   9.589   1.418   8.218 -3.5332  0.6852 -1.4068
  646MOL0     H87151   9.437   1.247   8.103  2.0070  0.0211 -0.5538
  646MOL0     H87152   9.459   1.155   8.260 -0.3448  0.3408  1.9275
  646MOL0     H87153   9.359   1.366   8.365 -0.9349 -3.2465  1.8048
  646MOL0     H87154   9.328   1.423   8.200  1.8631 -0.7754 -1.4649
  646MOL0     H87155   9.173   1.228   8.162  1.1420 -2.8301 -0.4949
  646MOL0     H87156   9.231   1.138   8.292 -0.7002 -0.0710 -0.5456
  646MOL0     H87157   9.154   1.320   8.455  2.3698 -1.0821 -0.7437
  646MOL0     H87158   9.071   1.399   8.316  1.8256  0.0295 -1.2432
  646MOL0     H87159   9.028   1.109   8.406  0.5058 -0.8074  0.2530
  646MOL0     H87160   8.962   1.187   8.264 -1.0746  0.2929 -0.0249
  646MOL0     H87161   8.755   1.390   8.302  1.6497  0.5850  0.2228
  646MOL0     H87162   8.564   1.522   8.570  0.7870  3.1745 -2.9850
  646MOL0     H87163   8.568   1.509   8.395 -0.9552  2.9674  1.5814
  646MOL0     H87164   8.431   1.329   8.588 -1.5283  1.5320 -0.0485
  646MOL0     H87165   8.465   1.286   8.414 -1.1141 -1.4370  0.4774
  646MOL0     H87166   8.359   1.515   8.354  2.7596 -2.7911 -1.3188
  646MOL0     H87167   8.305   1.530   8.523  0.8973  1.8106 -0.7778
  646MOL0     H87168   8.252   1.286   8.374 -1.5927 -1.4532  2.6797
  646MOL0     H87169   8.138   1.440   8.372 -0.5273  0.8888  1.4259
  646MOL0     H87170   7.932   1.361   8.396 -1.1511 -1.0989  0.5102
  646MOL0     H87171   7.646   1.365   8.408  1.3985  0.8325 -4.9678
  646MOL0     H87172   7.607   1.537   8.449  0.2737  1.6685 -1.8695
  646MOL0     H87173   7.736   1.503   8.335 -1.3446  1.7999 -0.1594
  646MOL0     H87174   7.412   1.412   8.911 -2.4629 -1.1200  0.5519
  646MOL0     H87175   7.224   1.494   9.024 -0.5333 -0.0076 -2.5674
  646MOL0     H87176   7.246   1.927   9.188  1.0401 -0.3959 -0.6171
  646MOL0     H87177   7.165   1.901   9.030 -2.1036 -1.8614 -0.2264
  646MOL0     H87178   7.052   1.879   9.323 -1.3115  4.0432  1.8878
  646MOL0     H87179   7.025   2.018   9.235  0.1616 -0.1296  2.2243
  646MOL0     H87180   6.937   1.759   9.107  0.4316 -1.3398  1.9444
  646MOL0     H87181   6.903   1.939   9.066  2.8356  1.9361  1.7315
  646MOL0     H87182   6.827   1.785   9.318 -0.2603 -1.3692 -1.5631
  646MOL0     H87183   6.794   1.957   9.307 -1.7338 -0.6773  1.2680
  646MOL0     H87184   6.683   1.726   9.130 -0.7045 -0.1102  0.8100
  646MOL0     H87185   6.649   1.890   9.093 -2.1329  0.8613  1.0669
  646MOL0     H87186   6.572   1.752   9.359 -0.2005 -1.0582 -0.8696
  646MOL0     H87187   6.542   1.922   9.315 -0.1031  1.2942 -2.3811
  646MOL0     H87188   6.436   1.675   9.196  2.0200  0.1475 -0.1088
  646MOL0     H87189   6.417   1.828   9.110 -0.5207 -0.3932 -0.9622
  646MOL0     H87190   6.285   1.927   9.306  1.4446  0.7651 -0.3466
  646MOL0     H87191   6.294   1.766   9.389  0.1383 -2.2682 -1.1277
  646MOL0     H87192   7.452   1.863   9.127  3.7534 -1.7071  2.2204
  646MOL0     H87193   7.630   1.770   9.004 -1.1867  2.7835  0.8166
  646MOL0     H87194   7.863   1.488   8.858 -2.2642  2.8863 -0.7710
  646MOL0     H87195   8.089   1.414   8.791 -0.9806 -0.6827 -0.1349
  646MOL0     H87196  10.094   1.172   8.194 -2.3843  0.7504 -0.0277
  646MOL0     H87197  10.341   1.217   8.285  0.4224  0.0690 -0.7132
  646MOL0     H87198  10.596   1.205   8.491  0.6124  0.0213  0.2450
  646MOL0     H87199  10.818   1.147   8.519  0.2893 -0.3405  0.5587
  646MOL0     H87200  11.027   1.101   8.622 -0.8731  0.5112  0.5048
  646MOL0     H87201  11.038   1.199   8.484 -0.8038  1.3987 -0.0533
  646MOL0     H87202  11.258   1.088   8.556  0.0713  0.3747 -1.3108
  646MOL0     H87203  11.259   1.183   8.704  0.2150  2.4657  0.0586
  646MOL0     H87204  11.263   1.388   8.562  1.0720 -0.5634  0.8736
  646MOL0     H87205  11.271   1.292   8.411  3.1648  0.4302 -1.5411
  646MOL0     H87206  11.486   1.373   8.465  0.1842  0.9737  1.0367
  646MOL0     H87207  11.484   1.199   8.485  0.8054  0.2386  0.3224
  646MOL0     H87208  11.595   1.305   8.881  2.1859 -2.6911 -0.0701
  646MOL0     H87209  10.877   1.503   8.776  3.9306 -2.3802  0.0151
  646MOL0     H87210  10.627   1.540   8.750  0.2961  1.7252 -2.4235
  647MOL0     O87211   7.193   8.077   9.585 -0.8489  0.1087  0.1141
  647MOL0     C87212   7.251   7.995   9.659  0.1041 -0.2112 -0.2924
  647MOL0     O87213   7.180   7.922   9.753 -0.6701 -0.0150 -0.1247
  647MOL0     C87214   7.046   7.921   9.728 -0.3460  0.1943 -0.5375
  647MOL0     C87215   6.968   8.021   9.784  0.7022  0.1289 -0.4496
  647MOL0     C87216   6.823   8.011   9.775 -0.0533  0.4425 -0.1262
  647MOL0     C87217   6.756   7.923   9.692 -0.6117 -0.3001 -0.0918
  647MOL0     O87218   6.625   7.949   9.666  0.3562  0.1301  0.2684
  647MOL0     C87219   6.539   7.857   9.603  0.4108 -0.4108  0.5688
  647MOL0     C87220   6.511   7.730   9.680  0.6278 -0.9271 -0.3294
  647MOL0     C87221   6.400   7.647   9.632 -0.1637  0.2945 -0.2663
  647MOL0     C87222   6.388   7.645   9.473  0.2915  0.5334 -0.4731
  647MOL0     C87223   6.249   7.594   9.431  0.0839  0.1693  0.3051
  647MOL0     C87224   6.232   7.435   9.449  0.8768  0.1955  0.4183
  647MOL0     C87225   6.091   7.402   9.408 -0.3822 -0.1721 -0.3681
  647MOL0     C87226   6.068   7.253   9.399  0.3923  1.4662  0.4443
  647MOL0     N87227   5.927   7.203   9.381  0.1054 -0.1728  0.4025
  647MOL0     C87228   5.857   7.172   9.267  1.2867 -0.7357  0.7616
  647MOL0     C87229   5.729   7.157   9.321 -0.0656  0.7375  0.1150
  647MOL0     C87230   5.608   7.122   9.244 -0.3413  0.2450 -0.8262
  647MOL0     C87231   5.558   6.980   9.277  0.0278  0.1602  0.1832
  647MOL0     C87232   5.474   6.928   9.152 -0.5841  0.3883  0.3510
  647MOL0     C87233   5.371   6.828   9.202  0.0441 -0.0127 -0.5575
  647MOL0     O87234   5.305   6.759   9.091 -0.9508 -0.3534  0.1325
  647MOL0     C87235   5.230   6.831   9.007 -0.3338 -1.0990 -0.2531
  647MOL0     C87236   5.139   6.928   9.059  0.5593  0.3794  0.7526
  647MOL0     C87237   5.063   7.001   8.970 -0.6722 -0.1860  0.5192
  647MOL0     C87238   4.974   7.098   9.033 -0.8331 -0.2353 -0.2503
  647MOL0     C87239   5.069   6.973   8.828  0.3031 -0.2195 -0.1724
  647MOL0     C87240   4.988   7.044   8.717  0.1238  0.6073  0.6438
  647MOL0     O87241   4.989   6.990   8.589  0.0094 -0.0224 -0.1417
  647MOL0     C87242   4.960   7.066   8.479  0.2909 -0.5666  0.1142
  647MOL0     C87243   4.860   7.160   8.456 -0.7852  0.2793  0.3384
  647MOL0     C87244   4.840   7.202   8.324  0.2752 -0.3036 -0.1763
  647MOL0     C87245   4.911   7.156   8.215  0.7022  0.0802 -1.0176
  647MOL0     O87246   4.881   7.195   8.091  1.1023 -0.5594  0.4034
  647MOL0     C87247   4.843   7.326   8.061 -0.5999 -0.1189  0.6897
  647MOL0     C87248   4.697   7.327   8.016 -0.4415  0.0301 -0.5713
  647MOL0     C87249   4.662   7.478   8.002  0.0791  0.2330  0.7916
  647MOL0     C87250   4.509   7.495   7.985 -0.8690 -0.0141  0.1408
  647MOL0     C87251   4.468   7.642   7.968 -0.1167 -0.3643  0.1588
  647MOL0     C87252   4.317   7.664   7.943 -0.5753  0.0723  0.8180
  647MOL0     C87253   4.220   7.599   8.047  0.7014  0.2343 -0.4235
  647MOL0     C87254   4.080   7.611   7.983 -0.3808  0.9931  0.1518
  647MOL0    Cl87255   3.948   7.568   8.091 -0.1726  0.4626 -0.1564
  647MOL0     C87256   5.014   7.067   8.238 -0.0564  0.9417  0.3016
  647MOL0     C87257   5.034   7.020   8.364  0.0563 -0.5713 -0.2474
  647MOL0     O87258   4.939   7.152   8.746 -0.0835  0.4565  0.3899
  647MOL0     C87259   5.158   6.871   8.780 -0.2826 -0.2419 -0.0484
  647MOL0     C87260   5.237   6.802   8.875  0.4032 -0.0724  0.1007
  647MOL0     N87261   5.732   7.163   9.466 -0.8499 -0.4481  0.1852
  647MOL0     N87262   5.856   7.191   9.499  0.3938  0.4097  0.4056
  647MOL0     C87263   6.844   7.822   9.630  0.2023 -0.2958  0.2232
  647MOL0     C87264   6.988   7.819   9.651  0.1008 -0.1994  0.7649
  647MOL0     C87265   7.398   7.980   9.645 -0.0259  1.2541  0.2785
  647MOL0     C87266   7.471   8.082   9.578  1.0908 -0.6816  0.5102
  647MOL0     C87267   7.616   8.078   9.583  0.4554 -0.4174  0.1757
  647MOL0     C87268   7.683   7.975   9.646 -1.5472  0.4609 -0.5685
  647MOL0     O87269   7.818   7.996   9.648  0.7941 -0.1579  0.1425
  647MOL0     C87270   7.875   7.911   9.742  0.1984 -0.3283 -0.2340
  647MOL0     C87271   8.024   7.951   9.753 -0.0380  0.5564  0.3266
  647MOL0     C87272   8.101   7.858   9.843  0.0037  0.1624  0.4792
  647MOL0     C87273   8.235   7.908   9.895  0.3779 -0.3174 -0.1516
  647MOL0     C87274   8.331   7.893   9.789 -0.1318 -0.5484 -0.8086
  647MOL0     C87275   8.400   7.884   9.692  0.4531  0.5288  0.6125
  647MOL0     C87276   7.610   7.861   9.689  0.0615  0.2894  0.1266
  647MOL0     C87277   7.466   7.868   9.698  0.2879 -0.5648 -0.0873
  647MOL0     H87278   7.026   8.093   9.841  0.6187  0.4260 -0.7356
  647MOL0     H87279   6.765   8.092   9.820 -0.1599  1.3858 -1.8573
  647MOL0     H87280   6.450   7.910   9.571  0.6649 -0.9976 -1.2557
  647MOL0     H87281   6.593   7.821   9.514  0.9420  1.0965  0.2569
  647MOL0     H87282   6.602   7.670   9.688  1.9668  1.1282  1.0583
  647MOL0     H87283   6.490   7.762   9.783 -1.3967  2.5804 -1.6631
  647MOL0     H87284   6.414   7.546   9.670 -1.2059  0.4642  0.6197
  647MOL0     H87285   6.308   7.695   9.669  0.4818  1.2742  0.1108
  647MOL0     H87286   6.396   7.745   9.429  1.5874 -0.2275 -2.0751
  647MOL0     H87287   6.463   7.579   9.429 -1.2939 -2.8471  1.4991
  647MOL0     H87288   6.180   7.639   9.503 -2.4103 -1.4019 -0.9285
  647MOL0     H87289   6.224   7.633   9.332 -1.1860 -0.6369  0.2905
  647MOL0     H87290   6.298   7.382   9.379 -1.2054  0.3385 -1.7683
  647MOL0     H87291   6.256   7.401   9.550 -3.8152 -0.5860  1.4600
  647MOL0     H87292   6.020   7.428   9.488  1.3092 -0.9709  1.5016
  647MOL0     H87293   6.066   7.449   9.313  0.4099  2.1666  0.5111
  647MOL0     H87294   6.107   7.212   9.493  2.7098  1.8063 -0.3172
  647MOL0     H87295   6.124   7.220   9.312 -0.8727  0.6926 -0.0962
  647MOL0     H87296   5.894   7.177   9.165 -1.5665  1.0956 -0.3159
  647MOL0     H87297   5.536   7.201   9.263 -0.5816  0.0545 -0.9422
  647MOL0     H87298   5.642   7.122   9.140  1.1632  2.3205 -0.4083
  647MOL0     H87299   5.501   6.984   9.370 -1.7271  1.1110 -0.8887
  647MOL0     H87300   5.630   6.898   9.282  0.8035  0.8001 -0.1749
  647MOL0     H87301   5.543   6.883   9.081  2.1548  1.3260  2.2488
  647MOL0     H87302   5.424   7.017   9.113  3.3856  3.9217  2.4761
  647MOL0     H87303   5.296   6.876   9.266 -0.1247  0.4536 -1.0921
  647MOL0     H87304   5.430   6.755   9.257  1.5247  0.1912 -1.8041
  647MOL0     H87305   5.116   6.937   9.165 -1.7358 -0.5291  0.3845
  647MOL0     H87306   4.881   7.115   8.978 -0.1828 -0.6660 -1.4996
  647MOL0     H87307   4.938   7.051   9.126  0.1814 -0.6743 -0.0679
  647MOL0     H87308   5.024   7.192   9.058  1.1035 -1.0137 -1.0491
  647MOL0     H87309   4.793   7.183   8.538 -0.0795  0.1121  0.9822
  647MOL0     H87310   4.760   7.272   8.305 -0.9136 -0.5698  3.0968
  647MOL0     H87311   4.852   7.385   8.152  1.2005 -0.8288  0.9997
  647MOL0     H87312   4.914   7.375   7.993  0.0707  0.1922  1.6005
  647MOL0     H87313   4.704   7.279   7.919  2.3346 -0.9320  0.0042
  647MOL0     H87314   4.638   7.273   8.090 -0.4511  0.6334 -0.1248
  647MOL0     H87315   4.716   7.510   7.913 -1.8462 -1.3139 -1.0295
  647MOL0     H87316   4.704   7.538   8.084  0.2110 -0.2075  1.0542
  647MOL0     H87317   4.485   7.430   7.900  1.1593  0.4074 -0.8218
  647MOL0     H87318   4.462   7.458   8.077  1.3615  0.6467  1.6332
  647MOL0     H87319   4.515   7.691   7.882 -0.3717 -2.5879 -1.3301
  647MOL0     H87320   4.501   7.698   8.056  1.3682  0.9411 -1.1500
  647MOL0     H87321   4.305   7.772   7.935 -1.6332 -0.1209 -0.7920
  647MOL0     H87322   4.287   7.620   7.847 -0.7787  0.7996  0.5471
  647MOL0     H87323   4.223   7.655   8.141 -1.6870  2.4068 -1.5206
  647MOL0     H87324   4.244   7.493   8.059 -2.8817 -0.9639 -2.4398
  647MOL0     H87325   4.069   7.546   7.896  0.6615  1.2466 -0.1781
  647MOL0     H87326   4.060   7.712   7.945 -3.1153 -0.5668 -3.0594
  647MOL0     H87327   5.059   7.021   8.150 -3.7309 -2.1881 -0.1971
  647MOL0     H87328   5.119   6.957   8.387  0.0074  0.6279  4.2987
  647MOL0     H87329   5.176   6.855   8.675  0.8934 -3.2513  0.5211
  647MOL0     H87330   5.288   6.711   8.846  1.2896  0.9937 -1.8803
  647MOL0     H87331   6.806   7.746   9.563  0.4606 -0.7150  0.5484
  647MOL0     H87332   7.054   7.745   9.607 -1.2009 -1.5501  1.0160
  647MOL0     H87333   7.416   8.168   9.542  0.3779 -0.0809  2.8695
  647MOL0     H87334   7.691   8.147   9.544  1.1495  0.1297  2.3271
  647MOL0     H87335   7.827   7.915   9.840  2.0402 -1.7134  0.8135
  647MOL0     H87336   7.879   7.808   9.703  2.7298 -0.1171 -0.7535
  647MOL0     H87337   8.025   8.057   9.782  0.7233  1.7959 -3.5880
  647MOL0     H87338   8.073   7.949   9.655  1.7821 -2.4706  1.1958
  647MOL0     H87339   8.116   7.760   9.797 -0.1678 -0.8409  2.4216
  647MOL0     H87340   8.033   7.828   9.924  1.4029 -3.1349  0.5640
  647MOL0     H87341   8.261   7.841   9.978  1.5385  0.3894  0.0840
  647MOL0     H87342   8.220   8.013   9.922 -5.8021 -1.0119  0.4065
  647MOL0     H87343   8.447   7.897   9.597 -0.9950 -0.5686 -0.2807
  647MOL0     H87344   7.663   7.773   9.723 -2.3712 -0.9164  1.0933
  647MOL0     H87345   7.415   7.790   9.754  2.1521 -2.7976 -1.3040
  648MOL0     O87346   4.384   8.397   7.376 -0.1930 -0.0929 -0.5413
  648MOL0     C87347   4.407   8.299   7.307 -0.4311 -0.0826 -0.1161
  648MOL0     O87348   4.320   8.205   7.266  0.3909  0.3565 -0.4927
  648MOL0     C87349   4.205   8.182   7.336  0.1904 -0.1700  0.1425
  648MOL0     C87350   4.100   8.115   7.275 -0.6765  0.3074 -0.0498
  648MOL0     C87351   3.978   8.089   7.341 -0.6406  0.6348  0.4284
  648MOL0     C87352   3.949   8.132   7.465  0.5066 -1.1693  0.2005
  648MOL0     O87353   3.833   8.103   7.538 -0.4818 -0.1080 -0.2829
  648MOL0     C87354   3.713   8.087   7.465  0.3420  1.0167  0.2300
  648MOL0     C87355   3.658   8.225   7.437 -0.0890  0.7622 -0.2241
  648MOL0     C87356   3.511   8.225   7.391  0.6122 -0.5712  0.3867
  648MOL0     C87357   3.495   8.185   7.243  0.0138 -0.5496 -0.5917
  648MOL0     C87358   3.348   8.152   7.213  0.7917  0.0359  0.1111
  648MOL0     C87359   3.256   8.271   7.224  0.0545 -0.0164  0.9249
  648MOL0     C87360   3.106   8.237   7.184  0.5115 -0.4906 -0.2597
  648MOL0     C87361   3.026   8.360   7.161 -0.2977  0.4489 -0.1615
  648MOL0     N87362   2.888   8.353   7.101 -0.5615  0.3263 -0.0149
  648MOL0     C87363   2.778   8.383   7.182  0.0779 -0.3858  0.6055
  648MOL0     C87364   2.672   8.352   7.099 -0.1289  0.0534  0.8607
  648MOL0     C87365   2.523   8.358   7.127  0.4498 -0.2660  0.6184
  648MOL0     C87366   2.454   8.496   7.116  0.6146 -0.5899  0.0133
  648MOL0     C87367   2.317   8.491   7.192  0.6629  0.5407  0.0909
  648MOL0     C87368   2.203   8.447   7.098  0.3429 -0.1589  0.1987
  648MOL0     O87369   2.087   8.445   7.190 -0.0410 -0.0259  0.7332
  648MOL0     C87370   1.982   8.368   7.155 -0.1276 -0.1077 -1.0164
  648MOL0     C87371   1.869   8.381   7.245 -0.4883  0.0319 -0.5401
  648MOL0     C87372   1.747   8.315   7.224 -0.7117  0.4321 -0.5713
  648MOL0     C87373   1.646   8.309   7.334  0.0704  0.5147 -0.1694
  648MOL0     C87374   1.725   8.240   7.108  0.1853 -0.2921 -0.4132
  648MOL0     C87375   1.589   8.181   7.074 -0.3135  1.2959  0.3662
  648MOL0     O87376   1.486   8.175   7.155  0.7475  0.6661 -0.6694
  648MOL0     C87377   1.361   8.138   7.114  0.1524 -0.0122 -0.6405
  648MOL0     C87378   1.246   8.186   7.178 -1.4693  0.0213 -0.3423
  648MOL0     C87379   1.115   8.150   7.145  0.0592  0.3568  0.1095
  648MOL0     C87380   1.103   8.044   7.055  0.8661  0.0995 -0.3265
  648MOL0     O87381   0.978   8.005   7.017  0.0952 -0.1265  0.3556
  648MOL0     C87382   0.953   7.864   7.014 -0.1283 -0.4718 -0.3135
  648MOL0     C87383   0.821   7.829   7.084 -0.1034  0.0255 -0.6139
  648MOL0     C87384   0.784   7.681   7.051 -1.0522 -0.2641 -0.1371
  648MOL0     C87385   0.643   7.656   7.066  0.0143  0.2582  0.0279
  648MOL0     C87386   0.613   7.508   7.074 -0.3705 -0.3047 -0.0552
  648MOL0     C87387   0.464   7.477   7.082 -0.7305 -0.5179  0.3199
  648MOL0     C87388   0.434   7.324   7.078 -0.3019 -0.6439  0.5776
  648MOL0     C87389   0.294   7.295   7.033 -0.1471  0.1379 -0.0927
  648MOL0    Cl87390   0.175   7.338   7.163 -0.2002 -0.4361 -0.0582
  648MOL0     C87391   1.207   7.993   6.984 -0.3885 -0.5501  0.4251
  648MOL0     C87392   1.337   8.041   7.015 -0.5809  0.1106  0.2280
  648MOL0     O87393   1.586   8.158   6.950 -0.3023 -0.5216 -0.0251
  648MOL0     C87394   1.835   8.242   7.015  0.6865 -0.6137  0.2402
  648MOL0     C87395   1.962   8.298   7.033  0.1241 -0.3620 -0.3957
  648MOL0     N87396   2.722   8.322   6.969 -0.3133  0.4994  0.2135
  648MOL0     N87397   2.847   8.318   6.975 -0.9788  0.4108 -0.6546
  648MOL0     C87398   4.047   8.202   7.534 -0.3891  0.6086 -0.2754
  648MOL0     C87399   4.170   8.220   7.475 -0.7570 -0.2515  0.5787
  648MOL0     C87400   4.541   8.301   7.250  0.6744 -0.2505  0.6626
  648MOL0     C87401   4.584   8.192   7.183 -0.5268  0.1709 -0.6073
  648MOL0     C87402   4.705   8.178   7.119 -0.5065  0.3067 -0.5680
  648MOL0     C87403   4.797   8.283   7.104 -0.0789  0.5247  0.2406
  648MOL0     O87404   4.915   8.263   7.044 -0.0010 -0.4135  0.5517
  648MOL0     C87405   4.997   8.371   6.993  0.4252  0.2166 -1.0395
  648MOL0     C87406   5.106   8.422   7.090  0.4990  0.7037  0.2033
  648MOL0     C87407   5.186   8.318   7.160 -0.0752 -0.0248  0.2525
  648MOL0     C87408   5.268   8.223   7.070 -0.3283 -0.6807 -0.2317
  648MOL0     C87409   5.380   8.289   6.999 -0.0103 -0.5183  0.6244
  648MOL0     C87410   5.486   8.336   6.958 -0.2100  0.5815 -0.7386
  648MOL0     C87411   4.760   8.401   7.165 -0.1483 -0.2809  0.1384
  648MOL0     C87412   4.632   8.405   7.246 -0.4053 -0.2111 -0.2420
  648MOL0     H87413   4.120   8.085   7.173  1.4626 -1.4492  0.7819
  648MOL0     H87414   3.902   8.027   7.293  0.5633 -0.4103 -0.1760
  648MOL0     H87415   3.721   8.031   7.372  0.3873  0.5373  0.5201
  648MOL0     H87416   3.652   8.025   7.532 -1.4906 -0.3171 -2.4987
  648MOL0     H87417   3.674   8.302   7.512  0.1058  2.0649 -1.5596
  648MOL0     H87418   3.717   8.272   7.358  2.7490  0.2931  1.5087
  648MOL0     H87419   3.447   8.162   7.454 -0.6069  1.4198  1.2343
  648MOL0     H87420   3.475   8.327   7.406  0.1184 -0.6561 -0.1720
  648MOL0     H87421   3.535   8.269   7.186  1.2545  2.6801  4.3904
  648MOL0     H87422   3.559   8.099   7.220  0.8320 -0.3049  0.6960
  648MOL0     H87423   3.334   8.104   7.115 -1.0948  2.4267 -0.8802
  648MOL0     H87424   3.318   8.086   7.294  1.5823 -1.2991 -0.6481
  648MOL0     H87425   3.266   8.305   7.327 -0.7097 -1.4962  1.5230
  648MOL0     H87426   3.280   8.357   7.161  0.3139  0.4702  1.6848
  648MOL0     H87427   3.098   8.175   7.095  2.6890 -0.0203 -0.8170
  648MOL0     H87428   3.049   8.182   7.261  0.4055 -0.5214 -0.3597
  648MOL0     H87429   3.076   8.427   7.090  2.8875 -2.1213 -0.5524
  648MOL0     H87430   3.018   8.414   7.256 -2.2322  0.1723 -0.1348
  648MOL0     H87431   2.781   8.407   7.287  2.0523  1.4799  0.1730
  648MOL0     H87432   2.482   8.291   7.050  1.1187 -1.0565  0.9280
  648MOL0     H87433   2.498   8.319   7.226  1.3771  0.9131  1.3382
  648MOL0     H87434   2.452   8.532   7.013  0.9583 -0.4866  0.0430
  648MOL0     H87435   2.512   8.580   7.155  1.7475 -0.3994 -1.9920
  648MOL0     H87436   2.294   8.597   7.206  1.0303  0.9730 -2.1233
  648MOL0     H87437   2.321   8.432   7.283 -1.4291  0.5531  0.2349
  648MOL0     H87438   2.205   8.348   7.054 -2.9374  0.2553 -1.1476
  648MOL0     H87439   2.201   8.531   7.028  2.2462 -0.0720  0.1967
  648MOL0     H87440   1.876   8.446   7.332 -0.3101 -0.5219 -0.1285
  648MOL0     H87441   1.628   8.203   7.354 -0.7541  0.6827  0.0247
  648MOL0     H87442   1.686   8.348   7.428  2.0996 -0.4254 -0.5825
  648MOL0     H87443   1.552   8.361   7.312 -0.1306 -0.6253 -2.1503
  648MOL0     H87444   1.257   8.262   7.255 -1.1474  0.5143 -0.8611
  648MOL0     H87445   1.033   8.203   7.192  0.9599 -0.9041  3.3701
  648MOL0     H87446   0.949   7.824   6.913  1.9781  1.0336 -1.0766
  648MOL0     H87447   1.035   7.803   7.054 -0.7372 -2.1669 -1.5489
  648MOL0     H87448   0.840   7.852   7.189  1.4096  0.5926 -0.9945
  648MOL0     H87449   0.745   7.898   7.046 -0.0687 -0.6421 -1.9233
  648MOL0     H87450   0.846   7.610   7.105 -0.5702 -0.9249 -1.5225
  648MOL0     H87451   0.804   7.656   6.947 -0.9290  0.3021 -0.2573
  648MOL0     H87452   0.605   7.699   7.159 -0.7240  1.3157 -0.7467
  648MOL0     H87453   0.583   7.696   6.984 -2.5198  0.2721  1.7852
  648MOL0     H87454   0.663   7.461   7.159 -3.4053 -3.1575  0.3422
  648MOL0     H87455   0.662   7.461   6.988  0.9779 -1.6413  1.3941
  648MOL0     H87456   0.423   7.521   7.173 -0.5207  0.7298 -0.1679
  648MOL0     H87457   0.425   7.520   6.989 -1.6819 -1.4993  0.2481
  648MOL0     H87458   0.436   7.292   7.183  0.3951 -1.1128  0.4294
  648MOL0     H87459   0.511   7.274   7.018 -0.9927 -1.9153  0.7028
  648MOL0     H87460   0.280   7.187   7.017  3.6707 -0.3983 -0.7017
  648MOL0     H87461   0.261   7.349   6.944 -2.4741  0.8995  1.1496
  648MOL0     H87462   1.189   7.924   6.903  1.1241  0.9132 -1.2483
  648MOL0     H87463   1.423   7.998   6.964 -1.6351 -0.1851 -1.3586
  648MOL0     H87464   1.820   8.201   6.915  0.3482 -0.3277  0.1721
  648MOL0     H87465   2.033   8.288   6.952 -3.0359 -0.7116 -3.3776
  648MOL0     H87466   4.025   8.223   7.638 -1.1498 -1.1540 -0.0538
  648MOL0     H87467   4.255   8.257   7.531  0.4768 -4.1812  1.5977
  648MOL0     H87468   4.529   8.099   7.186  0.4841 -0.4345  2.2682
  648MOL0     H87469   4.729   8.085   7.067 -0.6283  2.0313 -4.0186
  648MOL0     H87470   5.053   8.335   6.906 -0.8387  1.7749 -2.5681
  648MOL0     H87471   4.937   8.457   6.962  1.4505  1.7484  1.0174
  648MOL0     H87472   5.055   8.484   7.164 -0.5599  0.6209 -0.4327
  648MOL0     H87473   5.175   8.494   7.044  2.3506  0.0574  1.8726
  648MOL0     H87474   5.122   8.255   7.222  1.2423  0.6857  2.4354
  648MOL0     H87475   5.250   8.381   7.222  0.8666  2.5633 -3.0035
  648MOL0     H87476   5.194   8.176   7.005 -2.8755  0.9350  1.3644
  648MOL0     H87477   5.304   8.135   7.125  0.6096 -0.3824 -0.3355
  648MOL0     H87478   5.580   8.384   6.938 -0.8557  2.0088 -0.4349
  648MOL0     H87479   4.815   8.494   7.149  1.3960 -1.3024 -0.7103
  648MOL0     H87480   4.615   8.496   7.304  1.6343 -0.6943  1.2008
  649MOL0     O87481   1.558   8.305  10.904 -0.1049 -0.2803  0.9411
  649MOL0     C87482   1.532   8.402  10.982  0.1368 -0.0942 -0.6269
  649MOL0     O87483   1.626   8.492  11.013 -0.4259 -0.2550  0.3273
  649MOL0     C87484   1.760   8.483  10.979 -0.7710  0.5259  0.8521
  649MOL0     C87485   1.805   8.570  10.882 -0.1740 -0.8663 -0.1855
  649MOL0     C87486   1.930   8.559  10.820 -0.0030  0.1715  0.0305
  649MOL0     C87487   2.014   8.465  10.865  0.5870  0.6169 -0.3025
  649MOL0     O87488   2.125   8.449  10.785  0.1758 -0.5428 -0.3481
  649MOL0     C87489   2.242   8.403  10.846  0.0255 -0.0990  0.9050
  649MOL0     C87490   2.366   8.432  10.763 -0.4833  0.7835 -0.4647
  649MOL0     C87491   2.497   8.379  10.828  0.4104 -0.2281  0.2003
  649MOL0     C87492   2.619   8.431  10.760  0.9053 -0.6241  0.1418
  649MOL0     C87493   2.751   8.411  10.832 -0.1900 -0.3047 -0.1480
  649MOL0     C87494   2.863   8.473  10.744  0.2285  0.1396 -0.2622
  649MOL0     C87495   2.993   8.472  10.832 -0.3008  0.2147 -0.5378
  649MOL0     C87496   3.094   8.570  10.777 -0.0842 -0.2007 -0.0349
  649MOL0     N87497   3.203   8.601  10.874 -0.1146  0.6774 -0.3013
  649MOL0     C87498   3.183   8.623  11.008 -0.2536 -0.3881 -0.0716
  649MOL0     C87499   3.313   8.626  11.048 -0.4819 -0.1699 -0.3667
  649MOL0     C87500   3.361   8.633  11.195 -0.1107  0.3291  0.1555
  649MOL0     C87501   3.286   8.738  11.274  0.6000  0.2921 -0.0038
  649MOL0     C87502   3.357   8.853  11.332  0.1309 -0.5705 -0.0763
  649MOL0     C87503   3.282   8.946  11.435  0.3331  0.9992  0.8915
  649MOL0     O87504   3.268   8.874  11.559  0.4883 -0.4411 -0.2955
  649MOL0     C87505   3.157   8.908  11.630 -0.1057  0.7996  0.2654
  649MOL0     C87506   3.098   9.037  11.630  0.6670 -0.5503 -0.2143
  649MOL0     C87507   2.984   9.061  11.709  0.5920  0.7567 -0.0093
  649MOL0     C87508   2.933   9.205  11.705 -0.3671  0.0945 -0.1429
  649MOL0     C87509   2.930   8.964  11.797  1.2254 -0.8635 -0.6584
  649MOL0     C87510   2.795   8.981  11.871 -0.0227 -0.8124  0.3118
  649MOL0     O87511   2.712   8.877  11.883  0.5709 -0.2398  0.2009
  649MOL0     C87512   2.602   8.890  11.974 -1.8352  0.2706  0.4436
  649MOL0     C87513   2.509   9.001  11.959  0.1355  0.5810  0.2921
  649MOL0     C87514   2.411   9.019  12.056 -0.1610  0.4063  0.0374
  649MOL0     C87515   2.394   8.928  12.165 -0.3769 -0.3301  0.1833
  649MOL0     O87516   2.285   8.942  12.251  0.0147 -0.5441 -0.0283
  649MOL0     C87517   2.183   9.045  12.240 -0.2786  0.2287  0.1514
  649MOL0     C87518   2.097   9.060  12.368 -0.4813  0.1559 -0.1374
  649MOL0     C87519   1.995   8.943  12.375  0.3623 -0.1082  0.6637
  649MOL0     C87520   1.903   8.944  12.501  0.0525  0.5721  0.0685
  649MOL0     C87521   1.810   8.824  12.487  0.3484  0.5865 -0.0443
  649MOL0     C87522   1.765   8.790  12.631  0.0778  0.1492 -0.3276
  649MOL0     C87523   1.717   8.646  12.649 -0.2464 -0.9190 -0.1055
  649MOL0     C87524   1.617   8.608  12.538  0.5779  0.6371  0.5558
  649MOL0    Cl87525   1.467   8.712  12.526  0.2038 -0.1625 -0.1462
  649MOL0     C87526   2.490   8.828  12.186  0.8190 -0.1865 -0.0070
  649MOL0     C87527   2.589   8.805  12.083 -0.5248  0.3553  0.3000
  649MOL0     O87528   2.787   9.087  11.936  0.3661 -0.2178 -0.6233
  649MOL0     C87529   2.987   8.836  11.785 -0.5104  0.1616 -0.4621
  649MOL0     C87530   3.100   8.808  11.708 -0.4020 -0.2237 -0.4312
  649MOL0     N87531   3.391   8.621  10.937 -0.6564 -0.9155 -0.3683
  649MOL0     N87532   3.334   8.600  10.830 -0.3595 -0.1041 -0.2099
  649MOL0     C87533   1.979   8.374  10.969  0.1568  0.6690  0.0033
  649MOL0     C87534   1.843   8.375  11.018  0.3833  0.5335 -0.3440
  649MOL0     C87535   1.387   8.430  11.026 -0.5332 -0.2090 -0.5353
  649MOL0     C87536   1.369   8.530  11.120  1.0582 -0.3935 -1.2107
  649MOL0     C87537   1.232   8.566  11.155  0.3660  0.0794  0.2538
  649MOL0     C87538   1.116   8.498  11.098 -0.5083 -0.2240 -0.5706
  649MOL0     O87539   0.991   8.550  11.113  0.7054  0.0325  0.3425
  649MOL0     C87540   0.958   8.649  11.212  0.5324  0.4759 -0.4550
  649MOL0     C87541   0.812   8.678  11.211  0.5323 -0.2964  0.0417
  649MOL0     C87542   0.752   8.736  11.086  0.2135 -0.2344  0.4453
  649MOL0     C87543   0.806   8.882  11.063  0.2526  0.0844 -0.2201
  649MOL0     C87544   0.762   8.973  11.172 -0.3275 -0.6605  0.3473
  649MOL0     C87545   0.723   9.034  11.268 -0.1458 -0.5107 -0.5763
  649MOL0     C87546   1.140   8.393  11.016 -0.8001 -0.0441 -0.3165
  649MOL0     C87547   1.272   8.357  10.985  0.3909 -0.6116 -0.2567
  649MOL0     H87548   1.742   8.655  10.858 -0.9375 -1.3627  0.0186
  649MOL0     H87549   1.946   8.639  10.749  0.4959  1.1967  1.2550
  649MOL0     H87550   2.259   8.437  10.949 -1.9784 -1.3018  1.6837
  649MOL0     H87551   2.237   8.293  10.849  1.0944 -0.6176 -4.9509
  649MOL0     H87552   2.356   8.383  10.666  1.2167 -2.5531  0.8763
  649MOL0     H87553   2.383   8.537  10.740  0.3510  0.7328 -0.1435
  649MOL0     H87554   2.504   8.410  10.933 -0.7130  1.4706 -0.1871
  649MOL0     H87555   2.484   8.271  10.830 -1.1538 -0.0537  1.3367
  649MOL0     H87556   2.622   8.396  10.657 -2.0397  1.8102 -0.9128
  649MOL0     H87557   2.604   8.539  10.750  0.6438 -0.7734 -1.2062
  649MOL0     H87558   2.737   8.471  10.923 -3.3363  0.4385 -1.0232
  649MOL0     H87559   2.770   8.310  10.868  0.0241 -0.1585  0.1586
  649MOL0     H87560   2.886   8.409  10.658 -0.3501 -1.2295  0.5586
  649MOL0     H87561   2.835   8.571  10.704  1.5646  0.3284 -0.7730
  649MOL0     H87562   2.973   8.486  10.939 -1.2023  0.8228 -0.7691
  649MOL0     H87563   3.031   8.372  10.812  0.4745  0.4077 -0.0672
  649MOL0     H87564   3.044   8.661  10.744 -1.5971  0.2829  3.1894
  649MOL0     H87565   3.143   8.529  10.688 -3.0524 -0.8340 -1.4722
  649MOL0     H87566   3.087   8.621  11.057 -1.1838 -0.0541 -1.7966
  649MOL0     H87567   3.353   8.532  11.236 -0.0262  1.3119  2.7968
  649MOL0     H87568   3.468   8.659  11.194  0.7274 -2.3319  3.4725
  649MOL0     H87569   3.236   8.686  11.357  0.5144  0.2281 -0.0952
  649MOL0     H87570   3.212   8.781  11.207 -1.8082 -1.1736  1.5366
  649MOL0     H87571   3.380   8.920  11.248 -1.7194 -0.8664 -0.8587
  649MOL0     H87572   3.447   8.811  11.378 -0.2579  0.8097  2.0595
  649MOL0     H87573   3.184   8.978  11.398  0.5833  2.6864  1.6125
  649MOL0     H87574   3.330   9.044  11.443  1.1722  0.9499 -2.3149
  649MOL0     H87575   3.147   9.123  11.586 -2.2806  0.1088 -2.5702
  649MOL0     H87576   2.986   9.277  11.642  1.6902  0.4250  1.8308
  649MOL0     H87577   2.826   9.205  11.679 -0.3403  1.9320 -0.3576
  649MOL0     H87578   2.938   9.240  11.809 -2.7054  0.6312 -0.1357
  649MOL0     H87579   2.510   9.074  11.880 -2.6329 -0.2656 -0.6494
  649MOL0     H87580   2.350   9.108  12.041  0.0222  0.5106 -0.1007
  649MOL0     H87581   2.239   9.138  12.225  0.8601 -0.0467  2.3636
  649MOL0     H87582   2.117   9.006  12.162 -2.1620 -1.3372  2.3688
  649MOL0     H87583   2.162   9.051  12.456  0.7554 -0.5892 -1.0999
  649MOL0     H87584   2.051   9.159  12.367 -0.0946  0.3818  1.2331
  649MOL0     H87585   2.047   8.847  12.372  0.7005 -0.0009  2.2149
  649MOL0     H87586   1.937   8.939  12.282  1.3748  1.1444 -0.0421
  649MOL0     H87587   1.970   8.938  12.587 -0.6606  1.4566  0.7166
  649MOL0     H87588   1.846   9.038  12.499  0.6724  0.9558 -2.1116
  649MOL0     H87589   1.861   8.739  12.442  1.3478  1.0445  0.1909
  649MOL0     H87590   1.724   8.850  12.424 -0.3598 -0.7704  0.3263
  649MOL0     H87591   1.839   8.813  12.708  0.2245  2.6200 -1.1190
  649MOL0     H87592   1.688   8.859  12.665  1.6773  1.3352  1.0757
  649MOL0     H87593   1.676   8.638  12.750  0.1597  2.5578  0.4753
  649MOL0     H87594   1.798   8.575  12.635 -0.8753 -2.4303  3.1085
  649MOL0     H87595   1.594   8.501  12.543  4.0300 -0.2112  0.8261
  649MOL0     H87596   1.668   8.621  12.442 -0.8368  1.6503 -0.0962
  649MOL0     H87597   2.483   8.770  12.278 -1.3505 -0.4093 -0.2532
  649MOL0     H87598   2.656   8.720  12.087  0.4502  0.9312 -2.1267
  649MOL0     H87599   2.957   8.755  11.851  0.5442 -1.5001 -1.9651
  649MOL0     H87600   3.146   8.711  11.719 -1.8459 -0.8982 -0.1876
  649MOL0     H87601   2.043   8.290  10.994  2.5667  2.3431 -0.2006
  649MOL0     H87602   1.820   8.299  11.093 -1.2045 -0.2750 -1.6028
  649MOL0     H87603   1.442   8.608  11.141  1.1672 -1.0975  1.3044
  649MOL0     H87604   1.210   8.655  11.213 -2.9291  0.3835 -1.2758
  649MOL0     H87605   0.984   8.620  11.314  1.3715  2.3007 -0.1054
  649MOL0     H87606   1.019   8.739  11.198  2.3538  0.1659  3.8889
  649MOL0     H87607   0.785   8.746  11.292  0.6320 -2.9847  2.4550
  649MOL0     H87608   0.755   8.587  11.232 -1.1971  1.0313  1.3374
  649MOL0     H87609   0.643   8.729  11.089  0.2263 -1.5871 -1.2049
  649MOL0     H87610   0.775   8.677  10.997  1.4065  1.0169 -0.1158
  649MOL0     H87611   0.785   8.926  10.966 -1.7412  0.3482  0.2858
  649MOL0     H87612   0.916   8.885  11.065  0.2209  1.8535  1.1205
  649MOL0     H87613   0.694   9.091  11.354 -0.7915 -2.5304  0.6125
  649MOL0     H87614   1.060   8.335  10.973 -1.1229 -0.2931  0.6044
  649MOL0     H87615   1.292   8.268  10.927  2.4045  0.2643 -1.0089
  650MOL0     O87616   3.062   2.441  11.065  0.5125 -0.0675  0.4413
  650MOL0     C87617   3.130   2.530  11.017  0.2000  0.2518  0.8188
  650MOL0     O87618   3.120   2.666  11.034  0.5074  0.2033 -0.4860
  650MOL0     C87619   3.023   2.729  11.109 -0.0293  0.0022  0.4223
  650MOL0     C87620   2.900   2.666  11.156  0.1781 -0.2504  0.8672
  650MOL0     C87621   2.817   2.733  11.237  0.5763 -0.5450  0.2310
  650MOL0     C87622   2.840   2.866  11.275 -0.3088  0.0375 -0.2060
  650MOL0     O87623   2.736   2.923  11.346  0.3479 -0.3754  0.4234
  650MOL0     C87624   2.748   3.061  11.370  0.3883  0.2688  0.0296
  650MOL0     C87625   2.637   3.110  11.469 -0.6508  0.3813 -0.3198
  650MOL0     C87626   2.511   3.150  11.398 -0.1740 -0.3535 -0.0710
  650MOL0     C87627   2.394   3.195  11.488  0.3974 -0.2855 -0.0254
  650MOL0     C87628   2.263   3.227  11.421 -0.4400 -0.6855  0.1023
  650MOL0     C87629   2.278   3.340  11.313  0.1207 -0.3950 -0.5265
  650MOL0     C87630   2.155   3.438  11.316  0.1288  0.2673 -0.1705
  650MOL0     C87631   2.163   3.547  11.207  0.8665  0.3548  0.0331
  650MOL0     N87632   2.046   3.634  11.213  0.2284  0.8403  0.1131
  650MOL0     C87633   2.018   3.726  11.311  0.3480 -0.5736  0.3457
  650MOL0     C87634   1.912   3.798  11.257 -0.0347  0.1323  0.1005
  650MOL0     C87635   1.851   3.913  11.336 -0.1975  0.3002 -0.2054
  650MOL0     C87636   1.702   3.878  11.378  0.5315  0.8168 -0.5123
  650MOL0     C87637   1.592   3.897  11.271  0.0597  0.2174 -0.6401
  650MOL0     C87638   1.448   3.906  11.327  0.3431 -0.1416 -0.6987
  650MOL0     O87639   1.410   3.793  11.413 -0.1779 -0.6606  0.3787
  650MOL0     C87640   1.283   3.792  11.463  0.5121 -0.5831  0.0020
  650MOL0     C87641   1.186   3.893  11.442  0.0096 -0.0730 -0.1730
  650MOL0     C87642   1.050   3.875  11.475 -0.5586  0.2119 -0.1648
  650MOL0     C87643   0.966   3.995  11.444  0.0597  0.3507  0.3172
  650MOL0     C87644   1.008   3.755  11.537 -0.5416  0.2670  0.6705
  650MOL0     C87645   0.875   3.711  11.562  0.3146 -0.2356  0.3013
  650MOL0     O87646   0.784   3.809  11.589  0.1853  0.8320  0.0994
  650MOL0     C87647   0.662   3.759  11.621  0.1640 -0.2414 -0.0669
  650MOL0     C87648   0.637   3.705  11.746  0.1864  1.3183 -0.8403
  650MOL0     C87649   0.511   3.676  11.785 -0.6491  0.2764  0.3760
  650MOL0     C87650   0.401   3.696  11.701  0.1804  0.7808 -0.6138
  650MOL0     O87651   0.269   3.655  11.722  0.5739  0.3052 -0.6589
  650MOL0     C87652   0.246   3.565  11.836  0.5371 -0.5341 -1.1229
  650MOL0     C87653   0.111   3.498  11.846 -1.0464  0.8021 -0.4000
  650MOL0     C87654  -0.006   3.602  11.844 -0.2287  0.8450  0.4654
  650MOL0     C87655  -0.144   3.536  11.837  0.0423  0.1206  0.1997
  650MOL0     C87656  -0.242   3.617  11.757 -0.3432  0.6153  0.2628
  650MOL0     C87657  -0.386   3.550  11.780 -1.2608 -0.7390  0.3363
  650MOL0     C87658  -0.486   3.620  11.690  0.1003 -0.1812 -0.0005
  650MOL0     C87659  -0.632   3.569  11.693 -0.0176 -0.1478 -0.1607
  650MOL0    Cl87660  -0.633   3.402  11.633 -0.3376 -0.2105  0.1713
  650MOL0     C87661   0.419   3.736  11.579  0.1736  0.4056  0.3778
  650MOL0     C87662   0.548   3.769  11.535 -0.2318 -0.3215 -0.5384
  650MOL0     O87663   0.854   3.591  11.544  0.7213 -0.0447 -0.5335
  650MOL0     C87664   1.110   3.663  11.566  0.1565 -0.5955 -0.3293
  650MOL0     C87665   1.246   3.677  11.529 -0.1385 -0.6347 -0.2464
  650MOL0     N87666   1.868   3.746  11.132  0.2036  1.2230 -0.0364
  650MOL0     N87667   1.954   3.649  11.109  0.7664  0.2640  0.5126
  650MOL0     C87668   2.963   2.934  11.226  0.2946  0.1935 -0.3934
  650MOL0     C87669   3.046   2.861  11.144  0.2964 -0.4619  0.5968
  650MOL0     C87670   3.243   2.487  10.926 -1.0551 -0.1999  0.3843
  650MOL0     C87671   3.331   2.588  10.860 -0.0111 -1.3456  0.2987
  650MOL0     C87672   3.438   2.550  10.781  0.4009 -0.1655 -0.0534
  650MOL0     C87673   3.457   2.414  10.748 -0.0031  0.3267 -0.0697
  650MOL0     O87674   3.554   2.365  10.671 -0.0177 -0.4733  0.6967
  650MOL0     C87675   3.650   2.444  10.607 -0.6379  0.1229  0.7171
  650MOL0     C87676   3.614   2.468  10.456 -0.6054 -0.2377 -0.3749
  650MOL0     C87677   3.590   2.343  10.376  0.4684 -0.4928  0.0653
  650MOL0     C87678   3.579   2.370  10.223 -0.4642 -0.4492 -0.5089
  650MOL0     C87679   3.477   2.285  10.156  0.4513  0.0644 -0.1365
  650MOL0     C87680   3.402   2.213  10.097 -0.0547  0.2793  0.6328
  650MOL0     C87681   3.374   2.321  10.815  0.9272 -0.1385  0.0157
  650MOL0     C87682   3.276   2.349  10.904  0.0382 -0.3087  0.2099
  650MOL0     H87683   2.876   2.570  11.111 -0.1060  0.8157 -1.3998
  650MOL0     H87684   2.722   2.687  11.265  1.2481 -1.3240  1.3112
  650MOL0     H87685   2.846   3.082  11.414  0.4507  2.1611 -0.9055
  650MOL0     H87686   2.746   3.119  11.277 -0.6272  2.5825  1.4273
  650MOL0     H87687   2.611   3.039  11.547 -1.5176  1.5365  0.4749
  650MOL0     H87688   2.681   3.194  11.523  0.4596  1.5801 -2.8715
  650MOL0     H87689   2.535   3.224  11.320 -0.2237 -0.7777 -0.4951
  650MOL0     H87690   2.464   3.064  11.350 -2.0810 -1.3495  3.2911
  650MOL0     H87691   2.381   3.111  11.556 -1.2931  1.4697  1.9647
  650MOL0     H87692   2.433   3.279  11.548  0.1331  0.2421 -0.5786
  650MOL0     H87693   2.233   3.136  11.368  0.1702 -0.0402 -1.3760
  650MOL0     H87694   2.180   3.241  11.491 -0.5037 -1.7860  0.2772
  650MOL0     H87695   2.367   3.398  11.336  1.3105 -2.4340  0.2185
  650MOL0     H87696   2.289   3.294  11.214 -3.6926  0.6672 -1.6357
  650MOL0     H87697   2.060   3.387  11.297 -0.1928  0.5176  0.7289
  650MOL0     H87698   2.153   3.490  11.412 -2.0169  1.5261 -0.8371
  650MOL0     H87699   2.199   3.513  11.109 -0.3871 -0.4503 -0.1761
  650MOL0     H87700   2.239   3.615  11.244 -0.2716  1.0623  1.1665
  650MOL0     H87701   2.053   3.727  11.414  1.0589 -0.4956  0.1097
  650MOL0     H87702   1.909   3.917  11.429  0.2310 -1.0832 -0.3927
  650MOL0     H87703   1.846   4.012  11.290 -3.0510  1.8389  2.9893
  650MOL0     H87704   1.676   3.944  11.461  0.1940  1.7910 -1.3656
  650MOL0     H87705   1.702   3.782  11.430  2.6459  0.4214 -1.1261
  650MOL0     H87706   1.584   3.814  11.201 -3.3434 -2.3250  2.3771
  650MOL0     H87707   1.603   3.993  11.220 -0.5972  1.4275  1.3462
  650MOL0     H87708   1.371   3.914  11.249 -1.5483 -0.1460  1.0666
  650MOL0     H87709   1.448   3.999  11.386  0.5381  0.6464 -1.9081
  650MOL0     H87710   1.199   3.978  11.375 -2.0982 -1.8259 -3.0628
  650MOL0     H87711   1.026   4.083  11.420 -0.7662  1.1557  1.0921
  650MOL0     H87712   0.890   3.976  11.367 -1.6779  5.5056  0.3762
  650MOL0     H87713   0.906   4.016  11.533  0.0943 -2.0458  0.9689
  650MOL0     H87714   0.724   3.682  11.808 -1.5212  2.0816  2.0333
  650MOL0     H87715   0.500   3.623  11.878  2.7246 -0.5540  0.4260
  650MOL0     H87716   0.314   3.480  11.825 -2.5715 -3.8493  2.3229
  650MOL0     H87717   0.268   3.614  11.931 -0.9667 -0.5689 -0.7292
  650MOL0     H87718   0.111   3.429  11.762 -0.9131 -2.0954  1.8230
  650MOL0     H87719   0.114   3.443  11.941  5.0948  1.2958  0.1215
  650MOL0     H87720   0.010   3.653  11.748  0.1883 -1.2398 -0.6300
  650MOL0     H87721   0.009   3.681  11.918  1.6579  1.7179 -0.7714
  650MOL0     H87722  -0.147   3.440  11.785 -2.4200 -0.0081  0.4600
  650MOL0     H87723  -0.183   3.517  11.938  0.9482  0.4377  0.6291
  650MOL0     H87724  -0.209   3.622  11.653 -2.3018  2.8285 -0.3271
  650MOL0     H87725  -0.252   3.720  11.790  1.9689  1.0335 -0.1549
  650MOL0     H87726  -0.378   3.444  11.755 -0.5408 -0.0308 -2.7638
  650MOL0     H87727  -0.407   3.576  11.884  1.0072  0.6780  0.4995
  650MOL0     H87728  -0.446   3.629  11.588  2.1328  0.8824  0.8311
  650MOL0     H87729  -0.485   3.723  11.726 -0.5678  0.4054 -1.5614
  650MOL0     H87730  -0.698   3.630  11.630  1.2500  0.1076 -1.2768
  650MOL0     H87731  -0.665   3.569  11.798 -0.8736 -3.6514 -0.3146
  650MOL0     H87732   0.328   3.744  11.520 -0.7268 -0.3768  1.5937
  650MOL0     H87733   0.546   3.821  11.440 -0.4394  0.9943  0.1629
  650MOL0     H87734   1.090   3.565  11.608  0.7268 -1.4947 -2.0668
  650MOL0     H87735   1.311   3.592  11.546  1.2192  0.4304  0.0732
  650MOL0     H87736   2.984   3.038  11.250  0.6033  0.2224 -0.7813
  650MOL0     H87737   3.138   2.908  11.111  0.7492 -0.0010  2.4392
  650MOL0     H87738   3.311   2.694  10.854  0.9983 -1.1060  0.8667
  650MOL0     H87739   3.488   2.631  10.730  0.2733 -0.0580 -0.0087
  650MOL0     H87740   3.680   2.535  10.660  1.8259  2.4858 -4.0277
  650MOL0     H87741   3.743   2.387  10.611 -0.9828 -0.4781  0.3064
  650MOL0     H87742   3.703   2.519  10.417  1.2922 -1.1478  2.3999
  650MOL0     H87743   3.527   2.534  10.456 -0.4724  0.0391 -3.2763
  650MOL0     H87744   3.494   2.299  10.404  1.0182 -1.1222  1.0199
  650MOL0     H87745   3.665   2.266  10.398 -1.1695 -3.4384 -3.4788
  650MOL0     H87746   3.678   2.346  10.181  0.4774 -3.8372  3.1172
  650MOL0     H87747   3.547   2.474  10.209  1.2696  0.1137 -0.6478
  650MOL0     H87748   3.336   2.150  10.040  0.2447 -0.7598  1.3928
  650MOL0     H87749   3.400   2.216  10.805 -0.7068 -0.9938  3.5495
  650MOL0     H87750   3.222   2.268  10.951 -1.8573  1.3028  0.9164
  651MOL0     O87751   8.672   6.780   4.801 -0.2020  1.1693 -0.1855
  651MOL0     C87752   8.646   6.884   4.859 -0.6967  0.2656  0.1690
  651MOL0     O87753   8.527   6.949   4.846 -0.3099  0.3796  0.2636
  651MOL0     C87754   8.417   6.884   4.801 -0.4952 -0.5423  0.0655
  651MOL0     C87755   8.339   6.808   4.885  0.8281 -0.8417 -0.1302
  651MOL0     C87756   8.219   6.751   4.835 -0.3358  0.5425 -0.5803
  651MOL0     C87757   8.183   6.759   4.699 -0.8577  0.0458 -0.0037
  651MOL0     O87758   8.078   6.703   4.628 -0.0593  0.2891  0.1149
  651MOL0     C87759   8.025   6.587   4.672  0.5387 -1.0032  0.1586
  651MOL0     C87760   7.876   6.601   4.671 -0.4940 -0.4122 -0.2080
  651MOL0     C87761   7.792   6.507   4.760  0.0822 -0.0176 -0.3878
  651MOL0     C87762   7.758   6.383   4.677  0.8184  0.6263 -0.3649
  651MOL0     C87763   7.683   6.286   4.780  0.2821  0.0667  0.2888
  651MOL0     C87764   7.628   6.159   4.722  0.0467  1.1819  0.1876
  651MOL0     C87765   7.554   6.065   4.827 -0.1170 -0.3294  0.3836
  651MOL0     C87766   7.416   6.115   4.877  0.0784 -0.2413 -0.6356
  651MOL0     N87767   7.310   6.098   4.779 -0.5897 -0.7530  0.9004
  651MOL0     C87768   7.274   6.182   4.678  0.0665  0.8829  0.3378
  651MOL0     C87769   7.146   6.150   4.646  0.2064  0.0042  0.1596
  651MOL0     C87770   7.071   6.218   4.535 -0.5523 -0.4693  0.1908
  651MOL0     C87771   6.936   6.235   4.584  0.7189 -0.1591 -0.6612
  651MOL0     C87772   6.847   6.328   4.494 -0.2181 -0.7436  0.5061
  651MOL0     C87773   6.716   6.357   4.562 -1.1045 -0.0075  0.1753
  651MOL0     O87774   6.633   6.246   4.522 -0.1852 -0.4016  1.2572
  651MOL0     C87775   6.513   6.228   4.595 -0.3854 -0.4588  0.2230
  651MOL0     C87776   6.430   6.335   4.628 -0.7192 -0.2487 -0.1040
  651MOL0     C87777   6.309   6.328   4.703 -0.4504 -0.2513  0.2876
  651MOL0     C87778   6.227   6.455   4.722  0.7404  0.1010  0.9286
  651MOL0     C87779   6.262   6.191   4.732  0.2358 -1.3640 -0.4350
  651MOL0     C87780   6.127   6.153   4.778 -0.1978 -0.0602 -0.0052
  651MOL0     O87781   6.095   6.022   4.752 -0.4717  0.3285 -0.8902
  651MOL0     C87782   5.979   5.971   4.820  0.0056  0.3952 -0.1343
  651MOL0     C87783   5.851   6.021   4.796  0.4734  0.3754  0.1991
  651MOL0     C87784   5.750   5.978   4.885 -0.2199 -0.1877 -0.1852
  651MOL0     C87785   5.770   5.878   4.986  0.3392  0.0203  0.4146
  651MOL0     O87786   5.663   5.853   5.072 -0.5948  0.2207  0.1722
  651MOL0     C87787   5.697   5.804   5.203  0.4700  0.3600  0.1439
  651MOL0     C87788   5.564   5.799   5.272  0.1751 -0.3550  0.5099
  651MOL0     C87789   5.565   5.753   5.418  0.7618 -0.8114 -0.2638
  651MOL0     C87790   5.653   5.843   5.511 -0.1305 -0.7528 -0.2987
  651MOL0     C87791   5.673   5.791   5.658  0.5615 -0.1568  0.8203
  651MOL0     C87792   5.796   5.859   5.736  0.3443  0.8127  0.1612
  651MOL0     C87793   5.820   5.796   5.869  0.1073 -0.1524 -1.2768
  651MOL0     C87794   5.709   5.845   5.974  0.3199  0.4042 -0.4104
  651MOL0    Cl87795   5.765   6.013   6.024  0.1882  0.2469  0.4120
  651MOL0     C87796   5.897   5.821   5.000 -0.2826 -0.3873 -0.3944
  651MOL0     C87797   6.001   5.874   4.926  0.0969 -0.0208  0.3434
  651MOL0     O87798   6.056   6.237   4.830 -0.2262  0.0611 -0.0841
  651MOL0     C87799   6.356   6.082   4.711  0.0053 -0.4190 -0.1874
  651MOL0     C87800   6.469   6.105   4.636 -0.5659  0.7603 -0.0938
  651MOL0     N87801   7.113   6.044   4.726  0.5745  0.7395 -1.0281
  651MOL0     N87802   7.214   6.008   4.795 -0.2874  0.6488 -0.6072
  651MOL0     C87803   8.265   6.842   4.622  0.3341  0.4276 -0.3016
  651MOL0     C87804   8.380   6.905   4.675 -0.5534  0.8247  0.0348
  651MOL0     C87805   8.759   6.945   4.944  0.5067  0.8691 -0.4957
  651MOL0     C87806   8.892   6.904   4.930  0.2856  0.6944 -0.0225
  651MOL0     C87807   8.996   6.967   5.005  0.2957 -0.0547 -0.0714
  651MOL0     C87808   8.969   7.071   5.089 -0.0496 -0.4205  0.5019
  651MOL0     O87809   9.070   7.153   5.151  0.6637  0.3694  0.5912
  651MOL0     C87810   9.036   7.275   5.223  0.6969  1.2847  0.3830
  651MOL0     C87811   9.155   7.318   5.311  0.1576  0.7006  0.0731
  651MOL0     C87812   9.285   7.332   5.236 -1.1027 -0.7126 -0.7032
  651MOL0     C87813   9.389   7.392   5.339 -0.7432  0.2364 -0.0511
  651MOL0     C87814   9.515   7.425   5.260  0.1112  0.0050  0.2695
  651MOL0     C87815   9.612   7.457   5.192  0.5238  0.3128  0.6463
  651MOL0     C87816   8.836   7.107   5.098  0.5191 -0.2937 -0.2656
  651MOL0     C87817   8.732   7.040   5.028  0.6316 -0.6392 -0.3347
  651MOL0     H87818   8.359   6.789   4.989 -0.5744 -2.2383 -0.0739
  651MOL0     H87819   8.156   6.691   4.901 -1.1643  0.8862 -1.0356
  651MOL0     H87820   8.055   6.510   4.600 -0.5838 -0.3783 -1.0381
  651MOL0     H87821   8.046   6.561   4.776 -1.4449  1.5261  1.3031
  651MOL0     H87822   7.856   6.704   4.701  2.9786  0.3472 -0.0293
  651MOL0     H87823   7.843   6.589   4.567 -1.5336 -2.1275  0.2798
  651MOL0     H87824   7.854   6.483   4.847  1.3706  0.1557 -1.2201
  651MOL0     H87825   7.698   6.559   4.779  0.2344  1.1338 -2.4895
  651MOL0     H87826   7.689   6.409   4.596 -1.9790 -2.9852  0.5763
  651MOL0     H87827   7.845   6.331   4.635 -0.5593 -0.1425 -2.4706
  651MOL0     H87828   7.752   6.263   4.862  2.3588 -0.3385 -1.4814
  651MOL0     H87829   7.609   6.351   4.828  0.4016 -0.5740  1.3768
  651MOL0     H87830   7.562   6.182   4.637  3.0071 -0.5379 -2.8165
  651MOL0     H87831   7.709   6.098   4.682 -1.2101 -0.4696  0.0633
  651MOL0     H87832   7.554   5.962   4.790 -0.6579 -0.8503  1.7815
  651MOL0     H87833   7.625   6.067   4.910 -1.7570 -3.7423  2.0459
  651MOL0     H87834   7.426   6.212   4.927  0.3142 -0.6298  0.0878
  651MOL0     H87835   7.393   6.047   4.960  4.1031 -2.9660 -1.5027
  651MOL0     H87836   7.325   6.268   4.638 -0.8409  0.8443 -0.9717
  651MOL0     H87837   7.114   6.317   4.521  1.1117 -1.3652 -1.4136
  651MOL0     H87838   7.090   6.163   4.442  0.1968  1.2231 -0.7038
  651MOL0     H87839   6.934   6.269   4.688 -1.7071 -0.9586 -0.3636
  651MOL0     H87840   6.891   6.135   4.590  2.1975 -0.7461  1.8999
  651MOL0     H87841   6.830   6.282   4.396  0.5217 -1.9042  0.8970
  651MOL0     H87842   6.898   6.424   4.485  0.9540 -1.3497  0.4967
  651MOL0     H87843   6.675   6.453   4.531  0.6913 -0.5395 -4.9300
  651MOL0     H87844   6.729   6.358   4.670 -0.6035 -0.8593  0.1364
  651MOL0     H87845   6.470   6.434   4.609  0.3508 -0.7592 -0.6497
  651MOL0     H87846   6.196   6.475   4.825 -3.2043  1.9028 -0.4192
  651MOL0     H87847   6.286   6.540   4.688  1.0499 -1.4389 -3.0287
  651MOL0     H87848   6.140   6.443   4.657  1.9046 -0.3199 -0.6242
  651MOL0     H87849   5.831   6.110   4.737  0.4327  0.9867  1.1247
  651MOL0     H87850   5.656   6.032   4.884  0.5569  1.4682  3.0266
  651MOL0     H87851   5.740   5.704   5.190  0.1979  0.4626 -1.8041
  651MOL0     H87852   5.764   5.879   5.246 -0.6843  0.8473  1.1513
  651MOL0     H87853   5.522   5.900   5.278 -2.9822 -1.2994 -2.2756
  651MOL0     H87854   5.499   5.734   5.213 -1.7161 -0.3045  2.4015
  651MOL0     H87855   5.582   5.645   5.427  1.0315 -0.6859  0.8474
  651MOL0     H87856   5.459   5.760   5.447  0.4354  0.5242 -1.6792
  651MOL0     H87857   5.750   5.845   5.460  1.0015  0.1330  1.7725
  651MOL0     H87858   5.611   5.944   5.512  0.1617 -0.6350  0.6936
  651MOL0     H87859   5.698   5.685   5.651  1.7011 -0.0258  2.4982
  651MOL0     H87860   5.574   5.796   5.705 -0.8270 -1.3542 -1.7655
  651MOL0     H87861   5.892   5.831   5.691 -1.6917 -0.8299 -3.5469
  651MOL0     H87862   5.784   5.968   5.742 -1.8822  0.7544 -1.9497
  651MOL0     H87863   5.920   5.825   5.903  0.1647 -0.4110 -1.2248
  651MOL0     H87864   5.805   5.688   5.854 -0.5174 -0.3841  0.6742
  651MOL0     H87865   5.696   5.794   6.069 -0.4911  1.6054  0.1591
  651MOL0     H87866   5.611   5.840   5.924  0.2621 -0.2453 -0.2405
  651MOL0     H87867   5.912   5.746   5.077  0.3535 -0.8185 -0.9247
  651MOL0     H87868   6.104   5.844   4.940  0.5700  0.3257 -1.9398
  651MOL0     H87869   6.344   5.979   4.742 -0.3103 -0.4566 -0.4350
  651MOL0     H87870   6.525   6.013   4.628 -1.1191  0.4196 -0.1265
  651MOL0     H87871   8.246   6.859   4.516 -0.2051 -0.5241 -0.3691
  651MOL0     H87872   8.448   6.963   4.613  1.7653 -3.0579 -1.4290
  651MOL0     H87873   8.902   6.820   4.862 -1.6030 -0.0437  0.5443
  651MOL0     H87874   9.095   6.924   5.003  0.3873 -0.0575 -4.0874
  651MOL0     H87875   9.006   7.356   5.156  1.8961  2.2089  0.9124
  651MOL0     H87876   8.953   7.248   5.289 -1.0882  0.0346 -2.2005
  651MOL0     H87877   9.175   7.250   5.394 -3.8825  0.7764  1.2986
  651MOL0     H87878   9.122   7.410   5.360  0.5729 -0.1251  1.9907
  651MOL0     H87879   9.284   7.400   5.151 -2.2482 -0.2632 -0.3503
  651MOL0     H87880   9.301   7.231   5.196 -1.2122 -2.0959  2.4128
  651MOL0     H87881   9.411   7.331   5.427 -1.7389  0.6167  0.4735
  651MOL0     H87882   9.350   7.487   5.378 -1.7741  0.2474 -1.0470
  651MOL0     H87883   9.689   7.484   5.122 -0.2129 -0.9541 -0.7279
  651MOL0     H87884   8.794   7.178   5.168  0.1170 -0.6795 -0.1102
  651MOL0     H87885   8.639   7.094   5.037  1.0567 -0.1685  1.7731
  652MOL0     O87886   2.679   2.582   8.901 -0.4269  0.1605  0.2149
  652MOL0     C87887   2.693   2.529   9.012  1.4131 -0.4099 -0.1042
  652MOL0     O87888   2.586   2.486   9.090 -0.8848  0.5654  0.1321
  652MOL0     C87889   2.452   2.493   9.055 -0.5320 -0.4834 -0.1314
  652MOL0     C87890   2.362   2.407   9.124 -0.5825  0.5997  0.2997
  652MOL0     C87891   2.224   2.411   9.107 -0.8203  0.2804  0.4344
  652MOL0     C87892   2.174   2.491   9.008  0.1279 -0.8360 -0.2807
  652MOL0     O87893   2.038   2.470   8.986 -0.3533  0.6130 -0.0396
  652MOL0     C87894   1.970   2.577   8.913 -0.2323 -0.6800 -0.6763
  652MOL0     C87895   1.815   2.581   8.925 -0.2905  0.4265  0.8027
  652MOL0     C87896   1.752   2.469   8.851  0.5260 -0.3367  0.5551
  652MOL0     C87897   1.618   2.524   8.779  0.3154  1.1869 -0.0015
  652MOL0     C87898   1.513   2.569   8.876  0.0479  0.6145 -0.4045
  652MOL0     C87899   1.386   2.627   8.816  0.8056 -0.1531  0.5889
  652MOL0     C87900   1.296   2.679   8.928  0.1790 -0.0371  0.0337
  652MOL0     C87901   1.346   2.798   9.011 -0.1887  0.2880  0.8810
  652MOL0     N87902   1.237   2.846   9.099 -0.0667  0.4716 -0.1527
  652MOL0     C87903   1.112   2.785   9.120  1.4296 -0.1668  1.0142
  652MOL0     C87904   1.038   2.871   9.197 -0.6910 -0.6036  0.1315
  652MOL0     C87905   0.900   2.856   9.234  0.4368  0.1591  0.2343
  652MOL0     C87906   0.813   2.922   9.121 -0.4017  0.1541  0.4385
  652MOL0     C87907   0.830   3.066   9.114  0.0514  0.3605  0.6396
  652MOL0     C87908   0.716   3.131   9.042  0.8180  0.1645  1.0084
  652MOL0     O87909   0.580   3.097   9.082  0.2366 -0.1145  0.3676
  652MOL0     C87910   0.485   3.167   9.012  0.4676 -0.1438 -0.5014
  652MOL0     C87911   0.350   3.157   9.060  1.1368 -1.8528 -0.0855
  652MOL0     C87912   0.240   3.224   9.001 -0.2719 -0.2886  0.0959
  652MOL0     C87913   0.100   3.227   9.067  0.6731  0.0151 -0.1001
  652MOL0     C87914   0.258   3.274   8.874 -0.2645 -0.7378  0.0758
  652MOL0     C87915   0.155   3.350   8.792  0.1956  0.0960  0.1125
  652MOL0     O87916   0.034   3.294   8.789 -0.0274 -0.9208 -0.5084
  652MOL0     C87917  -0.085   3.354   8.749  0.5035  0.6239  0.9799
  652MOL0     C87918  -0.199   3.274   8.773 -0.6746  0.5941 -0.2415
  652MOL0     C87919  -0.329   3.302   8.734  1.0149  0.2062 -0.4104
  652MOL0     C87920  -0.352   3.419   8.669  0.3641  0.8255 -0.0280
  652MOL0     O87921  -0.469   3.463   8.628 -0.3313 -0.1972  0.1014
  652MOL0     C87922  -0.583   3.413   8.688  0.0000  0.5080 -0.7297
  652MOL0     C87923  -0.688   3.534   8.682  0.6314 -0.0524 -0.0042
  652MOL0     C87924  -0.819   3.494   8.752  0.1766  0.4447 -1.2914
  652MOL0     C87925  -0.912   3.614   8.722 -0.2161 -0.2083 -0.5599
  652MOL0     C87926  -1.042   3.579   8.796 -0.0105  0.2238 -0.3295
  652MOL0     C87927  -1.116   3.463   8.720  0.7659  0.5645 -0.5756
  652MOL0     C87928  -1.175   3.530   8.589  0.6865 -0.5492 -0.0862
  652MOL0     C87929  -1.260   3.438   8.509  0.4938  0.5041 -0.0723
  652MOL0    Cl87930  -1.397   3.390   8.610 -0.0567 -0.2477  0.5213
  652MOL0     C87931  -0.245   3.509   8.657 -0.4078 -0.0594  0.1581
  652MOL0     C87932  -0.109   3.476   8.686  0.1253 -0.0664 -0.3323
  652MOL0     O87933   0.184   3.457   8.736  0.3617  0.1014  0.1845
  652MOL0     C87934   0.385   3.278   8.816 -0.5994  0.0279 -0.7867
  652MOL0     C87935   0.496   3.238   8.892 -0.5581 -0.4925  0.1805
  652MOL0     N87936   1.116   2.982   9.214 -0.1578  0.5349 -0.7007
  652MOL0     N87937   1.236   2.965   9.170 -0.7084 -0.1039 -0.3252
  652MOL0     C87938   2.263   2.570   8.928  0.2040 -0.8788  0.1761
  652MOL0     C87939   2.399   2.577   8.951  0.0455 -0.0045 -0.3322
  652MOL0     C87940   2.828   2.498   9.048  0.2754  0.7736 -0.7498
  652MOL0     C87941   2.858   2.465   9.182 -0.2021 -0.3024  1.4423
  652MOL0     C87942   2.993   2.453   9.217 -0.0451  0.6367 -0.1491
  652MOL0     C87943   3.099   2.464   9.139 -0.4512  0.7131  0.9958
  652MOL0     O87944   3.222   2.457   9.201 -0.4190 -0.6771  0.3174
  652MOL0     C87945   3.333   2.498   9.113 -0.3673  0.0722  0.0654
  652MOL0     C87946   3.449   2.474   9.216 -0.2275  0.3355 -0.0786
  652MOL0     C87947   3.566   2.561   9.185  0.5926 -0.8555 -0.4214
  652MOL0     C87948   3.635   2.543   9.054  0.4109  0.7058 -0.5537
  652MOL0     C87949   3.750   2.621   9.062 -0.2275 -1.5367 -0.3094
  652MOL0     C87950   3.837   2.697   9.104 -0.4526  0.7185 -0.1977
  652MOL0     C87951   3.071   2.481   8.999 -0.6574  0.4056  0.3946
  652MOL0     C87952   2.936   2.502   8.960  0.7839 -0.3784 -0.0857
  652MOL0     H87953   2.404   2.330   9.188 -0.1218  0.4229 -0.2081
  652MOL0     H87954   2.161   2.335   9.153 -0.0283 -1.9697 -1.9009
  652MOL0     H87955   2.002   2.673   8.953 -0.6339 -1.7186  2.3736
  652MOL0     H87956   2.003   2.571   8.808  0.0754  0.3135 -0.6471
  652MOL0     H87957   1.784   2.564   9.028 -0.9676 -2.9902  0.1558
  652MOL0     H87958   1.778   2.676   8.885 -0.8095  0.6056  1.6793
  652MOL0     H87959   1.826   2.431   8.781 -0.7774 -1.8357 -0.0808
  652MOL0     H87960   1.730   2.386   8.920 -2.1510  0.5492  0.8911
  652MOL0     H87961   1.649   2.592   8.699  1.6206 -0.6837 -1.1516
  652MOL0     H87962   1.577   2.439   8.724 -1.1607  0.6388  1.8372
  652MOL0     H87963   1.491   2.480   8.936 -1.5153  1.1113 -0.1889
  652MOL0     H87964   1.561   2.639   8.944 -1.3631  0.3086  0.9774
  652MOL0     H87965   1.415   2.708   8.748 -3.6890 -0.1088 -1.6029
  652MOL0     H87966   1.335   2.554   8.753 -0.7857  0.5752  0.9974
  652MOL0     H87967   1.205   2.698   8.870  1.4975  0.8923 -1.8241
  652MOL0     H87968   1.274   2.600   9.001 -1.0896 -0.2643 -0.5647
  652MOL0     H87969   1.364   2.881   8.943 -0.2201  1.8338  2.6906
  652MOL0     H87970   1.445   2.782   9.055  0.3203  1.8054  0.3609
  652MOL0     H87971   1.076   2.696   9.070 -0.9206  0.3901  1.5662
  652MOL0     H87972   0.882   2.748   9.237  1.4356  0.0178  2.5737
  652MOL0     H87973   0.876   2.894   9.333 -0.8978 -1.9429  0.7772
  652MOL0     H87974   0.710   2.895   9.145 -0.7645  0.8182 -0.3426
  652MOL0     H87975   0.845   2.888   9.022 -0.5662  2.1620 -0.3454
  652MOL0     H87976   0.919   3.101   9.062  0.1799 -1.7406 -0.6727
  652MOL0     H87977   0.834   3.115   9.211  2.7710  2.2998 -0.3236
  652MOL0     H87978   0.736   3.100   8.939  0.9811 -0.4048  1.2022
  652MOL0     H87979   0.728   3.239   9.049  1.0597  0.1596  0.7166
  652MOL0     H87980   0.320   3.115   9.156 -1.0158  3.7906  2.1475
  652MOL0     H87981   0.110   3.214   9.175 -1.3139 -1.9292 -0.0905
  652MOL0     H87982   0.054   3.323   9.044  2.2827  1.3852  1.9890
  652MOL0     H87983   0.043   3.141   9.033  1.6311 -1.0484  0.8997
  652MOL0     H87984  -0.170   3.190   8.835  0.9538 -1.7557 -3.8250
  652MOL0     H87985  -0.412   3.236   8.752  0.6352  1.0965  1.2478
  652MOL0     H87986  -0.623   3.329   8.630  1.6138  0.3807 -1.7072
  652MOL0     H87987  -0.565   3.372   8.787 -0.9118  0.9400 -0.3760
  652MOL0     H87988  -0.648   3.618   8.739 -2.7302  0.6535  1.5416
  652MOL0     H87989  -0.698   3.565   8.577 -1.3510  1.3780  0.5538
  652MOL0     H87990  -0.808   3.494   8.861 -1.9684  2.5473 -0.9676
  652MOL0     H87991  -0.850   3.400   8.705  0.6392  0.8362 -2.4275
  652MOL0     H87992  -0.868   3.707   8.759  1.4830 -1.7528  1.5934
  652MOL0     H87993  -0.934   3.638   8.618 -2.2672 -2.2384 -0.6691
  652MOL0     H87994  -1.095   3.674   8.807 -1.2086 -0.6556  2.6937
  652MOL0     H87995  -1.025   3.537   8.896 -1.8377 -2.0461 -0.8600
  652MOL0     H87996  -1.059   3.370   8.708 -0.8103 -0.2533 -2.2554
  652MOL0     H87997  -1.198   3.433   8.786  2.7226 -1.8909  0.9389
  652MOL0     H87998  -1.100   3.573   8.522  1.8303 -2.8570 -0.3935
  652MOL0     H87999  -1.236   3.614   8.622  0.3155 -1.2748  1.1764
  652MOL0     H88000  -1.199   3.348   8.492  3.6867  2.2138  1.4687
  652MOL0     H88001  -1.279   3.487   8.413  0.5752  1.7661  0.5487
  652MOL0     H88002  -0.242   3.603   8.603  1.1895  1.4255  2.6074
  652MOL0     H88003  -0.021   3.533   8.659 -0.0625  0.3984  0.0376
  652MOL0     H88004   0.398   3.314   8.714 -0.5787 -0.1585 -0.8501
  652MOL0     H88005   0.598   3.246   8.856 -0.8812 -1.3343 -0.9760
  652MOL0     H88006   2.236   2.629   8.841  2.6792 -0.3860 -0.3617
  652MOL0     H88007   2.470   2.639   8.897 -0.1823  3.1826  2.6648
  652MOL0     H88008   2.780   2.440   9.253 -0.9309 -0.5527  0.5755
  652MOL0     H88009   3.006   2.446   9.325 -1.9744 -1.5116  0.0089
  652MOL0     H88010   3.344   2.442   9.020  0.7877  0.5898 -0.1180
  652MOL0     H88011   3.318   2.603   9.086 -0.9003 -0.1471 -0.5049
  652MOL0     H88012   3.470   2.367   9.214 -2.1572 -0.2022 -4.6608
  652MOL0     H88013   3.419   2.491   9.320  1.1751  0.2444  0.3535
  652MOL0     H88014   3.641   2.554   9.265  0.1010 -3.5960 -0.1093
  652MOL0     H88015   3.527   2.663   9.179 -0.9965 -1.5116 -2.5163
  652MOL0     H88016   3.584   2.577   8.963  3.0512  1.7824 -1.7341
  652MOL0     H88017   3.644   2.436   9.034 -1.1936  0.5319 -0.4933
  652MOL0     H88018   3.908   2.770   9.138 -2.1530  1.4946  1.9003
  652MOL0     H88019   3.143   2.485   8.919 -1.7657 -0.8814 -0.7073
  652MOL0     H88020   2.909   2.523   8.857 -0.4340  0.5839  0.4005
  653MOL0     O88021   2.845  10.900   0.876  0.3092 -0.7419 -0.6048
  653MOL0     C88022   2.887  10.789   0.845  0.0042  0.1763 -0.8007
  653MOL0     O88023   2.809  10.683   0.813 -0.3308 -0.4804  0.3099
  653MOL0     C88024   2.673  10.698   0.812  0.8340 -0.3140  0.8298
  653MOL0     C88025   2.600  10.576   0.835 -0.5277 -0.1150 -0.3125
  653MOL0     C88026   2.462  10.574   0.836  0.9157  0.1661  0.6006
  653MOL0     C88027   2.385  10.685   0.793  0.3706  0.6305  0.1038
  653MOL0     O88028   2.244  10.676   0.795 -0.4330 -0.0230  0.5301
  653MOL0     C88029   2.170  10.799   0.783  0.6359  0.3302  0.7604
  653MOL0     C88030   2.096  10.818   0.917 -0.4094  0.2904 -0.3279
  653MOL0     C88031   2.026  10.957   0.916 -0.1009 -0.0844 -0.6213
  653MOL0     C88032   1.930  10.976   0.795 -0.2407  0.4796 -0.2036
  653MOL0     C88033   1.880  11.125   0.814  0.8265  0.5968 -0.5414
  653MOL0     C88034   1.786  11.162   0.692  0.0561  0.1001  0.0150
  653MOL0     C88035   1.645  11.098   0.686 -0.2254 -0.8438 -0.7175
  653MOL0     C88036   1.566  11.143   0.803  0.7549 -0.3447 -0.4520
  653MOL0     N88037   1.428  11.101   0.770  0.0642 -0.2246  0.2197
  653MOL0     C88038   1.363  10.987   0.811 -0.3795 -0.2672  0.0348
  653MOL0     C88039   1.239  10.994   0.755  0.4574 -0.0074  0.3549
  653MOL0     C88040   1.128  10.896   0.767 -0.4419  0.3744  0.5540
  653MOL0     C88041   1.066  10.879   0.903  0.1905  0.3075  0.6711
  653MOL0     C88042   0.951  10.774   0.909  0.2606 -0.0813  0.2539
  653MOL0     C88043   0.817  10.826   0.851  0.4892  0.3897 -0.4854
  653MOL0     O88044   0.769  10.931   0.939 -0.6221  0.4120  0.2415
  653MOL0     C88045   0.634  10.950   0.965 -1.0297 -0.8400 -0.2138
  653MOL0     C88046   0.599  11.032   1.071  0.0261  0.6140 -0.2229
  653MOL0     C88047   0.460  11.062   1.101  0.3081 -0.0086 -0.6981
  653MOL0     C88048   0.437  11.155   1.216 -0.1432 -0.1618 -0.0438
  653MOL0     C88049   0.357  11.004   1.026  0.2622 -0.6264 -0.2260
  653MOL0     C88050   0.211  11.020   1.036  0.1323  0.0468 -0.9874
  653MOL0     O88051   0.120  10.972   0.940 -0.0438 -0.1310 -0.5251
  653MOL0     C88052  -0.015  11.013   0.931 -0.4072 -0.1033 -0.7935
  653MOL0     C88053  -0.044  11.145   0.945  0.5315 -1.1856 -0.4138
  653MOL0     C88054  -0.182  11.186   0.921  0.1735 -1.1096 -0.3994
  653MOL0     C88055  -0.281  11.093   0.893  0.2453 -0.3946  0.5146
  653MOL0     O88056  -0.408  11.135   0.866  0.6449 -0.4329 -0.4103
  653MOL0     C88057  -0.450  11.102   0.736 -0.8035  0.6160  0.1100
  653MOL0     C88058  -0.593  11.140   0.729 -0.3918  0.6269 -0.9142
  653MOL0     C88059  -0.631  11.126   0.580  0.0866 -0.1318 -0.4956
  653MOL0     C88060  -0.786  11.156   0.573  0.5279  1.2417  0.6656
  653MOL0     C88061  -0.841  11.173   0.432 -0.3394 -0.4394  0.5064
  653MOL0     C88062  -0.795  11.306   0.385  1.0551 -0.2193  0.9114
  653MOL0     C88063  -0.830  11.333   0.233 -0.2483 -0.2875 -0.3759
  653MOL0     C88064  -0.752  11.458   0.173  0.2964  0.0386  0.5269
  653MOL0    Cl88065  -0.793  11.459   0.005  0.1488 -0.4611  0.1497
  653MOL0     C88066  -0.247  10.965   0.891  0.5596  0.1627 -0.1984
  653MOL0     C88067  -0.120  10.921   0.898 -0.5201  0.3156  0.2660
  653MOL0     O88068   0.175  11.078   1.136  0.0177  0.1041  0.6528
  653MOL0     C88069   0.396  10.925   0.917  1.1153  0.1988  0.0166
  653MOL0     C88070   0.528  10.890   0.891  0.1496  0.3269 -0.3734
  653MOL0     N88071   1.225  11.108   0.679 -0.3302 -0.1827  0.1217
  653MOL0     N88072   1.343  11.165   0.678 -0.3689  0.2037 -1.0307
  653MOL0     C88073   2.458  10.796   0.752  0.2276 -0.4459 -0.6790
  653MOL0     C88074   2.594  10.804   0.761 -0.7891  0.1235 -0.1698
  653MOL0     C88075   3.029  10.775   0.841 -0.4563 -1.1519  0.8423
  653MOL0     C88076   3.089  10.661   0.816  0.2271  0.7482  0.3169
  653MOL0     C88077   3.226  10.641   0.821  0.1153  0.4813 -0.1849
  653MOL0     C88078   3.317  10.751   0.844 -0.3993  0.2683 -0.3812
  653MOL0     O88079   3.457  10.740   0.856 -0.0351  0.1576  0.1111
  653MOL0     C88080   3.502  10.602   0.870  0.6615 -0.1874  1.0217
  653MOL0     C88081   3.645  10.608   0.835  0.2090  0.2076  0.0182
  653MOL0     C88082   3.728  10.469   0.853  0.6514 -0.0020  0.3647
  653MOL0     C88083   3.878  10.498   0.838  0.3066 -0.7140  0.0301
  653MOL0     C88084   3.946  10.617   0.895  0.8698 -0.0723 -0.0866
  653MOL0     C88085   4.009  10.702   0.953 -0.2050 -0.0536 -0.6408
  653MOL0     C88086   3.256  10.876   0.862  0.3321  0.7167  0.1025
  653MOL0     C88087   3.117  10.882   0.868  0.0305  0.1722  0.4666
  653MOL0     H88088   2.660  10.489   0.862 -0.0088  0.0302 -0.9653
  653MOL0     H88089   2.415  10.480   0.863 -2.4459  1.2045 -1.0500
  653MOL0     H88090   2.226  10.893   0.779  1.3461  0.0492  2.7639
  653MOL0     H88091   2.111  10.787   0.692 -0.1455  2.1195  0.9817
  653MOL0     H88092   2.021  10.740   0.932  0.6541 -1.2977 -2.7871
  653MOL0     H88093   2.166  10.810   1.002 -0.9581  2.0298  0.3433
  653MOL0     H88094   1.967  10.949   1.008 -0.8258 -2.9443 -1.2497
  653MOL0     H88095   2.099  11.039   0.918 -2.0791  1.7855 -0.4164
  653MOL0     H88096   1.983  10.968   0.699 -1.5831 -0.5992 -0.8877
  653MOL0     H88097   1.853  10.898   0.802 -1.0528  1.2091 -0.6922
  653MOL0     H88098   1.825  11.141   0.907  0.3851 -0.6637 -0.5687
  653MOL0     H88099   1.962  11.198   0.814 -0.5751  2.3444  2.2035
  653MOL0     H88100   1.763  11.267   0.713 -1.0269 -0.2256  0.5342
  653MOL0     H88101   1.841  11.144   0.599  1.3645 -1.6724  1.0919
  653MOL0     H88102   1.594  11.126   0.593  1.0825 -0.0961 -1.2357
  653MOL0     H88103   1.644  10.989   0.683 -0.4863 -0.8372 -2.3269
  653MOL0     H88104   1.552  11.252   0.804 -0.3928 -0.4234  2.3757
  653MOL0     H88105   1.601  11.111   0.901  1.0920  1.8543  0.1979
  653MOL0     H88106   1.398  10.927   0.894  0.1387 -0.0353 -0.0116
  653MOL0     H88107   1.053  10.918   0.690 -1.6360 -1.3789  1.1626
  653MOL0     H88108   1.178  10.801   0.747  0.4706  0.4799  2.1954
  653MOL0     H88109   1.019  10.972   0.937 -2.6244 -0.9676  0.4930
  653MOL0     H88110   1.150  10.856   0.969  1.4904  1.5085 -0.4926
  653MOL0     H88111   0.938  10.748   1.014 -1.6069 -2.9200 -0.5617
  653MOL0     H88112   0.981  10.677   0.868 -0.5047 -0.6541  1.0273
  653MOL0     H88113   0.749  10.741   0.847  2.3518 -1.1390 -1.4803
  653MOL0     H88114   0.817  10.865   0.748 -1.5554  1.7559 -0.0208
  653MOL0     H88115   0.682  11.078   1.125  1.1252  0.1077 -1.4223
  653MOL0     H88116   0.530  11.179   1.269  0.5291 -1.2068 -0.7082
  653MOL0     H88117   0.406  11.250   1.171  0.2801 -0.6967 -1.5192
  653MOL0     H88118   0.360  11.112   1.280 -1.8108 -1.1039 -2.5197
  653MOL0     H88119   0.030  11.217   0.976 -0.0068 -0.5250 -0.6433
  653MOL0     H88120  -0.205  11.291   0.932  3.7553 -0.0442 -1.8077
  653MOL0     H88121  -0.399  11.165   0.662 -2.5462  0.1496 -1.5877
  653MOL0     H88122  -0.444  10.995   0.716  2.8596  0.3897  1.7539
  653MOL0     H88123  -0.651  11.068   0.787  3.5843 -2.5346 -0.4035
  653MOL0     H88124  -0.611  11.243   0.761  0.1469 -0.0201  1.6751
  653MOL0     H88125  -0.610  11.021   0.555  1.7686 -0.5978  2.4725
  653MOL0     H88126  -0.569  11.190   0.516  1.0789 -1.0155 -0.4551
  653MOL0     H88127  -0.847  11.078   0.620 -0.3394  0.9085 -0.9401
  653MOL0     H88128  -0.810  11.249   0.626 -1.8753 -1.1059  4.1939
  653MOL0     H88129  -0.950  11.182   0.429 -0.3033 -0.0370 -1.6827
  653MOL0     H88130  -0.802  11.086   0.378  2.1532  1.3564 -0.7722
  653MOL0     H88131  -0.846  11.385   0.441  0.2451  0.9948 -1.3886
  653MOL0     H88132  -0.686  11.317   0.387  1.2112 -1.3732  4.0732
  653MOL0     H88133  -0.931  11.369   0.211  0.1409  1.3809  0.3286
  653MOL0     H88134  -0.819  11.244   0.172  1.2808 -1.2551  1.2129
  653MOL0     H88135  -0.645  11.458   0.194  0.1751  0.7574  1.1800
  653MOL0     H88136  -0.789  11.552   0.214 -1.1158  1.7292 -4.0866
  653MOL0     H88137  -0.316  10.884   0.869  3.2636 -1.8775 -1.7441
  653MOL0     H88138  -0.091  10.819   0.873  2.2990  1.8403 -3.8426
  653MOL0     H88139   0.322  10.884   0.848 -0.1352 -1.3228  2.1460
  653MOL0     H88140   0.541  10.816   0.813  2.4134  1.3574 -1.0784
  653MOL0     H88141   2.427  10.882   0.693  4.2821  0.2560 -2.1367
  653MOL0     H88142   2.649  10.886   0.716  1.1854 -1.4207 -0.7059
  653MOL0     H88143   3.032  10.571   0.793 -1.5791  2.1016 -0.7247
  653MOL0     H88144   3.250  10.541   0.786  0.5949  0.8203 -0.8653
  653MOL0     H88145   3.491  10.570   0.974  1.7328 -0.1138  1.1691
  653MOL0     H88146   3.446  10.532   0.808 -0.8719 -1.0250  3.2113
  653MOL0     H88147   3.692  10.677   0.905  0.3042  1.5138 -1.2944
  653MOL0     H88148   3.665  10.648   0.735  0.6826 -1.7240 -0.6995
  653MOL0     H88149   3.700  10.395   0.778 -0.9389  1.6246 -0.7258
  653MOL0     H88150   3.704  10.445   0.956 -3.4324  0.6884 -0.2540
  653MOL0     H88151   3.899  10.496   0.730 -0.8090 -0.4254 -0.2043
  653MOL0     H88152   3.920  10.409   0.887 -2.3874 -1.5773  0.9369
  653MOL0     H88153   4.054  10.793   0.988  0.5208  0.0445 -1.7696
  653MOL0     H88154   3.322  10.961   0.877 -3.0258  3.5153  0.5116
  653MOL0     H88155   3.089  10.984   0.893 -0.7829  0.6181 -1.9877
  654MOL0     O88156   1.871   7.577   5.421  0.2964  0.2268 -0.0813
  654MOL0     C88157   1.882   7.487   5.499  0.9412  0.2297 -0.2052
  654MOL0     O88158   1.784   7.409   5.550 -0.2226 -0.6137  0.1376
  654MOL0     C88159   1.652   7.420   5.506 -0.3401 -0.0229 -0.5221
  654MOL0     C88160   1.618   7.429   5.369  0.3649 -0.4118 -0.0322
  654MOL0     C88161   1.482   7.440   5.329 -0.8092 -0.3205 -0.3180
  654MOL0     C88162   1.385   7.418   5.426  0.1087  0.2060  0.0604
  654MOL0     O88163   1.258   7.422   5.379 -0.1630 -0.0992 -1.1490
  654MOL0     C88164   1.145   7.479   5.461 -0.4829 -0.2225  0.6612
  654MOL0     C88165   1.032   7.537   5.381  0.1886 -0.1079 -0.6570
  654MOL0     C88166   0.956   7.456   5.259 -0.2993 -1.1699 -0.5951
  654MOL0     C88167   0.858   7.349   5.310 -0.2332 -0.5200  0.4361
  654MOL0     C88168   0.916   7.215   5.339 -0.2733  0.3633 -1.0515
  654MOL0     C88169   0.976   7.133   5.206  0.6718 -0.3402 -1.1373
  654MOL0     C88170   1.066   7.024   5.244  0.8364  0.5090 -0.3667
  654MOL0     C88171   0.997   6.913   5.326 -0.6328 -0.2325  0.5773
  654MOL0     N88172   1.092   6.842   5.416 -0.3977  0.0208 -0.1156
  654MOL0     C88173   1.209   6.779   5.388  0.3246  0.4097  0.4780
  654MOL0     C88174   1.275   6.765   5.503 -0.0635 -1.5190 -0.4877
  654MOL0     C88175   1.415   6.710   5.520 -0.7386 -0.6370  0.2636
  654MOL0     C88176   1.520   6.754   5.414  0.0864  0.1097 -0.4418
  654MOL0     C88177   1.541   6.901   5.406 -0.3340 -0.2933 -0.1538
  654MOL0     C88178   1.635   6.935   5.289  0.0355  0.5444  0.2227
  654MOL0     O88179   1.566   6.912   5.163  0.0643  0.0376  0.2809
  654MOL0     C88180   1.478   6.993   5.101 -0.6576 -0.5220 -0.0990
  654MOL0     C88181   1.428   6.958   4.981  0.2420  0.0199 -0.6824
  654MOL0     C88182   1.333   7.036   4.907 -0.2271  0.4541  0.3210
  654MOL0     C88183   1.281   6.976   4.776 -0.7173  0.1454 -0.1713
  654MOL0     C88184   1.293   7.160   4.961  0.1795 -0.3685  0.0524
  654MOL0     C88185   1.177   7.251   4.901 -0.9645  1.0734 -0.4185
  654MOL0     O88186   1.099   7.191   4.808  0.0114  0.4066 -0.3538
  654MOL0     C88187   1.011   7.256   4.730  0.4474 -0.1987 -0.1572
  654MOL0     C88188   1.056   7.321   4.619  1.2093 -0.4488 -0.0127
  654MOL0     C88189   0.964   7.382   4.530 -0.3482 -0.1547 -0.1293
  654MOL0     C88190   0.821   7.381   4.544 -0.2317  0.6447 -0.1262
  654MOL0     O88191   0.746   7.456   4.449  0.2566  0.0318  0.2736
  654MOL0     C88192   0.608   7.458   4.446  1.1086 -0.1723 -0.9632
  654MOL0     C88193   0.542   7.576   4.514 -0.0266 -0.3905  0.0917
  654MOL0     C88194   0.394   7.590   4.486 -0.0283  0.4443 -0.7828
  654MOL0     C88195   0.348   7.720   4.545  0.6111 -0.1301 -0.1891
  654MOL0     C88196   0.192   7.742   4.561 -0.1013 -0.4580  0.4914
  654MOL0     C88197   0.128   7.778   4.421 -0.3961 -0.4351  0.0128
  654MOL0     C88198  -0.020   7.802   4.462  0.4628 -0.3571  0.0940
  654MOL0     C88199  -0.092   7.903   4.372  0.3738 -0.5084 -0.4593
  654MOL0    Cl88200  -0.222   7.985   4.465  0.2231 -0.1602 -0.3179
  654MOL0     C88201   0.773   7.297   4.648  0.4249  0.0907 -0.1405
  654MOL0     C88202   0.870   7.239   4.739  1.0916  0.3690 -0.5169
  654MOL0     O88203   1.175   7.369   4.937 -0.2009 -0.9650  0.1911
  654MOL0     C88204   1.348   7.189   5.083  0.6212  0.2715 -0.0584
  654MOL0     C88205   1.443   7.114   5.143  0.0120 -0.7202 -1.1821
  654MOL0     N88206   1.193   6.809   5.601 -0.4463 -0.5038  0.1228
  654MOL0     N88207   1.082   6.857   5.552 -0.6770 -0.2723 -0.0305
  654MOL0     C88208   1.422   7.397   5.560 -0.6660 -1.1375 -0.0991
  654MOL0     C88209   1.550   7.409   5.605 -0.3478  0.6238  0.4868
  654MOL0     C88210   2.019   7.464   5.553  0.3508 -0.3566  0.0696
  654MOL0     C88211   2.130   7.498   5.479  0.0292 -0.7795  1.0476
  654MOL0     C88212   2.263   7.477   5.524  0.2940 -0.3920  0.5204
  654MOL0     C88213   2.281   7.405   5.640  0.2197 -0.0533  0.2102
  654MOL0     O88214   2.406   7.382   5.697 -0.0619 -0.0401  0.0546
  654MOL0     C88215   2.525   7.402   5.618 -0.1384  0.5360 -0.2357
  654MOL0     C88216   2.626   7.297   5.657  0.2393  0.3904 -0.1182
  654MOL0     C88217   2.641   7.283   5.816  0.5025  0.1984  0.4770
  654MOL0     C88218   2.759   7.213   5.860 -1.0554  0.0760 -0.5537
  654MOL0     C88219   2.880   7.305   5.841  0.7562 -0.3994  0.4441
  654MOL0     C88220   2.971   7.382   5.813 -0.4867 -0.7616  0.6159
  654MOL0     C88221   2.172   7.366   5.712 -0.6209 -0.0340  0.1632
  654MOL0     C88222   2.047   7.387   5.670  0.3265  0.3142  0.7363
  654MOL0     H88223   1.696   7.431   5.294  2.7480 -2.2119  2.2197
  654MOL0     H88224   1.472   7.455   5.222 -0.0066 -1.4056 -0.5606
  654MOL0     H88225   1.104   7.404   5.529 -1.8223  0.4019  0.5759
  654MOL0     H88226   1.188   7.564   5.515 -0.5614  1.0217 -1.1398
  654MOL0     H88227   0.963   7.578   5.456  0.8843  2.3671 -1.2598
  654MOL0     H88228   1.070   7.628   5.334 -0.2169 -0.9745 -2.8129
  654MOL0     H88229   0.885   7.529   5.218 -1.0273 -0.0538  2.4412
  654MOL0     H88230   1.034   7.433   5.186  1.2060  2.1683 -0.2306
  654MOL0     H88231   0.810   7.380   5.403  0.2472  0.7577  0.2684
  654MOL0     H88232   0.773   7.338   5.241  1.3908 -1.2972 -1.5636
  654MOL0     H88233   0.997   7.231   5.410 -0.8682 -0.8718 -0.0550
  654MOL0     H88234   0.838   7.161   5.394 -1.0183  1.6063 -0.8598
  654MOL0     H88235   0.891   7.105   5.142 -0.0053  0.7578 -0.7588
  654MOL0     H88236   1.034   7.202   5.144 -0.2887  0.0080 -1.6781
  654MOL0     H88237   1.110   6.987   5.151 -1.4243 -0.0902 -1.2689
  654MOL0     H88238   1.151   7.065   5.300 -1.3494  2.6579  1.6282
  654MOL0     H88239   0.956   6.842   5.254  2.7018 -0.0099 -1.7199
  654MOL0     H88240   0.921   6.961   5.388 -1.1297 -0.6803  0.3184
  654MOL0     H88241   1.243   6.760   5.286  3.0266  1.1942  1.1509
  654MOL0     H88242   1.439   6.746   5.620 -1.9916  0.2149  0.2898
  654MOL0     H88243   1.413   6.601   5.515 -2.8888 -0.6194 -0.2101
  654MOL0     H88244   1.489   6.711   5.318 -3.6121  0.6654  0.3326
  654MOL0     H88245   1.612   6.707   5.450  1.6549  1.6649 -2.2203
  654MOL0     H88246   1.584   6.949   5.494 -0.7856  0.4317 -0.3220
  654MOL0     H88247   1.446   6.950   5.384 -0.5184  0.7556  2.6143
  654MOL0     H88248   1.729   6.879   5.293 -0.1338  0.3101  1.0416
  654MOL0     H88249   1.665   7.041   5.293  0.5452  0.5579 -2.1914
  654MOL0     H88250   1.464   6.864   4.940  1.3729  0.7360 -1.3736
  654MOL0     H88251   1.184   6.926   4.783  0.2709 -1.6327  2.5276
  654MOL0     H88252   1.267   7.053   4.700  0.9903  1.1583  0.4898
  654MOL0     H88253   1.349   6.900   4.738 -2.7301 -0.7304 -2.2964
  654MOL0     H88254   1.162   7.343   4.626  1.1439 -0.4515  1.1657
  654MOL0     H88255   1.009   7.432   4.444  3.6548 -1.0498  1.2257
  654MOL0     H88256   0.582   7.456   4.340 -3.3961  0.9276 -0.0612
  654MOL0     H88257   0.571   7.366   4.493  0.0873  2.2679  3.5885
  654MOL0     H88258   0.556   7.561   4.621  1.4789 -2.3532 -0.3200
  654MOL0     H88259   0.591   7.666   4.476  2.5086 -1.5120  0.5485
  654MOL0     H88260   0.332   7.506   4.517  1.0420 -0.8560 -2.0530
  654MOL0     H88261   0.373   7.596   4.379 -1.9369  0.1391 -0.4502
  654MOL0     H88262   0.394   7.730   4.644  0.5091  0.6706 -0.2212
  654MOL0     H88263   0.385   7.807   4.490 -1.4360  2.2992  1.9914
  654MOL0     H88264   0.175   7.829   4.626  1.3198 -0.2467  0.6099
  654MOL0     H88265   0.146   7.646   4.586 -1.7988  0.5910  1.6766
  654MOL0     H88266   0.168   7.871   4.380  0.0637 -1.1106 -1.1448
  654MOL0     H88267   0.145   7.699   4.346 -0.0334  0.4999 -0.9149
  654MOL0     H88268  -0.036   7.823   4.568 -1.7065 -1.4341  0.0344
  654MOL0     H88269  -0.073   7.707   4.448  2.9619 -1.6196 -1.5171
  654MOL0     H88270  -0.130   7.843   4.289 -0.8383  0.4934 -0.6542
  654MOL0     H88271  -0.027   7.977   4.325 -0.9952  1.5127  0.6664
  654MOL0     H88272   0.667   7.293   4.668  0.8733 -0.9227  2.4358
  654MOL0     H88273   0.822   7.171   4.808  0.1276 -0.6275 -2.1089
  654MOL0     H88274   1.315   7.285   5.121 -2.5067  0.6543 -3.2756
  654MOL0     H88275   1.485   7.146   5.238 -1.1273 -0.7864 -0.6299
  654MOL0     H88276   1.347   7.380   5.637 -0.8799 -1.8862 -0.4560
  654MOL0     H88277   1.565   7.426   5.711  1.3096  0.1128  0.3763
  654MOL0     H88278   2.112   7.532   5.378  1.1113  0.1265  1.1449
  654MOL0     H88279   2.337   7.509   5.452  0.1329  1.3690  1.0903
  654MOL0     H88280   2.505   7.395   5.511 -1.3521  0.0001  0.0056
  654MOL0     H88281   2.567   7.497   5.651  2.3864 -1.0003  1.3605
  654MOL0     H88282   2.725   7.332   5.626  1.0609 -0.9032  0.9775
  654MOL0     H88283   2.604   7.200   5.612  0.0362 -0.5992  2.0129
  654MOL0     H88284   2.561   7.216   5.848  2.1754 -2.8986 -1.3358
  654MOL0     H88285   2.628   7.384   5.856  0.1607  0.9191 -1.3555
  654MOL0     H88286   2.784   7.122   5.805 -0.9826 -1.6817  2.2399
  654MOL0     H88287   2.745   7.184   5.964 -0.3373  0.3658 -0.3697
  654MOL0     H88288   3.055   7.447   5.796  0.2175 -1.5040  1.1911
  654MOL0     H88289   2.197   7.326   5.809 -1.9296 -0.3176  0.3959
  654MOL0     H88290   1.963   7.359   5.732 -0.4922  0.0961 -0.4261
  655MOL0     O88291   0.919   8.222   9.341  0.1882 -0.1198 -0.6215
  655MOL0     C88292   0.861   8.175   9.237  0.1363 -0.6800 -0.4491
  655MOL0     O88293   0.732   8.227   9.193 -0.3799 -0.3238 -0.0093
  655MOL0     C88294   0.663   8.299   9.287  0.1498  0.9197  0.0795
  655MOL0     C88295   0.614   8.429   9.253  0.1230  0.3031  0.0200
  655MOL0     C88296   0.532   8.504   9.339  0.3405  0.0905 -0.2590
  655MOL0     C88297   0.518   8.457   9.475 -0.3395 -0.1148 -0.4680
  655MOL0     O88298   0.466   8.548   9.556  0.2310  0.1014 -0.1491
  655MOL0     C88299   0.369   8.501   9.647  0.0485  1.2343  0.0705
  655MOL0     C88300   0.242   8.590   9.649 -0.4831  0.4815 -0.0148
  655MOL0     C88301   0.159   8.612   9.525  0.2320 -0.1942 -0.0063
  655MOL0     C88302   0.030   8.675   9.570  0.1173 -0.3563  1.0765
  655MOL0     C88303  -0.073   8.705   9.456  0.5470 -0.4850 -0.4243
  655MOL0     C88304  -0.034   8.818   9.358 -0.3392  0.1610 -0.5301
  655MOL0     C88305  -0.129   8.846   9.247 -0.9215  0.4573 -1.0820
  655MOL0     C88306  -0.257   8.902   9.294  0.0662  0.4715  0.6634
  655MOL0     N88307  -0.354   8.944   9.180  0.6506  0.4526  0.0733
  655MOL0     C88308  -0.343   9.054   9.100 -0.3607 -0.2719  0.0428
  655MOL0     C88309  -0.465   9.064   9.032  0.3912  0.0144 -0.2812
  655MOL0     C88310  -0.512   9.156   8.915  0.1640 -0.3984 -0.0642
  655MOL0     C88311  -0.454   9.304   8.929 -0.4221 -0.6378 -0.8296
  655MOL0     C88312  -0.487   9.392   9.059  0.0742 -0.8989  0.4125
  655MOL0     C88313  -0.643   9.407   9.080 -0.0654 -0.3830 -0.6578
  655MOL0     O88314  -0.705   9.283   9.103 -0.8919  0.1388  0.3604
  655MOL0     C88315  -0.845   9.285   9.097 -0.6474 -0.0218 -0.1075
  655MOL0     C88316  -0.934   9.394   9.100  0.3074  1.0965  0.0408
  655MOL0     C88317  -1.075   9.371   9.099  0.2741 -0.4252 -0.4211
  655MOL0     C88318  -1.159   9.499   9.102 -0.2887 -0.1137  0.1086
  655MOL0     C88319  -1.122   9.237   9.068  0.6183 -0.2108  0.9615
  655MOL0     C88320  -1.263   9.197   9.044  0.7345 -0.4177  0.4101
  655MOL0     O88321  -1.297   9.066   9.035 -0.3491  0.7621  0.4893
  655MOL0     C88322  -1.427   9.022   9.021  0.9433  0.6486 -0.0746
  655MOL0     C88323  -1.482   8.988   8.894  0.1768  0.8618 -0.2250
  655MOL0     C88324  -1.610   8.944   8.882  0.0035  0.9107 -0.4986
  655MOL0     C88325  -1.695   8.945   8.995 -0.6713 -0.0954  0.1682
  655MOL0     O88326  -1.829   8.915   8.979 -0.3665  0.2570 -0.0753
  655MOL0     C88327  -1.922   8.919   9.095  0.3639  0.4047  0.0319
  655MOL0     C88328  -2.052   8.836   9.055 -0.5237 -0.2403  1.1055
  655MOL0     C88329  -2.157   8.869   9.162  0.8027  0.5312 -0.2108
  655MOL0     C88330  -2.298   8.824   9.128  0.6033  0.2702 -0.7872
  655MOL0     C88331  -2.397   8.795   9.245  0.0539 -0.0969 -0.6255
  655MOL0     C88332  -2.531   8.752   9.185 -0.3520  0.4462  0.3795
  655MOL0     C88333  -2.632   8.698   9.285 -0.3685 -0.0569  0.1664
  655MOL0     C88334  -2.774   8.696   9.223 -0.6908  0.7973 -0.5498
  655MOL0    Cl88335  -2.915   8.669   9.333 -0.0617 -0.0138  0.0398
  655MOL0     C88336  -1.635   8.969   9.121 -0.2100  0.3900 -0.5866
  655MOL0     C88337  -1.504   9.009   9.134  0.5417 -0.3046 -0.0065
  655MOL0     O88338  -1.347   9.282   9.031 -0.3165  0.1521  0.4735
  655MOL0     C88339  -1.030   9.134   9.067  0.0835 -1.0043  0.8365
  655MOL0     C88340  -0.895   9.161   9.094 -0.7245  0.2030  0.7909
  655MOL0     N88341  -0.539   8.956   9.071  0.4659 -0.1830  0.2181
  655MOL0     N88342  -0.475   8.888   9.154 -0.1098 -0.5955 -0.7103
  655MOL0     C88343   0.572   8.333   9.514 -0.5301 -0.0376 -1.1936
  655MOL0     C88344   0.639   8.250   9.414  0.4140 -0.2269 -0.6859
  655MOL0     C88345   0.934   8.078   9.149  0.1837  0.1872  0.7570
  655MOL0     C88346   0.933   8.085   9.009  0.7213  0.3876  0.5797
  655MOL0     C88347   1.014   7.995   8.936  0.7883  0.1872  0.7123
  655MOL0     C88348   1.108   7.905   8.992  0.3305  0.3406 -0.0179
  655MOL0     O88349   1.190   7.833   8.909 -1.1470 -0.5005 -0.2060
  655MOL0     C88350   1.276   7.731   8.985 -0.2369 -0.4140  0.3841
  655MOL0     C88351   1.370   7.640   8.899  0.4694  0.1338 -0.7765
  655MOL0     C88352   1.490   7.714   8.851 -0.2695 -0.1899 -0.4422
  655MOL0     C88353   1.594   7.621   8.794  0.3987 -0.3963 -0.0515
  655MOL0     C88354   1.698   7.704   8.731  0.0762  0.8273  0.6028
  655MOL0     C88355   1.800   7.767   8.696  0.6689 -0.0541  0.7119
  655MOL0     C88356   1.102   7.901   9.132 -0.4177  0.1445  0.2902
  655MOL0     C88357   1.019   7.986   9.207 -0.8289 -0.3215  0.0334
  655MOL0     H88358   0.644   8.466   9.156 -1.1171 -1.7080 -1.1914
  655MOL0     H88359   0.507   8.608   9.321 -1.2998 -0.5096 -1.7313
  655MOL0     H88360   0.343   8.397   9.625  0.7216  1.0409  0.1694
  655MOL0     H88361   0.413   8.494   9.747  0.5973 -1.0810 -0.2693
  655MOL0     H88362   0.184   8.542   9.728  0.6920 -0.7410  0.1403
  655MOL0     H88363   0.272   8.686   9.692 -2.4191  0.4332  1.5713
  655MOL0     H88364   0.204   8.673   9.446 -1.5169  1.4793  0.2165
  655MOL0     H88365   0.129   8.518   9.479  1.0837 -1.1420  1.2721
  655MOL0     H88366  -0.013   8.594   9.630 -0.5978 -1.1546 -0.4431
  655MOL0     H88367   0.057   8.769   9.620  1.7822  0.3614 -1.0461
  655MOL0     H88368  -0.092   8.611   9.403 -0.5489 -1.6330  1.8224
  655MOL0     H88369  -0.166   8.735   9.506  1.5983  1.8821  0.2467
  655MOL0     H88370  -0.023   8.918   9.401  0.4530 -0.5268  0.9472
  655MOL0     H88371   0.061   8.779   9.318  0.2231 -1.6037  2.2475
  655MOL0     H88372  -0.081   8.920   9.183 -2.2176  0.4263 -2.1129
  655MOL0     H88373  -0.151   8.755   9.191 -0.9567 -0.5206  0.4444
  655MOL0     H88374  -0.237   8.988   9.359  0.9452  1.9473 -1.4379
  655MOL0     H88375  -0.296   8.833   9.370  3.3939 -1.0680  1.1440
  655MOL0     H88376  -0.256   9.118   9.089 -0.4721 -0.2552 -0.7969
  655MOL0     H88377  -0.475   9.109   8.823 -0.7248  1.8671 -1.6787
  655MOL0     H88378  -0.622   9.156   8.920  0.0891 -3.4347 -0.3004
  655MOL0     H88379  -0.484   9.349   8.834  0.4276  1.4842 -0.1592
  655MOL0     H88380  -0.344   9.306   8.929 -0.3514 -1.8779  1.3355
  655MOL0     H88381  -0.444   9.492   9.056 -2.0076  0.0224 -1.3092
  655MOL0     H88382  -0.443   9.341   9.145  1.7515  0.7829  0.6286
  655MOL0     H88383  -0.689   9.452   8.991  1.0231  0.0641 -1.0082
  655MOL0     H88384  -0.661   9.455   9.177 -2.0703 -0.9910 -0.6722
  655MOL0     H88385  -0.895   9.495   9.110 -0.0541  1.1048  1.6593
  655MOL0     H88386  -1.194   9.524   9.002 -2.8399  1.4776  1.3000
  655MOL0     H88387  -1.250   9.494   9.163  0.1477  1.9007  1.0463
  655MOL0     H88388  -1.110   9.593   9.133  1.3536 -0.0149 -2.5293
  655MOL0     H88389  -1.405   8.993   8.818  0.4298 -0.6947 -0.0920
  655MOL0     H88390  -1.643   8.927   8.780  1.2546  0.8295 -0.8983
  655MOL0     H88391  -1.891   8.874   9.190  0.7029 -0.8026 -0.6264
  655MOL0     H88392  -1.954   9.023   9.105 -3.1954 -0.6125  0.5750
  655MOL0     H88393  -2.078   8.877   8.956  2.7340  0.9068  0.6080
  655MOL0     H88394  -2.032   8.730   9.038  2.1123  0.5553 -1.7431
  655MOL0     H88395  -2.153   8.977   9.182  2.9174 -0.1586  4.2777
  655MOL0     H88396  -2.129   8.833   9.261 -0.7319  0.5858  0.2781
  655MOL0     H88397  -2.344   8.885   9.050  1.4328 -3.7617 -4.8393
  655MOL0     H88398  -2.281   8.733   9.069 -1.1308 -0.3511 -0.3988
  655MOL0     H88399  -2.422   8.877   9.313 -1.2803 -1.1056  0.1436
  655MOL0     H88400  -2.355   8.715   9.307  1.7734  0.0153 -1.5909
  655MOL0     H88401  -2.580   8.837   9.136  0.0241  1.0711  1.0678
  655MOL0     H88402  -2.512   8.677   9.107  1.0158  0.9533  0.1969
  655MOL0     H88403  -2.636   8.765   9.371 -1.3185 -1.4451  1.2593
  655MOL0     H88404  -2.614   8.594   9.313 -1.4437 -0.1899  0.4187
  655MOL0     H88405  -2.777   8.615   9.149 -0.5184 -0.6694  0.9926
  655MOL0     H88406  -2.788   8.788   9.165  2.4448  1.6164 -0.2092
  655MOL0     H88407  -1.689   8.971   9.215  2.9832  0.0525  1.4081
  655MOL0     H88408  -1.458   9.030   9.230  0.3228 -1.3821  0.3560
  655MOL0     H88409  -1.069   9.034   9.052 -3.3613  0.2793  0.3902
  655MOL0     H88410  -0.816   9.088   9.107  0.8781  1.7382  0.1314
  655MOL0     H88411   0.561   8.299   9.616 -1.5491  1.3615 -0.7946
  655MOL0     H88412   0.674   8.153   9.449  0.5995  0.7489  2.1675
  655MOL0     H88413   0.860   8.147   8.958 -1.3696 -1.3256  1.3119
  655MOL0     H88414   1.002   7.994   8.828 -2.2232 -0.3256  0.9655
  655MOL0     H88415   1.334   7.794   9.053 -2.6039  1.3454  0.9048
  655MOL0     H88416   1.211   7.657   9.033  0.0019 -0.1877  1.0743
  655MOL0     H88417   1.314   7.599   8.814  2.4681 -1.0110 -1.6137
  655MOL0     H88418   1.413   7.549   8.943  2.0666  0.9277 -0.6090
  655MOL0     H88419   1.544   7.772   8.927 -0.7257 -2.1337  1.4904
  655MOL0     H88420   1.448   7.789   8.784 -3.4715  0.7706  2.3372
  655MOL0     H88421   1.553   7.546   8.726  1.2922 -1.4020  0.4778
  655MOL0     H88422   1.634   7.569   8.882 -1.9998  0.3425  1.5807
  655MOL0     H88423   1.879   7.821   8.648 -1.2470  3.0403  0.7866
  655MOL0     H88424   1.162   7.838   9.197 -0.4652  0.6120  0.7994
  655MOL0     H88425   1.020   7.973   9.314 -1.0002  0.7613  0.1793
  656MOL0     O88426   1.933   1.257   3.241 -0.4307  0.5924  0.1952
  656MOL0     C88427   1.903   1.167   3.326 -0.2392  0.8183  0.3662
  656MOL0     O88428   1.863   1.188   3.454  0.4320 -0.1883 -0.3900
  656MOL0     C88429   1.820   1.315   3.486 -0.0588 -0.1067 -0.3432
  656MOL0     C88430   1.689   1.338   3.497 -0.0624  0.8064  0.2791
  656MOL0     C88431   1.641   1.466   3.520  0.2237  0.5013 -0.2514
  656MOL0     C88432   1.732   1.579   3.538 -0.2262  0.3184 -0.2340
  656MOL0     O88433   1.679   1.705   3.567 -0.1678 -0.1016 -0.5655
  656MOL0     C88434   1.700   1.749   3.700 -0.0215  0.4217 -1.1021
  656MOL0     C88435   1.594   1.850   3.740 -0.1329  0.2232  0.0280
  656MOL0     C88436   1.604   1.886   3.889 -0.3172  0.3050 -0.5146
  656MOL0     C88437   1.490   1.988   3.933 -1.2874 -0.0869  0.3475
  656MOL0     C88438   1.467   1.953   4.087 -0.2765  0.6057  0.4759
  656MOL0     C88439   1.385   2.043   4.179 -0.5019 -0.5190 -0.0976
  656MOL0     C88440   1.261   2.097   4.111 -1.1359  0.8426 -0.1514
  656MOL0     C88441   1.164   1.979   4.072 -0.6262  0.2394 -0.8266
  656MOL0     N88442   1.042   2.016   4.012 -0.5593 -0.8057 -0.1262
  656MOL0     C88443   1.022   2.029   3.876  0.3149  0.0203  0.5662
  656MOL0     C88444   0.896   2.075   3.865  0.1317  0.0245  0.0760
  656MOL0     C88445   0.825   2.087   3.735  0.0973  0.3240  0.7609
  656MOL0     C88446   0.695   2.170   3.752 -0.4066 -0.1368  0.0734
  656MOL0     C88447   0.631   2.210   3.617 -1.2177  0.3583 -1.1185
  656MOL0     C88448   0.496   2.287   3.621 -0.2592 -1.2247 -0.3597
  656MOL0     O88449   0.400   2.248   3.715  0.1511  0.1976 -0.4797
  656MOL0     C88450   0.274   2.313   3.726 -0.7430 -0.5780 -1.0236
  656MOL0     C88451   0.198   2.352   3.623 -0.1624 -0.4228  0.3288
  656MOL0     C88452   0.071   2.404   3.629 -0.4007  0.1697 -0.3224
  656MOL0     C88453   0.008   2.447   3.504  0.6067  0.3233  0.2712
  656MOL0     C88454   0.019   2.424   3.761 -0.6038  0.1390  0.2329
  656MOL0     C88455  -0.108   2.499   3.791 -0.4372 -0.3917 -0.8636
  656MOL0     O88456  -0.124   2.522   3.928  0.0173  0.1775  0.7211
  656MOL0     C88457  -0.226   2.597   3.970  0.3445  0.1293 -0.4188
  656MOL0     C88458  -0.359   2.557   3.971  0.1043 -0.4158 -0.4549
  656MOL0     C88459  -0.458   2.651   4.003  0.4485  0.4196 -1.3301
  656MOL0     C88460  -0.425   2.776   4.051 -0.7371 -0.4452  0.3032
  656MOL0     O88461  -0.511   2.875   4.083 -0.1989 -0.6217  0.6526
  656MOL0     C88462  -0.512   2.908   4.224 -0.1235  0.7671  0.4228
  656MOL0     C88463  -0.640   2.962   4.281  0.2367 -0.4787  0.3971
  656MOL0     C88464  -0.723   3.048   4.176  0.2685  0.7026  0.0545
  656MOL0     C88465  -0.849   3.119   4.232  0.0371 -0.2312 -0.5453
  656MOL0     C88466  -0.816   3.221   4.335  0.0042 -0.6507  0.0099
  656MOL0     C88467  -0.950   3.281   4.383 -0.2350 -0.0169 -0.3494
  656MOL0     C88468  -0.929   3.374   4.511 -0.0941  0.3604  0.3597
  656MOL0     C88469  -1.041   3.474   4.520 -0.6009 -0.2930 -0.6009
  656MOL0    Cl88470  -1.186   3.381   4.494 -0.3940  0.0031  0.0335
  656MOL0     C88471  -0.285   2.813   4.058  0.3776  0.0819  0.7073
  656MOL0     C88472  -0.189   2.720   4.023 -0.2586  0.3466  0.2105
  656MOL0     O88473  -0.190   2.524   3.710  0.5493  0.0478  1.1692
  656MOL0     C88474   0.097   2.379   3.871  0.1351  0.3853 -1.1059
  656MOL0     C88475   0.223   2.327   3.860 -0.3078  0.4531 -0.1044
  656MOL0     N88476   0.848   2.101   3.990 -0.2430  0.1270 -0.3315
  656MOL0     N88477   0.933   2.054   4.082  0.1561 -0.1854 -0.6816
  656MOL0     C88478   1.870   1.547   3.537  0.4967  0.4805 -0.7811
  656MOL0     C88479   1.914   1.423   3.501  0.9221  0.7550 -0.1018
  656MOL0     C88480   1.918   1.031   3.275 -0.4304  0.5328  0.6230
  656MOL0     C88481   1.926   1.008   3.134 -0.6169 -0.7175 -0.0357
  656MOL0     C88482   1.936   0.887   3.077 -0.5327  0.2794 -0.4844
  656MOL0     C88483   1.953   0.777   3.160 -0.5281  0.0718 -0.2389
  656MOL0     O88484   1.937   0.655   3.092  0.0789 -0.3873  0.2354
  656MOL0     C88485   1.929   0.528   3.171  0.7766 -0.5680  0.9057
  656MOL0     C88486   1.783   0.519   3.219  0.7665  1.0173 -0.1532
  656MOL0     C88487   1.676   0.508   3.106 -0.1168  0.1109  0.3664
  656MOL0     C88488   1.538   0.523   3.169 -1.0060 -0.1151 -0.9311
  656MOL0     C88489   1.427   0.500   3.083  0.4087 -0.3880  0.0862
  656MOL0     C88490   1.325   0.490   3.023 -0.6214 -0.4685  0.2304
  656MOL0     C88491   1.944   0.791   3.298 -0.1188 -0.7408  0.2801
  656MOL0     C88492   1.924   0.918   3.358 -0.0818  0.0145  0.5221
  656MOL0     H88493   1.621   1.258   3.469  3.1546 -1.3830 -2.0563
  656MOL0     H88494   1.533   1.476   3.530  0.3068 -0.5956  2.6666
  656MOL0     H88495   1.706   1.664   3.768 -4.5873 -2.1915 -3.4494
  656MOL0     H88496   1.790   1.810   3.697 -0.4912  1.4370  2.0054
  656MOL0     H88497   1.600   1.947   3.690 -1.0126  0.1382 -0.2688
  656MOL0     H88498   1.497   1.803   3.721  0.0975 -0.2615  0.0369
  656MOL0     H88499   1.591   1.789   3.938 -1.1634  0.9110  0.5086
  656MOL0     H88500   1.704   1.922   3.916  0.0861 -2.8168  3.0401
  656MOL0     H88501   1.532   2.089   3.933  0.1375 -0.6358  1.6753
  656MOL0     H88502   1.397   1.979   3.875 -1.7600  0.3104  1.0264
  656MOL0     H88503   1.418   1.855   4.086  1.6575 -0.4062  0.4374
  656MOL0     H88504   1.567   1.938   4.129  1.1563 -2.5971 -3.5010
  656MOL0     H88505   1.365   1.989   4.272  0.7924  2.1201  1.8369
  656MOL0     H88506   1.456   2.122   4.204 -0.0511 -0.2693 -1.9682
  656MOL0     H88507   1.213   2.167   4.180 -0.1763  1.4805 -0.1021
  656MOL0     H88508   1.281   2.153   4.019  1.1297  1.8583  0.8852
  656MOL0     H88509   1.136   1.926   4.164 -2.7626  0.0379 -1.5303
  656MOL0     H88510   1.204   1.900   4.008 -2.0881 -1.3933  0.1794
  656MOL0     H88511   1.091   1.998   3.799 -0.4136 -2.1623  0.7150
  656MOL0     H88512   0.898   2.135   3.670  2.7875 -1.7548  2.0480
  656MOL0     H88513   0.806   1.995   3.679  3.1382  0.2059 -0.2756
  656MOL0     H88514   0.711   2.258   3.814 -2.1283  0.7886 -0.7354
  656MOL0     H88515   0.630   2.107   3.813 -0.7116 -2.9885 -2.8768
  656MOL0     H88516   0.599   2.115   3.572  3.5830 -2.0374 -0.0749
  656MOL0     H88517   0.707   2.255   3.553  0.7897 -3.1326 -1.4140
  656MOL0     H88518   0.444   2.298   3.525  1.5495  5.2025 -1.0596
  656MOL0     H88519   0.520   2.390   3.648  1.8620 -1.6383 -0.5305
  656MOL0     H88520   0.228   2.329   3.521 -2.0853 -1.2121 -0.1238
  656MOL0     H88521   0.048   2.546   3.483 -1.7832  1.0392 -1.2601
  656MOL0     H88522   0.041   2.377   3.427  0.3666 -2.1697  2.2764
  656MOL0     H88523  -0.101   2.452   3.498  0.3927 -2.5941  0.2284
  656MOL0     H88524  -0.390   2.460   3.931  4.2692 -1.6805 -1.1068
  656MOL0     H88525  -0.564   2.633   3.987 -0.8988  3.6693  2.4207
  656MOL0     H88526  -0.488   2.823   4.289  1.5095  1.0609  0.2306
  656MOL0     H88527  -0.432   2.980   4.241  0.8091 -0.2039  0.2344
  656MOL0     H88528  -0.698   2.878   4.320 -0.6835 -0.3934 -0.7280
  656MOL0     H88529  -0.613   3.016   4.372 -2.1845  0.3381  0.7057
  656MOL0     H88530  -0.748   2.986   4.089 -0.0718 -1.9967  1.9423
  656MOL0     H88531  -0.663   3.129   4.135 -2.0571  1.2355 -2.5769
  656MOL0     H88532  -0.904   3.162   4.148 -3.6991 -1.0203  1.2465
  656MOL0     H88533  -0.906   3.034   4.271  2.1975 -1.9906 -1.0558
  656MOL0     H88534  -0.754   3.301   4.294  0.4876 -1.9977 -2.0023
  656MOL0     H88535  -0.768   3.170   4.419  0.3541 -0.2944  0.0294
  656MOL0     H88536  -0.990   3.343   4.302  0.5451  1.5996  0.4480
  656MOL0     H88537  -1.016   3.195   4.396  0.0447 -0.7561 -3.1148
  656MOL0     H88538  -0.829   3.417   4.499  0.3281 -0.4514  0.9324
  656MOL0     H88539  -0.930   3.309   4.598  1.3739 -2.2488 -1.4311
  656MOL0     H88540  -1.026   3.553   4.447 -2.2969  2.1705  1.5495
  656MOL0     H88541  -1.029   3.526   4.616  2.2389  2.0697 -2.0977
  656MOL0     H88542  -0.256   2.910   4.097 -0.6555  1.5605 -1.9558
  656MOL0     H88543  -0.082   2.735   4.033 -0.3507  1.1332  0.0664
  656MOL0     H88544   0.049   2.383   3.968 -1.1349 -0.0052 -1.6863
  656MOL0     H88545   0.269   2.301   3.955 -1.7308 -1.7198  0.0600
  656MOL0     H88546   1.954   1.614   3.552  1.2054 -0.8367  1.5359
  656MOL0     H88547   2.020   1.399   3.500  0.4502 -1.6502  0.1894
  656MOL0     H88548   1.915   1.092   3.066  2.7118  0.9495  1.2443
  656MOL0     H88549   1.934   0.880   2.968 -1.2638  2.3138 -0.6451
  656MOL0     H88550   1.959   0.442   3.111  1.3272  0.4207 -0.2708
  656MOL0     H88551   1.983   0.521   3.266 -3.2892 -2.4008  3.3480
  656MOL0     H88552   1.757   0.609   3.276  0.8214  1.6243 -1.0570
  656MOL0     H88553   1.771   0.440   3.293 -0.8046  0.9756 -0.4255
  656MOL0     H88554   1.684   0.409   3.061 -0.0261  0.7594 -1.0993
  656MOL0     H88555   1.677   0.572   3.018 -3.7166 -1.4356 -0.9964
  656MOL0     H88556   1.540   0.621   3.218  3.0262  0.1059 -1.2023
  656MOL0     H88557   1.537   0.447   3.248 -2.1422  0.2120 -0.6042
  656MOL0     H88558   1.243   0.470   2.957 -0.2724 -0.5381 -0.1824
  656MOL0     H88559   1.947   0.707   3.367  2.0043 -0.6676  0.3400
  656MOL0     H88560   1.924   0.939   3.465  0.2157  1.4152  0.2761
  657MOL0     O88561   5.161   1.492   9.964  0.6587  0.0766  0.1068
  657MOL0     C88562   5.244   1.498   9.874  0.4435 -0.0748  0.2399
  657MOL0     O88563   5.243   1.434   9.761  0.5293 -0.0206  0.4866
  657MOL0     C88564   5.131   1.359   9.715 -0.5002  0.2532 -0.6520
  657MOL0     C88565   5.006   1.410   9.736  0.1609  0.1761  0.5179
  657MOL0     C88566   4.892   1.329   9.704  0.0072  0.3538  0.3474
  657MOL0     C88567   4.903   1.201   9.652 -0.2957 -0.4772 -0.0934
  657MOL0     O88568   4.795   1.126   9.609 -0.2996  0.3123 -0.0976
  657MOL0     C88569   4.668   1.189   9.596 -0.2458  0.7104  0.2523
  657MOL0     C88570   4.600   1.189   9.732  0.3917  0.4215  0.0614
  657MOL0     C88571   4.451   1.216   9.707  0.2902 -1.7661  0.3191
  657MOL0     C88572   4.369   1.194   9.831 -0.3222  0.6288 -1.0857
  657MOL0     C88573   4.221   1.225   9.805 -0.4412 -0.5745  0.0463
  657MOL0     C88574   4.122   1.211   9.927  0.6049 -0.0529 -0.2050
  657MOL0     C88575   3.977   1.197   9.876 -0.1604  0.3395 -0.3388
  657MOL0     C88576   3.931   1.059   9.815 -0.5988  0.0656 -0.4425
  657MOL0     N88577   3.920   0.951   9.910 -0.1540  0.4581 -0.1136
  657MOL0     C88578   3.850   0.945  10.033 -0.9241  0.1454  0.0528
  657MOL0     C88579   3.865   0.819  10.074  0.3750 -0.8307  0.3320
  657MOL0     C88580   3.799   0.751  10.197 -0.1199  0.0502 -0.4902
  657MOL0     C88581   3.664   0.694  10.153 -0.5161 -0.6438 -0.0921
  657MOL0     C88582   3.572   0.665  10.278 -0.3864 -0.5583 -0.2023
  657MOL0     C88583   3.436   0.608  10.227  0.6246 -0.5531  0.7836
  657MOL0     O88584   3.356   0.713  10.175  0.1288 -0.3497  0.7778
  657MOL0     C88585   3.218   0.686  10.144 -0.0822  0.0922 -0.5187
  657MOL0     C88586   3.170   0.555  10.135 -0.3717  0.0070  0.4057
  657MOL0     C88587   3.048   0.524  10.082 -0.1464  0.0983  0.6773
  657MOL0     C88588   3.033   0.383  10.051 -0.7583  0.2368  0.6094
  657MOL0     C88589   2.960   0.628  10.032  0.7408  0.4742 -0.7370
  657MOL0     C88590   2.831   0.614   9.958 -1.1447 -0.2643 -0.1268
  657MOL0     O88591   2.764   0.733   9.925  0.2250 -0.1338 -0.0631
  657MOL0     C88592   2.648   0.709   9.854 -0.7140  0.4344  1.2508
  657MOL0     C88593   2.663   0.681   9.719 -0.0394 -0.6064 -0.0319
  657MOL0     C88594   2.557   0.691   9.628  0.0375  0.3229 -0.7176
  657MOL0     C88595   2.430   0.736   9.684  0.1715  1.3731  0.7749
  657MOL0     O88596   2.319   0.755   9.601 -0.2064 -0.6861  0.4275
  657MOL0     C88597   2.346   0.781   9.461 -0.3157 -1.3268  0.0205
  657MOL0     C88598   2.229   0.846   9.386  0.1317 -0.3755 -0.3997
  657MOL0     C88599   2.097   0.768   9.399 -1.2006  0.0487  0.5412
  657MOL0     C88600   1.975   0.846   9.352 -0.1699  1.2865  0.4609
  657MOL0     C88601   1.840   0.776   9.384  0.6307 -0.9560 -0.0508
  657MOL0     C88602   1.785   0.679   9.283 -0.0655  0.6534 -0.4643
  657MOL0     C88603   1.858   0.552   9.277 -0.6633  0.0928 -0.4260
  657MOL0     C88604   1.785   0.438   9.190  1.0941  0.2520  0.9962
  657MOL0    Cl88605   1.852   0.458   9.020 -0.1729 -0.1833  0.1033
  657MOL0     C88606   2.418   0.756   9.823 -0.1662  0.7402  0.8043
  657MOL0     C88607   2.527   0.745   9.912  1.0894  0.4367  0.2314
  657MOL0     O88608   2.796   0.501   9.917  0.2840  0.1699 -0.0792
  657MOL0     C88609   2.998   0.755  10.070 -0.2062  0.8030 -0.9494
  657MOL0     C88610   3.131   0.791  10.115 -0.3499 -0.0187 -0.1996
  657MOL0     N88611   3.934   0.740   9.985 -0.1083 -0.3694  0.3079
  657MOL0     N88612   3.959   0.820   9.886 -0.1272 -0.5382  0.4556
  657MOL0     C88613   5.035   1.154   9.627 -0.2235 -0.2736 -0.1648
  657MOL0     C88614   5.141   1.228   9.672  0.9349 -1.0492  1.1223
  657MOL0     C88615   5.367   1.566   9.906  0.9102 -0.3777 -0.5380
  657MOL0     C88616   5.412   1.607  10.040 -0.1822 -0.2934  0.8840
  657MOL0     C88617   5.527   1.683  10.055 -0.1399  0.0977  0.3658
  657MOL0     C88618   5.602   1.721   9.943  0.2441 -0.1914  0.4990
  657MOL0     O88619   5.717   1.796   9.949 -0.3405  0.0362 -0.5492
  657MOL0     C88620   5.760   1.846  10.075  0.0891 -0.1004 -0.2722
  657MOL0     C88621   5.883   1.941  10.075  0.6062 -0.9095 -0.5472
  657MOL0     C88622   6.006   1.877  10.019 -0.7053 -0.0444  0.4004
  657MOL0     C88623   6.045   1.748  10.086  0.0067 -0.6742 -0.7641
  657MOL0     C88624   6.179   1.704  10.049  0.2302  0.1388  0.1097
  657MOL0     C88625   6.290   1.661  10.025  0.3581  0.1371 -0.0477
  657MOL0     C88626   5.560   1.690   9.811  0.1834  0.2559  0.1438
  657MOL0     C88627   5.438   1.617   9.801 -0.1929  0.0210  0.1413
  657MOL0     H88628   4.993   1.509   9.778  1.1436  0.7059 -0.3835
  657MOL0     H88629   4.803   1.389   9.723 -0.2021  0.5123 -1.0211
  657MOL0     H88630   4.662   1.284   9.541 -1.1164  0.0982 -0.7391
  657MOL0     H88631   4.600   1.132   9.532  0.1941 -2.3770  2.3453
  657MOL0     H88632   4.609   1.092   9.782 -1.0057  0.6222  0.7311
  657MOL0     H88633   4.648   1.261   9.798 -0.3542 -0.5305  1.7198
  657MOL0     H88634   4.447   1.319   9.671  2.4108 -1.5613  0.5824
  657MOL0     H88635   4.417   1.150   9.626 -1.7473  0.7413 -1.0437
  657MOL0     H88636   4.386   1.090   9.860  0.7589  0.3289 -2.6774
  657MOL0     H88637   4.409   1.264   9.905  0.9751  1.5548 -2.6201
  657MOL0     H88638   4.214   1.325   9.760 -0.6341 -0.9640 -0.8211
  657MOL0     H88639   4.196   1.169   9.715  1.3427 -0.9234 -0.2812
  657MOL0     H88640   4.148   1.123   9.987 -0.1786 -0.0522  0.1425
  657MOL0     H88641   4.129   1.297   9.993 -4.4597 -0.5034  1.3073
  657MOL0     H88642   3.913   1.225   9.960 -0.1790 -0.9154  0.0819
  657MOL0     H88643   3.973   1.276   9.800 -0.2039 -0.3659 -1.0923
  657MOL0     H88644   4.002   1.027   9.738  0.1140 -0.5177  0.4469
  657MOL0     H88645   3.827   1.078   9.787 -1.6906  0.6668  3.4911
  657MOL0     H88646   3.807   1.018  10.101 -1.2049 -1.2639  1.4371
  657MOL0     H88647   3.852   0.661  10.229 -2.1538 -1.2769 -0.6392
  657MOL0     H88648   3.787   0.821  10.280  0.0613  1.2291 -1.4360
  657MOL0     H88649   3.680   0.613  10.080  2.2963  1.8014 -2.4695
  657MOL0     H88650   3.613   0.778  10.106  2.5917  0.4083 -1.8838
  657MOL0     H88651   3.547   0.758  10.330  1.7776 -0.1615  0.2371
  657MOL0     H88652   3.636   0.603  10.342  0.3042 -1.1268 -1.4102
  657MOL0     H88653   3.389   0.566  10.317 -1.0174  0.1837  0.3009
  657MOL0     H88654   3.456   0.519  10.166  1.0126 -0.3047  0.5454
  657MOL0     H88655   3.247   0.481  10.153 -0.1318  0.5253  1.5905
  657MOL0     H88656   2.927   0.358  10.045 -0.9354  0.5547  2.2246
  657MOL0     H88657   3.090   0.352   9.962 -1.0648 -0.5433  0.6822
  657MOL0     H88658   3.076   0.323  10.131 -0.9587 -1.3127 -0.4040
  657MOL0     H88659   2.765   0.657   9.690  0.0641  1.1260 -1.2431
  657MOL0     H88660   2.586   0.667   9.527  3.1950 -0.0904  0.2005
  657MOL0     H88661   2.438   0.838   9.449 -0.7812 -0.5149  0.2411
  657MOL0     H88662   2.371   0.682   9.420  0.1373 -1.8111  1.4402
  657MOL0     H88663   2.209   0.948   9.418  1.7824  0.0719 -0.7052
  657MOL0     H88664   2.258   0.834   9.281 -1.1633  0.8849 -0.9193
  657MOL0     H88665   2.080   0.738   9.503 -3.0681  3.5454  1.4233
  657MOL0     H88666   2.103   0.667   9.356 -1.8277 -0.1142  0.8224
  657MOL0     H88667   1.978   0.935   9.416  2.3376  0.6886  1.3174
  657MOL0     H88668   1.981   0.875   9.247  0.0916  2.4919  0.8000
  657MOL0     H88669   1.765   0.856   9.378 -0.4515 -1.7751  1.7451
  657MOL0     H88670   1.834   0.743   9.488 -1.1430  0.4689  0.3509
  657MOL0     H88671   1.690   0.641   9.322 -0.5027  0.2931 -1.8315
  657MOL0     H88672   1.763   0.722   9.185 -0.8928  0.9390 -0.1655
  657MOL0     H88673   1.871   0.515   9.380 -1.8253  0.9666  0.0560
  657MOL0     H88674   1.951   0.583   9.227 -1.2380  4.1651  0.6963
  657MOL0     H88675   1.675   0.444   9.197  1.1858  2.0037  1.3974
  657MOL0     H88676   1.810   0.338   9.228 -1.0175 -1.3389 -1.4336
  657MOL0     H88677   2.325   0.789   9.869  1.0299  1.2980  2.9525
  657MOL0     H88678   2.512   0.775  10.015 -2.9802  0.2296 -0.1393
  657MOL0     H88679   2.945   0.841  10.031  1.4903  2.4978  0.3035
  657MOL0     H88680   3.172   0.890  10.134 -2.8028  1.5032 -2.1754
  657MOL0     H88681   5.037   1.062   9.570 -2.6839  0.8167 -2.2012
  657MOL0     H88682   5.240   1.184   9.669  1.3525 -0.1166 -1.1799
  657MOL0     H88683   5.358   1.584  10.131 -2.3290 -1.2838 -0.5404
  657MOL0     H88684   5.539   1.718  10.157 -1.0636  1.5647  0.0029
  657MOL0     H88685   5.684   1.912  10.117 -0.4075  0.2183 -1.6264
  657MOL0     H88686   5.782   1.772  10.152  0.9121  0.0927 -0.3088
  657MOL0     H88687   5.913   1.983  10.172 -1.4121 -0.5849 -0.0231
  657MOL0     H88688   5.854   2.022  10.008 -2.9930  0.9946  2.9046
  657MOL0     H88689   6.090   1.944  10.035  1.6895 -2.8209  0.2580
  657MOL0     H88690   5.994   1.858   9.912 -0.6684 -0.3544  0.4494
  657MOL0     H88691   5.977   1.666  10.062 -1.0967  0.2719 -0.9902
  657MOL0     H88692   6.042   1.764  10.194  1.0384 -1.0598 -0.6673
  657MOL0     H88693   6.381   1.616   9.989  0.2748  1.3946 -1.9701
  657MOL0     H88694   5.628   1.702   9.728  1.1387 -3.3955  0.2415
  657MOL0     H88695   5.410   1.597   9.698 -0.1932  1.9576 -0.2806
  658MOL0     O88696   2.415   4.219   4.682  0.0971 -0.1685 -0.7475
  658MOL0     C88697   2.488   4.163   4.767  0.4397 -0.1473  0.0536
  658MOL0     O88698   2.472   4.165   4.902  0.4907 -0.4064  0.2538
  658MOL0     C88699   2.353   4.218   4.963  0.4295 -0.4241  0.5684
  658MOL0     C88700   2.235   4.257   4.893 -0.1201  0.1267 -0.7380
  658MOL0     C88701   2.124   4.301   4.970 -0.3597  0.5204  0.1907
  658MOL0     C88702   2.132   4.299   5.111  0.5941 -0.6613 -0.0691
  658MOL0     O88703   2.027   4.327   5.188  0.0909 -0.2716 -0.4455
  658MOL0     C88704   1.888   4.343   5.151 -0.4113  0.4695  1.1569
  658MOL0     C88705   1.828   4.313   5.292 -0.7349  0.0772  0.1423
  658MOL0     C88706   1.679   4.328   5.294  0.9870 -0.2449 -0.3299
  658MOL0     C88707   1.621   4.471   5.285  0.1748 -0.7602 -0.2648
  658MOL0     C88708   1.462   4.477   5.264 -0.0547 -1.0374 -0.1153
  658MOL0     C88709   1.384   4.455   5.401 -0.3312 -0.2356 -0.1969
  658MOL0     C88710   1.380   4.574   5.501  0.4101  0.2659  0.6745
  658MOL0     C88711   1.295   4.689   5.440 -0.4292 -0.3411 -0.3365
  658MOL0     N88712   1.274   4.801   5.535  0.2890 -0.3677  0.0736
  658MOL0     C88713   1.154   4.833   5.594  0.3421 -0.3610  0.6230
  658MOL0     C88714   1.169   4.942   5.669  0.1384  0.3966  0.5090
  658MOL0     C88715   1.057   5.001   5.754 -0.7444 -0.4381  1.1210
  658MOL0     C88716   1.013   5.141   5.694 -1.1553  0.7625  0.0642
  658MOL0     C88717   0.906   5.217   5.781  0.6494  0.0148 -0.4011
  658MOL0     C88718   0.765   5.158   5.768 -0.2278 -0.5823  0.3304
  658MOL0     O88719   0.686   5.232   5.862  1.2731 -0.3086  0.1415
  658MOL0     C88720   0.551   5.243   5.844 -0.4059  0.5453 -0.5791
  658MOL0     C88721   0.485   5.362   5.885 -0.7347 -0.3575 -0.0622
  658MOL0     C88722   0.345   5.362   5.891  0.3029 -0.8392 -0.3574
  658MOL0     C88723   0.302   5.489   5.941 -0.5257  0.1429  0.0997
  658MOL0     C88724   0.265   5.241   5.859  0.2717 -0.0794  0.1868
  658MOL0     C88725   0.120   5.236   5.883 -0.2126  0.0167  0.6958
  658MOL0     O88726   0.059   5.352   5.924  0.5053  0.0943 -0.1652
  658MOL0     C88727  -0.080   5.354   5.921  0.7488 -0.3628  0.1238
  658MOL0     C88728  -0.135   5.348   5.795  0.0381  0.4308 -0.2465
  658MOL0     C88729  -0.276   5.358   5.785 -0.1573  0.2682  0.6708
  658MOL0     C88730  -0.357   5.365   5.894  0.2355  0.1822 -0.7089
  658MOL0     O88731  -0.482   5.390   5.866  0.2105 -0.3186 -0.7495
  658MOL0     C88732  -0.571   5.447   5.964 -0.9485 -0.8503  0.1404
  658MOL0     C88733  -0.600   5.591   5.918 -0.1440  0.9152  0.7143
  658MOL0     C88734  -0.710   5.661   5.976  0.8694  0.2248 -0.4620
  658MOL0     C88735  -0.852   5.589   5.966 -0.0736 -0.4735  0.0600
  658MOL0     C88736  -0.966   5.693   5.984 -0.2018  0.2476 -0.4110
  658MOL0     C88737  -1.097   5.631   6.041 -0.2909 -0.4991 -0.4745
  658MOL0     C88738  -1.071   5.585   6.182 -0.1958 -0.1382  0.0025
  658MOL0     C88739  -1.194   5.601   6.275  0.1082 -0.4633 -0.4523
  658MOL0    Cl88740  -1.338   5.517   6.216 -0.1318  0.0904 -0.4648
  658MOL0     C88741  -0.297   5.366   6.024 -0.2392 -0.9627 -0.5949
  658MOL0     C88742  -0.160   5.361   6.034 -0.0953  0.5078 -0.3484
  658MOL0     O88743   0.063   5.133   5.860 -0.5427 -0.2788  0.2155
  658MOL0     C88744   0.334   5.133   5.804  0.1316  0.4398 -0.1927
  658MOL0     C88745   0.475   5.132   5.801  0.1012  0.3742 -0.4074
  658MOL0     N88746   1.299   4.985   5.642  0.2988 -0.1497  0.5091
  658MOL0     N88747   1.362   4.905   5.564 -0.0213  0.9392  0.2571
  658MOL0     C88748   2.238   4.260   5.181 -0.2780  0.1072  0.3773
  658MOL0     C88749   2.358   4.227   5.112  0.1509  0.5713 -0.3243
  658MOL0     C88750   2.620   4.108   4.726  0.5386  0.0006 -0.2532
  658MOL0     C88751   2.646   4.096   4.588 -0.4415 -0.2992  0.4888
  658MOL0     C88752   2.760   4.027   4.550 -0.3237 -0.2483  0.3194
  658MOL0     C88753   2.859   3.996   4.640  0.9971 -0.0452 -0.7165
  658MOL0     O88754   2.982   3.971   4.592  0.6081  0.1348  0.2781
  658MOL0     C88755   3.038   4.071   4.504 -0.1620  0.1421  0.0991
  658MOL0     C88756   3.178   4.090   4.568 -0.1385 -0.2268 -0.5471
  658MOL0     C88757   3.265   3.964   4.565 -0.5230  0.5779  0.6319
  658MOL0     C88758   3.400   4.001   4.615 -0.3099  0.5039  0.6651
  658MOL0     C88759   3.471   3.885   4.646 -0.6697  0.5918 -0.6370
  658MOL0     C88760   3.544   3.790   4.681 -0.0747 -0.0771  0.6163
  658MOL0     C88761   2.836   4.013   4.776  0.9998  0.4759 -1.2414
  658MOL0     C88762   2.710   4.072   4.824  0.4071 -0.1187  1.4046
  658MOL0     H88763   2.214   4.253   4.786 -4.1246 -4.1488 -0.1271
  658MOL0     H88764   2.028   4.316   4.920 -1.1264 -2.7468  0.4102
  658MOL0     H88765   1.876   4.443   5.108  1.2161  0.2978  0.1941
  658MOL0     H88766   1.857   4.267   5.079 -1.4772  1.4679  0.5381
  658MOL0     H88767   1.855   4.210   5.317 -1.7285 -0.4525 -0.8803
  658MOL0     H88768   1.876   4.374   5.369  0.6302 -2.7045  1.6330
  658MOL0     H88769   1.641   4.284   5.202 -0.7359  0.1873  0.1319
  658MOL0     H88770   1.625   4.281   5.378 -0.1801  0.0125 -0.9124
  658MOL0     H88771   1.642   4.529   5.376  2.7091  1.8370 -2.3228
  658MOL0     H88772   1.663   4.535   5.207 -1.8789  3.9717  2.1284
  658MOL0     H88773   1.451   4.580   5.228  0.7391 -0.6542  0.6884
  658MOL0     H88774   1.434   4.408   5.184 -0.7429 -0.0850 -0.7077
  658MOL0     H88775   1.279   4.426   5.395 -1.0483  0.1577  5.4001
  658MOL0     H88776   1.438   4.376   5.453 -0.6194 -0.0868  0.3280
  658MOL0     H88777   1.336   4.542   5.596 -0.2791  3.4223  1.5245
  658MOL0     H88778   1.482   4.613   5.511  0.1119  1.8807 -1.6398
  658MOL0     H88779   1.197   4.653   5.407 -1.2166 -0.0158  1.4723
  658MOL0     H88780   1.349   4.740   5.360 -0.5651  0.6432  0.1767
  658MOL0     H88781   1.059   4.779   5.588 -1.4020  2.4438  1.2399
  658MOL0     H88782   0.967   4.939   5.747 -2.9572  2.6249  0.1942
  658MOL0     H88783   1.089   5.030   5.854 -1.7601  1.2527  0.9848
  658MOL0     H88784   0.975   5.140   5.591 -1.3407 -0.9166  0.1264
  658MOL0     H88785   1.100   5.207   5.693  0.0647 -0.7765  0.6720
  658MOL0     H88786   0.909   5.321   5.747 -0.8523 -0.1565 -1.1504
  658MOL0     H88787   0.937   5.206   5.885  0.8110  0.7481 -0.3664
  658MOL0     H88788   0.765   5.051   5.794  1.3834 -0.8997 -0.8202
  658MOL0     H88789   0.748   5.179   5.662  2.0760 -0.2601 -0.0369
  658MOL0     H88790   0.544   5.444   5.924  0.0816 -1.0825  0.2794
  658MOL0     H88791   0.265   5.485   6.044 -3.0247  0.4155 -0.7367
  658MOL0     H88792   0.380   5.566   5.938 -1.1917  0.8039 -0.5305
  658MOL0     H88793   0.232   5.532   5.869  2.6898 -0.7423 -3.9026
  658MOL0     H88794  -0.073   5.331   5.708  0.5117  2.8358 -0.4416
  658MOL0     H88795  -0.323   5.361   5.687 -0.6513  0.1455  0.9004
  658MOL0     H88796  -0.656   5.381   5.947 -1.6153 -0.7993  2.8232
  658MOL0     H88797  -0.540   5.429   6.067 -0.4400 -0.8563 -0.0101
  658MOL0     H88798  -0.511   5.652   5.938  1.5030 -1.2525  0.3411
  658MOL0     H88799  -0.612   5.594   5.809 -1.7543 -0.3747  0.8353
  658MOL0     H88800  -0.724   5.760   5.931 -3.7221 -0.6182 -1.3570
  658MOL0     H88801  -0.695   5.669   6.084  0.7920 -1.2235 -0.3277
  658MOL0     H88802  -0.865   5.556   5.863  0.9901  0.1352 -0.2815
  658MOL0     H88803  -0.854   5.499   6.029 -1.0601  0.3987  1.3278
  658MOL0     H88804  -0.990   5.745   5.891 -0.6570  1.4921  0.3752
  658MOL0     H88805  -0.934   5.773   6.051 -1.0965  1.3120 -1.2257
  658MOL0     H88806  -1.169   5.713   6.043  2.4539  2.0616  0.9079
  658MOL0     H88807  -1.133   5.549   5.978  1.5615 -0.8946 -1.0765
  658MOL0     H88808  -0.992   5.643   6.230 -0.6044 -1.6061  2.6300
  658MOL0     H88809  -1.041   5.480   6.181  1.3793  0.2575 -2.0801
  658MOL0     H88810  -1.217   5.708   6.276  1.4865 -0.1409 -0.6276
  658MOL0     H88811  -1.176   5.571   6.379  0.5264 -0.0596 -0.4067
  658MOL0     H88812  -0.354   5.367   6.116 -0.9412  0.1478 -1.0205
  658MOL0     H88813  -0.105   5.368   6.128  0.8273  2.6100 -0.9778
  658MOL0     H88814   0.281   5.043   5.773 -0.2558  0.2186  1.0565
  658MOL0     H88815   0.518   5.043   5.757  0.7658 -0.0432  1.0268
  658MOL0     H88816   2.239   4.257   5.289 -1.3662 -2.0336  0.3805
  658MOL0     H88817   2.440   4.184   5.169 -0.7899  1.4657  1.8274
  658MOL0     H88818   2.573   4.128   4.515  0.5798 -0.9874 -0.8850
  658MOL0     H88819   2.791   4.012   4.447 -1.8846 -0.5711 -0.1266
  658MOL0     H88820   3.053   4.040   4.401  0.6605 -0.1512  0.3025
  658MOL0     H88821   2.979   4.162   4.490 -2.2481 -1.0873  0.5266
  658MOL0     H88822   3.172   4.118   4.674 -0.0851 -4.4691  0.7738
  658MOL0     H88823   3.231   4.172   4.520  0.3109 -0.2928 -0.1714
  658MOL0     H88824   3.272   3.928   4.462  0.4109  3.4016 -0.3654
  658MOL0     H88825   3.218   3.884   4.624  0.5179 -0.8395 -0.3821
  658MOL0     H88826   3.386   4.063   4.704 -1.4230 -0.2913  1.0763
  658MOL0     H88827   3.449   4.048   4.530 -2.1432  0.3705 -0.5111
  658MOL0     H88828   3.618   3.713   4.694  0.6587  0.7130  1.3281
  658MOL0     H88829   2.904   3.978   4.853 -0.2778 -3.4612 -1.7027
  658MOL0     H88830   2.702   4.097   4.929  0.6362 -1.1819  1.6897
  659MOL0     O88831  10.981   8.407   0.734 -0.2209 -0.0309 -0.4316
  659MOL0     C88832  11.055   8.454   0.644  0.3670 -0.5526 -0.6493
  659MOL0     O88833  11.014   8.523   0.535  0.7038 -0.8527  0.1988
  659MOL0     C88834  10.879   8.499   0.507 -0.4488 -0.2492  0.2093
  659MOL0     C88835  10.831   8.370   0.497  0.5425  1.0199 -0.1041
  659MOL0     C88836  10.695   8.331   0.472  0.8167  0.7000 -0.1961
  659MOL0     C88837  10.599   8.439   0.467 -0.5885  0.1137  0.0759
  659MOL0     O88838  10.465   8.437   0.449  0.4860  0.3724  0.1544
  659MOL0     C88839  10.409   8.305   0.417 -0.2794 -0.0039  0.0469
  659MOL0     C88840  10.268   8.311   0.354 -0.0236  0.3999  0.4322
  659MOL0     C88841  10.202   8.172   0.345 -0.3880 -0.5492  0.4965
  659MOL0     C88842  10.061   8.169   0.283  0.4407 -0.2429 -0.3580
  659MOL0     C88843  10.022   8.022   0.269 -0.9344 -0.0292  0.4499
  659MOL0     C88844   9.880   7.993   0.212  0.3988  0.7527  0.2173
  659MOL0     C88845   9.858   7.838   0.194  0.2899 -0.0415  0.0481
  659MOL0     C88846   9.716   7.787   0.162  0.2439  0.6796  0.5930
  659MOL0     N88847   9.634   7.880   0.080 -0.6444 -0.3180 -0.0239
  659MOL0     C88848   9.672   7.964  -0.021 -0.6868  0.1143  0.5083
  659MOL0     C88849   9.565   8.040  -0.059  0.0748 -0.9366  0.4067
  659MOL0     C88850   9.558   8.135  -0.172  0.1677  0.0745  0.7308
  659MOL0     C88851   9.425   8.138  -0.248  0.4681  0.1728 -0.0270
  659MOL0     C88852   9.428   8.264  -0.334 -0.1352 -0.1697  0.6449
  659MOL0     C88853   9.308   8.292  -0.422  0.3452 -0.1844  0.4015
  659MOL0     O88854   9.202   8.333  -0.336 -0.1890 -0.6894  0.7382
  659MOL0     C88855   9.086   8.345  -0.402  0.3192 -0.3972 -0.4314
  659MOL0     C88856   9.053   8.344  -0.537  0.4238 -0.1822  0.4188
  659MOL0     C88857   8.922   8.364  -0.590  0.3544 -0.1089 -0.2689
  659MOL0     C88858   8.915   8.375  -0.734  0.5321 -1.0135  0.0211
  659MOL0     C88859   8.814   8.373  -0.503 -0.4414 -0.2398 -0.5185
  659MOL0     C88860   8.673   8.381  -0.551  0.0691 -0.1763 -0.1485
  659MOL0     O88861   8.643   8.327  -0.671 -0.1269  0.5754 -0.5673
  659MOL0     C88862   8.517   8.334  -0.718  0.6389 -1.0322  0.8634
  659MOL0     C88863   8.403   8.294  -0.642  0.3256 -0.5004 -0.7418
  659MOL0     C88864   8.272   8.317  -0.686  0.2255  0.1727  0.1396
  659MOL0     C88865   8.250   8.375  -0.806  0.5621  0.3070 -0.8765
  659MOL0     O88866   8.125   8.405  -0.854  0.2760  0.2710  0.5926
  659MOL0     C88867   8.011   8.356  -0.780 -0.5843  0.2735 -0.2840
  659MOL0     C88868   7.882   8.416  -0.837 -0.1220  0.5472 -0.0825
  659MOL0     C88869   7.893   8.576  -0.849  0.5740  0.3189  0.4610
  659MOL0     C88870   7.781   8.609  -0.950 -0.0781  0.6327 -0.1370
  659MOL0     C88871   7.776   8.757  -0.984  0.2447 -0.0623  0.1340
  659MOL0     C88872   7.715   8.856  -0.881  0.3037  1.3683 -0.0889
  659MOL0     C88873   7.780   8.989  -0.901  0.2067 -0.3065 -0.0003
  659MOL0     C88874   7.708   9.068  -1.010 -0.4488 -0.5373 -0.1194
  659MOL0    Cl88875   7.707   8.991  -1.163 -0.2972 -0.4855  0.7343
  659MOL0     C88876   8.357   8.395  -0.893 -0.4914 -0.6120  0.3063
  659MOL0     C88877   8.486   8.380  -0.852  0.5996 -0.3327 -0.2260
  659MOL0     O88878   8.588   8.433  -0.471 -0.3379 -0.3519 -0.7192
  659MOL0     C88879   8.847   8.370  -0.369  0.4443 -0.0197  0.5630
  659MOL0     C88880   8.980   8.355  -0.321 -0.9186 -0.5744 -0.1427
  659MOL0     N88881   9.466   8.009   0.028  0.6167  0.4285  0.2225
  659MOL0     N88882   9.510   7.922   0.115  0.5118 -0.6500  0.8969
  659MOL0     C88883  10.648   8.571   0.475 -0.5866 -0.2943 -0.0890
  659MOL0     C88884  10.781   8.602   0.491 -0.6673  0.2208 -0.0323
  659MOL0     C88885  11.202   8.449   0.670 -0.2899  0.7199 -0.0826
  659MOL0     C88886  11.249   8.380   0.783  0.3050  0.1505 -0.0866
  659MOL0     C88887  11.381   8.355   0.797  0.8684 -0.5275  0.6818
  659MOL0     C88888  11.477   8.409   0.707  0.3235  0.1071  0.0192
  659MOL0     O88889  11.609   8.372   0.716  0.1267  0.2915 -0.6162
  659MOL0     C88890  11.657   8.345   0.849  0.3188 -1.1535  0.3809
  659MOL0     C88891  11.799   8.391   0.857  0.3536 -0.1013  0.7454
  659MOL0     C88892  11.853   8.352   0.998 -0.3985 -0.5871  0.1858
  659MOL0     C88893  11.807   8.450   1.107 -0.5206 -0.0839  0.5118
  659MOL0     C88894  11.856   8.413   1.241  0.1433 -0.8831  0.1219
  659MOL0     C88895  11.913   8.387   1.344  0.1829 -0.0941 -0.6158
  659MOL0     C88896  11.430   8.477   0.597  0.7419 -0.1762  0.6404
  659MOL0     C88897  11.289   8.489   0.575 -0.0998 -0.2227  0.2184
  659MOL0     H88898  10.897   8.287   0.516 -1.5243 -0.6899 -0.0379
  659MOL0     H88899  10.663   8.228   0.472  1.9445  0.0426  5.4803
  659MOL0     H88900  10.477   8.263   0.343 -0.4315  1.3445 -0.9025
  659MOL0     H88901  10.404   8.255   0.514 -0.1556  2.2101  1.2604
  659MOL0     H88902  10.204   8.378   0.413  1.6832  1.2756  1.3874
  659MOL0     H88903  10.268   8.349   0.251 -2.2090  0.1352  0.2921
  659MOL0     H88904  10.271   8.115   0.282  1.2004  0.7440  1.0156
  659MOL0     H88905  10.194   8.126   0.444 -0.0182 -0.0480  0.7625
  659MOL0     H88906   9.995   8.212   0.358 -0.8138 -1.7135 -0.5620
  659MOL0     H88907  10.059   8.231   0.193 -1.6024 -0.0582 -0.2391
  659MOL0     H88908  10.093   7.988   0.193 -1.4494  2.8744 -1.4732
  659MOL0     H88909  10.037   7.977   0.368  0.5137  1.8469  1.1459
  659MOL0     H88910   9.809   8.047   0.274 -0.0057  1.0969 -0.5267
  659MOL0     H88911   9.871   8.036   0.111  0.8301 -1.2172 -0.7166
  659MOL0     H88912   9.920   7.796   0.114  0.8609  1.5540 -0.3653
  659MOL0     H88913   9.888   7.783   0.284  0.1909 -0.5692 -0.2334
  659MOL0     H88914   9.652   7.774   0.250 -3.0157  1.5608 -1.4336
  659MOL0     H88915   9.719   7.694   0.105  1.6871  1.7361 -1.1562
  659MOL0     H88916   9.760   7.965  -0.083 -1.1907  0.8672 -0.2126
  659MOL0     H88917   9.558   8.235  -0.127 -3.2445  0.4267  0.2077
  659MOL0     H88918   9.636   8.112  -0.245  1.3294  3.8859  0.5447
  659MOL0     H88919   9.337   8.148  -0.184  0.7300  1.5176  0.1728
  659MOL0     H88920   9.421   8.053  -0.316  0.2908  2.0225 -2.4525
  659MOL0     H88921   9.517   8.262  -0.397 -0.8640 -2.0964 -0.4250
  659MOL0     H88922   9.433   8.350  -0.266 -0.2778  0.2678  0.1113
  659MOL0     H88923   9.273   8.205  -0.479  0.6439  0.3553 -0.6378
  659MOL0     H88924   9.338   8.377  -0.484  0.0502  0.0281  0.5477
  659MOL0     H88925   9.128   8.327  -0.614 -1.4750 -1.8317 -1.1765
  659MOL0     H88926   9.012   8.368  -0.785  0.3134  1.9827 -1.0021
  659MOL0     H88927   8.856   8.290  -0.770 -0.7211  0.1813 -0.8210
  659MOL0     H88928   8.854   8.462  -0.760 -0.5603 -1.1151  2.0791
  659MOL0     H88929   8.407   8.263  -0.538 -0.3346  1.9939  0.0785
  659MOL0     H88930   8.186   8.297  -0.623  1.0584  2.2469  2.0980
  659MOL0     H88931   8.007   8.247  -0.783  0.3570  0.1951  0.7140
  659MOL0     H88932   8.022   8.379  -0.673  1.2923 -1.1597 -0.1144
  659MOL0     H88933   7.862   8.362  -0.931 -0.0386  0.6966 -0.1862
  659MOL0     H88934   7.795   8.401  -0.772  0.0984 -1.8944 -0.2368
  659MOL0     H88935   7.989   8.602  -0.893  0.8279 -0.9368  0.2597
  659MOL0     H88936   7.877   8.623  -0.752  0.5747 -0.3676  0.7945
  659MOL0     H88937   7.792   8.555  -1.045 -2.8074 -1.0803  0.3948
  659MOL0     H88938   7.682   8.583  -0.913  0.5206 -0.1827  0.9570
  659MOL0     H88939   7.704   8.750  -1.066  0.2038 -2.3314  0.2884
  659MOL0     H88940   7.865   8.796  -1.034 -1.2433  3.1458 -0.2549
  659MOL0     H88941   7.605   8.859  -0.886  0.2355 -0.4685 -0.1082
  659MOL0     H88942   7.726   8.823  -0.777 -1.1573  2.1401  0.3520
  659MOL0     H88943   7.884   8.975  -0.933  0.6982 -0.4801  1.5881
  659MOL0     H88944   7.779   9.039  -0.804 -0.6253  1.3965 -0.8547
  659MOL0     H88945   7.754   9.167  -1.016  1.6591 -1.5209 -0.9035
  659MOL0     H88946   7.602   9.074  -0.984 -0.5756 -2.3886 -0.0914
  659MOL0     H88947   8.341   8.434  -0.993  3.4658  1.2849  0.1885
  659MOL0     H88948   8.560   8.400  -0.928 -1.7849  0.6719 -2.4283
  659MOL0     H88949   8.769   8.387  -0.295 -0.6500 -2.0719 -0.0544
  659MOL0     H88950   8.992   8.366  -0.213 -1.0344 -0.9587 -0.0891
  659MOL0     H88951  10.574   8.650   0.477 -1.1536 -0.8182 -0.1715
  659MOL0     H88952  10.819   8.703   0.503 -0.2154 -0.1136  1.5970
  659MOL0     H88953  11.177   8.368   0.863 -1.9457  1.7945 -1.7361
  659MOL0     H88954  11.417   8.290   0.876 -1.3212 -2.0556  0.4850
  659MOL0     H88955  11.608   8.408   0.924  4.4597  3.5728 -0.3591
  659MOL0     H88956  11.648   8.241   0.880  0.2134 -0.9984  0.8727
  659MOL0     H88957  11.808   8.497   0.835 -1.8710 -0.1864 -0.8939
  659MOL0     H88958  11.840   8.333   0.774 -0.4977 -1.0072  0.9293
  659MOL0     H88959  11.958   8.326   1.004 -0.5559 -1.2574  0.0504
  659MOL0     H88960  11.813   8.256   1.030 -0.0493 -2.2305 -3.8302
  659MOL0     H88961  11.698   8.450   1.114 -0.5267  1.3712  0.8760
  659MOL0     H88962  11.851   8.546   1.077  1.1385 -1.1766 -0.7224
  659MOL0     H88963  11.966   8.353   1.431  0.1595  0.4469 -0.3880
  659MOL0     H88964  11.496   8.513   0.518 -0.4287 -2.3767 -1.4806
  659MOL0     H88965  11.251   8.544   0.489  1.4403  1.3118  0.4632
  660MOL0     O88966  10.626   4.035   1.451  0.0062 -0.6505 -0.7926
  660MOL0     C88967  10.602   3.962   1.547 -0.1736 -0.2385 -0.5346
  660MOL0     O88968  10.704   3.900   1.622 -0.2650 -1.0783 -0.3714
  660MOL0     C88969  10.833   3.914   1.586 -0.0148 -0.3482 -0.2388
  660MOL0     C88970  10.911   3.799   1.595 -0.1628 -0.5272  0.4002
  660MOL0     C88971  11.053   3.807   1.569  0.3544  0.8672 -1.0793
  660MOL0     C88972  11.112   3.925   1.534  0.1033 -0.2826 -0.3342
  660MOL0     O88973  11.247   3.926   1.511 -0.0078 -0.0141 -0.1015
  660MOL0     C88974  11.309   4.058   1.486 -1.0870 -0.0428  0.5711
  660MOL0     C88975  11.454   4.037   1.457  1.1487 -0.3448 -2.0597
  660MOL0     C88976  11.534   4.165   1.465  0.2184  0.0254  0.7066
  660MOL0     C88977  11.683   4.146   1.438 -0.3517 -0.1677  0.5518
  660MOL0     C88978  11.764   4.268   1.389  0.1464  0.3485  0.0968
  660MOL0     C88979  11.798   4.372   1.504  0.5588 -0.7714 -0.2868
  660MOL0     C88980  11.862   4.506   1.450  0.5151 -0.0309  0.6856
  660MOL0     C88981  12.001   4.489   1.384 -0.5560  0.7555 -0.1663
  660MOL0     N88982  12.024   4.610   1.312 -0.8001 -0.9233  0.7856
  660MOL0     C88983  12.088   4.725   1.353 -0.0813 -0.3069  0.2718
  660MOL0     C88984  12.093   4.811   1.255 -0.0144  0.5884  0.9008
  660MOL0     C88985  12.150   4.947   1.257  0.2115 -1.2504 -0.8462
  660MOL0     C88986  12.056   5.071   1.215  0.0014 -0.3765  0.5281
  660MOL0     C88987  12.024   5.067   1.061  0.7349  0.5878 -0.5937
  660MOL0     C88988  11.914   5.166   1.040 -0.1257  0.3102  0.0972
  660MOL0     O88989  11.861   5.158   0.906  0.1514 -0.1050 -0.0422
  660MOL0     C88990  11.726   5.157   0.877 -0.0047  0.0574  0.2329
  660MOL0     C88991  11.693   5.104   0.746  0.0673  0.9958 -0.2299
  660MOL0     C88992  11.559   5.084   0.715  0.7465  0.4881  0.0341
  660MOL0     C88993  11.536   5.006   0.589  0.7331 -0.0714 -0.2199
  660MOL0     C88994  11.457   5.118   0.815 -0.2095  0.2930 -0.6103
  660MOL0     C88995  11.310   5.100   0.788 -0.2467  0.7126 -0.1956
  660MOL0     O88996  11.271   5.088   0.657  0.6555 -0.0206 -0.6486
  660MOL0     C88997  11.139   5.086   0.632  0.4373 -0.2755 -0.1080
  660MOL0     C88998  11.054   4.984   0.672 -0.9107  0.5234 -0.5816
  660MOL0     C88999  10.923   4.980   0.623 -0.2934 -0.1333  0.6430
  660MOL0     C89000  10.879   5.078   0.528 -0.0902 -0.3101 -0.8030
  660MOL0     O89001  10.750   5.062   0.497 -0.7473  0.0066 -0.3201
  660MOL0     C89002  10.679   5.177   0.473 -0.2344 -0.3924  0.0986
  660MOL0     C89003  10.527   5.160   0.476  0.4265  0.3087  0.2513
  660MOL0     C89004  10.447   5.294   0.446  0.2134  0.4652 -0.3462
  660MOL0     C89005  10.295   5.275   0.484 -0.5509  1.0994  0.8177
  660MOL0     C89006  10.227   5.403   0.465 -0.2753  1.0305  0.4231
  660MOL0     C89007  10.078   5.380   0.450 -0.6088  0.6427  0.3275
  660MOL0     C89008  10.005   5.514   0.412 -0.9962  0.0746  0.6585
  660MOL0     C89009   9.852   5.511   0.433  0.4276 -0.5900  0.7702
  660MOL0    Cl89010   9.779   5.374   0.356 -0.0708 -0.1937  0.0234
  660MOL0     C89011  10.973   5.174   0.475 -0.0348  0.3297  0.0153
  660MOL0     C89012  11.102   5.167   0.525 -0.4489 -0.7672  0.0119
  660MOL0     O89013  11.239   5.084   0.891 -0.3478  0.2430  0.1062
  660MOL0     C89014  11.485   5.184   0.935 -0.5113  0.7315 -0.2028
  660MOL0     C89015  11.617   5.195   0.966 -0.6161  1.0337  0.6400
  660MOL0     N89016  12.036   4.748   1.147  0.6232 -0.1712  0.5427
  660MOL0     N89017  12.000   4.628   1.176  0.2991  1.0039  0.4659
  660MOL0     C89018  11.035   4.042   1.524 -0.1180  0.3102 -0.3865
  660MOL0     C89019  10.899   4.035   1.554 -0.5535 -0.5329 -0.3435
  660MOL0     C89020  10.457   3.959   1.588 -0.5245  0.1826 -0.6381
  660MOL0     C89021  10.414   3.885   1.698  0.5740 -0.1538 -0.5566
  660MOL0     C89022  10.281   3.887   1.739  0.3185 -0.7611 -0.0239
  660MOL0     C89023  10.186   3.956   1.675  0.6301  0.0644  0.1308
  660MOL0     O89024  10.056   3.963   1.715  0.1096  0.6423  0.0136
  660MOL0     C89025   9.950   3.985   1.622 -1.0087  0.0979  0.7447
  660MOL0     C89026   9.820   3.930   1.686 -0.5564 -0.3652 -0.8819
  660MOL0     C89027   9.701   3.981   1.604 -0.9747  0.0670 -0.1094
  660MOL0     C89028   9.572   3.938   1.667  1.0604  0.1462  0.9105
  660MOL0     C89029   9.451   3.978   1.591  0.5915 -0.1390 -0.4890
  660MOL0     C89030   9.360   4.022   1.514 -0.2980  0.4009 -0.4195
  660MOL0     C89031  10.220   4.033   1.565 -0.3107 -1.4101  0.7060
  660MOL0     C89032  10.354   4.037   1.518  0.0744 -0.3619  0.3727
  660MOL0     H89033  10.855   3.707   1.607 -2.3362  0.7273  0.4124
  660MOL0     H89034  11.120   3.723   1.587 -0.0339  0.4385 -1.6119
  660MOL0     H89035  11.267   4.114   1.402  1.6089  5.8071  2.5659
  660MOL0     H89036  11.309   4.125   1.572  2.3936  0.4179  0.3758
  660MOL0     H89037  11.497   3.959   1.521 -0.8519  0.0119 -0.1734
  660MOL0     H89038  11.453   4.005   1.352 -1.7490 -0.1811 -2.1617
  660MOL0     H89039  11.497   4.229   1.385  0.9562 -1.7295 -1.1306
  660MOL0     H89040  11.524   4.211   1.564  3.0583 -1.2739  1.7200
  660MOL0     H89041  11.734   4.112   1.528  0.0068  0.7935  0.7218
  660MOL0     H89042  11.688   4.073   1.357 -0.6109  0.6481 -0.2215
  660MOL0     H89043  11.860   4.225   1.356 -0.4590 -1.5525  0.6735
  660MOL0     H89044  11.704   4.325   1.318 -2.6283 -1.1855  1.0798
  660MOL0     H89045  11.712   4.406   1.563  0.5734  1.0966 -1.2693
  660MOL0     H89046  11.858   4.309   1.571  0.1340 -1.2012 -0.3053
  660MOL0     H89047  11.795   4.555   1.379 -0.0559 -2.0883 -0.2535
  660MOL0     H89048  11.877   4.569   1.538 -1.5344 -1.2154  1.9595
  660MOL0     H89049  12.010   4.405   1.314 -0.4377 -0.6072  1.4262
  660MOL0     H89050  12.079   4.469   1.458  0.2410 -1.0314 -1.4314
  660MOL0     H89051  12.125   4.723   1.455  1.5883 -0.1301 -0.2987
  660MOL0     H89052  12.176   4.968   1.361 -4.1587 -2.2468  0.6265
  660MOL0     H89053  12.231   4.944   1.182 -0.2669 -0.1110 -1.4399
  660MOL0     H89054  12.106   5.168   1.227  0.8620 -0.3181 -2.7209
  660MOL0     H89055  11.966   5.064   1.277 -0.3367  2.2764  0.4453
  660MOL0     H89056  11.995   4.964   1.039  2.0704  0.4402 -1.7693
  660MOL0     H89057  12.109   5.082   0.994  1.5015 -0.7535  0.0380
  660MOL0     H89058  11.949   5.265   1.072  1.3225  0.1534 -0.8852
  660MOL0     H89059  11.830   5.135   1.103 -0.2228 -1.9678 -1.0703
  660MOL0     H89060  11.781   5.070   0.692  0.2927 -0.0286  0.7359
  660MOL0     H89061  11.464   4.931   0.623 -1.1491  1.9613  0.5173
  660MOL0     H89062  11.482   5.061   0.512 -0.8758 -0.9716  0.2168
  660MOL0     H89063  11.631   4.970   0.547  1.4309  1.0467  0.3489
  660MOL0     H89064  11.094   4.924   0.754 -3.1041  1.8885  1.6302
  660MOL0     H89065  10.847   4.913   0.661 -3.1371  1.5289 -1.6717
  660MOL0     H89066  10.710   5.257   0.541  1.3955 -0.0580 -0.9884
  660MOL0     H89067  10.699   5.216   0.373  2.6332 -2.2545 -0.1581
  660MOL0     H89068  10.499   5.092   0.396 -1.2031  1.2935 -0.0555
  660MOL0     H89069  10.501   5.112   0.570 -0.5602  1.1825  0.4417
  660MOL0     H89070  10.469   5.336   0.347  0.6189  1.1856  0.0412
  660MOL0     H89071  10.495   5.360   0.519 -0.5023 -0.5427  1.0710
  660MOL0     H89072  10.268   5.196   0.413  1.8992 -0.5944  1.5967
  660MOL0     H89073  10.287   5.238   0.587  1.1653  0.3674  0.7394
  660MOL0     H89074  10.261   5.442   0.368 -0.9868 -2.2875 -1.3396
  660MOL0     H89075  10.249   5.471   0.548  0.4841 -0.4323  1.4672
  660MOL0     H89076  10.071   5.305   0.371 -0.5234  1.0394 -0.0556
  660MOL0     H89077  10.045   5.343   0.548 -1.5784 -0.2007 -0.3048
  660MOL0     H89078  10.027   5.530   0.306 -1.3929 -1.3362  0.3458
  660MOL0     H89079  10.047   5.595   0.472 -0.5756  0.9243 -0.7489
  660MOL0     H89080   9.798   5.601   0.400 -2.9161 -2.7883 -0.3006
  660MOL0     H89081   9.832   5.501   0.540 -1.7552 -0.9464  0.3818
  660MOL0     H89082  10.946   5.228   0.385 -2.6948  1.2835  1.2726
  660MOL0     H89083  11.183   5.227   0.485 -0.6482 -1.8509 -2.0992
  660MOL0     H89084  11.414   5.220   1.008  2.6581  3.2119  1.8895
  660MOL0     H89085  11.637   5.253   1.055 -1.2556  0.6417  1.0470
  660MOL0     H89086  11.082   4.137   1.501  0.8134  0.1990  0.9617
  660MOL0     H89087  10.832   4.120   1.562 -0.5350 -0.4939 -0.5844
  660MOL0     H89088  10.481   3.825   1.759  0.5309 -0.4911 -0.8344
  660MOL0     H89089  10.257   3.839   1.833  2.6454 -3.1704 -0.5413
  660MOL0     H89090   9.935   4.092   1.605 -0.8166  0.1020  0.6130
  660MOL0     H89091   9.961   3.941   1.523 -0.9058  1.9997 -0.1370
  660MOL0     H89092   9.805   3.975   1.785 -1.5831 -0.7611 -0.8422
  660MOL0     H89093   9.821   3.821   1.687  1.9802 -0.3840 -1.1166
  660MOL0     H89094   9.705   3.940   1.502 -1.7606 -0.3978  0.0295
  660MOL0     H89095   9.711   4.090   1.610 -0.7112  0.0292  0.1262
  660MOL0     H89096   9.552   3.982   1.765  1.3139 -1.5435  1.7565
  660MOL0     H89097   9.569   3.831   1.689 -2.7875  0.1295  1.0090
  660MOL0     H89098   9.266   4.063   1.483  0.1235  3.2966  1.7789
  660MOL0     H89099  10.151   4.101   1.516  0.6844 -0.5731  0.4067
  660MOL0     H89100  10.383   4.116   1.449  0.4198  0.7606  1.7518
  661MOL0     O89101   4.055   3.114   6.792  0.5232 -0.4271 -0.4671
  661MOL0     C89102   4.011   3.057   6.692 -0.3592 -0.7938 -0.6276
  661MOL0     O89103   3.890   3.051   6.651  0.7707  0.4307  0.7031
  661MOL0     C89104   3.787   3.141   6.680 -0.5322 -0.2415 -0.2058
  661MOL0     C89105   3.656   3.106   6.636 -0.3433  0.0008  0.7379
  661MOL0     C89106   3.556   3.203   6.653 -0.4071  0.8067 -0.0433
  661MOL0     C89107   3.567   3.327   6.702  0.6691  0.6258  0.0431
  661MOL0     O89108   3.442   3.398   6.702 -0.6616 -0.7064 -0.7723
  661MOL0     C89109   3.456   3.544   6.708 -0.9665 -0.3041 -0.1202
  661MOL0     C89110   3.313   3.591   6.688 -0.4841  0.3844  0.8162
  661MOL0     C89111   3.313   3.740   6.665 -0.3966 -0.2092 -0.3196
  661MOL0     C89112   3.186   3.780   6.586 -0.2183 -0.5589  0.4269
  661MOL0     C89113   3.167   3.936   6.577 -0.3951  0.5675 -0.8062
  661MOL0     C89114   3.046   3.999   6.509  1.1238 -0.2327  0.8558
  661MOL0     C89115   3.033   3.959   6.369  0.2507 -0.0208  0.0642
  661MOL0     C89116   2.911   4.020   6.301 -0.1375 -0.0552 -0.4907
  661MOL0     N89117   2.783   4.024   6.374 -0.3361 -0.3564 -0.4490
  661MOL0     C89118   2.726   4.126   6.449  0.2343  0.1584 -0.5340
  661MOL0     C89119   2.613   4.072   6.486  0.3615  0.1365 -0.6101
  661MOL0     C89120   2.499   4.127   6.577 -0.2994  0.5738 -0.2033
  661MOL0     C89121   2.373   4.045   6.584  0.7740  0.4715 -0.3551
  661MOL0     C89122   2.251   4.107   6.666 -0.3675 -0.1117  0.0270
  661MOL0     C89123   2.194   4.236   6.607  0.3656  0.7458  0.3229
  661MOL0     O89124   2.074   4.282   6.675  0.4393 -0.1705 -0.0287
  661MOL0     C89125   1.997   4.380   6.618  0.0711  0.9029 -0.0668
  661MOL0     C89126   2.029   4.433   6.488  0.3353  0.0955 -0.4126
  661MOL0     C89127   1.957   4.546   6.445  0.5000  0.2985  0.1364
  661MOL0     C89128   1.980   4.587   6.304 -0.0771 -0.3872 -0.5229
  661MOL0     C89129   1.858   4.605   6.526 -0.3730  0.3039 -0.1090
  661MOL0     C89130   1.780   4.723   6.485 -0.3508 -0.7649  1.3405
  661MOL0     O89131   1.643   4.722   6.495 -0.2576 -0.3486 -0.3149
  661MOL0     C89132   1.563   4.835   6.465 -0.5566  0.3147 -0.0710
  661MOL0     C89133   1.530   4.881   6.338  1.2164 -0.2315 -0.1520
  661MOL0     C89134   1.456   4.999   6.333  0.4461 -0.6059 -0.5124
  661MOL0     C89135   1.424   5.070   6.448 -0.3134 -1.0458 -0.0055
  661MOL0     O89136   1.378   5.204   6.454 -0.1029  0.4350 -0.1509
  661MOL0     C89137   1.307   5.266   6.339  0.6421  0.0975  0.2227
  661MOL0     C89138   1.150   5.252   6.336  0.4047  0.5158  1.0206
  661MOL0     C89139   1.098   5.111   6.286 -0.7608 -0.0574  0.2011
  661MOL0     C89140   0.974   5.113   6.192 -0.0796 -0.0967  0.2410
  661MOL0     C89141   0.914   4.972   6.190 -0.0011 -0.1614  0.5826
  661MOL0     C89142   0.816   4.950   6.302  0.5927 -0.0617 -0.5690
  661MOL0     C89143   0.739   4.818   6.263  0.9364 -0.5042 -0.0281
  661MOL0     C89144   0.630   4.766   6.347 -0.8513 -0.3629  1.0472
  661MOL0    Cl89145   0.563   4.634   6.247 -0.3106 -0.1766  0.0922
  661MOL0     C89146   1.445   5.010   6.575  0.6021  0.1336 -0.2446
  661MOL0     C89147   1.514   4.892   6.581  1.1185  0.3343  0.2661
  661MOL0     O89148   1.846   4.826   6.453 -0.3651 -0.2461 -0.1858
  661MOL0     C89149   1.826   4.550   6.644  0.4915  0.4721 -0.7778
  661MOL0     C89150   1.899   4.443   6.698 -0.3108  0.1397  0.1800
  661MOL0     N89151   2.595   3.936   6.431 -0.3451 -0.6885 -0.3139
  661MOL0     N89152   2.700   3.924   6.361  0.1252 -0.6448  0.8872
  661MOL0     C89153   3.697   3.363   6.732  0.1151 -0.5459 -0.2156
  661MOL0     C89154   3.806   3.271   6.727 -0.0941 -0.2991 -0.6143
  661MOL0     C89155   4.104   2.971   6.606  0.9106 -0.0670 -0.7517
  661MOL0     C89156   4.224   2.946   6.671  0.7195 -1.0651  0.3424
  661MOL0     C89157   4.334   2.894   6.601  0.1179  0.0303  0.8362
  661MOL0     C89158   4.316   2.858   6.463 -0.3439 -0.2572 -0.2576
  661MOL0     O89159   4.417   2.820   6.380  0.2622 -0.5773  0.0644
  661MOL0     C89160   4.552   2.793   6.413 -0.4935  0.1110  0.3632
  661MOL0     C89161   4.651   2.900   6.379  0.2203 -0.0037 -0.3526
  661MOL0     C89162   4.640   3.031   6.458  0.5330  0.1027  0.2265
  661MOL0     C89163   4.735   3.051   6.571  0.6925  0.3047 -0.4113
  661MOL0     C89164   4.737   2.929   6.658 -0.1217 -0.5726  0.5127
  661MOL0     C89165   4.733   2.829   6.715 -0.5138  0.4855 -0.0091
  661MOL0     C89166   4.189   2.884   6.405 -0.3375 -0.2346  0.0472
  661MOL0     C89167   4.089   2.949   6.471  0.1466 -1.0112  0.4160
  661MOL0     H89168   3.642   3.017   6.576  1.2059  1.1129 -1.4151
  661MOL0     H89169   3.456   3.175   6.622 -0.7351  0.6832  1.0666
  661MOL0     H89170   3.504   3.584   6.798 -2.4812  1.2065  0.0722
  661MOL0     H89171   3.523   3.573   6.627 -1.3445 -0.7117 -0.5895
  661MOL0     H89172   3.269   3.550   6.596 -0.6490  2.2539  0.0153
  661MOL0     H89173   3.264   3.558   6.779 -0.7708 -1.2286  0.1070
  661MOL0     H89174   3.310   3.788   6.764  4.2721  1.6488 -0.8365
  661MOL0     H89175   3.402   3.772   6.611  0.2167  1.0940  1.3765
  661MOL0     H89176   3.184   3.745   6.482 -0.9183 -1.8291  0.8482
  661MOL0     H89177   3.093   3.750   6.634 -2.7160  2.7224 -1.9039
  661MOL0     H89178   3.170   3.959   6.684  0.2482 -0.2115 -0.6466
  661MOL0     H89179   3.260   3.973   6.532  0.0992  0.8347  0.3906
  661MOL0     H89180   2.952   3.969   6.555 -0.8735 -1.1516 -3.2920
  661MOL0     H89181   3.041   4.108   6.517  1.5517 -0.1404  0.0525
  661MOL0     H89182   3.121   3.987   6.310  1.0320 -2.9029 -0.3197
  661MOL0     H89183   3.017   3.851   6.368  0.6976 -0.0921  0.0895
  661MOL0     H89184   2.900   3.958   6.211 -1.3044 -0.9258  0.2245
  661MOL0     H89185   2.943   4.118   6.263 -0.2180  1.0996  2.2223
  661MOL0     H89186   2.777   4.216   6.481 -0.5543 -0.5578  3.2798
  661MOL0     H89187   2.530   4.151   6.679  1.6568  1.8757 -1.0358
  661MOL0     H89188   2.473   4.225   6.536 -2.7025 -0.6557 -1.8652
  661MOL0     H89189   2.388   3.957   6.646  2.6431  0.2398 -1.0729
  661MOL0     H89190   2.334   4.007   6.489  0.1818 -0.5980  0.3016
  661MOL0     H89191   2.287   4.108   6.769  0.9600 -2.9318 -0.3129
  661MOL0     H89192   2.174   4.029   6.664 -1.2807  0.7570 -1.8985
  661MOL0     H89193   2.186   4.224   6.499  0.5166  2.8334  0.0333
  661MOL0     H89194   2.263   4.319   6.628 -2.1299  2.4730  2.3397
  661MOL0     H89195   2.114   4.398   6.430  1.4845 -1.1215  1.8451
  661MOL0     H89196   1.987   4.496   6.245 -3.6409 -1.8552  1.0172
  661MOL0     H89197   1.896   4.649   6.269  2.2192  3.3993  0.0124
  661MOL0     H89198   2.070   4.649   6.308 -1.4252  1.6051  2.4806
  661MOL0     H89199   1.566   4.842   6.243  1.3962 -0.0273 -0.1695
  661MOL0     H89200   1.443   5.037   6.232  0.9746  1.0183 -0.0094
  661MOL0     H89201   1.331   5.373   6.343  1.6655 -0.1718  2.8854
  661MOL0     H89202   1.337   5.231   6.240  1.0245  0.2051  0.3007
  661MOL0     H89203   1.094   5.272   6.427 -1.6062  0.1060 -0.0706
  661MOL0     H89204   1.119   5.324   6.260  0.7288 -0.8559 -0.4926
  661MOL0     H89205   1.085   5.037   6.365 -0.2339 -2.2481 -1.6458
  661MOL0     H89206   1.181   5.076   6.223 -0.0724  1.7304  0.0472
  661MOL0     H89207   0.895   5.177   6.233  0.5050  0.9779 -0.2618
  661MOL0     H89208   0.990   5.148   6.090 -0.1676 -2.0044 -0.4673
  661MOL0     H89209   0.993   4.896   6.193 -0.6668 -0.9007  3.7780
  661MOL0     H89210   0.875   4.966   6.088  1.7926 -1.3114 -0.0856
  661MOL0     H89211   0.871   4.937   6.396 -0.2300 -2.7998 -0.3789
  661MOL0     H89212   0.740   5.025   6.321 -0.6418 -1.4551  0.2040
  661MOL0     H89213   0.816   4.742   6.244  1.6458  0.5282 -1.5247
  661MOL0     H89214   0.677   4.839   6.176 -0.6407 -1.3496  0.8438
  661MOL0     H89215   0.547   4.838   6.349 -1.7739 -1.3101 -0.7550
  661MOL0     H89216   0.682   4.738   6.439  1.3854 -3.2349 -0.9220
  661MOL0     H89217   1.412   5.061   6.664 -1.5423  0.4183 -1.1327
  661MOL0     H89218   1.533   4.863   6.684  0.3904  0.5464  0.4667
  661MOL0     H89219   1.746   4.599   6.700 -0.5225 -1.2057 -0.6717
  661MOL0     H89220   1.890   4.412   6.802  1.7846  3.8696  1.6578
  661MOL0     H89221   3.712   3.463   6.773  1.4030 -1.9957  3.2256
  661MOL0     H89222   3.904   3.308   6.757  0.5583 -3.6728  2.0169
  661MOL0     H89223   4.218   2.953   6.779  0.3842 -0.2517  0.2774
  661MOL0     H89224   4.432   2.879   6.644  1.2277  0.2649 -1.4484
  661MOL0     H89225   4.563   2.767   6.519  1.6135 -0.6586  0.0131
  661MOL0     H89226   4.574   2.700   6.359 -2.5008 -1.2579  1.7758
  661MOL0     H89227   4.641   2.922   6.273 -0.5728 -0.7028 -0.4398
  661MOL0     H89228   4.752   2.862   6.398  0.2859  1.1681  2.0184
  661MOL0     H89229   4.536   3.049   6.489  0.8233 -0.3023  1.4711
  661MOL0     H89230   4.656   3.114   6.388  4.0320 -1.1986 -0.6972
  661MOL0     H89231   4.707   3.131   6.641  0.9594 -0.3058  0.4185
  661MOL0     H89232   4.835   3.072   6.532  0.2397  2.4750 -0.4978
  661MOL0     H89233   4.732   2.746   6.783  1.9657 -0.8788 -1.4762
  661MOL0     H89234   4.166   2.869   6.299 -0.1659  0.4114 -0.0828
  661MOL0     H89235   3.998   2.977   6.419 -1.3432 -2.8763  1.8332
  662MOL0     O89236  11.019   7.990  10.004 -0.2822 -0.5326  0.3022
  662MOL0     C89237  11.091   8.013  10.097  0.0998 -0.9756 -0.1838
  662MOL0     O89238  11.062   8.097  10.202  0.0548 -0.3845 -0.2460
  662MOL0     C89239  10.941   8.163  10.231  0.8229 -0.3974 -0.5637
  662MOL0     C89240  10.818   8.136  10.164 -0.2834  0.2347 -0.0212
  662MOL0     C89241  10.695   8.194  10.191  0.4213  0.6767  0.4238
  662MOL0     C89242  10.689   8.288  10.294  0.3024 -0.0768 -1.0650
  662MOL0     O89243  10.579   8.364  10.328 -0.2306  0.2072 -0.0344
  662MOL0     C89244  10.455   8.322  10.266  0.0720  0.6254 -0.7912
  662MOL0     C89245  10.342   8.414  10.333 -0.0507 -0.2453  0.2326
  662MOL0     C89246  10.214   8.421  10.248  0.0592 -0.0129 -0.0525
  662MOL0     C89247  10.086   8.435  10.326 -0.1963  0.2296 -0.2382
  662MOL0     C89248   9.966   8.378  10.256 -0.1974 -1.0159  0.9340
  662MOL0     C89249   9.841   8.385  10.342  0.7732 -0.2529 -0.5637
  662MOL0     C89250   9.789   8.525  10.378  0.5511 -0.6456 -1.0659
  662MOL0     C89251   9.722   8.605  10.263 -0.6064  0.9298  0.3093
  662MOL0     N89252   9.588   8.562  10.220  0.0726  0.0556 -0.7399
  662MOL0     C89253   9.486   8.650  10.219  0.3155  0.1725  0.1480
  662MOL0     C89254   9.386   8.570  10.181  1.0441 -0.1095 -1.5317
  662MOL0     C89255   9.230   8.598  10.190  0.0519 -0.2639 -0.6536
  662MOL0     C89256   9.171   8.463  10.223  0.2127  0.7056 -0.4763
  662MOL0     C89257   9.011   8.452  10.201 -0.4318 -0.1058  0.5059
  662MOL0     C89258   8.931   8.552  10.281  0.2855  0.0653  0.3188
  662MOL0     O89259   8.801   8.508  10.244  0.6340 -0.0143 -0.1094
  662MOL0     C89260   8.686   8.583  10.282  0.1254 -0.4587  1.3120
  662MOL0     C89261   8.573   8.575  10.198  0.1986  0.4085 -0.6887
  662MOL0     C89262   8.464   8.666  10.217  0.8573 -0.5384 -0.2253
  662MOL0     C89263   8.350   8.659  10.121  0.1277 -0.7218  0.2071
  662MOL0     C89264   8.461   8.755  10.324 -0.1804  0.1928  0.6116
  662MOL0     C89265   8.351   8.861  10.354 -0.2170  0.0496  0.1408
  662MOL0     O89266   8.382   8.967  10.424  0.1769 -0.3040  0.7444
  662MOL0     C89267   8.300   9.075  10.433 -0.8335  0.1989 -0.1941
  662MOL0     C89268   8.364   9.197  10.393  0.3426  0.2580 -0.4272
  662MOL0     C89269   8.295   9.315  10.397  0.9796  0.5555 -0.2541
  662MOL0     C89270   8.152   9.312  10.427 -0.1432  0.6868 -0.1572
  662MOL0     O89271   8.085   9.436  10.425 -0.8632 -0.3618  0.6926
  662MOL0     C89272   7.960   9.452  10.486  0.6434 -0.7269 -0.0469
  662MOL0     C89273   7.948   9.448  10.647  0.0919 -0.1642  0.3776
  662MOL0     C89274   7.805   9.451  10.695 -0.1013  0.8803  0.5851
  662MOL0     C89275   7.743   9.310  10.692  0.4809  0.2530 -0.1187
  662MOL0     C89276   7.596   9.297  10.743  0.1265 -0.3439  0.4368
  662MOL0     C89277   7.549   9.149  10.767  0.5697 -0.2784 -0.3909
  662MOL0     C89278   7.428   9.124  10.865 -0.1926  0.4162  0.7773
  662MOL0     C89279   7.317   9.240  10.859  0.1492  0.0880 -0.8767
  662MOL0    Cl89280   7.161   9.183  10.937  0.0851 -0.1538  0.1645
  662MOL0     C89281   8.087   9.193  10.454  0.0620  0.6441 -0.6171
  662MOL0     C89282   8.169   9.076  10.470  0.4973 -0.7518 -0.3397
  662MOL0     O89283   8.244   8.832  10.308  0.1536 -0.5623 -0.3092
  662MOL0     C89284   8.576   8.756  10.408  0.4798 -0.8033 -0.4171
  662MOL0     C89285   8.678   8.667  10.395  0.4525  0.6937  0.5247
  662MOL0     N89286   9.436   8.449  10.147 -0.2207  0.4702  0.1030
  662MOL0     N89287   9.559   8.437  10.168 -0.0306 -0.4939 -0.4613
  662MOL0     C89288  10.803   8.328  10.353 -0.4410  0.1752  0.0944
  662MOL0     C89289  10.932   8.261  10.333  0.3496  0.5860  0.6931
  662MOL0     C89290  11.226   7.951  10.104 -0.4447  0.2130 -0.0233
  662MOL0     C89291  11.315   7.978  10.213  1.1371  0.0085 -0.0811
  662MOL0     C89292  11.441   7.913  10.229 -0.6159  1.4785 -0.6225
  662MOL0     C89293  11.481   7.827  10.133  0.2506 -0.2383  0.1806
  662MOL0     O89294  11.589   7.746  10.140 -0.2111 -0.1070  0.0648
  662MOL0     C89295  11.696   7.792  10.231  0.5062  0.0600  0.2534
  662MOL0     C89296  11.826   7.714  10.231  0.1184  1.1822 -0.1605
  662MOL0     C89297  11.897   7.730  10.099  0.5647 -1.0815  0.0296
  662MOL0     C89298  12.025   7.646  10.102 -1.1195  0.1851 -0.1260
  662MOL0     C89299  11.996   7.507  10.116 -0.0480  1.2438 -0.2806
  662MOL0     C89300  11.989   7.388  10.108 -0.6090 -0.8049  0.2060
  662MOL0     C89301  11.406   7.804  10.025 -0.2826 -0.5127  0.0011
  662MOL0     C89302  11.284   7.871  10.003 -0.1961  1.0736  0.3685
  662MOL0     H89303  10.810   8.070  10.078 -2.2707  3.1280 -2.2551
  662MOL0     H89304  10.616   8.172  10.121 -0.1956 -1.1399  1.6295
  662MOL0     H89305  10.456   8.334  10.157  0.2207  1.0645 -0.7471
  662MOL0     H89306  10.426   8.219  10.288 -2.7062  0.8926 -2.6432
  662MOL0     H89307  10.326   8.375  10.434 -0.7460 -1.8300 -0.4596
  662MOL0     H89308  10.381   8.517  10.330 -0.5537 -0.0096  1.2303
  662MOL0     H89309  10.209   8.499  10.172  0.3590 -0.6138 -0.6997
  662MOL0     H89310  10.210   8.322  10.202  1.9323 -0.1335 -0.0350
  662MOL0     H89311  10.090   8.388  10.424 -1.7559  1.5408  0.5055
  662MOL0     H89312  10.078   8.543  10.343  0.5110  0.6145 -2.0403
  662MOL0     H89313   9.958   8.428  10.159 -1.1628 -1.6500  0.6723
  662MOL0     H89314   9.967   8.271  10.233 -1.2468 -0.5663 -1.4651
  662MOL0     H89315   9.759   8.328  10.298 -2.0577  1.0441  2.5617
  662MOL0     H89316   9.861   8.343  10.441 -0.8743  1.0730  0.4033
  662MOL0     H89317   9.712   8.522  10.455  1.8999 -0.1394  0.3710
  662MOL0     H89318   9.878   8.576  10.417 -0.1275  1.5521 -2.2800
  662MOL0     H89319   9.788   8.610  10.176  0.9159  4.1748  1.4644
  662MOL0     H89320   9.713   8.708  10.299 -2.7313  0.5472  0.9968
  662MOL0     H89321   9.466   8.751  10.253  1.0339 -0.5361  2.9080
  662MOL0     H89322   9.208   8.669  10.270  0.8144  1.0989 -1.6111
  662MOL0     H89323   9.193   8.634  10.093 -0.9895  1.5716  0.3893
  662MOL0     H89324   9.198   8.443  10.327  1.2009  0.8755 -0.6946
  662MOL0     H89325   9.212   8.382  10.161 -0.3224  0.5045 -0.5795
  662MOL0     H89326   8.985   8.350  10.229  0.3388 -0.9067 -1.4931
  662MOL0     H89327   8.984   8.468  10.096 -1.4483 -0.0853  0.7599
  662MOL0     H89328   8.956   8.653  10.247 -2.5632  0.9521  0.5596
  662MOL0     H89329   8.946   8.563  10.389  0.1856  1.0237  0.2420
  662MOL0     H89330   8.591   8.526  10.103  1.6024  0.2973 -0.3924
  662MOL0     H89331   8.259   8.609  10.155  1.9686 -1.9523  3.8263
  662MOL0     H89332   8.317   8.759  10.090 -0.0012 -0.7276  0.3220
  662MOL0     H89333   8.384   8.604  10.033  3.5629  1.6595 -0.1332
  662MOL0     H89334   8.469   9.204  10.366  1.3233  2.3375  3.2132
  662MOL0     H89335   8.350   9.408  10.393  1.7337  0.1156 -0.3096
  662MOL0     H89336   7.925   9.549  10.451  2.5163  0.8931  2.1794
  662MOL0     H89337   7.895   9.373  10.448 -0.6526  0.0425  0.4965
  662MOL0     H89338   7.984   9.349  10.675 -0.7271 -0.8805 -1.0241
  662MOL0     H89339   8.019   9.523  10.685  1.1731  0.5581 -2.7089
  662MOL0     H89340   7.746   9.505  10.620  0.1411 -0.0501 -0.3047
  662MOL0     H89341   7.790   9.504  10.789  0.6277  1.6596  0.2799
  662MOL0     H89342   7.750   9.270  10.591 -1.9758  1.8797 -1.0312
  662MOL0     H89343   7.809   9.254  10.759 -0.4092  1.5665  1.9886
  662MOL0     H89344   7.537   9.345  10.664  0.5093  1.2596  1.0834
  662MOL0     H89345   7.579   9.351  10.836 -3.9555  0.1400 -0.3985
  662MOL0     H89346   7.516   9.124  10.666  0.8320  2.8280 -1.3631
  662MOL0     H89347   7.638   9.094  10.800  0.0600 -0.6800  0.3377
  662MOL0     H89348   7.464   9.090  10.962 -0.1353  0.5354  0.7973
  662MOL0     H89349   7.386   9.029  10.830  0.6492  0.0278  0.7946
  662MOL0     H89350   7.299   9.263  10.754 -0.2103 -0.3419 -0.9124
  662MOL0     H89351   7.338   9.333  10.912 -2.4486 -0.1994  0.8885
  662MOL0     H89352   7.982   9.179  10.476  0.3534 -2.6400 -0.7973
  662MOL0     H89353   8.122   8.982  10.498  1.5627 -1.9111 -2.2656
  662MOL0     H89354   8.566   8.820  10.495  0.8908 -1.9741  0.5088
  662MOL0     H89355   8.761   8.667  10.465 -0.2049 -0.0048  1.3139
  662MOL0     H89356  10.812   8.413  10.421  0.4366 -0.4591  0.7900
  662MOL0     H89357  11.028   8.297  10.371  2.0225 -2.4006 -0.4036
  662MOL0     H89358  11.281   8.027  10.304 -1.8601 -1.8090 -0.1005
  662MOL0     H89359  11.491   7.920  10.325 -0.5236  1.7919 -0.6949
  662MOL0     H89360  11.715   7.897  10.206 -0.2916 -0.1964 -1.5994
  662MOL0     H89361  11.663   7.788  10.335  0.1453 -0.0139  0.1374
  662MOL0     H89362  11.806   7.610  10.257  1.5404  0.7111 -0.9173
  662MOL0     H89363  11.903   7.748  10.301  2.0705  0.7946 -2.0570
  662MOL0     H89364  11.907   7.832  10.063  0.0806 -1.4122 -1.0855
  662MOL0     H89365  11.832   7.685  10.023 -5.0161  3.1225  1.6585
  662MOL0     H89366  12.086   7.666  10.190 -1.8332 -0.8202  0.6201
  662MOL0     H89367  12.087   7.657  10.012 -1.5587 -0.5537 -0.5316
  662MOL0     H89368  12.000   7.281  10.111  2.7054 -0.7230 -2.9218
  662MOL0     H89369  11.437   7.733   9.948 -1.0724  0.3811 -1.1788
  662MOL0     H89370  11.232   7.847   9.911  3.4961  0.2833 -1.7639
  663MOL0     O89371   5.035   0.109  10.948 -0.2676  0.5117  0.2913
  663MOL0     C89372   5.134   0.038  10.945  0.3755 -0.3721  0.4257
  663MOL0     O89373   5.141  -0.093  10.909 -0.2171  0.1652  0.9447
  663MOL0     C89374   5.029  -0.158  10.858 -0.8270 -0.4392  0.7592
  663MOL0     C89375   4.909  -0.154  10.924 -0.2389 -0.2420 -0.6566
  663MOL0     C89376   4.806  -0.228  10.880  0.3134  0.7570  0.6636
  663MOL0     C89377   4.821  -0.301  10.754  0.1646 -0.6616  0.0730
  663MOL0     O89378   4.710  -0.365  10.703 -0.2560  0.5806 -0.4137
  663MOL0     C89379   4.686  -0.325  10.569  0.1248 -1.0685  0.5529
  663MOL0     C89380   4.574  -0.405  10.510  0.9940 -0.4228  0.0709
  663MOL0     C89381   4.535  -0.362  10.365 -0.6652 -0.3707 -0.0504
  663MOL0     C89382   4.404  -0.273  10.358 -0.4577  0.4920 -0.0617
  663MOL0     C89383   4.340  -0.290  10.218 -0.6202 -0.3158  0.0311
  663MOL0     C89384   4.208  -0.232  10.203  0.9821 -0.2905  0.0340
  663MOL0     C89385   4.126  -0.297  10.089  0.3467  0.5641  0.0535
  663MOL0     C89386   4.057  -0.424  10.126 -0.6150 -0.4753  0.7790
  663MOL0     N89387   3.994  -0.493  10.016  0.5912  1.1657  0.1658
  663MOL0     C89388   3.867  -0.468   9.965 -0.5426  0.0374  0.5876
  663MOL0     C89389   3.844  -0.577   9.894 -0.2960 -0.0590 -0.2923
  663MOL0     C89390   3.715  -0.601   9.832  1.1673 -0.0203  0.1922
  663MOL0     C89391   3.656  -0.739   9.888  0.6920  0.0735  0.7070
  663MOL0     C89392   3.503  -0.754   9.846 -0.2521  0.3187  0.3336
  663MOL0     C89393   3.418  -0.821   9.948 -0.9360  0.5541  0.4601
  663MOL0     O89394   3.288  -0.824   9.890 -0.6907  0.3505 -0.1349
  663MOL0     C89395   3.181  -0.809   9.972 -0.6430 -0.8342 -1.4379
  663MOL0     C89396   3.172  -0.888  10.088  0.4388  0.0987  0.2596
  663MOL0     C89397   3.052  -0.887  10.167 -0.0138 -0.7577 -0.7593
  663MOL0     C89398   3.042  -0.976  10.285 -0.4192 -0.1622 -0.2672
  663MOL0     C89399   2.944  -0.797  10.135  0.0832 -0.1660  0.8331
  663MOL0     C89400   2.806  -0.785  10.190 -0.4592  0.2005  1.2794
  663MOL0     O89401   2.754  -0.901  10.249  0.7778 -0.0656 -0.0360
  663MOL0     C89402   2.617  -0.904  10.283 -0.6064  0.4496 -1.0167
  663MOL0     C89403   2.581  -0.986  10.390  0.1101 -0.0289 -0.3778
  663MOL0     C89404   2.445  -0.992  10.441 -1.0945 -0.1573 -0.2123
  663MOL0     C89405   2.347  -0.924  10.367 -0.8150 -0.5559 -0.0972
  663MOL0     O89406   2.225  -0.928  10.426  0.3009 -0.1736 -0.2854
  663MOL0     C89407   2.120  -0.829  10.392 -0.4720 -0.6937  0.1960
  663MOL0     C89408   1.984  -0.837  10.476 -0.1677 -0.2341  0.9467
  663MOL0     C89409   1.904  -0.967  10.451 -0.2611 -0.5053  0.3053
  663MOL0     C89410   1.791  -0.948  10.361 -1.0429  0.1430  0.3975
  663MOL0     C89411   1.712  -1.071  10.341  0.3141 -0.2139  0.0728
  663MOL0     C89412   1.588  -1.035  10.261 -0.0767  0.1932 -0.5492
  663MOL0     C89413   1.536  -1.165  10.181  0.0509  0.4173  0.1726
  663MOL0     C89414   1.390  -1.159  10.151 -0.4635 -0.9213 -0.1126
  663MOL0    Cl89415   1.347  -0.981  10.124  0.0070  0.4597  0.7410
  663MOL0     C89416   2.389  -0.833  10.267 -0.3751  0.1003  0.9706
  663MOL0     C89417   2.521  -0.835  10.219  0.6419  0.5624  0.3645
  663MOL0     O89418   2.754  -0.675  10.178 -0.1686  0.0565 -1.0869
  663MOL0     C89419   2.962  -0.720  10.010  0.4165  0.5405 -0.0626
  663MOL0     C89420   3.083  -0.716   9.941  0.3497 -0.7778 -0.6872
  663MOL0     N89421   3.950  -0.662   9.904 -0.0514  0.5711 -0.2016
  663MOL0     N89422   4.043  -0.618   9.983 -0.5895 -0.2760 -0.5422
  663MOL0     C89423   4.942  -0.310  10.691  0.2352  0.0554 -0.7603
  663MOL0     C89424   5.044  -0.235  10.739 -0.0467  0.6555 -0.2440
  663MOL0     C89425   5.266   0.090  10.992  0.3752 -0.2867  0.7373
  663MOL0     C89426   5.363  -0.003  11.032 -0.6425  0.2599  0.8034
  663MOL0     C89427   5.486   0.038  11.060 -0.5138 -0.1165  0.1320
  663MOL0     C89428   5.525   0.173  11.051  0.1869  0.0444 -0.4894
  663MOL0     O89429   5.649   0.203  11.101 -1.0048  0.2506 -0.0161
  663MOL0     C89430   5.684   0.338  11.126 -0.1357  0.6605 -0.7918
  663MOL0     C89431   5.830   0.340  11.190 -0.2899  0.1684 -0.3577
  663MOL0     C89432   5.922   0.241  11.117 -0.1351  0.4647 -0.1948
  663MOL0     C89433   6.067   0.259  11.161 -1.5472 -0.1626  0.2724
  663MOL0     C89434   6.094   0.227  11.300 -0.3995  0.6105 -0.2111
  663MOL0     C89435   6.123   0.221  11.419 -0.1556  0.2765 -0.7448
  663MOL0     C89436   5.435   0.266  11.019  0.2308 -0.8878  0.0575
  663MOL0     C89437   5.307   0.229  10.980 -0.0275 -0.1878 -0.1855
  663MOL0     H89438   4.909  -0.100  11.018  1.5674 -1.2716 -0.0265
  663MOL0     H89439   4.719  -0.235  10.943  0.5289  1.6024  1.0598
  663MOL0     H89440   4.657  -0.220  10.559  1.3984 -0.6733  0.8905
  663MOL0     H89441   4.777  -0.335  10.508  0.6271 -5.2617  1.6824
  663MOL0     H89442   4.610  -0.508  10.505 -0.3532 -0.8584 -1.8260
  663MOL0     H89443   4.493  -0.398  10.582  1.0800  0.4915  0.0931
  663MOL0     H89444   4.624  -0.319  10.319 -0.7245 -0.2551 -0.0568
  663MOL0     H89445   4.515  -0.455  10.311 -1.7645  0.2144 -0.6790
  663MOL0     H89446   4.331  -0.292  10.438  0.5794  2.9154  1.6049
  663MOL0     H89447   4.421  -0.167  10.380 -2.0918  0.4438  1.7350
  663MOL0     H89448   4.411  -0.258  10.141 -0.4974 -3.6860 -1.4396
  663MOL0     H89449   4.338  -0.399  10.207  1.9990 -0.5335  0.8954
  663MOL0     H89450   4.153  -0.246  10.296  0.5852  0.9394  0.0070
  663MOL0     H89451   4.230  -0.126  10.186 -0.2524  0.1118  0.7787
  663MOL0     H89452   4.037  -0.237  10.065 -0.1295 -1.2461 -3.2793
  663MOL0     H89453   4.190  -0.311  10.001 -1.6085 -0.7989 -1.2238
  663MOL0     H89454   3.989  -0.412  10.211 -2.1671 -0.7905 -0.3779
  663MOL0     H89455   4.134  -0.496  10.157  1.0867  0.7220 -0.4379
  663MOL0     H89456   3.794  -0.390   9.984 -1.0486  0.0625 -1.2735
  663MOL0     H89457   3.643  -0.521   9.851 -0.7613 -1.1383 -1.8606
  663MOL0     H89458   3.731  -0.601   9.723 -1.5364  0.5962 -0.2768
  663MOL0     H89459   3.658  -0.730   9.997  1.3637  1.9778  0.5728
  663MOL0     H89460   3.719  -0.823   9.857  2.3630  0.9257  1.6523
  663MOL0     H89461   3.500  -0.798   9.747 -0.9734  0.5518  0.2496
  663MOL0     H89462   3.467  -0.651   9.832 -1.4885 -0.1738 -0.1623
  663MOL0     H89463   3.408  -0.761  10.040 -5.1891  0.2198  0.4386
  663MOL0     H89464   3.449  -0.920   9.981 -0.8526  1.5717  3.7946
  663MOL0     H89465   3.250  -0.959  10.113 -0.3821 -0.9950 -0.2220
  663MOL0     H89466   3.016  -1.080  10.263 -1.2901 -0.4607  1.8609
  663MOL0     H89467   3.139  -0.978  10.336 -1.4657  2.4808  2.1072
  663MOL0     H89468   2.970  -0.939  10.359  0.4437  0.7078  0.1713
  663MOL0     H89469   2.663  -1.039  10.439 -0.6518 -0.1181  0.8313
  663MOL0     H89470   2.411  -1.053  10.525 -0.7515  1.3031  1.0286
  663MOL0     H89471   2.157  -0.727  10.400 -0.8550 -0.6198  1.2844
  663MOL0     H89472   2.090  -0.841  10.288  2.0712 -0.2901 -0.6370
  663MOL0     H89473   2.000  -0.829  10.584 -0.5752 -2.3390  1.2169
  663MOL0     H89474   1.925  -0.747  10.459  1.0191  0.5550  0.8693
  663MOL0     H89475   1.863  -1.001  10.547  2.4728  0.2175  1.8379
  663MOL0     H89476   1.969  -1.047  10.414 -0.9194 -0.2281 -1.5182
  663MOL0     H89477   1.734  -0.870  10.413  1.2945  0.9763  1.8489
  663MOL0     H89478   1.824  -0.905  10.266 -0.6383  4.6636  2.3361
  663MOL0     H89479   1.686  -1.130  10.430  1.7190  1.5842  1.7562
  663MOL0     H89480   1.771  -1.126  10.268  0.7640  1.7057 -1.0908
  663MOL0     H89481   1.503  -1.004  10.323 -1.3223  0.5500 -2.3269
  663MOL0     H89482   1.619  -0.958  10.189  2.9608  0.6881  1.1407
  663MOL0     H89483   1.572  -1.248  10.242  0.4341  0.9288  0.6420
  663MOL0     H89484   1.593  -1.168  10.087  0.9329  0.9587  0.6834
  663MOL0     H89485   1.326  -1.205  10.227  1.0392  0.9696  2.4678
  663MOL0     H89486   1.371  -1.208  10.055 -3.7631  1.3315 -0.8186
  663MOL0     H89487   2.326  -0.757  10.222 -1.2183  0.1874  2.2408
  663MOL0     H89488   2.547  -0.783  10.127 -3.5450 -1.0286 -2.0435
  663MOL0     H89489   2.888  -0.645   9.982 -1.0346 -0.7798  0.0933
  663MOL0     H89490   3.093  -0.641   9.863 -0.4502  0.7223  0.5769
  663MOL0     H89491   4.952  -0.381  10.610 -1.6845 -0.3607 -0.6885
  663MOL0     H89492   5.137  -0.252  10.685 -1.2232  0.8270 -2.3983
  663MOL0     H89493   5.348  -0.110  11.036  1.1827 -0.0045  1.5898
  663MOL0     H89494   5.558  -0.034  11.097 -1.2604 -0.4925  0.8877
  663MOL0     H89495   5.673   0.403  11.039 -0.7398 -0.4378 -1.5685
  663MOL0     H89496   5.619   0.386  11.200  0.3131  2.4733 -1.5399
  663MOL0     H89497   5.825   0.328  11.299 -0.2389 -0.4998 -0.4238
  663MOL0     H89498   5.878   0.437  11.179 -2.4781  1.2310 -1.1578
  663MOL0     H89499   5.915   0.255  11.009  1.6099 -0.3599 -0.4541
  663MOL0     H89500   5.887   0.138  11.132 -0.4029  0.6670  0.6164
  663MOL0     H89501   6.093   0.363  11.140 -1.2256 -0.1122  0.8963
  663MOL0     H89502   6.140   0.192  11.116 -1.0188  0.0050  0.8765
  663MOL0     H89503   6.142   0.228  11.524 -3.0997  2.2093 -0.2229
  663MOL0     H89504   5.458   0.371  11.009  0.9724 -1.2360 -2.9864
  663MOL0     H89505   5.248   0.318  10.958  2.5950  1.4033 -1.1832
  664MOL0     O89506   5.987   0.558  10.705  0.3292 -0.4827 -0.7269
  664MOL0     C89507   6.054   0.650  10.647  0.1161 -0.5584  0.4135
  664MOL0     O89508   6.010   0.718  10.532  0.4445 -0.2221 -0.6360
  664MOL0     C89509   5.907   0.660  10.457 -0.4618  0.0285  0.1222
  664MOL0     C89510   5.781   0.641  10.520  0.8119  0.2599  0.2595
  664MOL0     C89511   5.678   0.585  10.439  0.0074 -0.1718 -0.1061
  664MOL0     C89512   5.699   0.537  10.308  0.1218  0.2184  0.5036
  664MOL0     O89513   5.586   0.486  10.239 -0.2181 -0.2403  0.0896
  664MOL0     C89514   5.605   0.391  10.131 -0.5936 -0.8638  0.6999
  664MOL0     C89515   5.483   0.315  10.090 -0.3676 -0.5317  0.5119
  664MOL0     C89516   5.435   0.230  10.197 -0.7968 -0.8168 -0.6041
  664MOL0     C89517   5.319   0.143  10.149  0.1102 -0.2220 -0.1435
  664MOL0     C89518   5.263   0.057  10.259  0.3040  0.3308 -0.7494
  664MOL0     C89519   5.356  -0.062  10.304  0.1718  0.8596  0.7567
  664MOL0     C89520   5.273  -0.168  10.384  0.0160  0.1562 -0.2709
  664MOL0     C89521   5.181  -0.265  10.300  0.1509 -0.3971  0.7364
  664MOL0     N89522   5.098  -0.365  10.368  0.5182 -0.3852  0.3918
  664MOL0     C89523   5.141  -0.484  10.423 -0.1711 -0.0943 -0.4005
  664MOL0     C89524   5.032  -0.562  10.435  0.3921  0.2943 -1.4214
  664MOL0     C89525   5.026  -0.701  10.492  0.0946 -0.3434  0.3133
  664MOL0     C89526   5.000  -0.695  10.641 -0.0491 -0.2025  0.1778
  664MOL0     C89527   4.843  -0.687  10.671  0.0305  0.1243 -0.6082
  664MOL0     C89528   4.804  -0.681  10.826  0.3930 -0.1960 -0.3901
  664MOL0     O89529   4.902  -0.737  10.914  0.2731  0.4588 -0.2044
  664MOL0     C89530   5.010  -0.671  10.969 -0.0983 -0.5266 -0.0819
  664MOL0     C89531   5.107  -0.755  11.017 -0.5242  0.5316  0.2196
  664MOL0     C89532   5.232  -0.711  11.062  0.3163  0.9536  0.2052
  664MOL0     C89533   5.341  -0.814  11.091 -0.5862  0.0853 -0.1562
  664MOL0     C89534   5.256  -0.572  11.059 -0.3854  0.4350 -0.4845
  664MOL0     C89535   5.388  -0.509  11.095  0.3254 -0.1435 -0.0424
  664MOL0     O89536   5.389  -0.379  11.130  0.3811  0.1372  0.2664
  664MOL0     C89537   5.504  -0.317  11.186  0.0968 -0.2405  0.8183
  664MOL0     C89538   5.635  -0.315  11.137 -0.4298 -0.4177 -0.0213
  664MOL0     C89539   5.741  -0.267  11.217  0.6199 -0.6480  0.2007
  664MOL0     C89540   5.715  -0.190  11.324  0.7077  1.1330  0.5484
  664MOL0     O89541   5.818  -0.133  11.386  0.4310  0.3658 -0.1024
  664MOL0     C89542   5.790  -0.021  11.467 -0.4110  0.1730 -0.5250
  664MOL0     C89543   5.766  -0.060  11.617 -0.7354  0.1716 -0.3514
  664MOL0     C89544   5.870  -0.159  11.661  0.7658  0.6747  0.3799
  664MOL0     C89545   5.903  -0.141  11.805 -0.4976 -0.1971  0.4291
  664MOL0     C89546   6.017  -0.243  11.842  0.8265 -0.6981  0.0259
  664MOL0     C89547   6.020  -0.252  11.998  0.0095 -0.2706  0.9084
  664MOL0     C89548   6.131  -0.341  12.049  0.9438 -0.2006 -0.0106
  664MOL0     C89549   6.146  -0.329  12.202  0.2946  0.6711 -0.4798
  664MOL0    Cl89550   6.208  -0.489  12.252  0.1151 -0.3436 -0.4407
  664MOL0     C89551   5.584  -0.181  11.361 -0.0718 -0.2900  0.3625
  664MOL0     C89552   5.481  -0.246  11.303  0.2504  0.1069  0.4672
  664MOL0     O89553   5.485  -0.575  11.083 -0.2243  0.1830  0.2148
  664MOL0     C89554   5.156  -0.483  11.009 -0.0161  0.6879 -0.3255
  664MOL0     C89555   5.029  -0.533  10.971 -0.1903 -0.3135  0.2139
  664MOL0     N89556   4.920  -0.492  10.395  0.2330 -0.7594 -0.1931
  664MOL0     N89557   4.963  -0.375  10.353  0.1019  0.0144  0.2532
  664MOL0     C89558   5.824   0.550  10.266 -0.5380  0.8479  0.3386
  664MOL0     C89559   5.928   0.611  10.328  0.0219 -0.0854 -0.6831
  664MOL0     C89560   6.165   0.706  10.718  0.7555  0.5796 -0.0348
  664MOL0     C89561   6.267   0.763  10.650  0.6314  0.2089 -0.1598
  664MOL0     C89562   6.372   0.818  10.724 -0.1789 -0.2474 -0.6206
  664MOL0     C89563   6.375   0.814  10.862  0.5314  0.0368 -0.4985
  664MOL0     O89564   6.472   0.874  10.941 -0.2737  0.2633 -0.2234
  664MOL0     C89565   6.546   0.989  10.884  0.0319 -0.3687  0.2138
  664MOL0     C89566   6.451   1.107  10.870 -0.0133 -0.7519 -0.0206
  664MOL0     C89567   6.539   1.233  10.827  0.4738  0.0611 -0.6168
  664MOL0     C89568   6.469   1.359  10.853 -0.5963  0.4594  0.4456
  664MOL0     C89569   6.353   1.367  10.774  0.0647 -0.4307  0.0925
  664MOL0     C89570   6.258   1.388  10.701  0.0743  0.1144  0.0386
  664MOL0     C89571   6.271   0.758  10.929 -0.7905 -0.3385 -0.5185
  664MOL0     C89572   6.167   0.700  10.857 -0.3959  0.5523 -0.1527
  664MOL0     H89573   5.756   0.673  10.620 -0.7216 -1.0355  0.3422
  664MOL0     H89574   5.582   0.574  10.488 -0.3692 -1.0207 -1.0054
  664MOL0     H89575   5.636   0.443  10.039 -1.5710 -4.1627 -1.6834
  664MOL0     H89576   5.674   0.311  10.160 -0.3984 -1.5763 -1.4963
  664MOL0     H89577   5.399   0.382  10.066 -1.2268 -0.1483  4.0299
  664MOL0     H89578   5.491   0.253   9.999 -3.6790  0.1029 -0.3556
  664MOL0     H89579   5.511   0.165  10.242 -2.0349 -0.1804  2.7445
  664MOL0     H89580   5.398   0.295  10.278 -2.0946 -0.9795 -1.0534
  664MOL0     H89581   5.243   0.208  10.104  2.0297  4.5738  2.7755
  664MOL0     H89582   5.364   0.077  10.075  2.0105 -1.0179  1.6121
  664MOL0     H89583   5.236   0.122  10.343  1.6939 -0.3258  0.2476
  664MOL0     H89584   5.167   0.018  10.223 -1.1427 -0.0163  2.9948
  664MOL0     H89585   5.382  -0.112  10.210 -2.9448  0.5761 -0.0704
  664MOL0     H89586   5.448  -0.021  10.346  0.9387  0.3677 -0.3878
  664MOL0     H89587   5.344  -0.224  10.445  2.7049  0.2967 -2.9614
  664MOL0     H89588   5.219  -0.104  10.454  0.1772 -0.9435  0.8963
  664MOL0     H89589   5.237  -0.324  10.227 -1.1094  0.5367 -1.0467
  664MOL0     H89590   5.123  -0.192  10.243  0.8488  0.2481  0.8368
  664MOL0     H89591   5.241  -0.514  10.453 -0.5833 -1.4415 -0.3042
  664MOL0     H89592   4.946  -0.758  10.444 -1.9468  2.5225  0.1179
  664MOL0     H89593   5.123  -0.742  10.462  0.9478  2.8385 -1.8291
  664MOL0     H89594   5.047  -0.607  10.686 -3.5579 -0.4039  5.0145
  664MOL0     H89595   5.051  -0.777  10.693  0.5940  1.3029  2.0181
  664MOL0     H89596   4.793  -0.775  10.629 -0.7435  0.1524  0.2164
  664MOL0     H89597   4.813  -0.606  10.605  1.4254 -1.2596 -3.0920
  664MOL0     H89598   4.712  -0.740  10.827  0.9452 -1.0748 -0.3759
  664MOL0     H89599   4.779  -0.579  10.855  0.3253 -0.2027 -0.4241
  664MOL0     H89600   5.097  -0.860  10.993  1.8913  0.2359  0.2893
  664MOL0     H89601   5.438  -0.799  11.044 -0.4711  0.0314  0.0630
  664MOL0     H89602   5.348  -0.835  11.198 -0.1557  3.0605  0.4853
  664MOL0     H89603   5.301  -0.900  11.037 -2.1739  1.5493 -1.4230
  664MOL0     H89604   5.658  -0.355  11.038 -0.3170 -2.7184  0.8732
  664MOL0     H89605   5.841  -0.286  11.181  0.0898 -0.4358 -1.4844
  664MOL0     H89606   5.884   0.033  11.454  0.4274 -1.2303 -0.6087
  664MOL0     H89607   5.710   0.041  11.428 -1.8829 -1.0080  0.5095
  664MOL0     H89608   5.763   0.037  11.667  1.0562  2.3569 -4.0093
  664MOL0     H89609   5.670  -0.108  11.635 -0.3321 -1.0160 -1.1707
  664MOL0     H89610   5.968  -0.154  11.612 -0.4084 -1.7437 -2.5055
  664MOL0     H89611   5.836  -0.261  11.641  1.3746  0.5337  0.0045
  664MOL0     H89612   5.939  -0.038  11.807  2.8409 -1.2531 -0.1335
  664MOL0     H89613   5.814  -0.151  11.868  0.5419  0.7099  2.1232
  664MOL0     H89614   6.116  -0.222  11.800  2.1957 -1.8783  2.4128
  664MOL0     H89615   5.988  -0.338  11.796 -0.9298  0.2091 -0.8235
  664MOL0     H89616   6.044  -0.148  12.022 -0.0968  0.6011 -2.3090
  664MOL0     H89617   5.925  -0.285  12.041  1.6106 -2.6621  2.9540
  664MOL0     H89618   6.226  -0.329  11.996  0.4014  1.0301 -0.7303
  664MOL0     H89619   6.093  -0.443  12.033  1.0648 -0.9891  3.6509
  664MOL0     H89620   6.050  -0.313  12.251  0.8905 -1.5469  1.6217
  664MOL0     H89621   6.218  -0.251  12.230  3.0194 -1.1259 -2.1121
  664MOL0     H89622   5.556  -0.131  11.454 -1.0413  0.7297 -0.4400
  664MOL0     H89623   5.379  -0.246  11.341 -0.1165  1.3926 -0.4751
  664MOL0     H89624   5.167  -0.376  10.997  1.8948  0.9530  2.6158
  664MOL0     H89625   4.951  -0.467  10.934 -0.1865  0.5056  1.5880
  664MOL0     H89626   5.849   0.514  10.167  1.2424  1.2052  0.6176
  664MOL0     H89627   6.025   0.624  10.280  0.6797 -0.2111  0.5736
  664MOL0     H89628   6.253   0.783  10.544 -2.0923 -1.7740 -0.2792
  664MOL0     H89629   6.455   0.860  10.669  1.6461 -1.3123  1.1918
  664MOL0     H89630   6.623   1.016  10.957 -1.0321  0.3743  1.1040
  664MOL0     H89631   6.591   0.970  10.786 -0.7719 -2.6165  0.2303
  664MOL0     H89632   6.399   1.126  10.964  1.0300  0.5376  0.3231
  664MOL0     H89633   6.382   1.087  10.787 -1.3343 -0.2629  0.9222
  664MOL0     H89634   6.574   1.221  10.724  0.2156  1.5375 -0.8899
  664MOL0     H89635   6.629   1.245  10.889  0.1319 -0.5743  0.0167
  664MOL0     H89636   6.526   1.450  10.830 -0.4119  1.0945  3.0821
  664MOL0     H89637   6.442   1.371  10.958 -0.1237 -4.1077  1.2950
  664MOL0     H89638   6.194   1.409  10.618  1.0627 -2.0648 -1.3603
  664MOL0     H89639   6.271   0.759  11.037 -3.3239 -0.6455 -0.4550
  664MOL0     H89640   6.101   0.641  10.919  1.5903  1.6571  3.2915
  665MOL0     O89641   6.086   9.451   9.808 -0.7937  0.5455  0.1239
  665MOL0     C89642   6.090   9.568   9.796 -0.3166  0.1479  0.9425
  665MOL0     O89643   5.974   9.637   9.781 -0.2130  0.1297 -0.3646
  665MOL0     C89644   5.859   9.599   9.834  0.0477 -0.2120 -0.1161
  665MOL0     C89645   5.835   9.524   9.953  0.6585 -0.8572  0.4404
  665MOL0     C89646   5.706   9.482   9.994 -0.6358 -0.3514  0.0285
  665MOL0     C89647   5.595   9.552   9.937  0.9520  0.2434 -0.5749
  665MOL0     O89648   5.461   9.519   9.947 -0.1338  0.1515 -0.2361
  665MOL0     C89649   5.425   9.437  10.055  0.0640 -0.0411 -0.0002
  665MOL0     C89650   5.278   9.422  10.087  0.2064 -0.5606 -1.1330
  665MOL0     C89651   5.217   9.539  10.171 -0.0553  0.8597  0.1191
  665MOL0     C89652   5.073   9.512  10.211 -1.1906  0.1202 -0.3959
  665MOL0     C89653   5.027   9.613  10.316 -0.4059 -0.1583 -0.2422
  665MOL0     C89654   5.089   9.586  10.456 -0.1005  0.2246  0.6804
  665MOL0     C89655   5.023   9.654  10.573  1.4195  0.1587  0.1918
  665MOL0     C89656   4.890   9.585  10.612 -0.7375 -0.2039  0.7923
  665MOL0     N89657   4.905   9.443  10.609 -0.4022 -0.7823  0.6757
  665MOL0     C89658   4.952   9.379  10.722  0.1428 -0.0987  0.2653
  665MOL0     C89659   4.953   9.248  10.692 -0.3177 -0.0382 -0.2547
  665MOL0     C89660   5.013   9.144  10.777  0.3168  0.0364  0.6735
  665MOL0     C89661   4.984   9.004  10.726 -0.4174 -0.2556 -1.0647
  665MOL0     C89662   5.017   8.916  10.848 -0.9346  0.2686 -0.1035
  665MOL0     C89663   4.951   8.776  10.831  0.1790 -0.6883 -0.5667
  665MOL0     O89664   4.812   8.802  10.809 -0.0422  0.5458 -0.3653
  665MOL0     C89665   4.725   8.708  10.744 -0.0634 -0.3207  0.4305
  665MOL0     C89666   4.761   8.577  10.710  0.3089 -1.0789 -0.0747
  665MOL0     C89667   4.682   8.497  10.622  0.8328  0.1767 -0.5719
  665MOL0     C89668   4.744   8.373  10.558 -0.8257  0.0090  0.6867
  665MOL0     C89669   4.550   8.534  10.596  0.1035 -0.1660  0.0349
  665MOL0     C89670   4.459   8.448  10.522 -0.3186 -1.2383 -0.1939
  665MOL0     O89671   4.359   8.509  10.461  0.1945  0.0750 -0.2496
  665MOL0     C89672   4.241   8.441  10.428  0.2736  0.3487  0.9384
  665MOL0     C89673   4.247   8.333  10.342 -0.1713  0.1386 -0.0301
  665MOL0     C89674   4.132   8.266  10.300  0.5487  0.1722  0.1301
  665MOL0     C89675   4.008   8.304  10.350 -0.7115 -0.6107  0.0648
  665MOL0     O89676   3.891   8.237  10.317 -0.2075 -0.0862  0.1492
  665MOL0     C89677   3.882   8.178  10.185 -0.6289  0.5363  0.0518
  665MOL0     C89678   3.745   8.134  10.140 -0.1455  0.2347  0.0517
  665MOL0     C89679   3.680   8.045  10.244 -0.1904 -0.1851 -0.2684
  665MOL0     C89680   3.541   7.993  10.196  0.3969 -0.1185 -0.4803
  665MOL0     C89681   3.491   7.900  10.299 -0.4593  0.0205 -0.7936
  665MOL0     C89682   3.372   7.815  10.244 -0.1373 -0.5590  0.0662
  665MOL0     C89683   3.304   7.746  10.361 -0.4882  0.7912  0.8561
  665MOL0     C89684   3.179   7.684  10.300  0.5186 -0.0460  0.1002
  665MOL0    Cl89685   3.080   7.640  10.431 -0.1587 -0.1400 -0.0384
  665MOL0     C89686   3.997   8.419  10.429 -0.4201  0.2626  0.2674
  665MOL0     C89687   4.114   8.486  10.466  0.0311  0.8526 -0.3686
  665MOL0     O89688   4.466   8.327  10.533 -0.3647  0.1966 -0.4086
  665MOL0     C89689   4.508   8.660  10.635 -0.7170 -0.0844 -0.2368
  665MOL0     C89690   4.596   8.749  10.702 -0.8032 -0.7934  0.5865
  665MOL0     N89691   4.900   9.234  10.563 -0.1306  0.2293  0.0333
  665MOL0     N89692   4.862   9.347  10.524 -0.1817  0.7859 -0.5704
  665MOL0     C89693   5.614   9.640   9.836 -0.2752 -0.9955 -0.2579
  665MOL0     C89694   5.742   9.666   9.788  0.3217  0.5745  0.5081
  665MOL0     C89695   6.221   9.632   9.790 -0.1366 -0.9565  0.5121
  665MOL0     C89696   6.345   9.574   9.764  0.2898  0.5398 -0.2178
  665MOL0     C89697   6.466   9.638   9.766 -0.2127 -0.4840  0.5548
  665MOL0     C89698   6.473   9.771   9.793 -0.5661 -0.6837 -0.0129
  665MOL0     O89699   6.592   9.843   9.804  0.4004  0.7943  0.1655
  665MOL0     C89700   6.708   9.775   9.769  0.3512 -0.0610 -0.4120
  665MOL0     C89701   6.813   9.886   9.777 -0.7355  0.2376  0.3267
  665MOL0     C89702   6.963   9.843   9.749  0.4642 -0.2700 -0.2197
  665MOL0     C89703   7.056   9.958   9.762  0.2247 -0.9309  0.2465
  665MOL0     C89704   7.193   9.924   9.729 -0.3092 -0.4501 -0.5497
  665MOL0     C89705   7.308   9.896   9.706 -0.8029 -1.2396 -0.3683
  665MOL0     C89706   6.358   9.842   9.826  0.1788  0.1805 -0.2458
  665MOL0     C89707   6.234   9.779   9.814  0.8514  0.2070  0.2000
  665MOL0     H89708   5.917   9.479  10.009  0.1296  0.3745  2.3041
  665MOL0     H89709   5.695   9.418  10.080  1.3646  0.2944  0.8098
  665MOL0     H89710   5.466   9.339  10.031 -0.7298  0.0717 -2.1155
  665MOL0     H89711   5.470   9.458  10.152 -1.8111 -0.8057  1.0971
  665MOL0     H89712   5.228   9.410   9.990 -2.7437 -1.2806  0.3679
  665MOL0     H89713   5.262   9.327  10.139 -0.7421 -1.1817 -2.5009
  665MOL0     H89714   5.273   9.544  10.265  0.0014 -2.0740  0.3178
  665MOL0     H89715   5.231   9.630  10.111  1.5711  0.9362  0.5625
  665MOL0     H89716   5.015   9.511  10.118  0.1601 -2.7229 -1.3193
  665MOL0     H89717   5.046   9.419  10.262 -2.3751  1.2648  1.1987
  665MOL0     H89718   5.044   9.714  10.278  0.8341 -1.2141 -2.7337
  665MOL0     H89719   4.922   9.592  10.339  0.0960 -0.3767  2.0650
  665MOL0     H89720   5.093   9.477  10.452 -0.3385  0.2303  0.2577
  665MOL0     H89721   5.190   9.627  10.445 -1.2448  3.5002  1.1232
  665MOL0     H89722   5.088   9.653  10.661  2.4630 -0.1352 -0.5659
  665MOL0     H89723   5.006   9.760  10.552 -2.4978 -0.3170  0.2705
  665MOL0     H89724   4.822   9.621  10.534 -0.9533 -1.8293  0.1948
  665MOL0     H89725   4.860   9.615  10.713 -0.0856  0.4590  0.7998
  665MOL0     H89726   4.996   9.432  10.806  1.3434 -0.0845 -0.3427
  665MOL0     H89727   5.122   9.160  10.774  0.3301 -0.0967  0.4192
  665MOL0     H89728   4.975   9.156  10.879 -2.1448  0.6553 -0.2613
  665MOL0     H89729   5.053   8.963  10.652  0.3165 -3.9462  1.4149
  665MOL0     H89730   4.881   8.984  10.697  0.5838 -3.1124 -3.1235
  665MOL0     H89731   4.993   8.954  10.948  3.2429 -1.8523  2.0046
  665MOL0     H89732   5.125   8.898  10.839 -0.6597  2.3164 -1.8294
  665MOL0     H89733   4.968   8.710  10.916 -0.4225 -1.5476 -1.0891
  665MOL0     H89734   4.988   8.735  10.737 -3.1234 -3.0336 -1.0406
  665MOL0     H89735   4.864   8.548  10.733 -0.0819 -2.0213  0.5382
  665MOL0     H89736   4.749   8.396  10.451 -0.7737 -1.2611  0.3997
  665MOL0     H89737   4.843   8.350  10.598 -1.1784 -1.3085  0.8367
  665MOL0     H89738   4.681   8.284  10.570 -1.1505  0.1972  0.4169
  665MOL0     H89739   4.342   8.302  10.300 -1.2504 -1.2343 -1.5643
  665MOL0     H89740   4.143   8.186  10.228  2.6599 -0.5518  1.1917
  665MOL0     H89741   3.927   8.243  10.109 -0.8825 -1.2867 -1.7408
  665MOL0     H89742   3.952   8.095  10.175 -0.2179  1.0820 -2.5593
  665MOL0     H89743   3.684   8.224  10.132 -0.4603 -0.0696 -1.1264
  665MOL0     H89744   3.748   8.086  10.042 -2.2016 -1.0402  0.5313
  665MOL0     H89745   3.670   8.099  10.339  3.4700 -0.1123  0.2154
  665MOL0     H89746   3.742   7.957  10.261  0.0050 -0.5205 -2.4331
  665MOL0     H89747   3.474   8.080  10.187  2.3836  1.5309 -0.0134
  665MOL0     H89748   3.549   7.949  10.096  0.5120  0.5409 -0.7674
  665MOL0     H89749   3.458   7.964  10.381  0.2466 -0.4807 -0.1004
  665MOL0     H89750   3.564   7.825  10.330 -0.8646  0.6724  2.0440
  665MOL0     H89751   3.303   7.896  10.218  1.6877  0.3204 -2.4586
  665MOL0     H89752   3.405   7.747  10.165 -0.7829  0.7572 -1.3725
  665MOL0     H89753   3.281   7.817  10.441 -0.7713 -1.3898  2.8092
  665MOL0     H89754   3.371   7.667  10.396  0.8636  1.7878  0.6008
  665MOL0     H89755   3.204   7.604  10.230  2.3841  0.8855 -0.3589
  665MOL0     H89756   3.135   7.760  10.234  0.4394  0.0359  0.2459
  665MOL0     H89757   3.908   8.433  10.489 -0.7095  2.5167 -0.5887
  665MOL0     H89758   4.116   8.556  10.548  0.3151 -1.4525  1.7331
  665MOL0     H89759   4.408   8.694  10.611  0.3660  3.8701  0.2830
  665MOL0     H89760   4.568   8.850  10.727 -1.4629 -1.1403  1.2536
  665MOL0     H89761   5.539   9.705   9.794  0.8788  1.7874  1.7020
  665MOL0     H89762   5.749   9.742   9.711 -0.3408  3.2979  2.9642
  665MOL0     H89763   6.363   9.471   9.737  4.2811  1.0730 -0.2213
  665MOL0     H89764   6.544   9.570   9.733 -0.3223 -0.4554  0.2286
  665MOL0     H89765   6.740   9.693   9.833 -1.1721  1.2583  2.1853
  665MOL0     H89766   6.701   9.740   9.665  1.6253  0.6650 -0.7700
  665MOL0     H89767   6.810   9.931   9.876  1.5297 -1.3404  1.1810
  665MOL0     H89768   6.794   9.966   9.704 -2.1081  1.3942  1.8870
  665MOL0     H89769   6.971   9.801   9.648  0.3791 -0.0489 -0.3189
  665MOL0     H89770   6.989   9.764   9.819  1.8548 -1.4339 -1.9538
  665MOL0     H89771   7.055  10.005   9.861  1.4754 -1.3043  0.4432
  665MOL0     H89772   7.033  10.041   9.695  0.4268 -0.5403  0.6576
  665MOL0     H89773   7.403   9.858   9.676 -0.7899 -0.6227 -1.1474
  665MOL0     H89774   6.360   9.948   9.849 -0.9887  0.3617 -0.9224
  665MOL0     H89775   6.137   9.827   9.819  1.7646  2.2942 -0.9904
  666MOL0     O89776   0.642   1.540   6.972 -0.2550  0.3423  0.5388
  666MOL0     C89777   0.681   1.657   6.937  0.5126  0.8251  0.0903
  666MOL0     O89778   0.616   1.738   6.861 -0.1071 -0.4367  0.3160
  666MOL0     C89779   0.492   1.695   6.813 -0.5979  0.2751  0.4251
  666MOL0     C89780   0.479   1.578   6.728 -0.4428  0.1426  0.0332
  666MOL0     C89781   0.352   1.538   6.687 -0.2668 -0.7368  0.0208
  666MOL0     C89782   0.237   1.617   6.708  0.4949 -0.3567  1.4457
  666MOL0     O89783   0.125   1.575   6.645 -1.0110 -0.7307  0.0961
  666MOL0     C89784  -0.004   1.621   6.684 -0.9797  0.8198 -0.3648
  666MOL0     C89785  -0.109   1.552   6.614  0.6028  0.1490  0.6128
  666MOL0     C89786  -0.160   1.619   6.486 -0.2508  0.9960  1.1051
  666MOL0     C89787  -0.293   1.692   6.501  0.4010 -0.7307 -0.0208
  666MOL0     C89788  -0.328   1.762   6.367 -0.4631 -0.1395  0.6903
  666MOL0     C89789  -0.451   1.853   6.370  0.0795 -0.4155 -0.1369
  666MOL0     C89790  -0.582   1.789   6.428 -0.4083  0.0402  0.1653
  666MOL0     C89791  -0.638   1.668   6.344  0.8538  0.8172  0.5293
  666MOL0     N89792  -0.723   1.714   6.226 -0.0927  1.3051 -0.1893
  666MOL0     C89793  -0.698   1.764   6.100  0.1003  0.1519  1.2654
  666MOL0     C89794  -0.823   1.795   6.045 -0.1381  1.1994 -0.1556
  666MOL0     C89795  -0.857   1.840   5.909 -0.5933 -0.3017 -0.6473
  666MOL0     C89796  -0.807   1.737   5.805  0.1180 -0.0595  0.1196
  666MOL0     C89797  -0.917   1.639   5.767  0.1748  0.1162  0.0660
  666MOL0     C89798  -0.866   1.537   5.670  0.4022  0.0564  0.0601
  666MOL0     O89799  -0.971   1.442   5.628  0.5299 -0.0251 -0.1813
  666MOL0     C89800  -1.082   1.498   5.574 -0.1954 -1.0300 -0.1378
  666MOL0     C89801  -1.085   1.552   5.445  0.1183 -0.9976 -0.1052
  666MOL0     C89802  -1.200   1.603   5.390 -0.2028 -0.0418  0.2499
  666MOL0     C89803  -1.174   1.666   5.250 -0.5616  0.5557 -0.1214
  666MOL0     C89804  -1.324   1.601   5.456 -0.0950  0.1569  0.3970
  666MOL0     C89805  -1.449   1.655   5.396 -0.1893  0.7256 -0.3851
  666MOL0     O89806  -1.563   1.624   5.472  0.1410  0.1480  0.0554
  666MOL0     C89807  -1.678   1.695   5.454 -0.4376 -0.0691  0.0062
  666MOL0     C89808  -1.757   1.677   5.338 -0.7015  0.0962 -0.1225
  666MOL0     C89809  -1.870   1.754   5.313 -0.3366 -0.5507  0.2326
  666MOL0     C89810  -1.904   1.860   5.409 -0.0757  0.5428 -0.3406
  666MOL0     O89811  -2.009   1.946   5.372 -0.4019  0.2828  0.3397
  666MOL0     C89812  -2.084   2.005   5.474  0.7414 -0.0865 -0.8416
  666MOL0     C89813  -2.214   2.041   5.401  0.1143 -1.0207  0.7815
  666MOL0     C89814  -2.321   1.930   5.386 -0.6923 -0.2295 -0.8567
  666MOL0     C89815  -2.428   1.933   5.498  0.0760 -0.4475 -1.2990
  666MOL0     C89816  -2.513   1.806   5.502  1.3930  0.2038  0.0172
  666MOL0     C89817  -2.633   1.802   5.408  0.0190 -1.1152 -0.3232
  666MOL0     C89818  -2.765   1.867   5.460 -0.3285  0.0098  0.5410
  666MOL0     C89819  -2.868   1.847   5.342 -0.4862  0.0788 -0.4857
  666MOL0    Cl89820  -3.025   1.939   5.380  0.1364 -0.2482 -0.3726
  666MOL0     C89821  -1.831   1.877   5.520 -0.3323  0.2969  0.1908
  666MOL0     C89822  -1.716   1.792   5.544  0.2043  0.0279  0.8367
  666MOL0     O89823  -1.443   1.724   5.299  0.5714 -0.1543 -0.2873
  666MOL0     C89824  -1.318   1.542   5.587  0.3404 -0.4570  1.0580
  666MOL0     C89825  -1.199   1.493   5.642  0.9497 -0.2363 -0.2871
  666MOL0     N89826  -0.918   1.766   6.145  0.9332 -0.0767 -0.6049
  666MOL0     N89827  -0.848   1.724   6.250 -0.2350  1.1116 -0.4352
  666MOL0     C89828   0.251   1.735   6.783  0.9439  1.4578 -0.1450
  666MOL0     C89829   0.373   1.771   6.835 -1.2682 -1.5122 -0.5883
  666MOL0     C89830   0.813   1.704   6.984  1.0305 -0.0777 -0.6377
  666MOL0     C89831   0.854   1.839   6.958 -0.0535  0.1373 -0.4251
  666MOL0     C89832   0.985   1.879   6.995 -0.0496  0.0056 -0.3779
  666MOL0     C89833   1.073   1.782   7.043 -0.0070 -0.2651  0.0861
  666MOL0     O89834   1.207   1.793   7.072  0.5393  0.1095 -0.1014
  666MOL0     C89835   1.265   1.918   7.112 -0.3051  0.6490  0.5122
  666MOL0     C89836   1.302   1.900   7.257 -0.4011 -0.2936 -0.0911
  666MOL0     C89837   1.401   2.008   7.319  0.0602 -0.2690 -0.3459
  666MOL0     C89838   1.452   1.998   7.468  0.4667 -0.1049  0.0278
  666MOL0     C89839   1.552   1.896   7.471  0.5022  0.0812  0.5794
  666MOL0     C89840   1.628   1.801   7.495  0.2528 -0.1843  0.3551
  666MOL0     C89841   1.035   1.652   7.070  0.1919 -0.0969  0.1438
  666MOL0     C89842   0.900   1.617   7.056  0.2637 -0.2192  0.8241
  666MOL0     H89843   0.562   1.512   6.707  0.8497  1.2591  1.4332
  666MOL0     H89844   0.336   1.450   6.626 -2.4833 -1.1453  1.1052
  666MOL0     H89845  -0.031   1.595   6.787  3.4766  0.8533  1.0213
  666MOL0     H89846  -0.006   1.730   6.674 -1.1796  0.8853  0.3051
  666MOL0     H89847  -0.071   1.451   6.602 -2.4053 -0.9190 -0.9680
  666MOL0     H89848  -0.196   1.536   6.679 -1.2929  2.2164 -1.2322
  666MOL0     H89849  -0.080   1.684   6.450  1.4037 -1.6967 -0.3342
  666MOL0     H89850  -0.173   1.539   6.412  3.8150 -0.5035  1.7343
  666MOL0     H89851  -0.378   1.636   6.540  1.0872 -2.0682 -0.3678
  666MOL0     H89852  -0.284   1.780   6.565  0.3388  1.3837 -2.7483
  666MOL0     H89853  -0.238   1.822   6.349 -0.2749 -0.6384 -0.0440
  666MOL0     H89854  -0.335   1.691   6.285  2.0777  2.1308 -1.7083
  666MOL0     H89855  -0.439   1.946   6.426  0.0037 -0.5450  0.0929
  666MOL0     H89856  -0.470   1.862   6.263 -6.1354 -3.5381  0.2831
  666MOL0     H89857  -0.583   1.761   6.534 -1.9818 -2.0633 -0.3408
  666MOL0     H89858  -0.667   1.858   6.429  0.7624  1.5969  2.2224
  666MOL0     H89859  -0.682   1.595   6.413  2.8467  2.5852  3.9102
  666MOL0     H89860  -0.551   1.619   6.299  1.3095  0.7656  1.4430
  666MOL0     H89861  -0.606   1.773   6.044  0.1512 -0.4950  1.2454
  666MOL0     H89862  -0.961   1.870   5.899  0.4530  3.3875 -2.1793
  666MOL0     H89863  -0.809   1.937   5.893 -0.8824  0.0467  0.5068
  666MOL0     H89864  -0.718   1.682   5.835  0.4029  0.6827  0.6501
  666MOL0     H89865  -0.778   1.786   5.712 -0.8127 -0.0889 -0.1995
  666MOL0     H89866  -0.994   1.703   5.723 -0.1648  0.1195  0.6483
  666MOL0     H89867  -0.947   1.588   5.859 -0.6978 -2.0539 -1.3471
  666MOL0     H89868  -0.791   1.476   5.722  0.8598 -0.3599 -1.0587
  666MOL0     H89869  -0.820   1.571   5.577  0.9075 -0.6875  0.0295
  666MOL0     H89870  -0.996   1.546   5.384  1.9979  3.7260  1.7385
  666MOL0     H89871  -1.246   1.619   5.182 -0.4732 -0.0735  0.2173
  666MOL0     H89872  -1.200   1.773   5.250 -1.3439  0.3746 -0.2425
  666MOL0     H89873  -1.075   1.657   5.206 -0.3961  1.3814  0.0720
  666MOL0     H89874  -1.727   1.607   5.261  0.5811 -0.7495  1.1009
  666MOL0     H89875  -1.937   1.723   5.233 -0.0252 -1.5641  0.3481
  666MOL0     H89876  -2.103   1.929   5.550  2.2269 -0.2338 -0.5864
  666MOL0     H89877  -2.036   2.090   5.523 -1.5930  0.1500  1.2510
  666MOL0     H89878  -2.267   2.119   5.456 -0.5658 -0.8161 -0.1247
  666MOL0     H89879  -2.192   2.075   5.299  2.4301  0.6130  1.7522
  666MOL0     H89880  -2.269   1.835   5.398 -3.2387 -1.8868 -2.1334
  666MOL0     H89881  -2.379   1.932   5.293  0.8418  0.1719 -1.8315
  666MOL0     H89882  -2.368   1.927   5.590 -1.6808 -0.0210 -0.0730
  666MOL0     H89883  -2.498   2.017   5.494 -0.5521 -0.9285 -0.5735
  666MOL0     H89884  -2.552   1.789   5.603  0.8913 -0.1058 -0.2196
  666MOL0     H89885  -2.446   1.722   5.485 -0.1376 -1.2651  0.8961
  666MOL0     H89886  -2.602   1.867   5.325 -3.3811  0.1161 -0.7865
  666MOL0     H89887  -2.650   1.703   5.364 -4.0345 -1.0062  0.5962
  666MOL0     H89888  -2.753   1.974   5.480 -2.2591  0.0693  1.6098
  666MOL0     H89889  -2.792   1.816   5.553 -1.0419  1.1333  0.9736
  666MOL0     H89890  -2.899   1.743   5.338 -2.1570  0.3987  1.9583
  666MOL0     H89891  -2.822   1.888   5.251 -1.5334 -2.6832 -2.3960
  666MOL0     H89892  -1.865   1.959   5.582 -1.4021 -0.0303  0.0603
  666MOL0     H89893  -1.674   1.806   5.643 -5.5435  1.7164  3.4322
  666MOL0     H89894  -1.408   1.558   5.645  0.3380 -2.0458  1.5390
  666MOL0     H89895  -1.207   1.462   5.746 -1.8583 -4.5302 -1.4981
  666MOL0     H89896   0.166   1.800   6.802  0.9321  1.7261 -1.0554
  666MOL0     H89897   0.393   1.865   6.886 -0.3562 -2.5213  1.0011
  666MOL0     H89898   0.786   1.918   6.928  1.1860  0.9029 -1.3210
  666MOL0     H89899   1.004   1.985   6.977 -1.8521  0.5761  0.7428
  666MOL0     H89900   1.351   1.943   7.048 -1.4130 -0.3975 -1.4771
  666MOL0     H89901   1.199   2.004   7.099 -1.8728 -0.4785  0.6711
  666MOL0     H89902   1.350   1.803   7.267 -1.0901 -0.6269  0.0226
  666MOL0     H89903   1.211   1.894   7.319  0.7054 -4.6781  1.4430
  666MOL0     H89904   1.349   2.104   7.311  0.5330  0.4462  3.4757
  666MOL0     H89905   1.488   2.026   7.254 -1.7241 -1.2190 -3.1783
  666MOL0     H89906   1.371   1.990   7.541 -0.0882 -2.8208 -0.7674
  666MOL0     H89907   1.522   2.079   7.488 -1.2341  1.3921  0.2544
  666MOL0     H89908   1.695   1.723   7.525  0.9328  0.6728  1.1084
  666MOL0     H89909   1.113   1.582   7.097 -1.0112 -2.0653 -1.2600
  666MOL0     H89910   0.872   1.517   7.085  2.4095 -1.1727 -0.1403
  667MOL0     O89911   0.382   0.407   8.909  0.1845 -0.7563  0.1652
  667MOL0     C89912   0.454   0.341   8.981 -0.0661  0.1524 -0.6762
  667MOL0     O89913   0.426   0.284   9.102 -0.4223 -0.1020 -0.3410
  667MOL0     C89914   0.301   0.289   9.136 -0.2682  0.2278 -0.7139
  667MOL0     C89915   0.217   0.404   9.128  0.5116 -0.5612 -0.4976
  667MOL0     C89916   0.080   0.404   9.163  0.4379  0.5199  0.6057
  667MOL0     C89917   0.025   0.284   9.223  0.4426  0.8482  0.7717
  667MOL0     O89918  -0.099   0.276   9.281 -0.0942 -0.8284 -0.4908
  667MOL0     C89919  -0.203   0.331   9.198 -0.0593  0.5117  0.2315
  667MOL0     C89920  -0.249   0.464   9.241  0.2688  0.1069 -0.0957
  667MOL0     C89921  -0.372   0.456   9.339 -0.5548  0.0647 -0.1241
  667MOL0     C89922  -0.508   0.397   9.277 -0.3805 -0.2471 -0.2954
  667MOL0     C89923  -0.616   0.373   9.372  0.1429  0.5339  1.1325
  667MOL0     C89924  -0.755   0.370   9.302  0.0604 -0.3726 -0.4709
  667MOL0     C89925  -0.872   0.324   9.383 -0.2550  0.8048  0.8947
  667MOL0     C89926  -0.993   0.287   9.294 -0.4764  0.0587 -0.1326
  667MOL0     N89927  -1.119   0.314   9.351 -0.2794  0.5135 -0.8645
  667MOL0     C89928  -1.159   0.264   9.477  0.0738  0.7760  0.2035
  667MOL0     C89929  -1.281   0.325   9.481  0.8908  0.2577  0.4095
  667MOL0     C89930  -1.351   0.324   9.615 -0.3605 -0.0779  0.0596
  667MOL0     C89931  -1.502   0.360   9.615 -0.6533  0.7750  0.6970
  667MOL0     C89932  -1.571   0.358   9.746 -0.0974  0.1828 -0.3442
  667MOL0     C89933  -1.719   0.399   9.728 -0.8045 -0.1511  0.3215
  667MOL0     O89934  -1.789   0.389   9.845 -0.2987  0.4656 -0.6087
  667MOL0     C89935  -1.914   0.454   9.850  0.5064 -0.0062  0.1420
  667MOL0     C89936  -1.953   0.553   9.761  0.4280 -0.2659  0.5531
  667MOL0     C89937  -2.079   0.605   9.752 -0.1595 -0.6736  0.3818
  667MOL0     C89938  -2.092   0.713   9.640  0.2057 -0.1513  1.1128
  667MOL0     C89939  -2.183   0.561   9.833  0.2348 -0.4473  0.0429
  667MOL0     C89940  -2.323   0.602   9.830 -0.2951 -0.1781 -0.1326
  667MOL0     O89941  -2.397   0.538   9.920  0.1199 -0.4209  0.3303
  667MOL0     C89942  -2.530   0.547   9.889 -0.3020  0.4017  0.2620
  667MOL0     C89943  -2.600   0.503   9.779  0.6375  0.2650 -0.7702
  667MOL0     C89944  -2.736   0.505   9.765  1.4615  0.3501 -0.2744
  667MOL0     C89945  -2.806   0.577   9.864 -0.9724 -0.3107 -0.1416
  667MOL0     O89946  -2.938   0.609   9.864  0.4778  0.0566  0.5667
  667MOL0     C89947  -3.002   0.593   9.735 -0.3469 -0.4641  0.7093
  667MOL0     C89948  -3.141   0.663   9.739  0.5531 -0.6136 -0.7059
  667MOL0     C89949  -3.237   0.592   9.830  0.3147  0.5353 -0.2008
  667MOL0     C89950  -3.370   0.659   9.848  0.4739  0.8915 -0.6422
  667MOL0     C89951  -3.481   0.557   9.899  0.3911 -0.6158  0.2156
  667MOL0     C89952  -3.602   0.640   9.942  0.4108  0.4578  0.0734
  667MOL0     C89953  -3.743   0.583   9.914  0.0663  0.0127 -0.4217
  667MOL0     C89954  -3.851   0.698   9.933 -0.1742 -0.0982 -0.6074
  667MOL0    Cl89955  -3.887   0.767   9.776 -0.3243 -0.2627 -0.3053
  667MOL0     C89956  -2.740   0.627   9.976  0.0574 -0.0151  0.2143
  667MOL0     C89957  -2.605   0.600   9.992 -0.0342  0.3442 -0.1402
  667MOL0     O89958  -2.359   0.686   9.746 -0.4730  0.0554 -0.8547
  667MOL0     C89959  -2.142   0.467   9.934  0.3994  0.7231  0.0327
  667MOL0     C89960  -2.014   0.412   9.935 -0.5522  0.3909 -0.3630
  667MOL0     N89961  -1.301   0.410   9.368  0.0369 -0.0444 -0.0473
  667MOL0     N89962  -1.201   0.398   9.290  0.6355  0.2246 -0.2573
  667MOL0     C89963   0.108   0.173   9.229 -0.7134 -0.5127 -1.3235
  667MOL0     C89964   0.243   0.171   9.182 -0.7324 -0.7616  0.3271
  667MOL0     C89965   0.585   0.319   8.921  0.2616  0.5684  0.2424
  667MOL0     C89966   0.680   0.254   9.002 -0.0232  1.0399  0.1831
  667MOL0     C89967   0.808   0.238   8.952  0.2109  0.2448  0.3250
  667MOL0     C89968   0.846   0.275   8.827  0.1249 -0.6541  0.0040
  667MOL0     O89969   0.975   0.259   8.773 -0.2938  0.1499  0.0774
  667MOL0     C89970   1.078   0.209   8.858 -0.1958 -0.0429  0.5697
  667MOL0     C89971   1.205   0.229   8.780 -0.2189  0.7057  0.2836
  667MOL0     C89972   1.233   0.380   8.739  0.0802 -0.3144  0.1204
  667MOL0     C89973   1.348   0.404   8.636 -0.3944 -0.1030  0.3082
  667MOL0     C89974   1.479   0.390   8.704  0.8129 -0.4791 -0.0828
  667MOL0     C89975   1.582   0.380   8.764  1.1189  0.4248 -0.0066
  667MOL0     C89976   0.744   0.335   8.741 -0.7256 -0.4631 -0.5146
  667MOL0     C89977   0.616   0.350   8.790 -0.9388 -0.7970 -0.0433
  667MOL0     H89978   0.245   0.504   9.097  0.1133 -0.8970 -2.0753
  667MOL0     H89979   0.022   0.494   9.148 -2.3355 -1.4947 -1.9125
  667MOL0     H89980  -0.180   0.330   9.091 -2.0020  0.3920 -0.2301
  667MOL0     H89981  -0.290   0.266   9.203 -0.6963  1.3729  0.6376
  667MOL0     H89982  -0.172   0.522   9.291 -0.8091 -0.2227  2.0778
  667MOL0     H89983  -0.277   0.526   9.156 -2.1177  1.2535  1.4180
  667MOL0     H89984  -0.339   0.402   9.428  0.8074  1.2986  0.1585
  667MOL0     H89985  -0.401   0.555   9.377  0.6592  0.3152  0.1898
  667MOL0     H89986  -0.546   0.475   9.210 -0.7916  0.1156  0.3490
  667MOL0     H89987  -0.493   0.300   9.231 -0.8716 -1.1071  1.2754
  667MOL0     H89988  -0.602   0.276   9.420 -0.6353 -0.0902  0.1317
  667MOL0     H89989  -0.605   0.451   9.448  1.6475  0.3206  1.1731
  667MOL0     H89990  -0.782   0.465   9.256  2.6474  0.5317 -0.3102
  667MOL0     H89991  -0.740   0.293   9.225  0.2668 -0.4084 -0.3955
  667MOL0     H89992  -0.853   0.233   9.440  0.4979 -0.4297 -1.2219
  667MOL0     H89993  -0.896   0.401   9.458 -3.1303  1.8778 -0.9783
  667MOL0     H89994  -0.995   0.181   9.266 -1.8547 -0.0953  0.4859
  667MOL0     H89995  -0.982   0.340   9.199 -0.9168  0.8435  0.2388
  667MOL0     H89996  -1.111   0.195   9.545 -0.5990  0.1128  0.0219
  667MOL0     H89997  -1.337   0.229   9.668  0.4065  0.4333  0.8063
  667MOL0     H89998  -1.308   0.400   9.681  0.8587 -0.2382 -0.5296
  667MOL0     H89999  -1.550   0.296   9.540 -0.9905  3.1593 -1.2625
  667MOL0     H90000  -1.510   0.464   9.581 -1.2951  1.3695  2.5936
  667MOL0     H90001  -1.522   0.424   9.817  1.2692 -1.2535  0.1040
  667MOL0     H90002  -1.572   0.255   9.783  0.7641  0.7513  1.3670
  667MOL0     H90003  -1.765   0.338   9.650 -0.3301 -1.5702  1.1109
  667MOL0     H90004  -1.714   0.503   9.696 -0.5272  0.1749  1.3829
  667MOL0     H90005  -1.885   0.594   9.686  2.2278 -0.8216  1.8142
  667MOL0     H90006  -1.997   0.765   9.625 -0.6785  1.1213 -0.4143
  667MOL0     H90007  -2.136   0.670   9.550 -2.4033  2.2657  1.0964
  667MOL0     H90008  -2.153   0.803   9.655  0.8360  0.2076  1.5495
  667MOL0     H90009  -2.554   0.458   9.691 -0.6269  1.1009 -1.8872
  667MOL0     H90010  -2.797   0.455   9.692 -4.7691  4.2625  1.4901
  667MOL0     H90011  -2.941   0.648   9.663 -0.8963  2.1802  2.1225
  667MOL0     H90012  -3.013   0.489   9.702  0.4804 -0.5308  0.6176
  667MOL0     H90013  -3.120   0.764   9.775 -0.8184 -0.7708  0.6375
  667MOL0     H90014  -3.178   0.659   9.637 -0.4420 -1.4774 -0.3323
  667MOL0     H90015  -3.177   0.585   9.921  3.5113  1.7525 -2.0192
  667MOL0     H90016  -3.250   0.488   9.797  0.0090  0.4331  0.2321
  667MOL0     H90017  -3.363   0.744   9.916  1.6573 -1.1047  1.8564
  667MOL0     H90018  -3.410   0.705   9.757 -1.4935 -1.4277 -1.0498
  667MOL0     H90019  -3.441   0.498   9.982 -1.9941  0.1903  2.0639
  667MOL0     H90020  -3.522   0.496   9.818 -0.2040 -1.7034  1.3026
  667MOL0     H90021  -3.586   0.670  10.047 -1.6698 -1.3331  0.9846
  667MOL0     H90022  -3.607   0.738   9.893 -3.3796  0.2733 -0.1892
  667MOL0     H90023  -3.772   0.504   9.984 -0.7608 -0.5250 -1.3514
  667MOL0     H90024  -3.745   0.537   9.815  0.2773 -1.5539  0.2682
  667MOL0     H90025  -3.810   0.782   9.989 -1.9423  1.1198 -1.0573
  667MOL0     H90026  -3.936   0.667   9.994  1.1330  1.7435  2.3394
  667MOL0     H90027  -2.795   0.678  10.054  0.9989  1.8012 -0.2312
  667MOL0     H90028  -2.551   0.627  10.082  0.1957 -0.5661 -0.0018
  667MOL0     H90029  -2.209   0.422  10.007 -1.6951  3.8644  0.2479
  667MOL0     H90030  -1.995   0.327  10.000  1.2846  0.8840 -0.1715
  667MOL0     H90031   0.063   0.086   9.278 -1.2610 -1.4807 -3.4466
  667MOL0     H90032   0.290   0.074   9.181 -1.7492 -1.3138 -2.6180
  667MOL0     H90033   0.659   0.225   9.105 -1.4628 -1.9486 -0.8294
  667MOL0     H90034   0.886   0.214   9.024  1.6172  5.1972  0.8249
  667MOL0     H90035   1.084   0.279   8.942 -0.4431  0.6488  0.0150
  667MOL0     H90036   1.054   0.106   8.885  0.4422 -0.5599 -0.7973
  667MOL0     H90037   1.212   0.161   8.695 -1.5096  1.6103 -0.5887
  667MOL0     H90038   1.292   0.203   8.840  1.3156 -0.3868 -2.2364
  667MOL0     H90039   1.247   0.434   8.833 -0.9583  1.1085 -0.4963
  667MOL0     H90040   1.138   0.425   8.705 -0.0452  1.8106  2.9105
  667MOL0     H90041   1.340   0.507   8.600 -2.5555 -0.8265 -1.5476
  667MOL0     H90042   1.355   0.334   8.553 -1.4882  0.4797 -0.3081
  667MOL0     H90043   1.665   0.342   8.820 -0.6411 -2.3192  0.9328
  667MOL0     H90044   0.786   0.369   8.647  2.1369 -0.2172  0.7448
  667MOL0     H90045   0.541   0.394   8.725 -0.7273  1.1975  0.9734
  668MOL0     O90046  10.708   7.310   1.798  0.5119  0.3715  0.1871
  668MOL0     C90047  10.729   7.426   1.846 -0.3067  0.7683  0.0779
  668MOL0     O90048  10.831   7.509   1.809 -0.1466  0.4337 -0.2226
  668MOL0     C90049  10.925   7.455   1.724 -0.2512 -0.3176  0.1444
  668MOL0     C90050  10.926   7.488   1.583 -0.2762 -0.0179 -0.0867
  668MOL0     C90051  11.014   7.430   1.497  0.1979  0.0781 -0.9456
  668MOL0     C90052  11.124   7.358   1.542 -0.5275  0.2539 -0.2104
  668MOL0     O90053  11.219   7.299   1.457  0.6091  0.6863  0.1832
  668MOL0     C90054  11.277   7.387   1.358  0.4155  0.5894 -0.3340
  668MOL0     C90055  11.318   7.312   1.238 -0.3836 -0.9022  0.1255
  668MOL0     C90056  11.209   7.238   1.169 -0.3181 -0.2700  0.1425
  668MOL0     C90057  11.267   7.168   1.044 -0.7326 -0.0992  0.4254
  668MOL0     C90058  11.154   7.084   0.987 -0.1890  0.1915 -0.4104
  668MOL0     C90059  11.209   7.003   0.856 -0.2161 -0.1245 -0.4323
  668MOL0     C90060  11.121   6.882   0.827  0.4710 -1.1496 -0.9775
  668MOL0     C90061  11.181   6.791   0.721 -0.2149  1.0893  0.0778
  668MOL0     N90062  11.213   6.843   0.586 -0.5842 -0.2533 -0.9172
  668MOL0     C90063  11.149   6.947   0.518  0.1234  1.4286 -0.1876
  668MOL0     C90064  11.212   6.949   0.395  0.4715 -0.3979  0.8453
  668MOL0     C90065  11.187   7.041   0.280  0.2201  0.0293 -0.1163
  668MOL0     C90066  11.272   7.168   0.297 -0.1415  0.3189 -0.3549
  668MOL0     C90067  11.220   7.283   0.219  0.3363  0.0051  0.5739
  668MOL0     C90068  11.247   7.284   0.067  0.2963  0.9229  0.8415
  668MOL0     O90069  11.201   7.167  -0.008 -0.1402 -0.6102  0.1567
  668MOL0     C90070  11.064   7.159  -0.037  0.3964  0.2074 -0.4849
  668MOL0     C90071  11.025   7.063  -0.129  0.5106 -0.3429  0.2061
  668MOL0     C90072  10.888   7.033  -0.156 -0.7087 -1.0706 -0.4526
  668MOL0     C90073  10.866   6.915  -0.245 -0.2699 -0.6112 -0.6785
  668MOL0     C90074  10.780   7.107  -0.095 -0.1987  0.8347 -0.4311
  668MOL0     C90075  10.635   7.086  -0.115  0.1213 -0.5396 -0.5327
  668MOL0     O90076  10.550   7.145  -0.023 -0.0621 -0.2035 -0.0967
  668MOL0     C90077  10.414   7.142  -0.040  1.1605 -0.1082 -0.1055
  668MOL0     C90078  10.343   7.022  -0.025 -0.0176  0.1485 -0.7372
  668MOL0     C90079  10.208   7.029  -0.045 -0.7192  0.1177  0.2538
  668MOL0     C90080  10.136   7.143  -0.066  0.4261 -0.0639  0.1347
  668MOL0     O90081  10.004   7.152  -0.103 -0.2387 -0.3141 -0.6717
  668MOL0     C90082   9.897   7.183  -0.007 -0.1690 -0.0378  0.2698
  668MOL0     C90083   9.770   7.234  -0.078  0.2057 -0.0643 -0.3259
  668MOL0     C90084   9.664   7.267   0.027 -0.2560 -0.1629 -0.0361
  668MOL0     C90085   9.539   7.339  -0.034  0.5996  0.3866 -0.3635
  668MOL0     C90086   9.461   7.406   0.074 -0.7025 -0.2087  0.2373
  668MOL0     C90087   9.333   7.467   0.028  0.5331 -0.4376 -0.7761
  668MOL0     C90088   9.340   7.599  -0.049  0.0738 -0.0932 -0.8399
  668MOL0     C90089   9.208   7.681  -0.052 -0.1700 -0.9195 -0.3523
  668MOL0    Cl90090   9.057   7.574  -0.072 -0.1022 -0.2541 -0.0691
  668MOL0     C90091  10.210   7.263  -0.068  0.6723  0.1389  0.1361
  668MOL0     C90092  10.344   7.262  -0.061 -0.3286 -0.1233 -0.3676
  668MOL0     O90093  10.596   7.035  -0.220  0.6633 -0.4572  0.3815
  668MOL0     C90094  10.822   7.221  -0.022  0.3275 -1.2253 -0.4900
  668MOL0     C90095  10.961   7.253   0.011 -0.5882  0.5204  0.9454
  668MOL0     N90096  11.315   6.859   0.395  0.1908  0.1441 -0.1706
  668MOL0     N90097  11.321   6.798   0.510 -0.3650  0.4612 -0.4204
  668MOL0     C90098  11.133   7.332   1.676  0.3589 -0.0246  0.1752
  668MOL0     C90099  11.035   7.369   1.766  0.5299 -0.4120 -1.3242
  668MOL0     C90100  10.610   7.468   1.931  0.1583 -0.4900 -1.1196
  668MOL0     C90101  10.529   7.369   1.994 -0.4335  0.2734 -0.6299
  668MOL0     C90102  10.428   7.399   2.087 -0.5084  0.1795  0.4196
  668MOL0     C90103  10.399   7.531   2.111  0.5459 -0.4463  1.0252
  668MOL0     O90104  10.304   7.553   2.208 -1.0723 -0.4684  0.2693
  668MOL0     C90105  10.279   7.695   2.247 -0.7883  0.2106 -0.2139
  668MOL0     C90106  10.200   7.696   2.376 -0.2194 -0.1099  0.5174
  668MOL0     C90107  10.061   7.617   2.363  0.5191 -0.0007  0.0215
  668MOL0     C90108   9.988   7.621   2.493 -0.2590  0.3536  0.2924
  668MOL0     C90109   9.924   7.751   2.526 -0.6908  0.7644 -0.6566
  668MOL0     C90110   9.855   7.849   2.543  1.2514  0.3075  0.4697
  668MOL0     C90111  10.483   7.629   2.048  0.3628  0.1409 -0.4073
  668MOL0     C90112  10.592   7.602   1.959 -0.2839  0.3636  0.5397
  668MOL0     H90113  10.851   7.557   1.545  2.4401  2.9667 -0.4069
  668MOL0     H90114  10.997   7.461   1.394 -2.0642 -0.0909 -0.6590
  668MOL0     H90115  11.204   7.465   1.331 -1.5177 -1.3655 -1.0864
  668MOL0     H90116  11.361   7.442   1.402  0.0927 -1.1608  2.7649
  668MOL0     H90117  11.358   7.374   1.157  1.0315 -0.7986  0.8707
  668MOL0     H90118  11.405   7.250   1.260  0.3703  0.5260  1.2803
  668MOL0     H90119  11.160   7.167   1.236 -1.0731 -0.1863 -0.3038
  668MOL0     H90120  11.123   7.299   1.140 -1.3967 -2.1757 -0.9441
  668MOL0     H90121  11.295   7.246   0.973 -1.3828  1.1879  1.5139
  668MOL0     H90122  11.349   7.103   1.075 -0.0308  0.7954  0.4602
  668MOL0     H90123  11.112   7.015   1.061  0.1035  0.4407 -0.0104
  668MOL0     H90124  11.068   7.145   0.959 -1.3229 -0.1516  2.1022
  668MOL0     H90125  11.216   7.069   0.769 -0.3027  0.6071  0.1082
  668MOL0     H90126  11.305   6.959   0.882  0.1460 -1.0067 -3.0317
  668MOL0     H90127  11.125   6.820   0.917  3.0120 -1.7071 -1.4014
  668MOL0     H90128  11.029   6.930   0.792 -0.0549  0.1311  1.8505
  668MOL0     H90129  11.122   6.699   0.715  1.3393  0.0264  0.3090
  668MOL0     H90130  11.271   6.753   0.771 -0.4972  0.1634 -0.0889
  668MOL0     H90131  11.069   7.005   0.563  0.1162  0.0460  1.7058
  668MOL0     H90132  11.218   6.976   0.198 -1.6746 -3.1873  1.5582
  668MOL0     H90133  11.082   7.061   0.256 -0.7560 -1.0003  2.9274
  668MOL0     H90134  11.375   7.150   0.263  0.4109  1.3478  0.7148
  668MOL0     H90135  11.270   7.198   0.402 -0.0943 -0.3370 -0.1608
  668MOL0     H90136  11.284   7.366   0.250  0.9840  0.5003 -1.8869
  668MOL0     H90137  11.115   7.303   0.245  0.3070  2.5638 -1.1626
  668MOL0     H90138  11.353   7.303   0.050  0.4694 -0.5927  0.0094
  668MOL0     H90139  11.199   7.366   0.013 -0.3369  0.5924  0.8904
  668MOL0     H90140  11.110   7.003  -0.160  1.6285 -0.0898  2.5760
  668MOL0     H90141  10.958   6.856  -0.251 -0.3168 -0.5854 -1.7638
  668MOL0     H90142  10.786   6.849  -0.208 -1.2780  1.4041  0.8978
  668MOL0     H90143  10.855   6.958  -0.344  1.6365 -0.3434 -0.8099
  668MOL0     H90144  10.387   6.926  -0.001  2.9291  1.7477  0.8222
  668MOL0     H90145  10.146   6.939  -0.043 -1.7377  0.8041  1.9684
  668MOL0     H90146   9.887   7.099   0.063  2.8737 -1.3459 -0.7104
  668MOL0     H90147   9.930   7.278   0.037 -0.9914 -0.0124  0.8643
  668MOL0     H90148   9.795   7.322  -0.138  2.0554 -1.4703 -1.7466
  668MOL0     H90149   9.732   7.166  -0.155  0.3250  1.2350 -1.5782
  668MOL0     H90150   9.705   7.314   0.116  2.5939 -3.2058  0.4785
  668MOL0     H90151   9.641   7.175   0.082  1.3891  0.6272  2.0877
  668MOL0     H90152   9.566   7.411  -0.111  0.1998  0.2692 -0.6134
  668MOL0     H90153   9.477   7.265  -0.086 -1.6620  0.2640  2.2483
  668MOL0     H90154   9.526   7.471   0.133  0.7085 -3.0641  2.1030
  668MOL0     H90155   9.437   7.322   0.141  1.5179 -2.8221 -1.9774
  668MOL0     H90156   9.279   7.390  -0.028 -2.0043 -0.2612  1.2628
  668MOL0     H90157   9.269   7.478   0.116  1.6628 -2.7528  0.4522
  668MOL0     H90158   9.367   7.574  -0.152 -1.9196  0.8765 -1.6625
  668MOL0     H90159   9.414   7.661   0.002 -1.1333  1.1919 -0.6037
  668MOL0     H90160   9.212   7.754  -0.134  0.3410 -3.0040 -2.2685
  668MOL0     H90161   9.207   7.721   0.050  1.6226 -4.2705  1.1175
  668MOL0     H90162  10.169   7.362  -0.087 -1.2730  0.2551  3.9092
  668MOL0     H90163  10.413   7.346  -0.053  0.7038 -1.0178  0.4704
  668MOL0     H90164  10.754   7.291   0.025  0.4340  0.8196 -3.1423
  668MOL0     H90165  10.972   7.333   0.084 -0.9622  0.9704  0.5217
  668MOL0     H90166  11.215   7.270   1.712  0.0063 -2.7783 -3.2112
  668MOL0     H90167  11.060   7.347   1.870 -1.0879 -0.8618 -1.0122
  668MOL0     H90168  10.565   7.268   1.976  0.5449  0.4441  0.2820
  668MOL0     H90169  10.394   7.320   2.152  2.3256 -0.8502  0.7953
  668MOL0     H90170  10.374   7.749   2.252 -0.5275 -0.1754 -0.9092
  668MOL0     H90171  10.208   7.746   2.180  0.3581 -0.3899 -1.9620
  668MOL0     H90172  10.172   7.801   2.387 -0.3007 -0.1182  0.3935
  668MOL0     H90173  10.266   7.662   2.457  1.6778  0.9284 -0.5118
  668MOL0     H90174  10.089   7.516   2.332  3.5373  0.3505  1.2185
  668MOL0     H90175   9.998   7.667   2.288 -0.7148  0.5611  1.3966
  668MOL0     H90176  10.058   7.610   2.577  1.6171 -0.5427 -1.3038
  668MOL0     H90177   9.915   7.542   2.512  0.7357  0.0757  3.5699
  668MOL0     H90178   9.794   7.937   2.555 -2.6697 -1.3462 -4.0126
  668MOL0     H90179  10.465   7.734   2.071 -1.3693 -0.5980  2.1950
  668MOL0     H90180  10.655   7.682   1.924 -0.9042  2.0292  2.9783
  669MOL0     O90181   1.918   2.970   8.871  0.3408  0.1730  0.3536
  669MOL0     C90182   1.956   3.065   8.803  0.7691  1.4948 -0.4417
  669MOL0     O90183   1.885   3.176   8.765  0.9303  0.2851  0.4410
  669MOL0     C90184   1.746   3.182   8.785 -1.0266 -1.2491 -0.4776
  669MOL0     C90185   1.683   3.292   8.715 -0.8460 -0.2600  0.7745
  669MOL0     C90186   1.553   3.340   8.749 -0.0512  0.1015 -0.2495
  669MOL0     C90187   1.474   3.254   8.828  0.5353  0.1734  0.8936
  669MOL0     O90188   1.333   3.268   8.848  0.1988  0.1366  0.0317
  669MOL0     C90189   1.275   3.395   8.812 -0.1014 -0.5629  0.3803
  669MOL0     C90190   1.221   3.393   8.671  0.2799 -0.0095  0.1248
  669MOL0     C90191   1.161   3.254   8.630  0.4071 -0.0901  0.5626
  669MOL0     C90192   1.087   3.267   8.496 -0.0909 -0.5343  0.8469
  669MOL0     C90193   0.986   3.165   8.458 -0.1342  0.6602 -0.4811
  669MOL0     C90194   0.918   3.199   8.320  0.0378  0.3810  0.3322
  669MOL0     C90195   0.843   3.080   8.258  0.0384  0.2347  0.3982
  669MOL0     C90196   0.746   3.003   8.352  0.3486  0.5047 -0.4413
  669MOL0     N90197   0.617   3.070   8.380 -1.0467  0.0714 -0.0974
  669MOL0     C90198   0.520   3.089   8.286 -0.2706  0.3412 -0.6359
  669MOL0     C90199   0.418   3.153   8.343  0.0488  0.2545 -0.7989
  669MOL0     C90200   0.285   3.190   8.270  0.4528 -0.6216 -0.1913
  669MOL0     C90201   0.156   3.205   8.358 -0.2631  0.5203  0.2217
  669MOL0     C90202   0.040   3.214   8.263  0.7007  0.1083 -1.0782
  669MOL0     C90203  -0.087   3.205   8.349 -0.3330 -0.0870 -0.9133
  669MOL0     O90204  -0.194   3.230   8.267 -0.0918 -0.4926  0.5875
  669MOL0     C90205  -0.324   3.202   8.310 -0.2648 -0.5052  0.1656
  669MOL0     C90206  -0.365   3.133   8.417  0.3326 -0.0648 -0.2997
  669MOL0     C90207  -0.500   3.119   8.462 -0.3250 -0.3469 -0.0145
  669MOL0     C90208  -0.536   3.035   8.576 -0.2763  0.0743 -0.5487
  669MOL0     C90209  -0.600   3.198   8.382  0.1569 -0.7559 -0.0046
  669MOL0     C90210  -0.746   3.209   8.408 -0.5140  1.3794 -1.5512
  669MOL0     O90211  -0.809   3.296   8.331  0.4406 -0.6566  0.0705
  669MOL0     C90212  -0.943   3.290   8.298 -0.1684 -0.6079  0.0019
  669MOL0     C90213  -1.010   3.404   8.259  0.5075 -0.0991 -0.4162
  669MOL0     C90214  -1.150   3.391   8.216  0.0224  0.6459  0.1472
  669MOL0     C90215  -1.215   3.268   8.209  0.2311 -0.6589 -0.3462
  669MOL0     O90216  -1.349   3.264   8.172  0.1083  0.4922 -0.0668
  669MOL0     C90217  -1.418   3.149   8.225  0.2132 -1.0680  0.3190
  669MOL0     C90218  -1.566   3.161   8.188 -0.1751 -0.0743 -0.0889
  669MOL0     C90219  -1.638   3.286   8.231 -0.3143  0.1806 -0.3891
  669MOL0     C90220  -1.791   3.281   8.193 -0.3261  0.5059 -0.8119
  669MOL0     C90221  -1.857   3.413   8.196 -0.2164  0.1737  0.6529
  669MOL0     C90222  -1.809   3.506   8.076  0.0044 -0.0645 -1.0401
  669MOL0     C90223  -1.865   3.647   8.102 -0.2814  0.9511 -0.9511
  669MOL0     C90224  -1.778   3.743   8.022  0.4675  0.7477 -0.2958
  669MOL0    Cl90225  -1.749   3.681   7.857  0.1266 -0.1480  0.5510
  669MOL0     C90226  -1.143   3.149   8.237  0.9411  0.1419 -0.8528
  669MOL0     C90227  -1.004   3.168   8.282  0.2645 -0.0377 -0.6465
  669MOL0     O90228  -0.799   3.150   8.508 -0.1351 -0.5078  0.0477
  669MOL0     C90229  -0.551   3.256   8.260  0.9370  0.7658 -0.2137
  669MOL0     C90230  -0.416   3.264   8.231  0.7658 -0.2326  0.3355
  669MOL0     N90231   0.453   3.170   8.482 -0.2272  0.0174  0.7277
  669MOL0     N90232   0.571   3.115   8.503 -0.1272 -0.2986 -0.3453
  669MOL0     C90233   1.532   3.140   8.887 -0.0479 -0.0644  0.0504
  669MOL0     C90234   1.665   3.115   8.878  0.2892  0.6045  0.4965
  669MOL0     C90235   2.088   3.052   8.750 -0.3236  0.4142 -0.0503
  669MOL0     C90236   2.164   2.934   8.746  0.3434 -0.0414 -0.0997
  669MOL0     C90237   2.296   2.933   8.700  0.0047 -0.0655  0.1222
  669MOL0     C90238   2.360   3.057   8.672  0.3146  0.9133 -0.0617
  669MOL0     O90239   2.488   3.070   8.635 -0.9985 -0.4222 -0.1510
  669MOL0     C90240   2.561   2.948   8.618  0.8371  0.5750 -0.0841
  669MOL0     C90241   2.707   2.988   8.583 -0.0635 -0.4065 -0.0718
  669MOL0     C90242   2.812   2.879   8.574  0.4221  0.2532  0.4214
  669MOL0     C90243   2.949   2.919   8.625  0.1498 -0.0636 -0.7019
  669MOL0     C90244   3.040   2.811   8.594  0.2541  0.2376  0.2565
  669MOL0     C90245   3.098   2.704   8.565  0.0900  0.4549  0.7245
  669MOL0     C90246   2.288   3.175   8.683 -0.1976 -0.0700  1.1769
  669MOL0     C90247   2.155   3.174   8.713  0.1875  0.6172 -0.0279
  669MOL0     H90248   1.742   3.346   8.642 -0.6840  0.5035  1.4586
  669MOL0     H90249   1.510   3.428   8.701  1.5364  1.0736  0.0404
  669MOL0     H90250   1.184   3.405   8.871 -1.9030 -0.4487 -2.2703
  669MOL0     H90251   1.345   3.475   8.837 -2.2290  0.8137  2.3170
  669MOL0     H90252   1.146   3.468   8.646  0.3551 -0.4103 -1.3914
  669MOL0     H90253   1.304   3.417   8.604  1.3188 -1.7492  0.7353
  669MOL0     H90254   1.232   3.171   8.625  0.7558  0.2707 -1.7183
  669MOL0     H90255   1.093   3.224   8.710  0.8664 -4.5197 -0.4612
  669MOL0     H90256   1.029   3.359   8.506 -0.5263 -0.6468 -0.4447
  669MOL0     H90257   1.150   3.284   8.408 -2.4709  2.2915 -0.4605
  669MOL0     H90258   1.044   3.072   8.463  1.0397  1.4366  3.0844
  669MOL0     H90259   0.911   3.164   8.538 -1.3329 -0.8519 -1.5603
  669MOL0     H90260   0.846   3.281   8.315  0.3479  0.5787 -1.4980
  669MOL0     H90261   1.002   3.235   8.261 -2.2941  2.3682 -2.0551
  669MOL0     H90262   0.784   3.105   8.170  1.7058  0.5433 -0.6637
  669MOL0     H90263   0.920   3.015   8.217 -0.2005 -0.1035  0.4817
  669MOL0     H90264   0.799   2.980   8.445  0.5527 -0.4433 -0.7787
  669MOL0     H90265   0.719   2.909   8.301 -1.5591  0.4411  0.6111
  669MOL0     H90266   0.521   3.052   8.184  0.9287  3.3693 -1.8420
  669MOL0     H90267   0.284   3.287   8.220  0.5348  0.9676  2.7031
  669MOL0     H90268   0.271   3.114   8.192 -0.5052  0.3179 -0.9707
  669MOL0     H90269   0.162   3.291   8.425  1.3974 -0.0852  0.9025
  669MOL0     H90270   0.153   3.112   8.415  3.2440 -0.3625 -0.8123
  669MOL0     H90271   0.044   3.136   8.187  2.1148 -0.9330  0.0076
  669MOL0     H90272   0.038   3.308   8.208 -2.5257 -0.6076 -2.4370
  669MOL0     H90273  -0.085   3.282   8.427  0.5654 -1.5012  0.5334
  669MOL0     H90274  -0.094   3.109   8.399  1.1208  2.3455  4.7753
  669MOL0     H90275  -0.293   3.083   8.481 -0.3067 -1.4878 -0.6466
  669MOL0     H90276  -0.452   2.978   8.618 -2.5253 -2.6069  0.5826
  669MOL0     H90277  -0.564   3.103   8.657  2.7286  1.6498 -0.6735
  669MOL0     H90278  -0.613   2.963   8.550  0.7083 -2.5444  2.9725
  669MOL0     H90279  -0.964   3.502   8.262 -0.6703  0.5139 -1.6188
  669MOL0     H90280  -1.210   3.477   8.190 -2.4326 -1.4029 -1.4399
  669MOL0     H90281  -1.379   3.062   8.171 -0.3071  0.2377 -2.3196
  669MOL0     H90282  -1.399   3.148   8.333  0.3851  1.1063  0.3542
  669MOL0     H90283  -1.565   3.157   8.078 -1.5965 -0.3550 -0.1072
  669MOL0     H90284  -1.624   3.075   8.221  1.6822 -1.8203 -1.1256
  669MOL0     H90285  -1.582   3.362   8.176 -0.7229 -0.0229 -1.1075
  669MOL0     H90286  -1.630   3.298   8.339 -1.6217 -0.6278 -0.1719
  669MOL0     H90287  -1.795   3.239   8.093  1.2734 -0.4191 -0.5242
  669MOL0     H90288  -1.850   3.224   8.266 -1.2139  0.1678 -1.7800
  669MOL0     H90289  -1.833   3.463   8.290  1.8377  0.5864 -0.0339
  669MOL0     H90290  -1.966   3.406   8.193 -0.1952 -0.3465  0.9313
  669MOL0     H90291  -1.699   3.508   8.077  0.0651 -1.3214  1.6451
  669MOL0     H90292  -1.843   3.461   7.983 -1.3082 -0.7832 -0.2374
  669MOL0     H90293  -1.870   3.683   8.205  0.9896  0.5173 -0.7145
  669MOL0     H90294  -1.969   3.635   8.072 -0.5538 -1.2250  0.6481
  669MOL0     H90295  -1.682   3.766   8.069  1.0826 -0.3729 -0.9532
  669MOL0     H90296  -1.837   3.835   8.014 -1.3163 -0.2846  0.2585
  669MOL0     H90297  -1.185   3.049   8.237  2.1930 -0.3995 -1.4070
  669MOL0     H90298  -0.944   3.079   8.295 -1.1209 -1.0220 -0.8138
  669MOL0     H90299  -0.613   3.313   8.191  0.4043  0.0619 -0.3324
  669MOL0     H90300  -0.391   3.317   8.139 -0.5924 -1.5438 -0.8469
  669MOL0     H90301   1.468   3.084   8.955 -2.2089  1.7682 -0.3402
  669MOL0     H90302   1.699   3.034   8.942  0.1512 -0.1307 -0.3349
  669MOL0     H90303   2.112   2.843   8.773 -1.6975  2.0596  3.9906
  669MOL0     H90304   2.344   2.838   8.681 -1.5218 -1.2888  2.0229
  669MOL0     H90305   2.559   2.896   8.715 -2.0799  3.4301  1.6039
  669MOL0     H90306   2.530   2.881   8.538  2.2526  1.0565 -1.0673
  669MOL0     H90307   2.742   3.064   8.654  3.5098 -1.1506 -0.8648
  669MOL0     H90308   2.700   3.032   8.483  0.7941  0.2605  0.1462
  669MOL0     H90309   2.821   2.855   8.468 -2.8404  3.8066 -0.8703
  669MOL0     H90310   2.782   2.795   8.638  0.5660  1.3984  2.0442
  669MOL0     H90311   2.938   2.931   8.734 -2.7870 -1.3511 -0.7648
  669MOL0     H90312   2.988   3.011   8.582  0.8887 -0.7838 -1.6027
  669MOL0     H90313   3.149   2.613   8.538  2.6877  2.0732 -0.1356
  669MOL0     H90314   2.340   3.270   8.675 -1.5965  0.6543  0.2448
  669MOL0     H90315   2.099   3.267   8.723 -0.0737  0.6498 -1.5065
  670MOL0     O90316   3.969   4.475  10.230 -0.3455 -0.1108 -0.3933
  670MOL0     C90317   3.903   4.482  10.334 -0.2204  0.0053 -0.7098
  670MOL0     O90318   3.764   4.449  10.348 -0.1299  0.3389  0.0357
  670MOL0     C90319   3.700   4.384  10.247 -0.0537  1.0990  0.1563
  670MOL0     C90320   3.582   4.430  10.205  0.6064  0.5765  0.6731
  670MOL0     C90321   3.513   4.378  10.094  0.0706  0.3583  0.0357
  670MOL0     C90322   3.567   4.283  10.020  0.2377  0.7120  0.0438
  670MOL0     O90323   3.518   4.234   9.902 -0.3023 -0.2139 -0.0054
  670MOL0     C90324   3.390   4.293   9.853 -0.2614  0.3827  0.2492
  670MOL0     C90325   3.357   4.255   9.709  0.2628 -0.0895 -0.5022
  670MOL0     C90326   3.435   4.338   9.609 -0.0653 -0.2677 -0.1714
  670MOL0     C90327   3.433   4.292   9.466  0.0387 -0.3492  0.7710
  670MOL0     C90328   3.304   4.332   9.400 -0.3045  0.3068  0.4511
  670MOL0     C90329   3.300   4.266   9.260  0.6788 -0.1183  0.6300
  670MOL0     C90330   3.173   4.302   9.184 -0.1736 -0.9047 -0.7525
  670MOL0     C90331   3.168   4.246   9.039  0.5099 -0.3876 -0.4548
  670MOL0     N90332   3.031   4.260   8.985  0.0857  0.3342 -0.2900
  670MOL0     C90333   2.962   4.376   8.947  0.0680 -0.4335  0.1885
  670MOL0     C90334   2.846   4.337   8.899 -0.2594  0.2229  0.1332
  670MOL0     C90335   2.740   4.420   8.842 -0.1501 -0.9924 -0.3382
  670MOL0     C90336   2.669   4.372   8.723 -0.4853 -0.5751  0.8607
  670MOL0     C90337   2.576   4.487   8.694  0.9986 -0.2220 -0.3435
  670MOL0     C90338   2.508   4.444   8.570  0.5070  0.5365 -0.1802
  670MOL0     O90339   2.376   4.519   8.557 -0.1795  0.5603  0.4971
  670MOL0     C90340   2.263   4.454   8.533 -1.8047 -0.4317  0.1980
  670MOL0     C90341   2.240   4.328   8.483 -0.1110  0.0430 -0.4081
  670MOL0     C90342   2.110   4.288   8.454 -1.0825  0.2193 -0.5127
  670MOL0     C90343   2.103   4.151   8.388 -0.3292 -0.6628  0.3122
  670MOL0     C90344   1.999   4.370   8.483 -0.3408  0.1311  0.0672
  670MOL0     C90345   1.858   4.329   8.466  0.2025 -0.6205  0.7961
  670MOL0     O90346   1.770   4.422   8.517  0.3347 -0.6907  0.0635
  670MOL0     C90347   1.631   4.400   8.542 -0.5556  0.6326 -0.5324
  670MOL0     C90348   1.556   4.290   8.509 -0.0998  0.6585 -0.2307
  670MOL0     C90349   1.413   4.289   8.518 -0.0242  0.4468  0.0321
  670MOL0     C90350   1.345   4.393   8.589 -1.2717 -0.4460  0.6981
  670MOL0     O90351   1.209   4.394   8.617 -0.2696 -0.3649  0.5595
  670MOL0     C90352   1.130   4.310   8.527 -0.5739 -0.4652 -0.2608
  670MOL0     C90353   0.988   4.337   8.562  0.6496 -0.2947  0.3705
  670MOL0     C90354   0.902   4.209   8.576 -0.2466  0.6246 -0.4489
  670MOL0     C90355   0.766   4.252   8.647 -0.3241 -0.2528  0.3942
  670MOL0     C90356   0.693   4.135   8.695 -0.1079  0.0978  0.1969
  670MOL0     C90357   0.567   4.184   8.779 -1.0456  0.6326  0.5112
  670MOL0     C90358   0.485   4.071   8.856  0.1685  0.4067  0.7664
  670MOL0     C90359   0.375   4.142   8.941  0.5061 -0.7270  0.9932
  670MOL0    Cl90360   0.441   4.245   9.073  0.2368 -0.1565 -0.2094
  670MOL0     C90361   1.423   4.501   8.641 -0.8224  0.4981 -1.1112
  670MOL0     C90362   1.561   4.505   8.615  0.2553  0.6783  0.7941
  670MOL0     O90363   1.826   4.222   8.426 -0.3220  0.6459 -0.1952
  670MOL0     C90364   2.022   4.486   8.543 -0.2932 -0.3100 -0.3187
  670MOL0     C90365   2.156   4.528   8.563  0.1084 -0.1170  0.0131
  670MOL0     N90366   2.841   4.196   8.929 -1.0043 -0.3363 -0.1958
  670MOL0     N90367   2.950   4.150   8.972 -0.2954  0.0231  0.0739
  670MOL0     C90368   3.699   4.230  10.057  0.3946  0.6510  0.5153
  670MOL0     C90369   3.757   4.279  10.174 -0.2526 -1.1690  0.6879
  670MOL0     C90370   3.961   4.536  10.458 -0.2053  0.1985  0.0564
  670MOL0     C90371   3.897   4.509  10.582  0.5810 -0.0859  0.2422
  670MOL0     C90372   3.951   4.552  10.696 -0.0752 -0.2203  0.6070
  670MOL0     C90373   4.076   4.612  10.702 -0.0526 -0.1205  0.3627
  670MOL0     O90374   4.132   4.658  10.817  0.1337 -0.7251 -0.0587
  670MOL0     C90375   4.080   4.785  10.856 -0.2029 -0.0651  0.2043
  670MOL0     C90376   4.078   4.808  11.002 -0.2423 -0.5007 -0.6603
  670MOL0     C90377   3.971   4.729  11.080 -0.1414 -0.0235  0.1662
  670MOL0     C90378   3.831   4.757  11.034  0.2419 -1.3047 -0.0682
  670MOL0     C90379   3.796   4.894  11.073  0.0035 -1.0198  0.3446
  670MOL0     C90380   3.752   4.997  11.100 -0.1337 -0.1023 -0.2807
  670MOL0     C90381   4.134   4.660  10.583 -0.1993  0.8452  0.4898
  670MOL0     C90382   4.082   4.608  10.457 -0.6364 -0.3172 -0.5727
  670MOL0     H90383   3.525   4.514  10.245 -3.4684 -0.2394 -2.6522
  670MOL0     H90384   3.416   4.421  10.070 -0.7429 -0.6720  1.3322
  670MOL0     H90385   3.314   4.257   9.923  1.0312  0.5048  1.7764
  670MOL0     H90386   3.402   4.401   9.852  0.8458  0.3100 -2.7385
  670MOL0     H90387   3.374   4.148   9.700  0.4758  0.0875 -2.8105
  670MOL0     H90388   3.250   4.263   9.686  0.4871 -0.8335 -1.8645
  670MOL0     H90389   3.398   4.440   9.622  2.5068  0.6880  0.3507
  670MOL0     H90390   3.538   4.328   9.644  0.0397 -0.7440 -0.6037
  670MOL0     H90391   3.521   4.340   9.422  0.7938  1.5593  4.0415
  670MOL0     H90392   3.448   4.184   9.465 -1.4827 -0.5791 -0.2954
  670MOL0     H90393   3.217   4.296   9.457 -2.0771  0.3612 -2.0449
  670MOL0     H90394   3.292   4.439   9.382 -0.6697  0.1348 -0.3821
  670MOL0     H90395   3.386   4.300   9.202  0.8234 -1.8948 -0.2704
  670MOL0     H90396   3.304   4.157   9.260 -1.1876 -0.2560 -1.2568
  670MOL0     H90397   3.087   4.263   9.239 -3.3489  1.7599 -3.3850
  670MOL0     H90398   3.155   4.409   9.193 -0.1101 -1.0503  2.5130
  670MOL0     H90399   3.190   4.139   9.042  2.0506 -0.0930 -0.2499
  670MOL0     H90400   3.242   4.293   8.973 -0.5308  1.5254 -0.3261
  670MOL0     H90401   2.999   4.478   8.946 -1.1870  0.1016  2.2478
  670MOL0     H90402   2.659   4.429   8.915  0.3013  1.6444 -0.0559
  670MOL0     H90403   2.784   4.520   8.830  3.4788 -2.3720  0.1538
  670MOL0     H90404   2.618   4.279   8.750  0.5075 -1.6278 -0.7166
  670MOL0     H90405   2.750   4.355   8.651  0.1640 -1.5104  1.7879
  670MOL0     H90406   2.621   4.586   8.677 -1.5828  1.1076  0.0058
  670MOL0     H90407   2.506   4.503   8.776 -1.5939  1.1616 -2.6609
  670MOL0     H90408   2.490   4.336   8.566  1.3104  0.2909  1.6921
  670MOL0     H90409   2.569   4.479   8.486 -1.1538  3.1049 -0.4403
  670MOL0     H90410   2.324   4.267   8.450  0.9564  1.4645 -0.3785
  670MOL0     H90411   2.204   4.111   8.371 -0.2300  0.2033 -1.2698
  670MOL0     H90412   2.045   4.083   8.451 -1.7554  1.9325  1.9686
  670MOL0     H90413   2.057   4.167   8.291  0.9029  2.6338  0.1389
  670MOL0     H90414   1.600   4.198   8.472  0.7537  0.1392  1.8896
  670MOL0     H90415   1.359   4.203   8.480 -0.2752  0.0815  1.1757
  670MOL0     H90416   1.150   4.343   8.424 -0.2341 -0.8776 -0.3307
  670MOL0     H90417   1.156   4.206   8.545  3.2416  0.6092  1.4415
  670MOL0     H90418   0.980   4.392   8.657 -0.0638  0.0727  0.1074
  670MOL0     H90419   0.939   4.411   8.497  0.8551  1.6878  2.3329
  670MOL0     H90420   0.960   4.145   8.643 -2.3187 -0.3702  0.4839
  670MOL0     H90421   0.883   4.170   8.475 -0.8884 -1.3536  0.4000
  670MOL0     H90422   0.786   4.311   8.737  0.0262 -0.4824  0.4664
  670MOL0     H90423   0.717   4.320   8.576 -0.0363  1.0568  1.4181
  670MOL0     H90424   0.759   4.076   8.759  1.9194  2.0605  0.0389
  670MOL0     H90425   0.667   4.068   8.612  1.3396 -2.5946  1.7691
  670MOL0     H90426   0.610   4.250   8.855 -1.9954 -0.5801  2.1773
  670MOL0     H90427   0.500   4.237   8.711  0.1368  1.5903  0.0600
  670MOL0     H90428   0.550   4.008   8.916 -1.4933 -1.1683  1.0248
  670MOL0     H90429   0.440   3.998   8.787 -0.7958  0.5399  1.2385
  670MOL0     H90430   0.318   4.059   8.982  0.8025 -1.6358 -0.3915
  670MOL0     H90431   0.307   4.209   8.888  0.5865 -0.4752  1.2056
  670MOL0     H90432   1.374   4.580   8.698  0.0240 -0.2416  0.6935
  670MOL0     H90433   1.619   4.591   8.647  0.4228  0.5165  0.9330
  670MOL0     H90434   1.951   4.565   8.565  1.7952  1.6219 -0.1251
  670MOL0     H90435   2.167   4.633   8.587 -1.0616 -0.3998  1.9926
  670MOL0     H90436   3.746   4.145  10.010  0.5768  0.0560  1.7232
  670MOL0     H90437   3.856   4.244  10.202  1.4227  0.3614 -2.7537
  670MOL0     H90438   3.801   4.460  10.590  0.1807  0.7729  0.9387
  670MOL0     H90439   3.896   4.539  10.789 -1.4793  1.2269  0.0200
  670MOL0     H90440   4.156   4.850  10.810 -0.0869 -0.8832 -0.7900
  670MOL0     H90441   3.983   4.802  10.808  0.2571  0.3214 -0.6108
  670MOL0     H90442   4.057   4.912  11.028 -3.1669 -1.2990  0.6498
  670MOL0     H90443   4.173   4.780  11.048 -1.6003 -3.3781  0.6418
  670MOL0     H90444   3.978   4.726  11.189 -1.7511  2.6309  0.4343
  670MOL0     H90445   3.997   4.626  11.052 -0.8646 -0.0150 -0.5682
  670MOL0     H90446   3.756   4.686  11.068 -0.6764 -1.4031 -2.1537
  670MOL0     H90447   3.818   4.765  10.925 -0.0796  4.4578  0.0649
  670MOL0     H90448   3.705   5.092  11.117 -3.5771 -1.7489  0.2336
  670MOL0     H90449   4.216   4.731  10.582  0.5895  0.0022 -2.4094
  670MOL0     H90450   4.140   4.631  10.368  0.5841  2.2073  0.7662
  671MOL0     O90451   2.054   7.027   6.055 -0.3144 -0.8445  0.3698
  671MOL0     C90452   2.091   7.147   6.048  0.7942  0.6833 -0.0218
  671MOL0     O90453   2.014   7.247   5.996  0.1921 -0.5080 -0.5093
  671MOL0     C90454   1.886   7.218   5.955 -0.1174  0.5164  0.5069
  671MOL0     C90455   1.853   7.108   5.872 -0.4685 -0.0663  0.1064
  671MOL0     C90456   1.718   7.076   5.847 -0.7153 -0.5150 -0.0467
  671MOL0     C90457   1.615   7.157   5.897 -0.5737 -0.3782  0.7271
  671MOL0     O90458   1.490   7.133   5.845 -0.5458  0.2183 -0.5032
  671MOL0     C90459   1.378   7.188   5.909  0.3706 -0.0572 -0.3944
  671MOL0     C90460   1.275   7.089   5.935 -0.3829 -0.0269  0.2887
  671MOL0     C90461   1.174   7.141   6.042  1.1489  0.6763 -0.6540
  671MOL0     C90462   1.034   7.071   6.013  0.2227 -0.8175  0.2869
  671MOL0     C90463   0.961   7.152   5.903 -0.8910 -0.1577  1.0454
  671MOL0     C90464   0.850   7.060   5.847  0.3220  1.2431  0.3179
  671MOL0     C90465   0.783   7.123   5.721  0.7728  0.1892  0.5319
  671MOL0     C90466   0.662   7.044   5.664 -0.3749 -0.4064 -0.1219
  671MOL0     N90467   0.539   7.041   5.752  0.4507 -0.0187 -0.2744
  671MOL0     C90468   0.468   7.152   5.798 -0.7340  0.4601 -0.5754
  671MOL0     C90469   0.381   7.106   5.891 -0.2378  0.3693 -0.7154
  671MOL0     C90470   0.278   7.185   5.951  0.2131 -0.1488  0.5269
  671MOL0     C90471   0.137   7.129   5.909 -0.1338  0.2273 -0.0285
  671MOL0     C90472   0.022   7.219   5.976  0.3161  0.4362  0.0644
  671MOL0     C90473  -0.109   7.161   5.914  0.3359  0.6008 -0.4422
  671MOL0     O90474  -0.226   7.231   5.972  0.1438 -0.1913 -0.2961
  671MOL0     C90475  -0.336   7.262   5.897  0.1131  0.7146  0.0874
  671MOL0     C90476  -0.438   7.343   5.957 -0.7518  0.4981  0.5768
  671MOL0     C90477  -0.548   7.393   5.880 -0.1859  0.3947  0.5135
  671MOL0     C90478  -0.652   7.481   5.943  0.6368 -0.8684  0.0207
  671MOL0     C90479  -0.560   7.359   5.741  0.2355  0.4779  0.2908
  671MOL0     C90480  -0.675   7.390   5.653  0.5480  0.8206  0.4594
  671MOL0     O90481  -0.713   7.283   5.564 -0.2582 -0.6828 -0.0919
  671MOL0     C90482  -0.838   7.280   5.500 -0.0197  0.5820  0.0123
  671MOL0     C90483  -0.842   7.240   5.365 -0.3428  0.5144 -0.2117
  671MOL0     C90484  -0.957   7.223   5.293 -0.1646  0.2179 -0.3808
  671MOL0     C90485  -1.085   7.251   5.359  0.4370 -0.2269 -1.0942
  671MOL0     O90486  -1.211   7.235   5.302 -0.4177 -0.2115 -0.0412
  671MOL0     C90487  -1.222   7.260   5.163  1.7207  0.6473  0.5210
  671MOL0     C90488  -1.363   7.227   5.128 -0.5940 -0.3599  1.2915
  671MOL0     C90489  -1.389   7.079   5.165 -0.0039 -0.4475  0.3857
  671MOL0     C90490  -1.507   7.017   5.079  0.6565 -0.0415  0.0352
  671MOL0     C90491  -1.630   7.112   5.083  0.4676  0.4009 -0.3844
  671MOL0     C90492  -1.761   7.063   5.031  0.6866  0.5717  0.8671
  671MOL0     C90493  -1.839   6.976   5.134  0.6053 -1.2660 -0.3941
  671MOL0     C90494  -1.968   6.927   5.079  1.0236  0.1166 -0.1808
  671MOL0    Cl90495  -1.951   6.851   4.923  0.2597 -0.3198 -0.1918
  671MOL0     C90496  -1.082   7.294   5.497 -0.3374  1.1346  0.2629
  671MOL0     C90497  -0.959   7.305   5.561  0.3239  0.1274 -0.2413
  671MOL0     O90498  -0.730   7.504   5.657  0.4254 -0.4942  0.2260
  671MOL0     C90499  -0.456   7.275   5.689 -0.0562 -0.0861  0.3902
  671MOL0     C90500  -0.351   7.224   5.766  0.4776  0.0151 -0.3625
  671MOL0     N90501   0.412   6.969   5.906  0.7086  0.3989 -0.4735
  671MOL0     N90502   0.502   6.931   5.823 -0.3816  0.3190  0.3539
  671MOL0     C90503   1.652   7.266   5.980  0.5492  0.5315  0.8000
  671MOL0     C90504   1.787   7.299   6.001  0.1638  0.6181 -1.5231
  671MOL0     C90505   2.232   7.186   6.085  0.1304  0.0107 -0.9950
  671MOL0     C90506   2.323   7.092   6.124  0.5158 -0.5466  0.3104
  671MOL0     C90507   2.450   7.119   6.165 -0.2246  0.1267 -0.5233
  671MOL0     C90508   2.500   7.250   6.168  0.8555 -1.1069  0.6038
  671MOL0     O90509   2.618   7.304   6.218  1.0303  0.5709 -0.0928
  671MOL0     C90510   2.686   7.243   6.331 -0.2791 -0.0334  0.2274
  671MOL0     C90511   2.815   7.170   6.277  0.7035  0.3872 -0.9792
  671MOL0     C90512   2.899   7.276   6.216 -0.5045 -0.0683  0.2963
  671MOL0     C90513   3.048   7.239   6.181 -0.3384  0.1054 -0.0616
  671MOL0     C90514   3.053   7.129   6.088 -0.6650 -0.7947 -0.1056
  671MOL0     C90515   3.046   7.031   6.011  0.0156 -0.3113 -1.1343
  671MOL0     C90516   2.406   7.350   6.132  0.3049 -0.2673  0.6001
  671MOL0     C90517   2.275   7.316   6.096  0.9774  0.4362  0.4337
  671MOL0     H90518   1.941   7.059   5.832  0.0677  2.0620 -1.5534
  671MOL0     H90519   1.693   6.984   5.793  0.7883 -0.8526 -0.1955
  671MOL0     H90520   1.418   7.225   6.004  2.2788  3.3002 -2.2986
  671MOL0     H90521   1.329   7.268   5.854 -1.5608 -0.1177  1.1269
  671MOL0     H90522   1.229   7.076   5.837 -0.7698  1.0139  0.3218
  671MOL0     H90523   1.311   6.987   5.954  0.4284  0.0913 -0.5287
  671MOL0     H90524   1.207   7.104   6.139 -0.5960  0.2335 -0.1948
  671MOL0     H90525   1.166   7.250   6.049 -1.1672  0.4971  0.1481
  671MOL0     H90526   1.049   6.965   5.991 -2.3373 -1.2094  0.1755
  671MOL0     H90527   0.967   7.071   6.100 -0.6446  0.7495 -0.3415
  671MOL0     H90528   0.921   7.248   5.938 -1.5264  0.4302 -1.1072
  671MOL0     H90529   1.028   7.191   5.825 -1.3707 -0.6126  0.3972
  671MOL0     H90530   0.883   6.969   5.798 -1.0953  1.4233 -1.0474
  671MOL0     H90531   0.774   7.043   5.925  2.0364  1.7405  2.1837
  671MOL0     H90532   0.732   7.209   5.766  0.3961 -0.2667  0.9795
  671MOL0     H90533   0.859   7.142   5.644 -0.1076 -0.8065 -0.6151
  671MOL0     H90534   0.698   6.944   5.637  2.7778  0.8304 -1.0318
  671MOL0     H90535   0.636   7.093   5.570 -0.8603  1.8831  1.1357
  671MOL0     H90536   0.481   7.250   5.753 -1.2468  1.0007  0.4160
  671MOL0     H90537   0.289   7.187   6.060  2.5838 -1.8365  0.4061
  671MOL0     H90538   0.281   7.287   5.911  0.2893 -0.9901 -1.7564
  671MOL0     H90539   0.137   7.024   5.941 -0.1417  0.2101 -0.0848
  671MOL0     H90540   0.119   7.142   5.802 -1.7470 -0.7121  0.0979
  671MOL0     H90541   0.045   7.322   5.947  1.0624  0.0667 -0.6938
  671MOL0     H90542   0.027   7.207   6.084 -0.6344 -0.0366  0.0719
  671MOL0     H90543  -0.115   7.063   5.962 -0.7944  2.3448  3.3271
  671MOL0     H90544  -0.114   7.162   5.805 -1.8904  0.8451 -0.3969
  671MOL0     H90545  -0.435   7.382   6.059 -1.0153  1.4583  0.2339
  671MOL0     H90546  -0.653   7.481   6.052 -1.9854  0.7708  0.0911
  671MOL0     H90547  -0.631   7.583   5.909 -1.2035 -0.6131 -0.4691
  671MOL0     H90548  -0.748   7.441   5.909  0.7483 -2.4419  1.4266
  671MOL0     H90549  -0.751   7.235   5.306  0.0930  2.0143  0.3065
  671MOL0     H90550  -0.957   7.193   5.189 -0.0241  0.9099 -0.5850
  671MOL0     H90551  -1.191   7.360   5.129  3.5259 -0.6645 -2.0613
  671MOL0     H90552  -1.162   7.188   5.107 -0.1429 -0.1704 -0.5071
  671MOL0     H90553  -1.429   7.299   5.177  1.3755  0.9957  2.0989
  671MOL0     H90554  -1.369   7.243   5.020 -2.1771 -0.2427  1.3810
  671MOL0     H90555  -1.418   7.081   5.270 -1.3247  3.9800  0.1345
  671MOL0     H90556  -1.302   7.015   5.144 -0.2620 -1.1629  1.4167
  671MOL0     H90557  -1.465   6.997   4.980  0.0285 -0.8728 -0.0756
  671MOL0     H90558  -1.541   6.916   5.105 -0.7865  0.1742 -0.8990
  671MOL0     H90559  -1.604   7.205   5.032  0.0035 -0.5626 -2.4761
  671MOL0     H90560  -1.655   7.136   5.187 -2.6479  1.7850 -1.3426
  671MOL0     H90561  -1.826   7.147   5.006  0.3855 -0.0520 -0.6029
  671MOL0     H90562  -1.759   7.002   4.940 -1.5372 -1.9039  2.2940
  671MOL0     H90563  -1.853   7.035   5.225  0.4449 -0.8761 -0.6655
  671MOL0     H90564  -1.785   6.885   5.159  2.5821 -0.0708 -0.0599
  671MOL0     H90565  -2.046   7.002   5.062  1.7141  1.0565  0.6532
  671MOL0     H90566  -2.008   6.846   5.140 -0.3409  1.1369  0.3295
  671MOL0     H90567  -1.177   7.314   5.543 -0.3952  1.8267 -0.1473
  671MOL0     H90568  -0.943   7.339   5.663  4.0470  1.0589 -0.9815
  671MOL0     H90569  -0.467   7.237   5.588 -2.5016  4.4448 -1.3357
  671MOL0     H90570  -0.283   7.161   5.709  0.0389  1.0133 -2.0480
  671MOL0     H90571   1.574   7.338   6.001 -0.3629  0.9753 -3.2755
  671MOL0     H90572   1.804   7.395   6.049 -1.9196  0.5776 -0.5938
  671MOL0     H90573   2.296   6.987   6.117  0.2421 -0.3806 -2.0722
  671MOL0     H90574   2.517   7.043   6.203  0.6949  0.3379 -1.6658
  671MOL0     H90575   2.712   7.319   6.405  1.5872 -0.2817 -0.1280
  671MOL0     H90576   2.618   7.171   6.377 -2.7267  2.1232  0.1890
  671MOL0     H90577   2.792   7.092   6.202  2.4060  0.5469 -1.7039
  671MOL0     H90578   2.860   7.118   6.362  0.6998  0.3001 -1.0299
  671MOL0     H90579   2.901   7.361   6.285 -2.6900  0.8812 -0.6784
  671MOL0     H90580   2.847   7.322   6.131 -0.5207  2.1035  1.3994
  671MOL0     H90581   3.103   7.198   6.267 -1.4308  0.4479  0.8191
  671MOL0     H90582   3.100   7.323   6.135 -0.4076 -0.4233 -1.1384
  671MOL0     H90583   3.047   6.937   5.961 -0.5909 -2.3192  2.2813
  671MOL0     H90584   2.433   7.455   6.142 -2.4328  0.8537 -2.0238
  671MOL0     H90585   2.199   7.393   6.095  3.9055  3.6138  0.7169
  672MOL0     O90586   0.088   6.589   9.482  0.2338 -0.1699  0.2725
  672MOL0     C90587   0.120   6.505   9.402  0.4770 -0.3432 -0.3111
  672MOL0     O90588   0.036   6.427   9.330  0.0009 -0.7864 -1.0354
  672MOL0     C90589  -0.100   6.434   9.338  0.6756  0.2952 -0.0270
  672MOL0     C90590  -0.159   6.360   9.232 -0.1682 -0.0898  0.6641
  672MOL0     C90591  -0.295   6.361   9.219 -0.3850 -0.8563 -0.1238
  672MOL0     C90592  -0.376   6.426   9.309  0.0388  0.4234  0.3509
  672MOL0     O90593  -0.510   6.439   9.289  0.4389 -0.0916  0.6921
  672MOL0     C90594  -0.570   6.374   9.175  0.9157 -0.0390 -0.2134
  672MOL0     C90595  -0.719   6.402   9.190 -0.1702  0.1946 -1.1800
  672MOL0     C90596  -0.797   6.323   9.081  0.7374 -0.0274  0.7347
  672MOL0     C90597  -0.948   6.355   9.078 -0.2946  0.0143 -0.7792
  672MOL0     C90598  -1.021   6.296   8.965 -0.7864 -0.6721  0.3081
  672MOL0     C90599  -1.158   6.357   8.943 -0.4539 -0.7236  0.8476
  672MOL0     C90600  -1.262   6.325   9.050 -0.5405  0.4309  0.9406
  672MOL0     C90601  -1.285   6.430   9.170 -0.0035 -0.3305  0.2387
  672MOL0     N90602  -1.411   6.420   9.249  0.2671  0.3853  0.3911
  672MOL0     C90603  -1.519   6.502   9.226  0.0043  0.5037  1.0542
  672MOL0     C90604  -1.618   6.444   9.294  0.1102  0.2491  0.2470
  672MOL0     C90605  -1.757   6.497   9.297 -0.5015 -0.8136 -0.4568
  672MOL0     C90606  -1.769   6.620   9.390  0.2234 -0.0359  0.1573
  672MOL0     C90607  -1.820   6.582   9.531  0.1875  0.1528 -0.5656
  672MOL0     C90608  -1.782   6.693   9.630  0.4858 -0.1038 -0.4262
  672MOL0     O90609  -1.673   6.663   9.717 -0.1200 -0.1535 -0.1933
  672MOL0     C90610  -1.550   6.709   9.671 -1.3507  0.1760  0.4351
  672MOL0     C90611  -1.499   6.837   9.705  0.3152 -0.4690 -0.4741
  672MOL0     C90612  -1.375   6.885   9.667  0.3723  0.6018  0.0353
  672MOL0     C90613  -1.343   7.028   9.711  1.1852  0.7621  0.0592
  672MOL0     C90614  -1.287   6.803   9.600 -0.4547 -0.5124 -0.8315
  672MOL0     C90615  -1.144   6.842   9.560  0.0948 -0.5441 -0.0474
  672MOL0     O90616  -1.054   6.742   9.522 -0.4058 -0.4946  0.3680
  672MOL0     C90617  -0.937   6.767   9.453 -0.5445  0.0285  0.0737
  672MOL0     C90618  -0.900   6.889   9.387 -0.6458 -0.2108 -0.6871
  672MOL0     C90619  -0.772   6.902   9.331 -1.8506  0.8189 -0.0119
  672MOL0     C90620  -0.666   6.806   9.359  0.3036 -0.6941 -0.1099
  672MOL0     O90621  -0.531   6.816   9.336 -0.4502  0.3226  0.5852
  672MOL0     C90622  -0.498   6.756   9.214 -1.3409 -0.1592  0.4884
  672MOL0     C90623  -0.350   6.788   9.191  0.1053 -0.1647  0.2568
  672MOL0     C90624  -0.300   6.708   9.075 -0.4853  0.0626 -0.4855
  672MOL0     C90625  -0.193   6.789   8.998 -0.1162 -0.7403  0.2942
  672MOL0     C90626  -0.062   6.786   9.070  0.2827  0.6352  1.0977
  672MOL0     C90627   0.043   6.868   9.002 -0.5142  0.3060 -1.3890
  672MOL0     C90628   0.172   6.889   9.088 -0.6282 -0.2187 -0.1508
  672MOL0     C90629   0.226   7.038   9.072  0.6404 -0.2024 -0.4842
  672MOL0    Cl90630   0.251   7.074   8.900  0.2263  0.0979 -0.0882
  672MOL0     C90631  -0.701   6.693   9.434 -0.0197 -0.7465  0.9798
  672MOL0     C90632  -0.834   6.672   9.475 -0.1967 -0.1943  1.0533
  672MOL0     O90633  -1.113   6.960   9.568  0.2422  0.1201  0.2144
  672MOL0     C90634  -1.337   6.681   9.554  0.4635  0.4324  0.5921
  672MOL0     C90635  -1.462   6.633   9.587  0.6803 -0.5561 -0.1794
  672MOL0     N90636  -1.582   6.326   9.355  0.0523  0.4264  0.2318
  672MOL0     N90637  -1.455   6.312   9.327  0.5740 -0.4694  0.6637
  672MOL0     C90638  -0.319   6.487   9.418  0.4338  0.4941  0.4820
  672MOL0     C90639  -0.188   6.500   9.430 -0.3176  0.5829 -0.8272
  672MOL0     C90640   0.263   6.501   9.378 -0.0086  0.1523 -0.3489
  672MOL0     C90641   0.313   6.442   9.266 -0.8277 -0.7622  1.0726
  672MOL0     C90642   0.455   6.426   9.235 -0.2151 -0.4537 -0.2298
  672MOL0     C90643   0.548   6.467   9.329 -0.1932  0.2120  0.1900
  672MOL0     O90644   0.684   6.456   9.301 -0.2954  0.8424 -0.0213
  672MOL0     C90645   0.772   6.550   9.362 -0.0234  0.8006  0.1977
  672MOL0     C90646   0.916   6.525   9.306 -0.1492 -0.3872 -0.0964
  672MOL0     C90647   0.970   6.393   9.357  0.2753  0.1158 -0.1211
  672MOL0     C90648   0.940   6.270   9.266  0.0448 -0.6367  0.1316
  672MOL0     C90649   1.027   6.281   9.145  0.0817  0.2064 -0.8978
  672MOL0     C90650   1.091   6.283   9.042  0.2905  0.3119  0.3830
  672MOL0     C90651   0.493   6.538   9.436  0.2276 -0.0400 -0.2279
  672MOL0     C90652   0.356   6.560   9.462 -0.0332 -0.0000 -0.6277
  672MOL0     H90653  -0.100   6.303   9.160 -0.9077  0.7691 -0.6552
  672MOL0     H90654  -0.333   6.315   9.129  1.0970  1.0371 -1.8195
  672MOL0     H90655  -0.532   6.428   9.087 -1.3689  0.1993 -1.1077
  672MOL0     H90656  -0.545   6.268   9.162 -1.7093 -0.4793 -2.5630
  672MOL0     H90657  -0.753   6.369   9.288  1.7664 -0.1276 -0.5699
  672MOL0     H90658  -0.745   6.508   9.188  1.2790  0.6475  0.6523
  672MOL0     H90659  -0.765   6.329   8.977  0.7844 -3.1254  0.4839
  672MOL0     H90660  -0.787   6.215   9.097  0.2737 -0.3795 -1.1301
  672MOL0     H90661  -0.988   6.307   9.168  4.0630 -0.0287  1.4448
  672MOL0     H90662  -0.970   6.461   9.088 -2.1958  0.0332 -3.9782
  672MOL0     H90663  -0.965   6.323   8.875 -1.3883 -0.8459 -0.1260
  672MOL0     H90664  -1.030   6.188   8.979 -0.5630 -0.6125  0.9338
  672MOL0     H90665  -1.156   6.466   8.931 -1.7628 -0.9069 -1.9650
  672MOL0     H90666  -1.197   6.313   8.850  0.9281  0.0708 -0.1380
  672MOL0     H90667  -1.358   6.299   9.003  0.4700 -0.6345 -0.6612
  672MOL0     H90668  -1.227   6.235   9.102  0.4965  1.2609  1.7013
  672MOL0     H90669  -1.272   6.527   9.123 -2.8325 -1.2522 -2.7984
  672MOL0     H90670  -1.203   6.410   9.241 -0.1719 -2.8012 -0.1754
  672MOL0     H90671  -1.536   6.586   9.159 -0.8206  0.0288  0.6463
  672MOL0     H90672  -1.772   6.528   9.193  0.8560 -2.0442 -1.0733
  672MOL0     H90673  -1.821   6.417   9.334  0.3207 -0.5615  1.6490
  672MOL0     H90674  -1.834   6.701   9.354 -3.9483 -3.5036 -1.0320
  672MOL0     H90675  -1.673   6.670   9.404  0.9839 -1.4854  0.3474
  672MOL0     H90676  -1.759   6.495   9.558  2.7214  2.4023  1.6149
  672MOL0     H90677  -1.927   6.558   9.540 -0.4196  2.8646  0.6072
  672MOL0     H90678  -1.864   6.710   9.701 -0.5428  2.3215 -2.0749
  672MOL0     H90679  -1.764   6.790   9.582  1.4467  0.7886  1.6016
  672MOL0     H90680  -1.564   6.894   9.770 -1.6452 -0.2605 -2.4926
  672MOL0     H90681  -1.426   7.089   9.750  2.4518  3.2661 -0.9190
  672MOL0     H90682  -1.263   7.031   9.786  1.4392 -0.6390 -0.1315
  672MOL0     H90683  -1.321   7.086   9.621 -1.2252  0.9917 -0.4483
  672MOL0     H90684  -0.982   6.959   9.376 -2.4971 -2.0784  0.5570
  672MOL0     H90685  -0.754   6.990   9.270  0.7544 -0.2105 -0.8451
  672MOL0     H90686  -0.505   6.647   9.215  1.3778 -0.4012  2.5136
  672MOL0     H90687  -0.552   6.791   9.125 -2.5998 -1.4907  0.6755
  672MOL0     H90688  -0.336   6.895   9.173 -0.5860 -0.2336 -0.7620
  672MOL0     H90689  -0.299   6.752   9.281 -2.0746  0.7553  1.9534
  672MOL0     H90690  -0.372   6.683   8.997  0.1664 -2.0397 -0.4676
  672MOL0     H90691  -0.268   6.613   9.119 -0.6120  1.4185  2.7946
  672MOL0     H90692  -0.167   6.738   8.905  4.3824  0.3580  0.7107
  672MOL0     H90693  -0.228   6.890   8.975 -2.2736 -1.9907 -2.4439
  672MOL0     H90694  -0.038   6.680   9.083  0.1022 -0.0160 -2.6841
  672MOL0     H90695  -0.082   6.828   9.169  1.7663  1.5860  1.0150
  672MOL0     H90696   0.065   6.814   8.909 -0.3750 -0.4326 -0.9356
  672MOL0     H90697  -0.007   6.959   8.965  0.3405  0.4925 -2.1091
  672MOL0     H90698   0.256   6.830   9.052  2.1590  1.9776  2.2751
  672MOL0     H90699   0.162   6.854   9.192  0.6347 -2.7383 -0.8058
  672MOL0     H90700   0.321   7.044   9.125  2.4125  1.8467 -3.5814
  672MOL0     H90701   0.152   7.108   9.111  0.6303 -1.0068  0.9945
  672MOL0     H90702  -0.623   6.624   9.464  0.2896 -0.8790 -0.0807
  672MOL0     H90703  -0.864   6.577   9.519  1.1083 -0.4428  1.4513
  672MOL0     H90704  -1.267   6.623   9.494  0.4059 -0.9627  1.8368
  672MOL0     H90705  -1.501   6.545   9.537  0.8234  0.0624 -1.4218
  672MOL0     H90706  -0.379   6.530   9.498 -0.0609  1.2730 -0.2848
  672MOL0     H90707  -0.151   6.551   9.518 -0.2921 -1.1594  0.2220
  672MOL0     H90708   0.245   6.408   9.188  1.9882 -3.8179 -0.3242
  672MOL0     H90709   0.492   6.390   9.140 -1.9242  0.3048 -1.2300
  672MOL0     H90710   0.738   6.653   9.351  0.6032  1.2034  1.8953
  672MOL0     H90711   0.769   6.525   9.468 -1.4053 -0.7734 -0.1611
  672MOL0     H90712   0.985   6.606   9.331 -2.9082  1.0513  3.8941
  672MOL0     H90713   0.912   6.513   9.197 -1.1009  0.6703 -0.1918
  672MOL0     H90714   0.928   6.371   9.456 -2.0741  1.5442 -0.7219
  672MOL0     H90715   1.078   6.399   9.377  0.8246 -0.9568 -2.4817
  672MOL0     H90716   0.832   6.258   9.255 -0.0112  0.2723 -0.3811
  672MOL0     H90717   0.981   6.181   9.315  0.2293  1.1537  3.4450
  672MOL0     H90718   1.144   6.314   8.954  0.8970 -2.2705 -0.2587
  672MOL0     H90719   0.558   6.580   9.512  0.2327 -3.1724  1.6974
  672MOL0     H90720   0.328   6.613   9.552 -3.9626 -2.9245  0.1148
  673MOL0     O90721   0.198   8.871   0.448  0.1313 -0.2606 -0.3859
  673MOL0     C90722   0.218   8.996   0.448 -0.1426 -0.5056 -0.4616
  673MOL0     O90723   0.123   9.095   0.467 -0.5695  0.0491 -0.2867
  673MOL0     C90724  -0.006   9.049   0.501 -0.6031 -0.3982 -0.0834
  673MOL0     C90725  -0.104   9.039   0.401  0.1972  0.5054 -0.3630
  673MOL0     C90726  -0.242   9.037   0.428  0.3520 -0.6999  0.2640
  673MOL0     C90727  -0.277   9.015   0.556  0.1676 -0.3111  1.3232
  673MOL0     O90728  -0.410   8.981   0.584 -0.4263 -0.5950 -0.3547
  673MOL0     C90729  -0.454   8.945   0.716  0.1894 -0.7099 -0.3824
  673MOL0     C90730  -0.588   8.877   0.692  0.9815 -0.5502 -0.4351
  673MOL0     C90731  -0.699   8.933   0.777 -0.4682  0.6264 -0.1633
  673MOL0     C90732  -0.831   8.862   0.750  0.0338  0.2913 -0.3959
  673MOL0     C90733  -0.937   8.911   0.845  1.2970 -0.6496 -0.2860
  673MOL0     C90734  -1.079   8.861   0.830 -0.0802 -0.3850  0.2847
  673MOL0     C90735  -1.182   8.925   0.936  0.4419  0.2718  0.2066
  673MOL0     C90736  -1.301   8.826   0.960  0.1978  0.0245  0.1128
  673MOL0     N90737  -1.389   8.875   1.065  0.4408  0.3431 -0.2405
  673MOL0     C90738  -1.455   8.790   1.153  0.1881 -0.4806  0.2614
  673MOL0     C90739  -1.519   8.875   1.238  0.1786 -0.1087 -0.6343
  673MOL0     C90740  -1.602   8.844   1.364 -1.0016 -0.9185 -0.8142
  673MOL0     C90741  -1.515   8.787   1.473 -0.2648  0.9856 -0.2766
  673MOL0     C90742  -1.600   8.767   1.602 -0.1821  0.5054 -0.1940
  673MOL0     C90743  -1.745   8.713   1.588 -0.0425  0.4080  0.3212
  673MOL0     O90744  -1.745   8.584   1.513  0.3904 -0.9878  0.9322
  673MOL0     C90745  -1.861   8.509   1.516 -0.0100 -0.0438  0.2096
  673MOL0     C90746  -1.858   8.384   1.459 -0.0012  0.1324 -0.4430
  673MOL0     C90747  -1.963   8.291   1.471 -0.1626  0.6655  0.0377
  673MOL0     C90748  -1.929   8.155   1.414 -0.0304 -0.0460  0.2758
  673MOL0     C90749  -2.083   8.329   1.532 -0.0950  1.7969 -0.5204
  673MOL0     C90750  -2.211   8.260   1.517  0.6076  0.5160  0.0810
  673MOL0     O90751  -2.325   8.337   1.499 -0.0863  0.3696 -0.2125
  673MOL0     C90752  -2.443   8.265   1.500 -0.3074  0.0792 -0.1100
  673MOL0     C90753  -2.504   8.246   1.373 -0.4045 -0.0115 -0.6760
  673MOL0     C90754  -2.618   8.170   1.366 -0.1514  0.2117  0.1481
  673MOL0     C90755  -2.686   8.124   1.480 -0.0576  0.1606 -0.3483
  673MOL0     O90756  -2.800   8.050   1.451  0.1598 -0.2370  0.4322
  673MOL0     C90757  -2.850   7.969   1.552 -0.2527 -0.3231 -0.1290
  673MOL0     C90758  -2.973   8.034   1.623 -0.1423 -0.3216  0.4771
  673MOL0     C90759  -3.065   8.086   1.512 -0.4465  0.2725  0.2974
  673MOL0     C90760  -3.201   8.126   1.577  1.6382 -0.0152  0.2267
  673MOL0     C90761  -3.319   8.133   1.477  0.4186 -0.4088  0.6544
  673MOL0     C90762  -3.460   8.151   1.541 -0.5989 -0.1146 -0.2428
  673MOL0     C90763  -3.573   8.198   1.443 -0.4728  0.1242  0.9609
  673MOL0     C90764  -3.699   8.231   1.522 -0.3470 -0.3582 -0.2014
  673MOL0    Cl90765  -3.749   8.075   1.592 -0.0521  0.2654  0.1775
  673MOL0     C90766  -2.625   8.147   1.610  0.8093 -0.3356  1.0137
  673MOL0     C90767  -2.500   8.213   1.624 -0.0314  0.7850 -0.2874
  673MOL0     O90768  -2.206   8.139   1.507 -0.1039 -0.4197  0.3434
  673MOL0     C90769  -2.091   8.460   1.578  0.0723 -0.2883 -0.5428
  673MOL0     C90770  -1.985   8.550   1.572  0.1263  0.1378 -0.0614
  673MOL0     N90771  -1.499   9.004   1.201 -0.8328 -0.0518 -0.3715
  673MOL0     N90772  -1.429   9.006   1.088  0.2107 -0.3941 -0.1392
  673MOL0     C90773  -0.186   9.023   0.662 -0.2688 -0.5453 -0.1574
  673MOL0     C90774  -0.053   9.049   0.628 -0.2818 -0.2714 -0.3434
  673MOL0     C90775   0.350   9.054   0.419  0.3809  0.9298  0.7885
  673MOL0     C90776   0.437   8.988   0.332 -0.3148  1.0799  0.1047
  673MOL0     C90777   0.555   9.049   0.281 -1.1162 -0.2531 -0.9188
  673MOL0     C90778   0.585   9.173   0.322 -0.0514  0.7912 -0.1946
  673MOL0     O90779   0.706   9.232   0.277  0.6288  0.2559 -0.2791
  673MOL0     C90780   0.732   9.369   0.294 -0.2133  0.1560 -0.0054
  673MOL0     C90781   0.862   9.403   0.220  0.0729 -1.2193 -0.0483
  673MOL0     C90782   0.976   9.355   0.311 -0.3951  0.2468 -0.3159
  673MOL0     C90783   1.111   9.350   0.229  0.1873  0.7538 -0.1408
  673MOL0     C90784   1.218   9.331   0.326 -0.4534  0.2333 -0.4411
  673MOL0     C90785   1.315   9.315   0.391 -0.1725  0.5585 -0.2511
  673MOL0     C90786   0.496   9.240   0.409 -1.0150 -0.2826  0.3143
  673MOL0     C90787   0.376   9.190   0.455  0.9690 -1.2773 -0.4111
  673MOL0     H90788  -0.078   9.042   0.296  1.5833  0.5505 -0.0378
  673MOL0     H90789  -0.323   9.026   0.355 -0.4993 -1.0402  1.2372
  673MOL0     H90790  -0.385   8.863   0.737 -1.4979 -3.4455 -4.3986
  673MOL0     H90791  -0.449   9.025   0.790  2.6663  0.1964 -1.4143
  673MOL0     H90792  -0.608   8.881   0.584  1.4154 -0.6308 -0.5228
  673MOL0     H90793  -0.590   8.773   0.726 -5.0768  0.0112  2.2978
  673MOL0     H90794  -0.666   8.924   0.881  1.5573 -1.1552 -0.8859
  673MOL0     H90795  -0.714   9.041   0.765 -1.1039  0.8847  2.3605
  673MOL0     H90796  -0.865   8.881   0.648 -3.3503 -1.0746  0.3300
  673MOL0     H90797  -0.821   8.754   0.767  1.3560  0.5525  0.6326
  673MOL0     H90798  -0.900   8.881   0.944  0.8482 -0.8622 -0.1834
  673MOL0     H90799  -0.936   9.020   0.834 -1.1710 -0.7742 -2.8752
  673MOL0     H90800  -1.115   8.890   0.731 -3.2610 -1.6237  0.9410
  673MOL0     H90801  -1.069   8.753   0.849  0.7961 -0.0875  1.7123
  673MOL0     H90802  -1.135   8.938   1.033 -0.0055 -2.1943  0.8401
  673MOL0     H90803  -1.222   9.021   0.901 -2.0571  0.0609  2.1941
  673MOL0     H90804  -1.257   8.734   0.998  3.7813  0.9466 -1.3747
  673MOL0     H90805  -1.368   8.811   0.875 -0.8166 -1.4571  1.1363
  673MOL0     H90806  -1.469   8.683   1.155  0.7783 -0.5498  2.3368
  673MOL0     H90807  -1.639   8.943   1.395  1.3427  0.4899 -2.1815
  673MOL0     H90808  -1.682   8.774   1.340 -0.9238 -2.8239  3.4360
  673MOL0     H90809  -1.429   8.848   1.501  3.3661 -3.5370 -0.3757
  673MOL0     H90810  -1.479   8.686   1.450  0.3134  0.7839  1.4064
  673MOL0     H90811  -1.607   8.864   1.651  1.4261 -0.4937  2.1910
  673MOL0     H90812  -1.549   8.701   1.673 -0.0106 -2.3499 -2.7267
  673MOL0     H90813  -1.806   8.791   1.541 -1.1803 -0.3599  0.4975
  673MOL0     H90814  -1.780   8.687   1.688  2.8784 -4.7147  0.3467
  673MOL0     H90815  -1.776   8.349   1.396  0.8454 -0.2016  0.8058
  673MOL0     H90816  -1.964   8.077   1.483  1.1064 -2.1591 -1.4024
  673MOL0     H90817  -1.991   8.138   1.326 -0.4017 -0.9119  0.6923
  673MOL0     H90818  -1.824   8.127   1.398 -0.8475 -4.2081  0.8811
  673MOL0     H90819  -2.461   8.283   1.280  1.4685  2.7343  1.1192
  673MOL0     H90820  -2.638   8.127   1.269 -0.0218 -1.2354  0.7276
  673MOL0     H90821  -2.875   7.871   1.510 -2.7383  0.7392 -1.3495
  673MOL0     H90822  -2.766   7.952   1.620  0.3624  0.2136 -0.7319
  673MOL0     H90823  -3.014   7.952   1.682  0.6444  0.3384  1.9944
  673MOL0     H90824  -2.945   8.115   1.690 -1.7353  0.7751 -0.1423
  673MOL0     H90825  -3.075   8.001   1.444  2.3495 -0.1281  0.2844
  673MOL0     H90826  -3.031   8.174   1.456 -0.5913  1.3605  1.8519
  673MOL0     H90827  -3.235   8.072   1.666  0.8399 -0.3223 -0.2582
  673MOL0     H90828  -3.199   8.226   1.622 -0.0187 -0.4729  1.4173
  673MOL0     H90829  -3.318   8.044   1.413  3.4338  0.0815 -0.1212
  673MOL0     H90830  -3.308   8.223   1.416  1.6760 -0.3502  0.9406
  673MOL0     H90831  -3.483   8.065   1.604 -1.2073  1.2907  1.5291
  673MOL0     H90832  -3.438   8.228   1.615 -0.5761 -1.5834  1.3330
  673MOL0     H90833  -3.605   8.113   1.381  1.4926 -1.1956  1.6641
  673MOL0     H90834  -3.538   8.289   1.394  0.5865 -1.2680 -1.0431
  673MOL0     H90835  -3.772   8.263   1.447  0.1295  2.1054  0.2882
  673MOL0     H90836  -3.678   8.314   1.590  0.7605  0.9094 -2.0058
  673MOL0     H90837  -2.673   8.107   1.698  2.2514 -2.4406  0.9277
  673MOL0     H90838  -2.440   8.222   1.714 -0.8014  0.7889  0.2304
  673MOL0     H90839  -2.186   8.480   1.626 -0.6761 -2.7391 -0.8713
  673MOL0     H90840  -2.011   8.653   1.598 -0.1272  0.7867 -2.6116
  673MOL0     H90841  -0.210   9.014   0.767 -2.2733 -1.2236 -0.6276
  673MOL0     H90842   0.029   9.065   0.697 -0.6454  0.3067 -0.0461
  673MOL0     H90843   0.412   8.887   0.298 -1.2501 -0.0339  3.6585
  673MOL0     H90844   0.631   9.001   0.221 -0.5763 -2.4583  1.3460
  673MOL0     H90845   0.644   9.422   0.258  1.5887  1.9261 -2.1321
  673MOL0     H90846   0.736   9.390   0.401 -3.0522  1.5762 -0.1049
  673MOL0     H90847   0.868   9.511   0.204  0.0821 -1.6016 -3.2269
  673MOL0     H90848   0.874   9.352   0.125 -0.0795 -0.6139 -0.3952
  673MOL0     H90849   0.961   9.251   0.343 -1.1201 -0.6011 -3.1227
  673MOL0     H90850   0.987   9.412   0.403 -3.1975  0.2391  0.0970
  673MOL0     H90851   1.127   9.446   0.179  0.8937 -0.2668 -1.9896
  673MOL0     H90852   1.119   9.270   0.155  1.5045 -0.7553  1.5505
  673MOL0     H90853   1.395   9.308   0.462 -1.1994 -0.0736  0.9027
  673MOL0     H90854   0.519   9.338   0.448  0.1565 -0.3161 -0.2682
  673MOL0     H90855   0.311   9.249   0.519 -0.6623 -1.4096 -1.8567
  674MOL0     O90856  10.764   5.176   1.827 -0.5020  0.9524  0.7434
  674MOL0     C90857  10.754   5.264   1.747 -0.5799 -0.3577  0.0182
  674MOL0     O90858  10.646   5.286   1.662  0.1992 -0.0410 -0.1415
  674MOL0     C90859  10.533   5.207   1.676 -0.2615  0.0404  0.0108
  674MOL0     C90860  10.418   5.253   1.741 -0.1140 -0.7805  0.1382
  674MOL0     C90861  10.309   5.180   1.763  0.4627  0.1231  0.4440
  674MOL0     C90862  10.311   5.051   1.712  0.4102  0.6605 -0.6240
  674MOL0     O90863  10.200   4.973   1.726 -0.0269 -0.6864  0.6864
  674MOL0     C90864  10.134   4.931   1.602 -0.2728  0.6543 -0.0963
  674MOL0     C90865  10.012   4.850   1.647  1.3284 -0.3265 -1.2425
  674MOL0     C90866   9.912   4.943   1.729 -0.9023  0.8416  0.0686
  674MOL0     C90867   9.805   4.858   1.787  0.0159  0.8836  0.2080
  674MOL0     C90868   9.688   4.934   1.852 -1.2857 -0.8989  0.1556
  674MOL0     C90869   9.557   4.861   1.878  0.2984 -0.3261 -0.0858
  674MOL0     C90870   9.583   4.730   1.960 -0.2911 -0.2740  1.1343
  674MOL0     C90871   9.456   4.690   2.036 -0.5781  0.2258  0.0800
  674MOL0     N90872   9.429   4.790   2.142 -0.2391 -0.1508 -0.4368
  674MOL0     C90873   9.516   4.861   2.225 -0.3606  0.2538  0.4944
  674MOL0     C90874   9.438   4.942   2.302 -0.3907  0.3438  0.5787
  674MOL0     C90875   9.479   5.054   2.398 -0.3459 -0.7126  0.4310
  674MOL0     C90876   9.548   5.167   2.328  0.3277 -0.1930 -0.5095
  674MOL0     C90877   9.483   5.228   2.208  0.1719  0.3009  0.0158
  674MOL0     C90878   9.528   5.365   2.185 -0.9787 -0.3461  0.2730
  674MOL0     O90879   9.662   5.398   2.237  0.2438 -0.1189  0.2175
  674MOL0     C90880   9.772   5.418   2.149  0.8966  0.1642 -0.8548
  674MOL0     C90881   9.775   5.361   2.027 -0.0379 -0.5377  1.2000
  674MOL0     C90882   9.879   5.386   1.932 -0.3669 -0.4069  0.0342
  674MOL0     C90883   9.875   5.313   1.807 -0.5094 -0.7519 -0.1179
  674MOL0     C90884   9.973   5.489   1.972  1.6656  0.6999  0.2165
  674MOL0     C90885  10.077   5.542   1.869 -1.0299  0.2968 -0.1957
  674MOL0     O90886  10.175   5.628   1.921 -0.3813  0.3265 -0.1076
  674MOL0     C90887  10.226   5.716   1.824 -0.8247 -0.7209 -0.0072
  674MOL0     C90888  10.171   5.832   1.786 -0.4091 -1.0817 -0.2751
  674MOL0     C90889  10.223   5.927   1.690  0.1203 -0.4123 -0.4689
  674MOL0     C90890  10.351   5.901   1.640 -0.1309  0.1377  0.2622
  674MOL0     O90891  10.420   5.975   1.546  1.0022 -0.0202  1.2758
  674MOL0     C90892  10.346   6.062   1.461 -0.1111  0.2813  0.5763
  674MOL0     C90893  10.434   6.097   1.337 -0.1803  0.2195  0.6896
  674MOL0     C90894  10.561   6.167   1.369 -0.5134  0.4987 -0.0605
  674MOL0     C90895  10.620   6.221   1.233 -0.1252  0.4272  0.0390
  674MOL0     C90896  10.777   6.245   1.238 -0.0462 -0.4576  0.4856
  674MOL0     C90897  10.815   6.368   1.302  1.0039 -0.6382  0.2858
  674MOL0     C90898  10.963   6.374   1.342 -0.3848  0.5880  0.4233
  674MOL0     C90899  10.978   6.478   1.440  0.1650 -0.1824  0.4703
  674MOL0    Cl90900  11.132   6.463   1.523 -0.1639 -0.5305 -0.0793
  674MOL0     C90901  10.412   5.785   1.683 -0.1787 -0.3945  0.4513
  674MOL0     C90902  10.354   5.689   1.764 -0.0186  0.1933 -0.5055
  674MOL0     O90903  10.069   5.514   1.755 -0.3643  0.2716 -0.4391
  674MOL0     C90904   9.965   5.551   2.101  0.4189  0.5930  0.6573
  674MOL0     C90905   9.866   5.509   2.192 -0.4951  0.6246 -0.1342
  674MOL0     N90906   9.304   4.908   2.275  0.0217  1.5281 -0.1308
  674MOL0     N90907   9.304   4.824   2.180  0.0296  0.7184  0.3658
  674MOL0     C90908  10.420   4.996   1.642  0.2147 -0.9316  0.1063
  674MOL0     C90909  10.534   5.082   1.622 -0.2265  0.0989 -0.5427
  674MOL0     C90910  10.861   5.362   1.739  0.2683 -0.4440 -0.0260
  674MOL0     C90911  10.988   5.326   1.787  0.6116 -0.5536 -0.1834
  674MOL0     C90912  11.101   5.401   1.756 -0.1543  0.9428 -0.3847
  674MOL0     C90913  11.095   5.513   1.680  0.4552 -0.5464 -0.2651
  674MOL0     O90914  11.204   5.587   1.638  0.0623  0.7823  0.0898
  674MOL0     C90915  11.330   5.565   1.704 -0.2976 -0.0349  0.5160
  674MOL0     C90916  11.416   5.670   1.634 -0.3216 -0.1454 -0.5669
  674MOL0     C90917  11.555   5.673   1.701  0.9239  0.6684 -0.3638
  674MOL0     C90918  11.663   5.671   1.588  0.3887  1.5134 -0.5728
  674MOL0     C90919  11.653   5.791   1.504  0.6477 -0.1268 -0.1238
  674MOL0     C90920  11.649   5.884   1.426 -0.3424 -0.3432  0.0539
  674MOL0     C90921  10.973   5.565   1.646 -0.5797  0.3390  0.1175
  674MOL0     C90922  10.858   5.486   1.666  0.0408 -0.0220  0.0914
  674MOL0     H90923  10.403   5.356   1.772  0.6893  0.1761 -2.4339
  674MOL0     H90924  10.213   5.224   1.789  0.5420  0.4516  0.1877
  674MOL0     H90925  10.103   5.016   1.540 -0.0883  0.1589 -0.8861
  674MOL0     H90926  10.199   4.865   1.543  0.5514  2.2069 -0.9929
  674MOL0     H90927   9.949   4.802   1.572 -0.5295  0.9155 -0.5245
  674MOL0     H90928  10.051   4.768   1.709  1.9538  1.5032  0.9075
  674MOL0     H90929   9.958   4.997   1.813 -2.9000  0.3268  1.5706
  674MOL0     H90930   9.870   5.018   1.661  0.1456  0.3052 -1.2105
  674MOL0     H90931   9.765   4.793   1.708 -3.1632  2.1883  0.5733
  674MOL0     H90932   9.843   4.798   1.870 -3.7609 -0.5433  1.1250
  674MOL0     H90933   9.715   4.980   1.947 -1.2677  1.0243 -0.7199
  674MOL0     H90934   9.672   5.024   1.791 -1.1165  1.5129  3.4120
  674MOL0     H90935   9.491   4.928   1.934  1.0534  1.2880 -1.0561
  674MOL0     H90936   9.510   4.840   1.782  2.0491  0.2919 -1.1238
  674MOL0     H90937   9.596   4.649   1.887  0.9809  1.0185 -0.1540
  674MOL0     H90938   9.669   4.727   2.027  0.3962  1.0314  0.3602
  674MOL0     H90939   9.458   4.595   2.090 -2.6104  0.5322  0.7734
  674MOL0     H90940   9.374   4.704   1.965 -0.7857  1.4253  0.5359
  674MOL0     H90941   9.623   4.853   2.206 -0.0666  1.4843  1.5274
  674MOL0     H90942   9.388   5.097   2.442  0.0875  0.7853 -0.0961
  674MOL0     H90943   9.545   5.018   2.478  0.3344  2.7553  1.5988
  674MOL0     H90944   9.650   5.143   2.296  0.3080 -1.8948  0.5640
  674MOL0     H90945   9.548   5.248   2.402 -0.6025  3.4342 -4.1416
  674MOL0     H90946   9.375   5.220   2.226  0.3140 -3.4851  0.0759
  674MOL0     H90947   9.501   5.154   2.129 -0.9279 -0.1701  0.1760
  674MOL0     H90948   9.469   5.429   2.252 -0.1777  1.8230 -1.0146
  674MOL0     H90949   9.510   5.386   2.080 -0.5302 -1.9526 -0.1572
  674MOL0     H90950   9.708   5.279   2.001  0.3489 -1.1273  2.0039
  674MOL0     H90951   9.976   5.289   1.772  0.1173 -1.5629  2.0963
  674MOL0     H90952   9.823   5.218   1.821 -1.1568 -0.3521  0.2254
  674MOL0     H90953   9.817   5.365   1.730 -1.5177 -1.1259  0.3831
  674MOL0     H90954  10.082   5.859   1.843  1.2966  0.4880  1.8049
  674MOL0     H90955  10.165   6.018   1.671  0.2760  0.2564  1.8907
  674MOL0     H90956  10.261   6.008   1.418  0.5584  0.7309 -1.4426
  674MOL0     H90957  10.310   6.145   1.522 -0.1265  0.2413  0.6219
  674MOL0     H90958  10.454   6.005   1.280  0.3826 -0.4110  1.8589
  674MOL0     H90959  10.374   6.166   1.277 -0.8380 -0.4007  0.6235
  674MOL0     H90960  10.633   6.099   1.415 -1.2757 -0.0135  0.3957
  674MOL0     H90961  10.543   6.250   1.438 -1.9583  0.5028 -0.4017
  674MOL0     H90962  10.608   6.145   1.156 -0.6529 -1.5536  1.9855
  674MOL0     H90963  10.566   6.314   1.215 -0.2662  0.3872  0.2579
  674MOL0     H90964  10.815   6.253   1.136 -1.6442  1.1343 -0.0182
  674MOL0     H90965  10.813   6.160   1.297 -2.1471 -0.4069  1.9490
  674MOL0     H90966  10.781   6.457   1.249 -0.1189  0.6671  2.9964
  674MOL0     H90967  10.763   6.372   1.398  0.5754  1.1241  0.0121
  674MOL0     H90968  11.028   6.388   1.255  0.1107 -2.9374  0.0871
  674MOL0     H90969  10.986   6.275   1.384 -0.9591 -1.4830 -3.6600
  674MOL0     H90970  10.899   6.474   1.515  1.2253 -2.3256  1.5539
  674MOL0     H90971  10.971   6.566   1.375 -1.7888 -1.3167 -0.9512
  674MOL0     H90972  10.515   5.772   1.651  0.2969  0.9777  1.3512
  674MOL0     H90973  10.409   5.601   1.794 -2.1676 -1.2727 -0.6147
  674MOL0     H90974  10.041   5.626   2.120  0.9745  0.3483 -0.5505
  674MOL0     H90975   9.855   5.550   2.292  0.1811 -0.7729  0.5526
  674MOL0     H90976  10.401   4.897   1.603 -1.9150 -0.3299 -0.5222
  674MOL0     H90977  10.619   5.037   1.572  1.3001  2.1987 -0.0037
  674MOL0     H90978  11.006   5.233   1.839  1.9107 -0.8922 -1.1696
  674MOL0     H90979  11.194   5.350   1.782  0.5961  2.4416 -0.0342
  674MOL0     H90980  11.313   5.584   1.810 -4.7872  0.4405 -0.0799
  674MOL0     H90981  11.377   5.470   1.681  2.5639  1.4883 -0.3646
  674MOL0     H90982  11.368   5.768   1.631  1.3033  0.7094  0.3408
  674MOL0     H90983  11.424   5.626   1.534 -1.7877  0.4185 -0.9573
  674MOL0     H90984  11.567   5.583   1.762 -2.5612  0.7414  0.6473
  674MOL0     H90985  11.562   5.768   1.754 -3.0470  0.8786  0.0540
  674MOL0     H90986  11.647   5.581   1.529  2.4532  2.1952 -2.3394
  674MOL0     H90987  11.763   5.687   1.631  0.8225  0.1870 -1.0539
  674MOL0     H90988  11.654   5.970   1.362 -3.0585  0.0817  0.2956
  674MOL0     H90989  10.959   5.654   1.586 -1.9457  1.7390  2.3583
  674MOL0     H90990  10.769   5.511   1.609  0.3089 -2.7552 -1.6749
  675MOL0     O90991   1.354   3.095   4.414 -0.0979 -0.1168 -0.5089
  675MOL0     C90992   1.421   3.158   4.500  0.7912  0.2318  0.7315
  675MOL0     O90993   1.370   3.270   4.570 -0.4362 -0.3470  0.5321
  675MOL0     C90994   1.235   3.299   4.557 -0.0925 -0.1079 -0.9240
  675MOL0     C90995   1.183   3.349   4.442  0.4323  0.5299 -0.2561
  675MOL0     C90996   1.047   3.385   4.431 -0.2921 -0.4268 -0.5808
  675MOL0     C90997   0.958   3.362   4.536  0.5598  0.1649 -0.4430
  675MOL0     O90998   0.821   3.378   4.542  0.8381  0.1065  0.3690
  675MOL0     C90999   0.759   3.386   4.412 -0.3410 -0.2576 -0.0813
  675MOL0     C91000   0.613   3.376   4.422  0.3339 -0.9878  0.3440
  675MOL0     C91001   0.562   3.496   4.503 -0.2413  0.2782  0.8290
  675MOL0     C91002   0.405   3.495   4.516  0.2091 -0.3480 -0.0149
  675MOL0     C91003   0.348   3.621   4.580 -0.4835 -0.6396 -0.6556
  675MOL0     C91004   0.203   3.594   4.603 -0.6860 -0.1387 -0.0549
  675MOL0     C91005   0.132   3.725   4.645  0.4117  0.6231 -0.3735
  675MOL0     C91006  -0.017   3.703   4.698  0.1727  0.7928  0.1836
  675MOL0     N91007  -0.065   3.817   4.776 -0.6387  0.6355 -0.8159
  675MOL0     C91008  -0.167   3.901   4.741  0.0508  0.1859  0.6374
  675MOL0     C91009  -0.162   4.000   4.832 -0.5060 -0.3200 -0.2022
  675MOL0     C91010  -0.245   4.122   4.822 -0.5868  0.6410  0.0333
  675MOL0     C91011  -0.368   4.110   4.904  0.0408  0.0936  0.2575
  675MOL0     C91012  -0.465   4.225   4.862 -0.9065  0.1023 -0.5542
  675MOL0     C91013  -0.607   4.218   4.918  0.1324 -0.7748 -0.3038
  675MOL0     O91014  -0.602   4.247   5.058  0.0542 -0.6110 -0.1209
  675MOL0     C91015  -0.723   4.247   5.117 -0.2491 -0.7944 -0.3857
  675MOL0     C91016  -0.845   4.230   5.058  0.1594  0.4414  0.0731
  675MOL0     C91017  -0.973   4.247   5.123  0.4359  0.0188 -0.6473
  675MOL0     C91018  -1.108   4.245   5.036  0.2571 -0.5848 -0.0365
  675MOL0     C91019  -0.967   4.278   5.262  0.4197  1.0879 -0.6181
  675MOL0     C91020  -1.088   4.286   5.349 -0.0526 -0.4163  0.2494
  675MOL0     O91021  -1.075   4.372   5.450 -0.8661  0.0594  0.2358
  675MOL0     C91022  -1.186   4.458   5.478  0.3433  0.2141 -0.0404
  675MOL0     C91023  -1.273   4.429   5.587 -0.1900 -0.0381  0.2417
  675MOL0     C91024  -1.375   4.514   5.614 -0.5268 -0.2585 -0.7648
  675MOL0     C91025  -1.400   4.628   5.530  0.0025  0.6912  0.4675
  675MOL0     O91026  -1.502   4.722   5.557  0.7997  0.3181  0.3242
  675MOL0     C91027  -1.580   4.707   5.677 -0.1712  0.0582 -0.1692
  675MOL0     C91028  -1.668   4.834   5.693  0.1059 -0.0876 -0.5796
  675MOL0     C91029  -1.818   4.807   5.730  0.0724  0.4522 -0.1354
  675MOL0     C91030  -1.890   4.939   5.743  0.8145  0.3221 -0.6226
  675MOL0     C91031  -2.027   4.917   5.801 -0.0018 -0.3475 -0.2205
  675MOL0     C91032  -2.109   5.043   5.836 -0.2071  1.2068 -0.4235
  675MOL0     C91033  -2.133   5.144   5.721  0.1178  0.3600  0.3758
  675MOL0     C91034  -2.182   5.090   5.585 -0.4004 -0.1558  0.1967
  675MOL0    Cl91035  -2.199   5.229   5.467 -0.2408  0.3034  0.1461
  675MOL0     C91036  -1.311   4.650   5.425  0.0256  0.1074  0.3184
  675MOL0     C91037  -1.201   4.567   5.399  0.2141 -0.4609  0.1485
  675MOL0     O91038  -1.198   4.241   5.313  0.2460 -0.1132  0.5881
  675MOL0     C91039  -0.841   4.301   5.317  0.3473  0.1706 -0.3139
  675MOL0     C91040  -0.721   4.287   5.250  0.2619  0.4202  0.4460
  675MOL0     N91041  -0.077   3.957   4.933 -0.7785 -0.1823 -0.5894
  675MOL0     N91042  -0.013   3.856   4.896  0.0960 -0.0939  0.1722
  675MOL0     C91043   1.024   3.337   4.658  0.1234  0.1619  0.0857
  675MOL0     C91044   1.157   3.315   4.674 -0.6461  0.5022  0.6133
  675MOL0     C91045   1.566   3.120   4.506 -0.1499 -0.1710 -0.5199
  675MOL0     C91046   1.628   3.020   4.424 -0.4135  0.0789 -0.1624
  675MOL0     C91047   1.770   2.995   4.421  0.2188 -0.3960  0.0689
  675MOL0     C91048   1.859   3.070   4.494 -0.2166 -0.2058  0.4288
  675MOL0     O91049   2.001   3.065   4.486  0.4169  1.2687  0.4700
  675MOL0     C91050   2.064   2.999   4.374  0.3727  0.4538  0.0636
  675MOL0     C91051   2.108   2.852   4.409  1.4179  0.0525 -0.1473
  675MOL0     C91052   2.235   2.843   4.494 -0.3283  0.0364  0.1347
  675MOL0     C91053   2.357   2.867   4.406 -0.3225  0.2860 -0.4192
  675MOL0     C91054   2.475   2.849   4.491  0.6287 -0.5122  0.4016
  675MOL0     C91055   2.567   2.830   4.561  0.0803  0.1269  0.8394
  675MOL0     C91056   1.810   3.164   4.584  0.1353  0.8479  0.1934
  675MOL0     C91057   1.665   3.191   4.590 -0.1859  0.0438 -0.2972
  675MOL0     H91058   1.232   3.360   4.345 -1.1994  0.4141 -1.1238
  675MOL0     H91059   1.018   3.430   4.336 -0.6457  0.8823  0.1364
  675MOL0     H91060   0.787   3.478   4.360 -1.3685  0.3656  0.4396
  675MOL0     H91061   0.798   3.302   4.354  0.0907  1.7629 -2.9008
  675MOL0     H91062   0.562   3.367   4.325  2.8971 -0.6645 -1.1232
  675MOL0     H91063   0.574   3.287   4.473 -2.8589 -1.1831 -2.0941
  675MOL0     H91064   0.604   3.485   4.604  0.0470 -0.1747  0.6615
  675MOL0     H91065   0.604   3.589   4.464  0.7145 -1.0643 -1.5639
  675MOL0     H91066   0.360   3.499   4.416  1.9121  1.4175 -0.7673
  675MOL0     H91067   0.370   3.407   4.571  0.3115 -0.8335 -0.7164
  675MOL0     H91068   0.398   3.643   4.674 -1.3379 -2.0951  0.1741
  675MOL0     H91069   0.351   3.705   4.509  0.4659 -1.2166 -1.3271
  675MOL0     H91070   0.161   3.564   4.507 -1.0063  3.4327 -1.1904
  675MOL0     H91071   0.186   3.525   4.686 -1.6674  0.8387  0.5905
  675MOL0     H91072   0.186   3.772   4.727 -0.8482  1.4186  0.0399
  675MOL0     H91073   0.126   3.797   4.563 -1.3606 -0.0775 -0.9237
  675MOL0     H91074  -0.028   3.612   4.758 -0.8317  0.2940 -0.7226
  675MOL0     H91075  -0.080   3.678   4.612 -0.1487 -4.7057  1.6487
  675MOL0     H91076  -0.223   3.897   4.648 -0.9920  1.9640  1.1347
  675MOL0     H91077  -0.193   4.210   4.862 -2.4693  1.7332  0.1769
  675MOL0     H91078  -0.273   4.146   4.719  0.3446 -2.2701 -0.9989
  675MOL0     H91079  -0.343   4.113   5.010  1.2995  0.6005 -0.0395
  675MOL0     H91080  -0.422   4.019   4.876 -2.1129  1.1713  0.6945
  675MOL0     H91081  -0.473   4.239   4.753  0.8249  4.2517 -0.3343
  675MOL0     H91082  -0.420   4.316   4.902  0.3281 -1.9930  3.3308
  675MOL0     H91083  -0.652   4.119   4.903 -2.8810  0.2564  1.2015
  675MOL0     H91084  -0.666   4.297   4.870  0.8113 -0.1763 -0.1638
  675MOL0     H91085  -0.860   4.213   4.952  2.4601  3.7638 -0.9317
  675MOL0     H91086  -1.081   4.255   4.930  0.4575  1.0271  0.1391
  675MOL0     H91087  -1.162   4.151   5.048 -0.1750 -0.6551 -2.1332
  675MOL0     H91088  -1.163   4.336   5.064  1.9019  0.4051  0.1143
  675MOL0     H91089  -1.253   4.337   5.642  1.8266  1.0890  1.4947
  675MOL0     H91090  -1.439   4.489   5.698  2.0674  1.1151  1.8333
  675MOL0     H91091  -1.650   4.622   5.674  1.0024 -0.9068 -2.5167
  675MOL0     H91092  -1.516   4.697   5.765  2.3488  0.7390 -1.8235
  675MOL0     H91093  -1.631   4.910   5.762 -0.1124  0.5429 -1.1484
  675MOL0     H91094  -1.670   4.876   5.592 -0.6155 -1.1946 -1.0528
  675MOL0     H91095  -1.830   4.742   5.818 -3.6564 -0.7070 -1.3309
  675MOL0     H91096  -1.853   4.747   5.646 -1.8898  0.7375  0.4380
  675MOL0     H91097  -1.830   5.002   5.809  0.8626 -0.5409  0.1892
  675MOL0     H91098  -1.898   5.005   5.656 -3.7458  1.4734  0.4139
  675MOL0     H91099  -2.019   4.868   5.899  0.2729  0.3977  0.1376
  675MOL0     H91100  -2.087   4.852   5.737  0.0248 -0.1084 -0.4875
  675MOL0     H91101  -2.202   5.006   5.881  0.6374  1.8360  1.9667
  675MOL0     H91102  -2.053   5.095   5.913  0.4356  4.3560 -2.8147
  675MOL0     H91103  -2.042   5.203   5.714  1.8849 -1.6592  3.8251
  675MOL0     H91104  -2.209   5.216   5.755  1.8878  0.6403  4.2701
  675MOL0     H91105  -2.280   5.044   5.600 -1.9390  1.6782 -3.1320
  675MOL0     H91106  -2.118   5.008   5.552  0.1272  0.3207  0.0199
  675MOL0     H91107  -1.321   4.734   5.356  2.1780 -1.0300 -1.5130
  675MOL0     H91108  -1.136   4.587   5.315  2.3294 -0.0057  1.8130
  675MOL0     H91109  -0.839   4.347   5.416  1.6838  1.7332 -1.0235
  675MOL0     H91110  -0.625   4.297   5.302  0.9636 -0.0120 -0.7359
  675MOL0     H91111   0.971   3.368   4.748  1.7271  2.9591  0.1705
  675MOL0     H91112   1.202   3.314   4.773  0.4501 -1.1039  0.1348
  675MOL0     H91113   1.580   2.966   4.343 -3.0937  1.1677  0.5585
  675MOL0     H91114   1.807   2.916   4.357 -0.6355 -0.4043 -0.4367
  675MOL0     H91115   1.995   2.996   4.289  2.0188  0.5025 -1.3471
  675MOL0     H91116   2.158   3.050   4.350  1.7032 -1.5732  0.6965
  675MOL0     H91117   2.138   2.822   4.308  0.2420  3.0020 -1.5037
  675MOL0     H91118   2.024   2.788   4.437  1.5495 -0.7088 -1.3902
  675MOL0     H91119   2.243   2.743   4.537 -0.2931 -0.5605 -1.2101
  675MOL0     H91120   2.224   2.928   4.563 -5.7807 -0.1014 -0.1155
  675MOL0     H91121   2.375   2.972   4.379  0.7612  0.1960 -0.0984
  675MOL0     H91122   2.358   2.798   4.321  1.7279 -4.8961  3.2965
  675MOL0     H91123   2.656   2.813   4.619  1.2538  0.2310 -0.8785
  675MOL0     H91124   1.884   3.225   4.635  1.7774 -0.5168 -0.5026
  675MOL0     H91125   1.634   3.266   4.662  3.7191  0.2194  1.4804
  676MOL0     O91126   6.199   2.147   3.585  1.0730  0.3993 -0.8026
  676MOL0     C91127   6.278   2.221   3.526  0.9493  0.1507  0.0207
  676MOL0     O91128   6.248   2.322   3.440  0.6339  0.3226 -0.1617
  676MOL0     C91129   6.116   2.349   3.410  0.1421 -0.5966 -0.5548
  676MOL0     C91130   6.036   2.411   3.504 -0.1483 -0.7006  0.6104
  676MOL0     C91131   5.903   2.438   3.476  0.2507 -0.6301 -0.4050
  676MOL0     C91132   5.848   2.406   3.345 -1.1154 -0.5103  0.0971
  676MOL0     O91133   5.711   2.428   3.318 -0.3075 -0.1741 -1.2571
  676MOL0     C91134   5.621   2.493   3.409 -0.0730  0.1539  0.3349
  676MOL0     C91135   5.485   2.501   3.339 -0.3258  1.3204  0.4169
  676MOL0     C91136   5.390   2.591   3.416  0.8097 -0.3827  0.2811
  676MOL0     C91137   5.257   2.568   3.346 -0.7736 -0.3459 -0.1796
  676MOL0     C91138   5.150   2.664   3.410  0.8265 -0.1623  0.2449
  676MOL0     C91139   4.998   2.628   3.378  0.8927 -0.5199  1.6486
  676MOL0     C91140   4.901   2.733   3.431 -0.1333  0.2804  0.1245
  676MOL0     C91141   4.754   2.689   3.419 -0.0833  0.3683  0.7211
  676MOL0     N91142   4.678   2.815   3.442  0.2605  0.2437  0.0632
  676MOL0     C91143   4.572   2.854   3.369  0.8229  0.5458  0.1290
  676MOL0     C91144   4.520   2.957   3.442  0.1806 -0.0005  0.0264
  676MOL0     C91145   4.405   3.050   3.412  0.4236  0.0856 -0.3155
  676MOL0     C91146   4.301   2.984   3.324  0.1122 -0.2984  0.5195
  676MOL0     C91147   4.163   3.040   3.337  0.5417 -0.1681  0.1408
  676MOL0     C91148   4.074   2.979   3.232  0.6654 -0.2319  0.6586
  676MOL0     O91149   4.042   2.845   3.270 -0.1299 -0.4683 -0.0758
  676MOL0     C91150   3.905   2.830   3.256 -0.2966  0.0741 -0.5025
  676MOL0     C91151   3.857   2.739   3.167  0.3182 -0.1593 -0.1752
  676MOL0     C91152   3.721   2.729   3.133  0.1030  0.6651 -0.4460
  676MOL0     C91153   3.672   2.675   3.000 -0.4164  0.1673 -0.1965
  676MOL0     C91154   3.631   2.794   3.221  0.4729  0.9769 -0.7887
  676MOL0     C91155   3.487   2.771   3.206  0.0592  1.1570 -0.6522
  676MOL0     O91156   3.415   2.883   3.181 -0.0398  0.2469 -0.2398
  676MOL0     C91157   3.281   2.876   3.219 -0.1132  0.4532 -0.2297
  676MOL0     C91158   3.182   2.910   3.124 -0.2133  0.1614 -0.4696
  676MOL0     C91159   3.046   2.903   3.147  0.5374  0.0868  0.0536
  676MOL0     C91160   3.012   2.878   3.286 -0.1000  0.1083 -0.2726
  676MOL0     O91161   2.882   2.863   3.327  0.1371 -0.1500  0.4128
  676MOL0     C91162   2.808   2.775   3.238  0.6508  0.5513 -0.4521
  676MOL0     C91163   2.674   2.721   3.304 -0.7770  0.6263 -0.7418
  676MOL0     C91164   2.593   2.829   3.377  0.2459 -1.1194  0.1548
  676MOL0     C91165   2.522   2.932   3.280 -0.5199  0.6478  0.0600
  676MOL0     C91166   2.407   3.004   3.353  0.4350 -0.4332  0.2138
  676MOL0     C91167   2.332   3.108   3.266  0.3752 -0.1197 -0.8387
  676MOL0     C91168   2.422   3.219   3.207 -0.2570  0.8817 -0.0696
  676MOL0     C91169   2.336   3.344   3.174 -0.7384  0.0135  0.0831
  676MOL0    Cl91170   2.278   3.419   3.323 -0.0225  0.1701 -0.2470
  676MOL0     C91171   3.113   2.859   3.379  0.0373  0.2167 -0.4546
  676MOL0     C91172   3.247   2.852   3.347 -0.3209 -0.5533 -0.2287
  676MOL0     O91173   3.444   2.655   3.214 -0.0843  0.4205 -0.8959
  676MOL0     C91174   3.680   2.873   3.322  0.2342  0.5237  0.4188
  676MOL0     C91175   3.815   2.887   3.345  0.0337  0.2236 -0.9215
  676MOL0     N91176   4.584   2.957   3.568  0.3309 -0.4012  0.4385
  676MOL0     N91177   4.686   2.874   3.562 -0.0926  0.0280 -0.3951
  676MOL0     C91178   5.932   2.357   3.247 -0.2790 -0.6469  0.5787
  676MOL0     C91179   6.058   2.314   3.282 -0.9689 -0.1186  0.2908
  676MOL0     C91180   6.419   2.215   3.581 -0.9247 -0.1720  0.5741
  676MOL0     C91181   6.451   2.156   3.703 -0.3369 -0.2790  0.0099
  676MOL0     C91182   6.586   2.141   3.737 -0.0199  0.0089 -0.3256
  676MOL0     C91183   6.693   2.192   3.659 -0.6560 -0.1578  0.8317
  676MOL0     O91184   6.828   2.156   3.684 -0.3759 -0.2563 -0.2085
  676MOL0     C91185   6.925   2.162   3.577 -0.1419  0.2832 -0.1878
  676MOL0     C91186   7.064   2.119   3.624 -1.2947 -0.4979 -0.1152
  676MOL0     C91187   7.087   1.966   3.593 -0.5508  0.6240  0.4136
  676MOL0     C91188   7.218   1.911   3.648  0.2320 -0.0233 -0.2049
  676MOL0     C91189   7.334   1.974   3.588  0.3259 -0.7959 -0.1344
  676MOL0     C91190   7.443   2.020   3.550 -0.8627 -0.9214 -0.7105
  676MOL0     C91191   6.652   2.265   3.542 -0.5023  0.3769  0.0573
  676MOL0     C91192   6.524   2.265   3.497  0.3032 -0.6785  0.6839
  676MOL0     H91193   6.081   2.435   3.600  0.6907  0.0977  0.0381
  676MOL0     H91194   5.848   2.500   3.546 -0.4867  0.2239 -1.6901
  676MOL0     H91195   5.611   2.442   3.505 -1.2435  2.2086  1.3829
  676MOL0     H91196   5.657   2.594   3.429  0.5624 -0.4039  2.2848
  676MOL0     H91197   5.500   2.537   3.237  0.8002 -0.0021  0.0887
  676MOL0     H91198   5.440   2.402   3.335 -2.6601  2.3618 -1.4098
  676MOL0     H91199   5.384   2.552   3.518 -3.0591  0.6377  0.6340
  676MOL0     H91200   5.423   2.695   3.416 -0.1187 -0.0013 -2.1858
  676MOL0     H91201   5.255   2.584   3.238 -1.6673 -1.3985 -0.3320
  676MOL0     H91202   5.245   2.460   3.352  2.0248 -0.7212  0.1194
  676MOL0     H91203   5.151   2.665   3.519 -2.8008  5.5191  0.6220
  676MOL0     H91204   5.170   2.769   3.387 -1.4414  1.0866  3.2682
  676MOL0     H91205   4.984   2.623   3.270 -4.2559 -0.0246  2.0617
  676MOL0     H91206   4.977   2.529   3.420 -2.1290 -0.0475  1.4592
  676MOL0     H91207   4.908   2.747   3.540  0.7459  1.2478 -0.0420
  676MOL0     H91208   4.922   2.835   3.398  1.5325  0.0545  0.3681
  676MOL0     H91209   4.732   2.615   3.497  0.6241  1.3686  1.8954
  676MOL0     H91210   4.735   2.646   3.320  0.1570 -1.1110  1.2955
  676MOL0     H91211   4.524   2.818   3.279 -3.8028  5.3266  0.1707
  676MOL0     H91212   4.361   3.091   3.503  1.7128 -0.5159  0.6256
  676MOL0     H91213   4.447   3.134   3.355  0.1084  1.1902  1.0214
  676MOL0     H91214   4.300   2.875   3.336  0.2893 -0.3409  0.1738
  676MOL0     H91215   4.333   3.012   3.223  4.0303  0.1644  1.7402
  676MOL0     H91216   4.170   3.149   3.325 -0.5016 -0.2378 -1.5727
  676MOL0     H91217   4.118   3.027   3.436 -0.9349 -0.9068 -0.5823
  676MOL0     H91218   4.114   2.996   3.131 -2.3636  3.0838 -0.1900
  676MOL0     H91219   3.992   3.051   3.237 -0.3209 -1.3760  1.4353
  676MOL0     H91220   3.939   2.684   3.123 -0.0831 -1.4522  0.6259
  676MOL0     H91221   3.750   2.614   2.953  1.1356 -0.4348  2.8831
  676MOL0     H91222   3.591   2.609   3.031 -0.7900  0.2027 -1.0896
  676MOL0     H91223   3.641   2.751   2.928 -1.1912  0.7394  0.7180
  676MOL0     H91224   3.212   2.936   3.023  2.6306  0.9659  0.4929
  676MOL0     H91225   2.972   2.909   3.067 -2.2184 -0.4176  2.3992
  676MOL0     H91226   2.789   2.824   3.142 -0.3585 -3.1765 -2.3094
  676MOL0     H91227   2.868   2.689   3.206 -1.4315 -1.0975 -0.0992
  676MOL0     H91228   2.612   2.680   3.223 -0.2544  0.6412 -1.1582
  676MOL0     H91229   2.689   2.654   3.388  0.1512 -0.0377 -1.4167
  676MOL0     H91230   2.657   2.879   3.450 -1.6271 -1.3206  2.0331
  676MOL0     H91231   2.513   2.788   3.439 -0.8351  0.0702 -0.4056
  676MOL0     H91232   2.587   3.005   3.230 -0.4430 -0.3348 -1.3114
  676MOL0     H91233   2.466   2.877   3.205 -2.3641 -0.4852  2.1274
  676MOL0     H91234   2.448   3.060   3.439  0.5713 -0.2199  0.0119
  676MOL0     H91235   2.336   2.927   3.382 -0.8722  1.3791  2.1513
  676MOL0     H91236   2.282   3.061   3.181 -1.4234 -1.6489  0.9458
  676MOL0     H91237   2.257   3.158   3.328  1.3865 -2.7651  2.8788
  676MOL0     H91238   2.481   3.183   3.123 -2.4444 -1.1908 -0.8599
  676MOL0     H91239   2.486   3.247   3.291 -0.9124 -2.9361  1.9529
  676MOL0     H91240   2.262   3.321   3.096  1.5381 -4.1886 -1.1461
  676MOL0     H91241   2.397   3.426   3.137 -0.7250 -0.1819 -0.3409
  676MOL0     H91242   3.075   2.849   3.480 -0.3580 -0.5948 -0.6700
  676MOL0     H91243   3.328   2.826   3.415 -0.5637  2.0540  1.1728
  676MOL0     H91244   3.604   2.925   3.381  1.1253  1.0500  1.1397
  676MOL0     H91245   3.855   2.957   3.417 -1.6480  0.5413 -0.2354
  676MOL0     H91246   5.901   2.336   3.145 -0.9651 -0.8273  0.8130
  676MOL0     H91247   6.117   2.263   3.207 -0.8028 -0.5840  0.7356
  676MOL0     H91248   6.376   2.128   3.777 -0.5380 -2.0934 -0.8170
  676MOL0     H91249   6.609   2.094   3.832  1.2977  0.1945 -0.5401
  676MOL0     H91250   6.887   2.097   3.498  1.1656 -0.8437  0.0791
  676MOL0     H91251   6.932   2.261   3.532  0.0472  0.8423  1.0236
  676MOL0     H91252   7.071   2.133   3.732 -0.8295 -0.6925 -0.1174
  676MOL0     H91253   7.142   2.177   3.571  0.1078  0.0443  2.3895
  676MOL0     H91254   7.096   1.956   3.485  0.3580 -1.4716  0.6421
  676MOL0     H91255   7.001   1.910   3.632 -0.2446 -1.0476 -1.2053
  676MOL0     H91256   7.215   1.802   3.640 -0.6853 -0.1404  1.4482
  676MOL0     H91257   7.227   1.931   3.755 -3.1811 -0.0860  0.1777
  676MOL0     H91258   7.534   2.044   3.498 -2.2094  0.7096 -2.4207
  676MOL0     H91259   6.732   2.289   3.473 -0.0486  0.4578  0.6105
  676MOL0     H91260   6.501   2.296   3.396  0.3026 -1.7788  0.3360
  677MOL0     O91261   7.594   7.908   0.784 -0.0580  0.2889 -0.1497
  677MOL0     C91262   7.503   7.918   0.864  0.4840  0.0564 -0.5237
  677MOL0     O91263   7.518   7.931   0.996 -0.7677  0.9790  0.1295
  677MOL0     C91264   7.648   7.960   1.038  0.6750 -0.7365 -0.3963
  677MOL0     C91265   7.688   8.085   1.077 -0.5314 -0.2592  0.2075
  677MOL0     C91266   7.817   8.114   1.117 -0.5566  0.3534 -0.1312
  677MOL0     C91267   7.916   8.008   1.115  0.0449 -0.6803  0.1972
  677MOL0     O91268   8.051   8.021   1.130  0.0804 -0.0597  0.3752
  677MOL0     C91269   8.107   8.145   1.077 -0.3706 -0.3195 -0.7267
  677MOL0     C91270   8.263   8.146   1.088 -0.3437 -0.8721  0.0118
  677MOL0     C91271   8.333   8.282   1.065  0.1757  1.3012 -0.6684
  677MOL0     C91272   8.478   8.262   1.083  0.2092  0.3693  0.3426
  677MOL0     C91273   8.590   8.364   1.055 -0.5440 -0.0649 -0.0090
  677MOL0     C91274   8.568   8.487   1.139 -0.7123 -0.0700  0.3708
  677MOL0     C91275   8.620   8.623   1.098 -0.0896 -0.2572 -0.1244
  677MOL0     C91276   8.777   8.626   1.070 -0.5480 -0.0136 -0.4114
  677MOL0     N91277   8.814   8.753   1.010 -0.3213 -0.4104  0.0121
  677MOL0     C91278   8.903   8.838   1.063 -0.5764  0.4637 -0.4900
  677MOL0     C91279   8.909   8.949   0.980  0.5300  0.2866  0.0349
  677MOL0     C91280   8.985   9.068   0.985 -0.3001  0.6470  0.6718
  677MOL0     C91281   9.027   9.119   1.130 -0.4650 -0.1996  0.7244
  677MOL0     C91282   8.906   9.154   1.217  1.1658 -0.1748  0.1425
  677MOL0     C91283   8.847   9.290   1.172  0.3449  0.9085 -0.0466
  677MOL0     O91284   8.745   9.329   1.258 -0.3346 -0.2661 -1.1651
  677MOL0     C91285   8.665   9.444   1.230  0.2039  0.1591  0.3698
  677MOL0     C91286   8.555   9.472   1.308  0.3082  0.1670 -0.2691
  677MOL0     C91287   8.468   9.583   1.280  0.0842 -0.4927  0.8825
  677MOL0     C91288   8.360   9.621   1.386 -1.0113  0.3884  0.5222
  677MOL0     C91289   8.493   9.660   1.164 -0.2317  0.4957  0.2434
  677MOL0     C91290   8.407   9.774   1.122 -0.3871  0.4360 -1.4493
  677MOL0     O91291   8.268   9.771   1.147 -0.1835 -0.6566 -0.6225
  677MOL0     C91292   8.168   9.855   1.103 -0.0396 -0.4739 -0.0678
  677MOL0     C91293   8.045   9.802   1.122  0.4228 -0.4595  1.3481
  677MOL0     C91294   7.935   9.877   1.082  0.4129 -0.6309  0.7025
  677MOL0     C91295   7.948  10.005   1.024 -0.5082  0.1621  0.3363
  677MOL0     O91296   7.837  10.060   0.964 -0.0545 -0.9236  0.3429
  677MOL0     C91297   7.849  10.197   0.941  0.6438  0.5124  0.0014
  677MOL0     C91298   7.706  10.254   0.912 -0.3290 -0.0784  0.0546
  677MOL0     C91299   7.637  10.190   0.786 -0.4950 -0.2224 -0.1938
  677MOL0     C91300   7.486  10.202   0.798  0.9710  0.0800 -0.2398
  677MOL0     C91301   7.435  10.086   0.888  0.1259 -0.5942 -0.7137
  677MOL0     C91302   7.288  10.065   0.895  0.4689 -0.2984  0.7992
  677MOL0     C91303   7.243  10.007   1.036 -0.7042  0.5089 -0.1268
  677MOL0     C91304   7.100   9.967   1.031 -0.2145  0.3547  0.6112
  677MOL0    Cl91305   6.988  10.105   1.002  0.1916  0.0971 -0.0243
  677MOL0     C91306   8.080  10.058   1.008 -0.5087  1.4070 -0.0009
  677MOL0     C91307   8.186   9.982   1.042  0.0818 -0.3884 -0.0008
  677MOL0     O91308   8.462   9.871   1.067 -0.0129  0.2473  0.1130
  677MOL0     C91309   8.609   9.630   1.085 -0.1450 -0.4070  0.1543
  677MOL0     C91310   8.689   9.523   1.112 -0.5432  0.0785  0.1404
  677MOL0     N91311   8.840   8.919   0.863  0.3231  0.6595  0.1849
  677MOL0     N91312   8.774   8.805   0.887 -0.0660  0.4711  0.3709
  677MOL0     C91313   7.874   7.883   1.082 -0.4863  0.5045  0.3118
  677MOL0     C91314   7.745   7.860   1.044  0.0593  0.4401  0.6125
  677MOL0     C91315   7.363   7.921   0.810 -0.6165  0.9580  0.1786
  677MOL0     C91316   7.245   7.914   0.884  0.8682  0.5230 -0.7745
  677MOL0     C91317   7.117   7.916   0.835  0.0372 -0.4605 -0.5527
  677MOL0     C91318   7.100   7.921   0.702 -0.0200 -1.0403  0.8097
  677MOL0     O91319   6.974   7.922   0.651  0.6697 -0.0545 -0.6377
  677MOL0     C91320   6.954   7.921   0.505 -0.4861 -0.5938  0.1320
  677MOL0     C91321   6.941   8.065   0.455 -0.0175 -1.1261  0.5064
  677MOL0     C91322   6.798   8.121   0.466  0.6993 -0.7031  0.0078
  677MOL0     C91323   6.727   8.125   0.328 -1.1924 -0.3938 -0.3579
  677MOL0     C91324   6.696   7.990   0.285 -0.1075 -0.3822 -0.2678
  677MOL0     C91325   6.666   7.872   0.265  0.1625 -0.2839  0.4971
  677MOL0     C91326   7.215   7.930   0.620 -0.1508  0.1333 -0.5383
  677MOL0     C91327   7.350   7.926   0.672 -0.0989 -0.5652 -0.4115
  677MOL0     H91328   7.601   8.150   1.082 -2.6200 -2.1821 -4.6830
  677MOL0     H91329   7.839   8.213   1.156 -2.6539 -0.4959  3.6669
  677MOL0     H91330   8.073   8.172   0.977 -0.4727 -0.6175 -0.7744
  677MOL0     H91331   8.072   8.227   1.140  1.8122  0.7388 -0.7979
  677MOL0     H91332   8.282   8.118   1.192  0.7933 -1.7220 -0.4101
  677MOL0     H91333   8.301   8.063   1.028  0.6878 -1.1472  1.0110
  677MOL0     H91334   8.309   8.304   0.960 -0.3029 -2.2621 -1.4288
  677MOL0     H91335   8.298   8.362   1.131 -3.1477 -0.8152  0.3493
  677MOL0     H91336   8.495   8.212   1.179 -1.4853  3.0935  2.2114
  677MOL0     H91337   8.496   8.190   1.003  0.0632  0.0952  0.5572
  677MOL0     H91338   8.683   8.311   1.075 -0.3762 -1.1843 -3.1589
  677MOL0     H91339   8.595   8.390   0.948 -0.3905  0.6822  0.1742
  677MOL0     H91340   8.463   8.512   1.158 -0.4804  1.2735 -0.0252
  677MOL0     H91341   8.625   8.459   1.228  4.8836  1.4314 -2.2853
  677MOL0     H91342   8.572   8.647   1.002  1.0444 -0.0088 -0.6491
  677MOL0     H91343   8.591   8.701   1.169 -0.0672  3.4176 -3.7512
  677MOL0     H91344   8.809   8.540   1.010  0.1811  1.9828 -3.0843
  677MOL0     H91345   8.831   8.628   1.165 -2.5504  1.2467  0.7917
  677MOL0     H91346   8.945   8.833   1.163 -2.2661  0.2947  0.2479
  677MOL0     H91347   9.082   9.041   0.941  0.7172  1.1980  2.4430
  677MOL0     H91348   8.942   9.149   0.925  2.6385  2.5803  0.9362
  677MOL0     H91349   9.082   9.210   1.106  2.7592 -1.9747  0.7511
  677MOL0     H91350   9.095   9.053   1.185  1.1061  1.1155  0.4261
  677MOL0     H91351   8.939   9.161   1.322 -0.0879 -0.1851  0.5470
  677MOL0     H91352   8.822   9.085   1.212 -1.7915  2.8775  2.7552
  677MOL0     H91353   8.814   9.285   1.067 -2.7304  2.5685  0.7224
  677MOL0     H91354   8.922   9.368   1.188 -1.1298  1.9978  1.9848
  677MOL0     H91355   8.511   9.412   1.387  0.0723  1.0991  0.3251
  677MOL0     H91356   8.345   9.729   1.393  3.4664  1.1501  1.5469
  677MOL0     H91357   8.261   9.581   1.362 -0.1949 -1.3620 -0.1577
  677MOL0     H91358   8.395   9.595   1.486  2.0015  1.9048 -0.0082
  677MOL0     H91359   8.018   9.709   1.171 -0.7133 -2.1845 -2.2062
  677MOL0     H91360   7.838   9.831   1.097  0.3245 -0.0452  2.0663
  677MOL0     H91361   7.899  10.244   1.026  2.1411 -2.4210  0.8783
  677MOL0     H91362   7.912  10.220   0.854  1.4417  0.2026  0.4871
  677MOL0     H91363   7.636  10.246   0.996  1.0422 -2.2582  1.0876
  677MOL0     H91364   7.723  10.359   0.889  0.8466 -0.6716 -1.9849
  677MOL0     H91365   7.656  10.083   0.772  0.0954 -0.1136 -0.2508
  677MOL0     H91366   7.673  10.240   0.696 -1.8814 -0.0084 -0.6359
  677MOL0     H91367   7.455  10.297   0.842  2.9886  0.1762  1.1253
  677MOL0     H91368   7.445  10.175   0.700  0.7914 -4.1364  0.7885
  677MOL0     H91369   7.491  10.091   0.982 -1.5971  1.5074  0.2842
  677MOL0     H91370   7.471   9.998   0.833 -2.3596 -2.2185  0.0749
  677MOL0     H91371   7.243  10.162   0.873 -0.6780 -1.0595 -0.3719
  677MOL0     H91372   7.261   9.995   0.815 -0.4420 -0.2579  1.0562
  677MOL0     H91373   7.255  10.087   1.109 -0.7306  0.0259  0.4139
  677MOL0     H91374   7.302   9.923   1.073 -4.2403 -2.1020  0.1411
  677MOL0     H91375   7.060   9.924   1.123  0.8639 -1.1435  0.4104
  677MOL0     H91376   7.083   9.883   0.964  0.1296 -0.3709  1.4220
  677MOL0     H91377   8.110  10.150   0.961  0.5372  1.2206  0.2911
  677MOL0     H91378   8.283  10.024   1.019  0.1919  0.1981  1.4274
  677MOL0     H91379   8.622   9.693   0.998  0.0349 -2.1407 -1.1214
  677MOL0     H91380   8.769   9.511   1.040  0.6236 -0.9998  1.5536
  677MOL0     H91381   7.947   7.803   1.081 -0.6916  0.2954 -1.2213
  677MOL0     H91382   7.721   7.756   1.023  2.5211 -0.1881  0.5918
  677MOL0     H91383   7.263   7.915   0.991  1.9353  1.2185 -0.9457
  677MOL0     H91384   7.034   7.918   0.904  0.0256  0.1541 -0.5817
  677MOL0     H91385   7.029   7.863   0.450 -3.2324 -2.0076 -2.4210
  677MOL0     H91386   6.870   7.855   0.480  0.3162 -1.5990  0.0279
  677MOL0     H91387   6.967   8.063   0.349  2.2038  2.3549  0.8171
  677MOL0     H91388   7.015   8.133   0.499 -2.6607  0.8977  2.1108
  677MOL0     H91389   6.812   8.225   0.499 -2.6583 -0.5916  1.5248
  677MOL0     H91390   6.732   8.074   0.539  1.2278 -0.7032  0.4917
  677MOL0     H91391   6.793   8.174   0.255 -1.6474  0.0986 -0.4438
  677MOL0     H91392   6.632   8.177   0.342 -0.3358  0.8617  0.9406
  677MOL0     H91393   6.639   7.770   0.252  1.6871 -0.9198  1.9534
  677MOL0     H91394   7.198   7.932   0.513 -2.7137  0.2606 -0.2072
  677MOL0     H91395   7.428   7.909   0.598  3.3842 -2.2248  3.2737
  678MOL0     O91396   1.058   5.612   8.109  1.0585 -1.3523 -0.1206
  678MOL0     C91397   1.067   5.542   8.016 -0.3231  0.2789  0.1023
  678MOL0     O91398   0.964   5.471   7.959  0.0270 -0.0183  0.1609
  678MOL0     C91399   0.841   5.477   8.010  0.0567  0.3610  0.7794
  678MOL0     C91400   0.741   5.526   7.918  0.2661 -0.0180  0.3468
  678MOL0     C91401   0.606   5.528   7.961 -0.4482 -0.0609 -0.0109
  678MOL0     C91402   0.569   5.473   8.084  0.3414 -0.0348  0.2087
  678MOL0     O91403   0.431   5.473   8.093  0.1093 -0.1076 -0.2806
  678MOL0     C91404   0.391   5.408   8.216  0.3085 -0.1850 -0.3250
  678MOL0     C91405   0.243   5.448   8.243 -0.3829  0.2605 -0.2839
  678MOL0     C91406   0.159   5.322   8.228  0.4376  0.1031 -0.0805
  678MOL0     C91407   0.009   5.364   8.246 -0.5549 -0.0816 -0.2531
  678MOL0     C91408  -0.105   5.254   8.217 -1.3793 -0.0807  0.4035
  678MOL0     C91409  -0.118   5.229   8.063 -0.1786 -1.1775  0.7204
  678MOL0     C91410  -0.242   5.137   8.032  0.3566 -0.9783 -0.1561
  678MOL0     C91411  -0.240   5.060   7.903 -1.2000  0.1946  0.5623
  678MOL0     N91412  -0.360   4.993   7.871  0.7831 -0.4845  0.0138
  678MOL0     C91413  -0.426   4.918   7.966  0.4475 -0.0674 -0.3126
  678MOL0     C91414  -0.536   4.868   7.904 -0.9059  0.6093  0.4116
  678MOL0     C91415  -0.651   4.771   7.926 -0.6282  0.4065 -0.2988
  678MOL0     C91416  -0.775   4.837   7.973  0.0547  0.1979 -0.0960
  678MOL0     C91417  -0.833   4.927   7.867  0.1681  0.1302  0.3144
  678MOL0     C91418  -0.976   4.951   7.912 -0.8250  0.1296  0.3376
  678MOL0     O91419  -1.049   5.027   7.816  0.7499 -0.0500  0.8455
  678MOL0     C91420  -1.177   5.058   7.842  0.1399  0.0609 -0.1576
  678MOL0     C91421  -1.263   5.127   7.741 -0.5104  0.2474 -0.3673
  678MOL0     C91422  -1.393   5.174   7.781  0.5077  0.7116  0.6869
  678MOL0     C91423  -1.465   5.243   7.666  0.2287 -0.1392  0.2443
  678MOL0     C91424  -1.450   5.158   7.912 -0.1607 -0.0830 -0.5641
  678MOL0     C91425  -1.583   5.188   7.954  0.0768 -0.0751 -0.1513
  678MOL0     O91426  -1.654   5.280   7.886 -0.3540 -1.3283 -0.6787
  678MOL0     C91427  -1.791   5.275   7.892  0.5764 -0.4348 -0.4782
  678MOL0     C91428  -1.866   5.316   8.008  0.0530 -0.0590  0.2835
  678MOL0     C91429  -2.006   5.317   8.014 -0.4549  0.9838 -1.0214
  678MOL0     C91430  -2.081   5.266   7.907 -0.7568  0.2173 -0.3255
  678MOL0     O91431  -2.217   5.250   7.908 -0.3914  0.1242  0.0097
  678MOL0     C91432  -2.289   5.318   8.010 -0.3030  1.1214 -0.5399
  678MOL0     C91433  -2.438   5.292   7.977  0.2860 -0.2292  0.7528
  678MOL0     C91434  -2.525   5.373   8.070  0.4862  0.3527  0.1154
  678MOL0     C91435  -2.665   5.372   8.006  0.3239 -0.2801  0.9756
  678MOL0     C91436  -2.758   5.456   8.099  0.3630 -0.7147  0.7760
  678MOL0     C91437  -2.885   5.486   8.029 -0.7742 -0.2818 -0.4176
  678MOL0     C91438  -2.965   5.357   8.005  1.2332  0.2922 -0.1881
  678MOL0     C91439  -3.104   5.392   7.946  0.1624 -0.7149 -0.3918
  678MOL0    Cl91440  -3.084   5.495   7.797  0.5164 -0.1817 -0.0737
  678MOL0     C91441  -2.004   5.222   7.798 -0.2651 -0.0450 -0.1050
  678MOL0     C91442  -1.864   5.224   7.789 -0.0400 -0.6177  0.0062
  678MOL0     O91443  -1.631   5.140   8.054 -0.0073  0.5828  0.4893
  678MOL0     C91444  -1.360   5.083   8.008  0.9839  0.2621  0.0734
  678MOL0     C91445  -1.237   5.038   7.967 -0.2146 -0.5321  0.7898
  678MOL0     N91446  -0.538   4.926   7.778 -0.3477  0.7773  0.1727
  678MOL0     N91447  -0.434   5.004   7.754  0.4094 -0.2046 -0.6195
  678MOL0     C91448   0.658   5.423   8.173 -0.1687 -0.0427  0.8061
  678MOL0     C91449   0.794   5.423   8.133  0.4841 -0.7647 -0.4833
  678MOL0     C91450   1.196   5.536   7.950 -0.7288  0.0735 -0.5475
  678MOL0     C91451   1.225   5.464   7.832  0.3700 -0.8801  1.0870
  678MOL0     C91452   1.357   5.475   7.778 -0.3230  0.2397 -0.1752
  678MOL0     C91453   1.469   5.523   7.847  1.1619 -0.9182 -0.8703
  678MOL0     O91454   1.590   5.547   7.800  0.1305  0.7689  0.3931
  678MOL0     C91455   1.638   5.439   7.717  0.2103  0.2400  0.1458
  678MOL0     C91456   1.789   5.425   7.721  0.3979  0.5226  0.4070
  678MOL0     C91457   1.831   5.295   7.647 -0.3686  0.9200 -0.6922
  678MOL0     C91458   1.979   5.260   7.663  0.0502  0.0810  0.5103
  678MOL0     C91459   2.067   5.368   7.600 -0.2517  0.1088  0.8263
  678MOL0     C91460   2.133   5.447   7.527 -0.3211 -0.2481  0.0328
  678MOL0     C91461   1.435   5.602   7.963  0.3810 -0.3880 -0.1553
  678MOL0     C91462   1.307   5.613   8.012 -0.8887 -0.1153  0.2170
  678MOL0     H91463   0.772   5.574   7.826  3.2628 -1.5929  0.4212
  678MOL0     H91464   0.539   5.576   7.890 -1.2506  0.8794  1.3351
  678MOL0     H91465   0.405   5.300   8.214  0.7674 -0.1457  0.4153
  678MOL0     H91466   0.438   5.460   8.300  0.5669  1.7527 -1.5984
  678MOL0     H91467   0.234   5.476   8.349  0.2964 -1.6397  0.3230
  678MOL0     H91468   0.204   5.524   8.175  1.8840  3.4702  1.7296
  678MOL0     H91469   0.173   5.288   8.125 -4.9826  2.3629 -1.9486
  678MOL0     H91470   0.194   5.244   8.296 -0.9585  2.6206  3.8974
  678MOL0     H91471   0.011   5.393   8.351  2.0351 -2.8401  0.6286
  678MOL0     H91472  -0.015   5.450   8.183  1.1325 -1.5749 -3.1842
  678MOL0     H91473  -0.085   5.161   8.270  0.9868 -0.9872 -1.8600
  678MOL0     H91474  -0.199   5.300   8.248 -0.4497  3.3636 -1.3421
  678MOL0     H91475  -0.140   5.326   8.017  3.0026 -1.1636 -1.1135
  678MOL0     H91476  -0.024   5.192   8.021 -1.3138 -1.7783 -1.4488
  678MOL0     H91477  -0.263   5.072   8.117 -1.6919 -0.0712  0.0942
  678MOL0     H91478  -0.325   5.208   8.025  2.6728  1.7869 -2.8393
  678MOL0     H91479  -0.166   4.982   7.926 -0.0275  0.8902 -0.6993
  678MOL0     H91480  -0.206   5.115   7.815 -0.5026  2.1377  1.9704
  678MOL0     H91481  -0.384   4.890   8.061  1.8082 -2.5923 -1.5757
  678MOL0     H91482  -0.676   4.718   7.834  1.0060 -1.1317  0.0916
  678MOL0     H91483  -0.621   4.707   8.009  2.9526  1.1795 -0.8378
  678MOL0     H91484  -0.754   4.905   8.056 -2.4297 -0.6130  1.2684
  678MOL0     H91485  -0.841   4.762   8.017 -0.0692 -1.4879 -2.8899
  678MOL0     H91486  -0.841   4.896   7.763 -0.4205 -1.0863  0.7077
  678MOL0     H91487  -0.786   5.025   7.855  2.4815 -0.9417  0.2112
  678MOL0     H91488  -0.985   4.999   8.010  3.3889 -3.3427  2.7922
  678MOL0     H91489  -1.030   4.856   7.917 -0.0359 -0.3157  0.5725
  678MOL0     H91490  -1.234   5.157   7.641 -2.0918  3.1939 -0.0851
  678MOL0     H91491  -1.453   5.351   7.663 -0.6370 -0.0409 -2.5678
  678MOL0     H91492  -1.442   5.191   7.573  0.7270  0.9522 -0.2551
  678MOL0     H91493  -1.573   5.248   7.684  0.3905  0.6540  1.0895
  678MOL0     H91494  -1.799   5.330   8.092  2.6711 -1.7541 -1.3895
  678MOL0     H91495  -2.044   5.335   8.114 -1.1565 -2.8668 -0.4513
  678MOL0     H91496  -2.265   5.258   8.098 -0.6032 -0.9260 -1.7890
  678MOL0     H91497  -2.267   5.425   8.003  4.1489  0.3565 -1.4551
  678MOL0     H91498  -2.472   5.323   7.878 -1.4085  1.9096  1.9220
  678MOL0     H91499  -2.461   5.186   7.991 -0.5482 -0.4068 -1.4944
  678MOL0     H91500  -2.493   5.478   8.075 -1.8529  1.2616 -1.7398
  678MOL0     H91501  -2.525   5.326   8.168 -1.2132 -1.3326 -0.6307
  678MOL0     H91502  -2.673   5.413   7.905 -2.2519 -0.3991  1.0477
  678MOL0     H91503  -2.695   5.266   8.006 -0.6067 -0.0332  0.0843
  678MOL0     H91504  -2.704   5.548   8.122  0.1982  0.4210 -2.7182
  678MOL0     H91505  -2.779   5.396   8.188  1.6852  1.0059  2.3064
  678MOL0     H91506  -2.935   5.554   8.098 -1.3040  0.5551 -1.5913
  678MOL0     H91507  -2.865   5.548   7.941 -2.5398  1.7363  0.5211
  678MOL0     H91508  -2.975   5.308   8.103  3.9717 -0.2186 -0.0821
  678MOL0     H91509  -2.925   5.283   7.935 -3.2530 -3.9643  1.2420
  678MOL0     H91510  -3.154   5.454   8.021 -1.6726 -0.1559 -1.9851
  678MOL0     H91511  -3.173   5.311   7.923 -2.3304  1.6148 -1.7461
  678MOL0     H91512  -2.063   5.182   7.716 -2.7916  2.5489  0.2573
  678MOL0     H91513  -1.800   5.172   7.718  1.1641 -1.4813  1.6493
  678MOL0     H91514  -1.395   5.070   8.110 -1.3792  0.3014 -0.6599
  678MOL0     H91515  -1.178   5.001   8.050  1.1530  1.8514  0.9544
  678MOL0     H91516   0.633   5.371   8.265  0.4696 -0.0248  0.9966
  678MOL0     H91517   0.860   5.384   8.209  0.4584  1.2715  0.6650
  678MOL0     H91518   1.140   5.415   7.784  1.6537 -1.4139 -0.7203
  678MOL0     H91519   1.369   5.437   7.678 -1.3522  0.1491 -0.2748
  678MOL0     H91520   1.594   5.340   7.737  1.6387 -0.9194 -2.0521
  678MOL0     H91521   1.611   5.465   7.614 -2.3390  1.3255  1.0089
  678MOL0     H91522   1.826   5.425   7.824  1.7860  1.0152 -0.0695
  678MOL0     H91523   1.822   5.516   7.670 -0.8666 -0.1750 -1.7897
  678MOL0     H91524   1.820   5.313   7.540  1.7211  1.0635 -0.9238
  678MOL0     H91525   1.761   5.216   7.674  0.1342  0.1705 -1.5583
  678MOL0     H91526   1.995   5.171   7.602  0.5072  1.1194 -0.9351
  678MOL0     H91527   2.005   5.244   7.769  1.5942 -0.7851  0.0397
  678MOL0     H91528   2.185   5.532   7.488 -1.2608 -1.2199 -3.7156
  678MOL0     H91529   1.505   5.670   8.012  0.8082 -0.2201 -0.9961
  678MOL0     H91530   1.284   5.676   8.098  0.7329  1.5132 -0.4821
  679MOL0     O91531   0.713   8.195  10.225  0.8555 -0.7208  0.4845
  679MOL0     C91532   0.681   8.161  10.110 -0.7428  0.1285 -0.7424
  679MOL0     O91533   0.765   8.091  10.026  0.4024  0.0201 -0.3341
  679MOL0     C91534   0.888   8.056  10.072 -0.2200  1.0114  0.3196
  679MOL0     C91535   0.937   7.923  10.075  0.7143 -0.7120 -0.0086
  679MOL0     C91536   1.063   7.884  10.118 -0.0798  0.0197 -0.3369
  679MOL0     C91537   1.141   7.983  10.180 -0.2598  0.0699 -0.2923
  679MOL0     O91538   1.257   7.951  10.248  0.0626 -0.3580  0.1296
  679MOL0     C91539   1.319   7.827  10.238 -0.4066  1.2139 -0.3786
  679MOL0     C91540   1.464   7.835  10.293 -0.3144 -0.4638  0.0850
  679MOL0     C91541   1.550   7.719  10.255  0.5121  1.1386  0.9536
  679MOL0     C91542   1.699   7.753  10.262 -0.3266 -0.1911 -0.2454
  679MOL0     C91543   1.791   7.635  10.237 -0.4091 -0.3936  0.4574
  679MOL0     C91544   1.943   7.680  10.232 -0.0382 -0.3506 -0.5657
  679MOL0     C91545   2.026   7.567  10.172 -0.0961 -0.4078  0.4526
  679MOL0     C91546   2.179   7.595  10.187  0.4838  1.1680 -0.1977
  679MOL0     N91547   2.251   7.463  10.175 -0.2574 -0.8760 -1.0122
  679MOL0     C91548   2.267   7.385  10.055  0.2488 -0.4302 -0.8680
  679MOL0     C91549   2.343   7.277  10.090  0.2773 -0.8015  0.2219
  679MOL0     C91550   2.384   7.155  10.018 -0.9815 -0.6671  0.1718
  679MOL0     C91551   2.541   7.120  10.036  0.0970  0.2610  0.0092
  679MOL0     C91552   2.569   7.026   9.919 -0.0550  0.4737 -0.4002
  679MOL0     C91553   2.722   6.996   9.910  0.4425 -0.3881  0.5616
  679MOL0     O91554   2.774   6.950  10.038  0.6065 -0.5516  0.2631
  679MOL0     C91555   2.909   6.936  10.054  0.5174 -0.4419  0.2818
  679MOL0     C91556   3.000   6.900   9.952  0.1550  0.3310  1.4626
  679MOL0     C91557   3.128   6.886   9.976 -1.0227  1.1899  0.0843
  679MOL0     C91558   3.212   6.831   9.861 -0.1004  0.4722 -0.0754
  679MOL0     C91559   3.181   6.906  10.110 -0.1524 -0.7995  0.4912
  679MOL0     C91560   3.331   6.897  10.138  0.5330 -0.7094  0.1047
  679MOL0     O91561   3.420   6.852  10.043  0.2297 -0.0014 -0.7397
  679MOL0     C91562   3.545   6.833  10.071 -0.9556 -0.2903  0.4711
  679MOL0     C91563   3.592   6.710  10.103 -0.0765 -0.1806  0.5507
  679MOL0     C91564   3.731   6.697  10.110  0.4523  0.5552  0.2112
  679MOL0     C91565   3.820   6.805  10.080  0.1440 -0.8082 -0.3404
  679MOL0     O91566   3.962   6.802  10.090  0.3342  0.4994  0.3929
  679MOL0     C91567   4.017   6.699  10.168 -0.6365 -0.2526 -0.0199
  679MOL0     C91568   4.170   6.715  10.178  0.0470  0.3694 -0.6715
  679MOL0     C91569   4.228   6.680  10.039  0.1058 -0.9236 -0.7948
  679MOL0     C91570   4.369   6.742  10.029  0.8068 -0.5128  0.0131
  679MOL0     C91571   4.451   6.707   9.902 -0.3492 -0.3739  0.7378
  679MOL0     C91572   4.573   6.793   9.873  0.4195  0.7867  0.5338
  679MOL0     C91573   4.574   6.935   9.922 -0.0599  0.0584 -0.5130
  679MOL0     C91574   4.693   7.007   9.863 -1.0062 -0.0639 -0.3624
  679MOL0    Cl91575   4.855   6.951   9.914 -0.2555  0.0494  0.3730
  679MOL0     C91576   3.765   6.932  10.051 -0.6272  0.4549  0.0791
  679MOL0     C91577   3.631   6.944  10.049  0.6685 -0.1094 -0.1937
  679MOL0     O91578   3.360   6.942  10.249  0.1368 -0.4767 -0.6684
  679MOL0     C91579   3.093   6.930  10.211  0.9440  0.3909  0.1174
  679MOL0     C91580   2.960   6.943  10.183 -0.2467 -0.4774 -0.0595
  679MOL0     N91581   2.370   7.284  10.227 -0.2957 -0.6402 -0.6627
  679MOL0     N91582   2.327   7.401  10.279  0.0242 -0.0389  0.3894
  679MOL0     C91583   1.097   8.116  10.176 -0.0646  0.5076 -0.4587
  679MOL0     C91584   0.977   8.158  10.118 -0.3205  0.7784  1.1756
  679MOL0     C91585   0.543   8.197  10.061 -0.9201 -0.0585 -0.0108
  679MOL0     C91586   0.501   8.152   9.933  0.0892 -0.1293  0.4952
  679MOL0     C91587   0.379   8.188   9.880 -0.2884  1.0228  0.7157
  679MOL0     C91588   0.292   8.276   9.948  0.1862  0.2964  0.9049
  679MOL0     O91589   0.169   8.306   9.899  0.4529 -0.4027 -0.3587
  679MOL0     C91590   0.073   8.328   9.995 -0.3760 -1.2553  0.0362
  679MOL0     C91591  -0.066   8.322   9.922 -0.4157  0.4428 -0.2344
  679MOL0     C91592  -0.175   8.379  10.015  0.2994 -0.5684 -0.3111
  679MOL0     C91593  -0.303   8.357   9.937  0.3533  0.4021 -0.2923
  679MOL0     C91594  -0.319   8.429   9.805 -0.1577 -0.1309  0.6723
  679MOL0     C91595  -0.355   8.495   9.706 -0.8258 -0.5075 -0.2104
  679MOL0     C91596   0.338   8.322  10.069 -0.0496  0.6334 -0.3260
  679MOL0     C91597   0.461   8.281  10.136  0.5958  0.3670 -0.2234
  679MOL0     H91598   0.862   7.851  10.045  0.7096  0.3343 -2.8397
  679MOL0     H91599   1.081   7.778  10.105 -1.5913 -0.0670 -2.2397
  679MOL0     H91600   1.274   7.746  10.296  1.2744 -0.1145 -0.8766
  679MOL0     H91601   1.313   7.782  10.139 -4.3113 -0.8914  0.6016
  679MOL0     H91602   1.510   7.931  10.265 -0.4839  0.4348  2.6228
  679MOL0     H91603   1.445   7.821  10.400  0.6748 -0.3998  0.2763
  679MOL0     H91604   1.535   7.629  10.316 -1.1455  0.7796  0.1011
  679MOL0     H91605   1.524   7.688  10.153  0.5504 -0.5316  1.4216
  679MOL0     H91606   1.715   7.823  10.180  0.4626 -2.7431 -2.3688
  679MOL0     H91607   1.726   7.799  10.358 -2.9322  1.8845 -0.3831
  679MOL0     H91608   1.781   7.572  10.327 -2.1411  0.6576  1.0385
  679MOL0     H91609   1.768   7.583  10.144 -3.2561  2.4002 -0.5514
  679MOL0     H91610   1.948   7.766  10.165  1.2322 -0.9715 -1.2970
  679MOL0     H91611   1.985   7.722  10.325  3.8041 -0.0348 -2.2685
  679MOL0     H91612   2.007   7.471  10.221 -3.2676 -0.9881 -1.6410
  679MOL0     H91613   1.998   7.545  10.069  3.2732 -3.8701  0.0640
  679MOL0     H91614   2.199   7.631  10.288 -1.3132  0.2896  0.5210
  679MOL0     H91615   2.218   7.670  10.118  0.4458  1.7258  0.3791
  679MOL0     H91616   2.221   7.420   9.963 -1.7095  0.8644  0.5103
  679MOL0     H91617   2.328   7.070  10.059 -0.7526  0.0153  2.0187
  679MOL0     H91618   2.376   7.171   9.910  1.1513  0.3465  0.1135
  679MOL0     H91619   2.553   7.081  10.137  0.3374 -1.8320 -0.7865
  679MOL0     H91620   2.609   7.205  10.031  0.2574  0.1163 -0.2618
  679MOL0     H91621   2.535   7.065   9.823  1.7146  1.6174 -0.6106
  679MOL0     H91622   2.528   6.927   9.940  1.8512 -0.4910 -0.9719
  679MOL0     H91623   2.772   7.090   9.884  0.7978 -1.3021 -2.4119
  679MOL0     H91624   2.742   6.924   9.830 -3.8310 -0.3284 -0.8311
  679MOL0     H91625   2.970   6.879   9.850  2.5385  1.1867  0.5007
  679MOL0     H91626   3.149   6.786   9.783  1.2906 -2.7556  0.5159
  679MOL0     H91627   3.288   6.904   9.833  1.3654 -0.5547  1.1236
  679MOL0     H91628   3.260   6.741   9.901 -2.2956 -1.3033 -1.1814
  679MOL0     H91629   3.523   6.632  10.134  1.1143 -2.2163 -1.6190
  679MOL0     H91630   3.776   6.601  10.133  1.6102  0.6779 -1.3800
  679MOL0     H91631   3.968   6.694  10.267  2.5676 -1.7758  1.6303
  679MOL0     H91632   3.997   6.603  10.119  3.3408 -0.0099 -2.4785
  679MOL0     H91633   4.202   6.818  10.198 -0.5679  1.0772 -3.0121
  679MOL0     H91634   4.218   6.652  10.253  0.1749 -0.7218 -1.6558
  679MOL0     H91635   4.159   6.724   9.967 -0.2645 -2.8548 -1.7115
  679MOL0     H91636   4.218   6.571  10.027 -1.8361 -0.8518 -0.1796
  679MOL0     H91637   4.366   6.851  10.038  2.6878 -0.5954  4.1108
  679MOL0     H91638   4.426   6.704  10.114  1.1589 -0.2789 -0.1151
  679MOL0     H91639   4.392   6.735   9.815  1.0078  1.5652  0.3834
  679MOL0     H91640   4.469   6.599   9.898 -0.1502 -0.3084 -0.5544
  679MOL0     H91641   4.652   6.734   9.920  1.9741  0.4174 -2.3327
  679MOL0     H91642   4.592   6.779   9.766  1.9795 -0.1593  0.9063
  679MOL0     H91643   4.594   6.923  10.028 -0.5371  1.2121 -0.2798
  679MOL0     H91644   4.477   6.979   9.894  0.0318 -0.2727 -1.4085
  679MOL0     H91645   4.677   7.111   9.894 -1.3851 -0.5134  0.9916
  679MOL0     H91646   4.697   7.019   9.754 -1.3925 -1.1846 -0.5150
  679MOL0     H91647   3.827   7.020  10.033  0.5244 -0.5135 -0.8584
  679MOL0     H91648   3.597   7.029   9.990  0.3918  0.5429  0.8822
  679MOL0     H91649   3.116   6.952  10.315 -2.3186 -0.4128  1.1244
  679MOL0     H91650   2.895   6.963  10.268 -0.6225  0.5925 -0.5775
  679MOL0     H91651   1.171   8.181  10.220  2.1190 -2.2157  0.1990
  679MOL0     H91652   0.945   8.261  10.101 -0.0716  0.6483 -0.1826
  679MOL0     H91653   0.568   8.081   9.886 -1.5204 -0.2569 -1.8254
  679MOL0     H91654   0.338   8.160   9.783  0.5787  2.8869 -0.2324
  679MOL0     H91655   0.082   8.248  10.069 -0.1193  1.4019  3.1045
  679MOL0     H91656   0.098   8.418  10.053  3.7279 -2.4457  0.4224
  679MOL0     H91657  -0.080   8.216   9.897  3.1956 -0.3277  0.3571
  679MOL0     H91658  -0.069   8.383   9.832 -0.6086  2.4612  1.0824
  679MOL0     H91659  -0.168   8.489  10.018 -0.5933 -0.5315  2.6372
  679MOL0     H91660  -0.177   8.332  10.113  1.2146 -1.4932 -0.7092
  679MOL0     H91661  -0.384   8.402   9.996  1.7740  2.3370  0.3050
  679MOL0     H91662  -0.320   8.251   9.916 -1.6722  0.5736  0.2569
  679MOL0     H91663  -0.390   8.547   9.619  1.1267 -0.7481 -1.1816
  679MOL0     H91664   0.280   8.389  10.131 -0.6808 -0.9257  0.8442
  679MOL0     H91665   0.478   8.330  10.232  1.5050 -1.9846  0.8936
  680MOL0     O91666   6.441   1.278  10.152  0.2561 -0.6368  0.2172
  680MOL0     C91667   6.432   1.344  10.257  0.9374 -0.0499  0.3646
  680MOL0     O91668   6.320   1.404  10.303  0.2724 -0.2747  0.1053
  680MOL0     C91669   6.187   1.393  10.264 -0.1754 -0.3791 -0.0477
  680MOL0     C91670   6.143   1.333  10.146 -0.0865 -0.1484 -0.2522
  680MOL0     C91671   6.009   1.345  10.108  0.6745  0.7463 -0.0272
  680MOL0     C91672   5.922   1.409  10.192  0.1566 -0.0973 -0.1012
  680MOL0     O91673   5.789   1.421  10.173  0.1648 -0.1948 -0.0760
  680MOL0     C91674   5.736   1.317  10.090 -0.1729 -0.1687 -0.1356
  680MOL0     C91675   5.587   1.315  10.095 -0.1144  0.5415  0.3987
  680MOL0     C91676   5.522   1.183  10.049  0.3223 -0.0987 -0.0550
  680MOL0     C91677   5.375   1.217  10.050 -0.0822 -0.6903 -0.1549
  680MOL0     C91678   5.285   1.085  10.059  0.2409  0.4084 -0.1764
  680MOL0     C91679   5.136   1.135  10.054 -1.0393 -0.5863  0.1017
  680MOL0     C91680   5.040   1.020  10.062 -0.5890 -0.0281 -0.7116
  680MOL0     C91681   4.899   1.065  10.048  0.2677 -0.1681  0.5024
  680MOL0     N91682   4.809   0.952  10.000 -0.2052  0.9658  0.4562
  680MOL0     C91683   4.795   0.907   9.873 -1.1349  0.5571 -0.3542
  680MOL0     C91684   4.720   0.787   9.882  0.2863 -0.1315 -0.0815
  680MOL0     C91685   4.673   0.710   9.760  0.0484  0.5876  0.1265
  680MOL0     C91686   4.550   0.771   9.705 -0.1840 -1.2556 -0.9158
  680MOL0     C91687   4.427   0.716   9.780 -0.9870  1.1915 -0.4230
  680MOL0     C91688   4.293   0.789   9.754  0.5593  0.0330  0.9725
  680MOL0     O91689   4.278   0.782   9.602 -0.2776 -0.5611 -0.0723
  680MOL0     C91690   4.151   0.806   9.556 -0.0931 -0.0897 -0.5766
  680MOL0     C91691   4.128   0.921   9.483  0.5386  0.0774 -0.2876
  680MOL0     C91692   3.996   0.958   9.454  0.9286 -0.2622  0.4550
  680MOL0     C91693   3.972   1.091   9.375  0.2765 -0.2758  0.0669
  680MOL0     C91694   3.888   0.881   9.491 -0.9908 -0.0782 -0.7875
  680MOL0     C91695   3.748   0.920   9.495  0.5407 -0.1256  0.4623
  680MOL0     O91696   3.654   0.820   9.494  0.9900  0.7072  0.2346
  680MOL0     C91697   3.523   0.852   9.524  0.1879 -0.4478 -0.2863
  680MOL0     C91698   3.475   0.845   9.660 -0.6563  0.1740 -0.2154
  680MOL0     C91699   3.341   0.863   9.696  0.3553 -0.3004  0.3274
  680MOL0     C91700   3.252   0.903   9.602  0.0246 -0.4593  0.4161
  680MOL0     O91701   3.114   0.900   9.630  0.2179 -0.5058  0.1877
  680MOL0     C91702   3.070   1.011   9.722  0.2911 -0.4589  0.0650
  680MOL0     C91703   2.918   0.998   9.739  0.2102  0.4866 -0.6428
  680MOL0     C91704   2.847   1.016   9.611  0.5979  0.0994  0.4535
  680MOL0     C91705   2.703   1.081   9.632 -0.2184  0.0328 -0.4323
  680MOL0     C91706   2.640   1.107   9.503 -0.6947 -0.3593 -0.1653
  680MOL0     C91707   2.497   1.177   9.518 -1.3075  0.0153 -0.9141
  680MOL0     C91708   2.413   1.175   9.389  0.5370 -0.6386  1.2378
  680MOL0     C91709   2.300   1.274   9.370 -0.6968  0.0355 -0.2654
  680MOL0    Cl91710   2.160   1.205   9.458 -0.0949 -0.7485  0.1246
  680MOL0     C91711   3.294   0.911   9.474 -0.1603 -0.1185 -0.6066
  680MOL0     C91712   3.429   0.894   9.434 -0.4640  0.3979 -0.6796
  680MOL0     O91713   3.719   1.040   9.500 -0.0427 -0.9617  1.0603
  680MOL0     C91714   3.913   0.754   9.558  0.7473 -0.3968  0.6042
  680MOL0     C91715   4.044   0.723   9.587  0.1020  0.0336  0.1522
  680MOL0     N91716   4.693   0.772  10.019 -0.8621  0.4783 -1.0160
  680MOL0     N91717   4.745   0.863  10.085 -0.7928  0.6463  0.1927
  680MOL0     C91718   5.960   1.462  10.313 -0.8944  0.3237 -0.1654
  680MOL0     C91719   6.096   1.450  10.348 -0.1231  0.9034  0.4810
  680MOL0     C91720   6.556   1.374  10.331 -0.6080 -0.3600  0.4415
  680MOL0     C91721   6.566   1.389  10.464 -0.2417  0.2674  0.2958
  680MOL0     C91722   6.685   1.406  10.535 -0.0775 -0.3703  0.1201
  680MOL0     C91723   6.813   1.390  10.481  0.8729 -0.4290  0.0886
  680MOL0     O91724   6.927   1.392  10.556 -0.0436 -0.2281  0.5379
  680MOL0     C91725   7.046   1.336  10.506 -0.6769 -0.3381  0.4678
  680MOL0     C91726   7.152   1.326  10.615  0.2019 -0.6177  0.1792
  680MOL0     C91727   7.291   1.315  10.550  0.3092  0.2745 -1.2650
  680MOL0     C91728   7.311   1.182  10.477  0.4455  0.5561  0.0986
  680MOL0     C91729   7.300   1.058  10.561 -1.5328 -0.0096 -0.8132
  680MOL0     C91730   7.288   0.958  10.633 -0.0706 -0.1106  0.6303
  680MOL0     C91731   6.808   1.356  10.344  0.0268 -0.6998  0.9676
  680MOL0     C91732   6.685   1.348  10.268  0.7552  0.1679  0.1520
  680MOL0     H91733   6.211   1.286  10.075  1.2547 -1.1262  1.5976
  680MOL0     H91734   5.983   1.292  10.017 -3.3030  0.4101  1.1043
  680MOL0     H91735   5.767   1.329   9.986 -0.5155  1.8600 -0.0540
  680MOL0     H91736   5.779   1.225  10.131  0.9075  1.3599  2.3987
  680MOL0     H91737   5.556   1.330  10.199 -1.5470 -2.1092  0.4431
  680MOL0     H91738   5.550   1.400  10.037 -2.0455  0.2298  1.0852
  680MOL0     H91739   5.545   1.155   9.945 -3.2122 -0.6745 -0.8205
  680MOL0     H91740   5.554   1.094  10.104  2.2243  0.9330  0.5807
  680MOL0     H91741   5.348   1.270  10.142 -1.3262 -3.3730  1.1214
  680MOL0     H91742   5.352   1.276   9.961 -0.0992  1.3648  1.1447
  680MOL0     H91743   5.299   1.016   9.975 -1.3460 -1.0584  0.7037
  680MOL0     H91744   5.303   1.027  10.149 -2.2757 -0.3785 -0.0991
  680MOL0     H91745   5.116   1.213  10.128 -1.8121  1.9265 -2.5368
  680MOL0     H91746   5.123   1.192   9.962  2.8806  0.7201  0.1656
  680MOL0     H91747   5.066   0.946   9.986 -2.4016  0.6655 -2.1007
  680MOL0     H91748   5.048   0.974  10.161 -2.3577  4.8508  2.0648
  680MOL0     H91749   4.884   1.156   9.988 -1.3134  1.0611  2.6026
  680MOL0     H91750   4.865   1.086  10.150  3.7155  2.3550  1.3380
  680MOL0     H91751   4.832   0.954   9.782 -1.2705  1.6547  0.1351
  680MOL0     H91752   4.761   0.690   9.697  1.3285 -0.6581  2.2001
  680MOL0     H91753   4.659   0.611   9.805 -0.8618  0.4025 -0.5385
  680MOL0     H91754   4.541   0.730   9.604 -1.4848 -1.1306 -0.8690
  680MOL0     H91755   4.565   0.880   9.708 -1.6292 -1.0341 -1.1970
  680MOL0     H91756   4.449   0.708   9.887  0.9625 -0.6654 -0.9081
  680MOL0     H91757   4.406   0.620   9.734 -1.0015  1.1680 -0.3675
  680MOL0     H91758   4.294   0.891   9.795  1.9357  0.7401 -0.6847
  680MOL0     H91759   4.209   0.748   9.811 -0.8743  4.0240  2.1015
  680MOL0     H91760   4.215   0.982   9.458  1.0306 -1.1957 -1.8372
  680MOL0     H91761   3.954   1.177   9.440  0.4869 -0.9857  1.0968
  680MOL0     H91762   4.064   1.122   9.324 -1.0704  1.6145 -1.3428
  680MOL0     H91763   3.889   1.079   9.305 -3.2766  1.9796  3.4621
  680MOL0     H91764   3.554   0.805   9.721 -0.3005  1.0847 -0.0582
  680MOL0     H91765   3.308   0.848   9.798 -0.6163 -1.0966 -0.0892
  680MOL0     H91766   3.113   0.988   9.820  2.3565 -0.7038 -0.8408
  680MOL0     H91767   3.103   1.112   9.694  0.5265 -0.2637  0.9967
  680MOL0     H91768   2.905   0.897   9.779 -1.4681  1.0927  0.4431
  680MOL0     H91769   2.883   1.068   9.816 -0.9539  0.0488 -0.7515
  680MOL0     H91770   2.842   0.920   9.559 -1.4539  1.4815 -2.1203
  680MOL0     H91771   2.898   1.084   9.543  0.7061  0.8925  1.3059
  680MOL0     H91772   2.641   1.016   9.695  1.1692 -1.7365 -0.7997
  680MOL0     H91773   2.717   1.176   9.684 -0.1897  1.2967 -2.6202
  680MOL0     H91774   2.638   1.009   9.455 -1.0668 -2.8192  4.3223
  680MOL0     H91775   2.698   1.187   9.456 -0.9793  0.5726  1.0093
  680MOL0     H91776   2.429   1.142   9.597  0.3860  0.8802  1.0156
  680MOL0     H91777   2.526   1.280   9.540  1.4425 -0.6280 -1.2151
  680MOL0     H91778   2.363   1.079   9.377  0.4926 -0.4821  0.0242
  680MOL0     H91779   2.483   1.199   9.308  1.8777 -2.2811  1.8538
  680MOL0     H91780   2.292   1.288   9.262  1.1107 -0.0076 -0.4405
  680MOL0     H91781   2.326   1.376   9.399 -3.6465  1.1991 -1.3281
  680MOL0     H91782   3.227   0.938   9.394 -3.2746 -0.0318  1.8454
  680MOL0     H91783   3.468   0.913   9.335  1.2702 -2.5280 -0.6850
  680MOL0     H91784   3.834   0.696   9.604 -2.3643  2.3010 -0.9415
  680MOL0     H91785   4.056   0.633   9.645  0.7045 -2.5325 -3.5871
  680MOL0     H91786   5.894   1.525  10.371 -0.1136  1.8213 -0.8563
  680MOL0     H91787   6.121   1.496  10.443 -0.9914  2.0687  0.1760
  680MOL0     H91788   6.468   1.399  10.509 -0.6638  1.2087 -0.7891
  680MOL0     H91789   6.665   1.432  10.638  1.4274  0.6375  0.1870
  680MOL0     H91790   7.036   1.243  10.449  2.9814 -0.3743 -0.3494
  680MOL0     H91791   7.087   1.414  10.441 -0.6350  0.3995  1.3657
  680MOL0     H91792   7.135   1.249  10.690  0.7924 -2.4705 -1.5154
  680MOL0     H91793   7.145   1.421  10.668 -2.9263 -0.4260 -0.3866
  680MOL0     H91794   7.376   1.325  10.617  0.3476  2.4267 -1.5579
  680MOL0     H91795   7.300   1.400  10.481 -3.1758  1.1004 -0.8840
  680MOL0     H91796   7.412   1.176  10.437  1.3859  3.1754  1.8527
  680MOL0     H91797   7.240   1.168  10.395  1.7915 -0.5543 -0.9239
  680MOL0     H91798   7.264   0.865  10.683  1.6962  1.1215  4.1296
  680MOL0     H91799   6.899   1.321  10.296  0.6602  1.3982  0.5487
  680MOL0     H91800   6.690   1.312  10.166  0.9634 -0.7054  0.4595
  681MOL0     O91801   5.566   2.833   3.586 -0.0288  0.4459 -0.4667
  681MOL0     C91802   5.599   2.920   3.509 -0.8852  0.1181  0.2215
  681MOL0     O91803   5.512   3.012   3.446  0.2204 -0.5640  0.0881
  681MOL0     C91804   5.380   3.013   3.467 -0.3692  0.5818 -0.0105
  681MOL0     C91805   5.314   2.984   3.591  0.2447  0.4360 -0.9339
  681MOL0     C91806   5.177   3.011   3.606  0.0791 -1.0828 -0.3033
  681MOL0     C91807   5.104   3.065   3.497  0.2029 -0.1300 -0.0976
  681MOL0     O91808   4.969   3.080   3.509  0.1766  0.2822  0.4665
  681MOL0     C91809   4.916   3.136   3.633  0.3781 -0.3242 -0.8126
  681MOL0     C91810   4.990   3.274   3.671 -0.4740  0.8135  0.0952
  681MOL0     C91811   4.883   3.360   3.731 -0.0018 -0.7637  0.1143
  681MOL0     C91812   4.939   3.503   3.756 -0.0886  0.2246 -0.1138
  681MOL0     C91813   4.839   3.619   3.755  0.3160 -0.5882  0.0365
  681MOL0     C91814   4.731   3.595   3.856 -0.0379 -0.2016 -0.6428
  681MOL0     C91815   4.625   3.705   3.858  0.6510  0.2843 -0.1907
  681MOL0     C91816   4.505   3.655   3.778  0.3719 -0.1413  0.4422
  681MOL0     N91817   4.392   3.745   3.790 -0.3416 -0.4893 -0.2626
  681MOL0     C91818   4.292   3.749   3.695 -0.3158 -0.0052  0.3412
  681MOL0     C91819   4.218   3.852   3.735 -0.0357  0.4679  0.0819
  681MOL0     C91820   4.083   3.867   3.680 -0.1625 -0.2368 -0.1099
  681MOL0     C91821   4.087   3.950   3.555  0.0467 -0.3414 -0.0494
  681MOL0     C91822   3.969   3.907   3.459 -0.1122 -0.1348  0.6855
  681MOL0     C91823   3.842   3.933   3.536 -0.5587  0.0971 -0.9268
  681MOL0     O91824   3.737   3.952   3.446  0.3389  0.2043 -0.9038
  681MOL0     C91825   3.614   3.996   3.492 -1.6229  0.7073 -0.2895
  681MOL0     C91826   3.569   4.001   3.619  0.2495 -0.4811  0.0584
  681MOL0     C91827   3.434   4.048   3.650  0.0173  0.7713 -0.0555
  681MOL0     C91828   3.393   4.049   3.795  0.5915  0.6766 -0.7345
  681MOL0     C91829   3.348   4.083   3.539  0.2002 -0.4667 -0.8385
  681MOL0     C91830   3.211   4.138   3.551  0.0947 -0.1239  0.2476
  681MOL0     O91831   3.140   4.130   3.437  0.5454  0.1684  0.3860
  681MOL0     C91832   3.002   4.159   3.444  0.0443 -0.1248 -0.2446
  681MOL0     C91833   2.916   4.045   3.428 -0.1103  0.1950  0.2859
  681MOL0     C91834   2.782   4.068   3.425  1.0220 -0.0237  0.2679
  681MOL0     C91835   2.735   4.205   3.455 -0.2188  0.2382  0.5484
  681MOL0     O91836   2.604   4.235   3.463  0.0058  0.4630  0.1727
  681MOL0     C91837   2.561   4.322   3.352  0.1092  0.5047 -0.1813
  681MOL0     C91838   2.578   4.260   3.209  0.1931  0.2462  0.3540
  681MOL0     C91839   2.487   4.137   3.178  0.2095 -0.5479 -0.4396
  681MOL0     C91840   2.354   4.141   3.234 -0.1096  0.4276 -0.0503
  681MOL0     C91841   2.263   4.256   3.179 -0.1545  0.2575  0.3250
  681MOL0     C91842   2.131   4.265   3.266 -0.2977 -0.1034  0.1181
  681MOL0     C91843   2.150   4.323   3.406  0.6725 -0.0267  0.6352
  681MOL0     C91844   2.187   4.472   3.406  0.3317  0.7553 -0.5490
  681MOL0    Cl91845   2.071   4.570   3.311  0.0291  0.0181 -0.1583
  681MOL0     C91846   2.822   4.315   3.479  0.8182  0.2174  0.0993
  681MOL0     C91847   2.960   4.292   3.468 -0.2313 -0.2682 -0.3560
  681MOL0     O91848   3.175   4.185   3.659 -0.0422 -0.1268 -0.5300
  681MOL0     C91849   3.400   4.080   3.414  1.0343  0.6085  0.8320
  681MOL0     C91850   3.533   4.036   3.389 -0.2088  0.5172  0.0305
  681MOL0     N91851   4.276   3.908   3.853 -0.3780 -0.4076  0.2340
  681MOL0     N91852   4.384   3.846   3.884  0.6477  0.0708  0.4631
  681MOL0     C91853   5.162   3.085   3.369 -0.5497 -0.0966 -0.9929
  681MOL0     C91854   5.299   3.061   3.365  0.2903 -0.3274  0.1959
  681MOL0     C91855   5.741   2.947   3.495 -0.3823 -0.3623  0.7765
  681MOL0     C91856   5.840   2.840   3.518 -0.5287 -0.5866  0.5126
  681MOL0     C91857   5.981   2.881   3.501  0.4121  0.9691 -0.6107
  681MOL0     C91858   6.014   3.003   3.460 -0.2408 -0.4441  0.9024
  681MOL0     O91859   6.151   3.032   3.439  0.7507  0.7512 -0.2235
  681MOL0     C91860   6.177   3.157   3.386 -1.0439 -0.8422  0.6363
  681MOL0     C91861   6.141   3.187   3.236 -0.3897  0.2084  0.4778
  681MOL0     C91862   6.256   3.119   3.159  0.0327 -0.6306  0.9352
  681MOL0     C91863   6.237   3.143   3.010 -0.4040  0.3709 -0.4552
  681MOL0     C91864   6.126   3.076   2.949  0.6251  0.8572  0.2837
  681MOL0     C91865   6.037   3.011   2.895  0.5327 -0.3297 -0.1604
  681MOL0     C91866   5.913   3.100   3.437  1.2486 -0.4402 -0.8138
  681MOL0     C91867   5.785   3.079   3.461  0.4322  0.2927  0.1656
  681MOL0     H91868   5.359   2.943   3.680 -0.4374 -0.4727 -1.0047
  681MOL0     H91869   5.135   2.974   3.699  0.6549 -3.0462 -0.7924
  681MOL0     H91870   4.809   3.152   3.618  0.3098  2.3399  1.7262
  681MOL0     H91871   4.914   3.071   3.720 -4.0864 -1.4162 -1.5165
  681MOL0     H91872   5.083   3.270   3.729 -0.1357  2.4953 -0.2868
  681MOL0     H91873   5.012   3.328   3.579 -1.0134  1.2033  0.1902
  681MOL0     H91874   4.804   3.370   3.656 -0.7521 -2.1820  0.6794
  681MOL0     H91875   4.840   3.318   3.822 -0.7830 -1.3434 -0.5094
  681MOL0     H91876   4.988   3.500   3.853  1.2548 -1.0021 -0.7832
  681MOL0     H91877   5.013   3.524   3.678 -0.2062 -1.3519 -0.7051
  681MOL0     H91878   4.894   3.712   3.775  1.2958 -1.3239  0.8861
  681MOL0     H91879   4.798   3.615   3.654  0.3755 -0.8991  0.0238
  681MOL0     H91880   4.679   3.499   3.850  1.0001 -1.0919  2.6209
  681MOL0     H91881   4.782   3.585   3.952 -1.3690 -2.1251 -0.0701
  681MOL0     H91882   4.608   3.728   3.963  2.0456  2.0210 -0.2996
  681MOL0     H91883   4.670   3.794   3.812  0.7549 -0.7485 -2.2170
  681MOL0     H91884   4.472   3.559   3.819 -1.6282 -0.4819 -1.7254
  681MOL0     H91885   4.538   3.643   3.675 -0.5524 -0.9554  0.2277
  681MOL0     H91886   4.273   3.677   3.616 -0.6367  0.4580 -0.0117
  681MOL0     H91887   4.047   3.765   3.661 -1.3784 -0.4772  2.9746
  681MOL0     H91888   4.018   3.913   3.755  2.3575 -0.7982  2.5945
  681MOL0     H91889   4.182   3.932   3.504  0.3700 -1.3288  0.8634
  681MOL0     H91890   4.075   4.059   3.566 -0.9832 -0.3558 -0.9074
  681MOL0     H91891   3.979   3.808   3.414 -2.1043  0.1668 -0.5660
  681MOL0     H91892   3.983   3.984   3.382  2.8514  2.4361  3.4679
  681MOL0     H91893   3.856   4.017   3.604  1.1543  0.1297 -1.2716
  681MOL0     H91894   3.818   3.851   3.603  1.5236 -0.0773 -0.3389
  681MOL0     H91895   3.628   3.972   3.706 -0.5422 -1.0837  0.4143
  681MOL0     H91896   3.371   4.149   3.835 -0.5006 -0.5081  1.9057
  681MOL0     H91897   3.310   3.982   3.819  1.1580  0.5336  0.9960
  681MOL0     H91898   3.477   4.013   3.855  0.5719 -0.8388 -1.5737
  681MOL0     H91899   2.958   3.945   3.425 -0.2300  0.1392  0.4342
  681MOL0     H91900   2.711   3.988   3.409 -1.0195  1.7597 -0.0737
  681MOL0     H91901   2.457   4.353   3.370  0.3002  1.3117 -0.4730
  681MOL0     H91902   2.613   4.418   3.355  3.1890 -1.0491 -0.6203
  681MOL0     H91903   2.554   4.335   3.133 -0.4121 -1.6434 -1.4168
  681MOL0     H91904   2.683   4.228   3.205  0.5534  0.8272  3.1838
  681MOL0     H91905   2.541   4.044   3.198  2.9004  0.4382 -2.5548
  681MOL0     H91906   2.476   4.129   3.069  0.6356 -0.7693 -0.4668
  681MOL0     H91907   2.292   4.054   3.207  0.6827 -0.2150  0.1471
  681MOL0     H91908   2.362   4.142   3.343 -1.4998  1.4242  0.0722
  681MOL0     H91909   2.226   4.222   3.082 -4.1269  0.1303  1.6734
  681MOL0     H91910   2.298   4.359   3.176 -0.1865  0.2827  0.7668
  681MOL0     H91911   2.060   4.332   3.216 -0.7064 -1.0703 -0.6318
  681MOL0     H91912   2.092   4.163   3.259 -2.7851  0.8338 -0.7398
  681MOL0     H91913   2.228   4.272   3.464 -1.2651 -0.0481  3.4399
  681MOL0     H91914   2.053   4.307   3.455  1.2197  1.4940  2.3312
  681MOL0     H91915   2.286   4.486   3.362  0.8595 -0.3830  0.2044
  681MOL0     H91916   2.196   4.505   3.510  0.2429 -2.5839  0.6514
  681MOL0     H91917   2.772   4.405   3.513 -0.9751 -0.6000 -0.2568
  681MOL0     H91918   3.017   4.382   3.492 -0.5722 -0.3289  0.7576
  681MOL0     H91919   3.342   4.107   3.326  3.2349  0.4896 -0.7395
  681MOL0     H91920   3.582   4.033   3.292  2.6180  0.7652  1.3490
  681MOL0     H91921   5.106   3.129   3.287  1.6972  1.1929 -1.9350
  681MOL0     H91922   5.354   3.088   3.275  1.2907 -2.4374  0.1133
  681MOL0     H91923   5.813   2.737   3.534  3.3160 -1.5001  2.2762
  681MOL0     H91924   6.055   2.802   3.513 -1.9855 -1.6169 -1.8086
  681MOL0     H91925   6.140   3.233   3.456 -1.6953 -0.9043  0.3648
  681MOL0     H91926   6.284   3.178   3.395 -0.4889 -2.9658 -0.4220
  681MOL0     H91927   6.136   3.296   3.228 -2.6289  0.1005 -0.1077
  681MOL0     H91928   6.043   3.143   3.219 -1.4229  1.5902  2.4198
  681MOL0     H91929   6.252   3.012   3.178 -0.4488 -0.8505 -0.2768
  681MOL0     H91930   6.358   3.153   3.180 -0.4302  1.4487  0.1073
  681MOL0     H91931   6.327   3.103   2.962  1.2920 -1.8359  4.0278
  681MOL0     H91932   6.229   3.250   2.988  0.8804  0.9810  1.7444
  681MOL0     H91933   5.974   2.944   2.841 -1.5009 -0.8817  2.7108
  681MOL0     H91934   5.938   3.195   3.390 -0.3593 -0.6765 -2.2656
  681MOL0     H91935   5.716   3.161   3.450  1.4314  1.1131 -0.1328
  682MOL0     O91936   0.244   8.746   1.077  0.1938 -0.6741  0.0861
  682MOL0     C91937   0.251   8.780   0.962  0.8560  0.1571 -0.1428
  682MOL0     O91938   0.140   8.803   0.882  0.2265 -0.6139  0.7141
  682MOL0     C91939   0.013   8.805   0.950 -0.6598 -0.0140  1.0198
  682MOL0     C91940  -0.096   8.759   0.867 -0.4839  0.0522 -0.4979
  682MOL0     C91941  -0.218   8.753   0.931  0.5986  0.4263  0.6027
  682MOL0     C91942  -0.250   8.819   1.052 -0.2984  0.1677  0.7349
  682MOL0     O91943  -0.364   8.817   1.124  0.0996  1.0272 -0.3595
  682MOL0     C91944  -0.477   8.742   1.062  0.0944 -0.9762  0.2401
  682MOL0     C91945  -0.616   8.763   1.143 -0.4730 -0.4685  0.9153
  682MOL0     C91946  -0.624   8.752   1.301 -0.0725  0.4383 -0.3981
  682MOL0     C91947  -0.573   8.883   1.370  0.1174  0.5720 -0.0989
  682MOL0     C91948  -0.544   8.841   1.516 -0.3945  0.0145  0.1630
  682MOL0     C91949  -0.563   8.958   1.614  0.4850 -0.3022 -0.8715
  682MOL0     C91950  -0.593   8.914   1.752  0.3117  0.4276  0.1301
  682MOL0     C91951  -0.745   8.890   1.775  0.2663 -0.1535  0.5718
  682MOL0     N91952  -0.768   8.820   1.901  0.0486 -0.9456  0.5777
  682MOL0     C91953  -0.731   8.689   1.929 -0.5524 -0.4718  0.4775
  682MOL0     C91954  -0.769   8.685   2.059  0.4202 -0.7418 -0.7975
  682MOL0     C91955  -0.744   8.564   2.142 -0.0463  0.6036 -0.9721
  682MOL0     C91956  -0.791   8.577   2.296  0.6103  0.0003 -0.1971
  682MOL0     C91957  -0.945   8.522   2.306 -0.0502 -0.4829  0.0495
  682MOL0     C91958  -1.047   8.614   2.237  0.1716  0.3360 -0.3874
  682MOL0     O91959  -1.182   8.581   2.288 -0.0246  0.2777  0.4578
  682MOL0     C91960  -1.291   8.617   2.211 -0.0076 -0.5167 -0.2227
  682MOL0     C91961  -1.299   8.743   2.160  0.3057 -0.0091  0.1537
  682MOL0     C91962  -1.412   8.785   2.079 -0.5747  0.8045  0.6688
  682MOL0     C91963  -1.402   8.922   2.016 -0.4214  0.3526 -0.6548
  682MOL0     C91964  -1.520   8.696   2.053 -0.0706  0.5705  0.6554
  682MOL0     C91965  -1.646   8.733   1.989 -0.6955  0.2309  0.6913
  682MOL0     O91966  -1.734   8.633   2.001  0.5511 -0.8150  0.3801
  682MOL0     C91967  -1.864   8.649   1.953  0.1920 -0.4598  0.2670
  682MOL0     C91968  -1.940   8.761   1.996  0.4490  0.1320 -0.3252
  682MOL0     C91969  -2.088   8.767   1.980 -0.5345 -0.3347  0.0217
  682MOL0     C91970  -2.142   8.660   1.926  0.1392  0.9477  0.5423
  682MOL0     O91971  -2.280   8.659   1.896 -0.3448  0.0779 -0.3431
  682MOL0     C91972  -2.374   8.768   1.941  0.1984  0.3200  0.3035
  682MOL0     C91973  -2.512   8.746   1.886 -0.6249  0.3752 -0.3593
  682MOL0     C91974  -2.589   8.635   1.954 -0.7282  1.4887 -0.9623
  682MOL0     C91975  -2.737   8.666   1.950 -0.1385 -0.5151  0.1529
  682MOL0     C91976  -2.833   8.556   1.999 -0.1004  0.0659  0.6036
  682MOL0     C91977  -2.968   8.612   2.033 -0.4467  0.5862 -0.1054
  682MOL0     C91978  -3.065   8.508   2.099 -0.3318 -0.2744 -1.1437
  682MOL0     C91979  -3.090   8.384   2.014 -0.2577  0.0971 -0.2031
  682MOL0    Cl91980  -3.098   8.416   1.843 -0.3170 -0.0176  0.1209
  682MOL0     C91981  -2.075   8.540   1.895 -0.5518 -1.0099  0.2656
  682MOL0     C91982  -1.933   8.542   1.913 -0.1883 -0.1069 -0.5616
  682MOL0     O91983  -1.669   8.836   1.926  0.1804  0.0720  0.2529
  682MOL0     C91984  -1.506   8.568   2.103 -0.6861  0.3715 -0.5849
  682MOL0     C91985  -1.395   8.530   2.181  0.2625  0.7625  0.6044
  682MOL0     N91986  -0.826   8.805   2.103 -0.3230  0.9087 -0.5133
  682MOL0     N91987  -0.828   8.881   2.002 -0.3309  0.1584  1.5359
  682MOL0     C91988  -0.141   8.873   1.118 -0.3018  0.3829 -0.1116
  682MOL0     C91989  -0.013   8.866   1.074  0.0384  0.5506  0.6768
  682MOL0     C91990   0.380   8.818   0.901 -0.0820 -0.4404 -1.3895
  682MOL0     C91991   0.392   8.821   0.761 -0.1376  1.2077 -0.7649
  682MOL0     C91992   0.510   8.871   0.701 -0.2573  0.0691 -0.2609
  682MOL0     C91993   0.616   8.918   0.777 -0.3239 -0.6683  1.2414
  682MOL0     O91994   0.738   8.965   0.732  0.2721 -0.5717  0.2991
  682MOL0     C91995   0.758   8.955   0.589 -0.4096 -0.1307 -0.7539
  682MOL0     C91996   0.912   8.981   0.560 -0.2063 -0.2468  0.0233
  682MOL0     C91997   0.916   8.977   0.406  0.5460  0.3904  0.6241
  682MOL0     C91998   1.061   8.973   0.377 -0.6073  0.0280 -0.1645
  682MOL0     C91999   1.063   8.966   0.232  0.7061  0.0835  0.0463
  682MOL0     C92000   1.066   8.946   0.112 -0.4993 -0.6806 -0.2721
  682MOL0     C92001   0.608   8.919   0.916 -0.0300  0.9753  0.1150
  682MOL0     C92002   0.495   8.871   0.981 -0.5536  0.1430 -0.5292
  682MOL0     H92003  -0.082   8.713   0.769  0.0573 -3.8331  1.2102
  682MOL0     H92004  -0.303   8.710   0.877 -0.8897  2.6828  1.0168
  682MOL0     H92005  -0.490   8.770   0.957 -1.8894 -0.6043  0.5462
  682MOL0     H92006  -0.452   8.636   1.073 -1.7419 -1.3221  1.4791
  682MOL0     H92007  -0.655   8.858   1.106 -1.0923 -0.5455  1.3485
  682MOL0     H92008  -0.692   8.690   1.112  0.4837 -0.0329 -2.9891
  682MOL0     H92009  -0.727   8.729   1.329  0.9168 -2.1116  1.5683
  682MOL0     H92010  -0.562   8.668   1.331  2.0646  2.2263  0.4883
  682MOL0     H92011  -0.477   8.914   1.327  0.5010  0.7164  0.8269
  682MOL0     H92012  -0.641   8.968   1.361 -1.7061 -0.7433  0.7782
  682MOL0     H92013  -0.606   8.756   1.547  0.8409 -0.8706  0.2799
  682MOL0     H92014  -0.441   8.806   1.525  0.4547  2.4388  0.4533
  682MOL0     H92015  -0.466   9.009   1.621  0.6688 -0.4945 -1.9222
  682MOL0     H92016  -0.648   9.022   1.589  1.7393  1.7045 -0.2009
  682MOL0     H92017  -0.539   8.820   1.769 -1.8822 -1.3455 -1.9866
  682MOL0     H92018  -0.563   8.993   1.822  2.1307 -0.2157  0.1313
  682MOL0     H92019  -0.790   8.830   1.695  4.8325 -2.8707 -0.2986
  682MOL0     H92020  -0.808   8.979   1.789  0.1608 -0.1505  0.1025
  682MOL0     H92021  -0.679   8.612   1.872 -1.6544 -1.9906  1.4534
  682MOL0     H92022  -0.775   8.469   2.097  2.9816  0.0023 -2.0076
  682MOL0     H92023  -0.635   8.549   2.146 -0.4635 -3.1765  0.5594
  682MOL0     H92024  -0.786   8.683   2.322 -1.2217  0.4168 -1.3496
  682MOL0     H92025  -0.729   8.513   2.360 -0.0791  0.9150  1.4415
  682MOL0     H92026  -0.970   8.518   2.412 -1.0870  0.8543 -0.1069
  682MOL0     H92027  -0.948   8.419   2.269  0.4030 -0.4203 -0.1696
  682MOL0     H92028  -1.041   8.586   2.132 -0.7511  0.5392 -0.5004
  682MOL0     H92029  -1.015   8.714   2.268  0.9047 -0.7918  3.0196
  682MOL0     H92030  -1.219   8.815   2.176  0.0129  0.9466 -2.1837
  682MOL0     H92031  -1.338   8.986   2.078 -0.2130 -1.3636  1.0156
  682MOL0     H92032  -1.367   8.922   1.913  0.8518 -0.4377 -0.2439
  682MOL0     H92033  -1.494   8.981   2.019 -0.9773 -0.5020  1.9222
  682MOL0     H92034  -1.897   8.845   2.049  2.9528 -0.8485 -0.6995
  682MOL0     H92035  -2.148   8.850   2.015 -0.2660 -0.0789 -0.1223
  682MOL0     H92036  -2.356   8.775   2.049  1.0020 -1.5141  0.3265
  682MOL0     H92037  -2.338   8.861   1.896  0.6659 -0.8156 -1.8171
  682MOL0     H92038  -2.559   8.840   1.916  1.7615  1.0506  1.6245
  682MOL0     H92039  -2.525   8.729   1.779 -0.9840 -2.6123  0.0933
  682MOL0     H92040  -2.553   8.617   2.055  1.6569  2.0622 -1.6567
  682MOL0     H92041  -2.571   8.540   1.903  1.4077  1.7132 -0.6792
  682MOL0     H92042  -2.753   8.759   2.005 -1.5439 -0.1907 -0.7386
  682MOL0     H92043  -2.757   8.681   1.843  1.4021  0.5000 -0.0161
  682MOL0     H92044  -2.778   8.508   2.081 -1.7869 -0.8882  1.2226
  682MOL0     H92045  -2.835   8.480   1.921  3.3252  1.3582 -0.9582
  682MOL0     H92046  -2.958   8.702   2.095  0.8821 -0.6468  1.5667
  682MOL0     H92047  -3.024   8.636   1.942  3.9878  1.0341 -2.9965
  682MOL0     H92048  -3.157   8.563   2.120  0.7325  0.3306  2.8121
  682MOL0     H92049  -3.019   8.476   2.193 -0.2525 -1.3643 -1.5415
  682MOL0     H92050  -3.187   8.342   2.041 -0.8615  1.1349 -0.6703
  682MOL0     H92051  -3.024   8.300   2.035 -0.4605 -0.2510 -0.9178
  682MOL0     H92052  -2.120   8.450   1.853 -0.0670 -0.9686 -0.3543
  682MOL0     H92053  -1.874   8.453   1.893 -0.5459 -0.5779  0.3831
  682MOL0     H92054  -1.582   8.491   2.094  1.1976 -1.4809 -1.6386
  682MOL0     H92055  -1.397   8.426   2.212 -2.3441 -0.1097 -1.9611
  682MOL0     H92056  -0.154   8.940   1.203  1.0275  1.9806 -1.1109
  682MOL0     H92057   0.066   8.911   1.134 -1.3095  1.9527  1.4618
  682MOL0     H92058   0.322   8.783   0.688  1.3440 -1.3524 -0.9571
  682MOL0     H92059   0.530   8.861   0.595  1.9664 -2.7835  0.2936
  682MOL0     H92060   0.735   8.859   0.541  0.5377  0.1704 -1.8512
  682MOL0     H92061   0.684   9.026   0.549 -0.1898  0.4577 -0.1296
  682MOL0     H92062   0.975   8.903   0.603  2.2105  1.7103  0.2445
  682MOL0     H92063   0.952   9.076   0.598  0.7564 -1.1916  1.4567
  682MOL0     H92064   0.872   9.069   0.366  4.9761  2.7553  0.5560
  682MOL0     H92065   0.869   8.887   0.365  0.3248  1.3783 -1.4308
  682MOL0     H92066   1.111   8.887   0.423 -1.4834 -1.2315 -1.4634
  682MOL0     H92067   1.108   9.066   0.410 -2.9585  1.9767 -1.9170
  682MOL0     H92068   1.073   8.920   0.008 -0.2060 -1.1290 -0.1461
  682MOL0     H92069   0.688   8.966   0.972  0.9455 -0.4648 -0.0110
  682MOL0     H92070   0.482   8.881   1.088 -1.6972 -0.2324 -0.6199
  683MOL0     O92071   5.508   1.423  11.037 -0.2764  0.1815  0.0082
  683MOL0     C92072   5.511   1.333  10.957 -0.3974  0.2507  0.2319
  683MOL0     O92073   5.612   1.312  10.859  0.3896  0.1853 -0.0491
  683MOL0     C92074   5.722   1.383  10.861 -0.7509  0.5700  0.5927
  683MOL0     C92075   5.800   1.423  10.971  0.1195 -0.5460  0.2065
  683MOL0     C92076   5.912   1.504  10.956  0.6455  0.3159 -0.0870
  683MOL0     C92077   5.947   1.556  10.832  0.1246 -0.6790  0.0210
  683MOL0     O92078   6.061   1.641  10.815  0.3090 -0.2020 -0.3558
  683MOL0     C92079   6.152   1.659  10.921  0.4227  0.5660  0.3019
  683MOL0     C92080   6.282   1.722  10.861 -0.2770 -0.3298  0.8518
  683MOL0     C92081   6.398   1.780  10.945  0.5567  0.1153 -0.1287
  683MOL0     C92082   6.532   1.704  10.935 -0.7274 -0.7526  0.9124
  683MOL0     C92083   6.635   1.762  11.031 -0.0075  0.0701 -0.3703
  683MOL0     C92084   6.772   1.682  11.040  0.3703  0.2428  0.0114
  683MOL0     C92085   6.839   1.661  10.899 -0.2213 -0.8601 -1.0116
  683MOL0     C92086   6.962   1.580  10.888  0.0061 -0.3735 -0.0195
  683MOL0     N92087   7.070   1.631  10.966 -0.2226  0.7406  0.3204
  683MOL0     C92088   7.133   1.749  10.934 -0.3286  0.7295  0.0559
  683MOL0     C92089   7.231   1.765  11.032  0.8355  0.1283  0.3314
  683MOL0     C92090   7.318   1.883  11.031  0.3483  0.1016  0.2822
  683MOL0     C92091   7.465   1.838  11.014 -0.4201  0.5655 -0.1694
  683MOL0     C92092   7.570   1.948  10.986  0.1852  0.2959 -0.0388
  683MOL0     C92093   7.711   1.882  10.993  0.2872  0.5065  0.3313
  683MOL0     O92094   7.797   1.982  10.947  0.5882  0.1491  0.0497
  683MOL0     C92095   7.926   1.974  10.993 -1.1001  0.4201  0.2206
  683MOL0     C92096   7.961   2.056  11.101  0.1390 -0.0632 -0.5602
  683MOL0     C92097   8.097   2.051  11.143 -0.9914  0.1085 -0.8882
  683MOL0     C92098   8.142   2.123  11.264 -0.3444 -0.1520 -0.3660
  683MOL0     C92099   8.190   1.957  11.078 -0.6668 -0.4845 -0.3831
  683MOL0     C92100   8.336   1.940  11.100 -0.2290 -0.2970 -0.9286
  683MOL0     O92101   8.423   1.915  10.990  0.6646 -0.2111  0.4208
  683MOL0     C92102   8.555   1.880  11.000  0.1366 -0.4222 -0.5907
  683MOL0     C92103   8.603   1.815  10.890 -0.1401  0.7090  0.2891
  683MOL0     C92104   8.735   1.782  10.870  0.3089  0.1310 -0.0543
  683MOL0     C92105   8.830   1.822  10.965 -0.4427 -0.0567 -0.1978
  683MOL0     O92106   8.967   1.786  10.968 -0.4496  0.6287  0.1919
  683MOL0     C92107   9.022   1.747  10.846  0.6224 -0.5502  0.1591
  683MOL0     C92108   9.173   1.770  10.857 -0.1339 -0.6518  0.8043
  683MOL0     C92109   9.213   1.750  10.706  0.3145 -0.4492  0.4190
  683MOL0     C92110   9.365   1.787  10.671 -0.5808  0.5005  0.4617
  683MOL0     C92111   9.384   1.785  10.520  0.5093  0.1929 -0.6041
  683MOL0     C92112   9.534   1.804  10.479  0.9183 -1.0362 -0.8127
  683MOL0     C92113   9.556   1.774  10.325  0.5365 -0.6921 -0.9226
  683MOL0     C92114   9.702   1.775  10.294  0.2327 -0.5353  0.1054
  683MOL0    Cl92115   9.770   1.628  10.370  0.6280 -0.3133  0.3561
  683MOL0     C92116   8.779   1.883  11.078  0.0495 -0.2592  0.3355
  683MOL0     C92117   8.641   1.917  11.097 -0.4118 -0.0902 -0.3416
  683MOL0     O92118   8.370   1.950  11.217 -0.1906 -0.0109  0.9412
  683MOL0     C92119   8.143   1.883  10.965  0.1863 -0.1792 -0.3924
  683MOL0     C92120   8.009   1.895  10.928  0.3697  0.2435 -0.3176
  683MOL0     N92121   7.229   1.657  11.118  0.0467  1.4207 -0.4221
  683MOL0     N92122   7.134   1.579  11.072  0.8609  0.1708 -0.2820
  683MOL0     C92123   5.879   1.509  10.722 -0.4682  0.9347  0.7347
  683MOL0     C92124   5.771   1.420  10.736 -0.0208  0.3859  0.0536
  683MOL0     C92125   5.408   1.228  10.952  0.5020  0.5786 -0.3288
  683MOL0     C92126   5.284   1.243  11.032  0.2093 -0.2503 -0.2111
  683MOL0     C92127   5.188   1.141  11.034  0.3515  0.1827  0.0728
  683MOL0     C92128   5.202   1.038  10.947 -0.3235  0.9129 -0.8667
  683MOL0     O92129   5.100   0.953  10.950  0.8501  0.2293 -0.1518
  683MOL0     C92130   5.065   0.872  10.836  0.0385 -0.2324 -1.2168
  683MOL0     C92131   4.942   0.793  10.871  0.4348 -0.1608  0.5125
  683MOL0     C92132   4.817   0.870  10.828 -0.2315 -0.1691  0.2133
  683MOL0     C92133   4.686   0.808  10.862 -0.1841 -0.4370  0.2669
  683MOL0     C92134   4.679   0.671  10.803 -0.4623  0.4482 -0.2714
  683MOL0     C92135   4.687   0.552  10.762 -0.4033  0.4214 -0.3710
  683MOL0     C92136   5.308   1.021  10.861 -0.3012 -0.2047 -0.1920
  683MOL0     C92137   5.411   1.116  10.863  0.5792  0.0836  0.2198
  683MOL0     H92138   5.769   1.383  11.068  0.7250  0.6588  0.9261
  683MOL0     H92139   5.964   1.538  11.045 -0.4786 -0.8133  1.0294
  683MOL0     H92140   6.115   1.714  11.008  0.1234 -0.2054  0.6719
  683MOL0     H92141   6.177   1.555  10.944  1.6670 -0.5756 -4.9279
  683MOL0     H92142   6.333   1.644  10.804 -0.6043 -1.2959  1.8465
  683MOL0     H92143   6.256   1.807  10.796  2.5462  0.2619  0.3714
  683MOL0     H92144   6.416   1.884  10.916 -2.2887  1.3673  2.1498
  683MOL0     H92145   6.372   1.770  11.050 -0.0339 -1.4303 -0.4072
  683MOL0     H92146   6.519   1.602  10.973  1.6280 -0.9947  1.2368
  683MOL0     H92147   6.567   1.705  10.832 -0.9682 -1.4974  0.8155
  683MOL0     H92148   6.655   1.862  10.990  0.2212  1.1703  2.2354
  683MOL0     H92149   6.586   1.781  11.127 -0.9937 -0.8110 -0.6812
  683MOL0     H92150   6.842   1.733  11.107  2.4072 -2.0577 -0.2140
  683MOL0     H92151   6.753   1.583  11.083 -1.2634  0.3674 -0.3749
  683MOL0     H92152   6.763   1.626  10.828 -1.8487  4.7471 -2.5621
  683MOL0     H92153   6.863   1.763  10.867 -1.3188  0.4506  2.0253
  683MOL0     H92154   6.987   1.573  10.782 -2.2564  2.3329 -0.8417
  683MOL0     H92155   6.928   1.481  10.921 -2.3739  0.1045 -0.8208
  683MOL0     H92156   7.112   1.813  10.849  1.6978  1.1667 -0.1658
  683MOL0     H92157   7.292   1.960  10.958 -2.9680 -0.1321  1.0624
  683MOL0     H92158   7.314   1.936  11.127 -0.4151  0.0103  0.3063
  683MOL0     H92159   7.480   1.763  10.935  1.4422  1.0436 -0.3106
  683MOL0     H92160   7.490   1.784  11.106 -3.0985 -2.0776 -0.8347
  683MOL0     H92161   7.567   2.025  11.063 -0.8438 -0.1279  0.3480
  683MOL0     H92162   7.552   1.987  10.885 -2.1176 -1.6488 -0.4636
  683MOL0     H92163   7.720   1.794  10.929  4.4909  1.9928 -1.5018
  683MOL0     H92164   7.734   1.835  11.089 -3.6867 -1.7619  0.3513
  683MOL0     H92165   7.889   2.130  11.133  0.7869 -0.3454  1.7038
  683MOL0     H92166   8.082   2.214  11.253  0.8944  0.5681 -1.4228
  683MOL0     H92167   8.116   2.064  11.352  1.6436  1.4478  1.3982
  683MOL0     H92168   8.250   2.138  11.256  0.2976 -3.2816  0.9967
  683MOL0     H92169   8.547   1.793  10.800  2.0167  1.2708 -1.2679
  683MOL0     H92170   8.765   1.725  10.782  2.0744 -0.2565  0.7456
  683MOL0     H92171   8.998   1.642  10.829 -0.5941 -0.3021  0.2389
  683MOL0     H92172   8.984   1.801  10.759  1.2751 -2.0690 -1.1268
  683MOL0     H92173   9.198   1.872  10.886 -0.4733 -0.9244  2.1122
  683MOL0     H92174   9.229   1.693  10.911 -1.2010 -2.3617 -0.4205
  683MOL0     H92175   9.145   1.801  10.638  0.1682 -2.3447 -0.9411
  683MOL0     H92176   9.200   1.643  10.686 -0.1526 -0.2731 -0.2076
  683MOL0     H92177   9.396   1.889  10.699 -2.2580  1.2804 -0.3586
  683MOL0     H92178   9.425   1.711  10.721 -2.2933 -0.1750  1.6150
  683MOL0     H92179   9.333   1.865  10.466  1.8445  1.6592  0.2342
  683MOL0     H92180   9.352   1.688  10.481 -0.4643 -0.6086  1.9793
  683MOL0     H92181   9.564   1.905  10.509  2.5524 -1.9788  0.9560
  683MOL0     H92182   9.593   1.730  10.533  2.5829  0.7919 -0.0092
  683MOL0     H92183   9.504   1.852  10.269 -0.1516 -0.0500  0.5583
  683MOL0     H92184   9.501   1.682  10.300  1.2811 -0.9580 -1.6491
  683MOL0     H92185   9.755   1.863  10.331  3.7859 -2.9786  1.4238
  683MOL0     H92186   9.709   1.777  10.184 -0.8220 -0.2007  0.0407
  683MOL0     H92187   8.857   1.916  11.147 -0.5542 -1.4316  1.6181
  683MOL0     H92188   8.619   1.960  11.195  3.7359 -0.4278  0.9483
  683MOL0     H92189   8.219   1.829  10.910  3.3741  2.2679  1.2856
  683MOL0     H92190   7.977   1.843  10.839  1.6354 -2.3365  0.6205
  683MOL0     H92191   5.922   1.537  10.626 -0.9435  1.2530  0.6095
  683MOL0     H92192   5.712   1.383  10.653 -0.2049  0.0339  0.3402
  683MOL0     H92193   5.263   1.331  11.093 -3.4497 -0.0537 -1.5286
  683MOL0     H92194   5.105   1.155  11.102  0.4268 -1.6533  0.6029
  683MOL0     H92195   5.046   0.929  10.744  0.9700 -0.1980 -1.3964
  683MOL0     H92196   5.140   0.799  10.802  1.5253  0.9194 -0.5010
  683MOL0     H92197   4.941   0.766  10.977 -1.9739 -1.7967  0.1489
  683MOL0     H92198   4.935   0.697  10.821 -1.8029 -0.1177  0.6349
  683MOL0     H92199   4.819   0.892  10.721 -1.4615 -0.9837 -0.0008
  683MOL0     H92200   4.824   0.965  10.883  3.1291 -0.5720  0.6954
  683MOL0     H92201   4.608   0.878  10.830  0.9067  0.3525 -0.7311
  683MOL0     H92202   4.685   0.804  10.971 -0.1446 -3.8375  0.2738
  683MOL0     H92203   4.687   0.452  10.725  0.9179  0.3436 -0.1977
  683MOL0     H92204   5.317   0.939  10.790  1.3964 -1.4290  1.3488
  683MOL0     H92205   5.492   1.103  10.793 -1.9608  0.0074 -2.9328
  684MOL0     O92206   3.813   3.547   7.015 -0.0417 -0.1380 -0.2264
  684MOL0     C92207   3.831   3.496   7.128 -0.3099 -0.1025  0.3341
  684MOL0     O92208   3.734   3.499   7.226 -0.1608 -0.6470  0.0376
  684MOL0     C92209   3.631   3.588   7.214 -0.5650  0.4138  0.9488
  684MOL0     C92210   3.653   3.725   7.172 -0.2855  0.6961 -0.4740
  684MOL0     C92211   3.540   3.811   7.181 -0.9587 -0.3773  0.0855
  684MOL0     C92212   3.404   3.767   7.202  1.8396  0.2626  0.4712
  684MOL0     O92213   3.302   3.866   7.170 -0.2229  0.3039  0.1723
  684MOL0     C92214   3.177   3.812   7.129  0.1459  0.6676 -0.0225
  684MOL0     C92215   3.070   3.928   7.119 -0.3130  0.9682 -0.4332
  684MOL0     C92216   2.938   3.881   7.054  0.2181  0.4729 -0.1447
  684MOL0     C92217   2.922   3.878   6.907 -0.2166  0.1800  0.2147
  684MOL0     C92218   2.796   3.797   6.867  0.4040  0.2513 -0.2488
  684MOL0     C92219   2.776   3.777   6.721 -0.1613 -0.1153  0.2049
  684MOL0     C92220   2.635   3.720   6.702 -0.2045  0.0382 -0.1138
  684MOL0     C92221   2.628   3.564   6.729 -0.3261 -0.2258 -0.4725
  684MOL0     N92222   2.691   3.478   6.631 -0.4935  0.2664  0.1941
  684MOL0     C92223   2.797   3.391   6.653 -0.4472 -0.4732  0.2940
  684MOL0     C92224   2.835   3.345   6.533 -0.4089 -0.8956 -0.0057
  684MOL0     C92225   2.953   3.261   6.505 -0.2471  0.6440  0.2746
  684MOL0     C92226   3.071   3.340   6.438  0.3467 -0.5192  0.1065
  684MOL0     C92227   3.180   3.240   6.405  0.1121  0.3248 -0.3471
  684MOL0     C92228   3.318   3.311   6.367  0.7807  0.1637 -0.0167
  684MOL0     O92229   3.403   3.223   6.289  0.7482  0.8301  0.0205
  684MOL0     C92230   3.543   3.221   6.290 -0.4641  0.5491  0.2391
  684MOL0     C92231   3.616   3.128   6.206 -0.5221  0.0043  0.3575
  684MOL0     C92232   3.755   3.144   6.188 -0.4394  0.5919 -0.6377
  684MOL0     C92233   3.823   3.048   6.086 -0.1366  0.1086  0.3537
  684MOL0     C92234   3.835   3.242   6.252  0.8098  0.0893  0.1442
  684MOL0     C92235   3.983   3.247   6.263 -0.4885  0.0233 -0.2687
  684MOL0     O92236   4.031   3.359   6.326  0.9349 -0.2644  0.2986
  684MOL0     C92237   4.166   3.369   6.336  0.6387 -0.5169 -0.9361
  684MOL0     C92238   4.237   3.290   6.431 -0.6084  0.1869  1.1448
  684MOL0     C92239   4.377   3.296   6.451  0.0299 -0.8016  0.4474
  684MOL0     C92240   4.443   3.393   6.381  1.0057 -0.8149  0.3468
  684MOL0     O92241   4.580   3.416   6.407  0.2942  0.0338 -0.5065
  684MOL0     C92242   4.609   3.534   6.484 -0.2486 -0.3136  0.3892
  684MOL0     C92243   4.760   3.529   6.506  0.4658 -0.6493 -0.2429
  684MOL0     C92244   4.811   3.417   6.598  0.5506  0.8129 -0.2309
  684MOL0     C92245   4.953   3.433   6.637 -0.4526 -0.0979 -0.4816
  684MOL0     C92246   5.015   3.303   6.677 -1.0634  0.2098 -1.1628
  684MOL0     C92247   5.171   3.322   6.679  0.7663  0.0130  0.3807
  684MOL0     C92248   5.231   3.199   6.750 -0.5483  0.0748  0.5070
  684MOL0     C92249   5.378   3.190   6.726 -0.6480  0.1917 -0.5867
  684MOL0    Cl92250   5.460   3.301   6.842  0.2936  0.0244 -0.0348
  684MOL0     C92251   4.380   3.473   6.287 -0.5674  0.0060  0.1457
  684MOL0     C92252   4.240   3.465   6.266  0.1769  0.2547 -0.6091
  684MOL0     O92253   4.048   3.153   6.227  0.2222 -0.2427 -0.1224
  684MOL0     C92254   3.755   3.331   6.333 -0.0443 -0.5258  0.2606
  684MOL0     C92255   3.614   3.324   6.347  0.1380 -0.2696 -0.0739
  684MOL0     N92256   2.746   3.395   6.440  0.1681  0.2369  0.8046
  684MOL0     N92257   2.670   3.482   6.496 -0.0004 -0.2867 -0.1070
  684MOL0     C92258   3.388   3.632   7.234 -0.2901 -0.4317  0.7070
  684MOL0     C92259   3.497   3.540   7.234 -0.6751  0.2200 -0.5625
  684MOL0     C92260   3.958   3.422   7.156 -0.3244  0.7310  0.3767
  684MOL0     C92261   3.981   3.358   7.287  0.4292 -0.0775  0.7112
  684MOL0     C92262   4.102   3.291   7.316  0.2802  0.2024  0.6332
  684MOL0     C92263   4.197   3.255   7.216  0.2844  0.4961  0.5315
  684MOL0     O92264   4.302   3.181   7.253  0.4109 -0.4505 -0.2160
  684MOL0     C92265   4.368   3.107   7.149 -0.6225  0.3983 -0.0032
  684MOL0     C92266   4.468   2.991   7.190 -0.2014 -0.0076  0.3215
  684MOL0     C92267   4.545   2.921   7.081  0.4817 -0.0220  0.0298
  684MOL0     C92268   4.629   2.811   7.134 -0.4310  0.1527  0.0930
  684MOL0     C92269   4.598   2.675   7.099  0.1236  0.9896 -0.4051
  684MOL0     C92270   4.588   2.562   7.050  0.2529  0.3161 -0.6527
  684MOL0     C92271   4.162   3.297   7.086  0.8071 -0.2772  0.0385
  684MOL0     C92272   4.049   3.386   7.058  0.3642 -0.0174  0.0466
  684MOL0     H92273   3.751   3.769   7.154  0.7557 -1.6135 -0.8053
  684MOL0     H92274   3.551   3.915   7.152 -4.3314  0.1529  0.2580
  684MOL0     H92275   3.182   3.747   7.041 -1.1520 -2.4855  2.0608
  684MOL0     H92276   3.134   3.735   7.194 -1.6795  1.4815 -0.2073
  684MOL0     H92277   3.041   3.942   7.224 -2.2783 -0.7821 -0.6576
  684MOL0     H92278   3.115   4.014   7.069 -3.5567  2.2731 -1.4129
  684MOL0     H92279   2.928   3.777   7.086  0.3482 -0.1914 -2.1497
  684MOL0     H92280   2.852   3.938   7.091  0.3091 -0.1877  1.1430
  684MOL0     H92281   2.902   3.982   6.878  1.6084 -0.0302 -2.0725
  684MOL0     H92282   3.012   3.847   6.852  0.3063 -0.4965  1.3997
  684MOL0     H92283   2.805   3.698   6.913 -3.5722 -0.0564  0.2121
  684MOL0     H92284   2.708   3.849   6.905  0.8938  0.1800  1.0548
  684MOL0     H92285   2.798   3.866   6.662  1.0486  0.1112  0.9600
  684MOL0     H92286   2.853   3.712   6.678 -1.4227 -0.9407 -0.8993
  684MOL0     H92287   2.554   3.767   6.759 -0.5315  0.1232 -0.6378
  684MOL0     H92288   2.611   3.745   6.598 -0.8159  2.1416  0.4992
  684MOL0     H92289   2.520   3.551   6.725 -0.4130  0.1326  0.4528
  684MOL0     H92290   2.673   3.537   6.825 -0.7175 -1.0411 -0.5122
  684MOL0     H92291   2.835   3.363   6.751  2.2319 -1.4100 -0.9071
  684MOL0     H92292   2.985   3.208   6.596 -0.5242 -1.9626 -1.0670
  684MOL0     H92293   2.928   3.186   6.430  3.4932  0.6383 -1.1764
  684MOL0     H92294   3.091   3.425   6.505 -0.8990 -0.0333 -0.1218
  684MOL0     H92295   3.022   3.379   6.349 -1.8313  0.4785  1.6666
  684MOL0     H92296   3.162   3.179   6.316 -1.0553 -0.5923  0.4813
  684MOL0     H92297   3.212   3.170   6.483  1.0210  0.7338 -0.3393
  684MOL0     H92298   3.360   3.357   6.458  0.7385  1.3848 -0.5893
  684MOL0     H92299   3.299   3.394   6.298  1.6235 -1.8782 -2.9027
  684MOL0     H92300   3.553   3.053   6.159 -0.6685  2.2197 -3.4049
  684MOL0     H92301   3.763   3.000   6.009  1.3500 -4.8690  1.9444
  684MOL0     H92302   3.902   3.106   6.035 -0.3725  1.5456  1.5393
  684MOL0     H92303   3.877   2.962   6.126  0.7060  0.5143  0.1287
  684MOL0     H92304   4.197   3.221   6.505  3.8075 -2.3333  1.5191
  684MOL0     H92305   4.426   3.236   6.527  4.0272  2.1935  0.5252
  684MOL0     H92306   4.593   3.624   6.425 -0.5400 -1.1299 -0.8013
  684MOL0     H92307   4.560   3.529   6.582 -1.2220  0.2081 -0.0638
  684MOL0     H92308   4.813   3.531   6.411 -1.8573  1.1984 -1.6108
  684MOL0     H92309   4.786   3.623   6.557  2.7784 -2.1948  1.6219
  684MOL0     H92310   4.800   3.327   6.537 -1.9966 -0.4584  1.9538
  684MOL0     H92311   4.742   3.394   6.679 -0.6845  0.7183 -1.2649
  684MOL0     H92312   5.001   3.467   6.545 -0.9687 -1.6993 -1.3788
  684MOL0     H92313   4.965   3.507   6.717 -0.5402  0.3067 -0.8379
  684MOL0     H92314   4.991   3.221   6.608 -1.6150 -0.4470 -0.1956
  684MOL0     H92315   4.987   3.269   6.777 -0.4574 -1.3116 -1.4745
  684MOL0     H92316   5.213   3.335   6.579  0.3613 -0.9011  0.0791
  684MOL0     H92317   5.196   3.413   6.734  3.1435  2.0298 -3.5935
  684MOL0     H92318   5.190   3.108   6.706  3.1269 -1.5763  0.1018
  684MOL0     H92319   5.213   3.212   6.857  1.6261  2.8049  0.6771
  684MOL0     H92320   5.418   3.221   6.629 -0.8855  0.7731 -0.4981
  684MOL0     H92321   5.401   3.086   6.751  3.1460  0.9377 -0.3702
  684MOL0     H92322   4.434   3.539   6.221 -2.7682  1.1669 -0.5986
  684MOL0     H92323   4.173   3.523   6.203 -0.7602  0.3038  0.4190
  684MOL0     H92324   3.805   3.407   6.391 -0.4876 -1.1265  1.4677
  684MOL0     H92325   3.572   3.401   6.412  0.9699 -0.2021  0.3988
  684MOL0     H92326   3.287   3.594   7.242 -0.0172 -1.4926 -0.5706
  684MOL0     H92327   3.476   3.438   7.266 -0.1720  0.4295  0.4455
  684MOL0     H92328   3.908   3.375   7.365  0.0902 -0.7360  0.5451
  684MOL0     H92329   4.112   3.270   7.422 -1.6748 -0.5299  0.7248
  684MOL0     H92330   4.303   3.040   7.091  3.5528 -3.0812 -1.2407
  684MOL0     H92331   4.426   3.171   7.082  2.9496 -2.3388  0.1444
  684MOL0     H92332   4.412   2.913   7.242  2.5209 -0.0339  3.5820
  684MOL0     H92333   4.533   3.022   7.273  0.2393 -0.5801  0.2005
  684MOL0     H92334   4.610   2.992   7.030 -0.9752  3.8677  3.0876
  684MOL0     H92335   4.471   2.868   7.019 -2.1461  1.6325  1.5394
  684MOL0     H92336   4.631   2.815   7.244  1.2680  1.2758  0.0566
  684MOL0     H92337   4.726   2.840   7.091 -0.6232 -1.5282 -1.6224
  684MOL0     H92338   4.576   2.469   6.999 -1.8411  0.0064  0.2692
  684MOL0     H92339   4.215   3.261   6.998 -0.9950  0.0495 -1.2222
  684MOL0     H92340   4.032   3.423   6.957 -2.3991  2.8062  1.3648
  685MOL0     O92341   5.503   0.242   2.750  0.1192  0.2066 -0.1476
  685MOL0     C92342   5.578   0.148   2.783  1.2314  0.5758  0.6731
  685MOL0     O92343   5.709   0.135   2.749  0.5765  0.4601 -0.7753
  685MOL0     C92344   5.780   0.228   2.676  0.1969 -0.1283  0.2011
  685MOL0     C92345   5.907   0.259   2.712 -0.4525  0.9085 -0.7852
  685MOL0     C92346   5.985   0.355   2.643  0.0215  0.6027  0.2958
  685MOL0     C92347   5.927   0.433   2.539  0.1145  0.3961  0.3496
  685MOL0     O92348   5.981   0.545   2.487  0.3469  0.2174  0.1404
  685MOL0     C92349   6.108   0.594   2.526  0.5091 -0.1465 -0.1655
  685MOL0     C92350   6.167   0.705   2.448 -0.1801 -0.1330  0.4788
  685MOL0     C92351   6.314   0.718   2.498  0.2919  0.0985 -0.1540
  685MOL0     C92352   6.401   0.797   2.396 -0.7460  0.0336  0.3053
  685MOL0     C92353   6.535   0.842   2.460  0.5383  0.9639 -0.1303
  685MOL0     C92354   6.631   0.717   2.455 -0.0389  0.3183 -1.0336
  685MOL0     C92355   6.782   0.771   2.487  0.9127  0.4977 -0.9648
  685MOL0     C92356   6.897   0.672   2.458  0.4972  0.4870 -1.0944
  685MOL0     N92357   6.915   0.641   2.313  0.8975 -0.2505  0.5727
  685MOL0     C92358   6.961   0.734   2.219  0.2186  0.0449  0.1482
  685MOL0     C92359   6.957   0.670   2.099  0.5659  0.2027 -0.0512
  685MOL0     C92360   7.030   0.719   1.979  0.6048  0.6815  0.3913
  685MOL0     C92361   7.164   0.646   1.972  0.4410 -0.2442 -0.6508
  685MOL0     C92362   7.276   0.718   2.053 -0.1881  0.4742  0.6021
  685MOL0     C92363   7.405   0.656   1.996  0.3593 -0.3591 -0.6873
  685MOL0     O92364   7.508   0.735   2.063  0.5496  0.4678  0.2399
  685MOL0     C92365   7.598   0.795   1.980  0.0176  0.9232  0.2453
  685MOL0     C92366   7.712   0.731   1.945 -0.5530  0.2892 -0.7253
  685MOL0     C92367   7.788   0.775   1.836 -0.4528  0.0387 -0.4063
  685MOL0     C92368   7.897   0.674   1.788  0.0129 -0.1250 -0.1249
  685MOL0     C92369   7.772   0.904   1.779 -0.0803  0.3384  0.2987
  685MOL0     C92370   7.860   0.958   1.666 -0.2839  0.5403  0.1495
  685MOL0     O92371   7.806   1.065   1.598  0.3366 -0.1294 -0.7136
  685MOL0     C92372   7.893   1.160   1.536  0.2936 -0.0928 -0.4598
  685MOL0     C92373   8.033   1.178   1.557 -0.0131 -0.7953  0.1799
  685MOL0     C92374   8.096   1.277   1.491 -0.3555  0.3568  0.0570
  685MOL0     C92375   8.039   1.355   1.385  0.4579  0.4142 -0.1771
  685MOL0     O92376   8.112   1.449   1.320 -0.0002  0.4844  0.4517
  685MOL0     C92377   8.169   1.399   1.196  0.0556  0.4795  0.7807
  685MOL0     C92378   8.243   1.505   1.114  0.7126  0.6803  0.7894
  685MOL0     C92379   8.360   1.578   1.193  0.6346 -0.1156  0.2680
  685MOL0     C92380   8.430   1.677   1.108  0.1112 -0.2476  0.1495
  685MOL0     C92381   8.503   1.612   0.993 -0.4819  0.2296  0.3381
  685MOL0     C92382   8.590   1.492   1.043  0.0160  0.1064  0.1384
  685MOL0     C92383   8.678   1.429   0.936 -0.2756  0.5902 -0.0469
  685MOL0     C92384   8.770   1.316   0.989  1.0163  0.8621 -0.3312
  685MOL0    Cl92385   8.862   1.358   1.136 -0.3742  0.0635 -0.7431
  685MOL0     C92386   7.901   1.342   1.367 -0.1571 -0.5545  0.0804
  685MOL0     C92387   7.832   1.244   1.442 -0.1413  0.9219  0.1002
  685MOL0     O92388   7.971   0.901   1.633 -0.5419  0.2578  0.4623
  685MOL0     C92389   7.660   0.969   1.818  1.1400 -0.6521 -0.1512
  685MOL0     C92390   7.577   0.919   1.916 -0.5223 -0.5394  0.4154
  685MOL0     N92391   6.924   0.538   2.128 -0.3339  0.0945  0.2724
  685MOL0     N92392   6.876   0.532   2.252 -0.1123  0.2495  1.0153
  685MOL0     C92393   5.795   0.404   2.494 -0.1482 -0.0130 -0.1731
  685MOL0     C92394   5.719   0.306   2.574  0.2514 -0.2730 -0.0247
  685MOL0     C92395   5.510   0.026   2.840 -0.6647 -0.2034  0.8411
  685MOL0     C92396   5.370   0.012   2.848  0.4105  0.2045 -0.2433
  685MOL0     C92397   5.310  -0.101   2.910 -0.0252 -0.3325  0.3188
  685MOL0     C92398   5.394  -0.206   2.959  0.1672  0.8145  0.0291
  685MOL0     O92399   5.340  -0.306   3.043  0.4935 -0.2990  0.5477
  685MOL0     C92400   5.419  -0.409   3.114 -0.1238 -0.5610  0.9808
  685MOL0     C92401   5.475  -0.355   3.248 -0.1796  0.3421 -0.2481
  685MOL0     C92402   5.356  -0.298   3.321 -0.4321  0.3809 -0.7047
  685MOL0     C92403   5.388  -0.191   3.426 -0.3823  0.8423  0.4944
  685MOL0     C92404   5.276  -0.112   3.466  0.0608  0.5024  0.5503
  685MOL0     C92405   5.166  -0.057   3.487 -0.3974  0.2789 -0.5412
  685MOL0     C92406   5.533  -0.193   2.940  0.6086  0.4654  0.3082
  685MOL0     C92407   5.595  -0.085   2.875 -0.0154  0.2427  0.1630
  685MOL0     H92408   5.937   0.215   2.807 -2.5937  1.4893  0.2053
  685MOL0     H92409   6.085   0.376   2.681 -0.5350  0.7641  1.7464
  685MOL0     H92410   6.093   0.625   2.629 -0.1642 -3.9606  1.0421
  685MOL0     H92411   6.182   0.513   2.515 -1.6168 -2.1584 -0.4076
  685MOL0     H92412   6.164   0.690   2.340  2.6878 -1.2054  0.4435
  685MOL0     H92413   6.110   0.795   2.471 -0.0839 -0.0519  0.3994
  685MOL0     H92414   6.301   0.770   2.594  4.1162  0.2096  0.4755
  685MOL0     H92415   6.361   0.624   2.528 -1.5366 -0.3599  1.4656
  685MOL0     H92416   6.415   0.732   2.309 -0.3659 -0.9300  1.0849
  685MOL0     H92417   6.344   0.884   2.360 -1.1255 -0.2286  0.2636
  685MOL0     H92418   6.573   0.920   2.394 -0.6358  0.2221 -1.7689
  685MOL0     H92419   6.516   0.878   2.561  1.4232  1.0224  0.0178
  685MOL0     H92420   6.602   0.651   2.538 -0.3268 -0.0137 -1.3945
  685MOL0     H92421   6.626   0.668   2.357  1.9147 -0.6461 -0.7072
  685MOL0     H92422   6.804   0.869   2.444  0.3809  0.9031 -0.3375
  685MOL0     H92423   6.790   0.784   2.595  4.1410  0.8445 -1.1452
  685MOL0     H92424   6.869   0.590   2.525  1.3477  2.8363  2.3772
  685MOL0     H92425   6.994   0.695   2.502 -0.5324 -2.5813  3.4993
  685MOL0     H92426   7.003   0.834   2.225  1.3760 -0.4758  0.8141
  685MOL0     H92427   6.969   0.696   1.890  1.2039  1.6916 -0.2961
  685MOL0     H92428   7.027   0.826   1.999  2.2280  0.5240  1.6651
  685MOL0     H92429   7.182   0.638   1.865  1.1074 -0.9712 -0.4906
  685MOL0     H92430   7.153   0.540   1.999 -1.6307 -0.0128 -0.3880
  685MOL0     H92431   7.261   0.691   2.158 -1.4073 -2.5885 -0.2640
  685MOL0     H92432   7.285   0.827   2.046  1.5089  0.6160  3.4488
  685MOL0     H92433   7.409   0.662   1.887 -0.9183  3.0408 -0.6761
  685MOL0     H92434   7.406   0.553   2.033 -0.3974 -0.6957 -1.5530
  685MOL0     H92435   7.732   0.638   1.996  0.4330  1.8482  1.9447
  685MOL0     H92436   8.001   0.701   1.806  0.0524 -1.5061  2.0639
  685MOL0     H92437   7.881   0.582   1.845  0.6184 -0.1027  0.0819
  685MOL0     H92438   7.873   0.660   1.682  1.3337  0.7256 -0.5547
  685MOL0     H92439   8.087   1.117   1.629 -1.6166 -2.8423 -0.2453
  685MOL0     H92440   8.202   1.288   1.515 -0.1558  1.7613 -1.3068
  685MOL0     H92441   8.237   1.315   1.215 -0.1979 -0.3579 -1.7300
  685MOL0     H92442   8.091   1.364   1.129 -0.9316  1.2422  1.4969
  685MOL0     H92443   8.294   1.464   1.027  1.9209  0.5372  1.5294
  685MOL0     H92444   8.171   1.576   1.073  0.9613 -0.4681 -1.8245
  685MOL0     H92445   8.420   1.505   1.248 -0.4255 -2.9364 -2.0796
  685MOL0     H92446   8.296   1.630   1.265 -1.4341 -0.0375 -1.5082
  685MOL0     H92447   8.370   1.757   1.064  0.0213 -1.5893 -2.3131
  685MOL0     H92448   8.500   1.722   1.180  2.4763 -1.1946 -1.4454
  685MOL0     H92449   8.563   1.689   0.943 -0.6000 -2.3398 -4.2817
  685MOL0     H92450   8.435   1.581   0.913  0.3678  0.3737 -0.4562
  685MOL0     H92451   8.649   1.521   1.130  1.7633  3.2234 -1.9038
  685MOL0     H92452   8.527   1.410   1.078 -0.2386  0.5161  0.6456
  685MOL0     H92453   8.736   1.503   0.879  0.0705  0.4400  0.1038
  685MOL0     H92454   8.610   1.412   0.852 -0.2676  1.0836 -0.1567
  685MOL0     H92455   8.838   1.288   0.908 -2.6280  0.1708 -3.4821
  685MOL0     H92456   8.715   1.223   1.009 -0.2792  1.8908  1.1553
  685MOL0     H92457   7.853   1.397   1.287 -0.7926 -2.1265 -0.6575
  685MOL0     H92458   7.726   1.237   1.417  0.1389 -0.2996 -0.8509
  685MOL0     H92459   7.628   1.062   1.772  2.3335  0.7037  1.6219
  685MOL0     H92460   7.490   0.980   1.939  0.4092  0.7544  0.6235
  685MOL0     H92461   5.761   0.472   2.416  0.8680  1.0040  0.2412
  685MOL0     H92462   5.614   0.311   2.548 -0.0074  0.6239  1.1246
  685MOL0     H92463   5.298   0.081   2.808  1.3936  2.3087  1.3940
  685MOL0     H92464   5.203  -0.110   2.922 -0.0448  2.7707  4.7174
  685MOL0     H92465   5.353  -0.494   3.137 -0.3253 -0.6120  0.2239
  685MOL0     H92466   5.502  -0.446   3.054 -0.5916 -2.9583  1.6977
  685MOL0     H92467   5.552  -0.279   3.232  0.7729 -1.0871 -3.1128
  685MOL0     H92468   5.514  -0.439   3.307  0.2256  0.3339 -0.5210
  685MOL0     H92469   5.289  -0.378   3.354 -1.8771  1.8705  0.1109
  685MOL0     H92470   5.287  -0.248   3.253  0.9331 -2.5604 -4.6621
  685MOL0     H92471   5.466  -0.124   3.391 -0.5740  1.2554  0.8505
  685MOL0     H92472   5.430  -0.238   3.516  0.5207 -0.4304 -0.5659
  685MOL0     H92473   5.068  -0.014   3.500 -1.1915 -1.3007 -1.0224
  685MOL0     H92474   5.606  -0.269   2.967  3.5971  2.0208 -2.5781
  685MOL0     H92475   5.702  -0.092   2.862 -0.0956 -0.1476 -0.3343
  686MOL0     O92476   7.198   9.349   7.077  0.5349 -0.1615  0.3903
  686MOL0     C92477   7.204   9.355   6.956 -0.6992  0.3412  0.9130
  686MOL0     O92478   7.103   9.377   6.869  0.0618  0.9902  0.6930
  686MOL0     C92479   6.989   9.422   6.927  0.1473 -0.6856  0.0381
  686MOL0     C92480   6.889   9.326   6.951  1.2105 -0.8051 -0.3327
  686MOL0     C92481   6.768   9.367   7.015  0.1467 -0.4663 -0.2712
  686MOL0     C92482   6.753   9.498   7.061  0.3077  0.7166 -0.3117
  686MOL0     O92483   6.655   9.547   7.148 -0.1550  0.3944  0.0392
  686MOL0     C92484   6.560   9.459   7.192  0.1550  0.4357 -0.6123
  686MOL0     C92485   6.614   9.393   7.317  0.3770 -0.5975 -0.3017
  686MOL0     C92486   6.506   9.344   7.423 -0.1992 -0.8621  0.9651
  686MOL0     C92487   6.525   9.422   7.555 -0.0757 -0.5817 -0.5430
  686MOL0     C92488   6.410   9.379   7.645  0.8381 -0.6230 -0.4183
  686MOL0     C92489   6.416   9.448   7.786 -0.0459  0.2308 -0.2151
  686MOL0     C92490   6.313   9.388   7.880  0.1237 -0.3709 -0.0217
  686MOL0     C92491   6.173   9.443   7.845  1.2463  0.0468 -0.5473
  686MOL0     N92492   6.072   9.375   7.939  0.3558  0.0013 -0.0235
  686MOL0     C92493   6.091   9.369   8.078  0.3051 -0.0327  0.0581
  686MOL0     C92494   5.982   9.317   8.131  0.3795  0.7163 -0.1552
  686MOL0     C92495   5.951   9.313   8.280 -0.8913 -0.1952 -0.7003
  686MOL0     C92496   5.994   9.441   8.355  0.0806 -0.6124 -0.3551
  686MOL0     C92497   5.929   9.575   8.314  0.3830  0.2026  0.5239
  686MOL0     C92498   5.789   9.610   8.362  0.2901  1.4724 -0.6470
  686MOL0     O92499   5.717   9.484   8.361  0.4695 -0.5542  0.0982
  686MOL0     C92500   5.583   9.489   8.377  0.3027  1.6198 -0.1906
  686MOL0     C92501   5.503   9.604   8.387 -0.3995  0.3575  0.6415
  686MOL0     C92502   5.363   9.588   8.396  0.2826  0.7010  0.2311
  686MOL0     C92503   5.292   9.718   8.388 -0.1011  0.4837 -0.0063
  686MOL0     C92504   5.300   9.460   8.382  0.3439 -0.2463 -0.0561
  686MOL0     C92505   5.156   9.432   8.377  0.4925 -0.3054  0.1915
  686MOL0     O92506   5.108   9.317   8.318  0.3653  0.6964 -0.0613
  686MOL0     C92507   4.970   9.314   8.297  0.1236 -0.7851  1.2929
  686MOL0     C92508   4.894   9.427   8.259  0.1319  0.1715 -0.3398
  686MOL0     C92509   4.769   9.414   8.215 -0.7342  0.0201  0.4012
  686MOL0     C92510   4.709   9.292   8.201 -0.1195 -0.0301 -0.5403
  686MOL0     O92511   4.575   9.314   8.155  0.6962  0.0264 -0.0743
  686MOL0     C92512   4.495   9.196   8.136 -0.3014  0.4520  0.0340
  686MOL0     C92513   4.355   9.231   8.085 -1.3814  0.1680  0.4427
  686MOL0     C92514   4.277   9.310   8.187 -0.4841  0.1089  0.7144
  686MOL0     C92515   4.129   9.308   8.162  0.4543  0.2431 -0.4255
  686MOL0     C92516   4.055   9.402   8.254 -0.8434 -0.4853  0.1589
  686MOL0     C92517   3.906   9.399   8.236  0.0209  0.3870 -0.0509
  686MOL0     C92518   3.844   9.273   8.295  0.7429  0.1223 -0.4436
  686MOL0     C92519   3.693   9.271   8.277 -0.8115  0.9087  0.2553
  686MOL0    Cl92520   3.641   9.221   8.113 -0.3463  0.0196 -0.2660
  686MOL0     C92521   4.784   9.175   8.234  0.4907 -0.2780 -0.4067
  686MOL0     C92522   4.912   9.193   8.283 -0.2310  0.2835  0.2514
  686MOL0     O92523   5.091   9.500   8.459  0.5247 -0.3967 -0.3593
  686MOL0     C92524   5.386   9.353   8.361  0.4009 -0.1386  0.2614
  686MOL0     C92525   5.520   9.365   8.369 -0.2246  0.4155  0.4471
  686MOL0     N92526   5.897   9.285   8.023 -0.2071 -0.1912 -0.0657
  686MOL0     N92527   5.956   9.318   7.914 -0.1219 -0.0830 -0.0176
  686MOL0     C92528   6.847   9.594   7.026 -0.8220  0.9376  0.0918
  686MOL0     C92529   6.964   9.554   6.955 -1.0225  0.2910  0.9624
  686MOL0     C92530   7.335   9.329   6.892  0.2521  0.2760  0.0695
  686MOL0     C92531   7.454   9.328   6.971  0.3889  0.1401 -0.4512
  686MOL0     C92532   7.577   9.323   6.917 -1.1340  0.1473  0.7097
  686MOL0     C92533   7.600   9.312   6.779  0.0519 -0.9495  0.3223
  686MOL0     O92534   7.731   9.302   6.731 -0.6071 -0.1002 -0.0562
  686MOL0     C92535   7.757   9.283   6.585  0.5160 -0.3594 -0.2446
  686MOL0     C92536   7.907   9.302   6.551 -0.0137 -0.3283  0.8742
  686MOL0     C92537   7.945   9.458   6.563 -0.0532  0.9620  0.3464
  686MOL0     C92538   8.092   9.453   6.531 -0.2330  0.0519  0.5264
  686MOL0     C92539   8.162   9.574   6.577 -0.5857  0.3997  0.2432
  686MOL0     C92540   8.213   9.673   6.625  0.6325  0.1918 -0.8544
  686MOL0     C92541   7.486   9.295   6.695  0.4314  0.6804 -0.4933
  686MOL0     C92542   7.360   9.306   6.750 -0.5127  0.2454 -0.2954
  686MOL0     H92543   6.907   9.221   6.927 -2.8308 -1.7032 -0.1598
  686MOL0     H92544   6.702   9.285   7.042  2.5585 -1.1043  5.0841
  686MOL0     H92545   6.471   9.518   7.214  1.5362  2.5183 -0.3321
  686MOL0     H92546   6.531   9.383   7.119  4.8847 -1.3060 -1.0627
  686MOL0     H92547   6.687   9.313   7.301  0.6288 -0.5395  0.5526
  686MOL0     H92548   6.675   9.473   7.360 -1.0395 -0.3365  1.3033
  686MOL0     H92549   6.405   9.342   7.382  0.8857 -0.8767 -1.9508
  686MOL0     H92550   6.528   9.238   7.437  2.4651 -1.1909 -3.5255
  686MOL0     H92551   6.620   9.392   7.599 -1.1382 -3.8177 -0.2079
  686MOL0     H92552   6.520   9.529   7.531  2.6165 -1.0165 -3.9356
  686MOL0     H92553   6.314   9.413   7.605  2.6714  2.7859 -2.4463
  686MOL0     H92554   6.408   9.271   7.663 -0.5052 -0.5432  0.0468
  686MOL0     H92555   6.511   9.435   7.837 -0.4852  0.8318  0.7853
  686MOL0     H92556   6.398   9.556   7.786 -0.4711  0.1663  0.7011
  686MOL0     H92557   6.304   9.279   7.873  3.2181 -0.7607  0.5202
  686MOL0     H92558   6.341   9.408   7.983  0.4482  0.4501 -0.2574
  686MOL0     H92559   6.138   9.424   7.743 -0.4612 -0.7801  0.1470
  686MOL0     H92560   6.156   9.550   7.860 -2.3311 -0.4113 -0.3529
  686MOL0     H92561   6.173   9.417   8.131  0.9266  0.0278 -0.9328
  686MOL0     H92562   5.845   9.290   8.299 -0.7005 -1.1044 -0.6987
  686MOL0     H92563   6.016   9.238   8.326  3.2791  2.3438 -1.9632
  686MOL0     H92564   6.102   9.457   8.363  0.0498 -0.0763 -0.9489
  686MOL0     H92565   5.961   9.426   8.458  1.7925 -0.4369  0.2585
  686MOL0     H92566   5.925   9.585   8.205  0.1269 -1.6959  0.3204
  686MOL0     H92567   5.996   9.656   8.344  1.2416 -0.8684  1.5993
  686MOL0     H92568   5.759   9.694   8.299 -2.2271  1.7929  0.8640
  686MOL0     H92569   5.794   9.650   8.464 -3.4192 -1.3684  0.8500
  686MOL0     H92570   5.557   9.698   8.392  1.3326 -0.4171 -1.7045
  686MOL0     H92571   5.351   9.796   8.339 -0.1895  0.3494 -0.3269
  686MOL0     H92572   5.196   9.710   8.338  0.8567 -0.7230 -1.7650
  686MOL0     H92573   5.287   9.748   8.493  1.9262  1.6798 -0.2071
  686MOL0     H92574   4.945   9.523   8.254 -1.9268  1.2874 -2.0513
  686MOL0     H92575   4.720   9.507   8.189  2.8065  2.5643  2.0125
  686MOL0     H92576   4.536   9.129   8.060 -1.4132 -0.3392  0.1096
  686MOL0     H92577   4.490   9.135   8.226 -2.5106 -2.2270 -1.7478
  686MOL0     H92578   4.364   9.290   7.994 -4.2596 -0.7469 -0.5405
  686MOL0     H92579   4.297   9.143   8.057  1.6069 -0.8696 -3.4618
  686MOL0     H92580   4.315   9.412   8.196  3.1779 -0.8841 -1.1789
  686MOL0     H92581   4.286   9.254   8.281  0.1343 -1.1467 -0.0533
  686MOL0     H92582   4.107   9.331   8.057 -1.9410 -1.3730 -0.3470
  686MOL0     H92583   4.098   9.204   8.169  4.6704 -1.1770 -0.4225
  686MOL0     H92584   4.095   9.500   8.227 -0.4388 -0.6550  0.1364
  686MOL0     H92585   4.083   9.380   8.357 -0.9317  0.5231  0.4002
  686MOL0     H92586   3.871   9.493   8.280  0.2254  0.9551 -1.0721
  686MOL0     H92587   3.883   9.404   8.129  0.8685  0.7865 -0.2299
  686MOL0     H92588   3.858   9.261   8.403  1.2629 -0.6511 -0.5905
  686MOL0     H92589   3.879   9.184   8.243 -0.3439  0.1054 -1.1801
  686MOL0     H92590   3.655   9.369   8.305  0.5685  1.7826 -0.7993
  686MOL0     H92591   3.651   9.195   8.344  0.8600 -0.3694 -0.0595
  686MOL0     H92592   4.757   9.070   8.228 -0.4425  0.0178 -1.6451
  686MOL0     H92593   4.961   9.099   8.309 -0.2721 -0.5432 -2.3597
  686MOL0     H92594   5.350   9.252   8.345 -1.3306  0.5056 -0.1846
  686MOL0     H92595   5.578   9.274   8.352 -0.4694  0.3136  0.1456
  686MOL0     H92596   6.838   9.698   7.053 -1.4709  0.9274 -0.0748
  686MOL0     H92597   7.045   9.618   6.921 -2.0785 -0.2820 -3.1704
  686MOL0     H92598   7.453   9.356   7.075  0.9925  0.7569 -0.6030
  686MOL0     H92599   7.652   9.340   6.993  0.1062  1.8109 -0.7983
  686MOL0     H92600   7.739   9.178   6.561  0.4145 -0.3673 -0.1382
  686MOL0     H92601   7.694   9.351   6.528  0.4468  1.1378  1.5342
  686MOL0     H92602   7.922   9.263   6.450 -0.7202 -0.7120  0.9118
  686MOL0     H92603   7.969   9.239   6.615  1.5669  0.6324  0.3415
  686MOL0     H92604   7.928   9.500   6.663  1.2957  0.5699  0.7563
  686MOL0     H92605   7.881   9.512   6.493 -1.3216 -2.7722 -1.6365
  686MOL0     H92606   8.106   9.431   6.425 -0.9338  0.2391  0.3870
  686MOL0     H92607   8.150   9.370   6.574  0.1882  0.4607  0.7572
  686MOL0     H92608   8.261   9.761   6.664 -0.9967  0.8881 -0.3315
  686MOL0     H92609   7.508   9.274   6.591  0.8079  1.4021 -0.5669
  686MOL0     H92610   7.278   9.309   6.679 -0.4180 -0.1740 -0.4255
  687MOL0     O92611   4.267   6.256   5.464  0.8229 -0.6960 -0.4802
  687MOL0     C92612   4.249   6.150   5.519  0.9507 -0.4611 -0.5739
  687MOL0     O92613   4.154   6.124   5.612 -0.9107  0.3262 -0.3484
  687MOL0     C92614   4.067   6.229   5.643  0.1136  0.0517 -0.1474
  687MOL0     C92615   3.969   6.272   5.549 -0.4016 -0.8565  0.2896
  687MOL0     C92616   3.879   6.375   5.571 -0.1372  0.0182 -0.9312
  687MOL0     C92617   3.876   6.443   5.694 -0.6715  0.2825  0.5347
  687MOL0     O92618   3.791   6.541   5.734 -0.0274 -0.3527  0.0193
  687MOL0     C92619   3.664   6.546   5.674  0.1935  0.2883  1.1039
  687MOL0     C92620   3.593   6.663   5.743 -0.1685 -1.0559 -0.3322
  687MOL0     C92621   3.456   6.691   5.671  0.5645  0.0513  0.1897
  687MOL0     C92622   3.372   6.816   5.707 -0.0587  0.3213 -0.4076
  687MOL0     C92623   3.228   6.814   5.652 -0.1144 -0.7393 -0.1388
  687MOL0     C92624   3.164   6.952   5.656  0.8959  0.2304  0.2843
  687MOL0     C92625   3.206   7.066   5.559 -0.2004 -0.3846 -0.9750
  687MOL0     C92626   3.159   7.046   5.417  0.0913  0.0746 -0.4912
  687MOL0     N92627   3.017   7.064   5.391  0.8978 -0.4167 -0.8840
  687MOL0     C92628   2.923   6.961   5.407 -0.3899 -0.4021  0.3168
  687MOL0     C92629   2.809   7.022   5.386 -0.9986  0.0007 -0.4910
  687MOL0     C92630   2.669   6.967   5.410  0.7585  0.2963 -0.2245
  687MOL0     C92631   2.568   7.007   5.307 -0.0826  0.4982  0.5326
  687MOL0     C92632   2.630   6.947   5.177 -1.1304  0.3900  0.6392
  687MOL0     C92633   2.531   6.916   5.067  0.7090  0.5281  0.4382
  687MOL0     O92634   2.454   7.033   5.043 -0.3928  0.1059 -0.3652
  687MOL0     C92635   2.389   7.033   4.922  0.1223 -0.2779 -0.9829
  687MOL0     C92636   2.348   6.922   4.840 -0.0914 -0.4493  0.2270
  687MOL0     C92637   2.275   6.941   4.722 -0.2269 -0.0516  0.0484
  687MOL0     C92638   2.214   6.820   4.659  0.4201 -0.3740  0.1179
  687MOL0     C92639   2.253   7.074   4.679  0.0885 -0.4608  0.1988
  687MOL0     C92640   2.196   7.096   4.543  0.3010  0.4036  0.2189
  687MOL0     O92641   2.121   7.214   4.528 -0.3662 -0.2662  0.1166
  687MOL0     C92642   2.067   7.235   4.405  0.1856 -0.1762  0.1536
  687MOL0     C92643   1.926   7.227   4.380 -1.1179  2.2125 -0.8775
  687MOL0     C92644   1.871   7.246   4.249  0.1975  0.7216 -0.2623
  687MOL0     C92645   1.956   7.269   4.138 -0.0653 -0.4400 -1.2505
  687MOL0     O92646   1.921   7.273   4.008  0.6958 -1.0923 -0.4765
  687MOL0     C92647   1.794   7.222   3.975  0.2124 -0.5266 -0.5046
  687MOL0     C92648   1.764   7.199   3.829 -0.2356  0.6188 -0.1957
  687MOL0     C92649   1.664   7.086   3.790 -0.0701  0.8962  1.1935
  687MOL0     C92650   1.606   7.105   3.650  0.1282 -0.4707  0.2773
  687MOL0     C92651   1.501   7.217   3.645  0.1293 -0.0326  0.7064
  687MOL0     C92652   1.466   7.258   3.502 -0.9000  0.6401  0.3589
  687MOL0     C92653   1.347   7.354   3.496  0.1759  0.8015 -0.0714
  687MOL0     C92654   1.215   7.275   3.485 -0.9184  0.9551 -0.1170
  687MOL0    Cl92655   1.196   7.201   3.326 -0.3136 -0.0273  0.0312
  687MOL0     C92656   2.092   7.283   4.163  0.3859 -0.1381  0.9272
  687MOL0     C92657   2.146   7.278   4.292  0.2019  0.3670 -0.8998
  687MOL0     O92658   2.237   7.017   4.452 -1.0226 -0.4685 -0.0823
  687MOL0     C92659   2.294   7.186   4.755  0.3334  0.6070 -0.7609
  687MOL0     C92660   2.357   7.166   4.876 -0.0924  0.2107 -0.5381
  687MOL0     N92661   2.838   7.157   5.363 -0.8595 -0.2711 -0.2502
  687MOL0     N92662   2.961   7.187   5.371  0.1733  0.5713  0.6951
  687MOL0     C92663   3.968   6.391   5.789 -0.1005 -0.2791 -0.4170
  687MOL0     C92664   4.065   6.294   5.766  0.4456 -0.6311  0.4471
  687MOL0     C92665   4.356   6.046   5.497 -0.1287  0.7278  0.8261
  687MOL0     C92666   4.472   6.072   5.423  0.6506  0.3203 -0.0065
  687MOL0     C92667   4.577   5.975   5.412  0.8867 -0.4083 -0.3668
  687MOL0     C92668   4.573   5.859   5.484 -0.0079  0.0805  0.0345
  687MOL0     O92669   4.694   5.789   5.500 -0.0603 -0.4367  0.9671
  687MOL0     C92670   4.704   5.675   5.587  0.9312  0.2688  0.0399
  687MOL0     C92671   4.843   5.644   5.638  0.3513 -0.9736  0.1451
  687MOL0     C92672   4.951   5.656   5.525 -0.2586 -0.3299  0.3198
  687MOL0     C92673   5.093   5.610   5.565 -1.1176  0.2450  0.0529
  687MOL0     C92674   5.185   5.599   5.450 -0.3458  0.5312 -0.0169
  687MOL0     C92675   5.249   5.599   5.345 -0.3246 -0.4015  0.0609
  687MOL0     C92676   4.457   5.835   5.558  0.1878 -0.0337 -1.0797
  687MOL0     C92677   4.347   5.924   5.565 -0.5833 -0.2483 -0.2434
  687MOL0     H92678   3.965   6.206   5.464  1.2054 -1.0840  0.3667
  687MOL0     H92679   3.803   6.403   5.499 -0.6540 -0.1369 -0.4586
  687MOL0     H92680   3.677   6.573   5.568 -1.2637 -1.9512  0.2904
  687MOL0     H92681   3.605   6.455   5.682 -1.0949  1.1197  1.2846
  687MOL0     H92682   3.578   6.629   5.846  2.0391 -0.2668  0.3198
  687MOL0     H92683   3.654   6.755   5.744 -1.6266 -0.0535 -0.7747
  687MOL0     H92684   3.464   6.698   5.562 -2.4058  1.8959 -0.0238
  687MOL0     H92685   3.388   6.606   5.687 -0.9959  0.8969 -1.5336
  687MOL0     H92686   3.380   6.822   5.815  0.9876  0.1605 -0.4638
  687MOL0     H92687   3.428   6.904   5.675 -0.6612  0.9625  0.2769
  687MOL0     H92688   3.223   6.767   5.553  0.9122  1.7663 -1.4731
  687MOL0     H92689   3.170   6.742   5.711 -0.5516 -1.4624 -1.4131
  687MOL0     H92690   3.057   6.936   5.641  1.7038 -5.0018 -2.0529
  687MOL0     H92691   3.178   6.978   5.762  0.8265 -3.2460  1.2602
  687MOL0     H92692   3.174   7.162   5.601  1.1582 -1.0272  1.7293
  687MOL0     H92693   3.315   7.075   5.569 -0.4042  1.2356  0.1933
  687MOL0     H92694   3.192   6.944   5.395  0.2508  0.3519 -1.5824
  687MOL0     H92695   3.230   7.103   5.356  2.9468 -1.2776  1.3596
  687MOL0     H92696   2.942   6.859   5.439  0.0940  0.2395  2.1986
  687MOL0     H92697   2.678   6.860   5.426 -0.0208  0.2523 -0.0342
  687MOL0     H92698   2.635   7.019   5.500  0.1613  1.9451 -1.3367
  687MOL0     H92699   2.551   7.115   5.298  2.1943  1.1334  2.8416
  687MOL0     H92700   2.469   6.964   5.320 -0.2886  0.1518 -1.6775
  687MOL0     H92701   2.689   6.856   5.189 -0.4531  0.0726 -3.4709
  687MOL0     H92702   2.701   7.024   5.145 -1.2603 -0.1101 -0.9336
  687MOL0     H92703   2.470   6.838   5.113 -2.5194  1.3087 -2.1251
  687MOL0     H92704   2.594   6.874   4.988  0.4910 -0.0942  0.5942
  687MOL0     H92705   2.375   6.826   4.882  0.5703  0.8523  3.0204
  687MOL0     H92706   2.108   6.841   4.642 -0.1819 -2.5519  0.8494
  687MOL0     H92707   2.274   6.812   4.569 -0.4529 -0.8060 -0.4394
  687MOL0     H92708   2.217   6.733   4.726 -1.2159 -1.8036 -1.5532
  687MOL0     H92709   1.869   7.198   4.467  0.4533  0.5680 -0.3363
  687MOL0     H92710   1.766   7.254   4.222  0.8456 -1.2379 -4.1144
  687MOL0     H92711   1.772   7.134   4.036 -3.5188  1.1407  0.8399
  687MOL0     H92712   1.716   7.289   4.013  0.8264 -1.3646  2.4866
  687MOL0     H92713   1.721   7.294   3.798 -1.4887  0.2115  0.2590
  687MOL0     H92714   1.856   7.187   3.771  1.6210  0.9672  2.4753
  687MOL0     H92715   1.583   7.087   3.864 -3.4770 -0.9453 -2.2198
  687MOL0     H92716   1.715   6.989   3.789 -3.1881 -0.9223  2.5780
  687MOL0     H92717   1.693   7.124   3.588  1.4452  0.7880  2.3781
  687MOL0     H92718   1.559   7.015   3.611 -1.9263  0.6643 -0.0365
  687MOL0     H92719   1.528   7.308   3.699 -0.6766  0.3743  0.4492
  687MOL0     H92720   1.412   7.173   3.693  0.6216 -2.8251 -0.7510
  687MOL0     H92721   1.561   7.293   3.458  0.9438 -3.7842  0.2559
  687MOL0     H92722   1.441   7.168   3.445  0.4510  1.1864 -1.1860
  687MOL0     H92723   1.359   7.425   3.413 -1.2553 -1.3111 -2.2161
  687MOL0     H92724   1.334   7.422   3.580 -0.8753  1.8283 -1.0296
  687MOL0     H92725   1.137   7.350   3.470 -0.4010  1.7671  1.1082
  687MOL0     H92726   1.184   7.213   3.570  3.7624  0.2157  1.3099
  687MOL0     H92727   2.153   7.316   4.079 -0.7207  1.0719  0.5566
  687MOL0     H92728   2.251   7.298   4.309 -0.2250  0.6711  1.7633
  687MOL0     H92729   2.260   7.286   4.729 -0.7883  1.0222  1.9401
  687MOL0     H92730   2.388   7.251   4.936 -0.7346 -0.8264  1.3371
  687MOL0     H92731   3.962   6.441   5.885 -1.0356  2.4507 -1.7907
  687MOL0     H92732   4.141   6.261   5.836  3.0259  1.5422 -1.1477
  687MOL0     H92733   4.490   6.163   5.365  2.1118 -0.2245 -0.4677
  687MOL0     H92734   4.662   5.995   5.347  0.1840 -0.2388 -1.2602
  687MOL0     H92735   4.643   5.677   5.677  2.9174 -2.3866  1.6105
  687MOL0     H92736   4.679   5.590   5.523 -2.1334  0.7136  0.5188
  687MOL0     H92737   4.842   5.548   5.690  3.2231 -0.3568  1.5706
  687MOL0     H92738   4.861   5.720   5.714 -0.5482 -2.5685  2.0388
  687MOL0     H92739   4.949   5.762   5.498 -1.9320  0.5128  3.2903
  687MOL0     H92740   4.921   5.598   5.437 -0.3132 -0.9707  0.7509
  687MOL0     H92741   5.104   5.514   5.616  2.4875  0.6783  0.3508
  687MOL0     H92742   5.120   5.696   5.627  0.8565 -0.2151 -0.1155
  687MOL0     H92743   5.293   5.613   5.248  1.0061 -1.3186  0.5114
  687MOL0     H92744   4.431   5.740   5.605 -2.3668  0.3192 -1.6714
  687MOL0     H92745   4.262   5.894   5.626 -1.4312 -0.0451 -1.2829
  688MOL0     O92746   5.269   7.683   1.338  0.0181 -0.4502  0.2435
  688MOL0     C92747   5.341   7.661   1.436 -0.0853  0.5267 -0.1610
  688MOL0     O92748   5.302   7.616   1.556 -0.4552  0.6343  0.1455
  688MOL0     C92749   5.174   7.558   1.555  0.7040 -0.0323 -0.8280
  688MOL0     C92750   5.135   7.448   1.476  0.5788 -0.5062 -0.8903
  688MOL0     C92751   5.007   7.395   1.477  0.1902  0.4118  0.0143
  688MOL0     C92752   4.916   7.447   1.568  0.1350  0.1370 -0.0730
  688MOL0     O92753   4.794   7.385   1.602  0.5613  0.6005 -0.3575
  688MOL0     C92754   4.761   7.268   1.528  1.2243  0.4245  0.0217
  688MOL0     C92755   4.834   7.140   1.567  0.3258  0.0653  0.1907
  688MOL0     C92756   4.807   7.109   1.717  0.1272 -0.0165 -0.8760
  688MOL0     C92757   4.928   7.142   1.799  0.8255  0.0962  0.2010
  688MOL0     C92758   4.891   7.099   1.938 -0.1577 -0.1929  0.7135
  688MOL0     C92759   4.994   7.160   2.035  0.9691  0.3757 -0.0602
  688MOL0     C92760   4.968   7.130   2.188 -0.0818  0.1310  0.4089
  688MOL0     C92761   5.058   7.189   2.282  1.3889  0.6478  0.0310
  688MOL0     N92762   5.195   7.134   2.265 -0.3681 -0.1588  0.2907
  688MOL0     C92763   5.236   7.016   2.317  0.2262 -0.1649  0.2661
  688MOL0     C92764   5.361   6.998   2.259 -0.0669 -0.1274 -0.8619
  688MOL0     C92765   5.444   6.877   2.296  0.1126  0.0246 -0.1765
  688MOL0     C92766   5.409   6.740   2.231  0.4829 -0.4029 -0.5226
  688MOL0     C92767   5.400   6.737   2.071 -0.0205  0.7483  0.2942
  688MOL0     C92768   5.301   6.623   2.033  0.0804 -0.0236  0.5699
  688MOL0     O92769   5.156   6.651   2.044 -0.2370 -0.2405  0.7167
  688MOL0     C92770   5.091   6.684   1.927 -0.7116  0.5642 -0.7691
  688MOL0     C92771   5.154   6.718   1.809 -0.0031 -0.3001  0.5301
  688MOL0     C92772   5.080   6.754   1.697  0.7225 -0.4972  0.3528
  688MOL0     C92773   5.154   6.792   1.570 -0.0921 -0.7126  0.8433
  688MOL0     C92774   4.931   6.751   1.706 -0.2961 -0.2589  0.8493
  688MOL0     C92775   4.847   6.760   1.584 -0.6197 -1.3073 -0.3486
  688MOL0     O92776   4.718   6.783   1.628 -0.0440 -0.3557 -0.0960
  688MOL0     C92777   4.608   6.795   1.538 -0.5457  0.8388  0.2023
  688MOL0     C92778   4.479   6.798   1.594 -0.0023 -0.0429 -0.8686
  688MOL0     C92779   4.368   6.825   1.527  0.1573 -0.0809  0.8956
  688MOL0     C92780   4.376   6.837   1.382  0.6957 -0.3172 -0.1570
  688MOL0     O92781   4.275   6.860   1.294  0.1237  0.0348  0.2411
  688MOL0     C92782   4.154   6.906   1.343 -0.3829  0.3923 -0.1046
  688MOL0     C92783   4.060   6.937   1.228  0.4086  0.0541  0.4378
  688MOL0     C92784   3.923   6.985   1.270  0.2180  0.3863 -0.6895
  688MOL0     C92785   3.922   7.111   1.360  0.5919  0.8949 -0.1560
  688MOL0     C92786   3.770   7.166   1.384 -1.1251 -0.4698 -0.2446
  688MOL0     C92787   3.781   7.301   1.468 -0.1562  0.3397 -0.2079
  688MOL0     C92788   3.651   7.325   1.537 -0.1539  0.1240  0.4962
  688MOL0     C92789   3.679   7.418   1.650  0.2184 -0.7388  0.5114
  688MOL0    Cl92790   3.522   7.432   1.749  0.3315  0.0776  0.4481
  688MOL0     C92791   4.497   6.825   1.326 -0.9527  0.2000 -0.3265
  688MOL0     C92792   4.617   6.812   1.403  0.1720 -0.8821 -0.2589
  688MOL0     O92793   4.885   6.738   1.470  0.2561  0.1194 -0.0105
  688MOL0     C92794   4.870   6.719   1.829 -1.1317 -0.2385 -0.1632
  688MOL0     C92795   4.951   6.693   1.930  0.6708  0.6148 -0.0020
  688MOL0     N92796   5.395   7.113   2.197 -0.6997  0.1348  0.0657
  688MOL0     N92797   5.293   7.194   2.192  0.1140 -0.5302  0.8357
  688MOL0     C92798   4.956   7.550   1.656 -0.7991 -0.6752 -0.2448
  688MOL0     C92799   5.087   7.609   1.646  0.0080  0.6155  0.7889
  688MOL0     C92800   5.476   7.698   1.423 -1.8592 -0.1274 -0.2805
  688MOL0     C92801   5.524   7.762   1.314 -1.1765  0.6022  0.4654
  688MOL0     C92802   5.656   7.777   1.300  0.0764 -0.7901 -0.7859
  688MOL0     C92803   5.750   7.729   1.401  1.0130 -0.2489 -0.1087
  688MOL0     O92804   5.883   7.749   1.392  0.1896  0.1793  0.7949
  688MOL0     C92805   5.954   7.756   1.263  0.5059  0.2661  0.4063
  688MOL0     C92806   6.015   7.899   1.260  0.5522  0.0115 -0.7714
  688MOL0     C92807   6.118   7.903   1.379  0.7351  0.3672  0.5342
  688MOL0     C92808   6.199   8.030   1.386  0.4267 -0.3042 -0.2181
  688MOL0     C92809   6.321   8.006   1.448  0.2617  0.0309  0.1631
  688MOL0     C92810   6.424   7.981   1.509  0.1329 -0.0630 -0.1839
  688MOL0     C92811   5.710   7.670   1.508  0.2729  0.2787 -0.3291
  688MOL0     C92812   5.575   7.656   1.517 -0.0624  0.3093  0.2174
  688MOL0     H92813   5.202   7.403   1.403  1.0284  0.2096 -0.9284
  688MOL0     H92814   4.980   7.326   1.398 -0.6354  0.5271  0.1839
  688MOL0     H92815   4.652   7.259   1.540  1.0661  2.0395  0.0224
  688MOL0     H92816   4.772   7.293   1.422 -0.8898  0.6303 -0.1863
  688MOL0     H92817   4.798   7.058   1.503 -0.9026  1.6249 -1.2118
  688MOL0     H92818   4.940   7.149   1.543 -0.2242  0.4619 -2.3988
  688MOL0     H92819   4.715   7.153   1.756 -0.7608 -0.8291 -2.0041
  688MOL0     H92820   4.804   7.000   1.732  2.9939 -0.0013  0.5369
  688MOL0     H92821   5.009   7.073   1.774  0.3775 -0.3204 -0.0978
  688MOL0     H92822   4.957   7.247   1.783  0.6472 -0.2214 -2.5231
  688MOL0     H92823   4.800   7.147   1.973 -0.3603  1.6460 -1.9892
  688MOL0     H92824   4.893   6.990   1.948 -0.4071 -0.5387 -2.0812
  688MOL0     H92825   5.093   7.118   2.013  2.0180  0.4090  3.7953
  688MOL0     H92826   5.008   7.265   2.007  0.0818 -0.0037 -2.0682
  688MOL0     H92827   4.867   7.165   2.213 -0.4060 -0.9639  0.7010
  688MOL0     H92828   4.968   7.024   2.217  1.3822  0.7756  3.0857
  688MOL0     H92829   5.019   7.183   2.384 -2.5403 -1.0181 -1.3826
  688MOL0     H92830   5.054   7.293   2.248  0.3680  0.3255 -0.8818
  688MOL0     H92831   5.194   6.942   2.385  0.3533 -0.9734 -0.5183
  688MOL0     H92832   5.549   6.897   2.275 -0.0670  0.3427 -0.8031
  688MOL0     H92833   5.443   6.853   2.402  2.1382 -2.6501 -0.6455
  688MOL0     H92834   5.311   6.711   2.269  0.7909  2.0315  2.4607
  688MOL0     H92835   5.481   6.668   2.272  0.1619 -1.1282 -1.1853
  688MOL0     H92836   5.498   6.708   2.032 -0.6396  0.2148 -0.9119
  688MOL0     H92837   5.373   6.828   2.018  2.3369 -0.3643 -3.1403
  688MOL0     H92838   5.314   6.539   2.101  1.0079 -1.6410 -1.4862
  688MOL0     H92839   5.320   6.583   1.933 -0.3860 -1.8205  1.1584
  688MOL0     H92840   5.261   6.732   1.798  0.0417 -1.8408 -1.8333
  688MOL0     H92841   5.113   6.737   1.485 -0.0498 -0.1433  0.4442
  688MOL0     H92842   5.145   6.897   1.539  2.0104 -0.8054 -0.2379
  688MOL0     H92843   5.259   6.771   1.590  0.8551  0.6810 -2.0755
  688MOL0     H92844   4.475   6.788   1.702 -0.8722 -1.6758 -1.0188
  688MOL0     H92845   4.272   6.829   1.577 -0.1061  1.7995  0.3127
  688MOL0     H92846   4.119   6.820   1.401  0.4450 -0.8183 -1.3315
  688MOL0     H92847   4.161   6.998   1.402  0.2110  1.4132 -1.7216
  688MOL0     H92848   4.113   7.012   1.167  1.3108 -3.8791 -4.2314
  688MOL0     H92849   4.050   6.855   1.156  2.1695  0.8069 -0.7594
  688MOL0     H92850   3.872   6.905   1.325  1.1845 -1.1515 -1.9482
  688MOL0     H92851   3.885   6.993   1.168  1.1774 -1.0218 -1.1838
  688MOL0     H92852   3.969   7.083   1.455  0.3158  0.0234 -0.2647
  688MOL0     H92853   3.983   7.186   1.309  1.2830 -0.3211 -1.1746
  688MOL0     H92854   3.726   7.080   1.436 -1.0185  0.6962  1.8939
  688MOL0     H92855   3.724   7.183   1.287  0.1559  2.0273 -0.4958
  688MOL0     H92856   3.860   7.279   1.541 -0.1843 -3.9120 -1.1694
  688MOL0     H92857   3.812   7.385   1.405 -0.0130  1.6315  1.5185
  688MOL0     H92858   3.613   7.235   1.587  0.9676  0.3019  1.7114
  688MOL0     H92859   3.573   7.368   1.473  2.1825  3.5141 -0.3098
  688MOL0     H92860   3.711   7.517   1.616  3.1639 -1.3941  1.1133
  688MOL0     H92861   3.755   7.384   1.721 -1.2445 -2.3203  1.4069
  688MOL0     H92862   4.500   6.842   1.219 -1.3256  0.9426 -0.2267
  688MOL0     H92863   4.709   6.823   1.347 -0.9077  3.1851 -1.5705
  688MOL0     H92864   4.764   6.703   1.846 -1.4320 -1.2170 -2.5341
  688MOL0     H92865   4.890   6.675   2.018 -2.0649  1.0510 -1.7015
  688MOL0     H92866   4.890   7.578   1.737  1.5023 -1.8089  2.1947
  688MOL0     H92867   5.126   7.678   1.720  0.7340 -0.4060  1.3851
  688MOL0     H92868   5.463   7.808   1.237  0.6974  1.9075 -0.3116
  688MOL0     H92869   5.690   7.837   1.215 -0.7229 -3.8742 -3.4688
  688MOL0     H92870   6.034   7.685   1.239 -0.4442 -0.3062 -1.2385
  688MOL0     H92871   5.889   7.728   1.179  0.2224  1.5452  0.1773
  688MOL0     H92872   5.940   7.978   1.271  0.9818  0.0950  2.7635
  688MOL0     H92873   6.080   7.912   1.173 -0.3836 -1.1905 -1.6892
  688MOL0     H92874   6.179   7.813   1.369 -0.9530 -0.7392 -0.2985
  688MOL0     H92875   6.053   7.900   1.467  0.2886  0.5000  0.2153
  688MOL0     H92876   6.148   8.106   1.446  0.9457 -1.4516  1.7468
  688MOL0     H92877   6.220   8.078   1.289  0.6611 -1.9498 -1.0060
  688MOL0     H92878   6.506   7.965   1.576  1.7238  0.6788 -1.8711
  688MOL0     H92879   5.782   7.636   1.581 -0.7478  1.8882  1.5006
  688MOL0     H92880   5.540   7.600   1.604  1.1043 -1.0764 -0.1719
  689MOL0     O92881   1.991  10.111   8.181  0.4892 -0.6052  0.6675
  689MOL0     C92882   1.881  10.135   8.225  0.2482  0.5094  0.1890
  689MOL0     O92883   1.850  10.082   8.354 -0.0391 -0.3072  0.6577
  689MOL0     C92884   1.947  10.085   8.458  0.4166 -0.5391  0.4853
  689MOL0     C92885   2.059  10.172   8.456  0.3822  0.4624 -0.3911
  689MOL0     C92886   2.149  10.164   8.553 -0.4172  0.3884 -0.2938
  689MOL0     C92887   2.152  10.054   8.644 -0.0822 -0.0711  0.4480
  689MOL0     O92888   2.252  10.053   8.735  0.1828  0.8079  0.8713
  689MOL0     C92889   2.252   9.969   8.855  0.6142 -0.4694 -0.4889
  689MOL0     C92890   2.331  10.035   8.963 -0.8202 -0.3315 -0.2466
  689MOL0     C92891   2.479  10.070   8.924  0.5115  0.6311  0.1336
  689MOL0     C92892   2.574   9.950   8.902  0.2401  0.3403 -0.2792
  689MOL0     C92893   2.609   9.862   9.028 -0.3278 -0.6264 -0.6918
  689MOL0     C92894   2.686   9.738   9.001  0.8139 -1.0818 -0.6193
  689MOL0     C92895   2.695   9.651   9.132  0.7899  0.5879  0.7399
  689MOL0     C92896   2.782   9.523   9.111  0.3914 -0.0026  0.2212
  689MOL0     N92897   2.691   9.413   9.071 -0.2064  0.4042  0.4665
  689MOL0     C92898   2.643   9.307   9.148 -0.2032 -0.2474 -0.0288
  689MOL0     C92899   2.557   9.247   9.064  0.7722 -0.7783  0.1484
  689MOL0     C92900   2.481   9.121   9.081 -0.3803  0.3130 -0.5617
  689MOL0     C92901   2.329   9.139   9.121 -0.2284  0.4568 -0.4786
  689MOL0     C92902   2.311   9.220   9.253 -0.2020 -0.3334  0.7176
  689MOL0     C92903   2.171   9.223   9.314 -0.2226 -0.0869  0.3664
  689MOL0     O92904   2.118   9.100   9.328  1.1926  0.0523 -0.3243
  689MOL0     C92905   1.984   9.090   9.367  0.8519 -0.0576 -0.5180
  689MOL0     C92906   1.953   8.968   9.416  0.7132  0.3312  0.4473
  689MOL0     C92907   1.822   8.934   9.459 -0.4802 -0.1696 -1.7868
  689MOL0     C92908   1.799   8.787   9.493 -0.3520 -0.0143  0.2262
  689MOL0     C92909   1.724   9.036   9.456  1.1076 -0.2104 -0.4964
  689MOL0     C92910   1.583   9.010   9.491 -0.9782  0.6617  0.6290
  689MOL0     O92911   1.536   9.073   9.608  1.0016  0.3882  0.1257
  689MOL0     C92912   1.406   9.048   9.656 -0.1017  0.0448  0.0781
  689MOL0     C92913   1.383   9.024   9.790  0.5899 -0.1823  0.4890
  689MOL0     C92914   1.255   9.019   9.842  0.1540  0.3983 -0.5259
  689MOL0     C92915   1.136   9.035   9.761 -0.6062  0.0165 -0.5407
  689MOL0     O92916   1.009   9.038   9.811 -0.0521  0.2908  0.1676
  689MOL0     C92917   0.998   9.085   9.944  0.0652 -0.7185  0.1086
  689MOL0     C92918   0.851   9.076   9.998  0.1448 -0.0263  0.2761
  689MOL0     C92919   0.796   9.218   9.983 -0.0985 -0.7843  0.2747
  689MOL0     C92920   0.800   9.275   9.836 -0.4244  0.7764 -1.4339
  689MOL0     C92921   0.751   9.416   9.817 -0.6983 -0.4225 -0.2234
  689MOL0     C92922   0.722   9.442   9.669 -0.3846  0.7309  0.1916
  689MOL0     C92923   0.655   9.576   9.635  0.8363  0.0103  0.0054
  689MOL0     C92924   0.581   9.571   9.499 -0.3775  0.1647 -1.3565
  689MOL0    Cl92925   0.435   9.685   9.484 -0.0034  0.1827 -0.4026
  689MOL0     C92926   1.162   9.069   9.624 -0.4523 -0.6332 -0.0789
  689MOL0     C92927   1.291   9.073   9.574  0.7791  0.7077 -0.3496
  689MOL0     O92928   1.524   8.928   9.421 -0.0669  0.0384 -0.5835
  689MOL0     C92929   1.750   9.164   9.410 -0.1967 -0.6901 -0.0792
  689MOL0     C92930   1.879   9.190   9.359  0.6873  0.2373 -0.4156
  689MOL0     N92931   2.566   9.308   8.938 -0.7987  0.0894 -0.4761
  689MOL0     N92932   2.640   9.403   8.945 -0.6412 -0.6669 -0.4596
  689MOL0     C92933   2.050   9.965   8.640  0.5565  0.1571 -0.5245
  689MOL0     C92934   1.949   9.978   8.544  0.1535 -0.7385 -0.2568
  689MOL0     C92935   1.774  10.194   8.142 -0.1783 -0.1198  0.1806
  689MOL0     C92936   1.801  10.259   8.016  0.0004  0.2113 -0.1819
  689MOL0     C92937   1.695  10.299   7.933 -0.7737  0.5434  0.1382
  689MOL0     C92938   1.563  10.274   7.967 -0.5299 -0.5535 -0.0950
  689MOL0     O92939   1.453  10.306   7.894 -0.7185 -0.0355  0.0767
  689MOL0     C92940   1.476  10.356   7.764 -0.3091  0.0822 -0.2432
  689MOL0     C92941   1.347  10.394   7.703 -0.5423  0.2581 -0.5546
  689MOL0     C92942   1.284  10.532   7.753 -0.5035 -0.1430 -0.3246
  689MOL0     C92943   1.164  10.501   7.847 -0.4774 -1.3133  0.2607
  689MOL0     C92944   1.127  10.626   7.919  0.1798 -0.2216  1.2522
  689MOL0     C92945   1.071  10.720   7.967 -0.9634  0.2443 -0.0338
  689MOL0     C92946   1.538  10.209   8.086 -0.1176  0.2825 -0.4812
  689MOL0     C92947   1.640  10.163   8.168  0.6786 -0.5998 -0.1274
  689MOL0     H92948   2.066  10.252   8.384 -1.1085  0.5859 -0.4394
  689MOL0     H92949   2.227  10.235   8.577  0.0217 -0.4564  0.8584
  689MOL0     H92950   2.148   9.962   8.888  1.6005  0.9813  3.6712
  689MOL0     H92951   2.290   9.870   8.829  0.3384 -0.0711 -2.5715
  689MOL0     H92952   2.276  10.126   8.989 -0.2932 -0.2939  0.7971
  689MOL0     H92953   2.328   9.964   9.047  0.1375  0.0884  0.1556
  689MOL0     H92954   2.470  10.135   8.837 -1.2456 -0.9399 -0.9532
  689MOL0     H92955   2.517  10.117   9.015  0.7038  0.7020  0.0151
  689MOL0     H92956   2.519   9.886   8.831  0.2039  0.7327 -0.6070
  689MOL0     H92957   2.665   9.964   8.843  1.1271 -2.4920  0.2609
  689MOL0     H92958   2.671   9.919   9.098  4.3907 -4.3676 -1.3466
  689MOL0     H92959   2.510   9.836   9.067 -0.3761 -2.1768 -1.7916
  689MOL0     H92960   2.644   9.672   8.925  1.5281  0.0461 -2.0372
  689MOL0     H92961   2.786   9.762   8.963  1.6269 -3.1372  0.0570
  689MOL0     H92962   2.750   9.706   9.210  1.5724  1.0945 -0.1389
  689MOL0     H92963   2.594   9.619   9.158 -0.1197 -1.8702 -4.5044
  689MOL0     H92964   2.837   9.495   9.202  0.4735 -0.2245  0.1032
  689MOL0     H92965   2.854   9.535   9.031 -1.1121  0.9418 -1.0510
  689MOL0     H92966   2.673   9.279   9.249 -2.3895  0.6614  0.9382
  689MOL0     H92967   2.494   9.065   8.989  1.9470  3.3087 -2.2298
  689MOL0     H92968   2.527   9.068   9.165  0.8491  0.4860 -1.1086
  689MOL0     H92969   2.274   9.045   9.129 -0.4602  0.7072  1.3371
  689MOL0     H92970   2.280   9.194   9.040 -2.8198 -1.4188 -0.2954
  689MOL0     H92971   2.343   9.320   9.225  1.2619 -0.5716  1.4539
  689MOL0     H92972   2.382   9.179   9.325  1.5346 -0.8992 -1.2297
  689MOL0     H92973   2.100   9.274   9.249  2.1076  0.5956 -1.8297
  689MOL0     H92974   2.173   9.268   9.413 -2.0858  0.4176  0.2080
  689MOL0     H92975   2.032   8.895   9.403  1.9500  1.8604 -1.1468
  689MOL0     H92976   1.717   8.744   9.436  0.5202  0.3686 -1.3927
  689MOL0     H92977   1.898   8.742   9.483  1.2295  3.4488 -1.7720
  689MOL0     H92978   1.774   8.785   9.600  2.1583 -2.8169  0.9083
  689MOL0     H92979   1.465   8.994   9.855  0.6641 -4.6157 -1.2871
  689MOL0     H92980   1.245   8.993   9.947 -3.6103  0.2234 -0.8120
  689MOL0     H92981   1.060   9.022  10.009  2.7267  2.6884  1.1608
  689MOL0     H92982   1.042   9.185   9.954 -1.5041  0.1427 -1.1306
  689MOL0     H92983   0.808   8.997   9.936  0.1743  0.7016 -0.7041
  689MOL0     H92984   0.849   9.040  10.101  3.7376 -0.3104  0.3731
  689MOL0     H92985   0.862   9.284  10.040 -0.1341  0.9228 -1.5569
  689MOL0     H92986   0.700   9.233  10.033  0.9515  0.1446  2.1096
  689MOL0     H92987   0.901   9.259   9.798  0.9124 -0.3338  2.1474
  689MOL0     H92988   0.739   9.201   9.783 -0.8137 -0.2922  0.4125
  689MOL0     H92989   0.824   9.492   9.844 -1.2135  0.5058 -1.3882
  689MOL0     H92990   0.677   9.437   9.896  1.4909  0.8893  1.6071
  689MOL0     H92991   0.816   9.440   9.614  1.0550  1.4270  2.4501
  689MOL0     H92992   0.655   9.369   9.622 -1.4341  1.9885 -0.3288
  689MOL0     H92993   0.713   9.670   9.638 -1.1234  1.3112 -0.8114
  689MOL0     H92994   0.576   9.587   9.710  0.4816 -2.2164  0.0044
  689MOL0     H92995   0.534   9.473   9.482 -3.4473  1.8159 -3.2412
  689MOL0     H92996   0.647   9.603   9.417 -1.0298  1.1035 -1.5268
  689MOL0     H92997   1.081   9.104   9.561 -0.0336  0.9810  0.2267
  689MOL0     H92998   1.306   9.096   9.469  0.2632 -2.2636 -1.1823
  689MOL0     H92999   1.665   9.231   9.393 -1.5527 -2.2521  0.2543
  689MOL0     H93000   1.891   9.290   9.319  1.3508  0.7322  0.9372
  689MOL0     H93001   2.047   9.882   8.709 -0.0206  2.5887  2.5940
  689MOL0     H93002   1.872   9.902   8.529 -0.1538 -0.6191  0.6514
  689MOL0     H93003   1.904  10.277   7.986 -0.5939  3.3875 -0.5851
  689MOL0     H93004   1.712  10.360   7.845 -1.7703  0.4777 -0.1184
  689MOL0     H93005   1.535  10.448   7.758 -3.4262  2.1477 -1.8131
  689MOL0     H93006   1.517  10.273   7.705  1.3137 -1.1740  2.4485
  689MOL0     H93007   1.282  10.308   7.721  1.4688 -1.2149  0.0147
  689MOL0     H93008   1.368  10.384   7.596 -0.9866 -1.9273 -0.4779
  689MOL0     H93009   1.248  10.601   7.677  2.5458  0.1021 -1.6835
  689MOL0     H93010   1.366  10.582   7.805 -0.8249 -1.3680  1.4817
  689MOL0     H93011   1.178  10.432   7.930 -0.8076  0.7469  2.1348
  689MOL0     H93012   1.086  10.466   7.779 -1.0599  0.6160 -0.1317
  689MOL0     H93013   1.008  10.800   7.999  1.1512  1.7934  0.4642
  689MOL0     H93014   1.435  10.189   8.112 -0.5708  2.2030 -0.7227
  689MOL0     H93015   1.613  10.103   8.255  0.5380  1.7159  1.5140
  690MOL0     O93016   7.847   1.461   4.237 -0.0902 -0.4175  0.7653
  690MOL0     C93017   7.828   1.531   4.136  0.2765  0.1892 -0.4435
  690MOL0     O93018   7.708   1.553   4.070  0.1929  0.1962 -0.2150
  690MOL0     C93019   7.605   1.469   4.099 -0.3527 -0.2154 -0.0286
  690MOL0     C93020   7.512   1.514   4.198 -0.5971  0.0720  0.2659
  690MOL0     C93021   7.395   1.438   4.218 -0.0811 -0.2248 -0.2672
  690MOL0     C93022   7.369   1.317   4.150 -0.3467 -0.7914 -0.1558
  690MOL0     O93023   7.256   1.242   4.166  0.2643 -0.2943 -0.3918
  690MOL0     C93024   7.136   1.325   4.197  0.3955  0.1143  0.1814
  690MOL0     C93025   7.005   1.246   4.185 -1.0729  0.3963  0.5138
  690MOL0     C93026   7.009   1.117   4.276  0.3736 -0.2650 -0.4224
  690MOL0     C93027   6.863   1.070   4.292  0.1040 -0.2663 -0.8809
  690MOL0     C93028   6.848   0.946   4.385  0.2967  0.0663  0.1206
  690MOL0     C93029   6.710   0.874   4.386  0.0372  0.6344 -0.2909
  690MOL0     C93030   6.595   0.965   4.421 -0.8185  0.0109  1.1017
  690MOL0     C93031   6.463   0.888   4.418 -0.1345  0.7103  0.2015
  690MOL0     N93032   6.363   0.985   4.371 -0.4800 -0.0038 -0.3151
  690MOL0     C93033   6.287   0.970   4.256 -0.2792 -0.3012 -0.1232
  690MOL0     C93034   6.205   1.077   4.266 -0.8209  0.1541  0.3161
  690MOL0     C93035   6.110   1.120   4.157 -0.4073  0.1139  0.6498
  690MOL0     C93036   5.965   1.086   4.206 -0.6314  0.2316 -0.8198
  690MOL0     C93037   5.854   1.136   4.110 -0.9967 -0.2597  0.7218
  690MOL0     C93038   5.723   1.174   4.174 -0.8496 -0.3888 -0.6120
  690MOL0     O93039   5.624   1.207   4.081  0.0847  0.0456  0.2247
  690MOL0     C93040   5.538   1.123   4.022 -0.7539 -0.1947  0.6816
  690MOL0     C93041   5.450   1.173   3.922  0.6927  0.8753 -0.6045
  690MOL0     C93042   5.359   1.083   3.856  0.0895 -0.3905  0.1037
  690MOL0     C93043   5.263   1.148   3.762  0.4293  0.5901  0.6759
  690MOL0     C93044   5.360   0.945   3.887 -0.7499 -0.8095  0.0687
  690MOL0     C93045   5.270   0.838   3.839 -0.0817 -0.0125 -0.6360
  690MOL0     O93046   5.207   0.865   3.716 -0.3885  0.3699  0.4393
  690MOL0     C93047   5.141   0.767   3.650 -0.0220  0.2144 -0.1544
  690MOL0     C93048   5.002   0.741   3.659 -0.1830 -0.7562 -0.0329
  690MOL0     C93049   4.944   0.640   3.583  0.0537 -0.0322  0.0209
  690MOL0     C93050   5.025   0.546   3.514  0.3014 -0.4538  0.0032
  690MOL0     O93051   4.976   0.431   3.453 -0.5371  0.2835 -0.3561
  690MOL0     C93052   4.849   0.377   3.484 -0.4414 -0.1860  0.1627
  690MOL0     C93053   4.818   0.245   3.419  0.5032  0.0848 -0.4119
  690MOL0     C93054   4.683   0.187   3.467 -0.1503 -0.6273  1.1226
  690MOL0     C93055   4.649   0.073   3.376 -0.0740 -0.7214 -0.0444
  690MOL0     C93056   4.511   0.021   3.407 -0.6139  0.5566 -1.1789
  690MOL0     C93057   4.399   0.121   3.364 -0.0276  0.4763  0.6185
  690MOL0     C93058   4.263   0.052   3.376 -0.1932 -0.4247 -0.5152
  690MOL0     C93059   4.152   0.149   3.335  0.4212 -1.0551  0.0692
  690MOL0    Cl93060   3.979   0.090   3.338  0.0937 -0.1117  0.1164
  690MOL0     C93061   5.162   0.573   3.507 -0.1563  0.5150  0.8232
  690MOL0     C93062   5.218   0.682   3.569  1.0511 -0.5038  0.4245
  690MOL0     O93063   5.257   0.736   3.905 -0.5168  0.0694 -0.6108
  690MOL0     C93064   5.455   0.897   3.981  0.4169  0.2044 -0.3626
  690MOL0     C93065   5.550   0.983   4.042 -0.7300  1.2491 -0.0663
  690MOL0     N93066   6.245   1.159   4.376 -0.4509 -0.3475 -0.7048
  690MOL0     N93067   6.331   1.093   4.443  0.7111  0.3199  0.7071
  690MOL0     C93068   7.464   1.280   4.052 -1.7917  0.1485  0.2218
  690MOL0     C93069   7.581   1.353   4.030 -0.5871 -0.2026  0.5323
  690MOL0     C93070   7.953   1.583   4.065 -0.4863  1.2706  0.8945
  690MOL0     C93071   7.935   1.677   3.958 -0.3913  0.8039 -0.0673
  690MOL0     C93072   8.045   1.720   3.879  0.0363  0.2338  0.2454
  690MOL0     C93073   8.180   1.667   3.901  0.6865  0.7371 -0.2263
  690MOL0     O93074   8.291   1.691   3.835 -0.0835 -0.1858 -0.2728
  690MOL0     C93075   8.281   1.813   3.766 -0.8826 -0.1076  0.6242
  690MOL0     C93076   8.426   1.870   3.747 -0.2083  0.5209 -0.0154
  690MOL0     C93077   8.512   1.781   3.657 -0.7279  0.6986  0.2645
  690MOL0     C93078   8.653   1.846   3.635 -0.2085  0.1529 -0.5393
  690MOL0     C93079   8.759   1.757   3.576  0.0076 -0.1850 -0.8787
  690MOL0     C93080   8.857   1.690   3.530  0.8624 -0.0004  0.8282
  690MOL0     C93081   8.189   1.555   3.987 -0.5624 -0.2533 -0.1509
  690MOL0     C93082   8.083   1.523   4.070  0.5519  0.2950 -0.4937
  690MOL0     H93083   7.513   1.603   4.260 -2.1432 -0.8120  1.6710
  690MOL0     H93084   7.335   1.483   4.296  2.0386  1.3713  0.5465
  690MOL0     H93085   7.153   1.358   4.300  4.1679 -2.1454  0.4657
  690MOL0     H93086   7.134   1.417   4.137  0.2550  0.5647  0.8605
  690MOL0     H93087   6.920   1.303   4.224  0.0820  1.1122  2.0751
  690MOL0     H93088   6.995   1.218   4.079  0.8806  3.7568 -0.7208
  690MOL0     H93089   7.070   1.035   4.238 -0.1600 -1.1614  0.6040
  690MOL0     H93090   7.047   1.148   4.373 -1.6426 -0.2941  0.4380
  690MOL0     H93091   6.803   1.151   4.333  4.6684  1.8896  2.3890
  690MOL0     H93092   6.828   1.044   4.192 -0.5663  1.3853 -1.1089
  690MOL0     H93093   6.921   0.873   4.348  0.6116  0.4327  0.0064
  690MOL0     H93094   6.865   0.985   4.486  1.4491 -0.6401  0.2192
  690MOL0     H93095   6.694   0.821   4.291 -0.1825 -0.0713  0.1324
  690MOL0     H93096   6.696   0.799   4.464 -1.6168  0.7372 -0.4488
  690MOL0     H93097   6.605   1.008   4.522 -0.0080  1.1302  0.5680
  690MOL0     H93098   6.590   1.056   4.362  0.1412 -0.0682  0.8673
  690MOL0     H93099   6.432   0.854   4.518  0.5313 -1.0377 -0.1564
  690MOL0     H93100   6.457   0.801   4.352 -1.5533 -0.4342  1.7204
  690MOL0     H93101   6.290   0.904   4.170 -0.9324  0.0217 -0.4028
  690MOL0     H93102   6.117   1.230   4.157  1.0312  0.0302  1.1977
  690MOL0     H93103   6.128   1.085   4.055  1.8396  2.8467 -0.0339
  690MOL0     H93104   5.934   1.129   4.301 -1.0049  1.2068 -1.3650
  690MOL0     H93105   5.955   0.977   4.211 -2.4807  0.4085  0.3751
  690MOL0     H93106   5.840   1.066   4.027 -1.2199  0.0623  0.4851
  690MOL0     H93107   5.902   1.222   4.061  1.5268 -0.9017  1.8669
  690MOL0     H93108   5.736   1.261   4.239 -0.4193 -2.2917  1.9751
  690MOL0     H93109   5.691   1.097   4.244  1.0886 -1.3457 -0.7174
  690MOL0     H93110   5.438   1.280   3.912  1.7403  1.0596 -0.0079
  690MOL0     H93111   5.306   1.151   3.662  0.6786 -1.7701  0.6566
  690MOL0     H93112   5.170   1.091   3.758  0.6813  0.2468 -0.4532
  690MOL0     H93113   5.233   1.249   3.793 -1.4388  0.2106  0.2556
  690MOL0     H93114   4.962   0.808   3.735  2.8811 -0.5453  1.5303
  690MOL0     H93115   4.838   0.624   3.603 -0.3498 -0.2277 -2.0154
  690MOL0     H93116   4.854   0.358   3.591  2.3168  0.4719  0.2063
  690MOL0     H93117   4.767   0.445   3.459  0.1454  0.2806 -0.5300
  690MOL0     H93118   4.820   0.263   3.311  2.6452 -0.2550 -0.4720
  690MOL0     H93119   4.897   0.174   3.443  0.8287  1.2941  2.4410
  690MOL0     H93120   4.597   0.255   3.468 -3.0984 -3.9630 -0.8233
  690MOL0     H93121   4.680   0.155   3.571 -0.5958 -1.4826  0.8514
  690MOL0     H93122   4.660   0.094   3.270  1.9057  2.0702  0.6032
  690MOL0     H93123   4.721  -0.003   3.408 -0.5987 -1.4437 -0.5379
  690MOL0     H93124   4.522   0.003   3.514  0.7802 -0.9071 -1.5109
  690MOL0     H93125   4.497  -0.079   3.363 -1.8284 -0.2847  1.0029
  690MOL0     H93126   4.392   0.207   3.431 -4.0304  0.1467  0.8696
  690MOL0     H93127   4.418   0.147   3.260 -0.5105 -0.9715  0.1434
  690MOL0     H93128   4.237   0.019   3.477 -0.0433 -0.0570 -0.3536
  690MOL0     H93129   4.262  -0.035   3.310  1.6705 -0.9644  0.1111
  690MOL0     H93130   4.171   0.178   3.232  1.0781  1.3439  0.7994
  690MOL0     H93131   4.160   0.236   3.402 -0.7296  0.7545 -2.0333
  690MOL0     H93132   5.228   0.502   3.456 -1.5717 -1.9127  2.2097
  690MOL0     H93133   5.326   0.682   3.560  1.1305  0.8349  1.1701
  690MOL0     H93134   5.454   0.791   4.002 -3.4539  0.1373 -0.1333
  690MOL0     H93135   5.627   0.939   4.105  0.1894 -1.0178 -2.5517
  690MOL0     H93136   7.450   1.193   3.988  4.5748 -1.6011  0.5183
  690MOL0     H93137   7.647   1.324   3.949 -2.8656  0.4281 -1.6665
  690MOL0     H93138   7.839   1.726   3.943  0.0422  2.1086  1.2186
  690MOL0     H93139   8.032   1.789   3.796  3.2729  0.2402 -0.3805
  690MOL0     H93140   8.233   1.797   3.668  3.1673 -0.4125 -1.5244
  690MOL0     H93141   8.230   1.882   3.833  0.5101  2.3343 -0.6853
  690MOL0     H93142   8.472   1.876   3.846 -0.9747 -1.9056  0.5522
  690MOL0     H93143   8.405   1.967   3.701  0.5896  0.2527 -0.9924
  690MOL0     H93144   8.469   1.764   3.557  0.8651 -2.2421 -0.0503
  690MOL0     H93145   8.519   1.686   3.710  0.0368 -0.6645 -2.0968
  690MOL0     H93146   8.694   1.890   3.726  1.2946 -1.9503 -0.1277
  690MOL0     H93147   8.643   1.922   3.557 -3.4620  0.9044  0.4376
  690MOL0     H93148   8.943   1.645   3.483 -1.5767 -2.5916 -1.5745
  690MOL0     H93149   8.290   1.514   3.992  0.3105  1.8405  0.7198
  690MOL0     H93150   8.094   1.448   4.148 -0.6799  1.2638  0.6676
  691MOL0     O93151   0.251   6.213   8.540 -0.6757  0.1986  0.0623
  691MOL0     C93152   0.260   6.265   8.426 -0.1796 -0.6037 -0.4130
  691MOL0     O93153   0.161   6.276   8.337  0.9653 -0.0214  0.2095
  691MOL0     C93154   0.029   6.258   8.375  0.2034  0.2388  1.1754
  691MOL0     C93155  -0.054   6.194   8.282 -0.9874  0.5700  0.0286
  691MOL0     C93156  -0.191   6.177   8.302  0.5557 -0.1370 -0.0776
  691MOL0     C93157  -0.246   6.225   8.423  0.1002 -0.5438  1.4144
  691MOL0     O93158  -0.379   6.187   8.454  0.1518 -0.5790  0.2111
  691MOL0     C93159  -0.452   6.273   8.551  0.3841  0.8920  0.2533
  691MOL0     C93160  -0.601   6.225   8.539 -0.4718 -0.2809 -0.0287
  691MOL0     C93161  -0.661   6.259   8.403 -0.0809  0.4667  0.4568
  691MOL0     C93162  -0.801   6.320   8.416 -0.5677  0.6504  0.9793
  691MOL0     C93163  -0.904   6.219   8.461  0.8766  0.3517  0.5147
  691MOL0     C93164  -1.041   6.283   8.472 -0.4477  0.4367 -0.4932
  691MOL0     C93165  -1.066   6.364   8.599  0.0353  0.2465  0.2993
  691MOL0     C93166  -1.194   6.458   8.586  0.5294  0.1360 -0.2271
  691MOL0     N93167  -1.317   6.388   8.561 -0.6256 -0.2351  0.1571
  691MOL0     C93168  -1.400   6.385   8.448  0.6702  0.2926  0.7631
  691MOL0     C93169  -1.514   6.326   8.477 -0.0035 -0.4274  1.3289
  691MOL0     C93170  -1.628   6.304   8.376  0.0855  0.1979 -0.7364
  691MOL0     C93171  -1.634   6.154   8.338 -0.1990 -0.2184 -0.5196
  691MOL0     C93172  -1.687   6.129   8.200 -0.1721 -0.6809 -0.1643
  691MOL0     C93173  -1.841   6.175   8.167 -0.1963  0.1773 -0.3038
  691MOL0     O93174  -1.935   6.123   8.267  0.8206  0.5189  0.1864
  691MOL0     C93175  -2.074   6.129   8.236 -1.7198  0.6638 -0.3486
  691MOL0     C93176  -2.133   6.200   8.135  0.4381 -0.5591 -0.2868
  691MOL0     C93177  -2.273   6.181   8.113 -0.2852 -0.7005  0.3418
  691MOL0     C93178  -2.334   6.276   8.001 -0.7392  0.2287 -0.2954
  691MOL0     C93179  -2.348   6.102   8.204 -0.4372 -0.2828  0.6548
  691MOL0     C93180  -2.494   6.087   8.191 -0.7119  0.2016  0.0655
  691MOL0     O93181  -2.541   5.978   8.257 -0.1199  0.5630  0.4419
  691MOL0     C93182  -2.673   5.973   8.280  0.1801  0.5148 -0.9394
  691MOL0     C93183  -2.733   6.057   8.370  0.0656 -0.6106  0.4642
  691MOL0     C93184  -2.871   6.044   8.378  1.4605 -0.5617  1.1122
  691MOL0     C93185  -2.950   5.944   8.318 -1.0500  0.1577  0.2468
  691MOL0     O93186  -3.085   5.926   8.355 -0.1117 -0.4228 -0.2450
  691MOL0     C93187  -3.152   5.804   8.322 -0.5319 -0.2110  0.5270
  691MOL0     C93188  -3.273   5.795   8.419  0.2127  0.2057  0.6581
  691MOL0     C93189  -3.378   5.697   8.363 -0.3273  1.0755  0.3729
  691MOL0     C93190  -3.494   5.762   8.292 -0.4817  0.6728 -0.1117
  691MOL0     C93191  -3.592   5.657   8.233  0.8065  0.8561  0.5988
  691MOL0     C93192  -3.725   5.735   8.210 -0.0633  0.8141 -0.2346
  691MOL0     C93193  -3.835   5.641   8.160 -0.3524 -0.4518  0.3578
  691MOL0     C93194  -3.970   5.701   8.182  1.1476 -0.8362 -1.1608
  691MOL0    Cl93195  -3.986   5.864   8.131  0.0868  0.4538 -0.3065
  691MOL0     C93196  -2.884   5.859   8.228 -0.1194 -0.4541 -0.3131
  691MOL0     C93197  -2.748   5.881   8.205  0.2289 -0.5277  0.1930
  691MOL0     O93198  -2.569   6.177   8.156 -0.3189  0.4132 -0.5747
  691MOL0     C93199  -2.283   6.040   8.307 -0.3231  0.2111  0.0411
  691MOL0     C93200  -2.147   6.053   8.318  0.0840  0.3320 -0.4746
  691MOL0     N93201  -1.507   6.302   8.612  0.0563 -0.1166  0.6186
  691MOL0     N93202  -1.391   6.339   8.658 -0.0122 -0.6659  0.6711
  691MOL0     C93203  -0.160   6.285   8.516  0.2530  0.1770 -0.3475
  691MOL0     C93204  -0.025   6.307   8.497  0.0021  0.0512 -0.4149
  691MOL0     C93205   0.396   6.317   8.383  0.3665 -0.2657 -0.2116
  691MOL0     C93206   0.495   6.354   8.477 -1.2684 -0.1438  0.9368
  691MOL0     C93207   0.628   6.404   8.439 -0.1457 -0.8718  0.1187
  691MOL0     C93208   0.653   6.427   8.307 -0.3637  0.8966  0.6372
  691MOL0     O93209   0.772   6.480   8.263  0.2105 -0.6973 -0.7091
  691MOL0     C93210   0.800   6.515   8.131  0.8494  0.2325  0.2282
  691MOL0     C93211   0.923   6.613   8.134 -0.0648  0.1256 -0.5664
  691MOL0     C93212   0.911   6.740   8.221 -0.3566 -0.4357  0.1802
  691MOL0     C93213   1.019   6.845   8.194 -0.1992 -0.0113 -0.7155
  691MOL0     C93214   1.149   6.796   8.153  0.5051  1.4671  0.1656
  691MOL0     C93215   1.259   6.767   8.121  0.1453 -0.2864  0.3148
  691MOL0     C93216   0.555   6.392   8.209 -0.9270  0.8947  0.7166
  691MOL0     C93217   0.430   6.340   8.249  0.7804 -0.0668 -0.2111
  691MOL0     H93218  -0.011   6.157   8.189  1.7280 -0.4174  1.5789
  691MOL0     H93219  -0.246   6.119   8.230  2.2950  0.6579 -2.1644
  691MOL0     H93220  -0.417   6.264   8.655 -1.4627  1.5331  0.9646
  691MOL0     H93221  -0.453   6.375   8.512  0.8179  0.4333 -1.0235
  691MOL0     H93222  -0.612   6.119   8.567  1.0001 -0.1891  0.9600
  691MOL0     H93223  -0.656   6.282   8.615 -0.6103  1.3875 -1.3294
  691MOL0     H93224  -0.599   6.321   8.338 -0.5231 -1.2764 -1.7713
  691MOL0     H93225  -0.672   6.167   8.345  0.9670  0.5225  0.1570
  691MOL0     H93226  -0.792   6.407   8.481  0.0182  3.2189 -2.2996
  691MOL0     H93227  -0.842   6.361   8.323 -0.9518  1.5852  1.5454
  691MOL0     H93228  -0.921   6.144   8.383 -2.6758 -0.6826  2.0779
  691MOL0     H93229  -0.872   6.167   8.552  3.7200 -0.2197 -0.7108
  691MOL0     H93230  -1.062   6.346   8.385 -1.6652 -1.2458 -1.4755
  691MOL0     H93231  -1.117   6.205   8.476 -0.0207  0.0396  2.6478
  691MOL0     H93232  -1.078   6.300   8.687  2.3985  1.0080  1.2318
  691MOL0     H93233  -0.990   6.439   8.617  0.7654 -0.5674  0.6782
  691MOL0     H93234  -1.180   6.532   8.507 -0.2751 -1.6778 -2.1466
  691MOL0     H93235  -1.207   6.511   8.681  3.8233  0.1416  0.3433
  691MOL0     H93236  -1.377   6.420   8.348 -0.7611 -2.7207 -0.7745
  691MOL0     H93237  -1.731   6.329   8.403 -0.6895 -0.7004 -2.6827
  691MOL0     H93238  -1.603   6.361   8.286  3.9278 -2.9816 -1.9405
  691MOL0     H93239  -1.682   6.103   8.421  0.3342  0.4579  0.2146
  691MOL0     H93240  -1.533   6.112   8.339 -0.2097 -0.2249  0.0730
  691MOL0     H93241  -1.667   6.028   8.166  0.3480 -1.6552  2.7432
  691MOL0     H93242  -1.625   6.186   8.130  0.0583 -3.5884 -2.5249
  691MOL0     H93243  -1.870   6.146   8.066 -1.7534 -2.6473  0.8305
  691MOL0     H93244  -1.845   6.284   8.169 -2.4600  0.1751 -1.4886
  691MOL0     H93245  -2.076   6.270   8.074 -0.4631  0.9810  0.5745
  691MOL0     H93246  -2.264   6.284   7.917  0.8242  1.7779  1.0760
  691MOL0     H93247  -2.427   6.234   7.963 -1.2224 -0.0975  1.1875
  691MOL0     H93248  -2.365   6.371   8.045 -1.6119 -1.5624  3.3322
  691MOL0     H93249  -2.677   6.141   8.411 -1.3319  0.0971  0.9987
  691MOL0     H93250  -2.909   6.130   8.432  3.8065  1.3799 -0.1243
  691MOL0     H93251  -3.190   5.815   8.221 -2.0665 -0.3010  1.0716
  691MOL0     H93252  -3.096   5.710   8.324 -1.9155 -1.3520 -4.0392
  691MOL0     H93253  -3.232   5.747   8.508  2.0083  5.6502  3.1775
  691MOL0     H93254  -3.324   5.889   8.442 -1.3420 -0.3678 -0.2454
  691MOL0     H93255  -3.414   5.631   8.442  1.5118 -2.3408 -1.4264
  691MOL0     H93256  -3.331   5.632   8.289 -0.6732  1.2923 -0.0431
  691MOL0     H93257  -3.543   5.837   8.356  1.9346  3.1232 -0.9406
  691MOL0     H93258  -3.454   5.824   8.211  0.4356  0.5945  0.2761
  691MOL0     H93259  -3.609   5.566   8.292 -0.7917  0.4098 -0.4878
  691MOL0     H93260  -3.552   5.629   8.135  1.5399  3.2798  0.1562
  691MOL0     H93261  -3.769   5.767   8.305 -0.0663  0.4392 -0.1075
  691MOL0     H93262  -3.713   5.819   8.141  2.9166  2.3937  1.9148
  691MOL0     H93263  -3.840   5.551   8.221  0.2848 -1.1384 -0.5584
  691MOL0     H93264  -3.806   5.615   8.058  0.6998 -0.3166  0.6124
  691MOL0     H93265  -4.003   5.696   8.286 -0.7993  0.7601 -1.6430
  691MOL0     H93266  -4.046   5.655   8.118  0.7780 -1.3520 -0.3603
  691MOL0     H93267  -2.940   5.785   8.171 -3.0179  0.6456  0.9219
  691MOL0     H93268  -2.687   5.818   8.142  0.5733  1.1292 -1.2124
  691MOL0     H93269  -2.331   5.996   8.393 -0.8036  1.6853  0.5553
  691MOL0     H93270  -2.106   5.999   8.402 -1.1852 -2.0234 -1.2637
  691MOL0     H93271  -0.201   6.323   8.609 -1.1780 -0.5946 -0.6318
  691MOL0     H93272   0.035   6.367   8.565 -2.3274  1.3265  0.6206
  691MOL0     H93273   0.479   6.345   8.584 -0.4028 -1.0745  1.0053
  691MOL0     H93274   0.700   6.432   8.515  1.7350  2.6393 -2.6641
  691MOL0     H93275   0.833   6.423   8.081 -2.6441 -0.9549 -0.1484
  691MOL0     H93276   0.713   6.555   8.078  1.7765 -0.3198 -1.8010
  691MOL0     H93277   0.936   6.646   8.031  0.8988 -1.2510 -0.9215
  691MOL0     H93278   1.007   6.555   8.174 -1.0300 -0.2662  1.0038
  691MOL0     H93279   0.916   6.714   8.327  0.5000  0.2821  0.3290
  691MOL0     H93280   0.818   6.795   8.203  0.4449  0.6405 -0.8571
  691MOL0     H93281   1.038   6.932   8.258  2.3386  0.9880 -2.6248
  691MOL0     H93282   0.986   6.902   8.107  1.3064  2.2158  0.0604
  691MOL0     H93283   1.355   6.741   8.080  0.4348 -0.3692  1.0313
  691MOL0     H93284   0.574   6.400   8.102 -1.3393  0.0762  0.5702
  691MOL0     H93285   0.356   6.323   8.171  0.5661  1.3636 -0.3443
  692MOL0     O93286   1.489   4.511   1.432  0.2161  0.3336 -0.2258
  692MOL0     C93287   1.536   4.557   1.542  0.6140 -0.3145 -0.0797
  692MOL0     O93288   1.463   4.576   1.665 -0.4643 -0.0724  0.5288
  692MOL0     C93289   1.323   4.545   1.657  1.2563 -0.4177  0.0888
  692MOL0     C93290   1.285   4.410   1.678 -0.1191 -0.1172  0.5680
  692MOL0     C93291   1.151   4.388   1.697  0.6619  1.2144  0.3719
  692MOL0     C93292   1.055   4.495   1.692  0.3496  0.0914 -0.3841
  692MOL0     O93293   0.918   4.471   1.721  0.0190 -0.2216 -0.4359
  692MOL0     C93294   0.897   4.421   1.855  0.6106  0.2177 -0.5831
  692MOL0     C93295   0.743   4.411   1.884 -0.6172  0.2914  0.2402
  692MOL0     C93296   0.674   4.551   1.888  0.5763 -0.2378  0.2708
  692MOL0     C93297   0.729   4.646   1.993  0.0247 -0.0999  0.2642
  692MOL0     C93298   0.712   4.590   2.137 -0.5338 -0.9218  0.3043
  692MOL0     C93299   0.744   4.700   2.233  0.7068  0.2870  0.1174
  692MOL0     C93300   0.639   4.804   2.255  0.1860 -0.9852 -0.5677
  692MOL0     C93301   0.688   4.923   2.336 -0.6250  0.0072 -0.5139
  692MOL0     N93302   0.672   4.901   2.477 -0.3909 -0.7551  0.5501
  692MOL0     C93303   0.769   4.868   2.563  0.4079  0.4585  0.7402
  692MOL0     C93304   0.717   4.894   2.686  0.4334  0.6728 -0.5694
  692MOL0     C93305   0.759   4.845   2.820  0.0143 -0.0534 -0.8279
  692MOL0     C93306   0.796   4.959   2.907 -0.3074 -0.0130 -0.0247
  692MOL0     C93307   0.665   4.993   2.994 -0.6077  0.2797  0.6392
  692MOL0     C93308   0.657   5.142   3.015  0.2662 -0.1140 -0.0006
  692MOL0     O93309   0.541   5.177   3.088  0.6823 -0.3991  0.6475
  692MOL0     C93310   0.415   5.177   3.032 -0.4223  0.5018  0.2752
  692MOL0     C93311   0.307   5.203   3.114 -0.1133  0.5174 -0.2264
  692MOL0     C93312   0.176   5.211   3.067  0.4186 -0.4957  0.0211
  692MOL0     C93313   0.073   5.265   3.160  0.1805 -0.1556  0.3170
  692MOL0     C93314   0.154   5.187   2.926 -0.7820 -0.5584  0.2146
  692MOL0     C93315   0.022   5.203   2.862  0.5314 -0.7303  1.0537
  692MOL0     O93316  -0.087   5.181   2.940 -0.3894  0.3480 -0.3422
  692MOL0     C93317  -0.207   5.219   2.895 -0.6676 -0.7758 -0.0262
  692MOL0     C93318  -0.270   5.174   2.781  0.3673 -1.3183 -0.1910
  692MOL0     C93319  -0.397   5.209   2.741 -0.5790  0.0567  0.9577
  692MOL0     C93320  -0.473   5.298   2.811  0.4383  0.0559  0.0105
  692MOL0     O93321  -0.597   5.348   2.777 -0.1380 -0.2830 -0.5392
  692MOL0     C93322  -0.650   5.310   2.648 -0.7815 -0.2101 -0.1504
  692MOL0     C93323  -0.598   5.403   2.538  0.6169  0.6107  0.1501
  692MOL0     C93324  -0.614   5.337   2.404  0.3690 -0.0826  0.4963
  692MOL0     C93325  -0.587   5.436   2.280 -0.8442 -0.1189 -0.0851
  692MOL0     C93326  -0.604   5.360   2.143  0.2680  0.0967  0.1787
  692MOL0     C93327  -0.732   5.281   2.125  0.0803  0.8214  0.6448
  692MOL0     C93328  -0.859   5.361   2.153 -0.2731  0.5260  0.9162
  692MOL0     C93329  -0.981   5.273   2.120 -0.1415 -0.0517 -0.6964
  692MOL0    Cl93330  -1.125   5.360   2.157 -0.0844 -0.0583 -0.2344
  692MOL0     C93331  -0.415   5.354   2.929 -0.2304 -0.4563  0.5282
  692MOL0     C93332  -0.280   5.320   2.969  0.4823  0.3415 -0.1644
  692MOL0     O93333   0.012   5.226   2.740  0.2256  0.3957 -0.0428
  692MOL0     C93334   0.263   5.165   2.841  0.5851 -0.1095  0.1775
  692MOL0     C93335   0.391   5.158   2.894  0.4533 -0.7276 -0.4351
  692MOL0     N93336   0.582   4.935   2.666  0.1669  0.4046 -0.4502
  692MOL0     N93337   0.552   4.928   2.542 -0.1073  0.0003 -0.0850
  692MOL0     C93338   1.092   4.617   1.653 -0.0745  0.1379 -1.4489
  692MOL0     C93339   1.223   4.651   1.639 -0.1915  0.3537 -0.2029
  692MOL0     C93340   1.673   4.605   1.547  0.4492  0.1722  0.7227
  692MOL0     C93341   1.752   4.637   1.427  0.3884 -0.2908 -0.2758
  692MOL0     C93342   1.885   4.661   1.434 -0.2375  0.3997  0.5140
  692MOL0     C93343   1.950   4.656   1.561  0.0579 -1.3848  0.2383
  692MOL0     O93344   2.082   4.672   1.548  0.2226 -0.4268 -0.1396
  692MOL0     C93345   2.160   4.688   1.666 -0.2252  0.5626  0.9574
  692MOL0     C93346   2.308   4.709   1.639  0.3256 -0.1987 -0.2998
  692MOL0     C93347   2.340   4.798   1.521  1.0962  0.1364 -0.5514
  692MOL0     C93348   2.359   4.717   1.386 -0.4977 -0.0344  0.0634
  692MOL0     C93349   2.383   4.815   1.282  0.6247  0.3081 -0.3800
  692MOL0     C93350   2.423   4.882   1.192 -0.8811 -0.1168 -0.1133
  692MOL0     C93351   1.885   4.624   1.678 -0.3107  0.2582 -0.9830
  692MOL0     C93352   1.742   4.606   1.672 -0.3627 -0.0298 -0.0829
  692MOL0     H93353   1.353   4.331   1.709  0.0532 -0.8770 -1.5534
  692MOL0     H93354   1.104   4.291   1.714 -0.4338  1.9539  1.8353
  692MOL0     H93355   0.941   4.321   1.863 -1.2170 -0.5090  2.0779
  692MOL0     H93356   0.947   4.483   1.930  0.2757  0.7861 -0.8215
  692MOL0     H93357   0.696   4.348   1.808 -0.2870  1.3284 -0.8719
  692MOL0     H93358   0.732   4.355   1.977 -0.0962  2.1974  1.5083
  692MOL0     H93359   0.677   4.589   1.786  1.7333 -0.2103  0.2952
  692MOL0     H93360   0.568   4.547   1.916  0.4903  3.5089  1.0437
  692MOL0     H93361   0.833   4.664   1.963  0.1274  0.4363  0.9250
  692MOL0     H93362   0.672   4.740   1.991  0.7890  0.3700  0.2187
  692MOL0     H93363   0.607   4.569   2.162 -0.9576  1.6775  0.9365
  692MOL0     H93364   0.778   4.503   2.150  2.2514  0.8595 -0.9350
  692MOL0     H93365   0.775   4.652   2.325  0.3559  0.5606  0.3817
  692MOL0     H93366   0.835   4.740   2.186  3.0703 -3.6881  0.8912
  692MOL0     H93367   0.599   4.843   2.162 -0.8852  1.3613  0.7911
  692MOL0     H93368   0.548   4.765   2.301 -2.3207  1.9592 -2.6569
  692MOL0     H93369   0.620   5.006   2.314 -0.7582  0.2524  0.7295
  692MOL0     H93370   0.791   4.953   2.312 -0.3992 -1.0012 -0.8294
  692MOL0     H93371   0.860   4.823   2.526 -0.7744 -0.4955 -1.1158
  692MOL0     H93372   0.680   4.793   2.874 -1.4608  2.8227 -0.0213
  692MOL0     H93373   0.844   4.776   2.822 -0.9803 -1.3146 -0.7057
  692MOL0     H93374   0.842   5.042   2.852 -1.2461  0.9682  0.6230
  692MOL0     H93375   0.876   4.941   2.980 -0.6288  1.7063  0.8185
  692MOL0     H93376   0.671   4.938   3.088  2.2774 -1.5767 -0.5196
  692MOL0     H93377   0.576   4.974   2.933 -0.9279  0.2644  1.0989
  692MOL0     H93378   0.660   5.203   2.925  0.7418 -0.4489 -0.2186
  692MOL0     H93379   0.750   5.177   3.059  2.6551 -2.6204 -2.6117
  692MOL0     H93380   0.336   5.242   3.211  0.0533 -0.8188  0.2939
  692MOL0     H93381  -0.003   5.189   3.185  1.0241 -0.9076  0.6428
  692MOL0     H93382   0.114   5.303   3.254  0.0447  1.9390 -0.4186
  692MOL0     H93383   0.024   5.355   3.122  0.7412 -0.3934 -1.0305
  692MOL0     H93384  -0.216   5.098   2.725  3.5813 -0.9600  2.0991
  692MOL0     H93385  -0.432   5.165   2.649 -1.0942 -0.1076  1.2279
  692MOL0     H93386  -0.634   5.205   2.618 -0.7066 -0.2425  0.0060
  692MOL0     H93387  -0.758   5.323   2.659 -0.7107  2.3843 -1.8213
  692MOL0     H93388  -0.668   5.487   2.549 -2.8362 -2.1743  1.5867
  692MOL0     H93389  -0.491   5.424   2.547  0.0537  2.8387  3.4444
  692MOL0     H93390  -0.717   5.301   2.397  0.7183 -1.0693  0.2085
  692MOL0     H93391  -0.541   5.256   2.401  1.7747  1.1222  0.9582
  692MOL0     H93392  -0.653   5.523   2.282  0.6287  1.0068  0.9962
  692MOL0     H93393  -0.484   5.472   2.286 -1.3668  1.1306  2.4013
  692MOL0     H93394  -0.521   5.291   2.124 -0.7275 -1.0802 -0.0268
  692MOL0     H93395  -0.598   5.435   2.065  0.5982  1.6792  1.6663
  692MOL0     H93396  -0.730   5.243   2.022  1.7878  2.6144 -0.0447
  692MOL0     H93397  -0.725   5.202   2.199 -0.4953  0.5350  0.3950
  692MOL0     H93398  -0.862   5.451   2.090  1.5570 -1.1239 -1.7493
  692MOL0     H93399  -0.859   5.388   2.259  1.6567  2.3937  0.5173
  692MOL0     H93400  -0.977   5.185   2.185  1.5139  1.0852  0.8540
  692MOL0     H93401  -0.972   5.250   2.014  2.2991  0.5526 -0.6715
  692MOL0     H93402  -0.475   5.416   2.994 -1.2574 -1.9327  1.0537
  692MOL0     H93403  -0.225   5.354   3.057  1.1192  1.1679 -0.8712
  692MOL0     H93404   0.247   5.149   2.735  0.8197  3.8056 -0.5640
  692MOL0     H93405   0.476   5.147   2.827  0.1580 -2.6833 -0.5512
  692MOL0     H93406   1.025   4.702   1.647 -1.1390 -0.3017  2.0848
  692MOL0     H93407   1.245   4.757   1.630 -3.1110  0.9828 -0.8555
  692MOL0     H93408   1.705   4.653   1.330  2.6909  0.1260 -1.3773
  692MOL0     H93409   1.934   4.677   1.339  5.7031  1.0313  3.2060
  692MOL0     H93410   2.132   4.777   1.723  0.0380  0.5242  1.1497
  692MOL0     H93411   2.152   4.602   1.734  1.4264 -1.3323 -1.1185
  692MOL0     H93412   2.359   4.613   1.640 -0.0689 -0.5076  3.3197
  692MOL0     H93413   2.353   4.748   1.731  3.1241  0.2777 -1.7408
  692MOL0     H93414   2.433   4.848   1.549  2.5331 -2.9737  0.6400
  692MOL0     H93415   2.264   4.876   1.508  1.0457  0.2336  0.2547
  692MOL0     H93416   2.276   4.656   1.350  0.6011 -1.5368 -0.0193
  692MOL0     H93417   2.441   4.647   1.402 -1.0703 -0.1422  3.2324
  692MOL0     H93418   2.464   4.929   1.106 -0.4452 -2.2112 -1.1017
  692MOL0     H93419   1.930   4.612   1.776  1.9032 -3.3610 -2.2679
  692MOL0     H93420   1.696   4.573   1.764  0.0300  0.8935  0.4682
  693MOL0     O93421  10.405  10.817   0.111  0.2973  0.6389 -0.3365
  693MOL0     C93422  10.354  10.796   0.220  0.2130 -0.5711  0.7879
  693MOL0     O93423  10.345  10.680   0.293 -0.1151  0.2492  0.0049
  693MOL0     C93424  10.406  10.571   0.249 -1.1681  0.3501 -0.9738
  693MOL0     C93425  10.544  10.563   0.200  0.0884 -1.2215 -0.3024
  693MOL0     C93426  10.605  10.441   0.162  1.3510  0.0805 -0.3578
  693MOL0     C93427  10.526  10.319   0.160  0.7246  0.1174  0.8153
  693MOL0     O93428  10.600  10.206   0.130 -0.2783 -0.3901  0.3394
  693MOL0     C93429  10.519  10.087   0.108 -0.7467  0.4680  0.1345
  693MOL0     C93430  10.621   9.973   0.067 -0.1111 -0.9110 -0.0982
  693MOL0     C93431  10.555   9.860  -0.007  0.6610  0.1094 -0.1278
  693MOL0     C93432  10.465   9.765   0.079 -0.1435  0.4911 -0.5745
  693MOL0     C93433  10.499   9.748   0.224  0.1723 -0.4540 -0.4866
  693MOL0     C93434  10.402   9.661   0.306 -0.3346  0.1327  0.2590
  693MOL0     C93435  10.411   9.634   0.455 -0.0745  0.3189  0.2703
  693MOL0     C93436  10.418   9.761   0.541  0.4068  0.5645  0.0266
  693MOL0     N93437  10.392   9.721   0.681  0.3443 -0.6776 -0.8043
  693MOL0     C93438  10.282   9.758   0.764  0.1340 -0.4203  0.7159
  693MOL0     C93439  10.308   9.685   0.883 -0.2249  0.2789 -0.1289
  693MOL0     C93440  10.222   9.686   1.008  0.0603  0.1431 -0.5065
  693MOL0     C93441  10.086   9.608   0.989 -0.5272 -0.2342 -0.5381
  693MOL0     C93442   9.983   9.686   1.070  0.1292  0.8471 -0.5031
  693MOL0     C93443   9.849   9.631   1.056  0.8924  0.1624  0.3773
  693MOL0     O93444   9.758   9.695   1.150  0.7956  0.1628 -0.0490
  693MOL0     C93445   9.627   9.671   1.113  0.5057 -0.1807 -0.2885
  693MOL0     C93446   9.561   9.552   1.142  0.3144 -0.0223  1.0502
  693MOL0     C93447   9.425   9.523   1.109 -0.2750  0.1299 -0.5883
  693MOL0     C93448   9.382   9.384   1.123 -0.1817  0.6141  0.1321
  693MOL0     C93449   9.347   9.625   1.034  0.3428 -0.7590  0.4074
  693MOL0     C93450   9.213   9.610   0.984  0.7512  0.0001 -0.0548
  693MOL0     O93451   9.169   9.674   0.872 -0.8299  0.0988  0.7961
  693MOL0     C93452   9.041   9.639   0.826  0.2035 -0.2296  0.5791
  693MOL0     C93453   8.923   9.720   0.836  0.2635 -0.4002 -0.0716
  693MOL0     C93454   8.800   9.678   0.787  0.9321 -0.8580 -0.4839
  693MOL0     C93455   8.782   9.557   0.718 -0.2016  0.5073 -0.2135
  693MOL0     O93456   8.654   9.534   0.684 -0.5495  0.1740  0.2111
  693MOL0     C93457   8.641   9.413   0.609  0.0581  0.0293 -0.2092
  693MOL0     C93458   8.556   9.311   0.685 -0.1714 -0.1899 -0.2478
  693MOL0     C93459   8.620   9.242   0.814  0.6099 -0.4764  0.7102
  693MOL0     C93460   8.517   9.150   0.896  0.1477  0.1381  0.4663
  693MOL0     C93461   8.555   9.123   1.039  0.8841 -0.3316  0.8763
  693MOL0     C93462   8.464   9.040   1.130  0.3939  0.5935  0.6407
  693MOL0     C93463   8.535   9.024   1.265 -0.8862 -0.3021  0.6390
  693MOL0     C93464   8.427   8.991   1.365  1.0082 -0.0403 -0.4466
  693MOL0    Cl93465   8.360   8.833   1.324 -0.0273  0.0286  0.2104
  693MOL0     C93466   8.888   9.468   0.730 -0.3146  0.1870 -0.1641
  693MOL0     C93467   9.015   9.505   0.776 -0.1836 -0.3037 -0.3487
  693MOL0     O93468   9.134   9.549   1.062 -0.4210  0.3785 -0.2602
  693MOL0     C93469   9.411   9.744   1.010 -0.1432  0.2578  0.3619
  693MOL0     C93470   9.548   9.760   1.051 -0.0331 -0.1005  0.3207
  693MOL0     N93471  10.427   9.618   0.865 -0.0523  0.5567  0.0621
  693MOL0     N93472  10.472   9.646   0.751 -0.2162  0.3234  0.1535
  693MOL0     C93473  10.393  10.328   0.187  0.3791  0.0102  0.3329
  693MOL0     C93474  10.336  10.448   0.231 -0.1747 -0.3465  0.4718
  693MOL0     C93475  10.274  10.901   0.264 -0.1959 -0.0554  0.2715
  693MOL0     C93476  10.214  10.986   0.165 -0.5143 -0.8458 -0.5802
  693MOL0     C93477  10.151  11.104   0.222 -0.7046 -0.2093  0.8994
  693MOL0     C93478  10.136  11.123   0.360  0.1083  0.2738  0.1641
  693MOL0     O93479  10.041  11.223   0.389 -0.0102  0.2360 -0.1088
  693MOL0     C93480  10.040  11.255   0.533 -0.6472  0.2980 -0.0100
  693MOL0     C93481  10.053  11.404   0.532  0.6445 -0.0797 -0.4099
  693MOL0     C93482  10.050  11.482   0.658  0.4567 -0.3784 -0.4825
  693MOL0     C93483   9.923  11.464   0.747 -0.5036  0.2718  0.9149
  693MOL0     C93484   9.949  11.549   0.868  1.2949  0.7203 -0.3761
  693MOL0     C93485   9.950  11.629   0.957  0.0558  0.0073 -0.5736
  693MOL0     C93486  10.193  11.028   0.447  0.0733 -0.6993  0.3787
  693MOL0     C93487  10.258  10.916   0.395  0.2756  0.9457  0.6668
  693MOL0     H93488  10.609  10.650   0.200  0.2875 -1.3690 -0.0055
  693MOL0     H93489  10.713  10.442   0.151  1.3111 -0.1069 -0.8007
  693MOL0     H93490  10.475  10.051   0.201  3.0780 -0.7708  1.6622
  693MOL0     H93491  10.448  10.088   0.025  1.0288 -1.6327 -1.5432
  693MOL0     H93492  10.689  10.018  -0.005 -2.1428 -0.5878 -1.9113
  693MOL0     H93493  10.679   9.941   0.155  0.3229  2.2171  0.8518
  693MOL0     H93494  10.501   9.889  -0.098 -0.3976 -1.7698 -0.1473
  693MOL0     H93495  10.637   9.797  -0.044  2.1628  1.8360  0.1095
  693MOL0     H93496  10.360   9.795   0.072 -0.4754  0.2486  2.2947
  693MOL0     H93497  10.474   9.662   0.042  0.8177  0.2364  0.3176
  693MOL0     H93498  10.597   9.701   0.238  0.1048 -0.8300 -1.2061
  693MOL0     H93499  10.503   9.849   0.266  1.8896 -0.0926 -1.4087
  693MOL0     H93500  10.301   9.701   0.292 -0.1843 -0.0252 -1.4615
  693MOL0     H93501  10.413   9.562   0.261  0.5229  0.1598  0.3931
  693MOL0     H93502  10.320   9.584   0.489 -2.1440  3.1511 -0.7195
  693MOL0     H93503  10.496   9.570   0.482  0.9069  1.1933 -0.6460
  693MOL0     H93504  10.341   9.826   0.499  2.4001  2.1934 -1.3354
  693MOL0     H93505  10.517   9.807   0.529 -0.3215  2.0782 -0.4010
  693MOL0     H93506  10.202   9.820   0.724  1.3782 -0.1932 -1.6097
  693MOL0     H93507  10.272   9.628   1.087  1.2257 -1.0863 -2.0722
  693MOL0     H93508  10.204   9.792   1.028 -0.9320 -0.2549  0.8474
  693MOL0     H93509  10.096   9.502   1.014 -1.6652 -0.6451 -1.6979
  693MOL0     H93510  10.057   9.603   0.883 -0.6808  0.1988 -0.5177
  693MOL0     H93511   9.977   9.793   1.049  1.0944  1.5271  2.2452
  693MOL0     H93512  10.028   9.680   1.170  2.4433  0.5212 -1.5060
  693MOL0     H93513   9.848   9.523   1.073 -4.8753  0.2488  2.7577
  693MOL0     H93514   9.822   9.658   0.953  0.9266  1.9426  0.7994
  693MOL0     H93515   9.629   9.493   1.202  0.6036 -0.6095  0.1630
  693MOL0     H93516   9.319   9.375   1.212  1.8041  1.3190  1.6807
  693MOL0     H93517   9.323   9.353   1.036  0.3404 -2.7773  0.8645
  693MOL0     H93518   9.469   9.319   1.136 -0.1505  0.8007  0.8734
  693MOL0     H93519   8.946   9.821   0.869 -0.5337 -0.2646  0.1054
  693MOL0     H93520   8.712   9.741   0.796  1.4727 -0.3081  1.4372
  693MOL0     H93521   8.572   9.423   0.524  0.1767 -0.8674 -0.4262
  693MOL0     H93522   8.732   9.375   0.562  1.7142  0.0122  2.8104
  693MOL0     H93523   8.463   9.362   0.713  0.8100  1.0302  0.9042
  693MOL0     H93524   8.531   9.233   0.612 -1.3476  0.6965 -0.8386
  693MOL0     H93525   8.645   9.319   0.887 -0.5981  2.0974 -1.4036
  693MOL0     H93526   8.699   9.177   0.775 -0.4008 -2.1824  1.3921
  693MOL0     H93527   8.421   9.203   0.895 -0.8746 -1.6379  0.2383
  693MOL0     H93528   8.496   9.060   0.838 -1.8562  0.5838  0.4118
  693MOL0     H93529   8.555   9.215   1.099 -0.4889  0.6992 -0.6222
  693MOL0     H93530   8.648   9.066   1.028  0.7734 -0.4095  0.3383
  693MOL0     H93531   8.362   9.080   1.130  0.4557  1.3252 -3.8653
  693MOL0     H93532   8.444   8.941   1.086  2.0250  0.8809 -0.8820
  693MOL0     H93533   8.570   9.119   1.307 -0.2138 -0.3874  0.2762
  693MOL0     H93534   8.620   8.956   1.261  1.2816  2.3238 -0.1323
  693MOL0     H93535   8.350   9.068   1.376 -0.5461 -1.4386 -1.1266
  693MOL0     H93536   8.477   8.976   1.461  0.9397  0.1736 -0.3772
  693MOL0     H93537   8.894   9.369   0.685 -2.9259  1.1987 -3.1519
  693MOL0     H93538   9.091   9.430   0.752  1.2440  1.5014 -1.7428
  693MOL0     H93539   9.354   9.821   0.960  0.3167 -1.4951 -3.1182
  693MOL0     H93540   9.602   9.850   1.023  0.3513 -1.0795 -2.4756
  693MOL0     H93541  10.328  10.242   0.172 -2.1111  2.1950 -3.1702
  693MOL0     H93542  10.233  10.452   0.263 -1.2398  0.0838 -2.6860
  693MOL0     H93543  10.239  10.975   0.060  1.9242 -0.2570 -0.1162
  693MOL0     H93544  10.112  11.178   0.153  0.1494 -0.6105 -0.0534
  693MOL0     H93545   9.952  11.210   0.579  0.2887 -2.7484 -0.9611
  693MOL0     H93546  10.120  11.216   0.595 -1.7724  0.6928  1.7727
  693MOL0     H93547   9.968  11.444   0.476  1.7123  1.5589 -0.9418
  693MOL0     H93548  10.149  11.423   0.481  2.2157  1.1028  2.7133
  693MOL0     H93549  10.061  11.591   0.645 -2.5160  0.3300  1.8902
  693MOL0     H93550  10.131  11.460   0.728 -1.6582 -0.4795  2.0781
  693MOL0     H93551   9.908  11.357   0.762 -2.7373  0.6668  1.8745
  693MOL0     H93552   9.842  11.507   0.687  1.1594  1.5697 -0.5071
  693MOL0     H93553   9.938  11.717   1.017 -0.5718 -0.0758 -0.5722
  693MOL0     H93554  10.175  11.039   0.554 -2.1881 -2.3206  0.2209
  693MOL0     H93555  10.310  10.854   0.467  1.5055 -1.0076 -1.7310
  694MOL0     O93556   9.679   8.515  10.827 -0.5085 -0.0138  0.3471
  694MOL0     C93557   9.752   8.609  10.865 -0.0074 -0.3302 -0.0784
  694MOL0     O93558   9.709   8.722  10.940  0.0787  0.5872  0.1187
  694MOL0     C93559   9.580   8.733  10.981  0.4420  0.1507  0.0055
  694MOL0     C93560   9.485   8.632  11.001  0.7152  0.2847  1.7559
  694MOL0     C93561   9.353   8.662  11.031 -0.4491 -0.0346  0.3008
  694MOL0     C93562   9.306   8.789  11.031  0.3319 -0.3220  0.2021
  694MOL0     O93563   9.178   8.804  11.084  0.0857 -0.7223  0.2926
  694MOL0     C93564   9.134   8.943  11.111 -1.7769  0.4014  0.3579
  694MOL0     C93565   9.002   8.938  11.188  0.1463 -0.2893 -0.5384
  694MOL0     C93566   8.886   8.881  11.110  0.0288 -0.1448 -1.4573
  694MOL0     C93567   8.760   8.884  11.202 -1.4060  0.1440  0.5118
  694MOL0     C93568   8.653   8.796  11.130  0.5456  0.6795  0.2108
  694MOL0     C93569   8.537   8.764  11.223 -0.4649 -0.6872 -0.5263
  694MOL0     C93570   8.458   8.887  11.275  0.1241  0.2052  0.1842
  694MOL0     C93571   8.347   8.835  11.379 -0.2469 -0.3135  0.5293
  694MOL0     N93572   8.249   8.748  11.311 -0.0518 -0.4009  0.1952
  694MOL0     C93573   8.249   8.615  11.321  0.1976 -0.1398  0.4023
  694MOL0     C93574   8.141   8.586  11.241  0.3183  0.7491  0.1137
  694MOL0     C93575   8.092   8.446  11.202 -0.2722 -0.6100  0.4756
  694MOL0     C93576   8.117   8.408  11.052 -0.2066  0.2220  0.0913
  694MOL0     C93577   8.070   8.266  11.028 -0.3768  0.0923  0.0069
  694MOL0     C93578   7.922   8.265  10.995 -0.4123 -0.1630  0.1912
  694MOL0     O93579   7.876   8.309  10.864  0.3379 -0.2322 -0.0001
  694MOL0     C93580   7.739   8.300  10.845 -0.2571  0.4135 -0.3792
  694MOL0     C93581   7.668   8.184  10.857 -0.0495  0.3732  0.3707
  694MOL0     C93582   7.535   8.181  10.826  0.2655 -0.0212  0.8151
  694MOL0     C93583   7.459   8.046  10.840  0.2732 -0.1964  0.1842
  694MOL0     C93584   7.468   8.304  10.802 -0.6432 -0.2862 -0.2701
  694MOL0     C93585   7.319   8.314  10.793 -0.7202  0.0772  0.5069
  694MOL0     O93586   7.247   8.228  10.861 -0.2116  1.2259  0.0985
  694MOL0     C93587   7.112   8.254  10.887  0.4534 -0.1168  0.0839
  694MOL0     C93588   7.007   8.159  10.845 -0.9554  0.3215 -0.0015
  694MOL0     C93589   6.876   8.195  10.870 -0.0104 -0.5843  0.5375
  694MOL0     C93590   6.838   8.316  10.943  0.7426  0.4487  0.3810
  694MOL0     O93591   6.703   8.329  10.967  0.3888  0.1894 -0.4588
  694MOL0     C93592   6.657   8.443  11.051 -0.3060 -0.6513  0.2921
  694MOL0     C93593   6.505   8.447  11.058 -0.5800 -0.7077 -0.1073
  694MOL0     C93594   6.428   8.343  11.146  0.2858 -0.0289  0.2799
  694MOL0     C93595   6.443   8.368  11.301  0.6897  0.6373  0.4232
  694MOL0     C93596   6.341   8.291  11.384  0.0354  0.1378 -0.1539
  694MOL0     C93597   6.405   8.187  11.464 -0.6780  0.3141 -1.4837
  694MOL0     C93598   6.292   8.107  11.540  0.8194  0.7486  0.8106
  694MOL0     C93599   6.315   8.119  11.687 -0.2693 -0.5088 -0.0068
  694MOL0    Cl93600   6.195   8.021  11.769 -0.0335 -0.7680 -0.0333
  694MOL0     C93601   6.931   8.411  10.979  0.4605 -0.2247  0.6119
  694MOL0     C93602   7.068   8.379  10.946 -0.1092 -0.8300  0.4401
  694MOL0     O93603   7.275   8.411  10.729 -0.0275 -0.0161 -0.9294
  694MOL0     C93604   7.545   8.425  10.790  0.6451 -0.5315 -0.0745
  694MOL0     C93605   7.682   8.429  10.818  0.1272 -0.3087  0.1321
  694MOL0     N93606   8.080   8.702  11.192  0.2428  0.1454  0.5032
  694MOL0     N93607   8.144   8.801  11.244 -0.3391  0.0820 -0.1248
  694MOL0     C93608   9.397   8.895  11.009  1.0300 -0.5329 -0.6461
  694MOL0     C93609   9.528   8.865  10.981  0.0015  0.4907  0.2718
  694MOL0     C93610   9.896   8.623  10.831  0.6565  0.7681  0.0744
  694MOL0     C93611   9.977   8.721  10.890  0.2614  0.0232  0.4710
  694MOL0     C93612  10.116   8.718  10.870  0.1929  0.7991  0.1791
  694MOL0     C93613  10.171   8.623  10.786  0.3711  0.0589  0.3255
  694MOL0     O93614  10.309   8.614  10.768 -0.5626 -1.0290 -0.9742
  694MOL0     C93615  10.378   8.656  10.649  0.2262 -0.1461 -0.9223
  694MOL0     C93616  10.527   8.649  10.675 -0.3315 -0.3202 -0.0352
  694MOL0     C93617  10.608   8.689  10.550  0.3193  0.1493  0.2853
  694MOL0     C93618  10.752   8.707  10.591 -0.3261 -0.2805 -0.7698
  694MOL0     C93619  10.841   8.742  10.476  0.3533 -0.3254 -0.3492
  694MOL0     C93620  10.904   8.743  10.371  0.3287  0.0598  0.0039
  694MOL0     C93621  10.078   8.530  10.725 -0.5989 -0.2957  0.1782
  694MOL0     C93622   9.947   8.526  10.754 -0.2796  0.0766  1.0016
  694MOL0     H93623   9.524   8.531  11.003  2.6743  0.9955  3.2055
  694MOL0     H93624   9.289   8.579  11.059  3.2442 -2.8140  1.2909
  694MOL0     H93625   9.211   8.983  11.178 -0.0039  0.8461 -1.8143
  694MOL0     H93626   9.131   9.003  11.020  0.6756 -3.2737 -2.4803
  694MOL0     H93627   9.016   8.874  11.275 -0.7752 -1.3231 -1.1273
  694MOL0     H93628   8.971   9.039  11.218 -1.2926 -0.3562 -1.6663
  694MOL0     H93629   8.862   8.950  11.028 -0.7145  0.7880 -0.4870
  694MOL0     H93630   8.912   8.780  11.079  0.8726 -1.0222  1.7316
  694MOL0     H93631   8.795   8.857  11.302  5.1583  0.2870 -1.2977
  694MOL0     H93632   8.735   8.990  11.211  1.4829  0.8800  1.0064
  694MOL0     H93633   8.610   8.852  11.046 -1.9836 -0.6586  0.5036
  694MOL0     H93634   8.694   8.699  11.101  2.5556  1.3755  0.6329
  694MOL0     H93635   8.469   8.694  11.174 -3.1582  1.7404 -0.4937
  694MOL0     H93636   8.572   8.718  11.317 -0.8231  0.3069  0.1058
  694MOL0     H93637   8.527   8.956  11.324  1.9094 -0.9014 -0.6477
  694MOL0     H93638   8.404   8.939  11.195 -0.7818 -1.2986 -0.2176
  694MOL0     H93639   8.298   8.927  11.414  2.3561  1.5650 -0.4357
  694MOL0     H93640   8.383   8.784  11.469  0.2002  1.8146  1.6350
  694MOL0     H93641   8.333   8.549  11.342 -0.5116 -1.1766  0.0410
  694MOL0     H93642   8.132   8.368  11.267  1.3936 -0.6578 -0.5520
  694MOL0     H93643   7.982   8.449  11.207 -0.5706 -0.1278 -3.1144
  694MOL0     H93644   8.219   8.432  11.024 -1.9100  4.8494 -3.3425
  694MOL0     H93645   8.060   8.466  10.979 -1.4438  0.0617  0.8953
  694MOL0     H93646   8.105   8.194  11.103  0.4299 -1.8777 -2.1474
  694MOL0     H93647   8.128   8.228  10.943 -0.3467 -2.4589  1.0855
  694MOL0     H93648   7.854   8.310  11.068 -0.6586 -1.6588  0.9206
  694MOL0     H93649   7.893   8.160  11.003  2.3955 -0.9214  1.4132
  694MOL0     H93650   7.731   8.098  10.876  0.1454  0.5799  0.6677
  694MOL0     H93651   7.525   7.960  10.854  2.3724  1.6555  2.7232
  694MOL0     H93652   7.401   8.043  10.933 -0.2583 -0.3754 -0.1513
  694MOL0     H93653   7.410   8.024  10.745  3.7778  2.8491 -2.5950
  694MOL0     H93654   7.045   8.066  10.804 -1.7156  0.8860 -2.0911
  694MOL0     H93655   6.792   8.133  10.841  0.8088 -0.2800 -2.8246
  694MOL0     H93656   6.704   8.437  11.150 -1.9073  0.4912  1.1750
  694MOL0     H93657   6.684   8.543  11.014 -1.4866  0.3978  2.0956
  694MOL0     H93658   6.474   8.546  11.095 -2.9647 -0.9092 -1.3483
  694MOL0     H93659   6.470   8.448  10.955 -4.1391  1.2491  0.9271
  694MOL0     H93660   6.472   8.246  11.123 -0.5887 -0.5370  0.6767
  694MOL0     H93661   6.322   8.360  11.122  1.0028  3.7524 -0.8232
  694MOL0     H93662   6.546   8.344  11.331  0.2732 -2.6432 -0.4017
  694MOL0     H93663   6.420   8.474  11.315  2.0918  1.1058 -0.5433
  694MOL0     H93664   6.259   8.253  11.324 -0.5838  0.4104  0.5088
  694MOL0     H93665   6.287   8.359  11.451 -0.9325 -1.0365  0.2788
  694MOL0     H93666   6.471   8.124  11.404 -0.8287 -0.8608 -0.4356
  694MOL0     H93667   6.470   8.227  11.542 -0.1239 -0.8790 -1.3222
  694MOL0     H93668   6.296   8.002  11.507  0.4332  1.2825 -1.0972
  694MOL0     H93669   6.191   8.142  11.520  1.3451  0.6514 -2.8597
  694MOL0     H93670   6.302   8.219  11.729 -0.5366  0.9338 -3.2032
  694MOL0     H93671   6.415   8.086  11.713  0.1382  1.6282  1.4101
  694MOL0     H93672   6.915   8.505  11.031  0.9283 -0.1428  0.6202
  694MOL0     H93673   7.137   8.460  10.963  0.1047 -0.8001 -0.5711
  694MOL0     H93674   7.487   8.517  10.781  1.5769  0.0966  0.1892
  694MOL0     H93675   7.741   8.520  10.815  1.4874 -1.1386  0.9818
  694MOL0     H93676   9.360   8.995  10.988  1.6777 -0.0640  0.3725
  694MOL0     H93677   9.594   8.946  10.954  2.9149 -0.9395  2.5687
  694MOL0     H93678   9.937   8.794  10.960  2.9203  1.1792  0.9082
  694MOL0     H93679  10.184   8.793  10.910 -0.5285  1.2265  0.6244
  694MOL0     H93680  10.357   8.587  10.566  3.4082 -2.0555 -0.3133
  694MOL0     H93681  10.349   8.758  10.623  0.6855 -0.0275 -0.9742
  694MOL0     H93682  10.554   8.546  10.699 -0.9564 -0.4639  0.0668
  694MOL0     H93683  10.560   8.714  10.757 -2.8965 -0.5394  1.2689
  694MOL0     H93684  10.578   8.785  10.509 -1.0063 -0.9499 -1.4331
  694MOL0     H93685  10.590   8.615  10.472 -1.5957 -0.9448  1.6699
  694MOL0     H93686  10.788   8.626  10.655 -1.7849  0.1811  0.7125
  694MOL0     H93687  10.761   8.793  10.658 -2.2523  1.6105 -2.7907
  694MOL0     H93688  10.966   8.756  10.284 -0.4883 -2.3472 -1.0071
  694MOL0     H93689  10.121   8.452  10.662 -1.0098 -0.8612  0.5828
  694MOL0     H93690   9.886   8.439  10.729 -0.8554  0.3929  1.2699
  695MOL0     O93691   6.219   4.323   2.248  0.7119 -0.2722  0.0127
  695MOL0     C93692   6.211   4.397   2.153  0.0798 -0.7348  0.0291
  695MOL0     O93693   6.108   4.407   2.060 -1.0792 -0.0733 -0.5468
  695MOL0     C93694   5.986   4.342   2.086 -0.7980  0.3997  0.2311
  695MOL0     C93695   5.949   4.238   1.995 -0.3678  0.3124 -0.4508
  695MOL0     C93696   5.825   4.175   2.005  0.6460  0.4857 -0.1855
  695MOL0     C93697   5.746   4.195   2.113  0.4765 -0.3493  0.9388
  695MOL0     O93698   5.625   4.134   2.129 -0.4812 -0.6799  0.0492
  695MOL0     C93699   5.596   4.003   2.076 -0.2249 -0.5042 -0.6188
  695MOL0     C93700   5.440   3.984   2.096 -0.5750 -0.4233 -0.0944
  695MOL0     C93701   5.381   3.861   2.034 -0.6530  0.3925 -0.2917
  695MOL0     C93702   5.269   3.805   2.112  0.2974 -0.9430  0.5613
  695MOL0     C93703   5.132   3.835   2.044 -0.4853  0.0815 -0.1005
  695MOL0     C93704   5.031   3.737   2.108  0.3698 -0.3631 -0.4609
  695MOL0     C93705   4.890   3.789   2.082  0.9194 -0.9439 -0.4470
  695MOL0     C93706   4.850   3.760   1.942 -0.7523 -0.2050  0.2822
  695MOL0     N93707   4.718   3.815   1.908  0.1721 -0.3310 -0.0263
  695MOL0     C93708   4.695   3.900   1.800  0.1005 -0.2358 -0.2003
  695MOL0     C93709   4.562   3.912   1.799  0.0311 -0.1775 -0.4115
  695MOL0     C93710   4.479   3.953   1.682  0.4061 -0.4986 -1.3491
  695MOL0     C93711   4.389   4.077   1.719 -0.0127  0.2537  0.1685
  695MOL0     C93712   4.338   4.151   1.598  0.3467 -0.3291 -0.3616
  695MOL0     C93713   4.218   4.248   1.628  0.1144 -0.0515 -0.0537
  695MOL0     O93714   4.163   4.325   1.518  0.1798 -0.3711 -0.2383
  695MOL0     C93715   4.030   4.374   1.525 -0.1818  0.4488 -0.8108
  695MOL0     C93716   3.939   4.354   1.632 -0.0933  0.2402  0.3639
  695MOL0     C93717   3.808   4.402   1.631  0.2619  0.1341  0.0975
  695MOL0     C93718   3.718   4.374   1.756 -0.4317 -0.2596  0.6846
  695MOL0     C93719   3.757   4.468   1.515  0.5649  0.3038  0.5331
  695MOL0     C93720   3.609   4.524   1.493 -0.0583  1.0887 -0.2775
  695MOL0     O93721   3.519   4.502   1.592  1.1708 -0.0141  0.0575
  695MOL0     C93722   3.390   4.502   1.544 -0.5042  0.7163  0.2046
  695MOL0     C93723   3.317   4.386   1.532  0.7843  0.0814  0.8188
  695MOL0     C93724   3.186   4.388   1.489  0.3052 -0.5672  0.2597
  695MOL0     C93725   3.118   4.510   1.454 -0.5178 -0.8216  0.7697
  695MOL0     O93726   2.990   4.528   1.403 -0.4558 -0.3629  0.7053
  695MOL0     C93727   2.946   4.441   1.290  0.0796  0.3022 -0.9461
  695MOL0     C93728   2.891   4.522   1.173  0.2045 -0.3689 -0.7776
  695MOL0     C93729   2.769   4.452   1.101  0.0861 -1.0899 -0.8097
  695MOL0     C93730   2.651   4.469   1.198  0.9364  0.4170 -0.3707
  695MOL0     C93731   2.530   4.481   1.111  0.2065 -0.0552 -0.6744
  695MOL0     C93732   2.507   4.365   1.007  0.0788 -0.8147 -0.8552
  695MOL0     C93733   2.464   4.233   1.073  0.4277 -0.1251 -0.1712
  695MOL0     C93734   2.448   4.125   0.960  0.0265  0.5343 -0.2620
  695MOL0    Cl93735   2.296   4.135   0.857 -0.0310 -0.3586 -0.3415
  695MOL0     C93736   3.192   4.636   1.453 -0.2316  0.8414  0.1973
  695MOL0     C93737   3.326   4.627   1.497 -0.3340  0.5549  0.2144
  695MOL0     O93738   3.580   4.577   1.382  0.3901 -0.1804 -0.2128
  695MOL0     C93739   3.851   4.489   1.409  0.0501 -0.9569 -0.5442
  695MOL0     C93740   3.984   4.443   1.411  0.4267 -1.1077 -0.0994
  695MOL0     N93741   4.508   3.837   1.905 -0.5153  0.3315 -0.9802
  695MOL0     N93742   4.601   3.777   1.966 -0.5084  0.5910 -0.5042
  695MOL0     C93743   5.788   4.294   2.200 -0.5557  0.9729 -0.0750
  695MOL0     C93744   5.904   4.370   2.194 -0.1586  0.1482  0.2999
  695MOL0     C93745   6.322   4.498   2.149  0.1641  0.5968 -1.0464
  695MOL0     C93746   6.334   4.598   2.046 -0.0385 -0.2896  0.2380
  695MOL0     C93747   6.433   4.695   2.051  0.5844 -1.1597  0.0779
  695MOL0     C93748   6.529   4.691   2.158  0.7541  0.1181  0.0866
  695MOL0     O93749   6.635   4.782   2.180  0.6802 -0.2245 -0.0171
  695MOL0     C93750   6.592   4.909   2.233  0.5061 -0.4022  0.2527
  695MOL0     C93751   6.609   5.010   2.117 -0.5583  0.4293  0.1705
  695MOL0     C93752   6.763   5.038   2.099  0.8715  0.1908 -0.1308
  695MOL0     C93753   6.801   5.119   1.978  0.1331  0.5283 -0.5115
  695MOL0     C93754   6.738   5.252   1.994 -0.3464  0.2029  0.7979
  695MOL0     C93755   6.692   5.364   2.007  0.5681  0.3023  0.0308
  695MOL0     C93756   6.531   4.593   2.254 -0.4966  0.1180  0.3785
  695MOL0     C93757   6.425   4.498   2.260 -0.2383 -0.1585  0.3884
  695MOL0     H93758   6.017   4.229   1.911  3.5529  1.6607  2.2953
  695MOL0     H93759   5.791   4.114   1.922  1.3136 -0.1082 -0.0312
  695MOL0     H93760   5.622   4.013   1.970 -2.7365  2.3865 -1.1169
  695MOL0     H93761   5.657   3.927   2.125 -2.2168 -2.2678 -0.7372
  695MOL0     H93762   5.424   3.975   2.204 -0.0768 -1.2668 -0.0822
  695MOL0     H93763   5.390   4.072   2.054  1.0171  0.3838 -0.3615
  695MOL0     H93764   5.349   3.876   1.930 -1.3315 -0.3898 -0.2038
  695MOL0     H93765   5.466   3.793   2.040 -1.4641 -0.5145  1.9022
  695MOL0     H93766   5.282   3.696   2.112  0.1019 -0.9776 -0.6265
  695MOL0     H93767   5.263   3.833   2.218 -0.1132  1.7248 -0.1014
  695MOL0     H93768   5.102   3.940   2.055  1.3530  0.5594  0.5411
  695MOL0     H93769   5.141   3.808   1.939 -0.9048  0.2090 -0.1743
  695MOL0     H93770   5.049   3.632   2.087 -3.6410 -1.6628  1.6206
  695MOL0     H93771   5.040   3.745   2.217 -2.3471 -0.2785 -0.1677
  695MOL0     H93772   4.814   3.740   2.144  1.0113 -1.6338 -0.8609
  695MOL0     H93773   4.886   3.898   2.092  1.0921 -0.9591 -0.1914
  695MOL0     H93774   4.842   3.651   1.941  0.3656 -0.3219  1.6738
  695MOL0     H93775   4.931   3.796   1.878 -2.4349  4.2505  0.3130
  695MOL0     H93776   4.773   3.929   1.731 -0.5125  0.0082 -0.7989
  695MOL0     H93777   4.542   3.974   1.595  0.8058  1.2527 -0.6801
  695MOL0     H93778   4.409   3.873   1.657 -0.2125  0.4171 -2.6171
  695MOL0     H93779   4.455   4.135   1.784  1.2880 -2.1661  1.1344
  695MOL0     H93780   4.301   4.041   1.775 -0.5616 -3.0651 -2.4837
  695MOL0     H93781   4.307   4.083   1.519 -2.0052  1.2082 -0.8686
  695MOL0     H93782   4.421   4.215   1.566  0.7998 -0.9042 -0.3570
  695MOL0     H93783   4.241   4.313   1.713 -0.4845  2.4943 -1.7224
  695MOL0     H93784   4.138   4.186   1.669  0.5705 -0.9360 -0.4719
  695MOL0     H93785   3.975   4.296   1.716  1.3115 -1.1617 -1.1097
  695MOL0     H93786   3.773   4.345   1.845  1.6294 -0.4695 -0.5912
  695MOL0     H93787   3.672   4.471   1.776  0.6037  0.2542  0.5926
  695MOL0     H93788   3.645   4.295   1.737  1.5197 -2.1070  0.5030
  695MOL0     H93789   3.365   4.291   1.553 -0.1471 -0.5015  0.3781
  695MOL0     H93790   3.133   4.294   1.498  0.6851 -1.0665 -2.0782
  695MOL0     H93791   3.030   4.384   1.250  0.1232  0.0646 -0.5287
  695MOL0     H93792   2.868   4.372   1.321  0.1209  0.9968  0.8268
  695MOL0     H93793   2.857   4.621   1.205  1.4725 -0.6305  1.5885
  695MOL0     H93794   2.968   4.544   1.099 -0.2631  1.3748 -0.7852
  695MOL0     H93795   2.787   4.346   1.079  1.9716 -1.4518  1.9600
  695MOL0     H93796   2.742   4.492   1.003 -1.6182 -1.8066 -0.6763
  695MOL0     H93797   2.629   4.380   1.257 -1.0743  0.0862 -1.5204
  695MOL0     H93798   2.657   4.558   1.262  0.9586  1.6261 -1.9833
  695MOL0     H93799   2.536   4.576   1.057  0.2483 -0.9831 -2.3667
  695MOL0     H93800   2.444   4.488   1.179 -0.4222 -2.7911 -1.0757
  695MOL0     H93801   2.429   4.404   0.941 -0.7001 -0.4485  0.2557
  695MOL0     H93802   2.589   4.350   0.935 -1.9076 -0.4543 -3.3409
  695MOL0     H93803   2.369   4.234   1.127 -0.1654  1.2666 -1.1684
  695MOL0     H93804   2.550   4.211   1.137  3.4023  1.2068 -3.3462
  695MOL0     H93805   2.460   4.026   1.003 -0.2129 -0.6764 -2.8214
  695MOL0     H93806   2.533   4.127   0.892 -0.5834 -4.4033 -1.5155
  695MOL0     H93807   3.152   4.730   1.417  2.2163  2.4441  1.4101
  695MOL0     H93808   3.385   4.718   1.512  0.5165  0.3011 -1.3533
  695MOL0     H93809   3.816   4.543   1.322  0.6957  1.9668  0.8839
  695MOL0     H93810   4.049   4.456   1.325 -2.4349 -1.3199 -2.4635
  695MOL0     H93811   5.719   4.321   2.279  1.2250  2.4325  1.0804
  695MOL0     H93812   5.918   4.455   2.260 -2.9121  1.3762 -0.5653
  695MOL0     H93813   6.259   4.576   1.971  1.2729  0.3824 -1.3203
  695MOL0     H93814   6.436   4.769   1.972 -0.8764  1.3528  2.2006
  695MOL0     H93815   6.486   4.904   2.259  0.4538  0.4999  0.2392
  695MOL0     H93816   6.660   4.933   2.316  2.1117 -0.2147 -1.0755
  695MOL0     H93817   6.541   5.094   2.130 -0.5451  0.0653  3.4186
  695MOL0     H93818   6.576   4.954   2.029  0.6274 -1.0124  0.6051
  695MOL0     H93819   6.808   4.939   2.090 -1.8915 -1.2192  0.6493
  695MOL0     H93820   6.789   5.080   2.197 -1.5154  0.6918  0.3469
  695MOL0     H93821   6.752   5.082   1.888 -3.3197  3.1132  0.0844
  695MOL0     H93822   6.910   5.120   1.968  0.2862 -0.4665  0.7927
  695MOL0     H93823   6.640   5.457   2.021  0.8369  0.0521  3.6690
  695MOL0     H93824   6.614   4.587   2.324  1.6577  1.6744 -1.8550
  695MOL0     H93825   6.431   4.424   2.338  0.6607 -0.0313  0.4591
  696MOL0     O93826  10.563   1.317   4.272 -0.5860  0.0516 -0.6536
  696MOL0     C93827  10.637   1.376   4.191 -0.4994  1.2033  0.6811
  696MOL0     O93828  10.607   1.483   4.105 -0.4128  0.9745  0.1789
  696MOL0     C93829  10.479   1.526   4.080 -0.4666 -0.4359 -0.5847
  696MOL0     C93830  10.465   1.587   3.961  0.4184  0.3833 -0.3091
  696MOL0     C93831  10.335   1.632   3.930 -0.0775  0.0708 -0.3161
  696MOL0     C93832  10.224   1.609   4.015  0.6614 -0.0067  0.0880
  696MOL0     O93833  10.087   1.647   3.998 -0.8351 -0.4252 -0.6529
  696MOL0     C93834  10.036   1.681   3.867 -0.1562 -0.4092 -0.1658
  696MOL0     C93835   9.999   1.552   3.784  0.7801  0.1720 -0.4633
  696MOL0     C93836   9.927   1.580   3.647 -0.5022  0.5868 -0.0153
  696MOL0     C93837   9.801   1.655   3.648 -0.1685 -0.5010  0.0326
  696MOL0     C93838   9.679   1.558   3.665 -0.3602 -0.5979 -0.1488
  696MOL0     C93839   9.543   1.609   3.651  1.2992  0.7500  0.0281
  696MOL0     C93840   9.432   1.500   3.664  0.1479  0.0332  0.2445
  696MOL0     C93841   9.300   1.575   3.617 -0.7897 -0.3558  0.2882
  696MOL0     N93842   9.185   1.507   3.654  0.0659  0.8008 -1.1186
  696MOL0     C93843   9.149   1.494   3.784  0.6097  0.7183  0.1032
  696MOL0     C93844   9.024   1.440   3.776  0.7194  0.0426  1.3131
  696MOL0     C93845   8.924   1.426   3.890 -1.0812 -0.5382 -0.4154
  696MOL0     C93846   8.785   1.407   3.831  0.8201  0.0643 -0.3859
  696MOL0     C93847   8.674   1.397   3.938  0.5502 -0.1864 -0.4420
  696MOL0     C93848   8.532   1.384   3.872 -0.6348  0.0211 -0.3664
  696MOL0     O93849   8.520   1.280   3.780  0.3186  0.5513  0.1279
  696MOL0     C93850   8.390   1.271   3.723 -0.7472 -0.8405 -0.1555
  696MOL0     C93851   8.354   1.359   3.623  0.0815  0.9142  0.0716
  696MOL0     C93852   8.230   1.348   3.554  0.1333  0.6437 -0.9350
  696MOL0     C93853   8.211   1.440   3.441 -0.4350 -0.1342 -0.2810
  696MOL0     C93854   8.137   1.251   3.597  0.4244  0.8317 -0.2631
  696MOL0     C93855   7.987   1.251   3.567  0.7601 -0.2471 -0.7639
  696MOL0     O93856   7.914   1.135   3.611  0.3368  0.3636 -0.0558
  696MOL0     C93857   7.780   1.142   3.639  0.6776  0.5192  0.1295
  696MOL0     C93858   7.729   1.053   3.740 -0.2644 -0.2085 -0.5994
  696MOL0     C93859   7.596   1.044   3.767  0.1088 -0.1983 -0.8677
  696MOL0     C93860   7.499   1.127   3.696 -0.1810 -0.0338 -0.2811
  696MOL0     O93861   7.357   1.119   3.718 -0.4815 -0.0776  0.4311
  696MOL0     C93862   7.310   1.012   3.804 -0.0892  0.0466 -0.4923
  696MOL0     C93863   7.163   0.994   3.764 -0.4448  0.3783  0.6857
  696MOL0     C93864   7.096   0.881   3.839 -0.4773  0.0239  0.0599
  696MOL0     C93865   6.949   0.896   3.816  0.3357 -0.0865 -0.5774
  696MOL0     C93866   6.886   0.788   3.897 -0.5444 -0.7519 -0.2546
  696MOL0     C93867   6.733   0.777   3.870 -0.2024  0.8892  0.0297
  696MOL0     C93868   6.655   0.908   3.916 -0.1121  0.1189 -0.0779
  696MOL0     C93869   6.502   0.890   3.872 -0.2559 -0.5523 -0.4805
  696MOL0    Cl93870   6.403   0.777   3.971 -0.2937 -0.2524  0.4004
  696MOL0     C93871   7.545   1.218   3.606  0.6267  0.2377 -0.9185
  696MOL0     C93872   7.683   1.222   3.571 -0.3035  0.4980 -0.1340
  696MOL0     O93873   7.931   1.352   3.514 -0.8485  0.3860 -0.4810
  696MOL0     C93874   8.182   1.157   3.693 -1.4352  0.1125  1.2364
  696MOL0     C93875   8.309   1.163   3.749 -0.1655 -0.2768 -0.6598
  696MOL0     N93876   8.999   1.410   3.641  0.3101 -0.4666  0.3108
  696MOL0     N93877   9.099   1.451   3.567 -0.1284  0.9750  0.2887
  696MOL0     C93878  10.238   1.531   4.127 -0.4040  0.1367 -0.4525
  696MOL0     C93879  10.368   1.492   4.155 -0.2528 -0.3391 -0.6486
  696MOL0     C93880  10.776   1.320   4.166  1.6343 -0.1103  0.0425
  696MOL0     C93881  10.812   1.203   4.227 -0.6905  0.3015 -0.7522
  696MOL0     C93882  10.935   1.145   4.202 -1.2254  0.0405  1.5504
  696MOL0     C93883  11.015   1.184   4.091 -0.0395  0.2416 -0.5245
  696MOL0     O93884  11.124   1.120   4.050  0.1334  0.4697  0.2299
  696MOL0     C93885  11.158   1.084   3.915 -0.2904 -0.4820  0.7589
  696MOL0     C93886  11.297   1.130   3.884 -0.4648  0.6603  0.3816
  696MOL0     C93887  11.326   1.138   3.732 -0.3719  0.0038  1.1628
  696MOL0     C93888  11.466   1.160   3.686  0.0809 -0.4639  0.5413
  696MOL0     C93889  11.470   1.176   3.539 -0.4965 -0.4268 -1.0679
  696MOL0     C93890  11.482   1.195   3.426  0.5165  0.2611 -0.3076
  696MOL0     C93891  10.973   1.307   4.021 -0.1991 -0.7036 -0.5808
  696MOL0     C93892  10.858   1.364   4.066  0.3332 -0.5497 -0.3576
  696MOL0     H93893  10.555   1.597   3.900  0.9926  1.4750  0.6764
  696MOL0     H93894  10.312   1.682   3.837 -0.9757  2.3601  1.0464
  696MOL0     H93895   9.944   1.737   3.886 -0.6813 -0.4655 -2.3399
  696MOL0     H93896  10.102   1.747   3.810  1.5461 -0.3481  1.7856
  696MOL0     H93897  10.086   1.487   3.763 -1.2062 -2.7910 -0.1577
  696MOL0     H93898   9.937   1.483   3.842 -1.5499  1.9439 -0.6906
  696MOL0     H93899  10.002   1.643   3.599 -2.0406  1.7717 -0.9822
  696MOL0     H93900   9.905   1.487   3.594  4.5209 -1.3413  0.7877
  696MOL0     H93901   9.809   1.738   3.719  1.1730 -0.8913  0.3622
  696MOL0     H93902   9.791   1.698   3.548  0.0434 -1.1369 -0.2663
  696MOL0     H93903   9.675   1.482   3.587  0.1581  1.2360 -2.0478
  696MOL0     H93904   9.692   1.518   3.766  1.7232  0.4163  0.0310
  696MOL0     H93905   9.519   1.678   3.733  1.1449 -0.6133  1.1717
  696MOL0     H93906   9.536   1.653   3.551  1.9830 -1.2883 -0.9695
  696MOL0     H93907   9.444   1.407   3.607  0.5666  0.1429  0.1517
  696MOL0     H93908   9.433   1.453   3.763  2.0111 -0.5827 -0.0300
  696MOL0     H93909   9.303   1.587   3.508  3.2405  0.2093  0.3110
  696MOL0     H93910   9.304   1.678   3.655  0.8800 -1.6004  3.9304
  696MOL0     H93911   9.197   1.525   3.877 -2.3877 -0.1644  2.0879
  696MOL0     H93912   8.960   1.343   3.951 -0.2901  1.5004  2.0443
  696MOL0     H93913   8.931   1.503   3.967  0.5667 -1.2695  0.2108
  696MOL0     H93914   8.781   1.311   3.778  3.1528 -0.8741  0.9469
  696MOL0     H93915   8.754   1.489   3.766  0.0507  0.2004  0.1403
  696MOL0     H93916   8.665   1.495   3.987 -2.7464 -2.1503  3.4628
  696MOL0     H93917   8.691   1.323   4.016 -0.5128  0.5417  0.5224
  696MOL0     H93918   8.507   1.483   3.835 -0.4694  0.1503 -0.1306
  696MOL0     H93919   8.463   1.357   3.953 -1.4520 -0.1938 -1.1152
  696MOL0     H93920   8.411   1.449   3.603  0.5790  0.3596 -1.1649
  696MOL0     H93921   8.190   1.540   3.480 -1.3624  0.0799 -1.2726
  696MOL0     H93922   8.301   1.440   3.378 -2.1727 -1.4216 -2.9453
  696MOL0     H93923   8.123   1.401   3.389 -0.0001  0.7349 -1.7431
  696MOL0     H93924   7.801   0.999   3.800  0.4027  0.2742 -0.9579
  696MOL0     H93925   7.557   0.979   3.845  0.5007  0.8210  0.2062
  696MOL0     H93926   7.357   0.916   3.785  3.4468  1.7925 -1.4134
  696MOL0     H93927   7.303   1.031   3.911 -2.8944 -2.4342 -0.0991
  696MOL0     H93928   7.109   1.088   3.781 -1.4339 -0.0543  0.0226
  696MOL0     H93929   7.163   0.964   3.659  0.4240  2.2715  0.0924
  696MOL0     H93930   7.117   0.884   3.946  0.2932 -0.4130 -0.0735
  696MOL0     H93931   7.132   0.785   3.800 -1.0840  0.7111 -2.3422
  696MOL0     H93932   6.918   0.996   3.848  0.2657 -0.6734  1.3439
  696MOL0     H93933   6.917   0.878   3.713  0.6713  1.2275 -0.9345
  696MOL0     H93934   6.902   0.813   4.002 -0.2573 -2.1649  0.0625
  696MOL0     H93935   6.931   0.690   3.876 -2.8358 -2.2359  1.3150
  696MOL0     H93936   6.719   0.762   3.763  0.0263 -1.1030  0.2422
  696MOL0     H93937   6.691   0.690   3.920  0.6405 -0.0989 -0.9383
  696MOL0     H93938   6.691   0.994   3.859  0.7203 -0.7584 -0.9188
  696MOL0     H93939   6.666   0.920   4.024 -1.2176 -2.2888  0.3937
  696MOL0     H93940   6.504   0.857   3.768  2.3223 -1.1846 -0.3149
  696MOL0     H93941   6.457   0.990   3.879 -0.0922 -0.5704  1.9992
  696MOL0     H93942   7.468   1.275   3.555 -1.4640  0.1565  1.9007
  696MOL0     H93943   7.714   1.280   3.485 -0.2770  0.8318  0.0963
  696MOL0     H93944   8.120   1.073   3.720  0.8395 -2.4563 -0.8623
  696MOL0     H93945   8.325   1.084   3.822  0.7940 -0.2700 -0.8457
  696MOL0     H93946  10.155   1.501   4.191 -1.0314  2.6609  0.0415
  696MOL0     H93947  10.374   1.440   4.250  0.3985  2.7785  1.1314
  696MOL0     H93948  10.740   1.153   4.290 -1.1176  1.0429 -0.6394
  696MOL0     H93949  10.953   1.054   4.257  2.9520 -0.1651  0.1910
  696MOL0     H93950  11.154   0.975   3.908  0.5322 -0.4056 -2.3321
  696MOL0     H93951  11.089   1.134   3.846  1.0399  0.5549  0.1387
  696MOL0     H93952  11.361   1.053   3.929 -0.8072 -0.9955 -1.8031
  696MOL0     H93953  11.315   1.231   3.923 -1.0038  1.4858 -1.4301
  696MOL0     H93954  11.264   1.224   3.706  1.3422  0.9076 -0.1265
  696MOL0     H93955  11.282   1.047   3.689  1.5889 -1.7121  2.5718
  696MOL0     H93956  11.528   1.075   3.716 -2.4354 -3.1581 -1.3490
  696MOL0     H93957  11.511   1.243   3.741  3.3263 -1.4179 -0.4475
  696MOL0     H93958  11.491   1.212   3.320 -2.7647 -2.5329 -1.2268
  696MOL0     H93959  11.034   1.353   3.943 -0.1709 -0.0384 -0.1724
  696MOL0     H93960  10.827   1.455   4.016  0.8403 -0.5377 -0.6507
  697MOL0     O93961   1.852  10.008   8.924  0.1934 -0.3513 -0.5117
  697MOL0     C93962   1.859  10.113   8.998  0.0269  0.1916 -1.1913
  697MOL0     O93963   1.780  10.221   8.989  0.0392  0.0793  0.5236
  697MOL0     C93964   1.724  10.244   8.865 -0.3984 -0.2851  0.9156
  697MOL0     C93965   1.798  10.270   8.747 -0.5003  0.5141 -0.8192
  697MOL0     C93966   1.731  10.290   8.625 -0.8914  0.1109  0.4455
  697MOL0     C93967   1.594  10.310   8.620  0.4241 -0.7003  0.4843
  697MOL0     O93968   1.529  10.357   8.507  0.5449  0.1179 -0.5853
  697MOL0     C93969   1.419  10.272   8.456  0.1074  0.9102 -0.1760
  697MOL0     C93970   1.336  10.347   8.356  0.5955 -0.1629  0.0382
  697MOL0     C93971   1.218  10.259   8.298 -0.1976  0.0593  0.5650
  697MOL0     C93972   1.155  10.322   8.178  0.0979 -0.2953  0.8511
  697MOL0     C93973   1.001  10.310   8.196  0.7865 -0.8853 -0.6193
  697MOL0     C93974   0.930  10.400   8.094 -1.0235  0.1987 -0.9613
  697MOL0     C93975   0.784  10.388   8.108 -0.3267 -0.0958  0.2462
  697MOL0     C93976   0.726  10.442   7.982  0.6514  0.0241 -0.2586
  697MOL0     N93977   0.586  10.483   8.017  0.0432 -0.2104 -0.0444
  697MOL0     C93978   0.491  10.393   8.054  0.0331  0.8727 -0.2448
  697MOL0     C93979   0.389  10.465   8.092  0.0098 -0.5455  0.4551
  697MOL0     C93980   0.270  10.410   8.164 -0.8161 -0.4672 -0.3710
  697MOL0     C93981   0.217  10.294   8.088 -0.1451 -0.1033 -0.4233
  697MOL0     C93982   0.155  10.334   7.953  0.2768  0.6541 -0.7029
  697MOL0     C93983   0.098  10.216   7.869 -0.3339 -0.0518  0.2702
  697MOL0     O93984  -0.016  10.155   7.935 -0.5974 -0.5014  0.3033
  697MOL0     C93985  -0.133  10.225   7.927  1.0756  0.9244 -0.7534
  697MOL0     C93986  -0.168  10.334   7.843  0.5396 -0.9754 -0.0031
  697MOL0     C93987  -0.295  10.391   7.838 -0.4661  0.8327  0.1291
  697MOL0     C93988  -0.316  10.506   7.739 -0.7499  0.0534  0.3600
  697MOL0     C93989  -0.390  10.335   7.917  0.1482  0.9873 -0.4031
  697MOL0     C93990  -0.529  10.378   7.917  0.8263 -0.3837 -1.0358
  697MOL0     O93991  -0.629  10.299   7.973  0.0265 -0.0809  0.2973
  697MOL0     C93992  -0.759  10.356   7.969 -0.0897 -0.7556 -0.0948
  697MOL0     C93993  -0.827  10.400   7.852  0.8996 -0.4349  0.1425
  697MOL0     C93994  -0.962  10.446   7.856 -0.9434 -0.3388 -0.4118
  697MOL0     C93995  -1.030  10.453   7.981  0.1128  0.1462  0.2322
  697MOL0     O93996  -1.164  10.496   7.974  0.4541  0.1937 -0.0120
  697MOL0     C93997  -1.253  10.484   8.093  0.0762  0.3505 -0.2705
  697MOL0     C93998  -1.399  10.508   8.051  0.1135  0.2026 -0.1882
  697MOL0     C93999  -1.495  10.481   8.157  1.1483  0.3339 -0.1950
  697MOL0     C94000  -1.634  10.529   8.125 -0.1992 -0.2325 -0.1587
  697MOL0     C94001  -1.723  10.507   8.249  0.2044  0.6316  0.3657
  697MOL0     C94002  -1.858  10.572   8.242  0.7527  0.1049  0.3568
  697MOL0     C94003  -1.925  10.561   8.378 -0.0335  1.0693  0.6454
  697MOL0     C94004  -2.073  10.597   8.354 -0.3367 -0.6141  0.6052
  697MOL0    Cl94005  -2.161  10.599   8.511  0.1438 -0.1709  0.2033
  697MOL0     C94006  -0.972  10.396   8.097 -0.2042 -0.2574  0.5103
  697MOL0     C94007  -0.834  10.353   8.091 -0.3956 -0.1406  0.2666
  697MOL0     O94008  -0.547  10.506   7.910 -0.0329 -0.3372  0.4654
  697MOL0     C94009  -0.359  10.228   7.994  0.3543  0.0668 -0.0571
  697MOL0     C94010  -0.235  10.169   7.997  0.2741 -0.2831 -0.7556
  697MOL0     N94011   0.419  10.601   8.083  0.3037  0.2231 -0.2830
  697MOL0     N94012   0.545  10.611   8.041 -0.4904 -0.6839 -0.0307
  697MOL0     C94013   1.520  10.295   8.737 -0.4956 -0.3662 -0.3632
  697MOL0     C94014   1.583  10.265   8.860 -0.3472 -0.7797 -0.9160
  697MOL0     C94015   1.955  10.108   9.117 -0.2581 -0.4667  0.1375
  697MOL0     C94016   2.017  10.219   9.179  0.5698 -0.2904  0.2209
  697MOL0     C94017   2.111  10.200   9.282 -0.0921 -0.4542  0.0173
  697MOL0     C94018   2.140  10.076   9.333 -0.6808 -0.4158 -0.7527
  697MOL0     O94019   2.229  10.072   9.444 -0.0539  0.6478 -0.1289
  697MOL0     C94020   2.284   9.948   9.495  0.0877  0.4890  0.4165
  697MOL0     C94021   2.388   9.884   9.403  0.3388 -0.4019  0.4575
  697MOL0     C94022   2.510   9.966   9.394 -0.0247  0.1405  0.1593
  697MOL0     C94023   2.501  10.108   9.347  0.2698 -0.5012  0.1240
  697MOL0     C94024   2.626  10.166   9.297 -0.2937  0.9848 -1.1345
  697MOL0     C94025   2.727  10.207   9.244 -0.9693  0.1304  0.0952
  697MOL0     C94026   2.096   9.968   9.261  0.5781  0.2038  0.3939
  697MOL0     C94027   2.012   9.985   9.146 -0.3788 -0.5935 -0.0237
  697MOL0     H94028   1.906  10.270   8.754 -0.3850 -1.4442 -1.8325
  697MOL0     H94029   1.784  10.320   8.535 -2.9800  1.3098 -0.4848
  697MOL0     H94030   1.464  10.186   8.405  0.8825  0.7085  0.8155
  697MOL0     H94031   1.350  10.232   8.531 -0.9790  1.6987 -0.7227
  697MOL0     H94032   1.289  10.434   8.403  1.8398  0.1795  0.6804
  697MOL0     H94033   1.395  10.392   8.277 -0.9254 -0.3307 -1.2433
  697MOL0     H94034   1.261  10.161   8.276 -1.7524 -1.6378  4.2420
  697MOL0     H94035   1.142  10.234   8.373  0.5554  0.0228  1.3319
  697MOL0     H94036   1.177  10.429   8.174  1.4055 -0.6001 -1.5298
  697MOL0     H94037   1.196  10.277   8.087 -0.1244  0.8932  0.1456
  697MOL0     H94038   0.964  10.207   8.198 -1.7138 -0.0597 -0.3252
  697MOL0     H94039   0.977  10.351   8.295 -0.5189 -3.1563  0.0727
  697MOL0     H94040   0.974  10.500   8.099  0.5298 -0.4670  2.7505
  697MOL0     H94041   0.956  10.354   7.998 -1.2489 -0.9679 -0.4797
  697MOL0     H94042   0.763  10.282   8.121 -0.6584  0.2882  3.9203
  697MOL0     H94043   0.735  10.440   8.191  1.2687 -0.2578  1.3438
  697MOL0     H94044   0.721  10.371   7.898 -0.0714  1.1532 -1.2135
  697MOL0     H94045   0.762  10.536   7.941 -1.4864  0.3144 -1.6667
  697MOL0     H94046   0.506  10.286   8.054 -1.2905  0.4344 -5.3021
  697MOL0     H94047   0.300  10.391   8.268 -0.0330  0.6813 -0.3641
  697MOL0     H94048   0.190  10.484   8.159 -1.4606 -1.1350 -0.0996
  697MOL0     H94049   0.140  10.245   8.148  1.7956 -3.1455 -0.2095
  697MOL0     H94050   0.293  10.219   8.063  1.3462  2.0411 -2.8017
  697MOL0     H94051   0.232  10.392   7.899  3.1722  0.0003  2.3870
  697MOL0     H94052   0.072  10.400   7.979 -0.0024  0.6748 -1.5988
  697MOL0     H94053   0.179  10.142   7.867  1.7888  2.0953  1.7055
  697MOL0     H94054   0.069  10.242   7.767 -1.2090 -1.7487  0.0423
  697MOL0     H94055  -0.089  10.388   7.791  0.6441 -0.0696  1.0545
  697MOL0     H94056  -0.294  10.597   7.795 -2.9737  0.7599  0.2018
  697MOL0     H94057  -0.247  10.506   7.654 -1.5476 -2.0241 -0.3499
  697MOL0     H94058  -0.418  10.503   7.698  0.4747  0.1736 -2.9212
  697MOL0     H94059  -0.781  10.410   7.754 -0.2408 -1.5434 -0.5261
  697MOL0     H94060  -1.015  10.489   7.771 -3.5062  3.3901  2.7340
  697MOL0     H94061  -1.237  10.382   8.131 -1.3421 -0.7806 -2.5557
  697MOL0     H94062  -1.225  10.552   8.175 -1.0884  0.5632 -0.0277
  697MOL0     H94063  -1.404  10.616   8.030 -1.8031  0.4917  1.4483
  697MOL0     H94064  -1.432  10.458   7.959 -0.1789  0.3847 -0.1845
  697MOL0     H94065  -1.466  10.524   8.253 -4.6312  0.0295  2.0615
  697MOL0     H94066  -1.518  10.376   8.178 -1.7077  1.1589  1.3773
  697MOL0     H94067  -1.642  10.634   8.097  0.6865 -0.4284 -1.1616
  697MOL0     H94068  -1.670  10.477   8.036 -0.0694 -1.8951  0.7059
  697MOL0     H94069  -1.669  10.540   8.338  0.3664 -1.8661  1.2497
  697MOL0     H94070  -1.730  10.398   8.251 -2.1822  0.7582  0.9546
  697MOL0     H94071  -1.840  10.678   8.227 -0.2981  0.4294  1.2483
  697MOL0     H94072  -1.914  10.537   8.155  1.9023  3.0531 -1.7223
  697MOL0     H94073  -1.883  10.631   8.450  2.5182 -1.1736  1.5188
  697MOL0     H94074  -1.920  10.458   8.414 -0.2474 -0.8440 -4.0172
  697MOL0     H94075  -2.122  10.525   8.288  1.8901 -1.6228 -0.0532
  697MOL0     H94076  -2.077  10.696   8.308  3.3816 -0.9061 -0.7970
  697MOL0     H94077  -1.019  10.363   8.189 -1.0267 -1.7388 -0.4012
  697MOL0     H94078  -0.784  10.305   8.175  1.3534 -2.2232 -1.8052
  697MOL0     H94079  -0.441  10.180   8.047 -0.9533  2.2613  0.0847
  697MOL0     H94080  -0.224  10.076   8.053  0.5195 -0.6621 -1.4223
  697MOL0     H94081   1.417  10.326   8.739  0.1812  2.6001 -3.3655
  697MOL0     H94082   1.522  10.273   8.950  0.6005 -0.2430 -0.3011
  697MOL0     H94083   1.983  10.320   9.161 -0.3122 -0.7230 -0.6599
  697MOL0     H94084   2.146  10.294   9.323 -1.3285 -0.1371  0.3620
  697MOL0     H94085   2.329   9.970   9.593  0.3263  0.3545  0.3367
  697MOL0     H94086   2.200   9.881   9.515 -1.6237  2.1662 -0.7733
  697MOL0     H94087   2.347   9.863   9.304 -0.7338  2.1923  0.2672
  697MOL0     H94088   2.413   9.785   9.442 -2.6180 -1.3411  0.2714
  697MOL0     H94089   2.562   9.906   9.319 -1.4169 -0.7358 -0.1403
  697MOL0     H94090   2.560   9.966   9.492  1.1531  3.1788 -0.3062
  697MOL0     H94091   2.469  10.168   9.433 -0.0927  0.4245 -0.6464
  697MOL0     H94092   2.418  10.114   9.277 -1.8252  0.7462  2.5407
  697MOL0     H94093   2.817  10.240   9.195  0.3189 -0.0297  2.2316
  697MOL0     H94094   2.115   9.873   9.310  0.8818 -1.0977 -2.0836
  697MOL0     H94095   1.969   9.892   9.111  1.0830 -0.4567 -2.4024
  698MOL0     O94096   1.231  10.047   5.055 -0.3826 -0.7295  0.1546
  698MOL0     C94097   1.174   9.937   5.061  0.0440 -0.5686 -0.0186
  698MOL0     O94098   1.038   9.910   5.073  0.1929  0.5257 -0.1960
  698MOL0     C94099   0.932   9.995   5.063  0.2082 -0.4782 -0.1827
  698MOL0     C94100   0.841  10.002   5.169 -0.3684 -0.2588  0.4404
  698MOL0     C94101   0.736  10.096   5.166  0.4981  0.8508  0.1495
  698MOL0     C94102   0.717  10.172   5.056 -0.0457  0.1807 -0.6292
  698MOL0     O94103   0.612  10.264   5.040 -0.7098  0.2453 -0.4724
  698MOL0     C94104   0.518  10.278   5.147 -0.8434 -0.3606  0.2816
  698MOL0     C94105   0.425  10.396   5.105  0.6075  0.6825 -0.2370
  698MOL0     C94106   0.321  10.438   5.209  0.3087  0.1437  0.1314
  698MOL0     C94107   0.218  10.536   5.149  0.0348  0.3990  0.0389
  698MOL0     C94108   0.134  10.624   5.241  0.3260 -0.6873 -0.0115
  698MOL0     C94109   0.057  10.534   5.336 -0.2943  0.3124  0.5630
  698MOL0     C94110  -0.045  10.621   5.413  0.2573 -0.3204 -0.3779
  698MOL0     C94111  -0.110  10.534   5.522 -0.3522 -1.2279  0.3037
  698MOL0     N94112  -0.230  10.606   5.571  0.3619 -0.2586  0.3045
  698MOL0     C94113  -0.348  10.626   5.503 -0.0400  0.0643  0.0665
  698MOL0     C94114  -0.435  10.684   5.590  0.1959  0.4016 -1.0657
  698MOL0     C94115  -0.578  10.723   5.579  0.5242 -0.0780 -0.1921
  698MOL0     C94116  -0.584  10.880   5.567 -0.2511  0.0949 -0.6408
  698MOL0     C94117  -0.707  10.944   5.645  0.0656  0.2562 -0.1619
  698MOL0     C94118  -0.727  11.096   5.585 -0.1031 -0.0783 -1.0126
  698MOL0     O94119  -0.846  11.153   5.648 -0.2093  0.1812  0.2861
  698MOL0     C94120  -0.970  11.116   5.615 -0.4504 -0.2568 -0.3781
  698MOL0     C94121  -1.007  11.050   5.499 -0.1072  0.0996 -0.2955
  698MOL0     C94122  -1.147  11.030   5.469 -0.6028 -0.2309  0.4975
  698MOL0     C94123  -1.194  10.970   5.337 -0.5939  0.4058  0.8315
  698MOL0     C94124  -1.235  11.069   5.571  0.4124  0.7032 -0.2057
  698MOL0     C94125  -1.384  11.045   5.544 -0.7160  0.3641  0.4367
  698MOL0     O94126  -1.453  11.006   5.648 -0.0555  0.1136 -0.1820
  698MOL0     C94127  -1.593  11.003   5.648  0.0753 -0.0879  0.7019
  698MOL0     C94128  -1.668  11.123   5.660  0.0118  0.6746 -0.6063
  698MOL0     C94129  -1.813  11.107   5.668 -0.2947  0.3925  1.1501
  698MOL0     C94130  -1.876  10.978   5.658  0.5085 -0.0178  0.7619
  698MOL0     O94131  -2.013  10.976   5.651 -0.3537 -0.2243 -0.2182
  698MOL0     C94132  -2.087  10.860   5.697 -0.0884  0.2077 -0.1706
  698MOL0     C94133  -2.113  10.777   5.573 -0.3698  0.0307  0.0871
  698MOL0     C94134  -2.201  10.649   5.601  0.0576  0.2344 -0.5056
  698MOL0     C94135  -2.239  10.580   5.472 -0.0094 -0.4127  0.1317
  698MOL0     C94136  -2.278  10.430   5.485  0.6610 -0.2298 -0.7576
  698MOL0     C94137  -2.395  10.403   5.578  0.7359 -0.3943 -0.7562
  698MOL0     C94138  -2.440  10.258   5.574  0.2272 -1.3874 -0.0566
  698MOL0     C94139  -2.567  10.221   5.650  0.4449 -0.3997 -0.3318
  698MOL0    Cl94140  -2.595  10.063   5.619  0.1621  0.2637 -0.2518
  698MOL0     C94141  -1.791  10.867   5.655 -0.4047 -0.2636  0.5680
  698MOL0     C94142  -1.648  10.875   5.644 -0.6123  0.3102  0.5373
  698MOL0     O94143  -1.435  11.088   5.436  0.1922  0.7842 -0.5018
  698MOL0     C94144  -1.191  11.139   5.678  0.1513  0.0788  0.2631
  698MOL0     C94145  -1.059  11.158   5.702  0.8014  0.3885 -0.3760
  698MOL0     N94146  -0.371  10.695   5.715  0.0568  0.1600 -0.2010
  698MOL0     N94147  -0.248  10.651   5.698 -0.1416  0.7266 -0.0457
  698MOL0     C94148   0.796  10.149   4.946 -0.7577 -0.5015  0.1870
  698MOL0     C94149   0.910  10.074   4.949  0.4881  0.1997  0.0656
  698MOL0     C94150   1.262   9.819   5.088 -0.2862  0.2357 -0.3068
  698MOL0     C94151   1.201   9.689   5.119 -0.2394 -0.8258 -1.2729
  698MOL0     C94152   1.280   9.578   5.163  1.0020  0.1927  0.0494
  698MOL0     C94153   1.416   9.585   5.160  0.4654 -0.0421 -0.1699
  698MOL0     O94154   1.505   9.486   5.195  0.2281  0.1170  0.8775
  698MOL0     C94155   1.464   9.373   5.273  0.3750 -0.1732 -0.5314
  698MOL0     C94156   1.585   9.275   5.293  0.4500 -0.0742  1.2636
  698MOL0     C94157   1.640   9.275   5.438  0.7597 -0.2008 -0.8907
  698MOL0     C94158   1.559   9.206   5.557 -0.3020  0.3317  0.4042
  698MOL0     C94159   1.563   9.063   5.530  0.5692  0.0879  1.5212
  698MOL0     C94160   1.584   8.951   5.493  0.2299  0.6551 -0.3081
  698MOL0     C94161   1.482   9.706   5.134  0.5825  0.6925  0.4306
  698MOL0     C94162   1.403   9.821   5.100  0.6807  0.0822 -0.2375
  698MOL0     H94163   0.854   9.943   5.259 -0.0921  1.8780  1.8910
  698MOL0     H94164   0.671  10.102   5.253  0.1054 -3.7554  0.4225
  698MOL0     H94165   0.473  10.179   5.159  1.9097 -1.3765  3.5312
  698MOL0     H94166   0.564  10.301   5.243 -0.7396 -1.3227  0.4682
  698MOL0     H94167   0.497  10.478   5.094  0.5268  0.9003  0.7848
  698MOL0     H94168   0.380  10.369   5.009  0.2387  1.2283 -0.2244
  698MOL0     H94169   0.278  10.349   5.257 -0.4338  0.1201 -0.5544
  698MOL0     H94170   0.365  10.487   5.296 -0.1942  1.7011 -0.4513
  698MOL0     H94171   0.267  10.602   5.077 -1.5597  2.0950  0.4317
  698MOL0     H94172   0.151  10.471   5.092  0.7336 -1.2005  0.9820
  698MOL0     H94173   0.188  10.705   5.290 -0.3904  0.3419 -0.8536
  698MOL0     H94174   0.067  10.679   5.174  3.2264 -0.0093 -2.5979
  698MOL0     H94175  -0.003  10.466   5.275 -3.3925  1.5295  2.0457
  698MOL0     H94176   0.121  10.471   5.398 -0.4113 -0.5090 -0.1278
  698MOL0     H94177   0.017  10.696   5.464 -1.7352  2.9461 -2.4280
  698MOL0     H94178  -0.110  10.676   5.345 -1.8457  1.1432  2.5966
  698MOL0     H94179  -0.035  10.510   5.598 -2.1631 -1.4890  2.0986
  698MOL0     H94180  -0.143  10.436   5.484  2.2302 -2.6907  1.6145
  698MOL0     H94181  -0.363  10.622   5.396 -1.5589  0.4948  0.2487
  698MOL0     H94182  -0.628  10.681   5.491 -0.2315 -0.8354  0.5843
  698MOL0     H94183  -0.637  10.688   5.665  1.7054 -1.1731  0.1916
  698MOL0     H94184  -0.601  10.913   5.464  0.0412  0.1067 -0.6842
  698MOL0     H94185  -0.494  10.932   5.600 -0.7401  0.2064  0.5973
  698MOL0     H94186  -0.697  10.947   5.754 -2.2848 -2.6921  0.2458
  698MOL0     H94187  -0.798  10.890   5.617 -1.7311  2.8917  0.2372
  698MOL0     H94188  -0.744  11.103   5.477  0.9089 -0.8753 -1.2449
  698MOL0     H94189  -0.642  11.158   5.613  0.8449 -2.1478  1.0437
  698MOL0     H94190  -0.935  11.027   5.420 -0.3052  0.0589 -0.4635
  698MOL0     H94191  -1.241  11.043   5.270  0.3591  0.4264  0.1705
  698MOL0     H94192  -1.109  10.920   5.290  1.0649  1.9290  2.0863
  698MOL0     H94193  -1.264  10.886   5.342 -0.4339  0.3406  2.2300
  698MOL0     H94194  -1.627  11.221   5.677 -0.9218  1.2762 -1.6833
  698MOL0     H94195  -1.874  11.196   5.668  2.0663  2.1848 -0.7706
  698MOL0     H94196  -2.036  10.799   5.772 -2.7787 -0.4211  1.2709
  698MOL0     H94197  -2.181  10.900   5.733 -0.4173  1.5026 -2.2700
  698MOL0     H94198  -2.168  10.842   5.503  1.3116  0.7058 -0.6510
  698MOL0     H94199  -2.021  10.745   5.524  1.0647  1.7666  1.5122
  698MOL0     H94200  -2.291  10.677   5.658  0.4180 -0.4078  0.3855
  698MOL0     H94201  -2.134  10.579   5.651  1.6737  1.6976 -0.5571
  698MOL0     H94202  -2.324  10.640   5.440  1.2436  1.7341  0.6199
  698MOL0     H94203  -2.156  10.589   5.401  0.0811  0.1034  0.2966
  698MOL0     H94204  -2.196  10.364   5.515  1.1611  0.5256 -0.4507
  698MOL0     H94205  -2.305  10.391   5.386 -0.9966 -0.3445 -0.3027
  698MOL0     H94206  -2.374  10.438   5.679 -0.5111  1.7341 -1.1648
  698MOL0     H94207  -2.473  10.474   5.549 -0.0141  0.6635  3.2948
  698MOL0     H94208  -2.355  10.200   5.609  2.5998  3.0600  2.5120
  698MOL0     H94209  -2.453  10.218   5.473  0.3027 -3.5483  0.7344
  698MOL0     H94210  -2.650  10.290   5.637  0.8442  1.0815  3.5619
  698MOL0     H94211  -2.550  10.241   5.756  2.3502 -1.1840 -0.4306
  698MOL0     H94212  -1.820  10.763   5.646  1.1310 -0.7258  0.7155
  698MOL0     H94213  -1.595  10.780   5.643 -1.1012  0.0326 -0.2660
  698MOL0     H94214  -1.259  11.170   5.757  0.8977 -0.5276  1.1785
  698MOL0     H94215  -1.029  11.206   5.794  3.4643  1.7533 -1.8493
  698MOL0     H94216   0.774  10.200   4.852 -0.7999 -1.6393 -0.4416
  698MOL0     H94217   0.977  10.070   4.864  1.2729  0.9720  0.6316
  698MOL0     H94218   1.094   9.678   5.126 -0.5480  1.6249 -1.4891
  698MOL0     H94219   1.239   9.478   5.175  3.8238 -1.4612 -2.5685
  698MOL0     H94220   1.433   9.412   5.370 -1.7278  1.8410 -1.9151
  698MOL0     H94221   1.379   9.326   5.222  0.5951 -1.9817  0.6563
  698MOL0     H94222   1.665   9.299   5.222 -0.3850 -0.7414  0.0621
  698MOL0     H94223   1.558   9.174   5.263  0.5198 -0.1717  1.5259
  698MOL0     H94224   1.651   9.381   5.460  1.0864 -0.2466 -0.8195
  698MOL0     H94225   1.732   9.215   5.438 -1.5556 -4.1289 -1.6631
  698MOL0     H94226   1.454   9.237   5.556 -0.2582  0.6948 -2.8156
  698MOL0     H94227   1.601   9.225   5.656 -0.9868 -2.5185  1.3358
  698MOL0     H94228   1.607   8.854   5.456 -0.4400  0.3045  0.1582
  698MOL0     H94229   1.590   9.709   5.142  0.5473 -0.6350  1.8918
  698MOL0     H94230   1.455   9.914   5.082  0.2546 -0.0353 -2.3404
  699MOL0     O94231   0.002   4.608  10.463  0.1555  0.0272  0.1288
  699MOL0     C94232   0.066   4.541  10.540 -0.3258 -0.5221  1.2241
  699MOL0     O94233   0.026   4.419  10.603 -0.6925 -0.1057 -0.2801
  699MOL0     C94234  -0.101   4.366  10.592 -0.1013  0.3251  0.5708
  699MOL0     C94235  -0.123   4.271  10.695  0.0253  0.3706 -0.2140
  699MOL0     C94236  -0.246   4.208  10.702  0.7849 -0.3578  0.3863
  699MOL0     C94237  -0.346   4.225  10.610 -0.6273 -0.7629  0.6681
  699MOL0     O94238  -0.462   4.154  10.609  0.0261 -0.4855  0.0245
  699MOL0     C94239  -0.551   4.194  10.713 -0.0222  0.2474 -0.1652
  699MOL0     C94240  -0.695   4.122  10.696  0.1956  0.8184  0.1694
  699MOL0     C94241  -0.779   4.128  10.829  0.9142 -0.9247  0.6924
  699MOL0     C94242  -0.925   4.150  10.803  0.6525  0.5427 -1.3253
  699MOL0     C94243  -1.009   4.045  10.737  0.4421 -0.0041 -0.1921
  699MOL0     C94244  -1.085   3.951  10.832  0.3295 -0.1855  0.4087
  699MOL0     C94245  -1.004   3.851  10.910 -0.3554  0.2430 -1.0883
  699MOL0     C94246  -0.914   3.752  10.827  0.1351  0.3494 -0.7128
  699MOL0     N94247  -0.986   3.662  10.740  0.3910  0.6347 -0.3036
  699MOL0     C94248  -1.022   3.686  10.612 -0.1091 -0.2735  0.1681
  699MOL0     C94249  -1.092   3.581  10.571  0.6386  0.4211  0.1367
  699MOL0     C94250  -1.168   3.560  10.439  0.0426 -0.0464  0.1069
  699MOL0     C94251  -1.274   3.453  10.458  0.0315  0.3652  0.7260
  699MOL0     C94252  -1.355   3.413  10.331 -0.2258  0.0749 -0.5208
  699MOL0     C94253  -1.503   3.463  10.324  0.5131  0.0371 -0.6141
  699MOL0     O94254  -1.517   3.602  10.356  0.7405 -0.0174 -0.5470
  699MOL0     C94255  -1.638   3.665  10.323 -0.1814  0.0295 -0.0453
  699MOL0     C94256  -1.628   3.804  10.314  0.8673  1.2145  0.2135
  699MOL0     C94257  -1.743   3.879  10.291  0.3061  1.4854 -1.4353
  699MOL0     C94258  -1.719   4.033  10.294  0.4327 -0.3642 -0.7570
  699MOL0     C94259  -1.869   3.817  10.267  0.2562 -0.2044  0.1320
  699MOL0     C94260  -1.991   3.895  10.235  0.0790  0.0877  0.5366
  699MOL0     O94261  -2.107   3.823  10.255  0.3986 -0.3653 -0.8494
  699MOL0     C94262  -2.215   3.906  10.278 -0.5096  0.8495 -0.3450
  699MOL0     C94263  -2.302   3.941  10.179 -0.4018  0.7488  0.2973
  699MOL0     C94264  -2.401   4.032  10.205  0.5611 -0.0076 -0.2996
  699MOL0     C94265  -2.432   4.070  10.330 -0.8678 -0.5125 -0.7464
  699MOL0     O94266  -2.519   4.171  10.349  0.8239 -0.5940 -0.8828
  699MOL0     C94267  -2.647   4.116  10.392  0.4723  0.5540 -0.0415
  699MOL0     C94268  -2.768   4.205  10.349 -1.1502 -0.6346 -0.4945
  699MOL0     C94269  -2.784   4.205  10.193 -0.4985 -0.0777  0.5275
  699MOL0     C94270  -2.899   4.292  10.138  0.0150  0.9740 -0.2729
  699MOL0     C94271  -3.030   4.214  10.132  0.5522  0.6784 -0.1932
  699MOL0     C94272  -3.145   4.285  10.065 -0.4882 -0.4075 -0.0078
  699MOL0     C94273  -3.284   4.219  10.061 -0.0384 -0.1234  0.2429
  699MOL0     C94274  -3.285   4.096   9.976 -0.1015 -0.4508 -0.0848
  699MOL0    Cl94275  -3.452   4.030   9.986 -0.0555  0.6907 -0.4000
  699MOL0     C94276  -2.355   4.020  10.437  0.5596 -0.2522 -0.1075
  699MOL0     C94277  -2.239   3.944  10.413  0.1827  0.2859 -0.0346
  699MOL0     O94278  -1.986   3.999  10.169  0.4044  0.5681  0.1258
  699MOL0     C94279  -1.880   3.680  10.265  0.4694 -0.5303 -0.5778
  699MOL0     C94280  -1.769   3.600  10.305 -0.5106 -0.4190 -0.2110
  699MOL0     N94281  -1.109   3.490  10.677  0.3851 -0.3796  0.7981
  699MOL0     N94282  -1.051   3.549  10.781 -0.4996  0.7120 -0.1440
  699MOL0     C94283  -0.326   4.323  10.509 -0.6928  0.4980 -0.0484
  699MOL0     C94284  -0.203   4.387  10.498  0.8815 -0.1477  0.3168
  699MOL0     C94285   0.215   4.587  10.564  0.8483 -0.9302  0.3069
  699MOL0     C94286   0.282   4.530  10.674 -0.0974  0.5331  0.4250
  699MOL0     C94287   0.411   4.562  10.713  0.0110 -0.6559  0.7006
  699MOL0     C94288   0.478   4.666  10.644  0.2024  0.3428  0.0635
  699MOL0     O94289   0.608   4.703  10.679 -0.3873  1.1877 -1.0848
  699MOL0     C94290   0.677   4.784  10.573  0.0750  0.5918 -0.5306
  699MOL0     C94291   0.829   4.786  10.617  0.3275  0.7093 -0.2321
  699MOL0     C94292   0.894   4.650  10.617 -0.2201  0.1951  0.2589
  699MOL0     C94293   1.031   4.661  10.679  0.1660 -0.1470  0.9670
  699MOL0     C94294   1.120   4.753  10.615 -0.3458 -0.2753 -0.0272
  699MOL0     C94295   1.190   4.849  10.581  0.2540  0.1953  0.0956
  699MOL0     C94296   0.406   4.723  10.537  0.6338 -0.1161  0.4053
  699MOL0     C94297   0.276   4.691  10.497  0.2290 -0.0925  0.0659
  699MOL0     H94298  -0.048   4.244  10.769  0.0623 -3.7315 -1.4705
  699MOL0     H94299  -0.253   4.131  10.779 -2.4490 -1.3696 -0.7655
  699MOL0     H94300  -0.504   4.162  10.807  1.5321  0.2220 -0.9285
  699MOL0     H94301  -0.570   4.301  10.711  2.9025  0.8253 -2.3815
  699MOL0     H94302  -0.751   4.166  10.613 -2.7897 -1.0914  1.0433
  699MOL0     H94303  -0.687   4.015  10.675 -1.3131  1.1263 -2.4706
  699MOL0     H94304  -0.763   4.033  10.881  0.8899 -2.2106 -1.5050
  699MOL0     H94305  -0.751   4.208  10.898 -0.7570 -3.0464  4.1197
  699MOL0     H94306  -0.972   4.178  10.898  1.9933 -1.2140 -0.0721
  699MOL0     H94307  -0.941   4.235  10.737  0.8356 -0.2791 -2.4463
  699MOL0     H94308  -1.083   4.099  10.677 -0.1234  1.3537  1.6443
  699MOL0     H94309  -0.944   3.988  10.670  1.7261 -0.4677  1.4165
  699MOL0     H94310  -1.127   4.017  10.908 -1.1954 -1.3099  0.5911
  699MOL0     H94311  -1.169   3.904  10.780  0.1620 -0.3521  0.8298
  699MOL0     H94312  -0.936   3.902  10.979 -1.5234  0.3690  0.0119
  699MOL0     H94313  -1.065   3.793  10.980 -0.5542  0.9832 -0.6328
  699MOL0     H94314  -0.867   3.695  10.907 -1.4336  0.6875  0.5000
  699MOL0     H94315  -0.835   3.808  10.775  0.9057 -0.9964 -1.0399
  699MOL0     H94316  -0.988   3.772  10.554  1.7161 -1.9745 -1.4428
  699MOL0     H94317  -1.218   3.653  10.412 -1.0553 -0.7366 -0.3169
  699MOL0     H94318  -1.094   3.534  10.364 -2.0211  1.6894 -2.7360
  699MOL0     H94319  -1.348   3.477  10.535 -0.0501 -0.2581  0.8435
  699MOL0     H94320  -1.216   3.365  10.488  2.4169  1.1755 -1.0911
  699MOL0     H94321  -1.355   3.304  10.335 -1.1908  0.0872  0.0723
  699MOL0     H94322  -1.294   3.449  10.248  0.7298 -3.8682 -1.7259
  699MOL0     H94323  -1.566   3.401  10.388  2.3143 -1.0269  0.2146
  699MOL0     H94324  -1.536   3.451  10.220 -1.5524  0.7160 -0.0787
  699MOL0     H94325  -1.530   3.851  10.319  1.3050  0.6345 -1.9328
  699MOL0     H94326  -1.770   4.093  10.370 -0.8655 -1.4550 -0.7483
  699MOL0     H94327  -1.611   4.043  10.309  0.5537 -1.2434 -1.0099
  699MOL0     H94328  -1.730   4.069  10.191  0.4065 -1.4811 -1.1623
  699MOL0     H94329  -2.289   3.903  10.078  0.0877  2.2106 -0.2184
  699MOL0     H94330  -2.463   4.081  10.129  0.5568  1.0585  0.3746
  699MOL0     H94331  -2.667   4.016  10.352 -2.2004 -0.1750  2.7427
  699MOL0     H94332  -2.647   4.104  10.500 -0.6675 -0.6528 -0.1548
  699MOL0     H94333  -2.860   4.167  10.396 -0.0821 -2.6132  0.1391
  699MOL0     H94334  -2.762   4.307  10.387 -3.5540  0.0793 -1.8395
  699MOL0     H94335  -2.795   4.100  10.167 -2.7393  0.0843  0.5836
  699MOL0     H94336  -2.698   4.247  10.142 -0.1977  0.0626  1.1351
  699MOL0     H94337  -2.907   4.386  10.193  1.3938  0.1049  1.4963
  699MOL0     H94338  -2.864   4.326  10.040 -1.3520 -1.3554 -1.6647
  699MOL0     H94339  -3.067   4.192  10.232  0.7586 -0.5205 -0.3578
  699MOL0     H94340  -3.015   4.112  10.094  0.0425 -0.8631  3.3477
  699MOL0     H94341  -3.154   4.381  10.116  1.0001  0.6536 -1.6260
  699MOL0     H94342  -3.109   4.297   9.962  1.6414  2.1224  0.9161
  699MOL0     H94343  -3.360   4.288  10.022 -1.1124 -1.9340 -1.0218
  699MOL0     H94344  -3.321   4.199  10.162  0.7806  0.2199  0.6180
  699MOL0     H94345  -3.210   4.028  10.018 -0.8194 -2.6214 -2.0824
  699MOL0     H94346  -3.264   4.109   9.869  1.9786 -2.4478  0.0058
  699MOL0     H94347  -2.383   4.023  10.542 -1.1610 -3.9290 -0.2892
  699MOL0     H94348  -2.163   3.918  10.487 -0.1105  1.8248  0.8443
  699MOL0     H94349  -1.976   3.636  10.240  0.6326 -0.2505 -1.7544
  699MOL0     H94350  -1.773   3.493  10.324 -1.0970 -0.0560  1.9667
  699MOL0     H94351  -0.399   4.347  10.432 -1.5825  0.7487  0.8449
  699MOL0     H94352  -0.179   4.456  10.419  0.0531  1.7088  1.6130
  699MOL0     H94353   0.249   4.442  10.727 -0.6906 -0.0198 -0.8081
  699MOL0     H94354   0.457   4.513  10.799 -0.8564  1.0202  2.1842
  699MOL0     H94355   0.669   4.743  10.472  0.4066  1.9228 -1.1256
  699MOL0     H94356   0.632   4.884  10.573  1.3644  1.1939 -0.4125
  699MOL0     H94357   0.829   4.818  10.721 -1.2305  2.8955 -0.8200
  699MOL0     H94358   0.885   4.862  10.560  3.8046 -0.1016  1.8606
  699MOL0     H94359   0.900   4.615  10.513 -3.9528  1.1323 -0.4259
  699MOL0     H94360   0.834   4.576  10.670 -0.1310  1.4406  2.1651
  699MOL0     H94361   1.073   4.561  10.690 -0.8324 -0.7354 -0.3680
  699MOL0     H94362   1.024   4.693  10.784 -0.8007 -0.6193  1.0561
  699MOL0     H94363   1.251   4.931  10.549 -0.6143  0.0430 -2.1478
  699MOL0     H94364   0.443   4.808  10.481 -0.3778 -0.3801 -0.7227
  699MOL0     H94365   0.223   4.754  10.426  0.3647  1.2804  1.1539
  700MOL0     O94366   4.877   4.919  10.803 -0.8317 -0.1350  0.6455
  700MOL0     C94367   4.927   4.976  10.705 -0.1083 -0.5322 -0.6213
  700MOL0     O94368   4.853   5.038  10.613  1.0181  0.0628  0.5361
  700MOL0     C94369   4.713   5.027  10.603 -1.0884  0.2961  0.0463
  700MOL0     C94370   4.655   5.022  10.477  0.7414 -0.3712  0.4133
  700MOL0     C94371   4.518   5.023  10.464 -0.1461  0.0182  0.2710
  700MOL0     C94372   4.432   5.024  10.576  0.6176  0.0094  0.4141
  700MOL0     O94373   4.298   5.040  10.574  0.5646 -0.2197  0.3289
  700MOL0     C94374   4.222   5.011  10.456 -0.0649  0.5273 -0.5402
  700MOL0     C94375   4.073   5.000  10.497  0.8626  0.7277  0.6256
  700MOL0     C94376   3.996   4.956  10.381  0.3497 -0.3050 -0.3792
  700MOL0     C94377   3.843   4.962  10.407  0.8501  0.2960  0.5439
  700MOL0     C94378   3.752   4.945  10.281  0.1911 -0.3246  0.0228
  700MOL0     C94379   3.792   4.824  10.202 -0.6352 -0.3639 -0.2782
  700MOL0     C94380   3.678   4.789  10.103 -0.0843  0.1215  0.0668
  700MOL0     C94381   3.705   4.668  10.008 -0.1939 -0.0434  0.0286
  700MOL0     N94382   3.823   4.690   9.922 -0.4636 -0.5334 -0.3297
  700MOL0     C94383   3.948   4.655   9.954 -0.7725  0.3838 -0.1249
  700MOL0     C94384   4.028   4.721   9.880 -0.3704  0.5165 -0.3525
  700MOL0     C94385   4.176   4.694   9.863  0.6467 -0.6790 -0.5614
  700MOL0     C94386   4.239   4.640   9.990 -0.7263  0.2670 -0.3159
  700MOL0     C94387   4.393   4.676   9.997 -0.1612  0.5445  0.3963
  700MOL0     C94388   4.462   4.564  10.073 -0.2839 -0.4468 -0.2826
  700MOL0     O94389   4.436   4.584  10.207  0.1376 -0.4093 -0.4263
  700MOL0     C94390   4.435   4.470  10.284  0.4279 -0.1354  0.3549
  700MOL0     C94391   4.323   4.390  10.295  0.3020 -0.6515  0.3109
  700MOL0     C94392   4.323   4.264  10.360 -0.2982  0.6461 -0.2552
  700MOL0     C94393   4.203   4.182  10.349 -0.7499  0.1592  1.1017
  700MOL0     C94394   4.444   4.218  10.423  0.4106 -0.6839  0.0141
  700MOL0     C94395   4.447   4.093  10.511 -0.3546 -0.9125 -0.6703
  700MOL0     O94396   4.340   4.014  10.521  0.2094 -0.0799  0.7891
  700MOL0     C94397   4.332   3.946  10.636 -0.7898  0.2466 -0.0835
  700MOL0     C94398   4.357   4.016  10.760 -0.1178  0.5860 -0.3805
  700MOL0     C94399   4.334   3.946  10.880  0.3938 -0.1767  0.3445
  700MOL0     C94400   4.257   3.824  10.883 -0.5315  0.6494 -0.1774
  700MOL0     O94401   4.222   3.773  11.000  0.0971  0.9552  0.0420
  700MOL0     C94402   4.166   3.639  10.995  0.2834 -0.1362 -0.4751
  700MOL0     C94403   4.157   3.598  11.144  0.1913  0.4870 -0.1794
  700MOL0     C94404   4.091   3.455  11.174  0.6808  0.3389 -0.2598
  700MOL0     C94405   3.950   3.456  11.225  0.4588  0.7222  0.2374
  700MOL0     C94406   3.913   3.308  11.261  0.1029  1.0932 -0.7819
  700MOL0     C94407   3.764   3.283  11.277  0.0845  0.3663 -0.1550
  700MOL0     C94408   3.732   3.131  11.295 -0.3294  0.0614 -0.2727
  700MOL0     C94409   3.751   3.076  11.433 -0.1512  0.8289 -0.2414
  700MOL0    Cl94410   3.764   2.896  11.439  0.0152 -0.7604 -0.1733
  700MOL0     C94411   4.221   3.775  10.754  0.3791  0.2202 -0.5927
  700MOL0     C94412   4.256   3.835  10.633  0.3840 -0.1260 -0.0856
  700MOL0     O94413   4.554   4.073  10.574  1.2923  0.0046 -0.1824
  700MOL0     C94414   4.558   4.302  10.415  0.1825  0.6785  0.0146
  700MOL0     C94415   4.552   4.423  10.347  0.2145 -0.1073 -0.1019
  700MOL0     N94416   3.950   4.792   9.791  0.0684  0.2310 -0.1119
  700MOL0     N94417   3.829   4.768   9.813  0.2547 -0.1792  0.2085
  700MOL0     C94418   4.493   5.027  10.706 -0.3721  0.5245  0.8558
  700MOL0     C94419   4.631   5.035  10.713 -0.3218  0.2199  0.3937
  700MOL0     C94420   5.081   4.995  10.708 -0.0638 -0.5598  0.1890
  700MOL0     C94421   5.164   4.941  10.805  0.5144 -1.1476  0.2144
  700MOL0     C94422   5.303   4.969  10.802  0.3080 -0.0153 -1.3875
  700MOL0     C94423   5.363   5.030  10.690 -1.0742  0.3986 -0.3580
  700MOL0     O94424   5.495   5.054  10.711  0.0343  0.0059  0.0249
  700MOL0     C94425   5.526   5.197  10.724  0.5521  0.5345  0.2626
  700MOL0     C94426   5.614   5.244  10.602  0.0956  0.1824  0.3182
  700MOL0     C94427   5.740   5.171  10.587 -0.8815 -1.0250  0.9210
  700MOL0     C94428   5.803   5.199  10.453  0.6975  0.0818 -0.5899
  700MOL0     C94429   5.859   5.337  10.447 -0.3214  0.8467  0.2461
  700MOL0     C94430   5.903   5.450  10.446 -1.0048  0.2825 -0.4395
  700MOL0     C94431   5.280   5.081  10.589 -0.4448 -0.8333 -0.0921
  700MOL0     C94432   5.140   5.069  10.601 -0.6968 -0.0058  0.0580
  700MOL0     H94433   4.712   5.024  10.385  1.5604  1.2199  0.9233
  700MOL0     H94434   4.479   5.035  10.364  2.0314  3.0258 -0.3375
  700MOL0     H94435   4.234   5.076  10.369  1.3620  0.6272 -0.2962
  700MOL0     H94436   4.257   4.914  10.419  0.3865  0.4140  0.1695
  700MOL0     H94437   4.051   4.933  10.580 -1.3798  0.8731  0.2173
  700MOL0     H94438   4.054   5.104  10.527  1.9393  0.9607  0.5376
  700MOL0     H94439   4.017   5.017  10.292 -1.5873  1.6440  0.4131
  700MOL0     H94440   4.024   4.852  10.366 -0.4549 -0.8604  1.6350
  700MOL0     H94441   3.816   4.886  10.481  0.1332 -2.7295 -2.5526
  700MOL0     H94442   3.822   5.060  10.449 -0.7920  1.3221 -2.3931
  700MOL0     H94443   3.649   4.929  10.315 -0.4112  0.6593 -1.2745
  700MOL0     H94444   3.760   5.042  10.233  0.7811 -0.9124 -1.0998
  700MOL0     H94445   3.890   4.846  10.158 -1.2192  4.4044  0.3206
  700MOL0     H94446   3.809   4.733  10.259 -2.0392 -0.3781  0.1475
  700MOL0     H94447   3.593   4.777  10.171  1.0151  1.3850  1.7450
  700MOL0     H94448   3.657   4.873  10.037 -2.0386 -1.2519 -1.1997
  700MOL0     H94449   3.615   4.649   9.949 -1.3101  5.8410 -0.8359
  700MOL0     H94450   3.729   4.589  10.079 -1.7585  0.4441  1.1568
  700MOL0     H94451   3.982   4.581  10.026 -2.7270  1.1371  1.6865
  700MOL0     H94452   4.193   4.625   9.780  0.8629  0.8249 -1.8177
  700MOL0     H94453   4.227   4.788   9.839 -2.3457  0.5214 -2.7806
  700MOL0     H94454   4.239   4.531   9.989 -0.4157  0.2408  0.7621
  700MOL0     H94455   4.184   4.673  10.079  0.4589 -1.0409  0.9611
  700MOL0     H94456   4.409   4.769  10.053 -1.2681  2.5367 -2.3946
  700MOL0     H94457   4.442   4.679   9.900 -0.0979  0.7619  0.4330
  700MOL0     H94458   4.570   4.565  10.053 -0.6788  0.8329 -2.5843
  700MOL0     H94459   4.434   4.464  10.037 -0.5769 -1.7377  3.1383
  700MOL0     H94460   4.234   4.407  10.235  0.8955  0.1336 -0.3809
  700MOL0     H94461   4.127   4.221  10.282 -0.0801 -1.8295 -0.9180
  700MOL0     H94462   4.216   4.079  10.316  0.4487  0.2175  1.3473
  700MOL0     H94463   4.157   4.165  10.447 -0.3043  0.2971  1.3424
  700MOL0     H94464   4.412   4.109  10.773  2.0817 -0.6357 -0.5107
  700MOL0     H94465   4.366   3.990  10.974  0.6176 -0.0360  0.2028
  700MOL0     H94466   4.061   3.640  10.966  0.2951  0.3421 -0.5198
  700MOL0     H94467   4.217   3.565  10.933  0.0387 -0.2247 -0.5714
  700MOL0     H94468   4.262   3.591  11.175 -0.0832  0.1454  0.7207
  700MOL0     H94469   4.110   3.678  11.201  2.1557  1.0934  0.6855
  700MOL0     H94470   4.152   3.408  11.251 -0.4428  1.1024  1.1539
  700MOL0     H94471   4.103   3.390  11.087  0.9086 -0.5242  0.4055
  700MOL0     H94472   3.937   3.530  11.305  3.1690  1.8607 -0.2799
  700MOL0     H94473   3.890   3.499  11.144  1.8637 -0.6189 -1.6034
  700MOL0     H94474   3.973   3.282  11.349  0.6853  1.2105 -1.1435
  700MOL0     H94475   3.949   3.235  11.188  2.0002  1.1010  0.0941
  700MOL0     H94476   3.729   3.346  11.359  0.9311  2.3133 -1.2393
  700MOL0     H94477   3.716   3.326  11.188  0.2502 -0.5150 -0.6868
  700MOL0     H94478   3.789   3.080  11.218 -2.6550  1.6123 -3.2438
  700MOL0     H94479   3.625   3.118  11.272 -0.6660  0.9466  0.6963
  700MOL0     H94480   3.671   3.101  11.504  0.2449  0.4203  0.3596
  700MOL0     H94481   3.847   3.118  11.464  0.5124  1.0594 -2.4634
  700MOL0     H94482   4.158   3.687  10.747  1.2809 -0.5429  0.4389
  700MOL0     H94483   4.224   3.804  10.534  0.1957  2.2466 -0.8301
  700MOL0     H94484   4.654   4.288  10.464  0.0225  1.4588  0.5560
  700MOL0     H94485   4.646   4.477  10.337  1.9583 -2.7705  1.0588
  700MOL0     H94486   4.427   5.043  10.790 -2.3833 -2.4833  0.0165
  700MOL0     H94487   4.672   5.048  10.813  0.1964  0.9299  0.1023
  700MOL0     H94488   5.109   4.877  10.874  2.1774 -1.4638  1.2891
  700MOL0     H94489   5.381   4.941  10.871 -0.5564  0.1074 -0.3332
  700MOL0     H94490   5.436   5.258  10.732  0.4344  0.2190  1.6245
  700MOL0     H94491   5.585   5.212  10.815  3.1444  0.8138 -1.3643
  700MOL0     H94492   5.637   5.350  10.615  1.3331 -0.2723  2.1893
  700MOL0     H94493   5.561   5.227  10.507 -0.3998  2.1044  0.2137
  700MOL0     H94494   5.712   5.065  10.588 -1.0284 -1.0928 -1.9990
  700MOL0     H94495   5.806   5.189  10.673 -1.9660 -1.9472  1.9883
  700MOL0     H94496   5.729   5.173  10.377  0.0951 -0.1329  0.0516
  700MOL0     H94497   5.890   5.137  10.428  1.0539  1.9857 -4.8716
  700MOL0     H94498   5.950   5.545  10.460  2.2490 -0.8379 -2.6064
  700MOL0     H94499   5.332   5.141  10.516 -1.3768  0.6429  0.4126
  700MOL0     H94500   5.084   5.121  10.524  0.5464 -1.3867 -1.8803
  701MOL0     O94501   3.083   6.088   9.616  0.3550 -0.2400  0.2475
  701MOL0     C94502   3.169   6.057   9.696 -1.1723 -0.3256  0.4646
  701MOL0     O94503   3.149   6.020   9.827 -0.0979 -0.0082  0.2959
  701MOL0     C94504   3.028   5.993   9.879  0.6201  0.1986  0.2841
  701MOL0     C94505   3.020   5.953  10.013 -0.1216 -0.8850  0.3807
  701MOL0     C94506   2.898   5.935  10.078 -0.8146 -0.2228 -0.3451
  701MOL0     C94507   2.773   5.936  10.015  0.8420  0.0340  0.6207
  701MOL0     O94508   2.659   5.908  10.093 -0.4840  0.1041 -0.5591
  701MOL0     C94509   2.536   5.889  10.013  0.0204  0.5576  0.4266
  701MOL0     C94510   2.420   5.841  10.094  0.1915  0.4495 -0.3747
  701MOL0     C94511   2.356   5.954  10.177 -0.1892 -0.1959 -0.3487
  701MOL0     C94512   2.235   5.896  10.239  0.1129 -0.3112 -0.0566
  701MOL0     C94513   2.184   5.985  10.348 -0.1318 -0.0976  1.1509
  701MOL0     C94514   2.062   5.920  10.408  0.9810 -0.4338 -0.1207
  701MOL0     C94515   2.003   6.009  10.516 -0.6139 -1.2126  0.1210
  701MOL0     C94516   1.887   5.932  10.592  0.2023  0.1048  1.0692
  701MOL0     N94517   1.837   6.009  10.719 -0.3099  0.1367  0.3451
  701MOL0     C94518   1.742   5.952  10.798  0.3623  0.4252 -0.3466
  701MOL0     C94519   1.732   6.048  10.890 -0.5395  0.8139 -1.1146
  701MOL0     C94520   1.644   6.033  11.013 -0.3084  0.0476 -0.8006
  701MOL0     C94521   1.709   5.926  11.103  0.1314  0.0539  0.1481
  701MOL0     C94522   1.642   5.929  11.239  1.0690  0.8357  0.9548
  701MOL0     C94523   1.721   6.032  11.331 -0.4556  0.5087 -0.0352
  701MOL0     O94524   1.645   6.153  11.347  0.1921  0.4921 -0.3307
  701MOL0     C94525   1.551   6.157  11.446  0.8266 -0.7477 -0.0789
  701MOL0     C94526   1.489   6.051  11.517  0.8613 -0.5986 -0.0701
  701MOL0     C94527   1.393   6.066  11.618  0.0776 -0.9962  0.1641
  701MOL0     C94528   1.311   5.940  11.664  0.4778 -0.5437 -0.5708
  701MOL0     C94529   1.363   6.202  11.659 -0.0490  0.3586  0.5204
  701MOL0     C94530   1.260   6.244  11.758  0.0592  1.3875  0.4396
  701MOL0     O94531   1.168   6.333  11.714 -0.2033 -0.4140 -0.4388
  701MOL0     C94532   1.062   6.348  11.797  0.2373  0.0163 -0.0358
  701MOL0     C94533   1.075   6.409  11.922 -0.4674 -0.3934  0.0507
  701MOL0     C94534   0.963   6.420  12.011 -0.4819 -1.2486  0.6890
  701MOL0     C94535   0.837   6.377  11.958  0.0561 -0.0252  0.2188
  701MOL0     O94536   0.734   6.381  12.051  1.6241 -0.6749  0.3752
  701MOL0     C94537   0.605   6.438  11.999 -0.3838 -0.1236  0.3800
  701MOL0     C94538   0.601   6.593  11.974  0.2170 -0.4939 -0.5557
  701MOL0     C94539   0.467   6.645  12.023 -0.6382  0.4535 -0.2873
  701MOL0     C94540   0.438   6.787  11.976 -0.0004 -0.9379 -0.4147
  701MOL0     C94541   0.296   6.820  12.028 -0.0064 -0.5976  0.7159
  701MOL0     C94542   0.245   6.943  11.947 -0.4962  0.9666 -0.5599
  701MOL0     C94543   0.333   7.067  11.939 -1.0730 -0.5486  0.1400
  701MOL0     C94544   0.250   7.192  11.903 -0.1147 -0.5401  0.8718
  701MOL0    Cl94545   0.099   7.210  11.998 -0.0067  0.5251  0.1990
  701MOL0     C94546   0.823   6.318  11.829 -0.5363 -0.6313 -0.4091
  701MOL0     C94547   0.939   6.304  11.756 -1.3607 -0.9399 -0.0822
  701MOL0     O94548   1.254   6.166  11.854  0.0211 -0.7476  0.1394
  701MOL0     C94549   1.431   6.303  11.600  0.3321 -0.7936 -0.7456
  701MOL0     C94550   1.518   6.286  11.491  0.4521  0.5586  0.9124
  701MOL0     N94551   1.818   6.156  10.873  0.3109  0.3286 -0.0024
  701MOL0     N94552   1.879   6.134  10.764 -0.3021 -0.2606 -0.1110
  701MOL0     C94553   2.782   5.983   9.883  0.3462 -0.2559  0.2916
  701MOL0     C94554   2.894   6.009   9.817 -1.4683  0.7451 -0.3950
  701MOL0     C94555   3.306   6.085   9.637 -0.0440 -1.0929  0.0752
  701MOL0     C94556   3.412   6.007   9.665 -0.2026  0.3022 -0.1407
  701MOL0     C94557   3.536   6.022   9.599  0.2784 -0.5969 -0.1277
  701MOL0     C94558   3.551   6.133   9.514 -0.7226 -0.0034 -0.1132
  701MOL0     O94559   3.669   6.167   9.443 -0.7134  0.2207  0.4634
  701MOL0     C94560   3.793   6.094   9.465 -0.3750  0.3465 -0.3952
  701MOL0     C94561   3.792   5.966   9.392  1.0400  0.8858  0.2695
  701MOL0     C94562   3.900   5.879   9.446 -0.5932 -0.1785  0.5730
  701MOL0     C94563   3.886   5.741   9.383 -0.3198 -0.9323 -0.0989
  701MOL0     C94564   3.926   5.726   9.247 -0.5290 -0.3414  0.0503
  701MOL0     C94565   3.966   5.704   9.136  0.1984 -0.0119 -0.3292
  701MOL0     C94566   3.444   6.211   9.490  0.1933 -0.7550  0.8242
  701MOL0     C94567   3.323   6.190   9.542  0.1154  0.0867  0.0219
  701MOL0     H94568   3.110   5.943  10.073  0.6517 -2.8666 -1.0039
  701MOL0     H94569   2.900   5.904  10.182  0.8891  0.2521 -0.1999
  701MOL0     H94570   2.510   5.985   9.968  0.5616  1.2089  1.4622
  701MOL0     H94571   2.550   5.808   9.941  1.4971  2.1097 -1.0982
  701MOL0     H94572   2.340   5.820  10.022  1.4328 -0.5394 -1.5144
  701MOL0     H94573   2.436   5.752  10.154 -1.1632  0.8735  0.6619
  701MOL0     H94574   2.431   5.989  10.249 -0.0059 -1.2597  0.0007
  701MOL0     H94575   2.329   6.038  10.113  2.2007  2.7896  2.2172
  701MOL0     H94576   2.151   5.882  10.170 -1.1369  0.1411  1.3116
  701MOL0     H94577   2.256   5.798  10.284 -1.4315  0.7970  3.4454
  701MOL0     H94578   2.263   5.991  10.423  0.4848  0.4489  0.4661
  701MOL0     H94579   2.158   6.082  10.305  1.0979  0.7886  2.3371
  701MOL0     H94580   1.987   5.899  10.331 -0.0571 -1.6174  1.1727
  701MOL0     H94581   2.091   5.825  10.454  0.3605  0.6183  2.6331
  701MOL0     H94582   2.083   6.027  10.588  0.2119  1.0410 -1.2334
  701MOL0     H94583   1.958   6.100  10.474 -0.0862  0.0183  2.1121
  701MOL0     H94584   1.920   5.833  10.627  2.9414  0.1687 -0.9652
  701MOL0     H94585   1.806   5.903  10.525 -1.7450  2.3048  2.3516
  701MOL0     H94586   1.700   5.853  10.788  0.0845  0.4039  0.8674
  701MOL0     H94587   1.627   6.130  11.061  0.9072  0.5534 -1.3555
  701MOL0     H94588   1.550   5.991  10.978 -0.2961 -0.2429 -0.4855
  701MOL0     H94589   1.815   5.952  11.107 -0.0589  0.7980  0.5570
  701MOL0     H94590   1.691   5.839  11.040  0.1874 -0.0173  0.2301
  701MOL0     H94591   1.633   5.830  11.283 -1.9839  1.1957  1.3595
  701MOL0     H94592   1.540   5.967  11.227 -0.0551 -1.9685  0.8635
  701MOL0     H94593   1.815   6.062  11.285 -0.3869 -2.4228 -2.0464
  701MOL0     H94594   1.748   5.992  11.429  0.6553  0.3648 -0.3866
  701MOL0     H94595   1.508   5.948  11.490 -0.0889 -0.6150 -0.7138
  701MOL0     H94596   1.347   5.895  11.757  0.1059 -4.2119 -2.0365
  701MOL0     H94597   1.206   5.944  11.694  0.0962  0.6933 -1.9523
  701MOL0     H94598   1.309   5.869  11.581 -1.1851  0.4263 -1.4123
  701MOL0     H94599   1.175   6.437  11.954 -0.3920  1.2730 -1.5220
  701MOL0     H94600   0.979   6.443  12.116  2.1022  1.0769 -0.0904
  701MOL0     H94601   0.585   6.394  11.900  3.2574 -1.0397 -0.1228
  701MOL0     H94602   0.518   6.408  12.057 -0.4272 -0.2945  0.2284
  701MOL0     H94603   0.683   6.641  12.028 -0.2586  1.7135 -1.6883
  701MOL0     H94604   0.619   6.606  11.867 -0.8733 -0.4645 -0.7506
  701MOL0     H94605   0.476   6.647  12.132  1.0400  0.9539 -0.3982
  701MOL0     H94606   0.387   6.581  11.984  0.3269 -0.0435 -1.5007
  701MOL0     H94607   0.517   6.858  12.001 -0.3819 -0.3470 -0.8551
  701MOL0     H94608   0.437   6.796  11.867 -1.0178  0.7197 -0.3013
  701MOL0     H94609   0.296   6.851  12.132 -1.4547  0.2498  0.4918
  701MOL0     H94610   0.227   6.737  12.006 -3.0836  1.8707  0.3707
  701MOL0     H94611   0.221   6.926  11.842  1.9067 -0.8293 -0.8987
  701MOL0     H94612   0.153   6.971  11.999 -0.9836 -0.4757 -0.6014
  701MOL0     H94613   0.411   7.047  11.865 -0.8314 -3.7650  1.1012
  701MOL0     H94614   0.388   7.083  12.032  3.5440 -1.4660 -2.1767
  701MOL0     H94615   0.227   7.204  11.797 -0.2779  4.1156  1.2245
  701MOL0     H94616   0.313   7.281  11.918  0.4548 -0.5443 -1.1723
  701MOL0     H94617   0.732   6.285  11.782 -2.4483 -0.3771  2.8251
  701MOL0     H94618   0.936   6.269  11.653  0.0200  1.8834 -1.2050
  701MOL0     H94619   1.407   6.405  11.629  0.9763 -0.3098 -1.8254
  701MOL0     H94620   1.562   6.382  11.465 -0.0930  1.2138  2.3174
  701MOL0     H94621   2.688   6.006   9.834 -1.9533 -1.4398  3.7897
  701MOL0     H94622   2.880   6.046   9.716  0.0232 -0.0696 -0.9306
  701MOL0     H94623   3.404   5.929   9.740  2.6803  0.3023  0.2495
  701MOL0     H94624   3.621   5.956   9.607 -1.7112 -3.6013 -1.5839
  701MOL0     H94625   3.885   6.146   9.436  1.8507 -1.5468  2.7124
  701MOL0     H94626   3.803   6.088   9.574 -0.5949  1.8680 -0.2607
  701MOL0     H94627   3.790   5.994   9.287 -1.1144 -1.1273 -0.3185
  701MOL0     H94628   3.691   5.929   9.412 -0.8965  5.4611  0.0891
  701MOL0     H94629   3.892   5.868   9.554 -2.6132  1.0744  0.6035
  701MOL0     H94630   3.998   5.923   9.431 -0.0494 -0.7342  2.3143
  701MOL0     H94631   3.783   5.705   9.392 -1.1967  1.1828 -0.9236
  701MOL0     H94632   3.947   5.671   9.440  2.6917  0.5724 -1.2490
  701MOL0     H94633   3.997   5.687   9.034  2.0200  3.5751 -0.5338
  701MOL0     H94634   3.471   6.283   9.413 -1.4337 -1.0100 -0.0344
  701MOL0     H94635   3.243   6.255   9.510 -0.0813 -0.0268  0.2831
  702MOL0     O94636   0.859   8.140   0.532  0.4703  0.4883  0.3048
  702MOL0     C94637   0.905   8.032   0.574  0.4620 -0.0195 -0.0479
  702MOL0     O94638   0.835   7.923   0.616 -0.2974 -0.3028 -0.4780
  702MOL0     C94639   0.696   7.929   0.607  0.9987  0.1199 -0.0746
  702MOL0     C94640   0.624   7.857   0.510  0.5954  0.2686  0.3520
  702MOL0     C94641   0.482   7.872   0.498  0.1741  0.9782 -0.4280
  702MOL0     C94642   0.412   7.947   0.582  0.8840 -0.5949 -0.2299
  702MOL0     O94643   0.271   7.945   0.567 -0.1565  0.1694  0.4590
  702MOL0     C94644   0.197   8.044   0.632  0.5079 -0.2664  0.8433
  702MOL0     C94645   0.052   8.048   0.576  0.4261 -0.3640  0.1638
  702MOL0     C94646  -0.045   8.005   0.681 -0.3280 -0.2228  0.5823
  702MOL0     C94647  -0.185   8.002   0.618 -0.2121  0.1803  0.2262
  702MOL0     C94648  -0.299   7.951   0.705  0.7005  0.3613 -0.2698
  702MOL0     C94649  -0.343   8.050   0.822 -0.3729 -0.1778  0.6463
  702MOL0     C94650  -0.469   7.991   0.888 -0.5860  0.2173  0.1550
  702MOL0     C94651  -0.603   7.980   0.815  0.2472  1.2262 -0.1008
  702MOL0     N94652  -0.636   7.851   0.747  0.3131  0.6025 -0.0166
  702MOL0     C94653  -0.703   7.738   0.798  0.4398  0.6462 -0.1398
  702MOL0     C94654  -0.725   7.662   0.686 -0.4809 -0.0655  0.2702
  702MOL0     C94655  -0.798   7.536   0.683  0.8053  0.6654 -0.9722
  702MOL0     C94656  -0.947   7.565   0.737  0.0784  0.2110  0.0431
  702MOL0     C94657  -1.024   7.441   0.721 -0.0014 -0.1274 -0.5813
  702MOL0     C94658  -1.132   7.443   0.828  0.5021  0.0055  0.7950
  702MOL0     O94659  -1.250   7.511   0.776 -0.6175  0.0586  0.5214
  702MOL0     C94660  -1.370   7.474   0.819  0.5532 -0.3634 -0.1293
  702MOL0     C94661  -1.421   7.349   0.838 -0.6361 -0.6678 -0.4071
  702MOL0     C94662  -1.546   7.316   0.894  0.1458 -0.0566 -0.5057
  702MOL0     C94663  -1.580   7.171   0.897 -0.7185  0.3496  0.7347
  702MOL0     C94664  -1.620   7.431   0.949 -0.5731 -0.1868 -0.3025
  702MOL0     C94665  -1.753   7.412   1.014 -0.5616 -0.9809 -0.2071
  702MOL0     O94666  -1.827   7.516   1.000  0.4046  0.3054  1.4443
  702MOL0     C94667  -1.932   7.533   1.081  0.3911  0.1814 -0.0555
  702MOL0     C94668  -1.912   7.533   1.222  0.1789 -0.2722  0.9967
  702MOL0     C94669  -2.021   7.576   1.305  0.4530 -0.1858 -0.9501
  702MOL0     C94670  -2.149   7.612   1.254 -1.2352  0.2461  0.8088
  702MOL0     O94671  -2.252   7.656   1.332  0.1262 -0.7287 -0.7924
  702MOL0     C94672  -2.220   7.715   1.464 -0.4035 -0.1953 -0.2862
  702MOL0     C94673  -2.333   7.794   1.536 -0.0620  0.5822  1.2340
  702MOL0     C94674  -2.416   7.691   1.615  0.0660 -0.4393 -0.0445
  702MOL0     C94675  -2.537   7.755   1.687  0.9803  0.1113  0.1655
  702MOL0     C94676  -2.637   7.660   1.758  1.0188 -0.2540  0.7947
  702MOL0     C94677  -2.723   7.583   1.662  0.9062 -0.7322  0.6187
  702MOL0     C94678  -2.827   7.494   1.729 -0.3366  0.2486 -0.4376
  702MOL0     C94679  -2.870   7.386   1.634  0.1933  0.2548 -0.0493
  702MOL0    Cl94680  -2.949   7.454   1.486 -0.4362 -0.2995  0.5820
  702MOL0     C94681  -2.161   7.614   1.120  0.3750  0.7858  0.6933
  702MOL0     C94682  -2.057   7.575   1.032 -0.7223 -0.5031 -0.3413
  702MOL0     O94683  -1.783   7.318   1.074  0.2370  1.1213 -0.3248
  702MOL0     C94684  -1.575   7.564   0.913  0.1590 -0.4630 -0.8984
  702MOL0     C94685  -1.450   7.582   0.856 -0.1644 -0.7847  0.1514
  702MOL0     N94686  -0.668   7.722   0.579 -0.7998 -0.1307  0.4054
  702MOL0     N94687  -0.631   7.839   0.611 -0.3044  0.1677 -1.0564
  702MOL0     C94688   0.475   8.022   0.684 -0.7139  0.2781 -0.2676
  702MOL0     C94689   0.617   8.002   0.697  0.4973  0.3063  0.9207
  702MOL0     C94690   1.049   8.020   0.567  0.3017 -0.7348 -0.0154
  702MOL0     C94691   1.118   7.902   0.530 -0.7191 -0.0472  0.1159
  702MOL0     C94692   1.260   7.895   0.540  0.3919 -0.9625 -0.3704
  702MOL0     C94693   1.331   8.007   0.571  1.6644 -0.5952  0.0642
  702MOL0     O94694   1.466   7.989   0.577 -0.3162 -0.0063 -0.4713
  702MOL0     C94695   1.545   8.080   0.651 -0.6077 -0.4823 -0.5647
  702MOL0     C94696   1.691   8.047   0.641  0.8226  0.3174  0.4148
  702MOL0     C94697   1.746   8.020   0.508  0.7953 -0.1127 -0.1528
  702MOL0     C94698   1.727   8.130   0.404 -0.3994 -0.0113  0.2777
  702MOL0     C94699   1.656   8.082   0.284  0.0793  0.2190 -0.5815
  702MOL0     C94700   1.610   8.029   0.186 -0.3109  0.3921  0.1977
  702MOL0     C94701   1.262   8.120   0.612  0.4516 -0.3141 -0.2292
  702MOL0     C94702   1.121   8.126   0.617  0.4737 -0.8907  0.3130
  702MOL0     H94703   0.671   7.794   0.435 -2.2654 -2.0011  0.3166
  702MOL0     H94704   0.425   7.820   0.422 -1.3901 -1.6159  2.2874
  702MOL0     H94705   0.191   8.031   0.741  1.2063  1.4738  1.1302
  702MOL0     H94706   0.240   8.143   0.615 -4.7132  2.6664  2.5611
  702MOL0     H94707   0.028   8.150   0.546  1.9105 -0.2666 -0.8222
  702MOL0     H94708   0.041   7.987   0.486 -3.3795  3.0852 -2.0269
  702MOL0     H94709  -0.017   7.906   0.717 -1.9560 -0.8222  0.2809
  702MOL0     H94710  -0.031   8.079   0.760  0.4615  0.0626  0.1851
  702MOL0     H94711  -0.213   8.102   0.584 -2.2950  0.3290  2.0975
  702MOL0     H94712  -0.185   7.933   0.533  0.8720  0.6383 -0.1554
  702MOL0     H94713  -0.389   7.944   0.643  0.1224  1.0523  0.4701
  702MOL0     H94714  -0.271   7.854   0.749 -1.9321  0.3455  1.6215
  702MOL0     H94715  -0.262   8.079   0.888  1.4545 -0.1363 -1.4879
  702MOL0     H94716  -0.372   8.149   0.786  0.8253 -0.8928 -2.7202
  702MOL0     H94717  -0.443   7.894   0.931 -3.3471 -0.0890  1.3233
  702MOL0     H94718  -0.478   8.055   0.976 -1.4103 -1.0295  0.9979
  702MOL0     H94719  -0.604   8.058   0.738 -0.5754 -0.3116 -1.7216
  702MOL0     H94720  -0.680   8.005   0.889 -0.5629  0.4135 -0.6375
  702MOL0     H94721  -0.727   7.714   0.901 -0.6654 -0.1961 -0.5756
  702MOL0     H94722  -0.798   7.497   0.580 -0.9507 -2.7945  0.1846
  702MOL0     H94723  -0.741   7.467   0.747 -1.3522  0.6980  1.0815
  702MOL0     H94724  -1.001   7.646   0.686 -0.2065  0.2621  0.4131
  702MOL0     H94725  -0.929   7.604   0.838  0.4632 -0.9966  0.4629
  702MOL0     H94726  -0.960   7.357   0.750 -1.3328 -0.4016  1.7671
  702MOL0     H94727  -1.056   7.431   0.617  0.4020 -1.3256 -0.6027
  702MOL0     H94728  -1.097   7.495   0.918  1.6694  0.3599  0.1550
  702MOL0     H94729  -1.155   7.340   0.857  1.2631 -0.7811 -1.2270
  702MOL0     H94730  -1.368   7.277   0.776 -0.4512  0.2332 -1.3187
  702MOL0     H94731  -1.550   7.130   0.994 -1.3562  0.4030  0.9627
  702MOL0     H94732  -1.689   7.167   0.903 -0.6639  0.0760  1.7249
  702MOL0     H94733  -1.533   7.125   0.810 -2.4621  3.1290 -1.9091
  702MOL0     H94734  -1.820   7.485   1.256 -0.1208 -1.7600 -0.1769
  702MOL0     H94735  -2.009   7.561   1.412  2.1574  0.1885 -1.0521
  702MOL0     H94736  -2.185   7.630   1.524  0.6913  0.5361  0.1481
  702MOL0     H94737  -2.137   7.785   1.466 -0.4009 -0.2058  0.1300
  702MOL0     H94738  -2.292   7.862   1.611 -1.0701  0.7387  1.6532
  702MOL0     H94739  -2.405   7.841   1.467 -1.3508  0.1997  2.2805
  702MOL0     H94740  -2.354   7.638   1.688  2.4750  1.6212 -0.4527
  702MOL0     H94741  -2.463   7.629   1.539 -0.7026  0.6358 -0.4575
  702MOL0     H94742  -2.502   7.832   1.757  1.5453  1.6011 -1.6606
  702MOL0     H94743  -2.588   7.818   1.613  1.6225  0.3765 -0.0597
  702MOL0     H94744  -2.704   7.709   1.828 -1.1691 -0.9195 -0.7299
  702MOL0     H94745  -2.566   7.600   1.816  1.4817  1.0681  1.6253
  702MOL0     H94746  -2.769   7.660   1.599  3.0381 -0.3345 -0.5403
  702MOL0     H94747  -2.661   7.521   1.596 -0.1957  1.3338 -2.6002
  702MOL0     H94748  -2.919   7.544   1.761 -0.6424 -0.2373 -0.5484
  702MOL0     H94749  -2.774   7.450   1.814 -0.1526  2.1490  0.4778
  702MOL0     H94750  -2.944   7.323   1.685 -1.2154  0.7977 -1.3482
  702MOL0     H94751  -2.780   7.330   1.610 -0.8231 -0.9844 -1.1299
  702MOL0     H94752  -2.258   7.647   1.086 -0.6046 -0.2358  2.3828
  702MOL0     H94753  -2.064   7.566   0.924  2.1300  0.5698 -0.7021
  702MOL0     H94754  -1.628   7.652   0.948 -2.4062 -1.3468 -2.3049
  702MOL0     H94755  -1.417   7.682   0.829 -1.1373 -0.7926 -1.2081
  702MOL0     H94756   0.420   8.086   0.752  1.9519  0.3268  2.0265
  702MOL0     H94757   0.675   8.051   0.775  0.8209 -0.9517  1.4877
  702MOL0     H94758   1.065   7.814   0.494 -1.7230  0.0694  1.2473
  702MOL0     H94759   1.305   7.798   0.521  1.0072 -0.7258 -0.1595
  702MOL0     H94760   1.533   8.182   0.612 -0.4309 -0.2369  0.0110
  702MOL0     H94761   1.521   8.085   0.757 -2.9262  3.2639 -1.0789
  702MOL0     H94762   1.710   7.953   0.695  2.6514 -0.1263 -0.9107
  702MOL0     H94763   1.753   8.121   0.691  2.7602 -1.3442  0.5945
  702MOL0     H94764   1.703   7.927   0.469 -0.5992  0.4845 -0.0987
  702MOL0     H94765   1.852   8.005   0.528  0.6591 -2.0846 -0.6627
  702MOL0     H94766   1.825   8.174   0.384 -0.6101  0.8342  1.0298
  702MOL0     H94767   1.675   8.218   0.444 -0.7227 -0.0431 -0.0658
  702MOL0     H94768   1.572   7.983   0.097 -1.2718 -0.6689  1.1190
  702MOL0     H94769   1.321   8.209   0.628  1.7734 -1.1261 -0.4178
  702MOL0     H94770   1.070   8.220   0.639 -1.7917 -2.1122  0.5438
  703MOL0     O94771   3.122   5.114   4.118  0.2880  0.5032  0.0346
  703MOL0     C94772   3.168   5.073   4.012 -1.2632 -0.6234 -0.3424
  703MOL0     O94773   3.116   5.100   3.888  0.3162 -0.2268  0.1189
  703MOL0     C94774   2.981   5.138   3.890  0.3835  0.4161  0.6304
  703MOL0     C94775   2.939   5.242   3.799 -0.5584 -0.1830 -1.2314
  703MOL0     C94776   2.807   5.278   3.791  0.0198 -0.0053 -0.3750
  703MOL0     C94777   2.707   5.207   3.859  0.8011  0.3276  0.0601
  703MOL0     O94778   2.572   5.242   3.856 -0.2942 -0.2662 -0.0606
  703MOL0     C94779   2.522   5.279   3.731 -1.0592  0.1571  0.5519
  703MOL0     C94780   2.370   5.279   3.723 -0.1761 -0.2039 -0.9048
  703MOL0     C94781   2.337   5.322   3.579  0.6089  0.2330  0.3199
  703MOL0     C94782   2.179   5.297   3.545 -0.3609  0.2828 -0.5369
  703MOL0     C94783   2.143   5.346   3.407 -0.0028 -0.6000  0.4267
  703MOL0     C94784   2.105   5.497   3.414 -0.0232  0.2049  0.3106
  703MOL0     C94785   2.169   5.573   3.298  0.3161  0.3388  0.0809
  703MOL0     C94786   2.132   5.507   3.158 -0.0855  0.2620  0.0362
  703MOL0     N94787   1.990   5.479   3.128  0.4459 -0.3873 -0.0582
  703MOL0     C94788   1.900   5.582   3.108 -0.4154  0.6218  0.4492
  703MOL0     C94789   1.780   5.518   3.094 -0.0391  0.4892 -0.6395
  703MOL0     C94790   1.644   5.589   3.064  0.0128 -0.1520 -0.7357
  703MOL0     C94791   1.560   5.503   2.979  1.1122 -0.7041  0.0223
  703MOL0     C94792   1.530   5.564   2.839 -0.3952 -0.0199 -0.2461
  703MOL0     C94793   1.434   5.470   2.767 -0.6537 -0.0347 -0.4235
  703MOL0     O94794   1.375   5.555   2.668  0.5152  0.9227 -0.0941
  703MOL0     C94795   1.257   5.617   2.700 -0.1386 -1.1358 -0.1996
  703MOL0     C94796   1.152   5.554   2.768 -0.1320 -1.2068 -0.3248
  703MOL0     C94797   1.033   5.620   2.804  0.2115  0.2970 -1.2508
  703MOL0     C94798   0.917   5.527   2.851 -0.3034 -0.3324 -0.2913
  703MOL0     C94799   1.024   5.761   2.786 -0.1894  0.2682 -0.7915
  703MOL0     C94800   0.899   5.840   2.822 -0.2304 -0.2149  1.2831
  703MOL0     O94801   0.896   5.958   2.758 -0.1020  0.9844 -0.2112
  703MOL0     C94802   0.774   6.020   2.756  0.6788 -1.3197  0.4409
  703MOL0     C94803   0.649   5.960   2.724 -1.2005 -0.4522 -0.7537
  703MOL0     C94804   0.524   6.029   2.730 -0.2419  0.5334 -0.0454
  703MOL0     C94805   0.517   6.167   2.772 -0.3042  0.9523  0.1284
  703MOL0     O94806   0.414   6.250   2.797 -0.5441  0.0766 -0.2466
  703MOL0     C94807   0.277   6.215   2.799 -0.0520 -0.1255 -0.7740
  703MOL0     C94808   0.192   6.346   2.817  0.2713 -0.0800  0.2962
  703MOL0     C94809   0.199   6.397   2.960 -0.8514 -0.3342  0.3810
  703MOL0     C94810   0.102   6.309   3.040 -0.6809  0.2237  0.2225
  703MOL0     C94811   0.113   6.331   3.196  0.2859  0.6372  0.2507
  703MOL0     C94812   0.249   6.284   3.256 -0.0827 -0.6055  0.7572
  703MOL0     C94813   0.247   6.298   3.411 -0.5996  0.5121  0.0157
  703MOL0     C94814   0.371   6.225   3.477  0.7688 -0.9357  0.0335
  703MOL0    Cl94815   0.366   6.188   3.650 -0.0535  0.0297 -0.2164
  703MOL0     C94816   0.641   6.225   2.802 -0.4173 -0.2866 -0.9870
  703MOL0     C94817   0.760   6.154   2.798 -0.8510  0.9394  0.4856
  703MOL0     O94818   0.817   5.798   2.903 -0.2806 -0.1877  0.8333
  703MOL0     C94819   1.139   5.821   2.730 -1.1001 -0.0270  0.3575
  703MOL0     C94820   1.257   5.758   2.694  0.4862  0.9038 -0.5424
  703MOL0     N94821   1.795   5.386   3.132 -0.0536 -0.5264  0.7787
  703MOL0     N94822   1.920   5.365   3.154  0.2549 -0.0101 -0.2047
  703MOL0     C94823   2.742   5.095   3.930  0.5425 -0.1953 -0.1203
  703MOL0     C94824   2.875   5.069   3.951  0.0880  0.0570 -0.1499
  703MOL0     C94825   3.307   5.024   4.011  0.4640  0.2324 -0.1675
  703MOL0     C94826   3.383   5.017   3.884  0.0083 -0.5388 -0.5101
  703MOL0     C94827   3.507   4.955   3.873  0.2481 -0.4131 -0.4586
  703MOL0     C94828   3.568   4.891   3.984 -0.0580 -0.2140  0.8570
  703MOL0     O94829   3.681   4.832   3.951 -0.5801  0.1298 -0.3843
  703MOL0     C94830   3.749   4.759   4.048 -0.6419 -0.9298 -0.4653
  703MOL0     C94831   3.886   4.736   3.991 -0.2395  0.4490 -0.2856
  703MOL0     C94832   3.964   4.647   4.092 -0.4566 -0.1152 -0.1735
  703MOL0     C94833   4.070   4.564   4.009 -0.4870 -0.7473 -1.0056
  703MOL0     C94834   4.021   4.444   3.945  0.1714 -0.4798  0.2240
  703MOL0     C94835   3.973   4.339   3.901  0.1334 -0.3520 -0.2234
  703MOL0     C94836   3.493   4.889   4.101 -0.0408 -0.0310  0.1789
  703MOL0     C94837   3.363   4.948   4.120  0.3666  0.3347 -0.9739
  703MOL0     H94838   3.014   5.297   3.743 -0.6582  0.7315 -0.4898
  703MOL0     H94839   2.782   5.368   3.736 -2.1961 -1.9032 -2.7466
  703MOL0     H94840   2.547   5.383   3.710 -0.6907  0.1292  0.8631
  703MOL0     H94841   2.565   5.209   3.658  0.7959 -0.1216  1.8465
  703MOL0     H94842   2.342   5.176   3.748  3.3684 -0.3638  3.6739
  703MOL0     H94843   2.328   5.344   3.800  1.2729 -0.2829 -0.0108
  703MOL0     H94844   2.367   5.427   3.571 -1.3573  0.8528  0.5304
  703MOL0     H94845   2.394   5.258   3.512  0.1155  0.4150 -0.2874
  703MOL0     H94846   2.162   5.189   3.552 -3.8966  0.7356 -0.6235
  703MOL0     H94847   2.120   5.346   3.623 -0.8246  0.3976 -0.9596
  703MOL0     H94848   2.229   5.336   3.340 -0.4899  1.2858 -0.5286
  703MOL0     H94849   2.062   5.288   3.361 -1.8176 -1.6930  4.5256
  703MOL0     H94850   1.996   5.501   3.410 -0.0592 -1.1852 -1.0136
  703MOL0     H94851   2.132   5.553   3.504  2.8916 -1.5557  0.6736
  703MOL0     H94852   2.126   5.672   3.284 -1.3059 -0.6301 -2.4672
  703MOL0     H94853   2.277   5.566   3.313  0.0344 -0.0519  2.2909
  703MOL0     H94854   2.185   5.412   3.151  1.6613  1.2935 -1.6477
  703MOL0     H94855   2.177   5.574   3.084  0.5116 -0.9045 -0.6861
  703MOL0     H94856   1.918   5.688   3.093 -1.5578  0.5496 -1.9140
  703MOL0     H94857   1.587   5.605   3.156  0.0700 -0.7843 -0.5858
  703MOL0     H94858   1.668   5.685   3.017 -2.0210 -0.8021 -3.2933
  703MOL0     H94859   1.463   5.494   3.030  0.6533 -1.1646 -0.9114
  703MOL0     H94860   1.587   5.399   2.957  1.2061 -0.1970 -2.5023
  703MOL0     H94861   1.626   5.581   2.789  0.0043 -2.4867 -0.4471
  703MOL0     H94862   1.478   5.658   2.854 -2.0615 -0.9312 -0.0494
  703MOL0     H94863   1.357   5.422   2.829  0.0713 -0.0993  0.4324
  703MOL0     H94864   1.492   5.387   2.725 -0.9236 -0.7944  0.6547
  703MOL0     H94865   1.155   5.447   2.785  2.4829 -0.9760  1.1522
  703MOL0     H94866   0.928   5.496   2.955 -4.0111 -0.9301  0.0855
  703MOL0     H94867   0.819   5.577   2.845  0.9474  2.2749 -0.1658
  703MOL0     H94868   0.923   5.445   2.779  3.1552 -1.3791  0.9772
  703MOL0     H94869   0.657   5.854   2.702  3.3583 -0.2570 -0.9210
  703MOL0     H94870   0.433   5.972   2.714  0.8025 -0.9140 -1.1986
  703MOL0     H94871   0.239   6.171   2.706 -0.3208 -0.1591 -0.6479
  703MOL0     H94872   0.260   6.150   2.885 -0.9526  2.4438  1.1204
  703MOL0     H94873   0.238   6.417   2.748 -0.9942  1.1059  0.6304
  703MOL0     H94874   0.091   6.320   2.781  1.2592 -1.4883 -1.6576
  703MOL0     H94875   0.157   6.498   2.964  0.6068  0.8739 -5.5382
  703MOL0     H94876   0.303   6.410   2.991 -0.2421 -1.2516 -1.1526
  703MOL0     H94877   0.000   6.341   3.018 -0.6687 -0.3953 -0.7688
  703MOL0     H94878   0.119   6.202   3.028  1.1960  0.5437 -0.3595
  703MOL0     H94879   0.028   6.285   3.246 -0.6607  2.8169  0.7709
  703MOL0     H94880   0.111   6.440   3.208  0.5700  0.4819  2.0589
  703MOL0     H94881   0.266   6.181   3.226  1.5395  0.4978 -2.4789
  703MOL0     H94882   0.327   6.352   3.221 -0.2358 -0.8651 -0.0915
  703MOL0     H94883   0.152   6.256   3.446  0.1646 -1.5826 -0.3391
  703MOL0     H94884   0.243   6.399   3.455 -1.4601  1.1287 -1.4128
  703MOL0     H94885   0.466   6.280   3.474  0.3897 -0.2828 -0.4889
  703MOL0     H94886   0.389   6.135   3.417  1.9468 -1.6494  1.3988
  703MOL0     H94887   0.643   6.332   2.823  0.0959 -0.1269 -1.8282
  703MOL0     H94888   0.856   6.199   2.820  0.6151 -1.5881 -0.3927
  703MOL0     H94889   1.129   5.928   2.715  0.4431  0.0751 -0.0301
  703MOL0     H94890   1.324   5.818   2.634  1.9208 -0.0962  0.0229
  703MOL0     H94891   2.663   5.038   3.976 -0.1556  2.9888  3.1548
  703MOL0     H94892   2.893   4.978   4.008 -0.9110  1.7718  3.1431
  703MOL0     H94893   3.336   5.054   3.795 -1.4496 -0.5447  0.2267
  703MOL0     H94894   3.552   4.959   3.774 -1.8793 -1.9514 -1.5719
  703MOL0     H94895   3.755   4.805   4.147  0.3276 -0.3570 -0.7771
  703MOL0     H94896   3.705   4.660   4.066  0.0317 -1.3134 -0.8552
  703MOL0     H94897   3.938   4.832   3.980 -0.0686  0.3846 -0.0474
  703MOL0     H94898   3.877   4.694   3.891  3.5482  1.3688 -1.1424
  703MOL0     H94899   3.891   4.589   4.150 -0.8644 -0.2302 -0.7865
  703MOL0     H94900   4.014   4.713   4.163 -0.0880 -0.6246  0.0451
  703MOL0     H94901   4.165   4.548   4.060  0.3741  1.9229 -1.6122
  703MOL0     H94902   4.103   4.625   3.924 -3.0962  1.8678 -0.3061
  703MOL0     H94903   3.938   4.240   3.878 -0.4612 -0.5338  1.3218
  703MOL0     H94904   3.530   4.841   4.191 -0.7208  2.0840  1.6592
  703MOL0     H94905   3.315   4.949   4.218  3.2489 -1.2568  0.6156
  704MOL0     O94906   7.248  10.020   4.130 -0.1699  0.5715  0.5017
  704MOL0     C94907   7.364   9.992   4.157 -0.3994 -0.4833 -0.1011
  704MOL0     O94908   7.406   9.901   4.248 -0.3599  0.2562  0.4111
  704MOL0     C94909   7.320   9.829   4.326 -0.0075  0.3749 -0.1630
  704MOL0     C94910   7.370   9.700   4.375  0.6457 -0.5221  0.2798
  704MOL0     C94911   7.296   9.612   4.456  0.4791 -0.1946 -1.1025
  704MOL0     C94912   7.163   9.642   4.480 -0.3752 -0.7718 -0.0500
  704MOL0     O94913   7.070   9.570   4.549  0.1751  0.7769  0.1841
  704MOL0     C94914   7.115   9.524   4.674 -0.0017  0.4474  0.3571
  704MOL0     C94915   7.080   9.372   4.691  0.8062  0.0317  0.5832
  704MOL0     C94916   6.928   9.364   4.712  0.1626 -0.0122 -0.0164
  704MOL0     C94917   6.869   9.226   4.682  0.4168  0.9278 -0.5285
  704MOL0     C94918   6.931   9.103   4.759 -0.7703 -0.6027 -0.2674
  704MOL0     C94919   6.853   8.975   4.734  0.2941  0.1686  1.2453
  704MOL0     C94920   6.902   8.849   4.817  0.4131  0.5989  1.1020
  704MOL0     C94921   6.947   8.879   4.955  0.2647  0.2836 -0.1855
  704MOL0     N94922   6.944   8.768   5.046 -0.4629  0.2923  0.2169
  704MOL0     C94923   7.043   8.736   5.133  0.0407 -0.2624  0.7526
  704MOL0     C94924   7.006   8.618   5.185  0.4988 -0.3549  0.2372
  704MOL0     C94925   7.091   8.514   5.251  0.8856 -0.4629  0.3990
  704MOL0     C94926   7.094   8.540   5.405  0.6264  0.7458  0.9304
  704MOL0     C94927   6.955   8.526   5.477 -0.4889 -0.9146 -0.0875
  704MOL0     C94928   6.917   8.381   5.507 -0.1035  0.0775 -0.1924
  704MOL0     O94929   6.774   8.384   5.555 -0.2460  0.1565  0.6282
  704MOL0     C94930   6.696   8.314   5.467 -0.5495  0.1725  0.0140
  704MOL0     C94931   6.664   8.373   5.346  0.1469 -0.6390  1.0074
  704MOL0     C94932   6.562   8.316   5.273  0.4427 -0.0648 -0.0627
  704MOL0     C94933   6.517   8.394   5.149 -0.6648  0.0153 -0.2615
  704MOL0     C94934   6.503   8.195   5.318 -0.0935 -0.2161  0.4207
  704MOL0     C94935   6.376   8.143   5.258  0.2727  0.2304 -0.1338
  704MOL0     O94936   6.352   8.013   5.293  0.8177  0.1247  0.4449
  704MOL0     C94937   6.236   7.953   5.247 -0.1311  0.5785  0.2273
  704MOL0     C94938   6.244   7.834   5.178 -0.5710 -0.5691  0.3079
  704MOL0     C94939   6.124   7.770   5.134  0.5312  0.7946  0.0708
  704MOL0     C94940   6.002   7.823   5.166  0.4952 -0.4030 -0.3341
  704MOL0     O94941   5.895   7.750   5.127  0.0820 -0.1184  0.4634
  704MOL0     C94942   5.767   7.813   5.138 -0.2801 -0.0037 -0.0822
  704MOL0     C94943   5.671   7.728   5.063  0.5075  0.7954 -0.9520
  704MOL0     C94944   5.665   7.585   5.134  0.1704 -0.3243 -0.0400
  704MOL0     C94945   5.562   7.494   5.075  0.5227  0.4299  0.3023
  704MOL0     C94946   5.537   7.372   5.167  0.4208 -0.5690  0.3207
  704MOL0     C94947   5.426   7.274   5.123  1.1338 -0.0753  0.9124
  704MOL0     C94948   5.425   7.236   4.966  0.7292  0.7045 -0.0167
  704MOL0     C94949   5.288   7.177   4.924  0.3981 -0.1149  0.4302
  704MOL0    Cl94950   5.183   7.309   4.871 -0.2387  0.5832  0.3232
  704MOL0     C94951   5.998   7.942   5.245  0.8767 -0.1433  0.4116
  704MOL0     C94952   6.115   8.004   5.281  0.0421 -0.1992 -0.1060
  704MOL0     O94953   6.312   8.203   5.172 -0.0948 -0.2927 -0.5155
  704MOL0     C94954   6.552   8.136   5.441  0.4172 -0.6374 -0.1348
  704MOL0     C94955   6.645   8.196   5.515  0.0883  0.6989  0.0272
  704MOL0     N94956   6.878   8.586   5.143  0.6336 -0.4695 -0.7571
  704MOL0     N94957   6.846   8.672   5.056 -1.1315 -0.7526  0.3319
  704MOL0     C94958   7.110   9.760   4.424 -0.8280  0.0794 -0.2035
  704MOL0     C94959   7.185   9.864   4.359  0.6835 -0.0701  0.3856
  704MOL0     C94960   7.458  10.094   4.100 -1.1175  0.7398  0.2374
  704MOL0     C94961   7.421  10.208   4.022  0.3696 -0.2141  0.8079
  704MOL0     C94962   7.519  10.300   3.972 -0.1846  0.1498 -0.1935
  704MOL0     C94963   7.655  10.273   3.997 -0.1324  0.1477 -0.5685
  704MOL0     O94964   7.755  10.353   3.937 -0.0356  0.6420 -0.5720
  704MOL0     C94965   7.847  10.412   4.026 -0.8376  0.5092  0.5919
  704MOL0     C94966   7.949  10.493   3.940 -0.6958  0.2359  0.5401
  704MOL0     C94967   8.051  10.415   3.855  0.6757  0.1162  0.1205
  704MOL0     C94968   8.186  10.485   3.852  0.7293  0.2644 -0.3328
  704MOL0     C94969   8.281  10.420   3.765 -0.4455  0.5391  1.0908
  704MOL0     C94970   8.351  10.357   3.686  0.2938  0.1740  0.3257
  704MOL0     C94971   7.689  10.159   4.063  1.1420 -0.8705  1.0064
  704MOL0     C94972   7.598  10.072   4.117  0.5179 -0.9523 -0.1272
  704MOL0     H94973   7.470   9.664   4.353  0.3682 -0.5292 -1.0446
  704MOL0     H94974   7.346   9.521   4.485 -0.0842 -0.5135 -1.1125
  704MOL0     H94975   7.224   9.529   4.681  0.2698 -2.7156 -0.0760
  704MOL0     H94976   7.066   9.578   4.755 -1.4435 -1.0969  0.5838
  704MOL0     H94977   7.116   9.318   4.603 -1.4226  1.7995 -1.5589
  704MOL0     H94978   7.135   9.321   4.771 -1.7436 -1.7407  1.3318
  704MOL0     H94979   6.893   9.389   4.813 -3.3546 -0.9468 -0.8531
  704MOL0     H94980   6.869   9.436   4.656 -0.8112  0.2483  1.2886
  704MOL0     H94981   6.760   9.236   4.689  0.3330  2.0069 -2.5568
  704MOL0     H94982   6.878   9.196   4.578 -0.6116  1.5008 -0.8001
  704MOL0     H94983   7.031   9.070   4.727 -0.9767 -1.3508 -0.1565
  704MOL0     H94984   6.931   9.135   4.863  1.0928  0.1256 -0.4490
  704MOL0     H94985   6.755   8.992   4.780 -0.5994 -0.3767 -0.3804
  704MOL0     H94986   6.836   8.960   4.627  1.5230  2.3229  0.7070
  704MOL0     H94987   6.816   8.782   4.821 -1.7604  3.1674  0.6983
  704MOL0     H94988   6.981   8.809   4.754 -1.5461 -2.7316  0.5439
  704MOL0     H94989   6.873   8.951   4.992 -0.5113 -0.6796  0.1927
  704MOL0     H94990   7.043   8.931   4.954 -0.9502  2.7038 -0.3227
  704MOL0     H94991   7.135   8.794   5.139 -0.2498  0.2256  0.5270
  704MOL0     H94992   7.054   8.414   5.228 -0.4085 -0.0883  0.7520
  704MOL0     H94993   7.195   8.512   5.219  0.7073  1.2043 -0.3817
  704MOL0     H94994   7.139   8.640   5.411 -0.6544  1.2658  2.4723
  704MOL0     H94995   7.158   8.466   5.454 -0.7124 -2.4982 -1.8479
  704MOL0     H94996   6.879   8.573   5.414 -0.2091 -0.0377  0.2232
  704MOL0     H94997   6.947   8.570   5.576 -1.4753 -1.4409  0.0840
  704MOL0     H94998   6.975   8.340   5.590  0.1691 -0.0537 -0.4428
  704MOL0     H94999   6.932   8.312   5.423  2.8383  0.5075 -0.1536
  704MOL0     H95000   6.706   8.467   5.312 -1.1045 -0.2151  0.5775
  704MOL0     H95001   6.431   8.453   5.183 -1.3754 -0.7579 -0.6734
  704MOL0     H95002   6.602   8.458   5.123  0.5948 -1.2043  0.7123
  704MOL0     H95003   6.505   8.331   5.061 -0.5527 -0.9273  0.3847
  704MOL0     H95004   6.338   7.787   5.154  0.7991  0.9834  2.2891
  704MOL0     H95005   6.118   7.685   5.068 -2.7728  0.2253  0.9214
  704MOL0     H95006   5.753   7.827   5.246  0.5419 -1.8147  0.3002
  704MOL0     H95007   5.772   7.911   5.091  0.5688 -0.5328 -1.1387
  704MOL0     H95008   5.570   7.769   5.058 -1.3118 -3.2032 -0.9068
  704MOL0     H95009   5.713   7.715   4.963 -2.1246 -0.4600 -1.9896
  704MOL0     H95010   5.646   7.593   5.241  1.4877 -0.8114  0.2452
  704MOL0     H95011   5.763   7.540   5.120  0.5401  0.7965 -1.3244
  704MOL0     H95012   5.469   7.549   5.062  2.7581  4.4439 -0.5273
  704MOL0     H95013   5.602   7.459   4.980  1.1181  1.8160  0.0127
  704MOL0     H95014   5.501   7.403   5.265 -2.6973 -2.0621 -0.2340
  704MOL0     H95015   5.631   7.316   5.169  0.3828 -0.7075 -0.8935
  704MOL0     H95016   5.431   7.183   5.183  2.2204 -0.2547  0.5794
  704MOL0     H95017   5.331   7.324   5.142  0.1256 -0.9524 -1.4725
  704MOL0     H95018   5.492   7.152   4.945 -0.9646 -0.3374 -1.5998
  704MOL0     H95019   5.439   7.329   4.910 -3.8201  1.1035 -0.8709
  704MOL0     H95020   5.242   7.142   5.017  0.0905  2.2473  1.2445
  704MOL0     H95021   5.299   7.102   4.846 -2.1579 -1.9884  1.7269
  704MOL0     H95022   5.909   7.988   5.286  0.7758 -0.8685  1.0297
  704MOL0     H95023   6.122   8.098   5.334  2.0471 -0.4135  0.1021
  704MOL0     H95024   6.492   8.060   5.489  3.3274 -1.6975  2.0949
  704MOL0     H95025   6.654   8.167   5.619 -0.7480  0.0125 -0.0788
  704MOL0     H95026   7.006   9.780   4.447 -1.3131 -0.0662 -2.1557
  704MOL0     H95027   7.144   9.962   4.339 -2.3100 -1.2844  0.1043
  704MOL0     H95028   7.318  10.242   4.013  1.1710  2.0931 -0.6581
  704MOL0     H95029   7.488  10.374   3.899  0.2138  2.8120  2.1564
  704MOL0     H95030   7.794  10.481   4.093 -1.9026  0.3305 -0.0442
  704MOL0     H95031   7.906  10.335   4.075 -0.0058  1.4994  1.1825
  704MOL0     H95032   8.000  10.556   4.014 -2.6199 -0.0555  2.2050
  704MOL0     H95033   7.895  10.570   3.885  2.3855  4.2637  2.6196
  704MOL0     H95034   8.009  10.402   3.755  3.1235 -1.8980 -0.7518
  704MOL0     H95035   8.069  10.320   3.906  1.1330  0.0674 -0.1278
  704MOL0     H95036   8.223  10.489   3.954  0.8512  3.2556 -0.3849
  704MOL0     H95037   8.178  10.590   3.820 -0.0711  0.0004 -1.0359
  704MOL0     H95038   8.409  10.301   3.616  0.6285 -0.9450  1.4548
  704MOL0     H95039   7.790  10.121   4.059  1.0254 -1.2579 -3.6478
  704MOL0     H95040   7.630   9.988   4.177 -0.6769 -0.1063  1.7766
  705MOL0     O95041   9.923  10.592   0.623  0.0662 -0.7573  0.5383
  705MOL0     C95042   9.945  10.557   0.738 -0.3237  0.4789 -0.2084
  705MOL0     O95043   9.878  10.463   0.802  0.0852 -0.0148 -0.4892
  705MOL0     C95044   9.778  10.407   0.727 -0.1970 -0.2975  1.4655
  705MOL0     C95045   9.801  10.278   0.672  0.2743  0.4048  0.3737
  705MOL0     C95046   9.689  10.222   0.599 -0.5736  0.0920  0.1644
  705MOL0     C95047   9.560  10.279   0.601 -0.3061  0.4326 -0.8875
  705MOL0     O95048   9.459  10.198   0.545 -0.4603  0.3535  0.7846
  705MOL0     C95049   9.329  10.248   0.555 -0.1114  0.5787  0.2428
  705MOL0     C95050   9.237  10.151   0.470 -0.0716  0.5743 -0.4357
  705MOL0     C95051   9.088  10.191   0.478  0.5725 -0.2818  0.5124
  705MOL0     C95052   9.033  10.211   0.624 -0.5676  0.0271  0.1007
  705MOL0     C95053   8.882  10.207   0.632 -0.0535 -0.8713  0.3059
  705MOL0     C95054   8.814  10.327   0.561  0.3842  0.2286  0.7324
  705MOL0     C95055   8.669  10.324   0.601 -0.7213 -0.9075  0.4286
  705MOL0     C95056   8.602  10.451   0.555 -0.5081 -0.7282  0.3847
  705MOL0     N95057   8.536  10.426   0.430 -0.0213  0.0481  0.4269
  705MOL0     C95058   8.396  10.409   0.413  0.5901 -0.0973 -0.0509
  705MOL0     C95059   8.383  10.403   0.276 -1.0502  0.3794 -0.1446
  705MOL0     C95060   8.260  10.363   0.199  0.2473  0.5740 -0.8289
  705MOL0     C95061   8.146  10.448   0.220 -0.5704 -0.6849 -0.1796
  705MOL0     C95062   8.163  10.577   0.148  0.2660  0.1591  0.0931
  705MOL0     C95063   8.051  10.674   0.156 -0.9539 -0.1628 -0.1879
  705MOL0     O95064   8.079  10.744   0.276  0.2373 -0.4706  0.1442
  705MOL0     C95065   7.971  10.783   0.359  0.4585 -0.0793  0.1636
  705MOL0     C95066   7.833  10.773   0.323 -0.1256  0.3427  0.5739
  705MOL0     C95067   7.728  10.805   0.411 -0.4425  0.1973  0.4158
  705MOL0     C95068   7.582  10.775   0.374  0.2614  0.0634  0.3350
  705MOL0     C95069   7.762  10.869   0.527  0.2618 -1.0353  0.3089
  705MOL0     C95070   7.658  10.923   0.617 -0.6417  0.1883  0.4682
  705MOL0     O95071   7.527  10.906   0.599  0.6481  0.1765  0.3515
  705MOL0     C95072   7.430  10.957   0.681  0.6743  0.8193 -1.1152
  705MOL0     C95073   7.443  10.976   0.816  0.4611  1.8667  0.5671
  705MOL0     C95074   7.345  11.034   0.889 -0.4970 -0.1657 -0.7713
  705MOL0     C95075   7.215  11.044   0.838  0.6985 -0.1083  0.3252
  705MOL0     O95076   7.112  11.103   0.904  1.9602 -0.2070  0.1058
  705MOL0     C95077   7.106  11.093   1.043  0.1651  0.3450  0.6593
  705MOL0     C95078   6.965  11.144   1.094 -0.3815 -0.4496 -0.1046
  705MOL0     C95079   6.953  11.107   1.247 -0.4561 -0.1498 -0.4699
  705MOL0     C95080   6.863  11.221   1.296  0.3586 -0.4433 -0.2837
  705MOL0     C95081   6.865  11.217   1.452 -0.0102  0.3594  0.1944
  705MOL0     C95082   6.796  11.335   1.531 -0.0999  0.3382 -0.3806
  705MOL0     C95083   6.805  11.299   1.679  0.4177 -0.4721 -0.5085
  705MOL0     C95084   6.691  11.203   1.714  0.6701  0.4638 -0.4585
  705MOL0    Cl95085   6.529  11.269   1.685  0.2191  0.3299 -0.1038
  705MOL0     C95086   7.188  11.005   0.706  0.3712  0.0909 -0.0443
  705MOL0     C95087   7.301  10.969   0.624 -0.1996  0.3545 -0.0958
  705MOL0     O95088   7.706  10.988   0.710  0.0200 -0.0689 -0.8157
  705MOL0     C95089   7.900  10.878   0.568 -0.7005  0.6700 -0.7238
  705MOL0     C95090   8.002  10.844   0.479 -0.2818 -1.0479 -0.3079
  705MOL0     N95091   8.498  10.437   0.213 -0.9315  0.6409 -0.9121
  705MOL0     N95092   8.595  10.444   0.304 -0.3454  0.4149 -0.0593
  705MOL0     C95093   9.547  10.405   0.664  0.3572  0.1563  0.9942
  705MOL0     C95094   9.653  10.462   0.724  0.5390  0.3727 -0.9979
  705MOL0     C95095  10.069  10.625   0.801 -0.2177 -0.2108 -0.7761
  705MOL0     C95096  10.119  10.580   0.928  0.3621 -0.0876 -1.4641
  705MOL0     C95097  10.238  10.637   0.976  0.1549  0.3328  0.4614
  705MOL0     C95098  10.316  10.723   0.894  0.9221 -0.1466  0.1231
  705MOL0     O95099  10.437  10.766   0.936 -0.7639 -0.3176  0.0490
  705MOL0     C95100  10.481  10.739   1.067  0.4323 -0.6964  0.6405
  705MOL0     C95101  10.625  10.790   1.108  1.0007 -0.2820 -0.2949
  705MOL0     C95102  10.744  10.713   1.048 -0.1916  1.2295 -0.4363
  705MOL0     C95103  10.887  10.716   1.113 -0.5902  0.3836  0.0511
  705MOL0     C95104  10.979  10.651   1.029 -0.3095  0.5118 -0.5592
  705MOL0     C95105  11.046  10.604   0.936 -0.2876 -0.3372 -0.7608
  705MOL0     C95106  10.271  10.766   0.773  0.3378 -0.3760  0.3028
  705MOL0     C95107  10.141  10.725   0.732 -0.1544  0.0691  0.4390
  705MOL0     H95108   9.890  10.217   0.688 -0.9954 -1.3063  1.2088
  705MOL0     H95109   9.711  10.136   0.538  0.6829  0.4106  0.1236
  705MOL0     H95110   9.294  10.239   0.658 -0.2057 -0.5218  0.1180
  705MOL0     H95111   9.318  10.350   0.515 -2.0130 -0.8116 -3.2202
  705MOL0     H95112   9.255  10.157   0.362 -1.4072  0.5005 -0.6806
  705MOL0     H95113   9.239  10.046   0.500 -1.4579 -0.4772 -3.5283
  705MOL0     H95114   9.070  10.292   0.442  1.0842 -0.6837 -0.9544
  705MOL0     H95115   9.020  10.121   0.428 -0.0924 -0.0122  1.0271
  705MOL0     H95116   9.078  10.128   0.681 -0.7429 -1.1145 -1.3647
  705MOL0     H95117   9.070  10.308   0.658 -0.3348  0.3172 -0.9722
  705MOL0     H95118   8.850  10.113   0.585 -0.1351 -1.2072  1.0199
  705MOL0     H95119   8.864  10.207   0.739  2.1829  1.8201  0.7840
  705MOL0     H95120   8.861  10.418   0.600 -3.3422  1.7184  2.2020
  705MOL0     H95121   8.821  10.312   0.453 -1.5774  1.1807  0.4377
  705MOL0     H95122   8.614  10.233   0.572 -2.8663  1.0553 -2.1992
  705MOL0     H95123   8.659  10.319   0.710  1.5470 -1.1879  0.6556
  705MOL0     H95124   8.673  10.534   0.551  2.0138 -2.7109  1.4206
  705MOL0     H95125   8.525  10.475   0.629 -2.0808  0.1857 -1.4574
  705MOL0     H95126   8.319  10.373   0.481 -0.5442  0.0695 -1.2116
  705MOL0     H95127   8.293  10.357   0.095  3.6171 -2.1556  0.1988
  705MOL0     H95128   8.233  10.258   0.214  1.1335  0.3781 -0.5384
  705MOL0     H95129   8.128  10.457   0.327  2.3030 -0.9127  0.3808
  705MOL0     H95130   8.057  10.402   0.175 -1.7098 -0.0297  1.3189
  705MOL0     H95131   8.178  10.556   0.042 -1.5900  4.0746 -1.1264
  705MOL0     H95132   8.261  10.621   0.173  0.6410 -2.1246  3.3337
  705MOL0     H95133   7.954  10.626   0.169 -1.9329  2.2497  2.2177
  705MOL0     H95134   8.051  10.747   0.075 -2.7918 -1.3817 -1.3578
  705MOL0     H95135   7.815  10.730   0.226 -0.7181  2.1134 -0.1439
  705MOL0     H95136   7.539  10.691   0.430  1.9699 -1.0203  0.1004
  705MOL0     H95137   7.517  10.863   0.367 -1.8314 -1.4602 -0.4930
  705MOL0     H95138   7.587  10.741   0.270 -0.6591  2.0789 -0.3993
  705MOL0     H95139   7.538  10.952   0.862  0.5744  1.0824 -0.0608
  705MOL0     H95140   7.354  11.053   0.995 -0.0515 -3.5277 -0.0873
  705MOL0     H95141   7.124  10.990   1.076  2.1259  1.5061  3.7155
  705MOL0     H95142   7.190  11.151   1.083 -0.2842  0.1328  1.9492
  705MOL0     H95143   6.960  11.249   1.065  1.9132 -0.5293 -1.0275
  705MOL0     H95144   6.885  11.091   1.040  1.0032 -2.5747 -0.2044
  705MOL0     H95145   7.052  11.112   1.292 -1.6641  0.8673  2.3278
  705MOL0     H95146   6.906  11.009   1.256  2.0572 -1.2312  2.5668
  705MOL0     H95147   6.908  11.318   1.275  1.7754 -1.3484 -1.7170
  705MOL0     H95148   6.768  11.205   1.244  1.0322 -1.0869 -1.3709
  705MOL0     H95149   6.966  11.220   1.494  0.7152 -1.8698 -1.2095
  705MOL0     H95150   6.828  11.116   1.475  0.5242 -1.6676 -6.0290
  705MOL0     H95151   6.849  11.430   1.518  0.9559 -0.1426  0.2824
  705MOL0     H95152   6.694  11.341   1.492  0.3340 -0.3753 -1.6940
  705MOL0     H95153   6.779  11.377   1.752 -1.5350  1.1874 -2.8254
  705MOL0     H95154   6.904  11.264   1.707  1.5515  1.4187 -1.9379
  705MOL0     H95155   6.701  11.178   1.820  2.3834  3.5018  0.2114
  705MOL0     H95156   6.700  11.106   1.664  1.7817 -0.1819  0.9133
  705MOL0     H95157   7.088  11.018   0.667  0.5650  2.0025 -0.0141
  705MOL0     H95158   7.278  10.943   0.522  0.2024 -1.7040  0.3005
  705MOL0     H95159   7.927  10.909   0.668  1.9879 -2.4451 -0.3140
  705MOL0     H95160   8.107  10.847   0.507  0.8251 -1.4224 -3.8779
  705MOL0     H95161   9.456  10.464   0.657  1.2833  1.4354 -1.9005
  705MOL0     H95162   9.640  10.564   0.760 -0.0053  0.1853 -0.6616
  705MOL0     H95163  10.055  10.516   0.987 -0.3912  0.7409 -1.3607
  705MOL0     H95164  10.256  10.626   1.083  0.1873  1.4194  0.5830
  705MOL0     H95165  10.414  10.782   1.142  0.9558  0.0159  0.7202
  705MOL0     H95166  10.472  10.631   1.081 -2.1287 -0.5229  0.7691
  705MOL0     H95167  10.634  10.781   1.217  0.8175 -1.4962 -0.3571
  705MOL0     H95168  10.627  10.895   1.078  0.9749 -0.5451 -1.2313
  705MOL0     H95169  10.759  10.758   0.949  1.8884  1.2454 -0.1647
  705MOL0     H95170  10.703  10.612   1.034 -1.0770  1.7025 -1.3143
  705MOL0     H95171  10.892  10.652   1.202  1.9679  0.5591  0.0913
  705MOL0     H95172  10.928  10.814   1.137  0.4698  0.1836 -0.8792
  705MOL0     H95173  11.095  10.568   0.848  1.6560 -0.1940  0.2101
  705MOL0     H95174  10.326  10.832   0.707  0.7525 -1.2448 -0.2457
  705MOL0     H95175  10.088  10.763   0.645 -1.1026 -0.9629  0.5377
  706MOL0     O95176  10.426   7.434   2.568  0.1807 -0.0885 -0.3193
  706MOL0     C95177  10.374   7.323   2.552 -0.2086 -0.3543 -0.2405
  706MOL0     O95178  10.265   7.286   2.620 -0.0564  0.3112 -0.2904
  706MOL0     C95179  10.187   7.363   2.713  0.1612  1.6987  0.5685
  706MOL0     C95180  10.219   7.498   2.754 -0.0371  0.0237 -0.4167
  706MOL0     C95181  10.134   7.559   2.848 -0.0692 -0.3414  0.5585
  706MOL0     C95182  10.013   7.507   2.884  0.4954  0.3570 -0.2909
  706MOL0     O95183   9.928   7.566   2.973  0.5053 -0.7044 -0.3666
  706MOL0     C95184   9.942   7.707   2.997  0.5394 -0.6255  0.8018
  706MOL0     C95185   9.823   7.747   3.084 -0.2261  0.1657 -0.3882
  706MOL0     C95186   9.814   7.659   3.207 -0.1615  0.7774  0.0324
  706MOL0     C95187   9.725   7.722   3.313 -0.3289 -0.0371 -0.1207
  706MOL0     C95188   9.716   7.617   3.435 -0.0877  0.0107 -0.6913
  706MOL0     C95189   9.613   7.496   3.415  0.1914 -0.1832 -0.5790
  706MOL0     C95190   9.589   7.419   3.540  0.1774  0.5874 -0.8172
  706MOL0     C95191   9.478   7.318   3.520  0.1853  0.0666  0.0273
  706MOL0     N95192   9.347   7.382   3.497  0.8316 -0.3139 -0.2344
  706MOL0     C95193   9.271   7.446   3.591  0.1761  0.0310  0.0818
  706MOL0     C95194   9.155   7.484   3.526  0.3829 -0.5184 -0.6408
  706MOL0     C95195   9.027   7.545   3.583 -0.3181  0.2851  0.2299
  706MOL0     C95196   8.904   7.517   3.504  0.3437  0.8181  0.4355
  706MOL0     C95197   8.778   7.576   3.570 -0.4186  0.3394 -0.4400
  706MOL0     C95198   8.663   7.553   3.466  0.2666 -0.3329  0.2689
  706MOL0     O95199   8.539   7.588   3.542 -0.5905 -0.5082  0.2872
  706MOL0     C95200   8.416   7.577   3.482 -0.6389 -0.4204  0.2525
  706MOL0     C95201   8.399   7.542   3.352 -0.8928 -0.4374  0.6562
  706MOL0     C95202   8.278   7.526   3.291 -0.2364 -0.3387 -0.8382
  706MOL0     C95203   8.282   7.499   3.141  0.0720 -0.5409 -0.1156
  706MOL0     C95204   8.160   7.548   3.368 -0.3231  1.1538  1.0413
  706MOL0     C95205   8.018   7.543   3.316 -0.0528  0.6816 -0.1492
  706MOL0     O95206   7.917   7.571   3.412  0.6844  0.0724  0.6170
  706MOL0     C95207   7.792   7.601   3.367  0.0998  0.7346  0.7693
  706MOL0     C95208   7.751   7.691   3.257 -0.3280 -0.0449  0.2670
  706MOL0     C95209   7.620   7.708   3.234 -0.1705  0.0480  0.7854
  706MOL0     C95210   7.513   7.657   3.309 -0.8595 -0.8405 -0.6944
  706MOL0     O95211   7.383   7.693   3.279 -0.5622  0.4647 -0.1665
  706MOL0     C95212   7.278   7.592   3.262 -0.2101 -0.5152  0.5276
  706MOL0     C95213   7.145   7.651   3.199 -0.0518  0.3359 -0.5450
  706MOL0     C95214   7.153   7.718   3.062 -0.9202  0.3766 -0.1614
  706MOL0     C95215   7.013   7.756   3.011  0.5354  0.8482 -0.4655
  706MOL0     C95216   7.032   7.804   2.877  0.2229 -0.2907  0.0830
  706MOL0     C95217   7.071   7.953   2.868  0.0260 -0.0195  0.5945
  706MOL0     C95218   7.063   7.984   2.719  0.4858 -0.2391  0.6156
  706MOL0     C95219   7.050   8.134   2.707 -0.5435 -0.3473  0.2182
  706MOL0    Cl95220   7.177   8.223   2.775  0.4133 -0.1686  0.1940
  706MOL0     C95221   7.545   7.566   3.414 -0.7558 -0.2790 -0.0815
  706MOL0     C95222   7.681   7.543   3.440  0.0399 -0.1104 -0.5599
  706MOL0     O95223   8.003   7.508   3.197  0.0928  0.9867 -0.7939
  706MOL0     C95224   8.182   7.566   3.508 -0.5539 -0.4904  0.1746
  706MOL0     C95225   8.303   7.586   3.563 -0.7448 -0.6476 -0.1001
  706MOL0     N95226   9.165   7.445   3.400 -0.3948 -0.6037 -0.0677
  706MOL0     N95227   9.273   7.387   3.388 -0.3183  0.0085  0.6470
  706MOL0     C95228   9.984   7.374   2.846 -0.1169  0.3469  0.1676
  706MOL0     C95229  10.067   7.300   2.768 -0.7998  0.7099  0.7814
  706MOL0     C95230  10.439   7.221   2.459 -0.0845 -0.2965  0.2024
  706MOL0     C95231  10.364   7.106   2.425 -0.4152 -0.6228 -0.5551
  706MOL0     C95232  10.418   7.011   2.337  0.0871  0.3814 -0.0085
  706MOL0     C95233  10.548   7.024   2.291  0.0584 -0.6808 -0.1299
  706MOL0     O95234  10.613   6.922   2.222 -0.1486 -0.5709  0.3334
  706MOL0     C95235  10.540   6.821   2.157 -0.2185 -0.6082 -0.0362
  706MOL0     C95236  10.633   6.783   2.027 -0.4534 -0.4746  0.6754
  706MOL0     C95237  10.724   6.894   1.960 -0.1377  0.0136 -0.4421
  706MOL0     C95238  10.773   6.858   1.816 -0.5578 -0.1074  0.4438
  706MOL0     C95239  10.864   6.740   1.804  0.3568 -1.0706  0.3073
  706MOL0     C95240  10.940   6.650   1.804 -0.0057  1.1010  0.5262
  706MOL0     C95241  10.626   7.130   2.332 -0.1485 -0.5065 -0.5123
  706MOL0     C95242  10.575   7.235   2.410 -0.2409 -0.1462 -0.0572
  706MOL0     H95243  10.312   7.544   2.722  0.6809 -1.5595 -0.7211
  706MOL0     H95244  10.174   7.654   2.883 -0.5661  0.1753 -0.2192
  706MOL0     H95245  10.031   7.739   3.052  0.2110  0.1196  0.9179
  706MOL0     H95246   9.950   7.750   2.898 -0.2178 -1.2470  0.4528
  706MOL0     H95247   9.851   7.850   3.110 -0.8324  0.6675 -1.6105
  706MOL0     H95248   9.729   7.740   3.029 -0.9762 -0.8893  0.9842
  706MOL0     H95249   9.769   7.563   3.181  1.4799  0.8063 -3.6375
  706MOL0     H95250   9.907   7.634   3.259 -0.3888  0.7104  0.4031
  706MOL0     H95251   9.776   7.814   3.344  1.4535 -0.6152 -1.2056
  706MOL0     H95252   9.630   7.752   3.268 -0.7028 -2.1895 -0.8852
  706MOL0     H95253   9.819   7.589   3.460 -0.5072  0.2920  1.5442
  706MOL0     H95254   9.685   7.675   3.522  0.8500  1.3226 -1.2001
  706MOL0     H95255   9.516   7.526   3.373 -1.3289 -0.1674  2.6293
  706MOL0     H95256   9.661   7.427   3.344  0.1643 -0.4191 -0.3673
  706MOL0     H95257   9.676   7.363   3.578 -0.6353  1.0630  2.0216
  706MOL0     H95258   9.561   7.488   3.621 -0.8102  0.3595 -0.9547
  706MOL0     H95259   9.473   7.241   3.597 -2.3003 -1.1073 -1.1815
  706MOL0     H95260   9.510   7.267   3.429  0.2252  0.3974 -0.1450
  706MOL0     H95261   9.282   7.452   3.699 -3.6476  0.9754  0.5715
  706MOL0     H95262   9.016   7.512   3.686 -1.0694 -0.1043  0.0336
  706MOL0     H95263   9.043   7.653   3.594  2.0484 -0.0831  0.8209
  706MOL0     H95264   8.872   7.413   3.508 -0.9716  1.0684 -1.6843
  706MOL0     H95265   8.919   7.546   3.399  1.5279  0.3926  0.4689
  706MOL0     H95266   8.792   7.683   3.586 -0.0643  0.0308  1.5316
  706MOL0     H95267   8.766   7.523   3.665  0.5889 -0.0207 -0.4982
  706MOL0     H95268   8.663   7.449   3.430 -1.8930 -1.2530  2.6435
  706MOL0     H95269   8.690   7.614   3.379 -0.7518 -1.4367 -0.8740
  706MOL0     H95270   8.488   7.524   3.292 -0.8366  0.3958  0.4855
  706MOL0     H95271   8.200   7.547   3.086  0.6110 -1.0685 -1.4408
  706MOL0     H95272   8.373   7.535   3.091 -0.4374  0.8140 -0.1081
  706MOL0     H95273   8.290   7.392   3.121  2.9891 -0.2705 -0.8452
  706MOL0     H95274   7.822   7.741   3.191 -1.4939  0.1934 -0.8296
  706MOL0     H95275   7.599   7.787   3.162  2.5385 -1.6236 -2.1279
  706MOL0     H95276   7.306   7.513   3.193 -1.4824 -1.5033  1.0979
  706MOL0     H95277   7.259   7.543   3.358  0.7255  0.4014  1.2167
  706MOL0     H95278   7.082   7.562   3.189  0.3352  0.2567 -2.7564
  706MOL0     H95279   7.094   7.716   3.271  1.7429 -0.5143  1.6049
  706MOL0     H95280   7.195   7.637   3.001 -0.9440 -0.5691  1.0195
  706MOL0     H95281   7.228   7.796   3.076  0.1025 -1.1068  4.8029
  706MOL0     H95282   6.943   7.672   3.011  1.0875  0.3519  1.0669
  706MOL0     H95283   6.972   7.837   3.072 -2.0052 -1.8838  1.7485
  706MOL0     H95284   6.934   7.805   2.828  0.6459  1.6078 -0.8032
  706MOL0     H95285   7.097   7.735   2.821 -1.1192 -0.9752 -0.6953
  706MOL0     H95286   6.996   8.015   2.917 -0.4025  0.5556 -0.7451
  706MOL0     H95287   7.172   7.966   2.908  0.9278  0.4750 -1.6567
  706MOL0     H95288   6.988   7.927   2.664  1.9522  0.1550 -1.9897
  706MOL0     H95289   7.163   7.952   2.689  1.2198 -0.2852  2.9645
  706MOL0     H95290   6.958   8.169   2.757 -0.2577  1.7526 -0.6254
  706MOL0     H95291   7.047   8.158   2.601  1.6498 -1.6302 -0.1933
  706MOL0     H95292   7.470   7.518   3.476  0.1622 -1.6032  0.0456
  706MOL0     H95293   7.706   7.470   3.516  0.9645 -0.5889 -1.3121
  706MOL0     H95294   8.099   7.561   3.577 -0.2290  0.0368  0.6080
  706MOL0     H95295   8.318   7.594   3.670  1.7313  0.9699 -0.4849
  706MOL0     H95296   9.906   7.319   2.897  2.3553 -0.0193  3.9526
  706MOL0     H95297  10.034   7.200   2.742  2.4582 -0.2460 -0.1961
  706MOL0     H95298  10.266   7.080   2.464 -2.5408  1.1411 -4.1687
  706MOL0     H95299  10.374   6.912   2.328 -1.5590  0.5520  3.9836
  706MOL0     H95300  10.531   6.734   2.222 -2.1867  0.1825  0.8092
  706MOL0     H95301  10.437   6.841   2.127 -0.1186  3.5868  1.7528
  706MOL0     H95302  10.572   6.746   1.944 -0.5373  0.1845  0.4364
  706MOL0     H95303  10.692   6.696   2.058 -1.3904 -1.6759 -0.7806
  706MOL0     H95304  10.807   6.906   2.030  1.1329 -1.9502 -1.4918
  706MOL0     H95305  10.671   6.989   1.967 -1.3489 -0.7137  5.7426
  706MOL0     H95306  10.826   6.946   1.778 -1.4979  0.8088  1.2022
  706MOL0     H95307  10.695   6.863   1.740  1.5214  2.1009 -1.7598
  706MOL0     H95308  11.019   6.578   1.794 -0.7657  0.3996 -0.7132
  706MOL0     H95309  10.727   7.127   2.295  0.1431 -3.1510  0.2979
  706MOL0     H95310  10.637   7.319   2.439 -0.7882  0.1417  0.2961
  707MOL0     O95311  11.221   8.679   5.865 -0.3730 -0.1579  0.8248
  707MOL0     C95312  11.161   8.721   5.965 -0.4143  0.2089 -0.4374
  707MOL0     O95313  11.039   8.778   5.963  0.6847  0.0434  0.6933
  707MOL0     C95314  10.955   8.785   5.851  0.5732 -0.5420 -0.2804
  707MOL0     C95315  10.836   8.867   5.873  0.3677  0.8210 -0.9076
  707MOL0     C95316  10.747   8.898   5.767 -0.2025  0.9313  0.5199
  707MOL0     C95317  10.778   8.856   5.635  0.1642 -0.2260  0.0541
  707MOL0     O95318  10.705   8.905   5.528  0.1252  0.6545  0.0193
  707MOL0     C95319  10.629   8.808   5.464  0.5268  0.2400  0.2128
  707MOL0     C95320  10.488   8.816   5.513  0.4084  0.2297 -0.3689
  707MOL0     C95321  10.391   8.725   5.435 -0.7648 -0.5077  0.1748
  707MOL0     C95322  10.252   8.720   5.505  0.1869 -0.3574 -0.0127
  707MOL0     C95323  10.178   8.583   5.479 -0.1876  0.4840  0.2217
  707MOL0     C95324  10.229   8.472   5.573  0.3295  0.5504  0.3364
  707MOL0     C95325  10.162   8.332   5.544  0.1323  0.3151 -0.2502
  707MOL0     C95326  10.057   8.303   5.645 -0.2646  0.2423  0.3829
  707MOL0     N95327   9.981   8.193   5.616 -0.0085 -0.3695 -0.5295
  707MOL0     C95328   9.998   8.069   5.673  1.0154 -0.8917 -1.0804
  707MOL0     C95329   9.918   7.991   5.590  0.4285  0.1717 -0.0827
  707MOL0     C95330   9.909   7.844   5.611  0.5466  0.7662 -0.4129
  707MOL0     C95331   9.762   7.794   5.632  0.2289  0.0302  0.4034
  707MOL0     C95332   9.699   7.835   5.764  0.5614  0.6835  0.0913
  707MOL0     C95333   9.548   7.808   5.760  0.2442  0.3352  0.4707
  707MOL0     O95334   9.519   7.666   5.768 -0.2231  0.1214 -0.2385
  707MOL0     C95335   9.387   7.634   5.741  0.0531  0.9674 -0.2567
  707MOL0     C95336   9.282   7.722   5.760 -0.3370 -0.9271  0.4202
  707MOL0     C95337   9.158   7.691   5.711  0.6126  0.2755 -0.0591
  707MOL0     C95338   9.042   7.794   5.722  0.6989  1.3762 -0.5324
  707MOL0     C95339   9.130   7.549   5.673  0.3761 -0.6914  0.4788
  707MOL0     C95340   8.992   7.498   5.637  0.2797 -0.7698  0.4575
  707MOL0     O95341   8.982   7.365   5.612 -0.7753  0.0960  0.1772
  707MOL0     C95342   8.867   7.301   5.574  0.3569 -0.1751  0.4648
  707MOL0     C95343   8.801   7.366   5.467 -0.9647  0.4025 -0.0493
  707MOL0     C95344   8.670   7.306   5.428 -0.1099 -0.2529  1.1041
  707MOL0     C95345   8.628   7.178   5.475 -1.3612 -0.0696  0.1857
  707MOL0     O95346   8.514   7.118   5.431  0.6283  0.0523  1.1999
  707MOL0     C95347   8.470   7.133   5.293 -0.6621  0.1459  0.4214
  707MOL0     C95348   8.394   7.014   5.239 -0.4675 -0.3138 -0.6843
  707MOL0     C95349   8.258   6.986   5.289  0.1526  0.4288  0.4854
  707MOL0     C95350   8.228   6.828   5.296  0.4040  0.0852  0.6162
  707MOL0     C95351   8.095   6.793   5.345  0.5300 -0.3277 -0.2195
  707MOL0     C95352   8.064   6.642   5.336 -0.5364  0.3841  0.2259
  707MOL0     C95353   7.917   6.628   5.385  0.0376 -0.6582  0.0984
  707MOL0     C95354   7.874   6.483   5.356  0.0028  0.0318 -0.1274
  707MOL0    Cl95355   7.831   6.464   5.188 -0.0523 -0.0678 -0.0302
  707MOL0     C95356   8.700   7.120   5.578 -0.5199  0.4196 -0.8349
  707MOL0     C95357   8.819   7.183   5.627  2.0920  0.0261  0.0060
  707MOL0     O95358   8.896   7.573   5.654 -0.3022  0.5355  0.3422
  707MOL0     C95359   9.240   7.459   5.668  0.2481 -0.1235  0.6733
  707MOL0     C95360   9.365   7.503   5.699 -0.1190 -0.4292 -0.4788
  707MOL0     N95361   9.853   8.069   5.499  0.2743 -0.2604 -0.4179
  707MOL0     N95362   9.893   8.195   5.509  0.1198 -0.4572  0.2098
  707MOL0     C95363  10.889   8.780   5.614 -0.0173  0.6187  0.0891
  707MOL0     C95364  10.971   8.738   5.723 -0.0021 -0.2005 -0.1907
  707MOL0     C95365  11.230   8.714   6.103  0.1888 -0.6808  0.5424
  707MOL0     C95366  11.364   8.671   6.102 -0.3004 -0.3493  0.0751
  707MOL0     C95367  11.433   8.634   6.221  0.4259  0.3404 -0.4803
  707MOL0     C95368  11.365   8.649   6.343 -0.2601  0.1910 -0.4962
  707MOL0     O95369  11.418   8.615   6.461  0.9931 -0.4147 -0.1403
  707MOL0     C95370  11.368   8.492   6.499 -0.5009 -0.5506 -0.1134
  707MOL0     C95371  11.308   8.504   6.636  0.3783 -0.4723  0.0456
  707MOL0     C95372  11.305   8.379   6.719  0.3038 -0.0572  0.8734
  707MOL0     C95373  11.245   8.252   6.654 -0.1527  0.0452  0.4189
  707MOL0     C95374  11.118   8.271   6.586  0.2553  0.6259  0.1814
  707MOL0     C95375  11.017   8.289   6.521 -0.5554 -0.8245 -0.2104
  707MOL0     C95376  11.235   8.704   6.337  0.7708  0.1178 -1.0565
  707MOL0     C95377  11.161   8.729   6.217 -0.2335 -0.5855 -0.3795
  707MOL0     H95378  10.816   8.898   5.975  2.3510  2.8895 -1.0789
  707MOL0     H95379  10.654   8.955   5.773 -0.7346  0.2439 -0.7884
  707MOL0     H95380  10.629   8.829   5.357 -1.5249 -1.1506 -0.1012
  707MOL0     H95381  10.674   8.707   5.465 -0.3795 -0.4197 -4.5201
  707MOL0     H95382  10.492   8.782   5.617  1.0201  3.5679  0.8125
  707MOL0     H95383  10.447   8.916   5.524  1.7176  1.0260 -2.2926
  707MOL0     H95384  10.374   8.770   5.337  0.5584 -2.3252 -0.9493
  707MOL0     H95385  10.438   8.628   5.416 -4.6703 -2.2192 -1.9747
  707MOL0     H95386  10.271   8.725   5.613  2.4495  1.8719 -0.4346
  707MOL0     H95387  10.188   8.803   5.476  3.7077  2.8885  0.7603
  707MOL0     H95388  10.071   8.598   5.496  0.4884  2.4652  3.8547
  707MOL0     H95389  10.188   8.552   5.375 -0.6192 -1.3657  0.6953
  707MOL0     H95390  10.334   8.460   5.549  0.3800  1.5111  0.0353
  707MOL0     H95391  10.230   8.497   5.679 -0.0591  0.2039  0.4254
  707MOL0     H95392  10.129   8.336   5.440  0.7300 -1.7838 -0.5594
  707MOL0     H95393  10.234   8.250   5.555 -1.0976 -0.6436  0.9485
  707MOL0     H95394   9.994   8.391   5.656  0.3739  0.5693  1.5954
  707MOL0     H95395  10.096   8.296   5.747  0.5374  2.2867  0.2540
  707MOL0     H95396  10.063   8.059   5.760 -1.3965 -1.0927  0.8077
  707MOL0     H95397   9.957   7.795   5.526  2.8190  0.6410  0.8469
  707MOL0     H95398   9.971   7.812   5.696 -0.5435  1.4860  0.6878
  707MOL0     H95399   9.762   7.684   5.635  1.6007  0.0110  0.2210
  707MOL0     H95400   9.701   7.816   5.544  3.1621  0.2040 -1.7164
  707MOL0     H95401   9.722   7.936   5.799  2.8690  1.2038 -2.6190
  707MOL0     H95402   9.757   7.780   5.839  1.3400 -0.0055 -0.9922
  707MOL0     H95403   9.506   7.866   5.678 -0.0944  0.6080  0.8317
  707MOL0     H95404   9.498   7.841   5.851  0.8350  0.4938  0.7450
  707MOL0     H95405   9.292   7.825   5.795  0.8331  0.3874 -3.3205
  707MOL0     H95406   9.079   7.897   5.712 -0.4332  1.6837 -1.8808
  707MOL0     H95407   8.971   7.792   5.639 -3.0050  2.4591  2.3178
  707MOL0     H95408   8.981   7.780   5.811 -0.2497 -0.1329 -1.3868
  707MOL0     H95409   8.839   7.459   5.426  1.6445 -1.2536 -1.7029
  707MOL0     H95410   8.608   7.360   5.357  1.0621  1.4420  1.3092
  707MOL0     H95411   8.418   7.228   5.276  0.5230  0.8356  0.5993
  707MOL0     H95412   8.557   7.143   5.227 -0.2989  0.4418  0.9435
  707MOL0     H95413   8.384   7.034   5.132 -4.0023 -0.2379 -0.4560
  707MOL0     H95414   8.459   6.928   5.254  0.5591  0.4164 -0.8398
  707MOL0     H95415   8.194   7.036   5.216  1.8491  0.2535 -1.1901
  707MOL0     H95416   8.243   7.024   5.391 -0.8359 -0.1969  0.5839
  707MOL0     H95417   8.232   6.781   5.197 -2.0293 -1.4066  1.1323
  707MOL0     H95418   8.299   6.783   5.366  1.1701 -0.5436 -0.5311
  707MOL0     H95419   8.011   6.849   5.302 -2.1570 -1.7019  2.7704
  707MOL0     H95420   8.098   6.812   5.453  1.6515 -1.1547 -0.0811
  707MOL0     H95421   8.081   6.602   5.235 -2.9022 -0.5718  0.1474
  707MOL0     H95422   8.135   6.587   5.398 -0.7746 -2.4801 -1.8507
  707MOL0     H95423   7.852   6.695   5.327  0.6470 -1.0869 -1.1095
  707MOL0     H95424   7.913   6.655   5.490 -0.5969  1.7598 -0.4864
  707MOL0     H95425   7.789   6.460   5.421  0.6412 -0.3013  0.6001
  707MOL0     H95426   7.948   6.411   5.390 -0.9606 -0.1538  1.6856
  707MOL0     H95427   8.651   7.039   5.631  1.1767  1.2394  2.1950
  707MOL0     H95428   8.863   7.124   5.707 -0.6765 -1.7696  0.3474
  707MOL0     H95429   9.224   7.362   5.623 -1.2598  1.0172 -1.4591
  707MOL0     H95430   9.452   7.438   5.690  1.1049  0.7219  1.9676
  707MOL0     H95431  10.919   8.752   5.514  0.2013  0.2289  0.2608
  707MOL0     H95432  11.048   8.667   5.695  1.0612  1.3940 -1.5254
  707MOL0     H95433  11.408   8.656   6.004 -2.2409  0.5330 -0.9892
  707MOL0     H95434  11.528   8.581   6.218  0.8539  1.0918 -0.2896
  707MOL0     H95435  11.304   8.445   6.424  0.0931  1.2682 -1.8654
  707MOL0     H95436  11.457   8.428   6.490  1.4579  2.2134 -2.8783
  707MOL0     H95437  11.210   8.551   6.630  1.6673  2.7640  1.8726
  707MOL0     H95438  11.369   8.575   6.693 -1.0564 -1.1061  2.5307
  707MOL0     H95439  11.248   8.396   6.811  1.5889 -1.8224  2.0691
  707MOL0     H95440  11.411   8.369   6.743  1.1575  1.0673 -1.9570
  707MOL0     H95441  11.224   8.176   6.730 -0.6940 -2.3449 -1.9474
  707MOL0     H95442  11.320   8.212   6.585 -2.2686 -1.8147 -0.9500
  707MOL0     H95443  10.921   8.285   6.474 -1.3190  0.2438  1.1957
  707MOL0     H95444  11.169   8.705   6.423 -0.1926 -0.1668 -1.7751
  707MOL0     H95445  11.054   8.746   6.225 -0.7389 -3.8161  1.8523
  708MOL0     O95446  10.865   2.094   8.422  0.4800 -0.1851  0.5668
  708MOL0     C95447  10.819   2.174   8.345 -0.0705  0.1499  0.2164
  708MOL0     O95448  10.880   2.273   8.273  0.5337 -0.6746  0.1800
  708MOL0     C95449  11.019   2.274   8.281  0.4841 -0.2212  0.0390
  708MOL0     C95450  11.088   2.286   8.161 -0.3440  0.2657  0.0323
  708MOL0     C95451  11.227   2.300   8.170  0.0169  0.3170 -0.3391
  708MOL0     C95452  11.292   2.285   8.293 -0.1515 -0.2746 -0.3842
  708MOL0     O95453  11.430   2.291   8.294  0.2800 -0.0113 -0.4906
  708MOL0     C95454  11.480   2.424   8.307  0.0374 -0.0147 -0.9448
  708MOL0     C95455  11.604   2.418   8.399 -0.0060  0.2279 -0.1581
  708MOL0     C95456  11.587   2.379   8.536  0.0106  0.1998 -0.6283
  708MOL0     C95457  11.712   2.346   8.612 -0.5931  0.3195  0.6328
  708MOL0     C95458  11.697   2.311   8.761 -0.0414  0.5227 -0.0288
  708MOL0     C95459  11.558   2.250   8.805  0.4791  0.6925 -0.0383
  708MOL0     C95460  11.561   2.169   8.927  0.5048  0.0433  0.5737
  708MOL0     C95461  11.591   2.237   9.057  0.0270  0.3955  0.2484
  708MOL0     N95462  11.462   2.293   9.112  0.1857 -0.4484  1.0310
  708MOL0     C95463  11.356   2.214   9.167  0.6258 -0.1681  0.6025
  708MOL0     C95464  11.253   2.307   9.179 -0.3333  0.0064 -0.9268
  708MOL0     C95465  11.118   2.275   9.241 -0.6148  0.3502 -0.9659
  708MOL0     C95466  10.996   2.293   9.154 -0.5483  0.1016  0.2875
  708MOL0     C95467  10.967   2.166   9.074  0.8130 -0.0849 -0.7820
  708MOL0     C95468  10.865   2.195   8.966 -0.4945 -0.2487  0.3882
  708MOL0     O95469  10.755   2.259   9.032  0.3585 -0.0378  0.5916
  708MOL0     C95470  10.631   2.265   8.965  0.2299  0.2129 -0.1369
  708MOL0     C95471  10.592   2.220   8.836 -0.6043 -0.3878 -0.3513
  708MOL0     C95472  10.460   2.231   8.796 -0.1074 -0.2900 -0.2356
  708MOL0     C95473  10.420   2.211   8.644 -0.4148 -0.2259 -0.9213
  708MOL0     C95474  10.360   2.281   8.888  0.4831  0.7677  0.4277
  708MOL0     C95475  10.217   2.275   8.865  0.2397  1.0661 -0.1510
  708MOL0     O95476  10.133   2.361   8.940  0.2842 -0.1503 -0.7149
  708MOL0     C95477  10.002   2.348   8.923  0.8007  0.2751  0.8270
  708MOL0     C95478   9.913   2.305   9.022 -0.0872  0.1498 -0.3671
  708MOL0     C95479   9.776   2.317   8.997  0.6955  0.8559  0.4084
  708MOL0     C95480   9.729   2.365   8.874  0.1667  0.4795  0.1718
  708MOL0     O95481   9.598   2.398   8.839  0.1028  0.0728 -0.1260
  708MOL0     C95482   9.502   2.297   8.869 -0.1220 -0.3582 -0.8250
  708MOL0     C95483   9.488   2.182   8.762  0.1455 -0.2793  0.0724
  708MOL0     C95484   9.356   2.111   8.789 -0.3183 -0.4410 -0.3521
  708MOL0     C95485   9.300   2.034   8.676  0.4976 -0.0185  1.2189
  708MOL0     C95486   9.163   1.972   8.707  0.3959  0.3267 -0.4235
  708MOL0     C95487   9.099   1.918   8.575 -0.2343  0.6741 -0.0618
  708MOL0     C95488   8.969   1.846   8.610 -0.2926  0.4468  1.1654
  708MOL0     C95489   8.870   1.845   8.493  0.5635  0.1629  0.0952
  708MOL0    Cl95490   8.744   1.710   8.486  0.1780  0.3639  0.0031
  708MOL0     C95491   9.821   2.395   8.779  0.3178  0.6386  0.2374
  708MOL0     C95492   9.957   2.393   8.793  0.4040 -0.2779 -0.3434
  708MOL0     O95493  10.170   2.187   8.786 -0.2633 -0.1677  0.0947
  708MOL0     C95494  10.404   2.325   9.012  0.4225 -0.5534 -0.3012
  708MOL0     C95495  10.531   2.320   9.047 -0.8338 -0.8234  0.8866
  708MOL0     N95496  11.310   2.438   9.158  0.2406  0.1636  0.5511
  708MOL0     N95497  11.432   2.428   9.119  0.7430 -0.5175  0.2160
  708MOL0     C95498  11.218   2.260   8.411  0.2934  0.3589  0.2954
  708MOL0     C95499  11.082   2.260   8.406  0.6005 -0.1184 -0.2454
  708MOL0     C95500  10.671   2.157   8.320 -0.4759  0.0912 -0.4963
  708MOL0     C95501  10.598   2.040   8.358  0.1913 -0.4463  0.1236
  708MOL0     C95502  10.460   2.032   8.337 -0.5815  1.1237 -0.9678
  708MOL0     C95503  10.392   2.128   8.268  0.9745 -0.6738  0.1673
  708MOL0     O95504  10.256   2.128   8.236 -0.2015  0.2171 -0.1444
  708MOL0     C95505  10.183   2.061   8.341  0.1793  0.3534 -0.9617
  708MOL0     C95506  10.034   2.080   8.305 -0.3755  0.4779 -0.3576
  708MOL0     C95507   9.989   2.220   8.278  0.2206 -0.9769 -1.1022
  708MOL0     C95508   9.977   2.298   8.408 -0.0010 -0.3014  0.0178
  708MOL0     C95509   9.840   2.258   8.456 -0.5859  0.2611  1.3109
  708MOL0     C95510   9.745   2.196   8.495  0.3341 -0.3317 -0.3519
  708MOL0     C95511  10.466   2.240   8.223  0.2962 -0.1985  0.4144
  708MOL0     C95512  10.604   2.257   8.242 -0.9777  0.0431  0.2935
  708MOL0     H95513  11.037   2.303   8.066 -1.4406  0.3173  0.6256
  708MOL0     H95514  11.293   2.311   8.084  0.5869 -0.9793 -0.0935
  708MOL0     H95515  11.514   2.460   8.210 -0.2675 -0.7667 -1.3370
  708MOL0     H95516  11.408   2.494   8.350  0.4740 -0.5239  0.7130
  708MOL0     H95517  11.668   2.342   8.353  1.8455  3.3779 -3.3806
  708MOL0     H95518  11.654   2.515   8.388  0.4058  0.0740  0.3088
  708MOL0     H95519  11.531   2.454   8.592  0.7724 -0.2332  0.7644
  708MOL0     H95520  11.519   2.293   8.538 -0.8516  0.8780  1.6376
  708MOL0     H95521  11.752   2.258   8.561 -3.0439 -0.6773  0.3084
  708MOL0     H95522  11.786   2.425   8.595 -0.6340  0.1138 -0.6580
  708MOL0     H95523  11.774   2.237   8.785  0.1147 -0.0917 -2.2649
  708MOL0     H95524  11.720   2.404   8.814  0.2073  0.5221 -0.1376
  708MOL0     H95525  11.486   2.331   8.821 -1.0615 -1.0795  2.8875
  708MOL0     H95526  11.522   2.186   8.724  0.3812  0.2913  0.3214
  708MOL0     H95527  11.457   2.137   8.939  0.3630  1.2911  3.2272
  708MOL0     H95528  11.618   2.076   8.923 -1.3223 -1.1369  0.6185
  708MOL0     H95529  11.664   2.319   9.049  0.4855 -0.0290 -0.0172
  708MOL0     H95530  11.630   2.163   9.127  2.3390  1.0836 -0.1962
  708MOL0     H95531  11.347   2.108   9.183  0.1949 -0.0202  1.3629
  708MOL0     H95532  11.123   2.170   9.270  0.7818  0.1492 -1.8412
  708MOL0     H95533  11.115   2.334   9.333 -0.1287 -1.0129 -0.0486
  708MOL0     H95534  10.997   2.382   9.090  0.9955  0.3818  0.6637
  708MOL0     H95535  10.918   2.316   9.228 -0.5409 -0.3708  0.4449
  708MOL0     H95536  10.933   2.084   9.137  1.4332 -1.2326 -1.8848
  708MOL0     H95537  11.062   2.130   9.033  1.1915 -1.0943  0.8849
  708MOL0     H95538  10.830   2.108   8.911 -2.7345  1.9466 -1.9229
  708MOL0     H95539  10.910   2.267   8.897  0.8165 -1.1939  0.2296
  708MOL0     H95540  10.664   2.172   8.771 -1.4895 -1.8806 -0.2799
  708MOL0     H95541  10.395   2.105   8.636 -0.6123 -0.3648  1.0275
  708MOL0     H95542  10.330   2.263   8.610 -0.1249  0.7407 -0.2600
  708MOL0     H95543  10.504   2.237   8.579 -1.1300 -0.7593 -2.1053
  708MOL0     H95544   9.962   2.269   9.112  2.8232 -0.9099 -2.1858
  708MOL0     H95545   9.704   2.288   9.074  2.4032 -2.4866  0.8923
  708MOL0     H95546   9.531   2.246   8.961  1.2102  0.4181 -0.7845
  708MOL0     H95547   9.409   2.348   8.894 -0.5756 -1.6373  0.2084
  708MOL0     H95548   9.484   2.222   8.661  1.2734 -2.1147 -0.7605
  708MOL0     H95549   9.575   2.115   8.769  0.9400  0.7258  0.0346
  708MOL0     H95550   9.279   2.186   8.810 -1.4637 -1.3937 -1.0011
  708MOL0     H95551   9.377   2.049   8.877  4.2960 -0.1200 -1.0027
  708MOL0     H95552   9.278   2.102   8.593  2.3149 -1.2926 -0.3896
  708MOL0     H95553   9.371   1.969   8.625 -0.4657 -0.0069 -0.1860
  708MOL0     H95554   9.097   2.043   8.757 -0.6177  0.5096 -1.9550
  708MOL0     H95555   9.193   1.891   8.773  1.2560  0.9048 -0.0783
  708MOL0     H95556   9.074   2.001   8.509 -0.5119  1.6303  1.1874
  708MOL0     H95557   9.167   1.847   8.527  0.2767 -0.3596  2.0359
  708MOL0     H95558   8.910   1.886   8.693 -3.4337 -0.7944 -0.3379
  708MOL0     H95559   9.001   1.744   8.635 -1.6909  0.2840  2.3934
  708MOL0     H95560   8.923   1.828   8.399  0.9739  4.7855 -0.7313
  708MOL0     H95561   8.820   1.942   8.489 -0.1020 -0.1546  0.4500
  708MOL0     H95562   9.781   2.441   8.689 -0.7744 -1.3758 -0.3874
  708MOL0     H95563  10.024   2.425   8.714 -1.3465  0.5201 -1.5793
  708MOL0     H95564  10.331   2.368   9.079  1.9278  0.4039  0.7780
  708MOL0     H95565  10.573   2.346   9.144  1.6151 -0.8414 -0.0881
  708MOL0     H95566  11.264   2.253   8.509 -0.8174  1.0129  0.8900
  708MOL0     H95567  11.022   2.240   8.494  0.5862  1.7308  0.2064
  708MOL0     H95568  10.652   1.973   8.425 -1.3421  0.9078  2.9175
  708MOL0     H95569  10.405   1.944   8.367  0.2160  0.5219 -1.2144
  708MOL0     H95570  10.195   1.952   8.344 -1.1094  0.0667 -3.4628
  708MOL0     H95571  10.203   2.113   8.436 -0.0099  0.5502 -1.0309
  708MOL0     H95572   9.975   2.029   8.382  0.5250 -0.1735 -0.0837
  708MOL0     H95573  10.008   2.021   8.217 -2.4195 -0.2005  0.6295
  708MOL0     H95574   9.906   2.228   8.207 -0.6738 -2.1080 -0.2166
  708MOL0     H95575  10.072   2.276   8.233 -0.2211  2.1600  1.5622
  708MOL0     H95576   9.971   2.403   8.380  0.2756  0.5786  2.9008
  708MOL0     H95577  10.051   2.289   8.488 -1.6281  0.6221  1.7236
  708MOL0     H95578   9.652   2.146   8.515  0.2916 -0.4392 -0.8116
  708MOL0     H95579  10.404   2.322   8.186  2.6014  1.3686 -0.1589
  708MOL0     H95580  10.644   2.354   8.214 -2.8261  1.0607  0.9876
  709MOL0     O95581   5.922   5.860   8.062  0.0864 -0.1203 -0.0109
  709MOL0     C95582   5.920   5.853   8.186 -0.4029 -0.1899  0.4990
  709MOL0     O95583   5.806   5.844   8.265  0.1811  0.4269  0.0099
  709MOL0     C95584   5.684   5.845   8.204 -0.5403  0.1741 -0.6556
  709MOL0     C95585   5.660   5.753   8.101  0.4883  0.4770  0.2616
  709MOL0     C95586   5.533   5.735   8.050 -0.9526 -0.8301 -0.2517
  709MOL0     C95587   5.423   5.805   8.101  0.2954 -0.5538  0.2366
  709MOL0     O95588   5.302   5.805   8.033  0.0844 -0.4827  0.1065
  709MOL0     C95589   5.262   5.698   7.955  0.6044 -1.3737 -0.1023
  709MOL0     C95590   5.110   5.688   7.930 -0.7864 -0.2892  0.0477
  709MOL0     C95591   5.075   5.576   7.835 -0.1719 -0.7935 -0.0924
  709MOL0     C95592   4.925   5.539   7.843  0.4011  1.0959 -0.4970
  709MOL0     C95593   4.823   5.650   7.837  0.3726 -0.5635 -0.2180
  709MOL0     C95594   4.674   5.609   7.855 -1.1374  0.0509  0.3615
  709MOL0     C95595   4.582   5.723   7.830  0.0196 -0.2390 -0.9168
  709MOL0     C95596   4.431   5.684   7.816 -0.1030  0.1644  0.1749
  709MOL0     N95597   4.401   5.665   7.669  0.2973  0.5934 -1.0541
  709MOL0     C95598   4.357   5.762   7.589  0.1306  0.1776 -0.4088
  709MOL0     C95599   4.303   5.712   7.482 -0.3947  0.2902  0.5432
  709MOL0     C95600   4.260   5.782   7.361  0.1708 -0.4926 -0.0704
  709MOL0     C95601   4.102   5.802   7.346 -0.8149 -0.0578  0.4404
  709MOL0     C95602   4.049   5.661   7.298 -0.0079 -0.0111 -0.6661
  709MOL0     C95603   3.903   5.669   7.282 -0.2143 -0.1685 -0.1295
  709MOL0     O95604   3.882   5.767   7.174  0.8268 -0.3781 -0.5788
  709MOL0     C95605   3.745   5.811   7.159 -1.3301  0.5469  1.0306
  709MOL0     C95606   3.643   5.777   7.251  0.2987 -0.0751  0.3760
  709MOL0     C95607   3.510   5.791   7.208  0.9203  0.0577 -0.6528
  709MOL0     C95608   3.414   5.750   7.317  0.1532 -0.6793 -0.1845
  709MOL0     C95609   3.477   5.865   7.089 -0.1538  0.2908 -0.4803
  709MOL0     C95610   3.336   5.903   7.044  0.6841 -0.1798 -0.3811
  709MOL0     O95611   3.314   6.010   6.963  0.4302 -0.2823 -0.3438
  709MOL0     C95612   3.179   6.029   6.917 -0.1168  0.7638 -0.1750
  709MOL0     C95613   3.093   6.129   6.973  0.2760  0.0634  0.1565
  709MOL0     C95614   2.969   6.152   6.912 -0.3971  0.0426 -0.4284
  709MOL0     C95615   2.928   6.077   6.796 -0.5649 -0.9613 -0.7469
  709MOL0     O95616   2.806   6.116   6.744  0.3028 -1.0205 -0.8831
  709MOL0     C95617   2.816   6.215   6.641 -0.0623  1.2982  0.4667
  709MOL0     C95618   2.808   6.362   6.685  0.2943  0.8535 -0.1570
  709MOL0     C95619   2.682   6.384   6.781 -0.2791  0.2038 -0.3461
  709MOL0     C95620   2.544   6.360   6.717  0.0005  1.0598 -0.5236
  709MOL0     C95621   2.431   6.421   6.793  0.1141  0.6535 -0.3397
  709MOL0     C95622   2.288   6.375   6.735  0.3744  0.3019 -1.1192
  709MOL0     C95623   2.171   6.432   6.824  0.1808 -0.4408 -0.5095
  709MOL0     C95624   2.047   6.342   6.814 -0.6542  0.0783  0.3647
  709MOL0    Cl95625   1.909   6.429   6.887 -0.4923  0.0340  0.1771
  709MOL0     C95626   3.010   5.977   6.749  0.2712  0.1241 -0.9177
  709MOL0     C95627   3.137   5.957   6.806 -0.3448  0.1455  0.1033
  709MOL0     O95628   3.249   5.832   7.082  0.3190 -0.2477 -0.1139
  709MOL0     C95629   3.586   5.926   7.019  0.5575 -0.1501 -0.6104
  709MOL0     C95630   3.714   5.894   7.057 -1.0139  0.6117 -0.0111
  709MOL0     N95631   4.331   5.576   7.491  0.8141 -0.1870  1.1773
  709MOL0     N95632   4.381   5.542   7.604  0.5067  0.1785  0.2266
  709MOL0     C95633   5.445   5.891   8.215 -0.0842  0.1303  0.3877
  709MOL0     C95634   5.578   5.900   8.267  0.0831  0.7155 -0.4341
  709MOL0     C95635   6.050   5.859   8.257 -0.6276  0.1806  1.1714
  709MOL0     C95636   6.074   5.935   8.374  0.4498  0.2120 -0.0916
  709MOL0     C95637   6.198   5.930   8.434  1.0088 -0.5822 -0.0373
  709MOL0     C95638   6.316   5.864   8.382  0.3282  0.2304 -0.2906
  709MOL0     O95639   6.438   5.851   8.442  0.7247  0.0215  0.0199
  709MOL0     C95640   6.470   5.962   8.525 -0.6598 -0.1219 -0.2109
  709MOL0     C95641   6.621   5.957   8.554 -0.0679  0.3852  0.6324
  709MOL0     C95642   6.688   6.046   8.444  0.2353 -0.0545  0.0699
  709MOL0     C95643   6.654   6.023   8.297  0.3724 -0.4360 -0.2927
  709MOL0     C95644   6.743   6.087   8.196  0.2095  0.6399 -0.6699
  709MOL0     C95645   6.787   6.148   8.103  0.9589  0.0490  0.4414
  709MOL0     C95646   6.284   5.787   8.270  0.2841  0.2566 -0.8238
  709MOL0     C95647   6.164   5.789   8.204  0.5727 -0.4738  0.2644
  709MOL0     H95648   5.746   5.707   8.055  2.5029  1.3396  2.9422
  709MOL0     H95649   5.518   5.664   7.969  1.3734 -1.0133 -0.5812
  709MOL0     H95650   5.311   5.692   7.858 -3.8863 -4.3305 -2.5156
  709MOL0     H95651   5.291   5.604   8.002  0.3788 -0.8768  1.0836
  709MOL0     H95652   5.063   5.669   8.027 -0.8451  1.8443  0.4867
  709MOL0     H95653   5.077   5.785   7.890  2.3185  0.4991 -0.9133
  709MOL0     H95654   5.100   5.595   7.731 -0.9650  0.6831 -0.0377
  709MOL0     H95655   5.137   5.493   7.870  2.4880  2.5305  4.0551
  709MOL0     H95656   4.893   5.462   7.772  1.0761 -0.7239  1.0991
  709MOL0     H95657   4.909   5.495   7.942  0.5977 -1.7011 -1.6312
  709MOL0     H95658   4.834   5.718   7.922 -0.2484 -2.9379  1.9013
  709MOL0     H95659   4.835   5.707   7.744  3.4160 -1.7286 -0.6445
  709MOL0     H95660   4.657   5.532   7.780 -2.6490  0.5435  0.1610
  709MOL0     H95661   4.664   5.575   7.959  1.2266  1.6653  1.2241
  709MOL0     H95662   4.583   5.795   7.913  0.2517  1.8496 -2.6659
  709MOL0     H95663   4.615   5.772   7.738 -1.4097 -0.8414 -1.7821
  709MOL0     H95664   4.366   5.757   7.863 -1.4966 -0.1070 -1.2430
  709MOL0     H95665   4.416   5.587   7.865  1.7231 -0.3511 -0.2171
  709MOL0     H95666   4.359   5.867   7.618 -1.8965  0.2583 -0.3989
  709MOL0     H95667   4.318   5.875   7.366 -0.5807  0.1906 -2.5779
  709MOL0     H95668   4.300   5.738   7.269 -0.5936  1.5444 -1.4541
  709MOL0     H95669   4.078   5.876   7.269  2.5849 -0.0949 -0.8188
  709MOL0     H95670   4.048   5.831   7.437 -0.9836 -1.5688  0.8522
  709MOL0     H95671   4.070   5.584   7.372  0.8498  1.1587  0.3536
  709MOL0     H95672   4.096   5.622   7.207  3.2788  0.0917  0.8206
  709MOL0     H95673   3.875   5.708   7.380  3.5390  3.9613 -0.3935
  709MOL0     H95674   3.872   5.569   7.250  2.8196 -1.9372  1.9038
  709MOL0     H95675   3.679   5.727   7.340  2.5900 -2.9221 -1.9249
  709MOL0     H95676   3.342   5.829   7.340 -0.4049 -1.7928  2.1677
  709MOL0     H95677   3.342   5.674   7.284  0.4488 -1.1300  0.2068
  709MOL0     H95678   3.463   5.717   7.408 -1.9526  2.3955  2.2785
  709MOL0     H95679   3.139   6.183   7.055  1.9506 -2.5401  1.0294
  709MOL0     H95680   2.923   6.248   6.933  0.3696  0.7581 -1.8614
  709MOL0     H95681   2.911   6.200   6.588  0.0338  0.6884  0.8054
  709MOL0     H95682   2.733   6.200   6.571  1.9243 -0.6655 -1.6713
  709MOL0     H95683   2.900   6.380   6.741  1.6462  0.1534 -2.0614
  709MOL0     H95684   2.811   6.428   6.597  4.0097 -0.7907 -1.4578
  709MOL0     H95685   2.692   6.488   6.815  0.7267  0.4195 -1.2646
  709MOL0     H95686   2.705   6.333   6.875  0.0051 -0.1407 -0.6030
  709MOL0     H95687   2.552   6.393   6.613  0.6983 -2.8112 -1.8541
  709MOL0     H95688   2.521   6.253   6.719  0.4051  0.9738 -0.2482
  709MOL0     H95689   2.436   6.530   6.795  1.3724  0.6035  0.0335
  709MOL0     H95690   2.435   6.388   6.898 -3.3361 -1.6340 -0.7436
  709MOL0     H95691   2.275   6.400   6.630  1.8364 -0.3639 -1.4909
  709MOL0     H95692   2.288   6.267   6.749 -0.5228  0.6257  2.2553
  709MOL0     H95693   2.149   6.536   6.796 -4.0359 -0.9656  0.2037
  709MOL0     H95694   2.190   6.432   6.931 -1.2078 -2.5587 -0.2151
  709MOL0     H95695   2.058   6.247   6.866 -0.3596 -0.2280 -0.2418
  709MOL0     H95696   2.026   6.327   6.708  0.2937  6.3570 -1.1244
  709MOL0     H95697   2.973   5.932   6.658 -2.4546  2.1816 -0.9458
  709MOL0     H95698   3.210   5.894   6.755  0.4681  2.2016 -1.3971
  709MOL0     H95699   3.556   5.982   6.932  0.2601 -0.8610 -0.9740
  709MOL0     H95700   3.798   5.919   6.993  1.1916  0.1075  2.5086
  709MOL0     H95701   5.354   5.942   8.247  0.7414  1.5541  0.5261
  709MOL0     H95702   5.602   5.956   8.357  1.0703 -0.7802  0.2639
  709MOL0     H95703   5.991   5.997   8.407  0.5043  0.4106 -0.3240
  709MOL0     H95704   6.210   5.993   8.522 -2.4660  0.5790 -0.2262
  709MOL0     H95705   6.438   6.057   8.481 -0.0620  0.4692  0.5871
  709MOL0     H95706   6.420   5.951   8.622 -0.9228 -3.1327 -0.6013
  709MOL0     H95707   6.651   5.852   8.552 -2.0975 -0.2313  0.7217
  709MOL0     H95708   6.646   6.004   8.649 -0.7991  3.0475 -0.4043
  709MOL0     H95709   6.795   6.024   8.456 -0.1109 -1.8196  0.2627
  709MOL0     H95710   6.667   6.149   8.474 -0.1291 -0.2904  0.6530
  709MOL0     H95711   6.548   6.046   8.283 -0.3311 -2.2396  1.4813
  709MOL0     H95712   6.666   5.916   8.279 -3.4577 -0.9976 -0.5172
  709MOL0     H95713   6.831   6.207   8.025  0.1289 -0.8055 -0.7110
  709MOL0     H95714   6.357   5.724   8.220  0.1889  0.6508 -1.4646
  709MOL0     H95715   6.155   5.728   8.115  1.6574 -2.9425  1.7522
  710MOL0     O95716   0.764   1.728   1.741 -0.1595 -0.0243  0.3602
  710MOL0     C95717   0.776   1.832   1.673  0.5759 -0.2878 -0.2612
  710MOL0     O95718   0.674   1.909   1.629 -0.2911  0.0559  0.3102
  710MOL0     C95719   0.548   1.849   1.613 -0.3929  0.5704 -0.3022
  710MOL0     C95720   0.456   1.835   1.715 -0.0688 -0.3801 -0.0427
  710MOL0     C95721   0.336   1.773   1.690 -0.0149  0.0427 -0.4222
  710MOL0     C95722   0.319   1.702   1.575  0.4902 -0.1772 -0.2722
  710MOL0     O95723   0.195   1.637   1.560  0.2362 -0.5006 -0.2416
  710MOL0     C95724   0.142   1.601   1.430 -1.4395 -0.1712 -0.5473
  710MOL0     C95725   0.009   1.526   1.429  0.5567  0.1417  0.2077
  710MOL0     C95726  -0.007   1.428   1.541 -0.0780 -0.4484  0.3683
  710MOL0     C95727   0.097   1.306   1.517 -0.0627 -0.6635  0.1457
  710MOL0     C95728   0.074   1.202   1.624 -0.0243  0.6039  1.1553
  710MOL0     C95729  -0.067   1.150   1.637  0.3412  0.8684 -0.4019
  710MOL0     C95730  -0.072   1.022   1.717 -0.1529 -0.2381  0.0737
  710MOL0     C95731  -0.221   0.970   1.744 -1.2157  0.0642  0.3024
  710MOL0     N95732  -0.314   1.062   1.797 -0.2552 -0.4537  0.5323
  710MOL0     C95733  -0.379   1.048   1.917 -0.8316 -0.0374  0.0600
  710MOL0     C95734  -0.496   1.121   1.915  0.1288  0.0233  0.4234
  710MOL0     C95735  -0.594   1.138   2.023 -0.3387  0.3008 -0.3011
  710MOL0     C95736  -0.730   1.062   2.014 -0.3147  0.7096  0.0341
  710MOL0     C95737  -0.728   0.913   2.040 -0.5306 -0.8547 -0.5282
  710MOL0     C95738  -0.865   0.855   2.038  0.6914  0.4798 -0.0087
  710MOL0     O95739  -0.961   0.929   2.115 -0.4803  0.0296 -0.3576
  710MOL0     C95740  -1.088   0.884   2.127 -0.4067  0.2600 -1.4322
  710MOL0     C95741  -1.191   0.970   2.087  0.0655 -0.1045  0.1002
  710MOL0     C95742  -1.323   0.936   2.104 -0.6542 -0.8127  0.1257
  710MOL0     C95743  -1.419   1.030   2.040 -0.2137 -0.3726  0.7354
  710MOL0     C95744  -1.351   0.826   2.195 -0.4473  0.2933  0.1276
  710MOL0     C95745  -1.492   0.797   2.246 -0.2922  0.3865  0.2121
  710MOL0     O95746  -1.519   0.664   2.269 -0.4664 -0.4266  0.3275
  710MOL0     C95747  -1.634   0.624   2.329 -0.8035 -0.7051  0.5711
  710MOL0     C95748  -1.633   0.484   2.353  0.1255 -0.2893  0.2710
  710MOL0     C95749  -1.749   0.412   2.401 -0.7954 -0.0780  0.1290
  710MOL0     C95750  -1.857   0.483   2.452  0.0757  0.5307 -0.1967
  710MOL0     O95751  -1.975   0.423   2.490  0.7309  0.3823  0.3474
  710MOL0     C95752  -2.010   0.288   2.433 -0.1541 -0.8764 -0.2673
  710MOL0     C95753  -2.139   0.232   2.498 -0.1013  0.5947 -0.2773
  710MOL0     C95754  -2.258   0.321   2.461  0.2101 -0.1384 -0.0241
  710MOL0     C95755  -2.389   0.243   2.473  0.6056  0.3736 -0.7645
  710MOL0     C95756  -2.505   0.339   2.467  0.0381  0.6347 -0.2564
  710MOL0     C95757  -2.646   0.273   2.452  0.2112  0.3068 -0.0862
  710MOL0     C95758  -2.719   0.276   2.586 -0.1818 -0.1520 -0.4300
  710MOL0     C95759  -2.682   0.155   2.664 -0.0489 -0.1002  0.1782
  710MOL0    Cl95760  -2.756   0.155   2.822  0.1640 -0.0116 -0.2835
  710MOL0     C95761  -1.851   0.624   2.439 -0.0082  0.0298 -0.8353
  710MOL0     C95762  -1.745   0.689   2.370 -0.5574  0.0227 -0.2731
  710MOL0     O95763  -1.563   0.892   2.265  0.6352 -0.9529 -0.4009
  710MOL0     C95764  -1.250   0.743   2.240 -0.1925  0.8980  0.5209
  710MOL0     C95765  -1.120   0.772   2.207 -0.3604  0.8739 -0.6135
  710MOL0     N95766  -0.502   1.173   1.793 -0.2690  0.3893 -0.2614
  710MOL0     N95767  -0.401   1.141   1.717  0.3434  0.1319  0.3162
  710MOL0     C95768   0.419   1.703   1.471  0.4334  1.6954  0.8242
  710MOL0     C95769   0.537   1.775   1.494 -0.3994  0.3487 -0.0637
  710MOL0     C95770   0.913   1.879   1.657 -0.4686  0.3945 -0.0796
  710MOL0     C95771   0.944   1.999   1.590  0.0968 -0.4603 -0.0627
  710MOL0     C95772   1.078   2.037   1.572 -0.3840 -0.8263 -0.5097
  710MOL0     C95773   1.185   1.968   1.618 -0.2682  0.0179  1.1102
  710MOL0     O95774   1.311   2.032   1.600 -0.3435 -0.2303  0.0412
  710MOL0     C95775   1.427   1.942   1.612  0.1931  0.5081 -0.5416
  710MOL0     C95776   1.560   2.005   1.583  0.4947  0.2580 -0.7721
  710MOL0     C95777   1.563   2.077   1.456 -0.9820  0.4140  0.3912
  710MOL0     C95778   1.701   2.065   1.396  0.5429 -0.5828 -0.5889
  710MOL0     C95779   1.808   2.114   1.484  0.8912  0.8011  0.7695
  710MOL0     C95780   1.890   2.146   1.567 -0.0890  0.8479 -0.3663
  710MOL0     C95781   1.160   1.834   1.663  0.5680  0.3184 -0.3485
  710MOL0     C95782   1.025   1.789   1.684 -0.2962  0.0476  0.1574
  710MOL0     H95783   0.484   1.889   1.805  0.4328 -1.4224  0.4410
  710MOL0     H95784   0.258   1.766   1.765  1.2956 -0.2491  0.9677
  710MOL0     H95785   0.144   1.693   1.372  2.1564  1.5281  1.9699
  710MOL0     H95786   0.210   1.529   1.384 -2.1680 -1.9430  0.9695
  710MOL0     H95787  -0.076   1.596   1.425 -1.1842 -1.8366  0.9067
  710MOL0     H95788  -0.003   1.479   1.331  0.1443 -1.7481  1.1306
  710MOL0     H95789   0.021   1.466   1.640  0.4796 -1.2742  0.5428
  710MOL0     H95790  -0.109   1.392   1.556 -0.2978  0.5249  1.3257
  710MOL0     H95791   0.097   1.262   1.417 -1.4090  0.9878 -0.6462
  710MOL0     H95792   0.200   1.341   1.523 -0.4345  0.5215  0.0192
  710MOL0     H95793   0.140   1.117   1.603  0.1259  1.0197 -0.1542
  710MOL0     H95794   0.112   1.245   1.716 -0.7624 -0.0413  1.7792
  710MOL0     H95795  -0.128   1.230   1.681  1.4689  0.9549  1.1026
  710MOL0     H95796  -0.112   1.135   1.538  1.3623 -0.1586 -0.7376
  710MOL0     H95797  -0.008   0.945   1.672  1.8772  2.3221 -1.7313
  710MOL0     H95798  -0.034   1.045   1.816 -3.8392  1.2306  1.3172
  710MOL0     H95799  -0.204   0.892   1.819  1.9590 -0.6063 -0.9637
  710MOL0     H95800  -0.264   0.922   1.656 -0.6454 -1.0064  0.5928
  710MOL0     H95801  -0.349   0.982   1.998  1.1561  0.0843 -0.5145
  710MOL0     H95802  -0.546   1.117   2.119 -1.1666  1.6578  0.4486
  710MOL0     H95803  -0.609   1.246   2.030 -0.7184  0.2072  0.4548
  710MOL0     H95804  -0.771   1.067   1.914 -0.1206 -0.5446 -0.1298
  710MOL0     H95805  -0.790   1.118   2.086  0.8306  0.6318  1.0916
  710MOL0     H95806  -0.667   0.889   2.127  3.5887 -1.4807 -3.2844
  710MOL0     H95807  -0.667   0.880   1.955 -1.1819 -1.1251 -0.9017
  710MOL0     H95808  -0.860   0.755   2.081 -0.1823  0.9087  1.1467
  710MOL0     H95809  -0.896   0.841   1.934  2.0668 -0.7712 -0.2949
  710MOL0     H95810  -1.163   1.063   2.039 -0.3764  0.9712  1.8355
  710MOL0     H95811  -1.401   1.028   1.932  0.0985  0.4647  0.7582
  710MOL0     H95812  -1.525   1.006   2.051 -0.7266  0.8080 -1.1477
  710MOL0     H95813  -1.412   1.132   2.078 -1.8774 -0.3345  0.9958
  710MOL0     H95814  -1.551   0.424   2.315 -0.7894 -1.3220 -0.1144
  710MOL0     H95815  -1.738   0.304   2.398  2.1873  0.1764 -1.6770
  710MOL0     H95816  -2.013   0.288   2.324 -3.5815 -0.2046 -0.2952
  710MOL0     H95817  -1.938   0.220   2.479  0.6080  0.4440  0.5471
  710MOL0     H95818  -2.149   0.138   2.442 -1.8833  0.7642 -0.3147
  710MOL0     H95819  -2.132   0.222   2.607 -2.7038  1.1657  0.0179
  710MOL0     H95820  -2.247   0.351   2.357 -0.4578 -1.8407 -0.6279
  710MOL0     H95821  -2.251   0.412   2.522  2.9266  0.5200 -1.2092
  710MOL0     H95822  -2.390   0.171   2.391  1.1920 -0.9538  0.3626
  710MOL0     H95823  -2.383   0.177   2.559 -3.1988 -0.8968 -1.3210
  710MOL0     H95824  -2.480   0.393   2.375  1.2589 -1.9464 -1.5446
  710MOL0     H95825  -2.502   0.409   2.551 -1.8705  1.1473 -0.5741
  710MOL0     H95826  -2.699   0.329   2.374 -0.3976  0.1451  0.2068
  710MOL0     H95827  -2.641   0.172   2.412 -1.1623  0.1104  0.1872
  710MOL0     H95828  -2.828   0.273   2.576 -0.2372  1.7805 -0.7663
  710MOL0     H95829  -2.704   0.373   2.633 -0.5109  0.1419 -0.9235
  710MOL0     H95830  -2.575   0.147   2.686  0.2993  1.2525 -0.8969
  710MOL0     H95831  -2.706   0.064   2.609  1.7959  0.7876 -2.2698
  710MOL0     H95832  -1.925   0.686   2.489  0.7550  0.4054 -0.1558
  710MOL0     H95833  -1.758   0.797   2.371  0.6806  0.1881 -0.4411
  710MOL0     H95834  -1.262   0.654   2.302 -2.1885  1.4265  0.9709
  710MOL0     H95835  -1.033   0.724   2.250  0.8673  1.9385 -1.7862
  710MOL0     H95836   0.402   1.648   1.379 -1.3708 -0.4400  2.3319
  710MOL0     H95837   0.611   1.768   1.415  1.2708 -0.9762  1.5107
  710MOL0     H95838   0.868   2.071   1.562  1.7964  1.3096 -0.3564
  710MOL0     H95839   1.095   2.133   1.524 -0.3191 -0.4817  0.1776
  710MOL0     H95840   1.429   1.898   1.712  0.2824 -0.8873 -1.1383
  710MOL0     H95841   1.421   1.851   1.553  0.0106 -1.0541  1.7538
  710MOL0     H95842   1.631   1.922   1.578 -2.0373 -2.0408 -1.1713
  710MOL0     H95843   1.570   2.073   1.668 -1.4388  2.5929 -2.2697
  710MOL0     H95844   1.534   2.181   1.469 -1.0939  0.2977  1.1412
  710MOL0     H95845   1.489   2.030   1.390  1.6088 -0.6729 -1.9297
  710MOL0     H95846   1.706   2.123   1.303  0.1833  1.1738  0.4354
  710MOL0     H95847   1.713   1.961   1.366  2.0750 -0.9601  1.2156
  710MOL0     H95848   1.952   2.182   1.646  1.5542 -3.1788  0.4323
  710MOL0     H95849   1.251   1.779   1.684  0.1952  0.1606  0.9900
  710MOL0     H95850   1.014   1.690   1.729  0.9976  0.6389  1.9334
  711MOL0     O95851   2.904   9.985   3.715 -0.1091 -0.1988 -0.2334
  711MOL0     C95852   2.813   9.926   3.657  0.2528 -0.2289  0.0919
  711MOL0     O95853   2.690   9.973   3.628 -0.0540 -0.2171  0.1568
  711MOL0     C95854   2.626  10.083   3.690 -0.2030 -0.1750 -0.1305
  711MOL0     C95855   2.660  10.126   3.822 -0.8147  0.3897 -0.9128
  711MOL0     C95856   2.581  10.219   3.883  0.2108  0.0298 -0.5666
  711MOL0     C95857   2.468  10.282   3.820  0.8001 -0.1377  0.4263
  711MOL0     O95858   2.393  10.379   3.871  0.0613  1.0704  0.3426
  711MOL0     C95859   2.396  10.410   4.016 -0.0735  0.2874  0.5801
  711MOL0     C95860   2.309  10.533   4.037 -0.5674 -0.2746  0.0683
  711MOL0     C95861   2.325  10.591   4.179 -0.2354 -0.8842  0.2754
  711MOL0     C95862   2.252  10.719   4.186  0.5542 -0.5724 -0.9280
  711MOL0     C95863   2.279  10.801   4.316  0.2262 -0.7228 -0.5092
  711MOL0     C95864   2.195  10.930   4.322 -0.3098  0.5337  0.1576
  711MOL0     C95865   2.235  11.006   4.447 -0.1308  0.1142 -0.0431
  711MOL0     C95866   2.172  11.141   4.446 -0.2164  1.1113 -0.6546
  711MOL0     N95867   2.167  11.185   4.584 -0.4621 -0.2351 -1.3071
  711MOL0     C95868   2.055  11.223   4.657  0.4083 -0.0766 -0.0557
  711MOL0     C95869   2.098  11.266   4.780  0.8128 -0.3765  0.6618
  711MOL0     C95870   2.021  11.321   4.896 -0.8532  0.8497  0.7431
  711MOL0     C95871   1.935  11.445   4.854 -0.8988  0.0748 -0.6933
  711MOL0     C95872   1.867  11.492   4.983  0.1033  0.5362 -0.4546
  711MOL0     C95873   1.739  11.407   5.012 -0.1627 -0.0884  0.6485
  711MOL0     O95874   1.630  11.466   4.934 -0.5665 -0.3376  0.8202
  711MOL0     C95875   1.507  11.426   4.968  0.1210 -0.0751 -0.0087
  711MOL0     C95876   1.478  11.311   5.047 -0.3253 -0.3438  0.1071
  711MOL0     C95877   1.352  11.282   5.087  0.0525 -1.5003  0.0559
  711MOL0     C95878   1.334  11.187   5.206  0.2017  0.6902 -0.4560
  711MOL0     C95879   1.241  11.346   5.028 -0.5140 -1.0942  0.5083
  711MOL0     C95880   1.100  11.304   5.034  0.1153  0.6177  0.3026
  711MOL0     O95881   1.000  11.407   5.048 -0.4823  0.2947  0.8553
  711MOL0     C95882   0.865  11.382   5.044  0.0913  0.4370  0.0217
  711MOL0     C95883   0.809  11.269   5.107  0.7260  0.3115  0.5453
  711MOL0     C95884   0.672  11.247   5.103 -0.0230  0.9550 -1.4071
  711MOL0     C95885   0.588  11.323   5.018  0.6495  0.3017 -0.2752
  711MOL0     O95886   0.456  11.312   5.011 -0.6959  0.1259 -0.1536
  711MOL0     C95887   0.395  11.202   5.077  0.8010  0.4141 -0.5575
  711MOL0     C95888   0.245  11.202   5.069  0.0579  0.4345 -0.5349
  711MOL0     C95889   0.197  11.104   5.174  0.8629 -0.2224 -0.1524
  711MOL0     C95890   0.054  11.047   5.140  0.4952  0.2246 -0.1001
  711MOL0     C95891  -0.006  10.978   5.265 -0.4891 -0.2534  1.3452
  711MOL0     C95892  -0.039  11.075   5.379 -0.4574 -0.4839  0.5213
  711MOL0     C95893  -0.090  11.004   5.495  0.0777 -0.3288  0.8075
  711MOL0     C95894  -0.095  11.090   5.617 -0.4565 -0.0159 -0.2192
  711MOL0    Cl95895  -0.245  11.041   5.716  0.5359 -0.1474 -0.9121
  711MOL0     C95896   0.644  11.432   4.948  0.1148  0.5151  0.1886
  711MOL0     C95897   0.776  11.458   4.964 -0.5558  0.3452 -0.2733
  711MOL0     O95898   1.075  11.182   5.046  0.6223  0.1105  0.0071
  711MOL0     C95899   1.264  11.446   4.933  0.1409 -0.0966  0.6467
  711MOL0     C95900   1.395  11.482   4.904 -0.3737 -0.0285 -0.8431
  711MOL0     N95901   2.231  11.258   4.777 -0.1816 -0.0068  1.2859
  711MOL0     N95902   2.273  11.209   4.660  0.0063  0.4514 -0.4299
  711MOL0     C95903   2.438  10.237   3.694  0.5353  0.3326  0.2575
  711MOL0     C95904   2.516  10.140   3.628  0.0104 -0.4402  0.0785
  711MOL0     C95905   2.832   9.789   3.591  0.8057  0.0096  0.9791
  711MOL0     C95906   2.734   9.727   3.505  1.0836 -0.2789 -0.6504
  711MOL0     C95907   2.756   9.604   3.449  0.9063  0.9931  0.3188
  711MOL0     C95908   2.865   9.524   3.490 -0.2153  0.1257  0.4868
  711MOL0     O95909   2.876   9.394   3.454  0.1433 -0.5972 -1.1256
  711MOL0     C95910   2.765   9.319   3.405  0.1847 -0.4257  0.6959
  711MOL0     C95911   2.812   9.177   3.399 -0.5982 -0.0692  0.3550
  711MOL0     C95912   2.692   9.087   3.347  0.4725 -0.7921  0.6234
  711MOL0     C95913   2.674   8.959   3.433  0.4888 -0.3730 -0.2667
  711MOL0     C95914   2.632   9.016   3.570 -0.2642  0.4016  1.0664
  711MOL0     C95915   2.605   9.081   3.661 -0.7904  0.5044 -0.0200
  711MOL0     C95916   2.963   9.583   3.571 -0.4779 -0.2151  0.8046
  711MOL0     C95917   2.951   9.718   3.624 -0.2149  0.3474 -0.0455
  711MOL0     H95918   2.735  10.068   3.875 -4.3399 -1.2989  2.6914
  711MOL0     H95919   2.607  10.259   3.981 -3.0328 -0.0027  0.4249
  711MOL0     H95920   2.363  10.316   4.061 -0.2339 -0.2977 -0.7053
  711MOL0     H95921   2.493  10.426   4.063 -0.6453 -1.0879  2.3413
  711MOL0     H95922   2.322  10.599   3.950  1.3875 -0.6374  0.0373
  711MOL0     H95923   2.209  10.488   4.037 -1.1756  0.7839  3.4091
  711MOL0     H95924   2.282  10.516   4.245  0.4356 -1.9959 -0.5204
  711MOL0     H95925   2.428  10.602   4.214  0.5857  0.5402 -2.2635
  711MOL0     H95926   2.291  10.777   4.102  0.3997 -0.1903 -0.7367
  711MOL0     H95927   2.143  10.706   4.186 -0.0256  3.2359 -0.4286
  711MOL0     H95928   2.256  10.738   4.402 -5.3885 -1.1102 -1.8957
  711MOL0     H95929   2.385  10.826   4.319  0.8942 -3.2573  2.4604
  711MOL0     H95930   2.214  10.981   4.227  0.5451 -0.1944 -0.0826
  711MOL0     H95931   2.088  10.913   4.318 -0.2033 -0.6066  1.4267
  711MOL0     H95932   2.214  10.951   4.540  1.7362 -1.2255 -0.3374
  711MOL0     H95933   2.344  11.022   4.444 -0.1632  0.5546 -4.2453
  711MOL0     H95934   2.072  11.134   4.403 -0.6452 -0.2326  0.4589
  711MOL0     H95935   2.224  11.217   4.387 -1.5712  0.6594 -2.5226
  711MOL0     H95936   1.949  11.216   4.634  0.6844 -0.7066 -1.1998
  711MOL0     H95937   1.957  11.245   4.941  0.2346 -1.0415 -0.7216
  711MOL0     H95938   2.098  11.352   4.967 -0.5318 -0.1061  0.8222
  711MOL0     H95939   1.862  11.419   4.776 -0.4604 -0.6155 -0.8836
  711MOL0     H95940   2.001  11.523   4.816 -1.0049  0.6192  0.2143
  711MOL0     H95941   1.845  11.598   4.967  0.8702  0.9414  1.0221
  711MOL0     H95942   1.946  11.486   5.059 -0.3482  1.3373  0.0865
  711MOL0     H95943   1.717  11.423   5.118  1.8258  1.0571  0.9366
  711MOL0     H95944   1.752  11.302   4.982  1.0210  0.2814 -0.2174
  711MOL0     H95945   1.555  11.251   5.093 -2.1737 -3.9435 -1.1329
  711MOL0     H95946   1.428  11.162   5.255 -0.6058  2.9315  2.5692
  711MOL0     H95947   1.270  11.236   5.280 -0.5281  0.5454 -0.9718
  711MOL0     H95948   1.293  11.094   5.165  3.3459 -0.3644 -1.5184
  711MOL0     H95949   0.876  11.204   5.163  1.3643 -0.5859 -1.1673
  711MOL0     H95950   0.650  11.150   5.148 -0.4179  2.3269  1.6058
  711MOL0     H95951   0.435  11.110   5.033 -0.3700 -1.5814  2.2678
  711MOL0     H95952   0.419  11.196   5.184 -2.8684 -1.5898  0.2882
  711MOL0     H95953   0.203  11.302   5.083 -0.4559  0.3816 -1.6096
  711MOL0     H95954   0.213  11.165   4.971  1.8864  0.6306 -1.2413
  711MOL0     H95955   0.190  11.151   5.273 -0.1339 -0.7597  0.0495
  711MOL0     H95956   0.264  11.018   5.183 -2.0713 -2.5364  1.4707
  711MOL0     H95957  -0.007  11.129   5.101  2.0954  1.2393 -0.5642
  711MOL0     H95958   0.065  10.973   5.060 -2.6234 -0.0891 -0.3568
  711MOL0     H95959   0.052  10.889   5.287  2.1912  0.9186 -0.5034
  711MOL0     H95960  -0.101  10.933   5.234 -1.2545  0.6522  2.2832
  711MOL0     H95961   0.049  11.134   5.405 -0.1860 -0.1762 -0.9921
  711MOL0     H95962  -0.123  11.139   5.350 -0.6971 -1.6093 -1.4813
  711MOL0     H95963  -0.015  10.926   5.503  1.5051  0.5316 -2.6329
  711MOL0     H95964  -0.187  10.970   5.457 -0.1547  1.7695 -0.6441
  711MOL0     H95965  -0.107  11.199   5.611  1.7307  0.3679  0.9532
  711MOL0     H95966  -0.007  11.077   5.680 -2.1417 -0.7516  2.1234
  711MOL0     H95967   0.579  11.487   4.881  1.6558 -1.4649 -3.2057
  711MOL0     H95968   0.818  11.542   4.909  2.5361  1.2536  3.0796
  711MOL0     H95969   1.173  11.493   4.898  0.4270 -0.5502 -0.7348
  711MOL0     H95970   1.405  11.560   4.830 -0.2239  2.4540  1.6241
  711MOL0     H95971   2.357  10.285   3.639  0.5941 -1.0997 -1.1764
  711MOL0     H95972   2.492  10.114   3.525  2.0108  2.7227 -1.3207
  711MOL0     H95973   2.635   9.769   3.500  1.0609 -0.1394  0.6126
  711MOL0     H95974   2.674   9.562   3.392  1.5787 -0.4251  0.3520
  711MOL0     H95975   2.686   9.334   3.479  2.0374  2.2332  2.3498
  711MOL0     H95976   2.735   9.362   3.310  0.3884  0.1241  0.8764
  711MOL0     H95977   2.849   9.134   3.493 -0.3093  0.7992  0.6504
  711MOL0     H95978   2.894   9.158   3.329  0.4288 -1.0113  1.7670
  711MOL0     H95979   2.695   9.063   3.241  0.7415  0.3311  0.3658
  711MOL0     H95980   2.601   9.148   3.350 -0.1476 -1.4620 -2.0919
  711MOL0     H95981   2.773   8.912   3.442 -0.1770 -1.8877 -0.6086
  711MOL0     H95982   2.594   8.896   3.393  2.0786 -0.8347 -2.9253
  711MOL0     H95983   2.589   9.141   3.748  2.4096  0.8340  0.4620
  711MOL0     H95984   3.050   9.524   3.599  0.0489  0.2500  0.2003
  711MOL0     H95985   3.029   9.756   3.688 -1.5926  2.4781  0.4537
  712MOL0     O95986   9.346   6.796   2.232  0.1655 -0.0899 -0.4949
  712MOL0     C95987   9.372   6.916   2.219  0.5281 -0.0308 -0.0613
  712MOL0     O95988   9.302   7.017   2.272 -0.5445 -0.2005  0.5872
  712MOL0     C95989   9.210   6.972   2.359  0.2781  0.0782 -0.4496
  712MOL0     C95990   9.075   6.988   2.326  0.3613 -0.6667 -0.1540
  712MOL0     C95991   8.973   6.942   2.406  0.4644  0.7412 -0.3292
  712MOL0     C95992   9.003   6.876   2.528 -0.9756 -0.1945 -0.1867
  712MOL0     O95993   8.896   6.832   2.609 -0.2470 -0.2995 -0.9116
  712MOL0     C95994   8.868   6.911   2.723 -0.2134  0.0967 -0.0055
  712MOL0     C95995   8.778   6.820   2.810 -0.4450 -0.5089  0.6101
  712MOL0     C95996   8.627   6.854   2.794  0.3918  0.0929 -0.3823
  712MOL0     C95997   8.584   6.830   2.644  0.2980 -0.6291  0.8196
  712MOL0     C95998   8.433   6.872   2.606 -0.2045  0.1364 -0.1558
  712MOL0     C95999   8.318   6.802   2.675 -0.8586  0.1169  0.7868
  712MOL0     C96000   8.185   6.863   2.622 -0.2595 -0.3035 -1.2943
  712MOL0     C96001   8.070   6.781   2.668  0.1003  0.4108  0.1010
  712MOL0     N96002   7.943   6.839   2.625 -0.7347 -0.6126 -0.2709
  712MOL0     C96003   7.914   6.977   2.628 -0.2671  0.1502  0.0243
  712MOL0     C96004   7.783   6.988   2.608  0.0598 -0.2341 -0.3659
  712MOL0     C96005   7.712   7.123   2.601 -0.7583  0.2180 -0.0061
  712MOL0     C96006   7.582   7.119   2.533 -0.1997 -0.0956 -0.9192
  712MOL0     C96007   7.498   7.244   2.584 -0.3722  0.5405  0.2446
  712MOL0     C96008   7.387   7.288   2.492  0.1621 -0.4439 -0.9071
  712MOL0     O96009   7.297   7.181   2.469  0.5833  0.4435  0.3534
  712MOL0     C96010   7.161   7.204   2.466  0.5114 -0.1305  0.1497
  712MOL0     C96011   7.092   7.092   2.520 -0.4630 -0.7043 -0.0403
  712MOL0     C96012   6.956   7.091   2.522 -0.2085 -0.2503  0.2028
  712MOL0     C96013   6.896   6.961   2.572  0.7450  0.0117  0.6529
  712MOL0     C96014   6.894   7.207   2.468 -0.4994  0.1477  0.3271
  712MOL0     C96015   6.741   7.217   2.475 -1.2866 -0.3976  0.2062
  712MOL0     O96016   6.670   7.149   2.568 -0.0902 -1.0999  0.1747
  712MOL0     C96017   6.539   7.128   2.558 -1.1438 -0.4783  0.6038
  712MOL0     C96018   6.500   7.001   2.515 -0.5360  0.7514  0.4188
  712MOL0     C96019   6.366   6.968   2.496  0.5097  0.5169 -0.4362
  712MOL0     C96020   6.262   7.063   2.507  0.5060 -0.9705  0.2805
  712MOL0     O96021   6.133   7.024   2.490 -0.1573  0.7004  0.0238
  712MOL0     C96022   6.029   7.120   2.469 -0.2101  0.9508 -0.4910
  712MOL0     C96023   5.905   7.052   2.410 -0.5546 -0.0389 -0.1028
  712MOL0     C96024   5.787   7.158   2.407  0.9790 -0.9347  0.9333
  712MOL0     C96025   5.797   7.246   2.279  0.2459  0.5304  0.3319
  712MOL0     C96026   5.658   7.315   2.258  0.2630  0.1580  0.0176
  712MOL0     C96027   5.616   7.426   2.358  0.7669 -0.3715  0.5277
  712MOL0     C96028   5.466   7.462   2.350  0.5248  0.3881 -0.1193
  712MOL0     C96029   5.440   7.582   2.438 -0.3138 -0.2024  0.7796
  712MOL0    Cl96030   5.262   7.608   2.424 -0.5706 -0.0718 -0.1422
  712MOL0     C96031   6.304   7.199   2.540 -0.5238 -0.1167 -0.1211
  712MOL0     C96032   6.443   7.227   2.562 -0.0315 -0.1861  0.8743
  712MOL0     O96033   6.689   7.269   2.381 -0.9492  0.0993 -0.2155
  712MOL0     C96034   6.962   7.321   2.412 -0.3826  0.6533 -0.7384
  712MOL0     C96035   7.099   7.321   2.421  0.4339  1.6427  0.0709
  712MOL0     N96036   7.717   6.861   2.602 -0.4311 -0.4545  0.1119
  712MOL0     N96037   7.825   6.779   2.612  1.1444 -0.3267  0.2003
  712MOL0     C96038   9.140   6.856   2.564 -0.0031 -0.7896 -0.3649
  712MOL0     C96039   9.237   6.910   2.479 -0.9163  0.6350  0.4292
  712MOL0     C96040   9.504   6.960   2.159 -0.1297 -1.3497 -0.5622
  712MOL0     C96041   9.541   7.095   2.168 -0.1846 -0.0256  0.6241
  712MOL0     C96042   9.671   7.144   2.122 -0.0720 -0.1567 -0.3053
  712MOL0     C96043   9.759   7.053   2.061 -0.0433  0.6094  0.4637
  712MOL0     O96044   9.886   7.083   2.015  0.1151 -0.1683 -0.9287
  712MOL0     C96045   9.960   7.195   2.089 -0.5848  0.3411  0.4794
  712MOL0     C96046  10.109   7.198   2.048 -0.3225  0.8978 -0.0197
  712MOL0     C96047  10.172   7.054   2.063 -0.1568 -0.8649 -0.0822
  712MOL0     C96048  10.198   6.980   1.936 -0.4566 -0.4895  1.0651
  712MOL0     C96049  10.310   7.051   1.867  0.0641  0.0459 -0.1654
  712MOL0     C96050  10.393   7.120   1.810  0.0306 -1.1800  0.4913
  712MOL0     C96051   9.713   6.917   2.034  0.6584  0.0017 -0.1396
  712MOL0     C96052   9.584   6.876   2.083  0.1473  0.0912  1.2150
  712MOL0     H96053   9.048   7.031   2.230 -2.4018 -2.9833 -0.5497
  712MOL0     H96054   8.871   6.954   2.371  0.3967 -1.3806 -1.0001
  712MOL0     H96055   8.962   6.939   2.772 -0.0322  1.0202 -0.8467
  712MOL0     H96056   8.816   7.001   2.691 -1.4043 -0.4001  0.4873
  712MOL0     H96057   8.788   6.713   2.792 -0.6173 -0.4335  0.0536
  712MOL0     H96058   8.806   6.850   2.912  2.4250  1.7363 -0.6707
  712MOL0     H96059   8.570   6.807   2.875  2.1495 -1.3631  0.0832
  712MOL0     H96060   8.611   6.960   2.812 -2.6727 -0.1576 -1.0795
  712MOL0     H96061   8.649   6.891   2.581 -0.9946  1.3392  1.3056
  712MOL0     H96062   8.596   6.726   2.613 -0.5838  0.3536 -3.5500
  712MOL0     H96063   8.417   6.977   2.633 -0.4122  0.4006 -1.2589
  712MOL0     H96064   8.418   6.864   2.498  2.0873  2.1465 -0.7137
  712MOL0     H96065   8.321   6.694   2.655  2.3712  0.1400  0.5953
  712MOL0     H96066   8.325   6.812   2.784  0.9638  0.1052  0.7001
  712MOL0     H96067   8.177   6.969   2.647 -2.4507 -0.7602  0.2402
  712MOL0     H96068   8.175   6.851   2.514 -0.5259  0.7640 -1.3950
  712MOL0     H96069   8.081   6.769   2.776  1.6735  1.2797  0.0586
  712MOL0     H96070   8.074   6.683   2.622 -0.9062  1.5222 -2.5495
  712MOL0     H96071   7.987   7.057   2.635  0.2409  0.0399 -2.7470
  712MOL0     H96072   7.712   7.162   2.703  2.0259 -0.9945  0.5400
  712MOL0     H96073   7.780   7.193   2.551  0.8312 -0.2574  1.4151
  712MOL0     H96074   7.528   7.027   2.557 -3.3950  2.4803  3.4172
  712MOL0     H96075   7.602   7.121   2.426  0.6525 -0.0659 -0.7622
  712MOL0     H96076   7.560   7.334   2.593  1.7213 -0.5341 -2.1358
  712MOL0     H96077   7.463   7.227   2.686  1.6852 -1.7420  0.6676
  712MOL0     H96078   7.427   7.326   2.398 -1.7811  2.3310 -0.7502
  712MOL0     H96079   7.335   7.375   2.533  1.1014 -0.5361  0.5313
  712MOL0     H96080   7.156   7.012   2.558  1.9650  1.2958  0.3237
  712MOL0     H96081   6.804   6.937   2.518 -0.0224  3.7042  0.0084
  712MOL0     H96082   6.957   6.871   2.578 -1.3553 -1.5055  0.1325
  712MOL0     H96083   6.869   6.981   2.676 -0.8589  1.1056  0.0688
  712MOL0     H96084   6.577   6.924   2.509 -2.2821 -1.3315  2.7385
  712MOL0     H96085   6.338   6.865   2.477  1.8874 -0.0595  0.5285
  712MOL0     H96086   6.005   7.155   2.570 -1.6279 -1.8316  0.2446
  712MOL0     H96087   6.063   7.205   2.410  1.6033 -0.5289 -1.6773
  712MOL0     H96088   5.929   7.008   2.312 -3.0218 -3.4728  0.6403
  712MOL0     H96089   5.862   6.974   2.473 -2.0416  0.2419 -0.6997
  712MOL0     H96090   5.787   7.214   2.501  2.4948  1.3545 -0.3327
  712MOL0     H96091   5.692   7.106   2.421  0.7861 -0.5776  0.9625
  712MOL0     H96092   5.887   7.307   2.279  1.8584 -1.7116 -0.4209
  712MOL0     H96093   5.804   7.166   2.204 -6.1962 -0.2297 -0.0669
  712MOL0     H96094   5.580   7.238   2.259  1.5956 -1.2498 -0.0811
  712MOL0     H96095   5.668   7.355   2.157  3.6723 -1.8018 -0.6011
  712MOL0     H96096   5.634   7.380   2.456  2.3795 -1.1862 -0.1097
  712MOL0     H96097   5.677   7.517   2.358 -1.9675  1.6538  2.3029
  712MOL0     H96098   5.405   7.375   2.376  1.3461  0.5027  2.5238
  712MOL0     H96099   5.446   7.483   2.244 -1.0711  0.8758  0.2524
  712MOL0     H96100   5.484   7.667   2.385  0.3840 -0.9551  0.1128
  712MOL0     H96101   5.473   7.575   2.542 -1.6861  0.2354  1.2554
  712MOL0     H96102   6.232   7.280   2.551  0.3436  0.7378 -0.5928
  712MOL0     H96103   6.467   7.333   2.569 -0.3841  0.0860 -1.2472
  712MOL0     H96104   6.902   7.397   2.362 -2.6767  0.6468  1.7554
  712MOL0     H96105   7.162   7.402   2.386  0.4376  2.9959  2.9531
  712MOL0     H96106   9.170   6.807   2.656 -0.1614 -0.8543 -0.3463
  712MOL0     H96107   9.342   6.899   2.500 -0.2549 -3.5402 -3.4366
  712MOL0     H96108   9.481   7.174   2.213  1.9609 -0.0453  3.8681
  712MOL0     H96109   9.709   7.245   2.129  3.3999 -0.9499 -4.0880
  712MOL0     H96110   9.913   7.292   2.070  4.0282  2.8210  0.4925
  712MOL0     H96111   9.952   7.177   2.197  0.2928 -0.4777  0.4134
  712MOL0     H96112  10.161   7.268   2.114 -1.8332  2.1405 -0.0698
  712MOL0     H96113  10.127   7.221   1.942  0.1497 -2.4784 -0.8079
  712MOL0     H96114  10.102   6.995   2.123 -0.5554  0.4234  0.7512
  712MOL0     H96115  10.266   7.065   2.118 -1.4849 -0.5775  2.2693
  712MOL0     H96116  10.108   6.981   1.874 -0.8730  0.1705  1.6670
  712MOL0     H96117  10.221   6.875   1.956  0.0554 -0.6277 -0.1505
  712MOL0     H96118  10.472   7.184   1.775  0.2769  0.3660  3.5458
  712MOL0     H96119   9.785   6.854   1.983  1.5100 -1.4392  2.6890
  712MOL0     H96120   9.555   6.775   2.055  0.3146  0.6816 -1.3909
  713MOL0     O96121   2.780  10.551   1.587  0.1196  0.2113 -0.3557
  713MOL0     C96122   2.862  10.504   1.665  0.8293  0.3062 -0.9606
  713MOL0     O96123   2.854  10.381   1.738  0.0387 -0.1577 -0.3208
  713MOL0     C96124   2.731  10.326   1.745 -0.1728  0.0541  0.3876
  713MOL0     C96125   2.616  10.389   1.806  0.1646 -0.0517  1.2103
  713MOL0     C96126   2.495  10.321   1.798 -0.4314  0.7959 -0.3298
  713MOL0     C96127   2.476  10.193   1.746 -0.0126 -0.3187 -0.5473
  713MOL0     O96128   2.354  10.132   1.775 -0.0237  0.6175  0.7037
  713MOL0     C96129   2.350  10.056   1.901 -0.9401 -0.0831 -0.3091
  713MOL0     C96130   2.271   9.926   1.901  0.3990 -0.1183 -0.9559
  713MOL0     C96131   2.117   9.945   1.896 -0.2794 -0.8217 -0.4854
  713MOL0     C96132   2.064   9.813   1.834  1.2093  0.1317 -0.0201
  713MOL0     C96133   1.911   9.819   1.814  0.1563 -0.6331  0.7745
  713MOL0     C96134   1.831   9.855   1.944  0.0602 -0.4422  0.2592
  713MOL0     C96135   1.696   9.791   1.947  0.4534  0.1276  1.8029
  713MOL0     C96136   1.701   9.638   1.961 -0.4561 -0.0679 -0.9399
  713MOL0     N96137   1.565   9.581   1.985 -0.2589  0.5815 -0.1167
  713MOL0     C96138   1.446   9.616   1.934  0.1618  0.2752  0.0467
  713MOL0     C96139   1.352   9.536   1.984 -0.3100  0.1047 -0.8371
  713MOL0     C96140   1.206   9.538   1.972  0.2373 -0.0635 -0.2652
  713MOL0     C96141   1.161   9.582   1.831 -0.5255  0.0463  0.7013
  713MOL0     C96142   1.017   9.616   1.837 -0.0530  0.4043  0.3054
  713MOL0     C96143   0.968   9.643   1.693 -0.4375 -0.1864  0.1292
  713MOL0     O96144   0.823   9.632   1.711  0.2181 -0.4214  0.5709
  713MOL0     C96145   0.750   9.640   1.592  0.0055 -0.0882  0.8639
  713MOL0     C96146   0.799   9.682   1.470  1.1689  1.0052 -0.4904
  713MOL0     C96147   0.709   9.707   1.361 -0.4419 -0.1691  0.7448
  713MOL0     C96148   0.775   9.757   1.228  0.1219 -0.3199  1.3865
  713MOL0     C96149   0.572   9.687   1.383  0.1219  0.1438 -0.8610
  713MOL0     C96150   0.471   9.688   1.279  0.0064  0.0047 -0.5167
  713MOL0     O96151   0.353   9.649   1.328 -0.7307  0.0870  0.3793
  713MOL0     C96152   0.227   9.641   1.262  0.0165 -0.7928  0.0829
  713MOL0     C96153   0.120   9.587   1.341 -0.4990 -0.0566  1.0007
  713MOL0     C96154   0.001   9.564   1.280  0.0577  0.2684  0.3993
  713MOL0     C96155  -0.031   9.588   1.147 -1.0205 -0.0349 -1.1770
  713MOL0     O96156  -0.144   9.548   1.089 -0.3522  1.2355  0.3737
  713MOL0     C96157  -0.130   9.411   1.050 -0.7408 -0.6917 -0.0803
  713MOL0     C96158  -0.245   9.384   0.960 -0.7943 -0.8798  0.2843
  713MOL0     C96159  -0.257   9.244   0.926  0.3904 -0.8839 -0.0444
  713MOL0     C96160  -0.326   9.160   1.048  0.8180 -0.6154 -0.6850
  713MOL0     C96161  -0.450   9.213   1.115 -0.1348  0.2116  0.9167
  713MOL0     C96162  -0.561   9.233   1.008  0.2909  0.9425 -0.1598
  713MOL0     C96163  -0.686   9.239   1.089 -0.2351  0.2298 -0.1146
  713MOL0     C96164  -0.802   9.298   1.013  0.1968 -0.0048  0.0117
  713MOL0    Cl96165  -0.951   9.254   1.116  0.1137  0.3258  0.1188
  713MOL0     C96166   0.072   9.651   1.072  0.1308  0.4150 -0.1228
  713MOL0     C96167   0.200   9.685   1.129  0.7166  0.5179 -0.3157
  713MOL0     O96168   0.492   9.720   1.163  0.7745 -0.4210  0.0290
  713MOL0     C96169   0.525   9.661   1.513  0.1298  1.1841  0.0124
  713MOL0     C96170   0.618   9.638   1.614  0.1322  0.2411 -0.0616
  713MOL0     N96171   1.418   9.459   2.082  0.6667  0.3089  0.1207
  713MOL0     N96172   1.547   9.476   2.073  0.1601 -0.0623 -0.2261
  713MOL0     C96173   2.587  10.131   1.694 -0.4125 -0.7182 -0.2723
  713MOL0     C96174   2.717  10.198   1.688  0.9029  0.3674 -0.2059
  713MOL0     C96175   2.996  10.572   1.668 -0.0992  0.6123 -0.2432
  713MOL0     C96176   3.105  10.504   1.738  0.2586 -0.7098 -0.3123
  713MOL0     C96177   3.219  10.559   1.764  0.2281 -0.4153 -0.0917
  713MOL0     C96178   3.242  10.689   1.712 -0.5472  0.0350  0.0943
  713MOL0     O96179   3.356  10.756   1.716 -0.8376  0.4983  0.8253
  713MOL0     C96180   3.474  10.691   1.776 -0.0032 -0.5300 -0.0775
  713MOL0     C96181   3.533  10.598   1.669 -0.7005 -0.2783 -0.0846
  713MOL0     C96182   3.659  10.521   1.716  0.6614  1.6239  0.1856
  713MOL0     C96183   3.736  10.447   1.607  0.2975 -0.5626 -0.0773
  713MOL0     C96184   3.858  10.377   1.661  0.0990 -0.3783 -0.0362
  713MOL0     C96185   3.943  10.307   1.701  0.0761 -0.6603 -0.1146
  713MOL0     C96186   3.147  10.764   1.646  0.0700 -0.0343  0.2765
  713MOL0     C96187   3.023  10.699   1.622 -0.5248  0.3990 -0.7851
  713MOL0     H96188   2.620  10.479   1.866  0.6172 -0.3317  1.6048
  713MOL0     H96189   2.411  10.374   1.844  0.3476  1.4384  0.3837
  713MOL0     H96190   2.449  10.020   1.933 -1.2263 -0.1396  0.5125
  713MOL0     H96191   2.314  10.117   1.983 -1.3110 -1.7796  0.8320
  713MOL0     H96192   2.314   9.874   1.815  0.4585  4.3924 -3.9995
  713MOL0     H96193   2.304   9.867   1.987 -0.2752  0.5503 -0.2156
  713MOL0     H96194   2.097   9.973   2.000  1.0850  0.0251 -0.4230
  713MOL0     H96195   2.087  10.032   1.837 -1.1626  0.4153  1.6851
  713MOL0     H96196   2.117   9.803   1.738  1.7213  3.3526 -0.2041
  713MOL0     H96197   2.087   9.736   1.908 -1.5065 -1.5550 -0.8143
  713MOL0     H96198   1.877   9.886   1.734 -1.1564 -0.9282  1.0742
  713MOL0     H96199   1.881   9.723   1.772  1.7781 -0.1250 -1.8205
  713MOL0     H96200   1.887   9.827   2.034 -0.6861  0.4947  1.0423
  713MOL0     H96201   1.820   9.964   1.951  1.7148 -0.3264  2.1983
  713MOL0     H96202   1.633   9.829   2.028 -0.7435  0.5134  0.7152
  713MOL0     H96203   1.646   9.810   1.852 -0.5887  1.9977  2.6703
  713MOL0     H96204   1.779   9.612   2.034 -0.9912 -2.4898 -1.1449
  713MOL0     H96205   1.744   9.590   1.872  0.6756 -1.6752  0.4086
  713MOL0     H96206   1.434   9.704   1.872  1.7390  0.4119 -0.0973
  713MOL0     H96207   1.175   9.436   1.997 -4.4948  0.9808 -0.8869
  713MOL0     H96208   1.148   9.600   2.041 -3.9366 -1.7532 -1.8823
  713MOL0     H96209   1.170   9.498   1.761  0.0419  0.1647  0.6277
  713MOL0     H96210   1.227   9.662   1.797  1.2480 -0.3857  2.8301
  713MOL0     H96211   1.017   9.702   1.906  3.0873 -0.0066  0.9627
  713MOL0     H96212   0.960   9.530   1.871  0.2637  0.3638  0.7465
  713MOL0     H96213   1.000   9.568   1.620  0.0106  1.3610 -1.3317
  713MOL0     H96214   1.006   9.738   1.656 -0.3741  0.3583  1.5405
  713MOL0     H96215   0.906   9.689   1.458  0.8494  1.7282 -3.7993
  713MOL0     H96216   0.732   9.846   1.180  3.0708  0.8088  0.6768
  713MOL0     H96217   0.882   9.766   1.246  0.5619 -1.2424 -0.4989
  713MOL0     H96218   0.762   9.676   1.156 -0.6312  1.1987 -0.2843
  713MOL0     H96219   0.140   9.569   1.446 -1.3880  0.1493  1.2115
  713MOL0     H96220  -0.069   9.507   1.342  1.0011 -1.3212  0.0563
  713MOL0     H96221  -0.042   9.381   0.993 -1.7381 -3.3176 -0.3830
  713MOL0     H96222  -0.137   9.354   1.143  0.3027 -1.3466 -0.3883
  713MOL0     H96223  -0.343   9.426   0.982 -1.7154 -1.9561 -1.5416
  713MOL0     H96224  -0.209   9.436   0.870 -0.4633  0.3676  1.1042
  713MOL0     H96225  -0.158   9.200   0.911  2.1846  1.7154  2.9604
  713MOL0     H96226  -0.319   9.229   0.837  1.4120 -0.7039 -0.8056
  713MOL0     H96227  -0.347   9.060   1.008  1.1900 -1.1180  0.3422
  713MOL0     H96228  -0.251   9.147   1.127  0.3365  4.1793  0.8315
  713MOL0     H96229  -0.434   9.308   1.165 -0.1819  2.1750 -2.4752
  713MOL0     H96230  -0.489   9.147   1.193 -0.3119 -1.2031 -0.3154
  713MOL0     H96231  -0.541   9.325   0.953  5.3167 -0.1137 -0.6122
  713MOL0     H96232  -0.554   9.146   0.942 -0.5227  0.0754  0.8659
  713MOL0     H96233  -0.666   9.308   1.171  0.7511  0.1574 -0.2800
  713MOL0     H96234  -0.723   9.141   1.120  1.7574 -1.7758 -3.5116
  713MOL0     H96235  -0.810   9.258   0.911  0.4722  1.9663 -0.8415
  713MOL0     H96236  -0.795   9.408   1.015 -0.2058  0.0897 -1.9132
  713MOL0     H96237   0.055   9.651   0.965  1.5887 -0.5686 -0.3949
  713MOL0     H96238   0.276   9.731   1.067  0.9730  0.0680 -0.3391
  713MOL0     H96239   0.419   9.657   1.536 -0.0611 -0.8088 -0.9301
  713MOL0     H96240   0.571   9.617   1.710  0.3029 -2.5197 -0.5020
  713MOL0     H96241   2.578  10.028   1.660  1.6041 -1.5628  1.5166
  713MOL0     H96242   2.805  10.145   1.653  0.6668 -1.2552  1.5255
  713MOL0     H96243   3.086  10.401   1.768  3.8138 -1.1398  0.9671
  713MOL0     H96244   3.285  10.496   1.823 -2.8053 -2.2338  1.6040
  713MOL0     H96245   3.549  10.768   1.798  2.4835 -2.4277 -1.3687
  713MOL0     H96246   3.441  10.652   1.872 -0.0128  0.2846  0.2619
  713MOL0     H96247   3.564  10.662   1.585 -0.5601  2.3019  1.8285
  713MOL0     H96248   3.455  10.530   1.633  0.8682 -1.6184 -1.0674
  713MOL0     H96249   3.630  10.445   1.789  2.8986  2.0177  1.5914
  713MOL0     H96250   3.723  10.590   1.772 -0.9296  2.5788  0.9149
  713MOL0     H96251   3.772  10.520   1.534 -1.8689 -0.2743 -0.9218
  713MOL0     H96252   3.664  10.377   1.564 -1.6853  0.0229  2.0662
  713MOL0     H96253   4.030  10.246   1.716 -0.9821 -1.5112  3.2905
  713MOL0     H96254   3.178  10.860   1.606  1.6102 -0.7593 -0.3942
  713MOL0     H96255   2.946  10.750   1.565  0.2851  1.0098 -1.3579
  714MOL0     O96256   7.136   7.980   1.739 -0.5693  0.3852 -0.1316
  714MOL0     C96257   7.097   8.090   1.695  0.2806 -0.0029 -0.2639
  714MOL0     O96258   6.961   8.117   1.668 -0.4314 -0.7762  0.2752
  714MOL0     C96259   6.882   8.004   1.661  0.3116 -0.6523  0.6208
  714MOL0     C96260   6.881   7.936   1.538 -0.3761  0.7589 -0.0667
  714MOL0     C96261   6.812   7.816   1.515 -0.1141  0.8757  0.0187
  714MOL0     C96262   6.739   7.773   1.627 -1.0796  0.9890 -0.2539
  714MOL0     O96263   6.646   7.672   1.611 -0.5573  0.1245 -0.0432
  714MOL0     C96264   6.607   7.622   1.479 -0.3346 -0.3435  0.1055
  714MOL0     C96265   6.531   7.488   1.486 -0.2819 -0.5566 -0.0555
  714MOL0     C96266   6.403   7.490   1.570 -0.2949  0.2896  0.5909
  714MOL0     C96267   6.318   7.608   1.531  0.7173 -0.3431 -0.2455
  714MOL0     C96268   6.172   7.605   1.594  0.1572  0.2337 -1.1470
  714MOL0     C96269   6.173   7.666   1.735 -0.7892  0.3275 -0.7225
  714MOL0     C96270   6.029   7.696   1.775  0.0781 -0.0215 -0.0722
  714MOL0     C96271   6.004   7.756   1.917  0.4865  0.8871 -0.0397
  714MOL0     N96272   5.860   7.752   1.959  0.0733 -0.1610 -0.0056
  714MOL0     C96273   5.748   7.798   1.893 -0.3400 -0.0116 -0.4943
  714MOL0     C96274   5.646   7.763   1.982  0.0689 -0.5438  0.7361
  714MOL0     C96275   5.504   7.792   1.967 -0.4767 -0.2053  0.0098
  714MOL0     C96276   5.415   7.711   2.063  0.1774 -1.2982  0.6498
  714MOL0     C96277   5.265   7.715   2.013 -0.6961  0.0372 -0.3108
  714MOL0     C96278   5.175   7.627   2.097  0.2580 -0.3066  1.1416
  714MOL0     O96279   5.043   7.611   2.036  0.3977 -0.3004 -0.7322
  714MOL0     C96280   4.945   7.551   2.108 -0.0426  0.9983 -0.5678
  714MOL0     C96281   4.849   7.483   2.041 -0.4416 -0.0187  0.0491
  714MOL0     C96282   4.746   7.419   2.105 -0.5962 -0.1666  0.6087
  714MOL0     C96283   4.650   7.354   2.009  0.3723 -0.0314 -0.1390
  714MOL0     C96284   4.734   7.415   2.242  0.1070  0.6054  0.1396
  714MOL0     C96285   4.652   7.323   2.328 -0.6927  0.1337 -0.9927
  714MOL0     O96286   4.644   7.369   2.459  0.3519  0.1233 -0.0338
  714MOL0     C96287   4.520   7.358   2.511  0.1950 -0.0657 -0.0434
  714MOL0     C96288   4.480   7.256   2.592 -0.2730  0.6082 -0.0546
  714MOL0     C96289   4.343   7.232   2.626 -0.9292 -0.8486 -0.1390
  714MOL0     C96290   4.243   7.330   2.591  0.1736  0.2697  0.0526
  714MOL0     O96291   4.114   7.311   2.633 -0.0758  0.9299  0.2516
  714MOL0     C96292   4.035   7.423   2.683  0.0174 -0.3065  0.0284
  714MOL0     C96293   3.908   7.365   2.764 -0.9248 -0.0443  0.4116
  714MOL0     C96294   3.815   7.480   2.815 -0.5397 -0.1472  0.3076
  714MOL0     C96295   3.686   7.408   2.850  0.5073  0.1612 -0.9550
  714MOL0     C96296   3.581   7.506   2.891  0.5124 -0.0994 -0.2530
  714MOL0     C96297   3.458   7.432   2.953  0.2349  1.0479 -0.1296
  714MOL0     C96298   3.344   7.526   3.007 -0.5622  0.9404  0.2398
  714MOL0     C96299   3.214   7.451   3.045  0.7796  0.4947  0.0999
  714MOL0    Cl96300   3.146   7.374   2.887 -0.3070  0.3001  0.5695
  714MOL0     C96301   4.289   7.435   2.510  0.0958  0.5878  0.6907
  714MOL0     C96302   4.423   7.448   2.469 -0.6999  0.0006  0.1143
  714MOL0     O96303   4.584   7.226   2.283 -0.4112 -0.0151 -0.3766
  714MOL0     C96304   4.834   7.474   2.313  0.2518 -0.2086  0.4615
  714MOL0     C96305   4.935   7.558   2.246  0.0206  0.0651 -0.3587
  714MOL0     N96306   5.703   7.703   2.091 -0.0499  0.3699 -0.3491
  714MOL0     N96307   5.824   7.687   2.071 -0.1697  0.4132  0.4455
  714MOL0     C96308   6.754   7.830   1.757 -0.1254 -0.5273 -0.1225
  714MOL0     C96309   6.830   7.943   1.773 -0.1367  0.1382  0.5540
  714MOL0     C96310   7.187   8.208   1.691  0.6349  0.7697  0.2826
  714MOL0     C96311   7.291   8.225   1.784 -0.2378 -0.2943 -0.7473
  714MOL0     C96312   7.359   8.353   1.793 -0.4781  0.0042 -0.1398
  714MOL0     C96313   7.331   8.453   1.696 -0.3056 -0.2088 -1.3700
  714MOL0     O96314   7.388   8.587   1.689 -0.0086  0.9478 -0.4270
  714MOL0     C96315   7.475   8.630   1.797 -0.5219 -0.4320 -0.6685
  714MOL0     C96316   7.396   8.674   1.929 -0.0852  0.7180 -0.0121
  714MOL0     C96317   7.314   8.805   1.923  1.0481 -0.4913  1.5340
  714MOL0     C96318   7.188   8.780   1.833 -0.0510 -0.0746 -0.3839
  714MOL0     C96319   7.113   8.908   1.817 -0.5096 -0.6861 -0.1986
  714MOL0     C96320   7.034   9.001   1.824 -0.2626  0.4937 -0.2963
  714MOL0     C96321   7.236   8.431   1.596 -0.2094 -0.0845  0.5729
  714MOL0     C96322   7.164   8.311   1.599 -0.0324  0.5162  0.2283
  714MOL0     H96323   6.939   7.983   1.460  0.4949  0.8694  0.6374
  714MOL0     H96324   6.825   7.763   1.421  1.7807  0.9238  0.2168
  714MOL0     H96325   6.539   7.700   1.446 -0.2667  0.0099  0.7676
  714MOL0     H96326   6.687   7.613   1.405 -0.4206  0.3184 -0.0718
  714MOL0     H96327   6.506   7.458   1.384 -3.3917 -1.6592  0.9308
  714MOL0     H96328   6.589   7.405   1.528 -1.6059 -0.4143  2.2586
  714MOL0     H96329   6.346   7.397   1.565  2.6971 -1.7464  1.5090
  714MOL0     H96330   6.427   7.498   1.676 -4.8601 -1.0119  1.9573
  714MOL0     H96331   6.368   7.701   1.558  1.3272 -1.2572  1.9633
  714MOL0     H96332   6.295   7.600   1.424  0.6108 -3.4099 -0.0984
  714MOL0     H96333   6.107   7.668   1.533  1.3836  2.9191  0.1432
  714MOL0     H96334   6.137   7.502   1.607 -0.6297  0.6261 -0.0402
  714MOL0     H96335   6.224   7.601   1.807 -0.4529  3.1151  1.7362
  714MOL0     H96336   6.226   7.761   1.739 -1.6632  0.7827  1.1137
  714MOL0     H96337   5.975   7.738   1.689 -1.0711  0.9933  1.1079
  714MOL0     H96338   5.981   7.598   1.782  1.4132 -0.8521 -1.7383
  714MOL0     H96339   6.033   7.861   1.909 -0.0511  1.1144  0.9312
  714MOL0     H96340   6.065   7.701   1.989 -0.8941 -0.5450  0.0916
  714MOL0     H96341   5.753   7.848   1.797 -0.7567  1.2062  0.0892
  714MOL0     H96342   5.476   7.897   1.975 -0.9061 -0.3903  1.1476
  714MOL0     H96343   5.489   7.763   1.863 -0.1463 -0.7127  0.0977
  714MOL0     H96344   5.429   7.745   2.166 -0.3811 -3.3373  1.4581
  714MOL0     H96345   5.456   7.610   2.059  0.3361 -1.2825  1.6618
  714MOL0     H96346   5.270   7.681   1.909  3.1556  1.4617 -0.7379
  714MOL0     H96347   5.233   7.819   2.006 -0.0541  0.2314 -0.4698
  714MOL0     H96348   5.154   7.674   2.194 -3.5024 -1.7687  1.1823
  714MOL0     H96349   5.228   7.533   2.114  2.3712 -0.3928 -4.1898
  714MOL0     H96350   4.859   7.460   1.935  0.4008  0.5000  0.0061
  714MOL0     H96351   4.633   7.249   2.036 -4.1526  1.0401  2.3406
  714MOL0     H96352   4.552   7.404   2.015  0.8974  1.2869 -1.7190
  714MOL0     H96353   4.688   7.358   1.907 -1.0357  1.8733 -0.6581
  714MOL0     H96354   4.550   7.178   2.617 -1.2929  0.0404  1.0892
  714MOL0     H96355   4.321   7.140   2.679 -0.7610  0.9006  3.2402
  714MOL0     H96356   4.103   7.469   2.755 -0.3370 -0.2827  0.3483
  714MOL0     H96357   4.009   7.496   2.606  2.0170  0.6774  0.2254
  714MOL0     H96358   3.856   7.299   2.694  0.2679 -0.9100  0.3167
  714MOL0     H96359   3.946   7.308   2.849  4.5126  1.6108 -0.4926
  714MOL0     H96360   3.801   7.560   2.741 -0.5155 -0.8265 -0.4385
  714MOL0     H96361   3.856   7.510   2.912 -0.4601 -0.3002  0.3224
  714MOL0     H96362   3.658   7.354   2.759  2.5756 -0.5589 -1.2137
  714MOL0     H96363   3.707   7.339   2.933 -3.5341 -1.2861 -0.8854
  714MOL0     H96364   3.545   7.546   2.795 -0.4990  1.1498  0.6165
  714MOL0     H96365   3.628   7.582   2.953  2.0772 -1.2983  0.0810
  714MOL0     H96366   3.421   7.365   2.875 -0.1992  0.1139  0.8546
  714MOL0     H96367   3.488   7.362   3.031  0.8004  1.2135 -0.1890
  714MOL0     H96368   3.335   7.605   2.932  2.6872 -0.2828 -1.6239
  714MOL0     H96369   3.388   7.554   3.103 -0.7876  0.4597  0.4846
  714MOL0     H96370   3.131   7.511   3.086 -1.4772 -1.3419 -1.4836
  714MOL0     H96371   3.239   7.368   3.111 -2.0951  1.7395  3.0656
  714MOL0     H96372   4.217   7.501   2.462  1.2957  0.3907 -1.4936
  714MOL0     H96373   4.467   7.517   2.397  1.3558 -1.1255  0.1936
  714MOL0     H96374   4.835   7.476   2.422  0.8835 -0.6987  0.4754
  714MOL0     H96375   4.992   7.610   2.323 -1.3432 -0.3057  0.9649
  714MOL0     H96376   6.706   7.796   1.848 -1.3378  0.7853 -0.2345
  714MOL0     H96377   6.855   7.994   1.865  2.2402 -0.1868  0.1624
  714MOL0     H96378   7.311   8.147   1.857  0.6564  0.7705  0.1871
  714MOL0     H96379   7.407   8.374   1.888 -3.9950 -0.0843  1.8543
  714MOL0     H96380   7.543   8.546   1.815 -2.0451 -1.5677 -0.0730
  714MOL0     H96381   7.542   8.702   1.749 -1.0717  0.2708 -0.3971
  714MOL0     H96382   7.465   8.692   2.012 -0.6291 -3.6188  1.6384
  714MOL0     H96383   7.332   8.594   1.967 -1.4621  2.4055  1.4213
  714MOL0     H96384   7.386   8.876   1.882  0.5866 -1.7136 -1.7177
  714MOL0     H96385   7.277   8.839   2.019 -0.7577  1.1203  0.3383
  714MOL0     H96386   7.114   8.726   1.893  0.8859  1.4912  2.3489
  714MOL0     H96387   7.197   8.733   1.734 -1.6690 -2.1039  0.3507
  714MOL0     H96388   6.964   9.082   1.838 -1.3979 -0.2145 -1.6475
  714MOL0     H96389   7.217   8.510   1.525 -1.8107 -0.9529 -0.0171
  714MOL0     H96390   7.085   8.296   1.527  0.2937 -0.8705  0.1338
  715MOL0     O96391   8.518   0.540   7.749  0.0819  0.6770 -0.5749
  715MOL0     C96392   8.554   0.487   7.857 -0.0827 -0.3787  0.0627
  715MOL0     O96393   8.476   0.402   7.930 -0.1442  0.4341 -0.0388
  715MOL0     C96394   8.362   0.363   7.877 -0.2957 -0.1112 -0.0966
  715MOL0     C96395   8.362   0.274   7.769  0.3105  0.1204  0.4526
  715MOL0     C96396   8.246   0.220   7.716 -0.2433 -0.2752  0.3499
  715MOL0     C96397   8.128   0.248   7.773  0.2796 -0.6439 -0.6530
  715MOL0     O96398   8.023   0.170   7.738  0.1713  0.0750  0.3689
  715MOL0     C96399   7.890   0.218   7.735  0.5086 -0.5976 -0.1260
  715MOL0     C96400   7.863   0.342   7.651  0.7715 -0.2196  0.2890
  715MOL0     C96401   7.879   0.290   7.505  0.0842  0.2976  1.0424
  715MOL0     C96402   7.848   0.403   7.413  0.2599  0.7479 -0.8310
  715MOL0     C96403   7.830   0.342   7.277  0.5256 -0.1205 -1.2112
  715MOL0     C96404   7.798   0.443   7.180  1.0832 -0.3085  0.4872
  715MOL0     C96405   7.804   0.393   7.032  0.1577  0.0633  0.9127
  715MOL0     C96406   7.756   0.508   6.950 -0.2686 -0.3435 -0.3776
  715MOL0     N96407   7.611   0.510   6.922  0.8271 -1.3175  0.5365
  715MOL0     C96408   7.548   0.421   6.840  0.9827  0.1203 -0.0962
  715MOL0     C96409   7.422   0.479   6.839 -0.6313 -0.6442  0.2945
  715MOL0     C96410   7.304   0.438   6.751  0.8601 -0.6649 -0.1891
  715MOL0     C96411   7.205   0.353   6.832 -0.2483  0.1216  0.2384
  715MOL0     C96412   7.117   0.425   6.936 -0.4669  0.2893 -0.3757
  715MOL0     C96413   6.986   0.481   6.884 -0.1623  0.1918 -0.5852
  715MOL0     O96414   6.914   0.391   6.806  0.5181 -0.3166 -0.2417
  715MOL0     C96415   6.792   0.426   6.753 -0.4031 -0.5324 -0.3138
  715MOL0     C96416   6.726   0.326   6.680  0.2496 -0.2386  0.3771
  715MOL0     C96417   6.597   0.336   6.618 -0.0217  0.3031  0.0068
  715MOL0     C96418   6.547   0.222   6.539  0.3510  0.4582  0.8653
  715MOL0     C96419   6.528   0.458   6.651  0.0520 -0.1033  1.2274
  715MOL0     C96420   6.392   0.503   6.597  0.3852 -0.7820 -0.0812
  715MOL0     O96421   6.388   0.632   6.572  0.4211  0.5798 -0.5564
  715MOL0     C96422   6.261   0.681   6.554 -0.9342  0.5787  0.0599
  715MOL0     C96423   6.192   0.670   6.431 -0.0060  0.2447 -0.0656
  715MOL0     C96424   6.062   0.715   6.417  0.4863 -0.5696  0.5496
  715MOL0     C96425   5.995   0.763   6.522 -0.7995 -0.0420  0.0426
  715MOL0     O96426   5.862   0.795   6.504  0.1301 -0.1033  0.4983
  715MOL0     C96427   5.787   0.881   6.595 -0.6191 -0.2330  0.0102
  715MOL0     C96428   5.643   0.928   6.546 -0.2505  0.5520  0.6350
  715MOL0     C96429   5.529   0.830   6.574  0.0169  0.2728  0.3537
  715MOL0     C96430   5.492   0.812   6.724  0.5060 -0.4495  0.5483
  715MOL0     C96431   5.362   0.741   6.725 -0.0638  0.0438 -0.4212
  715MOL0     C96432   5.242   0.842   6.731  0.1876  0.1839  0.5054
  715MOL0     C96433   5.108   0.776   6.686 -0.4700 -0.1075 -0.4659
  715MOL0     C96434   5.002   0.874   6.718  1.3519  0.2041 -0.0697
  715MOL0    Cl96435   4.846   0.791   6.692  0.0747  0.2871  0.2231
  715MOL0     C96436   6.062   0.770   6.645  0.1872  0.3786 -0.2018
  715MOL0     C96437   6.194   0.731   6.659  0.5544 -0.4068  0.6835
  715MOL0     O96438   6.302   0.417   6.595  0.1017 -0.3563  0.2460
  715MOL0     C96439   6.585   0.552   6.737 -0.2855 -0.3137 -0.3375
  715MOL0     C96440   6.711   0.536   6.789 -0.5187 -0.2727  0.0748
  715MOL0     N96441   7.418   0.600   6.908  0.6632 -0.2264  0.3736
  715MOL0     N96442   7.534   0.617   6.955  1.2215  0.0709 -0.8138
  715MOL0     C96443   8.123   0.338   7.875 -0.2260 -0.5172 -0.2886
  715MOL0     C96444   8.239   0.404   7.923  0.3074 -0.2120  0.4029
  715MOL0     C96445   8.694   0.522   7.898 -0.2664 -0.0666  0.5335
  715MOL0     C96446   8.744   0.450   8.006 -0.7704  0.0948 -1.3178
  715MOL0     C96447   8.880   0.464   8.045 -0.2730  0.1967  0.6747
  715MOL0     C96448   8.970   0.547   7.972 -0.4211  0.2343  0.3949
  715MOL0     O96449   9.101   0.570   7.998 -0.0676  0.1631  0.3783
  715MOL0     C96450   9.157   0.508   8.111 -0.0052 -0.1109 -0.6411
  715MOL0     C96451   9.311   0.538   8.116  1.1330  0.3357 -0.2732
  715MOL0     C96452   9.381   0.421   8.045 -0.0256 -0.3778  0.3233
  715MOL0     C96453   9.528   0.457   8.013 -0.3716 -0.0920 -0.5712
  715MOL0     C96454   9.611   0.497   8.128 -0.4096 -0.9420 -0.0308
  715MOL0     C96455   9.702   0.513   8.212 -0.5225  0.0932 -0.0912
  715MOL0     C96456   8.914   0.619   7.862 -0.4019  0.0193  0.5633
  715MOL0     C96457   8.778   0.610   7.829  0.0722 -0.6998  0.1171
  715MOL0     H96458   8.455   0.224   7.742 -0.0965 -1.0011  1.0414
  715MOL0     H96459   8.234   0.150   7.633 -1.0945  0.8228 -0.4740
  715MOL0     H96460   7.828   0.130   7.715  0.7777 -1.0053  0.7778
  715MOL0     H96461   7.880   0.243   7.840  2.0466  1.8205 -0.4924
  715MOL0     H96462   7.761   0.381   7.662  2.3558  4.7439  0.2299
  715MOL0     H96463   7.922   0.432   7.671 -1.7588  2.3190 -2.5012
  715MOL0     H96464   7.982   0.259   7.487 -0.6247 -2.2697  1.0553
  715MOL0     H96465   7.814   0.204   7.492  0.5359  0.0072  0.6581
  715MOL0     H96466   7.760   0.457   7.448 -0.3112  0.5652 -1.9343
  715MOL0     H96467   7.930   0.474   7.426 -0.4334  1.4214 -0.0608
  715MOL0     H96468   7.919   0.296   7.233 -1.3182 -0.6902 -4.6908
  715MOL0     H96469   7.753   0.265   7.285 -0.0983  0.6851  2.9935
  715MOL0     H96470   7.693   0.475   7.190  1.3028  1.1446 -1.3216
  715MOL0     H96471   7.863   0.529   7.199  0.9446 -0.2794  0.8425
  715MOL0     H96472   7.907   0.361   7.015  0.2506  0.1465  1.3104
  715MOL0     H96473   7.747   0.302   7.008  1.0316 -1.4341  3.9760
  715MOL0     H96474   7.812   0.488   6.858  0.2504 -2.3650  0.3281
  715MOL0     H96475   7.792   0.605   6.985 -0.8363 -0.0094 -0.7061
  715MOL0     H96476   7.590   0.336   6.789 -0.1824 -1.3964  1.3573
  715MOL0     H96477   7.245   0.509   6.693  0.5207 -0.3670  0.5105
  715MOL0     H96478   7.344   0.366   6.679  2.1545 -0.1854  0.0416
  715MOL0     H96479   7.261   0.274   6.882 -0.7138 -0.3603  0.0080
  715MOL0     H96480   7.136   0.294   6.772 -1.0187  0.3472  0.8807
  715MOL0     H96481   7.164   0.507   6.991 -0.8031 -0.0604  0.4457
  715MOL0     H96482   7.095   0.351   7.013 -0.1552 -0.5037 -1.0240
  715MOL0     H96483   7.010   0.563   6.815  2.7097 -1.8285 -2.2071
  715MOL0     H96484   6.926   0.509   6.971  0.5796 -2.9446  1.0665
  715MOL0     H96485   6.788   0.238   6.669  3.4280  1.7747  0.8975
  715MOL0     H96486   6.603   0.132   6.567  2.2606  1.6523  1.0559
  715MOL0     H96487   6.441   0.201   6.553  0.1386  0.6486 -0.3003
  715MOL0     H96488   6.582   0.254   6.440  3.0011  0.3594  1.6967
  715MOL0     H96489   6.239   0.638   6.338 -1.1687  2.5040 -1.5299
  715MOL0     H96490   6.008   0.718   6.323  1.9724  1.3815 -0.3331
  715MOL0     H96491   5.779   0.821   6.686 -0.3163  0.7029  0.6665
  715MOL0     H96492   5.854   0.962   6.622  0.7296 -0.6335 -1.8821
  715MOL0     H96493   5.636   1.026   6.595  1.7980  2.8687 -3.1975
  715MOL0     H96494   5.633   0.955   6.440 -1.8826  1.1580  0.9204
  715MOL0     H96495   5.557   0.733   6.530  0.4083  0.5669 -0.0597
  715MOL0     H96496   5.440   0.866   6.522  0.6985  1.0935 -0.2805
  715MOL0     H96497   5.574   0.756   6.770  1.7336 -0.9692 -2.0445
  715MOL0     H96498   5.478   0.910   6.771  1.8554  0.1169 -0.1489
  715MOL0     H96499   5.373   0.698   6.824  2.1501  1.4201  0.0073
  715MOL0     H96500   5.349   0.668   6.644  1.2463 -1.7776  0.9162
  715MOL0     H96501   5.227   0.884   6.831 -3.6503  1.0593 -0.2519
  715MOL0     H96502   5.264   0.914   6.652  1.1304 -2.1844 -1.5198
  715MOL0     H96503   5.095   0.691   6.754  1.5792  0.4491  0.6939
  715MOL0     H96504   5.115   0.748   6.580  1.4105 -0.6376 -0.2309
  715MOL0     H96505   5.010   0.959   6.650  3.4896 -1.9924 -2.7757
  715MOL0     H96506   5.002   0.906   6.823 -1.1694 -0.7427  0.2807
  715MOL0     H96507   6.003   0.795   6.732  1.3112 -1.5586  1.2018
  715MOL0     H96508   6.256   0.730   6.748  3.8440  0.2028 -1.4106
  715MOL0     H96509   6.528   0.640   6.764 -0.6322  0.2610 -2.7144
  715MOL0     H96510   6.745   0.614   6.857 -2.4879  0.5734  0.1473
  715MOL0     H96511   8.027   0.343   7.925 -0.9616  0.8941 -1.7579
  715MOL0     H96512   8.219   0.480   7.999 -1.6200  1.8608 -1.9962
  715MOL0     H96513   8.699   0.367   8.060  0.8289  1.5370  2.5555
  715MOL0     H96514   8.916   0.388   8.114 -1.4643  0.0092  1.1164
  715MOL0     H96515   9.111   0.553   8.199  0.9178 -0.3815 -0.0041
  715MOL0     H96516   9.147   0.399   8.121 -0.0461 -0.2147 -1.6683
  715MOL0     H96517   9.341   0.568   8.217  0.1365  2.6816 -0.6185
  715MOL0     H96518   9.330   0.628   8.057 -0.4717  1.8477  1.3869
  715MOL0     H96519   9.330   0.403   7.949 -2.2902  2.8195  0.7462
  715MOL0     H96520   9.384   0.327   8.101  2.4340  1.0436  2.8278
  715MOL0     H96521   9.528   0.534   7.935  2.5880 -1.0608 -1.6585
  715MOL0     H96522   9.577   0.365   7.980  0.2889 -1.8297  4.3459
  715MOL0     H96523   9.787   0.530   8.275 -0.4688  2.5835 -0.7124
  715MOL0     H96524   8.974   0.694   7.811 -2.3846  1.3998  0.1033
  715MOL0     H96525   8.737   0.652   7.738 -0.1407  0.1021  0.5802
  716MOL0     O96526   9.833   5.769   3.158 -0.6390 -0.5826 -0.0828
  716MOL0     C96527   9.957   5.735   3.165  0.4844 -0.9876  0.4231
  716MOL0     O96528  10.043   5.763   3.262  0.3525 -0.7999  0.3430
  716MOL0     C96529  10.021   5.862   3.355 -0.1538 -0.0034 -0.1956
  716MOL0     C96530   9.896   5.896   3.419  0.6808 -0.0461  0.1281
  716MOL0     C96531   9.898   6.006   3.509 -0.2558 -0.4668 -0.1521
  716MOL0     C96532  10.012   6.074   3.549  0.6477  1.4654  0.1320
  716MOL0     O96533  10.015   6.170   3.645  0.3453 -0.0949  0.2889
  716MOL0     C96534  10.071   6.131   3.772  0.2035 -0.0672  0.0240
  716MOL0     C96535  10.028   6.239   3.873  0.4124 -0.6357  0.7736
  716MOL0     C96536   9.873   6.233   3.908 -1.1375 -0.3775  0.5296
  716MOL0     C96537   9.838   6.331   4.020  0.2613  0.1356 -0.2800
  716MOL0     C96538   9.684   6.334   4.051  0.0288 -0.3792 -0.1256
  716MOL0     C96539   9.663   6.233   4.166 -0.2395  0.3549  0.1273
  716MOL0     C96540   9.513   6.233   4.203  0.5650  0.7914 -1.2811
  716MOL0     C96541   9.491   6.167   4.349 -0.2686  0.4328 -0.5125
  716MOL0     N96542   9.452   6.275   4.444 -0.1770  0.7226 -0.1671
  716MOL0     C96543   9.324   6.328   4.454 -0.4427  0.2056  0.0904
  716MOL0     C96544   9.333   6.433   4.535  0.2021 -0.1754 -0.2271
  716MOL0     C96545   9.224   6.525   4.594  0.3141  0.0292  0.3702
  716MOL0     C96546   9.081   6.468   4.605 -1.1578  0.4073  1.1282
  716MOL0     C96547   8.987   6.586   4.589  0.0562 -0.7204 -0.5214
  716MOL0     C96548   8.840   6.561   4.608  0.4634 -0.8686 -0.0643
  716MOL0     O96549   8.808   6.458   4.510  0.6093 -0.2736 -0.2199
  716MOL0     C96550   8.683   6.407   4.502  0.4313 -0.2042 -0.3500
  716MOL0     C96551   8.572   6.438   4.589  0.3420 -0.1478  0.2394
  716MOL0     C96552   8.440   6.387   4.566  0.4685  0.4943 -0.7039
  716MOL0     C96553   8.336   6.435   4.661  0.6696  0.2390  0.5294
  716MOL0     C96554   8.421   6.279   4.468 -1.2380 -0.3300  0.1851
  716MOL0     C96555   8.288   6.217   4.438  0.0211  0.5573 -0.1392
  716MOL0     O96556   8.179   6.298   4.451 -0.2807  0.4792  0.2426
  716MOL0     C96557   8.053   6.250   4.425 -0.0040  0.0699  0.1968
  716MOL0     C96558   8.007   6.122   4.462  0.0306  0.4895  0.5588
  716MOL0     C96559   7.884   6.072   4.415  0.2212 -0.5040  0.1574
  716MOL0     C96560   7.797   6.150   4.347  0.0044  0.9499  0.1862
  716MOL0     O96561   7.671   6.101   4.313  0.0965 -0.4912  0.7597
  716MOL0     C96562   7.580   6.175   4.226 -0.4875 -0.3570 -0.6139
  716MOL0     C96563   7.444   6.105   4.207 -0.5345 -0.8801  0.5477
  716MOL0     C96564   7.347   6.169   4.108  0.0239 -0.4505 -0.5317
  716MOL0     C96565   7.216   6.088   4.108 -0.1027 -0.4129 -0.7056
  716MOL0     C96566   7.116   6.133   4.004  0.0719 -0.8903 -0.7740
  716MOL0     C96567   7.004   6.237   4.046 -0.1313 -0.7198  0.2887
  716MOL0     C96568   6.908   6.259   3.925 -0.1930 -0.8237  0.4159
  716MOL0     C96569   6.866   6.407   3.918 -0.8459 -0.1765  1.6581
  716MOL0    Cl96570   6.791   6.460   4.079  0.1248  0.2748  0.2827
  716MOL0     C96571   7.839   6.278   4.311 -0.0441 -0.6606 -0.6382
  716MOL0     C96572   7.964   6.335   4.349  0.1010 -0.3517  0.1545
  716MOL0     O96573   8.285   6.105   4.391 -0.3772  0.1247  0.1988
  716MOL0     C96574   8.533   6.241   4.392 -0.5228  0.4943  0.4274
  716MOL0     C96575   8.658   6.311   4.402 -0.5222 -0.1706 -0.1221
  716MOL0     N96576   9.469   6.438   4.575  0.9085  0.0132 -0.1104
  716MOL0     N96577   9.535   6.347   4.517 -1.0535  0.8986 -0.1365
  716MOL0     C96578  10.131   6.043   3.484  0.0258  0.6572 -0.2182
  716MOL0     C96579  10.135   5.935   3.390 -0.1521 -0.0591 -0.0774
  716MOL0     C96580  10.007   5.659   3.052  0.3310  0.5617  0.4931
  716MOL0     C96581   9.913   5.597   2.967  0.0294  0.2173  0.1987
  716MOL0     C96582   9.958   5.538   2.841  0.0664 -0.0585 -0.8871
  716MOL0     C96583  10.094   5.541   2.809 -0.3924 -0.1397  0.4611
  716MOL0     O96584  10.147   5.511   2.684  0.1369  0.3224 -0.9752
  716MOL0     C96585  10.089   5.395   2.616 -0.0665 -0.2074  0.1612
  716MOL0     C96586   9.986   5.434   2.508  0.9897 -0.5254 -0.0213
  716MOL0     C96587   9.875   5.334   2.495 -0.0075  0.3274 -0.3733
  716MOL0     C96588   9.918   5.190   2.475 -0.3611 -0.4145 -0.1240
  716MOL0     C96589   9.920   5.146   2.329 -1.1858 -0.2042 -0.4710
  716MOL0     C96590   9.929   5.112   2.213 -0.0471 -0.4149 -0.4153
  716MOL0     C96591  10.189   5.595   2.901 -0.1645  0.9788 -0.2592
  716MOL0     C96592  10.146   5.658   3.015  0.3898  0.1434 -0.1412
  716MOL0     H96593   9.797   5.852   3.406 -0.4547  1.4862  2.7060
  716MOL0     H96594   9.804   6.043   3.549  0.2213  3.1673 -1.9115
  716MOL0     H96595  10.027   6.036   3.804 -0.6588 -0.2072 -1.5009
  716MOL0     H96596  10.180   6.134   3.761 -0.0577  0.2296 -3.6205
  716MOL0     H96597  10.087   6.226   3.964  2.7792 -0.3563 -0.6471
  716MOL0     H96598  10.056   6.337   3.833 -0.2019 -0.2820  1.1957
  716MOL0     H96599   9.811   6.258   3.821 -1.1405 -2.2167 -0.0294
  716MOL0     H96600   9.846   6.130   3.930 -1.0352 -0.0352  2.3851
  716MOL0     H96601   9.891   6.305   4.112 -0.6533 -0.5678  0.0707
  716MOL0     H96602   9.873   6.434   4.013 -1.7449  0.7889 -1.6630
  716MOL0     H96603   9.666   6.438   4.078 -0.3621 -0.5368  0.2549
  716MOL0     H96604   9.620   6.306   3.967 -2.6997  0.5656  1.5182
  716MOL0     H96605   9.705   6.132   4.158  2.1406  0.7387  4.8187
  716MOL0     H96606   9.719   6.271   4.252  0.2418 -3.3359  1.6628
  716MOL0     H96607   9.464   6.331   4.212  1.3177  1.0668  6.4161
  716MOL0     H96608   9.462   6.168   4.131  1.0482 -2.3989  1.0317
  716MOL0     H96609   9.577   6.110   4.385 -0.7632  0.5470  0.8904
  716MOL0     H96610   9.401   6.105   4.345  0.5445 -1.1901  3.1227
  716MOL0     H96611   9.237   6.290   4.402  1.4314 -3.6694 -0.5993
  716MOL0     H96612   9.244   6.536   4.701  0.4609  2.0734  0.1600
  716MOL0     H96613   9.231   6.624   4.548  1.7199 -1.6353 -3.4487
  716MOL0     H96614   9.068   6.413   4.699  3.7001  0.2611  2.0054
  716MOL0     H96615   9.062   6.393   4.528  1.5566 -1.7325  2.3519
  716MOL0     H96616   9.000   6.632   4.491  0.5981 -0.6378 -0.4120
  716MOL0     H96617   9.020   6.658   4.664  0.6511 -1.9461  0.4260
  716MOL0     H96618   8.773   6.648   4.607  3.1348  1.3441  1.1032
  716MOL0     H96619   8.823   6.522   4.709 -1.1160  3.3532  1.5258
  716MOL0     H96620   8.578   6.512   4.668  0.3413 -0.4124  0.4870
  716MOL0     H96621   8.394   6.454   4.752  2.8626  1.4965 -1.0285
  716MOL0     H96622   8.297   6.534   4.636  1.8778  0.8336  0.9227
  716MOL0     H96623   8.249   6.370   4.668  0.1095  0.8331 -0.7522
  716MOL0     H96624   8.065   6.054   4.524  2.2094  0.3829 -1.4511
  716MOL0     H96625   7.847   5.975   4.445  0.0672 -1.6180 -3.2680
  716MOL0     H96626   7.571   6.265   4.287  0.2120 -2.2345  2.4905
  716MOL0     H96627   7.619   6.186   4.125  0.5740  1.2577 -0.0693
  716MOL0     H96628   7.457   6.003   4.169  0.8956  0.2889 -2.4773
  716MOL0     H96629   7.384   6.101   4.299 -5.0940 -4.4637 -2.1204
  716MOL0     H96630   7.391   6.157   4.008  2.8522 -0.3597  0.6071
  716MOL0     H96631   7.330   6.274   4.134 -2.7006  0.1150 -3.8433
  716MOL0     H96632   7.235   5.983   4.085 -2.0968 -1.5244  2.1231
  716MOL0     H96633   7.168   6.100   4.206  0.9124 -0.2969 -0.2046
  716MOL0     H96634   7.063   6.040   3.982 -1.7256  0.2837 -1.6346
  716MOL0     H96635   7.173   6.173   3.919  2.4399  1.7658  1.7895
  716MOL0     H96636   6.950   6.190   4.129 -2.2925  1.6601  0.3514
  716MOL0     H96637   7.051   6.333   4.071 -0.2143 -0.1547 -1.5242
  716MOL0     H96638   6.818   6.197   3.935 -2.0658  1.4445 -1.2118
  716MOL0     H96639   6.955   6.230   3.830 -2.3486  0.1379 -1.0189
  716MOL0     H96640   6.792   6.427   3.840  0.4715 -0.8716  0.1651
  716MOL0     H96641   6.943   6.478   3.885 -1.6871 -0.6288 -1.6249
  716MOL0     H96642   7.777   6.343   4.250  0.8629  0.2030 -0.6643
  716MOL0     H96643   8.002   6.435   4.331 -0.1230 -0.3774 -0.4805
  716MOL0     H96644   8.527   6.156   4.325 -0.0572 -0.3525  1.4326
  716MOL0     H96645   8.741   6.292   4.335  0.6943  1.2558  0.9141
  716MOL0     H96646  10.223   6.097   3.506 -0.0646  1.1686 -1.0480
  716MOL0     H96647  10.230   5.905   3.346 -0.8807 -2.0238 -0.4479
  716MOL0     H96648   9.806   5.609   2.980  0.4230  2.5086  1.8894
  716MOL0     H96649   9.882   5.502   2.773 -0.8394 -1.5731  0.8293
  716MOL0     H96650  10.167   5.337   2.567 -0.6835  0.2378 -1.4082
  716MOL0     H96651  10.047   5.329   2.693 -0.2042  2.6329  2.7151
  716MOL0     H96652  10.038   5.456   2.415  2.0776 -0.5439  0.5684
  716MOL0     H96653   9.941   5.528   2.542 -2.2291 -2.2048  0.7077
  716MOL0     H96654   9.805   5.377   2.423  0.9193  1.8915 -0.3948
  716MOL0     H96655   9.822   5.335   2.590 -2.0349  0.6976 -1.4486
  716MOL0     H96656   9.844   5.119   2.513 -1.5127  0.0133 -1.4792
  716MOL0     H96657  10.018   5.178   2.518  0.2716  1.2267 -1.0494
  716MOL0     H96658   9.948   5.080   2.112 -1.5894  0.1259 -0.9144
  716MOL0     H96659  10.293   5.599   2.871 -0.0078  1.1067  0.3052
  716MOL0     H96660  10.215   5.713   3.078 -1.9869  0.4490  2.4048
  717MOL0     O96661  10.992   0.480   3.322 -0.7357 -0.3467 -0.4367
  717MOL0     C96662  11.034   0.369   3.359 -0.1077  0.4634 -0.3732
  717MOL0     O96663  10.957   0.264   3.411 -0.4901 -0.3948  0.0870
  717MOL0     C96664  10.832   0.294   3.445 -0.1336 -0.0455 -0.8554
  717MOL0     C96665  10.805   0.365   3.568 -0.9618 -0.2618  0.1704
  717MOL0     C96666  10.668   0.396   3.599 -0.3391  0.4640 -0.9193
  717MOL0     C96667  10.566   0.348   3.517 -0.5525  0.0972  0.4006
  717MOL0     O96668  10.440   0.386   3.561  0.3219 -0.6153  0.5067
  717MOL0     C96669  10.327   0.297   3.547 -0.6864  0.3972  0.3888
  717MOL0     C96670  10.197   0.372   3.592  0.0363  0.0704 -0.3930
  717MOL0     C96671  10.075   0.276   3.601  0.6411  0.1628  0.5122
  717MOL0     C96672   9.955   0.359   3.645 -0.3930  0.2743 -0.8330
  717MOL0     C96673   9.820   0.271   3.641  0.1838 -0.3811 -0.1270
  717MOL0     C96674   9.718   0.385   3.677  0.3737 -0.2329 -0.5759
  717MOL0     C96675   9.576   0.332   3.670  0.4301  0.2556 -0.0271
  717MOL0     C96676   9.478   0.443   3.649 -0.2001  0.3607  0.6505
  717MOL0     N96677   9.490   0.545   3.753 -0.0711  1.0715  0.5548
  717MOL0     C96678   9.584   0.648   3.740 -0.5617 -0.1270 -1.2070
  717MOL0     C96679   9.601   0.683   3.873  0.4409 -0.8580 -1.0017
  717MOL0     C96680   9.685   0.797   3.932  0.1936 -0.8787 -0.0940
  717MOL0     C96681   9.816   0.830   3.867  0.2801  0.4068 -0.3649
  717MOL0     C96682   9.909   0.701   3.870  0.3136  0.7440 -0.4426
  717MOL0     C96683  10.054   0.733   3.821  0.4026  0.3404  0.4130
  717MOL0     O96684  10.051   0.785   3.689  0.4911  0.4005  0.1271
  717MOL0     C96685  10.170   0.787   3.621 -0.8899  0.2686  0.7873
  717MOL0     C96686  10.296   0.796   3.688  0.2783 -0.3994  0.5213
  717MOL0     C96687  10.411   0.815   3.610  0.3800  0.1286 -0.2467
  717MOL0     C96688  10.554   0.815   3.665 -0.4381  0.3737 -0.4332
  717MOL0     C96689  10.400   0.841   3.471  0.3025 -0.0178 -0.2998
  717MOL0     C96690  10.517   0.846   3.379  0.2610 -0.0234  0.4456
  717MOL0     O96691  10.551   0.733   3.311 -0.4265  0.3446  0.1738
  717MOL0     C96692  10.631   0.744   3.200 -1.3666 -0.0707 -0.3335
  717MOL0     C96693  10.767   0.695   3.216  0.8488 -0.6895  0.0601
  717MOL0     C96694  10.852   0.704   3.114 -0.1269 -0.2130 -0.6104
  717MOL0     C96695  10.815   0.766   2.997 -0.2520  1.0301  0.2702
  717MOL0     O96696  10.916   0.779   2.908 -0.4999 -0.0381  0.0615
  717MOL0     C96697  10.926   0.879   2.802 -0.4142  0.2948 -0.8994
  717MOL0     C96698  11.054   0.866   2.711  0.2539  1.4473  0.3170
  717MOL0     C96699  11.065   0.727   2.633  0.3309  0.3421  1.1059
  717MOL0     C96700  11.118   0.615   2.721 -0.2146  0.1065 -0.3443
  717MOL0     C96701  11.093   0.476   2.662  0.3428  0.7657  0.2158
  717MOL0     C96702  11.165   0.367   2.734 -0.9031 -0.0082 -0.9410
  717MOL0     C96703  11.090   0.318   2.860 -0.3555 -0.5767  1.1582
  717MOL0     C96704  11.180   0.216   2.940  0.3094  0.3061  0.1390
  717MOL0    Cl96705  11.082   0.159   3.066 -0.1672 -0.0057  0.0726
  717MOL0     C96706  10.683   0.804   2.975 -0.9753 -0.3036 -0.0200
  717MOL0     C96707  10.592   0.793   3.079  0.3983  0.1763  0.2865
  717MOL0     O96708  10.573   0.958   3.370  0.4479 -0.3556  0.4658
  717MOL0     C96709  10.276   0.839   3.406  0.3433  0.2760 -0.1522
  717MOL0     C96710  10.171   0.809   3.486 -0.0940 -0.0914  0.7637
  717MOL0     N96711   9.493   0.623   3.941  0.3675 -1.3194 -0.3631
  717MOL0     N96712   9.422   0.545   3.870 -0.4315  0.9387  0.4114
  717MOL0     C96713  10.594   0.272   3.407 -1.0032  0.3691 -1.0171
  717MOL0     C96714  10.728   0.249   3.359 -0.2583  0.3007 -0.6249
  717MOL0     C96715  11.177   0.348   3.346 -0.1648 -0.3932 -0.2585
  717MOL0     C96716  11.253   0.266   3.427  0.9567  0.3626 -0.8172
  717MOL0     C96717  11.392   0.249   3.416 -1.3850 -0.4399  0.4188
  717MOL0     C96718  11.468   0.329   3.319  1.2783 -0.1469  0.0633
  717MOL0     O96719  11.603   0.316   3.306  0.4843  0.4886  0.0776
  717MOL0     C96720  11.634   0.210   3.220  0.3185 -0.3685  0.2676
  717MOL0     C96721  11.787   0.179   3.226  0.2522 -0.0588 -0.1112
  717MOL0     C96722  11.830   0.137   3.363  0.3863 -0.6667 -0.6422
  717MOL0     C96723  11.976   0.084   3.372  0.7581 -0.6748 -0.3855
  717MOL0     C96724  12.013   0.065   3.510  0.6186  0.3327 -0.4247
  717MOL0     C96725  12.060   0.031   3.617  1.4144 -0.7149 -0.5042
  717MOL0     C96726  11.389   0.405   3.231  0.3741 -0.6706  0.4503
  717MOL0     C96727  11.249   0.407   3.235 -0.0901 -0.3850  0.0767
  717MOL0     H96728  10.887   0.388   3.636  0.2375 -0.2509 -1.2214
  717MOL0     H96729  10.641   0.450   3.689  5.6612  0.4135  1.3609
  717MOL0     H96730  10.312   0.265   3.444 -1.9488 -3.6557  1.6295
  717MOL0     H96731  10.355   0.203   3.596 -0.0161 -1.3293 -3.0362
  717MOL0     H96732  10.196   0.424   3.688 -0.2257  3.2190 -1.9997
  717MOL0     H96733  10.172   0.444   3.514 -1.3406  0.7804  0.6768
  717MOL0     H96734  10.061   0.237   3.499  4.1302 -0.2180  0.0434
  717MOL0     H96735  10.083   0.191   3.669  0.9941  1.1679  1.7574
  717MOL0     H96736   9.977   0.403   3.742 -0.4953  1.4106 -1.3173
  717MOL0     H96737   9.957   0.442   3.574  1.9242 -0.6647 -1.9780
  717MOL0     H96738   9.814   0.233   3.538  0.9447 -1.4725  0.2074
  717MOL0     H96739   9.811   0.191   3.714 -3.6346  1.6028  1.8293
  717MOL0     H96740   9.748   0.414   3.779 -0.3230  0.8969 -0.6778
  717MOL0     H96741   9.732   0.472   3.612  0.4022 -2.0220 -3.0998
  717MOL0     H96742   9.563   0.264   3.586  0.6342 -0.8325  0.7931
  717MOL0     H96743   9.568   0.277   3.765  0.1490  0.2287 -0.0649
  717MOL0     H96744   9.375   0.410   3.639  0.4256 -1.6465  0.3522
  717MOL0     H96745   9.504   0.479   3.549  2.2739 -1.9039  0.3657
  717MOL0     H96746   9.649   0.683   3.661 -2.2008  2.1612 -1.6196
  717MOL0     H96747   9.626   0.889   3.928  2.3460  0.6224  0.5470
  717MOL0     H96748   9.692   0.779   4.039  0.3439 -0.7807 -0.0876
  717MOL0     H96749   9.856   0.924   3.905 -0.0149  0.7156 -0.8120
  717MOL0     H96750   9.784   0.852   3.765 -1.0722  1.6455  0.2675
  717MOL0     H96751   9.878   0.617   3.807 -1.7497 -0.2474  1.7465
  717MOL0     H96752   9.927   0.659   3.969  1.5884 -1.1640 -1.4089
  717MOL0     H96753  10.120   0.647   3.835  2.1059  1.5746  0.3431
  717MOL0     H96754  10.100   0.810   3.883  1.4013 -1.0242  1.4200
  717MOL0     H96755  10.306   0.794   3.796 -0.8077  0.8253  0.6799
  717MOL0     H96756  10.610   0.726   3.635 -1.6823 -0.2733 -0.9393
  717MOL0     H96757  10.604   0.907   3.633 -1.9320  0.5194 -2.5620
  717MOL0     H96758  10.551   0.832   3.773  0.1666  4.5560 -0.8987
  717MOL0     H96759  10.799   0.650   3.310  2.6757 -1.8170 -1.0421
  717MOL0     H96760  10.952   0.666   3.130 -0.4191 -1.2731 -1.1909
  717MOL0     H96761  10.831   0.879   2.747 -1.0207  0.9404  0.1076
  717MOL0     H96762  10.938   0.971   2.860  0.0322 -0.3588  0.0634
  717MOL0     H96763  11.057   0.956   2.648  1.7464  1.8291  0.8950
  717MOL0     H96764  11.137   0.877   2.782  0.1112  2.5554  0.3303
  717MOL0     H96765  11.132   0.737   2.547 -1.9104 -0.1424 -0.8158
  717MOL0     H96766  10.965   0.711   2.592  0.4645  1.1915  0.4171
  717MOL0     H96767  11.226   0.630   2.729  0.0164 -0.9660 -1.0766
  717MOL0     H96768  11.064   0.627   2.815 -2.7636 -0.3107 -1.6509
  717MOL0     H96769  11.140   0.481   2.564  3.5718 -2.7671  1.3841
  717MOL0     H96770  10.985   0.458   2.652  0.6875 -0.6086 -1.4918
  717MOL0     H96771  11.179   0.281   2.668 -0.0525 -0.8401  0.2709
  717MOL0     H96772  11.261   0.410   2.762 -0.4963 -2.0772  1.0977
  717MOL0     H96773  10.996   0.270   2.830 -1.0730  1.7054 -0.5622
  717MOL0     H96774  11.062   0.402   2.923  0.8906  0.7565  0.0099
  717MOL0     H96775  11.279   0.251   2.971  1.0485 -1.3181 -0.2825
  717MOL0     H96776  11.199   0.131   2.874 -0.7756 -1.3478  1.8642
  717MOL0     H96777  10.640   0.827   2.878 -1.0013 -2.2798 -0.5084
  717MOL0     H96778  10.486   0.810   3.064  0.2852 -1.1807 -0.5953
  717MOL0     H96779  10.263   0.875   3.304 -1.1331 -0.9682 -0.4450
  717MOL0     H96780  10.071   0.819   3.444  1.3546  3.5319 -2.4933
  717MOL0     H96781  10.516   0.222   3.350 -0.4635 -1.2690 -0.3818
  717MOL0     H96782  10.748   0.188   3.271 -1.2263 -0.6287 -0.2370
  717MOL0     H96783  11.201   0.202   3.498  0.0048  2.0837  0.1166
  717MOL0     H96784  11.453   0.178   3.471 -0.9587 -0.6611 -0.3122
  717MOL0     H96785  11.577   0.120   3.246  1.2687 -1.6022 -1.7620
  717MOL0     H96786  11.608   0.231   3.116 -3.4423  1.7646  1.4415
  717MOL0     H96787  11.844   0.264   3.188  0.0872 -0.3184 -0.9678
  717MOL0     H96788  11.814   0.093   3.162 -1.5623 -0.0711 -0.9135
  717MOL0     H96789  11.766   0.055   3.395 -0.8802  0.1837 -0.9218
  717MOL0     H96790  11.810   0.221   3.431  2.2787  0.6531 -1.5910
  717MOL0     H96791  12.041   0.163   3.333  2.2601 -1.6219  0.1164
  717MOL0     H96792  11.981  -0.004   3.307  1.8309  0.2007 -1.5384
  717MOL0     H96793  12.107   0.005   3.709  1.6966  0.2835 -0.3636
  717MOL0     H96794  11.438   0.458   3.149  0.8571  0.8989  1.6989
  717MOL0     H96795  11.190   0.464   3.164 -2.0323 -1.9191  0.3836
  718MOL0     O96796   8.435   1.314   2.136  0.3881  0.3407  0.4413
  718MOL0     C96797   8.536   1.379   2.114 -0.7452  0.4622  0.0035
  718MOL0     O96798   8.559   1.511   2.146  0.3017  0.2865 -0.7963
  718MOL0     C96799   8.455   1.602   2.177  0.0891  0.5862 -0.5883
  718MOL0     C96800   8.337   1.560   2.242  0.2120 -0.0199  0.0354
  718MOL0     C96801   8.228   1.639   2.244 -0.0058  0.2899 -0.1100
  718MOL0     C96802   8.243   1.772   2.207  0.6561  0.1468  0.2552
  718MOL0     O96803   8.141   1.864   2.209  0.8082 -0.5575  0.0486
  718MOL0     C96804   8.003   1.801   2.193 -0.6431  0.0551 -0.1050
  718MOL0     C96805   7.916   1.907   2.136 -0.4199 -0.6834 -0.2504
  718MOL0     C96806   7.773   1.857   2.114  0.0429 -0.3188  0.2233
  718MOL0     C96807   7.663   1.858   2.229 -0.4830  0.4415 -0.6122
  718MOL0     C96808   7.535   1.787   2.170 -0.1688 -0.7698  0.2717
  718MOL0     C96809   7.424   1.786   2.272  0.0581 -0.0159 -0.3795
  718MOL0     C96810   7.438   1.705   2.396  1.0683 -0.0358  0.2287
  718MOL0     C96811   7.306   1.729   2.485  0.9316 -0.8370  0.4251
  718MOL0     N96812   7.185   1.665   2.434 -0.0679 -0.1177 -0.3142
  718MOL0     C96813   7.072   1.723   2.370  1.4012 -0.1166 -1.4730
  718MOL0     C96814   6.967   1.636   2.381  0.0069 -0.3819 -0.2340
  718MOL0     C96815   6.833   1.657   2.314  0.1242 -1.0009 -0.8005
  718MOL0     C96816   6.829   1.742   2.182  0.3199 -0.5095 -0.3250
  718MOL0     C96817   6.691   1.761   2.126 -0.3423  0.4566  0.4747
  718MOL0     C96818   6.689   1.799   1.973  0.0492 -0.3543 -0.1012
  718MOL0     O96819   6.553   1.805   1.941 -0.1170 -0.0023  0.0635
  718MOL0     C96820   6.498   1.691   1.890 -0.0084  0.2688  0.0215
  718MOL0     C96821   6.564   1.582   1.815  0.2891 -0.1237 -0.2299
  718MOL0     C96822   6.495   1.468   1.764 -0.0944 -0.1335  0.0012
  718MOL0     C96823   6.591   1.360   1.716 -0.6045  0.0822  0.6325
  718MOL0     C96824   6.355   1.460   1.777 -0.1956 -0.4375  0.1302
  718MOL0     C96825   6.280   1.334   1.744  0.7786  0.7011  0.8803
  718MOL0     O96826   6.140   1.340   1.757 -0.1504  0.0606  0.2845
  718MOL0     C96827   6.060   1.230   1.741 -0.4512  0.0119  0.0513
  718MOL0     C96828   5.936   1.257   1.680  0.8057  0.0825  0.8432
  718MOL0     C96829   5.831   1.164   1.673 -0.2761  0.3019  0.0786
  718MOL0     C96830   5.858   1.031   1.714  0.3927 -1.3599  0.4597
  718MOL0     O96831   5.752   0.954   1.696  0.2256  0.6664 -0.5126
  718MOL0     C96832   5.711   0.873   1.803  0.6448 -0.9034 -0.4297
  718MOL0     C96833   5.690   0.950   1.937  0.4063  0.4784 -0.2566
  718MOL0     C96834   5.624   0.863   2.042  0.7646 -0.7081  0.6342
  718MOL0     C96835   5.680   0.888   2.176 -0.0604 -0.9158 -0.0805
  718MOL0     C96836   5.636   0.791   2.289  0.5533  1.4273 -0.2586
  718MOL0     C96837   5.698   0.842   2.423 -0.8049 -0.9741  0.1865
  718MOL0     C96838   5.638   0.771   2.541 -0.2162  0.0604  0.1691
  718MOL0     C96839   5.725   0.814   2.664  0.2768  0.5300  0.3711
  718MOL0    Cl96840   5.621   0.848   2.806 -0.3306 -0.2503  0.2266
  718MOL0     C96841   5.973   1.009   1.794 -0.2026  1.3223  0.4485
  718MOL0     C96842   6.076   1.106   1.812 -0.3944  0.6959  0.2647
  718MOL0     O96843   6.338   1.234   1.720 -0.1136  0.3768 -0.3538
  718MOL0     C96844   6.290   1.571   1.834 -0.6687 -0.3200 -0.2393
  718MOL0     C96845   6.363   1.686   1.895 -0.2568  0.3310  0.5876
  718MOL0     N96846   7.015   1.522   2.445 -0.5600 -0.3270  0.0824
  718MOL0     N96847   7.140   1.540   2.477 -0.7810 -0.2204 -0.3116
  718MOL0     C96848   8.366   1.823   2.163 -0.1350  0.4027  0.3320
  718MOL0     C96849   8.472   1.740   2.140  0.6556 -0.7475 -0.0042
  718MOL0     C96850   8.649   1.304   2.053 -1.0361 -0.5407 -0.7443
  718MOL0     C96851   8.760   1.379   1.998  0.5617  0.5714  0.3470
  718MOL0     C96852   8.861   1.303   1.944  0.0648  0.6090 -0.8881
  718MOL0     C96853   8.865   1.166   1.932  0.9667  0.5051 -0.2346
  718MOL0     O96854   8.981   1.105   1.885  0.1751  0.3991  0.8644
  718MOL0     C96855   9.027   0.977   1.927  0.0528 -0.0473  0.0220
  718MOL0     C96856   9.177   0.989   1.961  0.2831 -0.0564  0.0128
  718MOL0     C96857   9.189   1.075   2.094  0.8581  0.0987 -0.0440
  718MOL0     C96858   9.306   1.176   2.087  0.1421 -0.4693 -0.2124
  718MOL0     C96859   9.434   1.125   2.026 -0.8989  0.5982  0.9633
  718MOL0     C96860   9.535   1.082   1.973  0.1702  0.1367  0.0339
  718MOL0     C96861   8.758   1.101   1.992 -0.5335 -0.0329  0.6506
  718MOL0     C96862   8.649   1.168   2.041  0.4139 -0.5032  0.4907
  718MOL0     H96863   8.310   1.460   2.274  0.1036 -0.1294 -0.3899
  718MOL0     H96864   8.138   1.600   2.292  0.7881 -0.7895  0.5506
  718MOL0     H96865   7.999   1.724   2.116  1.7751 -0.0327 -0.2186
  718MOL0     H96866   7.968   1.765   2.290 -0.7621  0.7741  0.1303
  718MOL0     H96867   7.909   1.989   2.209  2.6525  1.1205 -1.7863
  718MOL0     H96868   7.974   1.942   2.050  1.2167  0.4466  1.2402
  718MOL0     H96869   7.728   1.929   2.044  0.4803  2.5731  2.6797
  718MOL0     H96870   7.782   1.765   2.057 -1.0305 -0.2233 -0.1184
  718MOL0     H96871   7.702   1.808   2.318  0.9613 -0.3072 -1.6233
  718MOL0     H96872   7.641   1.960   2.264 -2.8686 -0.0728 -0.4290
  718MOL0     H96873   7.502   1.850   2.087  1.5118  1.6594  1.3303
  718MOL0     H96874   7.565   1.693   2.122 -0.0394 -0.0852 -1.0451
  718MOL0     H96875   7.417   1.890   2.305  2.1462 -0.8487  3.2775
  718MOL0     H96876   7.331   1.758   2.222 -0.0460 -1.3474  0.5088
  718MOL0     H96877   7.458   1.601   2.369 -0.0263  0.5455 -3.3922
  718MOL0     H96878   7.528   1.745   2.443  1.3470  0.0678 -0.3815
  718MOL0     H96879   7.270   1.832   2.493  1.0902 -0.4975 -2.4577
  718MOL0     H96880   7.329   1.692   2.586  0.3081 -0.9220  0.5407
  718MOL0     H96881   7.071   1.823   2.328  1.2362  0.4404 -0.1823
  718MOL0     H96882   6.782   1.563   2.291 -1.3036 -0.7840  1.2299
  718MOL0     H96883   6.770   1.697   2.394 -0.1134  2.3129 -2.4533
  718MOL0     H96884   6.887   1.686   2.108  2.0031  0.4895  0.1898
  718MOL0     H96885   6.876   1.837   2.210 -0.9137 -0.1303  0.5766
  718MOL0     H96886   6.640   1.842   2.179 -1.3714 -1.4582  2.6012
  718MOL0     H96887   6.637   1.665   2.126  0.5247 -0.1161 -2.6032
  718MOL0     H96888   6.745   1.732   1.908  0.3703 -1.6494  1.4266
  718MOL0     H96889   6.728   1.901   1.967  2.1087 -1.1908 -2.8005
  718MOL0     H96890   6.673   1.580   1.811  0.2855 -1.4695 -0.2953
  718MOL0     H96891   6.589   1.280   1.790  0.0270  0.1484  0.7315
  718MOL0     H96892   6.573   1.313   1.619  2.5505  1.1181 -0.5838
  718MOL0     H96893   6.695   1.392   1.705 -0.7862  0.6493  0.5443
  718MOL0     H96894   5.909   1.357   1.647  0.8295  0.2932  1.4605
  718MOL0     H96895   5.734   1.193   1.635 -0.7247 -0.9995  0.1779
  718MOL0     H96896   5.615   0.828   1.777  0.6814  0.2034 -2.7157
  718MOL0     H96897   5.776   0.787   1.821  1.4548 -0.1045  0.6279
  718MOL0     H96898   5.785   0.975   1.985 -0.4342  0.5902  1.4491
  718MOL0     H96899   5.633   1.043   1.930  0.8266  0.6331 -1.9555
  718MOL0     H96900   5.634   0.757   2.015 -1.5439 -1.1050  1.0868
  718MOL0     H96901   5.517   0.880   2.031  1.2041  1.6356 -0.4737
  718MOL0     H96902   5.789   0.879   2.176  0.6750  4.4849  1.3821
  718MOL0     H96903   5.647   0.988   2.208 -1.2339 -0.7933 -1.5879
  718MOL0     H96904   5.657   0.685   2.272 -1.4279  0.8535  0.6527
  718MOL0     H96905   5.528   0.806   2.299  0.2288 -0.1232 -1.1871
  718MOL0     H96906   5.807   0.830   2.421 -0.5232  1.0677 -2.6175
  718MOL0     H96907   5.673   0.948   2.422  0.2805 -0.6997  0.2202
  718MOL0     H96908   5.645   0.663   2.533 -1.6297 -0.0457  0.1389
  718MOL0     H96909   5.536   0.804   2.563  0.1315 -0.0419  2.1721
  718MOL0     H96910   5.772   0.911   2.649 -0.1751  0.4745 -1.8264
  718MOL0     H96911   5.794   0.734   2.693  0.6607  1.1999  1.3552
  718MOL0     H96912   5.997   0.908   1.825  0.2402  1.0487 -0.7344
  718MOL0     H96913   6.161   1.080   1.873  0.1600  0.0490 -0.7515
  718MOL0     H96914   6.183   1.563   1.848 -0.4089 -2.2612  0.9667
  718MOL0     H96915   6.311   1.768   1.942  2.4729  1.3404  2.0585
  718MOL0     H96916   8.379   1.929   2.143  0.1453  0.1318 -0.9859
  718MOL0     H96917   8.566   1.778   2.103  1.2162 -0.2568  1.8420
  718MOL0     H96918   8.775   1.487   2.003  0.6556  0.4947  2.9294
  718MOL0     H96919   8.951   1.353   1.909  0.3621  1.3363  0.8264
  718MOL0     H96920   8.965   0.945   2.011 -0.7413 -1.0402 -0.9056
  718MOL0     H96921   9.019   0.905   1.844  0.3361  0.2644 -0.2815
  718MOL0     H96922   9.230   1.042   1.881  1.0741 -0.1318  0.4779
  718MOL0     H96923   9.222   0.889   1.959 -2.4728 -1.3740 -0.9308
  718MOL0     H96924   9.211   1.007   2.176 -2.0216  0.1478  0.8562
  718MOL0     H96925   9.094   1.123   2.116  0.5597 -0.5852  0.1684
  718MOL0     H96926   9.334   1.197   2.191 -1.0696  0.4900 -0.0657
  718MOL0     H96927   9.268   1.270   2.045 -3.9622 -0.2179  3.4047
  718MOL0     H96928   9.629   1.054   1.930  0.0692  1.2387 -0.9572
  718MOL0     H96929   8.750   0.993   2.000  1.9760 -0.1828  1.9560
  718MOL0     H96930   8.566   1.116   2.087 -0.1004 -1.0739 -1.0066
  719MOL0     O96931   4.304   2.162   0.364  0.1750  0.2284 -0.2392
  719MOL0     C96932   4.290   2.252   0.443  0.5007 -0.4129 -0.4602
  719MOL0     O96933   4.183   2.281   0.529 -0.2782 -0.2767  0.6923
  719MOL0     C96934   4.084   2.194   0.524  0.3814  0.1680  0.5203
  719MOL0     C96935   4.013   2.173   0.407  0.1864 -0.2280 -0.2871
  719MOL0     C96936   3.900   2.084   0.401  0.3014 -0.4769 -0.4029
  719MOL0     C96937   3.856   2.009   0.510 -0.4210  0.6924  0.9469
  719MOL0     O96938   3.751   1.919   0.509 -0.0903 -0.5211  0.3508
  719MOL0     C96939   3.695   1.876   0.378  0.6698 -0.3198 -0.4646
  719MOL0     C96940   3.585   1.776   0.392 -0.3816 -0.1923  0.1943
  719MOL0     C96941   3.470   1.810   0.484  0.6602  0.4363 -0.2050
  719MOL0     C96942   3.366   1.696   0.478  0.0371 -0.8656 -0.1123
  719MOL0     C96943   3.247   1.744   0.398 -0.4053 -0.0149  0.2249
  719MOL0     C96944   3.136   1.646   0.406  0.7685 -0.2184  1.1082
  719MOL0     C96945   3.026   1.681   0.308  0.0242  0.1415 -0.6045
  719MOL0     C96946   2.899   1.612   0.338  0.0768 -0.5162 -0.2075
  719MOL0     N96947   2.806   1.638   0.222 -0.6701  0.3035  0.3105
  719MOL0     C96948   2.723   1.745   0.195 -0.0795  0.0771 -0.7021
  719MOL0     C96949   2.666   1.713   0.077 -0.6456  0.5853  0.0630
  719MOL0     C96950   2.561   1.793   0.011 -0.1452  0.4993 -0.2183
  719MOL0     C96951   2.412   1.742   0.034  0.1446  0.5134  0.8950
  719MOL0     C96952   2.313   1.764  -0.086 -0.1259 -0.5314  0.1321
  719MOL0     C96953   2.183   1.693  -0.065 -0.1016  0.3278  0.6061
  719MOL0     O96954   2.121   1.739   0.047  0.0009  0.4805  1.4906
  719MOL0     C96955   1.987   1.723   0.063 -0.0305  0.1495 -0.7896
  719MOL0     C96956   1.935   1.771   0.177 -0.6506 -0.3492  0.5903
  719MOL0     C96957   1.803   1.752   0.217 -0.0211  0.5230 -0.1106
  719MOL0     C96958   1.759   1.803   0.348 -0.6029 -0.4754 -0.7903
  719MOL0     C96959   1.719   1.671   0.135  0.3995 -0.5865  0.0605
  719MOL0     C96960   1.577   1.630   0.160  0.4550  0.2881  0.3087
  719MOL0     O96961   1.508   1.581   0.053 -0.0421  0.3313  0.1287
  719MOL0     C96962   1.376   1.570   0.074 -0.5657 -0.2033  0.3813
  719MOL0     C96963   1.311   1.446   0.087 -0.2129 -0.2516  0.6490
  719MOL0     C96964   1.171   1.456   0.096  0.3678 -0.3918  0.3292
  719MOL0     C96965   1.101   1.574   0.103  0.8496  0.5447 -0.9124
  719MOL0     O96966   0.968   1.563   0.135  0.1566 -0.0739  0.8970
  719MOL0     C96967   0.884   1.666   0.074 -0.2722 -0.0041  0.3504
  719MOL0     C96968   0.752   1.604   0.015  0.0009  0.4467 -0.8483
  719MOL0     C96969   0.662   1.586   0.135  0.5870 -0.0281  0.2025
  719MOL0     C96970   0.532   1.520   0.109 -0.1049  0.7159  0.4049
  719MOL0     C96971   0.446   1.500   0.222  0.2655 -0.4782 -0.4229
  719MOL0     C96972   0.310   1.440   0.166 -1.4868  0.2134  0.3149
  719MOL0     C96973   0.222   1.393   0.287 -0.2244  0.1602  0.8816
  719MOL0     C96974   0.078   1.386   0.236  0.1692  0.6664 -0.7050
  719MOL0    Cl96975   0.041   1.262   0.128  0.0620  0.2711 -0.1017
  719MOL0     C96976   1.171   1.692   0.100  0.3606 -0.5365 -0.0392
  719MOL0     C96977   1.308   1.690   0.086  1.1508  0.8859 -0.0588
  719MOL0     O96978   1.539   1.623   0.276 -0.5595 -0.8761  0.2125
  719MOL0     C96979   1.768   1.626   0.008 -0.5663  1.0334  0.0024
  719MOL0     C96980   1.904   1.647  -0.025  0.9794  0.2393  0.9108
  719MOL0     N96981   2.716   1.590   0.036  0.2869  0.4486 -0.0581
  719MOL0     N96982   2.800   1.545   0.121 -0.5097 -0.5184 -0.2236
  719MOL0     C96983   3.939   2.015   0.619  0.1285 -0.1208 -0.6173
  719MOL0     C96984   4.041   2.110   0.630 -0.0536  0.1281 -0.0209
  719MOL0     C96985   4.412   2.341   0.445  1.1552 -0.7804 -0.7517
  719MOL0     C96986   4.544   2.300   0.451 -0.1043 -0.0069  0.4069
  719MOL0     C96987   4.647   2.393   0.453  0.5434 -1.8336 -0.0735
  719MOL0     C96988   4.629   2.530   0.436 -0.1634  0.2431 -1.7208
  719MOL0     O96989   4.743   2.609   0.442 -0.0573 -1.0517 -0.0408
  719MOL0     C96990   4.762   2.667   0.575 -0.7323 -0.0217 -0.7163
  719MOL0     C96991   4.860   2.589   0.663 -0.0434 -0.5490 -0.1779
  719MOL0     C96992   5.008   2.611   0.618  0.2015  0.4545 -0.9604
  719MOL0     C96993   5.106   2.505   0.686 -0.6196  0.7409  0.3833
  719MOL0     C96994   5.248   2.528   0.665  0.2799 -0.4149  0.2460
  719MOL0     C96995   5.366   2.542   0.651 -0.6591  0.0189 -0.4703
  719MOL0     C96996   4.497   2.573   0.413  1.4274 -0.8542 -0.0396
  719MOL0     C96997   4.389   2.483   0.436 -0.4867  0.7451 -0.7520
  719MOL0     H96998   4.051   2.227   0.321  0.8336  2.1325  1.3878
  719MOL0     H96999   3.848   2.080   0.306 -1.9123  1.3950  0.6313
  719MOL0     H97000   3.646   1.967   0.343 -0.8433 -1.1708 -0.6340
  719MOL0     H97001   3.770   1.833   0.310  0.5148 -1.9451  0.3467
  719MOL0     H97002   3.576   1.755   0.285  1.8129  0.5767 -0.1997
  719MOL0     H97003   3.629   1.688   0.440  0.3703  0.0226 -0.0786
  719MOL0     H97004   3.504   1.808   0.588 -2.5247 -2.5882  0.9599
  719MOL0     H97005   3.415   1.903   0.467  1.2016  0.4580 -2.0134
  719MOL0     H97006   3.411   1.606   0.437 -1.5613 -1.1524 -1.2942
  719MOL0     H97007   3.336   1.680   0.582  1.5181 -1.9077  0.1838
  719MOL0     H97008   3.222   1.841   0.443  1.9836  0.2932  1.0021
  719MOL0     H97009   3.270   1.766   0.293 -0.7491  0.4751  0.2451
  719MOL0     H97010   3.171   1.544   0.385  0.4551 -0.3651  1.2811
  719MOL0     H97011   3.098   1.658   0.508  0.6871 -1.5647  1.2525
  719MOL0     H97012   3.020   1.790   0.315 -0.1708  0.0418  1.1189
  719MOL0     H97013   3.067   1.650   0.211 -0.8743  2.0171 -1.6371
  719MOL0     H97014   2.860   1.642   0.435 -0.3085  0.9974 -0.8030
  719MOL0     H97015   2.928   1.506   0.342  0.0508 -0.5118  0.1292
  719MOL0     H97016   2.687   1.816   0.269  0.4094  0.3754 -0.7487
  719MOL0     H97017   2.559   1.895   0.051 -0.1187  0.8044 -0.9678
  719MOL0     H97018   2.570   1.799  -0.098 -1.1156  0.8411 -0.2874
  719MOL0     H97019   2.375   1.802   0.117 -0.6092  2.1386 -0.5655
  719MOL0     H97020   2.404   1.637   0.062 -0.7278  0.1918 -0.4582
  719MOL0     H97021   2.363   1.739  -0.180  0.9748  5.1275 -1.1878
  719MOL0     H97022   2.292   1.872  -0.079 -0.9799 -0.7617  1.4806
  719MOL0     H97023   2.208   1.588  -0.048 -1.4644  0.3209  3.1829
  719MOL0     H97024   2.125   1.703  -0.156  0.2464  2.0538  0.5364
  719MOL0     H97025   1.998   1.832   0.241 -0.7214  1.8836 -1.3052
  719MOL0     H97026   1.659   1.848   0.336 -0.4811 -0.4412 -1.8360
  719MOL0     H97027   1.766   1.728   0.426  1.2575  1.2186  0.7652
  719MOL0     H97028   1.824   1.889   0.369  0.1811 -1.7318  2.4828
  719MOL0     H97029   1.377   1.359   0.090  2.3119  1.4784 -0.7140
  719MOL0     H97030   1.118   1.363   0.113 -0.0570  0.0695  1.6374
  719MOL0     H97031   0.857   1.736   0.154 -0.0055  0.5245 -0.0139
  719MOL0     H97032   0.930   1.722  -0.008 -3.3075  0.6279 -1.0554
  719MOL0     H97033   0.713   1.680  -0.053  2.1073  0.6243 -1.9602
  719MOL0     H97034   0.771   1.509  -0.036 -1.0936  0.4122 -1.2193
  719MOL0     H97035   0.653   1.689   0.171 -0.4454  0.4408 -1.3161
  719MOL0     H97036   0.718   1.524   0.206  1.6006 -1.8199 -2.0489
  719MOL0     H97037   0.480   1.590   0.043  0.8556  0.5676 -0.5377
  719MOL0     H97038   0.553   1.428   0.054 -5.2689 -0.0071 -0.8429
  719MOL0     H97039   0.437   1.597   0.272  2.3509 -1.0554  1.2278
  719MOL0     H97040   0.482   1.424   0.292  1.4973 -0.8522 -1.4183
  719MOL0     H97041   0.251   1.512   0.108 -1.4651 -1.0146 -1.3248
  719MOL0     H97042   0.323   1.363   0.089 -0.1527  0.6988  0.0228
  719MOL0     H97043   0.222   1.464   0.371 -1.6081  0.4506  0.6705
  719MOL0     H97044   0.250   1.294   0.322  0.1242  0.4225  1.3409
  719MOL0     H97045   0.047   1.478   0.186 -1.3557  0.3188 -0.4672
  719MOL0     H97046   0.012   1.376   0.323  1.3188 -2.7207 -0.0777
  719MOL0     H97047   1.114   1.784   0.108  2.1120  0.6932 -0.9400
  719MOL0     H97048   1.366   1.781   0.089  3.9740 -0.7991  1.2793
  719MOL0     H97049   1.709   1.574  -0.067  2.7556 -0.3397 -1.8969
  719MOL0     H97050   1.925   1.610  -0.125  0.5522 -1.0657  1.2854
  719MOL0     H97051   3.919   1.957   0.709  1.1281 -0.3199 -0.5049
  719MOL0     H97052   4.107   2.103   0.715  3.0531 -0.6933 -2.2999
  719MOL0     H97053   4.577   2.197   0.454 -1.3388 -0.5663 -2.1991
  719MOL0     H97054   4.751   2.363   0.464  0.7990 -2.1378 -2.6331
  719MOL0     H97055   4.800   2.770   0.576 -0.4395 -0.1120  1.5684
  719MOL0     H97056   4.669   2.678   0.632 -0.3096  2.1920 -0.3599
  719MOL0     H97057   4.843   2.482   0.655  0.8718 -0.6090 -1.6752
  719MOL0     H97058   4.846   2.629   0.764  1.9867  0.7620 -0.3469
  719MOL0     H97059   5.039   2.705   0.664  4.5718 -0.8933 -0.7486
  719MOL0     H97060   5.018   2.615   0.509 -2.7625  0.0279 -1.3472
  719MOL0     H97061   5.087   2.405   0.647  0.3440  0.6569  0.1240
  719MOL0     H97062   5.090   2.502   0.794  2.2856  1.3079  0.8919
  719MOL0     H97063   5.472   2.537   0.666 -0.4235 -0.9635 -2.3093
  719MOL0     H97064   4.468   2.676   0.396 -1.7290 -1.4477  1.2003
  719MOL0     H97065   4.289   2.525   0.426 -1.6578 -1.3069  1.4140
  720MOL0     O97066   4.298   3.434   9.384 -0.6752 -0.1667  0.3128
  720MOL0     C97067   4.375   3.345   9.424 -0.0451  0.8807 -0.4902
  720MOL0     O97068   4.347   3.218   9.452  0.5661 -0.0605 -0.5070
  720MOL0     C97069   4.220   3.173   9.462  0.7544 -0.5138 -0.3999
  720MOL0     C97070   4.155   3.151   9.345  1.1063  0.4462  0.4245
  720MOL0     C97071   4.017   3.118   9.355  0.9518 -0.0718 -0.0375
  720MOL0     C97072   3.950   3.094   9.479 -0.6598  0.3697 -0.5572
  720MOL0     O97073   3.815   3.073   9.470  0.6111  0.5534 -0.4606
  720MOL0     C97074   3.756   3.048   9.600  0.0835  0.2794  0.1236
  720MOL0     C97075   3.606   3.033   9.567  0.3062  0.4463 -1.2574
  720MOL0     C97076   3.515   3.052   9.692  0.3278  0.1456 -0.7465
  720MOL0     C97077   3.359   3.035   9.667  0.1701 -0.6337 -0.0086
  720MOL0     C97078   3.319   2.894   9.625 -0.1030  0.3137 -0.4569
  720MOL0     C97079   3.167   2.883   9.590 -0.4555  0.7255  0.0269
  720MOL0     C97080   3.137   2.764   9.488 -0.1894  0.1294 -0.7352
  720MOL0     C97081   2.986   2.754   9.451 -0.0787 -0.1484 -0.5478
  720MOL0     N97082   2.895   2.751   9.568 -0.1478 -0.5995 -0.2230
  720MOL0     C97083   2.777   2.821   9.577  0.4558 -0.3323  0.3791
  720MOL0     C97084   2.736   2.791   9.698  1.1337  0.7824 -0.1360
  720MOL0     C97085   2.617   2.866   9.757 -0.4101  0.7578  0.4301
  720MOL0     C97086   2.476   2.806   9.761  0.7519 -0.4134 -0.7308
  720MOL0     C97087   2.456   2.690   9.842 -0.3524 -0.1615  0.2730
  720MOL0     C97088   2.323   2.620   9.853  1.0599 -1.7383  0.0738
  720MOL0     O97089   2.228   2.705   9.922  0.6620 -0.9024 -0.3731
  720MOL0     C97090   2.131   2.657  10.009  0.2565 -0.2348  0.8297
  720MOL0     C97091   2.091   2.527  10.032  0.2249 -0.5862 -0.3465
  720MOL0     C97092   1.997   2.495  10.127 -0.0046  0.1235 -0.1120
  720MOL0     C97093   1.966   2.354  10.147 -0.6996 -0.3909 -0.1057
  720MOL0     C97094   1.924   2.596  10.187  0.6445  0.6925  0.4727
  720MOL0     C97095   1.803   2.564  10.280 -0.1310  0.0240  0.5502
  720MOL0     O97096   1.706   2.649  10.263  0.0648  0.8514 -0.2340
  720MOL0     C97097   1.592   2.630  10.322  0.5838  1.0801 -1.1708
  720MOL0     C97098   1.496   2.537  10.276 -0.0221 -0.0529 -0.6055
  720MOL0     C97099   1.375   2.519  10.343 -0.7562 -0.4377  0.8511
  720MOL0     C97100   1.337   2.599  10.455 -0.0246 -0.0859 -0.2376
  720MOL0     O97101   1.215   2.599  10.516 -0.1475 -0.2158 -0.6148
  720MOL0     C97102   1.129   2.484  10.500  0.7127  0.3723  0.6304
  720MOL0     C97103   0.989   2.514  10.543 -0.2679  0.3299 -0.7142
  720MOL0     C97104   0.883   2.412  10.517  0.5003 -0.1168  0.4968
  720MOL0     C97105   0.910   2.274  10.581  0.5468 -0.0525 -0.5080
  720MOL0     C97106   0.807   2.167  10.524  0.1424 -0.2673 -0.0986
  720MOL0     C97107   0.658   2.196  10.549  0.2668 -0.3128 -0.1667
  720MOL0     C97108   0.620   2.215  10.692 -0.6467 -0.9064  0.2724
  720MOL0     C97109   0.473   2.225  10.714  0.1490  0.3724  0.1791
  720MOL0    Cl97110   0.444   2.189  10.884  0.0985  0.0490  0.2808
  720MOL0     C97111   1.428   2.692  10.500  0.3839  0.0687  0.4226
  720MOL0     C97112   1.552   2.704  10.434  0.0873  0.5897  0.2426
  720MOL0     O97113   1.814   2.478  10.364 -0.0438  0.1766  0.7840
  720MOL0     C97114   1.962   2.730  10.154 -0.3562  0.8080  0.5351
  720MOL0     C97115   2.056   2.755  10.067 -0.3704  0.1951 -0.2479
  720MOL0     N97116   2.820   2.699   9.760 -0.5465 -0.1714  0.7959
  720MOL0     N97117   2.917   2.675   9.680 -0.8186 -0.1714 -0.5189
  720MOL0     C97118   4.028   3.119   9.599  0.7308 -1.0422  0.3871
  720MOL0     C97119   4.154   3.165   9.583 -0.4519  0.2566  0.4889
  720MOL0     C97120   4.518   3.388   9.436 -0.4452 -0.4516  0.2072
  720MOL0     C97121   4.599   3.320   9.526 -0.7089  0.9511  0.7117
  720MOL0     C97122   4.737   3.343   9.531  1.6022 -0.2668 -0.5742
  720MOL0     C97123   4.793   3.440   9.457 -0.6683  0.5451  0.5821
  720MOL0     O97124   4.934   3.441   9.459  0.7129  0.8214  0.7437
  720MOL0     C97125   5.020   3.542   9.397  0.2835  0.1143 -1.1357
  720MOL0     C97126   5.108   3.466   9.291  0.2151 -0.2231 -1.4602
  720MOL0     C97127   5.021   3.423   9.177 -0.7109  0.1594 -0.0577
  720MOL0     C97128   5.084   3.323   9.087  0.1562  0.4352 -0.6354
  720MOL0     C97129   5.105   3.193   9.153  0.2154 -0.3503 -0.4246
  720MOL0     C97130   5.112   3.075   9.183  0.3115  0.2677 -0.1849
  720MOL0     C97131   4.712   3.510   9.365  0.1106 -0.4629  0.1729
  720MOL0     C97132   4.576   3.489   9.352  0.5310  0.0807 -0.0694
  720MOL0     H97133   4.210   3.174   9.254 -1.8240 -0.3836 -1.7126
  720MOL0     H97134   3.963   3.102   9.263 -0.2220  0.5508  0.5179
  720MOL0     H97135   3.807   2.969   9.656  1.5100  0.7287 -0.5026
  720MOL0     H97136   3.765   3.129   9.673 -2.0592 -0.9930  1.9168
  720MOL0     H97137   3.572   3.108   9.495 -2.5944  0.4463  0.0063
  720MOL0     H97138   3.588   2.938   9.516  1.5331 -0.2612 -0.4308
  720MOL0     H97139   3.530   2.983   9.775 -2.3657  1.2073  0.7504
  720MOL0     H97140   3.532   3.155   9.724 -0.1536 -0.3783  1.2934
  720MOL0     H97141   3.295   3.075   9.746 -1.3591 -3.5694  0.3939
  720MOL0     H97142   3.341   3.094   9.577 -1.6314 -1.5857 -0.3145
  720MOL0     H97143   3.375   2.858   9.538  2.7946  0.6359  1.1377
  720MOL0     H97144   3.344   2.822   9.703 -0.9428 -1.6820 -1.9693
  720MOL0     H97145   3.112   2.885   9.685  0.4727  1.3473  0.5787
  720MOL0     H97146   3.132   2.975   9.542 -1.2700  1.8808  2.6468
  720MOL0     H97147   3.187   2.771   9.391  3.3564 -1.6071  0.8076
  720MOL0     H97148   3.179   2.675   9.535 -0.2763  0.7009  0.4514
  720MOL0     H97149   2.968   2.659   9.401 -2.4821 -0.3122  0.4920
  720MOL0     H97150   2.963   2.835   9.381 -2.0861 -1.1449 -1.1212
  720MOL0     H97151   2.723   2.892   9.515  0.0991  0.5442  1.6523
  720MOL0     H97152   2.647   2.884   9.861  1.0064 -1.3743  0.4627
  720MOL0     H97153   2.610   2.961   9.703 -2.0534 -0.3882 -1.5190
  720MOL0     H97154   2.450   2.761   9.665 -1.5077 -1.5013  0.3090
  720MOL0     H97155   2.406   2.888   9.782 -2.2947 -2.4439 -2.2646
  720MOL0     H97156   2.472   2.726   9.944 -2.3304 -0.7064  0.8162
  720MOL0     H97157   2.531   2.617   9.811 -1.4151 -0.0378 -2.9978
  720MOL0     H97158   2.332   2.529   9.912 -1.5010 -0.4754  2.7179
  720MOL0     H97159   2.276   2.600   9.756 -2.0064  0.5014  0.9194
  720MOL0     H97160   2.153   2.451   9.987  2.5596  1.0827 -0.1366
  720MOL0     H97161   1.858   2.338  10.136 -0.3624 -3.1820 -0.1826
  720MOL0     H97162   2.012   2.295  10.067  1.3021  1.2593 -0.2525
  720MOL0     H97163   1.998   2.326  10.248  3.5442  0.1794 -1.0795
  720MOL0     H97164   1.529   2.477  10.192  0.0532  0.5499 -1.0090
  720MOL0     H97165   1.309   2.439  10.310 -1.8012 -0.2027  2.2897
  720MOL0     H97166   1.124   2.448  10.397  1.2004  0.4530  0.5743
  720MOL0     H97167   1.163   2.390  10.547  1.8035  1.0251  1.2023
  720MOL0     H97168   0.990   2.524  10.651  2.2895  0.6682 -0.7140
  720MOL0     H97169   0.965   2.616  10.511  1.4383  0.8512 -0.4292
  720MOL0     H97170   0.884   2.394  10.409  1.7930 -1.4608  0.7049
  720MOL0     H97171   0.779   2.442  10.530  0.7825  2.6792 -2.4134
  720MOL0     H97172   1.003   2.223  10.557 -0.5088 -1.8622 -0.9445
  720MOL0     H97173   0.899   2.286  10.689 -0.5881  1.6842 -0.7751
  720MOL0     H97174   0.830   2.065  10.554 -3.7141 -1.4011 -0.4664
  720MOL0     H97175   0.828   2.166  10.417 -1.4015  0.0933 -0.4317
  720MOL0     H97176   0.626   2.279  10.485 -2.0961 -0.2672  0.9708
  720MOL0     H97177   0.600   2.112  10.509  0.9386 -0.2393 -1.3350
  720MOL0     H97178   0.681   2.290  10.742 -0.3204 -1.5018  0.7759
  720MOL0     H97179   0.655   2.119  10.728  0.4953 -1.0127 -1.0321
  720MOL0     H97180   0.430   2.138  10.663  3.5385 -1.4937  0.2648
  720MOL0     H97181   0.434   2.318  10.670 -1.7833 -1.3116 -1.9431
  720MOL0     H97182   1.403   2.750  10.588 -0.4043 -2.2989  1.8797
  720MOL0     H97183   1.629   2.764  10.481  2.6914 -3.1843  1.2437
  720MOL0     H97184   1.904   2.811  10.197 -0.9641  0.3878  0.5113
  720MOL0     H97185   2.079   2.860  10.049  2.8709  0.3495  3.5663
  720MOL0     H97186   3.985   3.110   9.698 -1.1529 -0.2638 -0.3097
  720MOL0     H97187   4.205   3.199   9.673  2.0177  0.7807 -1.0034
  720MOL0     H97188   4.549   3.245   9.586 -2.1726  0.6889 -0.7479
  720MOL0     H97189   4.789   3.280   9.603 -1.6062 -0.6445  1.5963
  720MOL0     H97190   4.959   3.621   9.353 -2.5973 -1.4670 -0.2053
  720MOL0     H97191   5.087   3.584   9.472 -1.5256  2.9234 -0.9669
  720MOL0     H97192   5.149   3.376   9.337 -0.1261 -0.2008 -1.1078
  720MOL0     H97193   5.188   3.531   9.254 -1.7399  2.6375 -0.9883
  720MOL0     H97194   5.001   3.511   9.114 -0.4259  0.2907  0.0337
  720MOL0     H97195   4.919   3.392   9.203 -0.5691 -0.8939 -0.6962
  720MOL0     H97196   5.180   3.360   9.051 -0.2909 -0.3735 -2.8372
  720MOL0     H97197   5.017   3.319   9.001  0.1444  0.9399 -0.6531
  720MOL0     H97198   5.106   2.968   9.194 -1.2199  0.3406 -0.1193
  720MOL0     H97199   4.756   3.592   9.308  1.9847 -0.7327  1.1431
  720MOL0     H97200   4.505   3.550   9.298 -1.8523 -0.2860  2.4099
  721MOL0     O97201   6.937   6.003   9.281  0.0780 -0.0045  0.1459
  721MOL0     C97202   7.041   5.969   9.218 -0.3965  0.5241  0.7718
  721MOL0     O97203   7.039   5.917   9.094  0.3263  0.0290 -0.3806
  721MOL0     C97204   6.920   5.864   9.048  0.3934 -0.7595  0.4630
  721MOL0     C97205   6.806   5.809   9.120 -0.6049  0.0924 -0.1002
  721MOL0     C97206   6.692   5.773   9.055 -0.4241  0.5775  0.2961
  721MOL0     C97207   6.688   5.763   8.910  0.1471 -0.4789  0.1831
  721MOL0     O97208   6.579   5.720   8.839  0.4134  0.2842 -0.4228
  721MOL0     C97209   6.456   5.781   8.885  0.0303 -0.1482 -1.1804
  721MOL0     C97210   6.336   5.735   8.802  0.7007  0.3146  0.8992
  721MOL0     C97211   6.211   5.803   8.843 -0.0790  0.4343 -0.4517
  721MOL0     C97212   6.093   5.751   8.757  0.5294 -0.0889  0.5205
  721MOL0     C97213   6.057   5.600   8.776 -0.1813 -1.0341  0.0272
  721MOL0     C97214   6.028   5.566   8.918  0.1102  0.5170  0.1263
  721MOL0     C97215   5.974   5.426   8.953  0.9427  0.4858  0.6560
  721MOL0     C97216   5.836   5.417   8.899  0.6353  0.5483 -0.7347
  721MOL0     N97217   5.783   5.283   8.941 -0.4202  0.4582  0.1238
  721MOL0     C97218   5.717   5.255   9.056  1.0297  0.1331 -0.8831
  721MOL0     C97219   5.702   5.123   9.057 -0.0153  0.2850 -0.3735
  721MOL0     C97220   5.630   5.059   9.177  0.3372 -0.0507 -0.1146
  721MOL0     C97221   5.490   5.130   9.204 -0.2061 -0.2609 -0.0409
  721MOL0     C97222   5.404   5.150   9.080  1.0825 -0.0717  0.4359
  721MOL0     C97223   5.259   5.184   9.126  0.1068 -0.3184  0.2777
  721MOL0     O97224   5.269   5.299   9.212 -0.0949 -0.0260  0.0056
  721MOL0     C97225   5.152   5.334   9.270  0.8633 -0.4426  0.4416
  721MOL0     C97226   5.026   5.273   9.256  0.7568 -0.6913  0.9442
  721MOL0     C97227   4.910   5.311   9.321 -0.5965 -0.9604 -0.2583
  721MOL0     C97228   4.782   5.243   9.303 -0.8978  0.2209 -0.0835
  721MOL0     C97229   4.919   5.417   9.419  0.2232 -0.0397 -0.2753
  721MOL0     C97230   4.804   5.463   9.507  0.2218  0.1151 -0.3582
  721MOL0     O97231   4.822   5.564   9.601 -0.6281 -0.5998 -0.5311
  721MOL0     C97232   4.739   5.595   9.703  0.0866 -0.6224 -0.0841
  721MOL0     C97233   4.781   5.711   9.763  0.8563  0.3007  0.0158
  721MOL0     C97234   4.735   5.737   9.891 -0.3001 -0.8840  0.1606
  721MOL0     C97235   4.632   5.668   9.959 -0.4666 -0.3392  0.0644
  721MOL0     O97236   4.611   5.689  10.093  1.0400 -0.2086 -0.2150
  721MOL0     C97237   4.652   5.804  10.164 -0.0343  0.0500  0.3258
  721MOL0     C97238   4.562   5.929  10.147  0.1646  0.1204  0.7220
  721MOL0     C97239   4.417   5.887  10.200  1.3372  0.5560 -0.2284
  721MOL0     C97240   4.300   5.957  10.120 -0.0180  0.1607 -0.3664
  721MOL0     C97241   4.165   5.938  10.180 -0.1530  0.2261  1.0486
  721MOL0     C97242   4.065   6.000  10.076  0.8821 -0.7412  0.6662
  721MOL0     C97243   3.925   5.953  10.110  0.0706 -0.5038 -0.2171
  721MOL0     C97244   3.831   5.983  10.001  0.0302 -0.2298  0.2012
  721MOL0    Cl97245   3.852   5.891   9.843  0.0424 -0.2659 -0.0688
  721MOL0     C97246   4.584   5.558   9.897 -0.0939  1.1558  0.6567
  721MOL0     C97247   4.648   5.511   9.774 -0.1857  0.5026  0.1171
  721MOL0     O97248   4.692   5.404   9.490  0.4075 -0.8925 -0.1946
  721MOL0     C97249   5.051   5.474   9.449  0.9416 -0.3608  1.1713
  721MOL0     C97250   5.164   5.434   9.372  0.1899 -0.4946  0.0988
  721MOL0     N97251   5.745   5.071   8.934 -0.8712  0.1631 -0.2454
  721MOL0     N97252   5.793   5.168   8.867  0.1647 -0.3099 -0.6008
  721MOL0     C97253   6.795   5.816   8.844  0.6165  0.4865  1.0612
  721MOL0     C97254   6.907   5.865   8.908 -0.2357  0.2580  0.4916
  721MOL0     C97255   7.174   5.997   9.285  0.7310  0.5243 -0.4414
  721MOL0     C97256   7.195   6.015   9.422 -0.6985 -0.1567  0.5532
  721MOL0     C97257   7.320   6.054   9.476  0.2261  0.7556  0.2057
  721MOL0     C97258   7.438   6.052   9.395  0.1561 -0.4878  0.8261
  721MOL0     O97259   7.564   6.064   9.423 -0.5027  0.6140  0.1163
  721MOL0     C97260   7.582   6.110   9.548 -0.4112 -0.5398 -0.2582
  721MOL0     C97261   7.742   6.130   9.562  0.1207  0.0247  0.6130
  721MOL0     C97262   7.784   6.202   9.693 -0.1249  1.1945  0.1387
  721MOL0     C97263   7.787   6.359   9.685  0.1526  0.2177 -0.4583
  721MOL0     C97264   7.651   6.419   9.663  0.1394 -0.3585  0.2529
  721MOL0     C97265   7.526   6.459   9.663 -0.3678  0.1155  0.8025
  721MOL0     C97266   7.415   6.013   9.257  0.4366 -0.4089 -0.1077
  721MOL0     C97267   7.291   5.996   9.203  0.7348  0.0182  0.2468
  721MOL0     H97268   6.813   5.802   9.228  0.5144 -2.1618 -0.2574
  721MOL0     H97269   6.610   5.733   9.113 -0.8804 -2.7021 -2.2753
  721MOL0     H97270   6.427   5.770   8.990 -2.9949  4.2552 -1.2645
  721MOL0     H97271   6.458   5.889   8.867 -2.4935  0.0437 -0.7161
  721MOL0     H97272   6.352   5.765   8.699 -0.8498 -2.6434 -0.3230
  721MOL0     H97273   6.320   5.627   8.809 -0.1017  0.1023 -2.5080
  721MOL0     H97274   6.186   5.784   8.948  0.5607 -1.1730 -0.5565
  721MOL0     H97275   6.222   5.909   8.821 -1.3958  0.3679 -1.5347
  721MOL0     H97276   6.007   5.810   8.790  0.8866 -0.7908  2.9548
  721MOL0     H97277   6.111   5.767   8.651 -1.0075  1.7173  0.4831
  721MOL0     H97278   5.971   5.578   8.711  0.4989  1.3234 -1.8381
  721MOL0     H97279   6.137   5.536   8.738  1.5571  0.1251  1.5407
  721MOL0     H97280   6.125   5.572   8.968  0.1990 -1.1650  0.2100
  721MOL0     H97281   5.963   5.646   8.955  2.2723  2.3795  0.1746
  721MOL0     H97282   6.039   5.349   8.912  0.1679  1.4731 -2.6820
  721MOL0     H97283   5.984   5.412   9.061 -3.1710 -4.3798  0.7599
  721MOL0     H97284   5.834   5.420   8.790 -0.8543 -2.4187 -0.8913
  721MOL0     H97285   5.754   5.481   8.934  0.8876  0.1785  0.5739
  721MOL0     H97286   5.694   5.331   9.130 -1.3971 -0.7543 -0.6299
  721MOL0     H97287   5.612   4.951   9.174  3.8940 -0.9158  2.8939
  721MOL0     H97288   5.700   5.056   9.261  1.3347 -0.9887 -0.9517
  721MOL0     H97289   5.501   5.226   9.254  0.9931 -1.0893  1.3899
  721MOL0     H97290   5.450   5.057   9.275  1.8885 -1.9651 -0.5039
  721MOL0     H97291   5.409   5.058   9.021 -0.9732 -0.7623  1.2406
  721MOL0     H97292   5.454   5.220   9.014  0.1463 -0.0455 -0.2703
  721MOL0     H97293   5.210   5.103   9.181 -0.0515 -0.0116  0.5938
  721MOL0     H97294   5.203   5.196   9.033 -1.1064  0.0466  1.0330
  721MOL0     H97295   5.008   5.196   9.181 -0.2325  1.1541 -0.8251
  721MOL0     H97296   4.793   5.151   9.245 -2.0357 -0.0751  0.1475
  721MOL0     H97297   4.745   5.201   9.397  0.3120  2.1747  1.3395
  721MOL0     H97298   4.705   5.308   9.262 -0.7981  2.0960  2.4942
  721MOL0     H97299   4.858   5.768   9.714  1.3865 -1.4305 -1.2568
  721MOL0     H97300   4.785   5.821   9.939  1.1271 -1.7301  0.1917
  721MOL0     H97301   4.631   5.770  10.265 -2.9821 -1.8082 -0.8088
  721MOL0     H97302   4.756   5.835  10.150 -0.5014  1.2212 -0.7250
  721MOL0     H97303   4.599   6.005  10.217 -0.3680  0.3606  0.7458
  721MOL0     H97304   4.565   5.961  10.043 -1.8227 -0.8406  0.3349
  721MOL0     H97305   4.409   5.906  10.308  1.6432 -2.5702  0.4249
  721MOL0     H97306   4.394   5.781  10.190  2.0094  0.3420  0.4389
  721MOL0     H97307   4.321   6.064  10.114  0.3727  0.1154  0.1264
  721MOL0     H97308   4.300   5.922  10.016  0.3642  1.3700 -0.7879
  721MOL0     H97309   4.153   5.995  10.273  2.5717  2.4204  0.1874
  721MOL0     H97310   4.145   5.831  10.191  0.5310 -0.5505 -3.5230
  721MOL0     H97311   4.056   6.108  10.090 -3.6969 -0.9169  0.5642
  721MOL0     H97312   4.084   5.976   9.971 -0.3249  2.4688 -0.4081
  721MOL0     H97313   3.874   5.993  10.197 -1.4967  0.1990 -1.4125
  721MOL0     H97314   3.925   5.844  10.122 -2.1748 -0.7324 -1.6731
  721MOL0     H97315   3.828   6.089   9.972 -1.1970 -0.8291 -2.1347
  721MOL0     H97316   3.725   5.966  10.025 -0.5965  2.5077 -0.2287
  721MOL0     H97317   4.518   5.484   9.942  0.6603  0.0961  0.0548
  721MOL0     H97318   4.618   5.417   9.729 -1.0107  1.4926 -1.4999
  721MOL0     H97319   5.068   5.550   9.524 -2.2710  1.2632  0.4410
  721MOL0     H97320   5.261   5.479   9.394 -0.4282  1.3214 -0.7125
  721MOL0     H97321   6.802   5.809   8.736  0.0309 -0.5784  1.0790
  721MOL0     H97322   6.988   5.900   8.845 -1.0539 -1.0029 -1.3402
  721MOL0     H97323   7.111   6.016   9.490 -0.0361  2.6205  1.4672
  721MOL0     H97324   7.318   6.061   9.584 -4.0140 -0.7788  0.4335
  721MOL0     H97325   7.530   6.206   9.558  0.1638 -0.1817 -0.6467
  721MOL0     H97326   7.539   6.045   9.624 -0.9224  3.0773  2.8523
  721MOL0     H97327   7.792   6.180   9.479  0.7806 -0.7614  0.5294
  721MOL0     H97328   7.778   6.028   9.549 -1.6539 -0.4522 -0.9526
  721MOL0     H97329   7.889   6.177   9.715 -0.0555  0.2941 -1.1582
  721MOL0     H97330   7.717   6.168   9.772  0.6437  0.1013  0.3400
  721MOL0     H97331   7.853   6.393   9.605  0.3856 -0.7947 -0.7093
  721MOL0     H97332   7.830   6.401   9.777  0.1887  0.7778 -0.7268
  721MOL0     H97333   7.421   6.481   9.671 -0.8418 -1.2859 -0.8809
  721MOL0     H97334   7.496   5.999   9.186  1.7940 -2.0762  1.6499
  721MOL0     H97335   7.280   5.967   9.099  0.3175  0.4257  0.1704
  722MOL0     O97336   9.214  10.602   0.397 -0.4843 -0.1914 -0.6435
  722MOL0     C97337   9.294  10.643   0.478  0.0857 -0.1034  0.4498
  722MOL0     O97338   9.267  10.697   0.606  0.0993 -0.0851 -0.1062
  722MOL0     C97339   9.144  10.671   0.652 -0.1525 -0.2955  0.1770
  722MOL0     C97340   9.124  10.572   0.746  1.1566 -0.0869 -0.5357
  722MOL0     C97341   8.994  10.562   0.795 -0.8237  0.7811 -1.1089
  722MOL0     C97342   8.889  10.645   0.758  0.0805 -0.3995  0.3205
  722MOL0     O97343   8.768  10.621   0.827  0.2816 -0.3501 -0.9261
  722MOL0     C97344   8.695  10.736   0.869  0.2467  0.2595  0.1829
  722MOL0     C97345   8.557  10.736   0.810 -0.7205  0.1510  0.8023
  722MOL0     C97346   8.552  10.812   0.677  0.2709 -0.3580 -0.1841
  722MOL0     C97347   8.404  10.803   0.616 -0.3323  0.7461 -0.8505
  722MOL0     C97348   8.388  10.924   0.529  0.1582  0.1095  0.0968
  722MOL0     C97349   8.469  10.916   0.405  0.2957 -0.4147 -0.1893
  722MOL0     C97350   8.435  10.792   0.318  0.1535 -0.5370 -0.7740
  722MOL0     C97351   8.506  10.795   0.191 -0.7850  0.5885  0.1401
  722MOL0     N97352   8.651  10.831   0.198 -0.5570  0.1783 -0.2213
  722MOL0     C97353   8.761  10.744   0.207  0.2588 -0.1888 -0.4717
  722MOL0     C97354   8.871  10.823   0.180  0.9804 -0.2465  0.0780
  722MOL0     C97355   9.020  10.801   0.161 -0.8315  0.0879 -0.5004
  722MOL0     C97356   9.055  10.655   0.134 -0.8576  0.6875  0.1458
  722MOL0     C97357   9.011  10.612  -0.009 -0.1742  0.5451  0.0134
  722MOL0     C97358   9.055  10.466  -0.041  0.3816 -0.7136 -0.3722
  722MOL0     O97359   8.988  10.371   0.040 -0.2490  0.0315  0.0831
  722MOL0     C97360   8.891  10.319  -0.037 -0.3024  0.3111  1.2724
  722MOL0     C97361   8.915  10.214  -0.140  0.5392  0.0570  0.2196
  722MOL0     C97362   8.810  10.172  -0.217  0.0642  0.2208  0.1315
  722MOL0     C97363   8.839  10.063  -0.312  0.3224  0.0400  0.1816
  722MOL0     C97364   8.675  10.215  -0.190 -0.1219 -0.6012  0.7782
  722MOL0     C97365   8.554  10.161  -0.256  0.1446  0.5707 -0.0091
  722MOL0     O97366   8.441  10.225  -0.228  0.0200 -0.4164  0.1943
  722MOL0     C97367   8.328  10.167  -0.275 -0.6996 -0.0695 -0.7237
  722MOL0     C97368   8.261  10.205  -0.395 -0.0979 -0.8211 -0.5181
  722MOL0     C97369   8.137  10.141  -0.418  0.5347  0.4142 -0.9501
  722MOL0     C97370   8.078  10.041  -0.334 -1.1721 -0.6236 -0.6045
  722MOL0     O97371   7.961   9.978  -0.352  0.4621  0.1116  0.0726
  722MOL0     C97372   7.920   9.932  -0.482 -0.3390  0.1386  0.7902
  722MOL0     C97373   7.773   9.888  -0.477  0.0944 -0.1675 -0.4855
  722MOL0     C97374   7.723   9.824  -0.607  0.2080 -0.2070 -0.1075
  722MOL0     C97375   7.570   9.822  -0.599 -0.0760 -0.6910  0.3103
  722MOL0     C97376   7.514   9.744  -0.725  1.3686  0.0316  0.4453
  722MOL0     C97377   7.517   9.829  -0.855  0.6536 -0.4049 -0.4832
  722MOL0     C97378   7.372   9.876  -0.886 -0.1852 -0.2873 -0.1815
  722MOL0     C97379   7.322   9.972  -0.773  0.2818 -0.7428  0.0218
  722MOL0    Cl97380   7.418  10.128  -0.766  0.0861 -0.2800  0.1519
  722MOL0     C97381   8.148  10.013  -0.218  0.2455  0.1588 -0.4333
  722MOL0     C97382   8.269  10.075  -0.187 -0.4088  0.4145  0.1364
  722MOL0     O97383   8.567  10.064  -0.324 -0.7308 -0.0615 -0.2149
  722MOL0     C97384   8.658  10.324  -0.109  0.1724  0.7587 -0.5595
  722MOL0     C97385   8.766  10.373  -0.026  0.3204 -0.9503  0.9121
  722MOL0     N97386   8.823  10.952   0.159  0.3051 -0.5156 -0.8085
  722MOL0     N97387   8.693  10.958   0.171  0.0039  1.1684 -0.0357
  722MOL0     C97388   8.910  10.745   0.664  0.6417 -0.5352  0.2740
  722MOL0     C97389   9.036  10.750   0.608 -0.3064 -0.1577 -0.7009
  722MOL0     C97390   9.433  10.649   0.425  0.1248 -0.3775  0.3707
  722MOL0     C97391   9.476  10.582   0.310 -0.0381 -0.0381  0.1511
  722MOL0     C97392   9.603  10.585   0.263 -0.6529  0.0178  0.0383
  722MOL0     C97393   9.697  10.656   0.337  0.1949 -0.5820 -0.6798
  722MOL0     O97394   9.826  10.652   0.289 -0.1817 -0.5703 -0.3058
  722MOL0     C97395   9.910  10.770   0.302  0.3685 -0.4889 -0.0398
  722MOL0     C97396   9.873  10.868   0.186  0.4354 -0.7664 -0.9515
  722MOL0     C97397   9.903  10.824   0.048 -0.5227  0.1719 -0.1010
  722MOL0     C97398   9.871  10.930  -0.060 -0.0531  0.6157 -0.1913
  722MOL0     C97399   9.955  10.915  -0.182  0.1642 -0.2073  0.3267
  722MOL0     C97400  10.018  10.899  -0.283  0.3777  0.0741 -0.5691
  722MOL0     C97401   9.665  10.714   0.463  0.2639 -0.1995  0.0534
  722MOL0     C97402   9.534  10.713   0.506 -0.1372 -0.4512 -0.3990
  722MOL0     H97403   9.204  10.505   0.778  0.3833 -1.2343 -0.9413
  722MOL0     H97404   8.976  10.491   0.875 -0.3030  0.0572 -1.6233
  722MOL0     H97405   8.689  10.723   0.978 -1.2314  4.5438  0.8077
  722MOL0     H97406   8.740  10.832   0.842  0.9611 -0.7870 -2.6553
  722MOL0     H97407   8.511  10.637   0.798 -1.9333  0.7853  0.0048
  722MOL0     H97408   8.490  10.775   0.887  0.0949  0.6013  1.3021
  722MOL0     H97409   8.595  10.909   0.705  1.4950 -1.1579  0.8363
  722MOL0     H97410   8.609  10.766   0.596  1.7036 -1.1848  1.2313
  722MOL0     H97411   8.376  10.704   0.581  0.4403 -0.0373  0.6321
  722MOL0     H97412   8.333  10.816   0.698  0.6701 -0.5623  0.2642
  722MOL0     H97413   8.282  10.936   0.508  0.1071  0.2171  0.4173
  722MOL0     H97414   8.413  11.017   0.581  1.4464 -1.4422  2.4428
  722MOL0     H97415   8.452  11.010   0.352  0.8775 -0.2478 -0.0820
  722MOL0     H97416   8.575  10.912   0.433  0.1044 -0.6327  0.5199
  722MOL0     H97417   8.460  10.699   0.371  0.4179  0.7755  1.5393
  722MOL0     H97418   8.329  10.801   0.297  0.4386 -0.8065 -2.5067
  722MOL0     H97419   8.460  10.868   0.124  2.0598 -0.8159 -3.7244
  722MOL0     H97420   8.495  10.701   0.136  0.6585 -0.0274  0.8638
  722MOL0     H97421   8.751  10.642   0.242  1.2334 -0.1046  0.1040
  722MOL0     H97422   9.067  10.873   0.093 -0.2077 -0.0531 -0.2230
  722MOL0     H97423   9.062  10.825   0.259  0.5152 -2.7522 -0.2829
  722MOL0     H97424   8.998  10.594   0.205  0.8749 -2.3319 -0.8773
  722MOL0     H97425   9.162  10.640   0.149 -0.5649  1.7726 -0.7157
  722MOL0     H97426   9.059  10.682  -0.079  1.5125 -0.8250 -0.2840
  722MOL0     H97427   8.903  10.623  -0.017 -0.2223 -0.1398 -0.3351
  722MOL0     H97428   9.160  10.469  -0.011 -0.0150  0.8742  1.0126
  722MOL0     H97429   9.046  10.450  -0.149 -0.8452  0.6314 -0.4985
  722MOL0     H97430   9.011  10.164  -0.148  0.2661 -0.4705  0.1840
  722MOL0     H97431   8.821  10.090  -0.416 -0.6490 -2.2343 -0.2955
  722MOL0     H97432   8.939  10.021  -0.303 -0.1981 -1.3566 -0.2731
  722MOL0     H97433   8.784   9.970  -0.293  3.3931 -1.5117  2.3565
  722MOL0     H97434   8.311  10.269  -0.466  0.1228 -1.7545 -1.2181
  722MOL0     H97435   8.082  10.177  -0.505  0.9627  2.1413 -0.5322
  722MOL0     H97436   7.927  10.011  -0.556 -1.6808  0.0182  0.5156
  722MOL0     H97437   7.988   9.849  -0.503 -0.1494 -0.1033  2.2521
  722MOL0     H97438   7.769   9.816  -0.395  0.2380 -2.6014 -2.5161
  722MOL0     H97439   7.703   9.968  -0.449 -0.5087 -0.9755  0.3776
  722MOL0     H97440   7.760   9.721  -0.616 -1.1541 -0.8631  1.1810
  722MOL0     H97441   7.767   9.874  -0.693  3.3441 -3.1889 -0.4444
  722MOL0     H97442   7.534   9.761  -0.516 -0.7758 -2.9176 -1.5285
  722MOL0     H97443   7.525   9.922  -0.589 -0.8750 -0.7791 -1.9033
  722MOL0     H97444   7.409   9.715  -0.711  0.9521 -0.0076 -2.2025
  722MOL0     H97445   7.574   9.656  -0.750  0.9110 -0.2080  0.1502
  722MOL0     H97446   7.577   9.918  -0.834  1.4981 -0.3105 -2.9144
  722MOL0     H97447   7.549   9.781  -0.948 -0.8648  0.0124 -1.2703
  722MOL0     H97448   7.312   9.785  -0.889  1.6754 -1.7233  2.1589
  722MOL0     H97449   7.368   9.932  -0.980  0.2576  3.7245  1.9486
  722MOL0     H97450   7.312   9.919  -0.678 -0.6742  1.5953  1.2989
  722MOL0     H97451   7.221  10.013  -0.778  0.7969  2.5502  6.1696
  722MOL0     H97452   8.126   9.946  -0.135  3.3627  0.8052  1.1049
  722MOL0     H97453   8.321  10.051  -0.095 -0.8906 -1.6308 -0.0878
  722MOL0     H97454   8.556  10.359  -0.096  0.3255  2.2512 -2.8194
  722MOL0     H97455   8.756  10.450   0.050 -2.5063  0.8280 -1.1006
  722MOL0     H97456   8.846  10.827   0.632 -0.6791 -0.8923  1.8521
  722MOL0     H97457   9.051  10.826   0.533  0.7302 -0.5226 -0.8719
  722MOL0     H97458   9.411  10.523   0.247  0.3941  0.1343 -0.4735
  722MOL0     H97459   9.636  10.529   0.176  0.4219 -2.1192  1.7238
  722MOL0     H97460   9.904  10.815   0.401  2.1290 -1.3561  0.5101
  722MOL0     H97461  10.012  10.733   0.288  0.4931  0.2048 -1.1116
  722MOL0     H97462   9.928  10.962   0.196 -1.1355  0.2319 -1.3616
  722MOL0     H97463   9.767  10.896   0.186  0.7752  0.6131 -0.8985
  722MOL0     H97464   9.845  10.734   0.024 -0.7766 -0.1360  1.5594
  722MOL0     H97465  10.008  10.796   0.033 -0.6796  0.8023 -3.0142
  722MOL0     H97466   9.884  11.030  -0.020 -1.2220 -0.0170  1.9190
  722MOL0     H97467   9.766  10.928  -0.090 -0.0055 -2.6402 -0.5489
  722MOL0     H97468  10.066  10.896  -0.379 -0.2896 -1.5970 -0.8713
  722MOL0     H97469   9.741  10.769   0.517  0.5081  0.7919 -1.2385
  722MOL0     H97470   9.515  10.758   0.603  1.2038 -0.2136 -0.2246
  723MOL0     O97471   6.309   4.446   9.540 -0.4305 -0.5530  0.4401
  723MOL0     C97472   6.292   4.546   9.606  1.4578  0.2600 -0.1446
  723MOL0     O97473   6.389   4.633   9.659  0.9456  0.0385 -0.0524
  723MOL0     C97474   6.521   4.583   9.669  0.4600 -0.1306  0.8707
  723MOL0     C97475   6.569   4.468   9.730  0.1234 -0.7671  1.3081
  723MOL0     C97476   6.704   4.446   9.743 -0.0976  0.0190  0.4692
  723MOL0     C97477   6.799   4.540   9.693 -0.1836  0.2509  0.5817
  723MOL0     O97478   6.934   4.513   9.702 -0.1828  0.0135 -0.2263
  723MOL0     C97479   7.043   4.599   9.649  0.2309  0.1794 -1.1097
  723MOL0     C97480   7.177   4.540   9.687 -1.4914 -0.2089 -0.2302
  723MOL0     C97481   7.210   4.410   9.601  0.7061 -0.7034  0.0420
  723MOL0     C97482   7.360   4.377   9.569 -0.7576 -0.0508 -0.4525
  723MOL0     C97483   7.444   4.354   9.703  0.1900 -0.0362  0.5437
  723MOL0     C97484   7.579   4.287   9.685 -0.4675  0.3696 -0.1775
  723MOL0     C97485   7.654   4.234   9.813 -0.4366  0.0000  0.1739
  723MOL0     C97486   7.706   4.352   9.899  0.1977 -0.1959  0.0230
  723MOL0     N97487   7.607   4.434   9.970  0.2269  0.4289 -0.1034
  723MOL0     C97488   7.509   4.369  10.046 -0.0302 -0.5330 -0.4432
  723MOL0     C97489   7.417   4.459  10.075  0.0628 -0.5521  0.2657
  723MOL0     C97490   7.288   4.437  10.141 -0.6780  0.2099  0.4226
  723MOL0     C97491   7.299   4.342  10.262  0.2679 -0.6424 -0.0566
  723MOL0     C97492   7.157   4.339  10.326  0.2214 -0.6373 -0.1938
  723MOL0     C97493   7.130   4.213  10.416  0.1421 -0.4769 -0.4548
  723MOL0     O97494   7.003   4.242  10.477  0.1072 -0.3001  0.2855
  723MOL0     C97495   6.941   4.147  10.548  0.1558 -0.3279 -0.3740
  723MOL0     C97496   6.967   4.000  10.545  0.3429 -0.0931 -0.5113
  723MOL0     C97497   6.888   3.902  10.606 -0.0143  0.4247 -1.1692
  723MOL0     C97498   6.938   3.760  10.589  0.1374  0.2621 -0.0360
  723MOL0     C97499   6.781   3.952  10.684 -0.0924  0.3858 -0.4368
  723MOL0     C97500   6.690   3.858  10.758 -0.5399 -0.0110  0.4041
  723MOL0     O97501   6.578   3.917  10.811  0.9182  0.4279 -0.5474
  723MOL0     C97502   6.468   3.841  10.832  0.8376 -0.5051 -0.4579
  723MOL0     C97503   6.391   3.860  10.946  0.1512  0.0665  0.5305
  723MOL0     C97504   6.276   3.784  10.978 -1.0056  0.0338  0.1167
  723MOL0     C97505   6.243   3.678  10.892 -0.1508  0.4560  0.2082
  723MOL0     O97506   6.147   3.584  10.905 -0.2296 -0.4344 -0.0769
  723MOL0     C97507   6.061   3.593  11.024 -0.1944  0.3735 -0.3364
  723MOL0     C97508   5.920   3.577  10.984 -0.9866  1.0440  0.7056
  723MOL0     C97509   5.879   3.433  10.944 -0.6660  0.2431  0.0749
  723MOL0     C97510   5.718   3.422  10.926 -0.2739 -0.4423 -0.3145
  723MOL0     C97511   5.668   3.515  10.815  0.0153 -0.1793 -0.2868
  723MOL0     C97512   5.531   3.463  10.757  0.3809 -0.8042 -0.2385
  723MOL0     C97513   5.484   3.534  10.625 -0.0134  0.0976 -0.2103
  723MOL0     C97514   5.337   3.487  10.611  0.2175  0.1877 -0.0692
  723MOL0    Cl97515   5.224   3.576  10.703 -0.4285 -0.2487  0.0981
  723MOL0     C97516   6.303   3.677  10.767  0.1580 -0.0352  0.2993
  723MOL0     C97517   6.413   3.762  10.736 -0.1447 -0.7031  0.1132
  723MOL0     O97518   6.710   3.733  10.745  0.2952 -0.5753  0.1062
  723MOL0     C97519   6.758   4.087  10.695  0.0008  0.6230 -0.0214
  723MOL0     C97520   6.837   4.183  10.626  0.2313 -0.3976 -0.6325
  723MOL0     N97521   7.470   4.580  10.034 -0.1688 -0.8539 -0.2986
  723MOL0     N97522   7.576   4.562   9.965 -0.0550 -0.7978 -0.6385
  723MOL0     C97523   6.750   4.655   9.633 -0.1617  0.1518  0.0972
  723MOL0     C97524   6.618   4.680   9.635 -0.4609  0.2304 -0.8216
  723MOL0     C97525   6.146   4.589   9.624 -0.0630  0.2124  0.3401
  723MOL0     C97526   6.111   4.730   9.631 -0.0131 -0.2534 -0.0779
  723MOL0     C97527   5.983   4.759   9.666 -0.9000 -0.3057  0.4179
  723MOL0     C97528   5.897   4.662   9.706 -0.1455 -0.1767 -0.4785
  723MOL0     O97529   5.780   4.696   9.768  0.4665  0.2552 -0.1410
  723MOL0     C97530   5.799   4.721   9.906  0.6486  0.6828  0.8573
  723MOL0     C97531   5.682   4.692   9.987  0.6590  0.5245  0.7764
  723MOL0     C97532   5.635   4.546   9.987 -0.0574  0.4644  0.2066
  723MOL0     C97533   5.742   4.433  10.018 -0.2890  0.1918  0.5527
  723MOL0     C97534   5.688   4.307   9.976  0.2623  0.4305  0.1574
  723MOL0     C97535   5.630   4.208   9.939 -0.1554 -0.0442  0.3802
  723MOL0     C97536   5.926   4.530   9.700  0.9124 -0.3321 -0.0216
  723MOL0     C97537   6.052   4.498   9.643  0.2656  0.6900  0.5792
  723MOL0     H97538   6.495   4.394   9.756  0.2251 -1.8114 -1.1153
  723MOL0     H97539   6.735   4.347   9.774  0.5092 -2.0421 -5.4230
  723MOL0     H97540   7.036   4.604   9.540  0.7039 -0.8001 -1.1974
  723MOL0     H97541   7.020   4.700   9.686 -1.9314  0.0375 -1.9515
  723MOL0     H97542   7.255   4.615   9.666  0.7340 -1.9826  1.1821
  723MOL0     H97543   7.172   4.495   9.787 -0.1968 -2.8017 -1.2405
  723MOL0     H97544   7.169   4.320   9.650  0.2496 -1.1171 -1.0685
  723MOL0     H97545   7.160   4.414   9.504  3.6580  0.7666 -1.5333
  723MOL0     H97546   7.363   4.297   9.494 -0.1500 -0.5283  0.0729
  723MOL0     H97547   7.406   4.456   9.510 -1.8951 -0.2128 -1.6044
  723MOL0     H97548   7.450   4.451   9.753  0.1951 -0.0775  0.6232
  723MOL0     H97549   7.385   4.282   9.760 -0.1684 -2.4020 -2.5486
  723MOL0     H97550   7.567   4.195   9.626  2.3352 -1.4427  1.8074
  723MOL0     H97551   7.644   4.358   9.633  2.3881 -1.0353  1.2159
  723MOL0     H97552   7.587   4.162   9.861 -1.7093  1.4015  0.5846
  723MOL0     H97553   7.741   4.173   9.788 -0.8981 -0.0478 -1.4222
  723MOL0     H97554   7.752   4.426   9.834 -1.9067  1.0223 -0.1472
  723MOL0     H97555   7.769   4.318   9.982  0.3493  1.2816  0.5395
  723MOL0     H97556   7.494   4.263  10.061 -0.2316 -0.2223  1.8673
  723MOL0     H97557   7.260   4.534  10.183  1.2818  0.4384  1.3400
  723MOL0     H97558   7.228   4.411  10.054 -0.7305  1.5934  0.0224
  723MOL0     H97559   7.374   4.384  10.330 -0.5236  0.2446  0.2922
  723MOL0     H97560   7.331   4.240  10.240  1.2270 -0.1540 -1.0060
  723MOL0     H97561   7.087   4.337  10.242 -1.1874 -1.7059  0.9612
  723MOL0     H97562   7.143   4.435  10.377 -1.5378 -1.0201  0.1347
  723MOL0     H97563   7.203   4.210  10.497 -3.1424  3.1585  3.0946
  723MOL0     H97564   7.136   4.118  10.363 -1.3455 -0.8846  0.0743
  723MOL0     H97565   7.052   3.974  10.482  0.8601  3.0238 -1.2573
  723MOL0     H97566   6.966   3.721  10.687 -0.1517  1.4556  0.5338
  723MOL0     H97567   6.858   3.703  10.539  1.5634  0.6967 -3.0537
  723MOL0     H97568   7.022   3.755  10.520 -0.6869  0.4518 -1.0886
  723MOL0     H97569   6.419   3.935  11.019 -0.3061 -1.0736  1.9326
  723MOL0     H97570   6.224   3.796  11.072 -1.0583  0.1253  0.0757
  723MOL0     H97571   6.101   3.527  11.102  2.8099  2.5088  0.1122
  723MOL0     H97572   6.065   3.688  11.079  0.9172 -0.8170  1.7859
  723MOL0     H97573   5.859   3.604  11.070  1.3904 -0.4815  3.0306
  723MOL0     H97574   5.896   3.654  10.911  3.5067 -0.4296 -2.7749
  723MOL0     H97575   5.909   3.365  11.024 -2.9446 -0.6045  0.3053
  723MOL0     H97576   5.925   3.399  10.851 -1.9160 -0.5383 -0.2812
  723MOL0     H97577   5.706   3.316  10.901  3.2514 -0.2691 -3.7482
  723MOL0     H97578   5.663   3.439  11.019 -2.8808  1.3824 -2.0773
  723MOL0     H97579   5.729   3.515  10.724 -2.9965  1.4403 -2.4636
  723MOL0     H97580   5.663   3.615  10.861  3.6179  0.4460 -0.9271
  723MOL0     H97581   5.549   3.359  10.728 -0.4314 -1.3070  0.9671
  723MOL0     H97582   5.453   3.472  10.834 -0.5371 -1.3694 -1.0853
  723MOL0     H97583   5.547   3.492  10.546  0.2045  4.3964 -2.6038
  723MOL0     H97584   5.469   3.642  10.626 -2.7760 -0.2050  1.4224
  723MOL0     H97585   5.336   3.384  10.648 -0.5406  0.6437  1.2767
  723MOL0     H97586   5.316   3.499  10.504  1.3784  1.5967 -0.1766
  723MOL0     H97587   6.257   3.601  10.704 -2.7737  2.5429 -0.9371
  723MOL0     H97588   6.464   3.747  10.642  0.8853 -2.0545  0.8475
  723MOL0     H97589   6.669   4.129  10.740 -0.0078  2.6491 -1.7542
  723MOL0     H97590   6.797   4.284  10.617 -0.5774 -0.7184 -0.7843
  723MOL0     H97591   6.813   4.730   9.586 -3.2926  2.2298 -1.0775
  723MOL0     H97592   6.574   4.778   9.619  1.7835  1.6309  0.8033
  723MOL0     H97593   6.182   4.807   9.602  0.0880 -0.4371 -0.3247
  723MOL0     H97594   5.963   4.866   9.667  1.2251  0.1561 -0.3984
  723MOL0     H97595   5.886   4.662   9.937 -0.2893 -1.2816 -0.0618
  723MOL0     H97596   5.827   4.825   9.920  1.1834  0.6506  0.1278
  723MOL0     H97597   5.595   4.747   9.950  1.0710  0.7157  0.0680
  723MOL0     H97598   5.713   4.717  10.089  0.6016 -3.7005  2.0277
  723MOL0     H97599   5.575   4.525   9.897 -2.4258  1.7343  1.3873
  723MOL0     H97600   5.569   4.535  10.074  0.9376 -0.8193  0.8394
  723MOL0     H97601   5.765   4.434  10.125 -2.5439  0.8070  1.0922
  723MOL0     H97602   5.834   4.463   9.968  0.2064 -0.3869  1.0884
  723MOL0     H97603   5.591   4.120   9.892  0.9861 -0.6412  0.5028
  723MOL0     H97604   5.850   4.456   9.725  0.3712  0.0804 -0.4201
  723MOL0     H97605   6.079   4.393   9.632 -0.8276  0.5653 -1.5456
  724MOL0     O97606   5.736   3.657   2.270 -0.1896 -0.3306 -0.7852
  724MOL0     C97607   5.773   3.773   2.283 -0.9420  0.2020 -0.0015
  724MOL0     O97608   5.705   3.871   2.351  0.1296 -0.1114  0.6670
  724MOL0     C97609   5.588   3.864   2.421  1.2661  0.3705 -0.3685
  724MOL0     C97610   5.571   3.960   2.523  0.5024 -0.1337  0.4418
  724MOL0     C97611   5.448   3.960   2.604 -0.1199 -0.1679 -0.0377
  724MOL0     C97612   5.347   3.878   2.569  0.4760 -0.1291 -0.6716
  724MOL0     O97613   5.229   3.886   2.641 -0.3663  0.5352  0.1604
  724MOL0     C97614   5.105   3.896   2.560  0.2595  0.3072 -0.4647
  724MOL0     C97615   5.011   4.003   2.612  1.0122  0.0451  0.3539
  724MOL0     C97616   4.854   3.990   2.585 -0.1257 -0.3500 -0.6161
  724MOL0     C97617   4.804   4.097   2.475  0.3704 -0.6178  0.3581
  724MOL0     C97618   4.650   4.109   2.480  1.3316  0.3912  0.1948
  724MOL0     C97619   4.599   4.160   2.339 -0.5099  0.5045  0.6621
  724MOL0     C97620   4.444   4.138   2.310  0.6455  0.2587  0.7186
  724MOL0     C97621   4.412   4.219   2.183  1.0927 -1.4073  0.6928
  724MOL0     N97622   4.289   4.189   2.129 -0.0336  0.2403 -0.5711
  724MOL0     C97623   4.259   4.059   2.104  0.1621  0.3934 -0.4563
  724MOL0     C97624   4.136   4.062   2.053 -0.2499 -0.4767  0.6968
  724MOL0     C97625   4.054   3.953   1.992  0.4154 -0.3399  0.2397
  724MOL0     C97626   3.985   4.011   1.859  0.1442 -0.5951 -0.5337
  724MOL0     C97627   3.926   3.898   1.785 -0.1331  0.3386  0.3921
  724MOL0     C97628   3.791   3.948   1.726  0.1840  0.5841  0.2225
  724MOL0     O97629   3.706   3.980   1.844  0.1535  0.1533 -1.0488
  724MOL0     C97630   3.607   3.891   1.875 -0.1068  1.1970  0.3379
  724MOL0     C97631   3.564   3.904   2.007  0.6518  0.5658 -0.2097
  724MOL0     C97632   3.447   3.844   2.056  0.3277 -0.3438  0.5295
  724MOL0     C97633   3.408   3.874   2.197  0.7508  0.9986 -0.2021
  724MOL0     C97634   3.374   3.750   1.978 -0.6031  0.9062  1.1868
  724MOL0     C97635   3.255   3.683   2.022 -0.1840  0.6089 -0.7296
  724MOL0     O97636   3.208   3.698   2.145 -0.1110 -0.3147 -0.2015
  724MOL0     C97637   3.126   3.599   2.188  0.0047  0.6690 -0.6398
  724MOL0     C97638   2.995   3.582   2.148  0.3193  0.6282 -0.1302
  724MOL0     C97639   2.915   3.479   2.213 -0.4408  0.1554  0.2249
  724MOL0     C97640   2.964   3.395   2.304 -0.1663 -0.1919 -0.2260
  724MOL0     O97641   2.886   3.300   2.364 -0.7184 -0.0531  0.4555
  724MOL0     C97642   2.901   3.166   2.310 -0.6743  0.5461  0.2164
  724MOL0     C97643   2.831   3.060   2.384 -0.5245  0.1813  0.9664
  724MOL0     C97644   2.680   3.066   2.372  0.2289 -0.5431  0.0014
  724MOL0     C97645   2.633   2.916   2.379  1.1347 -0.2586  0.0582
  724MOL0     C97646   2.476   2.902   2.397  0.5224 -0.5622 -0.2104
  724MOL0     C97647   2.405   2.919   2.265 -0.0027 -0.1393 -0.2740
  724MOL0     C97648   2.274   2.846   2.258 -0.0040 -0.1499 -0.3027
  724MOL0     C97649   2.280   2.700   2.208 -0.0531 -0.3879  0.0619
  724MOL0    Cl97650   2.338   2.705   2.038 -0.3318 -0.8792  0.1468
  724MOL0     C97651   3.097   3.402   2.332  1.0389  0.2428 -0.5707
  724MOL0     C97652   3.177   3.514   2.286 -0.9499  0.8456  0.1460
  724MOL0     O97653   3.202   3.609   1.943  0.7156 -0.9769 -0.1666
  724MOL0     C97654   3.428   3.722   1.848 -0.2488  0.2116  0.3176
  724MOL0     C97655   3.541   3.792   1.796  0.4626 -0.3087  0.0862
  724MOL0     N97656   4.092   4.193   2.061 -0.5258 -0.3177 -0.7082
  724MOL0     N97657   4.185   4.270   2.106 -0.0395  0.2506 -0.5539
  724MOL0     C97658   5.369   3.785   2.471 -0.3477  0.4543 -0.0975
  724MOL0     C97659   5.485   3.778   2.400  0.6521 -0.5393 -0.7525
  724MOL0     C97660   5.910   3.815   2.228  0.7813 -0.3212 -0.2240
  724MOL0     C97661   5.993   3.728   2.163 -0.2277 -0.0055 -0.0546
  724MOL0     C97662   6.125   3.758   2.137 -0.5470 -0.0553 -0.0865
  724MOL0     C97663   6.176   3.890   2.163 -0.7714 -0.5302  0.2170
  724MOL0     O97664   6.308   3.910   2.135 -0.3765  0.7120 -0.3005
  724MOL0     C97665   6.381   4.035   2.163 -0.1342 -0.3632  0.4707
  724MOL0     C97666   6.529   4.026   2.117  0.6505  0.1371  0.4585
  724MOL0     C97667   6.626   4.124   2.193  0.3795  0.0868  0.1221
  724MOL0     C97668   6.619   4.269   2.130 -0.6122 -0.4098 -0.8451
  724MOL0     C97669   6.717   4.276   2.025  0.7130 -0.2778 -0.7796
  724MOL0     C97670   6.795   4.272   1.933  0.0425  0.8333  0.0299
  724MOL0     C97671   6.092   3.986   2.225  0.2818 -0.1312 -0.6850
  724MOL0     C97672   5.964   3.940   2.258  0.6198 -1.6640  0.2555
  724MOL0     H97673   5.647   4.033   2.549 -1.2832  2.9541 -2.2853
  724MOL0     H97674   5.424   4.034   2.680 -1.4533 -1.6207  1.0026
  724MOL0     H97675   5.139   3.925   2.460 -0.7339  2.1682 -0.3103
  724MOL0     H97676   5.049   3.803   2.548 -1.3686  1.2886 -0.6297
  724MOL0     H97677   5.009   3.998   2.722 -1.8733 -0.6250  0.3302
  724MOL0     H97678   5.052   4.099   2.579  1.7184  0.4780  2.3196
  724MOL0     H97679   4.838   3.890   2.543  2.2797 -0.9479 -0.2380
  724MOL0     H97680   4.799   4.003   2.678 -0.5132  2.5908 -1.1577
  724MOL0     H97681   4.851   4.193   2.496  0.5785  0.0642 -2.7568
  724MOL0     H97682   4.845   4.071   2.377 -0.0804 -1.7330  0.4455
  724MOL0     H97683   4.608   4.010   2.502  0.7066  1.2050  3.1431
  724MOL0     H97684   4.620   4.171   2.566  2.5409  0.1279  0.8223
  724MOL0     H97685   4.619   4.267   2.327  1.3660  0.5698  3.3478
  724MOL0     H97686   4.664   4.107   2.269  0.4915  1.3434  0.9184
  724MOL0     H97687   4.434   4.029   2.303  2.3049  0.1060  0.1836
  724MOL0     H97688   4.375   4.161   2.391  0.4395 -0.2265  0.6847
  724MOL0     H97689   4.500   4.209   2.118  1.1703  1.9276  0.1223
  724MOL0     H97690   4.400   4.324   2.211  2.8159 -0.4577 -1.7398
  724MOL0     H97691   4.318   3.968   2.111  1.0644  1.0609  0.9591
  724MOL0     H97692   4.104   3.860   1.964 -1.0908 -0.8936 -0.7088
  724MOL0     H97693   3.976   3.919   2.061  0.5773 -1.3256 -0.0582
  724MOL0     H97694   4.067   4.051   1.799 -0.5824  0.9947 -0.5115
  724MOL0     H97695   3.917   4.091   1.887 -0.8571 -1.7914  0.6157
  724MOL0     H97696   3.909   3.809   1.847  0.7993  2.0560  3.2944
  724MOL0     H97697   4.005   3.880   1.712 -1.2569 -0.8670 -0.5839
  724MOL0     H97698   3.748   3.867   1.667 -1.6117  0.9343  1.0078
  724MOL0     H97699   3.796   4.027   1.650 -2.1834 -0.9095 -1.6268
  724MOL0     H97700   3.611   3.973   2.077 -1.2115  1.0167  0.6519
  724MOL0     H97701   3.473   3.948   2.245 -0.6405  1.8247  0.4455
  724MOL0     H97702   3.303   3.902   2.210  0.1582 -0.9890 -0.3260
  724MOL0     H97703   3.418   3.784   2.259  1.3721  0.4591 -1.0659
  724MOL0     H97704   2.951   3.648   2.074 -0.1310  0.8179  0.3034
  724MOL0     H97705   2.812   3.469   2.183  0.2328  0.3785 -2.4203
  724MOL0     H97706   2.868   3.170   2.205 -1.6743  1.9151  0.5495
  724MOL0     H97707   3.007   3.140   2.311 -0.6337  0.7211  0.4620
  724MOL0     H97708   2.869   2.972   2.333 -1.4056  1.2537 -1.7609
  724MOL0     H97709   2.862   3.056   2.489  4.9862 -0.5861 -0.3952
  724MOL0     H97710   2.639   3.108   2.280 -1.3614 -1.5012  0.2414
  724MOL0     H97711   2.633   3.112   2.460  1.7337 -0.7926  0.9709
  724MOL0     H97712   2.662   2.859   2.291  0.2970 -1.1542  0.3454
  724MOL0     H97713   2.683   2.869   2.465  2.6958 -0.3948 -0.8900
  724MOL0     H97714   2.442   2.974   2.472 -4.5893 -1.2567 -1.4743
  724MOL0     H97715   2.467   2.798   2.429  1.3218 -0.7824 -0.6717
  724MOL0     H97716   2.386   3.026   2.251  1.2780  0.2576  0.7761
  724MOL0     H97717   2.470   2.879   2.187  1.6580  0.4222  0.7751
  724MOL0     H97718   2.191   2.902   2.215 -0.7278  0.5706  1.9069
  724MOL0     H97719   2.230   2.830   2.357  1.4066 -3.2681 -0.0583
  724MOL0     H97720   2.179   2.660   2.220  0.0021 -0.8324 -0.8654
  724MOL0     H97721   2.347   2.640   2.272  4.4891  0.9191 -2.9862
  724MOL0     H97722   3.140   3.340   2.410 -1.1384 -2.8242 -1.6672
  724MOL0     H97723   3.270   3.548   2.329 -0.4569  2.0807 -1.7789
  724MOL0     H97724   3.368   3.654   1.787 -1.9365 -0.0879  2.2071
  724MOL0     H97725   3.580   3.777   1.696  1.7984 -0.1647  0.5624
  724MOL0     H97726   5.287   3.720   2.442  1.0498 -0.9671 -0.9635
  724MOL0     H97727   5.497   3.707   2.319 -0.9466 -0.2571 -1.2737
  724MOL0     H97728   5.957   3.629   2.137  0.4241  0.1129 -1.5426
  724MOL0     H97729   6.183   3.681   2.088  1.0311  0.0860  1.4383
  724MOL0     H97730   6.327   4.105   2.099  0.8887 -0.9780 -1.1094
  724MOL0     H97731   6.371   4.057   2.270  0.5667  1.2237  0.2253
  724MOL0     H97732   6.517   4.044   2.010 -3.4464 -2.1270  0.3465
  724MOL0     H97733   6.567   3.925   2.133  0.7032 -0.2565 -1.8903
  724MOL0     H97734   6.731   4.096   2.179 -0.2333 -1.4114 -2.0756
  724MOL0     H97735   6.605   4.135   2.300 -2.7191 -1.5331 -0.2015
  724MOL0     H97736   6.656   4.338   2.205  1.6993 -3.0618  0.6432
  724MOL0     H97737   6.517   4.291   2.096 -1.4421 -0.6529  1.3668
  724MOL0     H97738   6.875   4.264   1.862  1.9419 -1.4944  2.2611
  724MOL0     H97739   6.126   4.086   2.250  0.0278 -0.1606 -0.2113
  724MOL0     H97740   5.917   4.015   2.321  3.0907 -1.2485  1.7375
  725MOL0     O97741   1.847   9.235   5.904 -0.1799  0.2852  0.1358
  725MOL0     C97742   1.840   9.339   5.844  0.2910 -0.5894  0.3869
  725MOL0     O97743   1.742   9.433   5.861 -0.2762  0.2076 -0.5479
  725MOL0     C97744   1.666   9.430   5.986 -0.7887 -0.6664  1.3400
  725MOL0     C97745   1.633   9.557   6.038 -0.7640  0.3061 -0.6181
  725MOL0     C97746   1.554   9.562   6.152 -0.8521  0.5527 -0.1184
  725MOL0     C97747   1.497   9.450   6.215  0.4823  0.0127 -0.7837
  725MOL0     O97748   1.406   9.481   6.317  0.6310  0.2054  0.0173
  725MOL0     C97749   1.373   9.372   6.407  0.0664  0.4082  0.6143
  725MOL0     C97750   1.323   9.433   6.535  0.1652  0.1026 -0.8573
  725MOL0     C97751   1.428   9.517   6.615 -0.4363 -0.0480  0.8181
  725MOL0     C97752   1.507   9.426   6.713  0.2218 -0.4469  0.1591
  725MOL0     C97753   1.578   9.504   6.828 -0.9833 -0.1667 -0.1399
  725MOL0     C97754   1.643   9.391   6.918  0.4022  0.3223  0.6579
  725MOL0     C97755   1.709   9.446   7.043 -0.4735 -0.6104  0.4593
  725MOL0     C97756   1.808   9.559   7.025  0.0283  0.4776 -0.0533
  725MOL0     N97757   1.860   9.607   7.159 -0.4042 -0.3546  0.1042
  725MOL0     C97758   1.983   9.567   7.219  1.2846  0.1958  0.1255
  725MOL0     C97759   2.016   9.663   7.307  0.5409  0.2492  0.6564
  725MOL0     C97760   2.137   9.664   7.400 -0.3481  0.0849  0.5747
  725MOL0     C97761   2.267   9.712   7.343  0.2082 -0.4371 -0.0131
  725MOL0     C97762   2.378   9.726   7.455  0.3278 -0.5156  0.1492
  725MOL0     C97763   2.512   9.741   7.398  0.4610 -0.3510  0.1696
  725MOL0     O97764   2.594   9.827   7.476  0.3868 -0.0696  0.0197
  725MOL0     C97765   2.730   9.821   7.458 -0.0598  0.3107  0.3260
  725MOL0     C97766   2.810   9.868   7.571  0.9658  0.1622  0.0589
  725MOL0     C97767   2.947   9.869   7.558 -0.7150  0.1674 -1.3027
  725MOL0     C97768   3.024   9.913   7.681 -0.3316 -0.0853 -0.3929
  725MOL0     C97769   3.009   9.817   7.441 -0.1762  0.5259 -0.5837
  725MOL0     C97770   3.160   9.816   7.425 -0.0240 -0.0393 -0.1418
  725MOL0     O97771   3.221   9.697   7.385 -0.7260  0.5130 -0.6742
  725MOL0     C97772   3.359   9.697   7.364  0.6513 -0.1463 -0.4489
  725MOL0     C97773   3.411   9.693   7.235  0.0800 -0.4114  0.3654
  725MOL0     C97774   3.547   9.682   7.210 -0.2111  0.8910  0.2870
  725MOL0     C97775   3.634   9.691   7.323  0.6865  0.8470 -0.7131
  725MOL0     O97776   3.772   9.704   7.307 -0.2115  0.2827 -0.3182
  725MOL0     C97777   3.852   9.753   7.419 -0.2806 -0.1809  0.3576
  725MOL0     C97778   3.995   9.789   7.365 -0.2882 -0.4202  0.5436
  725MOL0     C97779   4.007   9.932   7.311  0.1812 -0.7833 -0.3613
  725MOL0     C97780   3.894   9.970   7.201  0.2555 -0.8013 -0.4476
  725MOL0     C97781   3.917   9.914   7.060  0.2075 -0.4821  0.3141
  725MOL0     C97782   4.055   9.959   6.995 -0.1687  0.7317 -0.8271
  725MOL0     C97783   4.042  10.099   6.940 -0.4925  0.1646 -0.2032
  725MOL0     C97784   4.174  10.160   6.908  0.0186  0.5673 -0.5174
  725MOL0    Cl97785   4.268  10.070   6.786  0.2141 -0.0872 -0.7603
  725MOL0     C97786   3.586   9.694   7.459  0.3899  0.1772 -0.8211
  725MOL0     C97787   3.446   9.689   7.474  1.1528  0.2697 -0.8225
  725MOL0     O97788   3.220   9.923   7.442  0.6412 -0.4199 -0.0371
  725MOL0     C97789   2.930   9.771   7.337  0.0081 -0.5732  0.0752
  725MOL0     C97790   2.790   9.775   7.342  0.5852  0.2267 -0.2374
  725MOL0     N97791   1.920   9.763   7.299 -0.0417 -0.4710  0.3999
  725MOL0     N97792   1.821   9.729   7.213 -0.2333  0.2033  0.5131
  725MOL0     C97793   1.542   9.324   6.168 -0.2585 -1.2340 -0.2873
  725MOL0     C97794   1.616   9.311   6.050 -1.3049 -0.2731  0.9551
  725MOL0     C97795   1.929   9.362   5.729  0.8385  0.4006 -0.4939
  725MOL0     C97796   2.054   9.290   5.714 -0.4817 -0.2670 -1.0499
  725MOL0     C97797   2.133   9.309   5.606 -0.6091  0.2663  1.1641
  725MOL0     C97798   2.102   9.410   5.506 -0.0974  0.0639 -0.0461
  725MOL0     O97799   2.169   9.441   5.386 -0.0095 -0.4938  0.2861
  725MOL0     C97800   2.307   9.404   5.376 -0.5502 -0.1268  0.9241
  725MOL0     C97801   2.389   9.503   5.287  0.2469  0.3661 -0.7934
  725MOL0     C97802   2.323   9.502   5.150  0.3530  0.2853 -0.7682
  725MOL0     C97803   2.423   9.555   5.044 -0.0266 -0.2517  0.6480
  725MOL0     C97804   2.448   9.699   5.057  0.1065 -0.0516  0.2880
  725MOL0     C97805   2.463   9.818   5.046  1.1462  0.6242 -0.5342
  725MOL0     C97806   1.990   9.486   5.527  0.5412  0.3585 -0.3417
  725MOL0     C97807   1.904   9.465   5.636  0.2560  0.2149  0.3986
  725MOL0     H97808   1.681   9.642   5.990  0.0041  0.3652  0.2237
  725MOL0     H97809   1.527   9.653   6.204 -1.5311 -0.5261  1.5150
  725MOL0     H97810   1.301   9.308   6.355  2.0041 -1.8263  0.5512
  725MOL0     H97811   1.459   9.307   6.422  0.7428  0.5713 -2.0528
  725MOL0     H97812   1.240   9.499   6.508  0.3912 -0.0601 -1.9657
  725MOL0     H97813   1.285   9.352   6.599  2.8650  0.7542  1.8018
  725MOL0     H97814   1.502   9.568   6.553 -0.7261 -1.9398 -1.1903
  725MOL0     H97815   1.387   9.591   6.684 -0.7699  1.0793 -0.5364
  725MOL0     H97816   1.431   9.366   6.763 -0.6827  2.9055  3.2008
  725MOL0     H97817   1.575   9.365   6.653  0.2169 -1.9912  1.6570
  725MOL0     H97818   1.657   9.563   6.782 -0.1877 -0.8874  0.2679
  725MOL0     H97819   1.514   9.561   6.896  3.6460  2.6911  2.3684
  725MOL0     H97820   1.564   9.321   6.944 -0.6465  1.3577  0.3380
  725MOL0     H97821   1.718   9.330   6.867 -1.9146 -1.2161 -1.0656
  725MOL0     H97822   1.626   9.491   7.099 -2.1071  0.6133 -2.6921
  725MOL0     H97823   1.751   9.370   7.109  2.4691 -1.7423 -2.4516
  725MOL0     H97824   1.774   9.641   6.962  0.2358 -0.1295 -0.9676
  725MOL0     H97825   1.884   9.516   6.959 -0.7288 -0.4123 -0.3740
  725MOL0     H97826   2.042   9.477   7.204 -1.7481 -1.7378 -1.2528
  725MOL0     H97827   2.102   9.722   7.486 -0.9560 -0.7006  0.8675
  725MOL0     H97828   2.152   9.561   7.435 -0.0735  0.4435  1.5701
  725MOL0     H97829   2.267   9.808   7.291 -1.9280 -0.6246 -0.4474
  725MOL0     H97830   2.298   9.643   7.263 -0.6233 -0.7865 -0.0405
  725MOL0     H97831   2.386   9.643   7.526  0.0111  0.4164  1.3015
  725MOL0     H97832   2.363   9.815   7.517  1.9067 -1.3293  1.8159
  725MOL0     H97833   2.508   9.775   7.294  1.4217  0.8090  0.4834
  725MOL0     H97834   2.559   9.643   7.405  0.4870 -0.2167  3.1920
  725MOL0     H97835   2.756   9.917   7.651 -2.4773 -0.1922 -1.8123
  725MOL0     H97836   2.988   9.853   7.766 -0.7265  0.5377 -0.1123
  725MOL0     H97837   3.132   9.902   7.686  0.0326  1.7875 -2.7522
  725MOL0     H97838   3.002  10.017   7.708  0.2450  0.0499 -0.4258
  725MOL0     H97839   3.336   9.709   7.159 -0.3208 -0.8127  0.6707
  725MOL0     H97840   3.596   9.679   7.113 -3.0257  2.4014 -1.2793
  725MOL0     H97841   3.803   9.840   7.463  1.0261  0.1399  1.2427
  725MOL0     H97842   3.867   9.682   7.500 -2.1679  0.2451  1.1159
  725MOL0     H97843   4.055   9.792   7.457  0.6881  0.1664 -0.0861
  725MOL0     H97844   4.041   9.719   7.295  3.6849  1.7830  0.6224
  725MOL0     H97845   4.103   9.960   7.267 -2.2150  2.5321 -4.1903
  725MOL0     H97846   3.994   9.991   7.402 -0.8443 -1.3105 -0.1501
  725MOL0     H97847   3.795   9.936   7.231  0.5262 -2.9532 -1.7845
  725MOL0     H97848   3.895  10.079   7.193  0.2418 -0.4650  2.9050
  725MOL0     H97849   3.837   9.949   6.994  1.1227 -1.8400 -1.6123
  725MOL0     H97850   3.913   9.805   7.065 -2.3210 -0.4017  1.5445
  725MOL0     H97851   4.139   9.944   7.064 -1.9653 -0.2921  1.2753
  725MOL0     H97852   4.079   9.895   6.909  1.6111  0.0680  0.1016
  725MOL0     H97853   3.980  10.157   7.009 -0.4678 -0.6089  0.4870
  725MOL0     H97854   3.976  10.097   6.852 -0.7532  3.6756 -0.2418
  725MOL0     H97855   4.228  10.168   7.003  0.3850 -2.7693 -0.3082
  725MOL0     H97856   4.155  10.262   6.874  1.6208  0.4903 -1.7361
  725MOL0     H97857   3.652   9.681   7.544 -2.6152  0.0178  1.6722
  725MOL0     H97858   3.409   9.686   7.576  1.4406 -0.3489 -0.7264
  725MOL0     H97859   2.983   9.729   7.253 -0.7708 -1.3326 -0.0408
  725MOL0     H97860   2.731   9.733   7.262  1.1667  0.4196 -0.7812
  725MOL0     H97861   1.511   9.230   6.212 -1.5367 -1.8724 -2.4191
  725MOL0     H97862   1.626   9.210   6.012 -3.4992  1.3713 -5.2323
  725MOL0     H97863   2.088   9.219   5.788  0.8377  3.1023  1.9013
  725MOL0     H97864   2.220   9.244   5.600 -2.8840 -2.9918  0.8380
  725MOL0     H97865   2.352   9.396   5.476  2.0131 -2.2736 -0.2616
  725MOL0     H97866   2.318   9.306   5.328  1.2355  0.6744 -0.4132
  725MOL0     H97867   2.492   9.469   5.270  0.1303 -0.8060  0.6660
  725MOL0     H97868   2.379   9.607   5.320  0.3463  0.2774 -0.4774
  725MOL0     H97869   2.231   9.561   5.153 -1.0590 -1.8042 -1.2140
  725MOL0     H97870   2.293   9.401   5.120  0.8749  0.6058 -2.5106
  725MOL0     H97871   2.381   9.526   4.947 -1.0832  1.5985  0.5165
  725MOL0     H97872   2.514   9.494   5.052 -0.8137 -1.2503  2.4770
  725MOL0     H97873   2.472   9.925   5.046  0.2669  0.7521  1.3473
  725MOL0     H97874   1.969   9.575   5.469  1.7048  0.0015 -1.3445
  725MOL0     H97875   1.814   9.524   5.650 -0.1551 -0.6784  1.7484
  726MOL0     O97876   5.036   0.748   4.667  0.3185  0.1005 -0.0167
  726MOL0     C97877   5.086   0.858   4.698 -0.1428  0.7913 -0.2448
  726MOL0     O97878   5.017   0.976   4.723 -0.0396  0.1196 -0.2473
  726MOL0     C97879   4.892   0.988   4.673  0.5519  0.5098  0.2136
  726MOL0     C97880   4.854   0.964   4.538  0.4666  0.1788 -0.8083
  726MOL0     C97881   4.724   0.999   4.504 -0.6073 -0.1093 -0.4331
  726MOL0     C97882   4.623   1.041   4.596 -0.8247 -0.0453 -0.4475
  726MOL0     O97883   4.499   1.058   4.548 -0.3281  0.1242  0.9411
  726MOL0     C97884   4.431   1.173   4.591  0.3028  0.0660  0.6187
  726MOL0     C97885   4.303   1.185   4.510  0.0713  0.5782  0.4808
  726MOL0     C97886   4.323   1.200   4.356 -0.4258  0.4824  0.2638
  726MOL0     C97887   4.199   1.272   4.295  0.7928  0.5989 -0.2173
  726MOL0     C97888   4.229   1.367   4.180  0.0057 -0.1328  0.5807
  726MOL0     C97889   4.291   1.295   4.063  0.5582  0.1978  0.7872
  726MOL0     C97890   4.273   1.379   3.931 -0.0726 -0.3921  0.2585
  726MOL0     C97891   4.292   1.535   3.940 -0.8867  0.7386 -0.5234
  726MOL0     N97892   4.236   1.600   3.828 -0.2984 -0.5338  0.1140
  726MOL0     C97893   4.110   1.649   3.834 -0.0730 -0.9800 -0.8896
  726MOL0     C97894   4.100   1.707   3.712 -0.4244  0.1727  0.1739
  726MOL0     C97895   3.986   1.781   3.659  0.1442  0.2814 -0.1753
  726MOL0     C97896   3.885   1.670   3.605 -0.2713  0.1319 -0.1048
  726MOL0     C97897   3.744   1.726   3.580 -0.0079 -0.0260 -0.4048
  726MOL0     C97898   3.723   1.794   3.450 -0.6113 -0.8345 -0.1383
  726MOL0     O97899   3.596   1.865   3.469 -0.1276 -0.3669 -0.7968
  726MOL0     C97900   3.536   1.926   3.360  0.4694 -0.1308  0.6499
  726MOL0     C97901   3.439   2.024   3.380  0.2681 -0.0352 -0.2659
  726MOL0     C97902   3.365   2.093   3.279 -0.0907  0.0363  0.0655
  726MOL0     C97903   3.261   2.190   3.308  0.3052 -1.1073 -0.4160
  726MOL0     C97904   3.391   2.062   3.143 -0.2913 -0.0488  1.0301
  726MOL0     C97905   3.312   2.121   3.025  0.4739 -0.1125 -0.1241
  726MOL0     O97906   3.182   2.110   3.047  0.5418 -0.6497 -0.4001
  726MOL0     C97907   3.115   2.205   2.962 -0.7036  0.1877 -0.7420
  726MOL0     C97908   3.072   2.321   3.014 -0.1701 -0.5331 -0.0659
  726MOL0     C97909   3.002   2.412   2.935  0.0434 -0.7572  0.9888
  726MOL0     C97910   2.968   2.391   2.806  0.2886 -0.8775  0.5172
  726MOL0     O97911   2.905   2.495   2.738 -0.1861  0.2271 -0.0801
  726MOL0     C97912   2.834   2.460   2.620 -0.2418 -0.0464 -0.3250
  726MOL0     C97913   2.755   2.577   2.559 -0.6013  0.0507  0.2778
  726MOL0     C97914   2.695   2.535   2.423  0.2261 -0.0307 -0.0356
  726MOL0     C97915   2.797   2.562   2.306  0.0677 -0.0834  0.1650
  726MOL0     C97916   2.732   2.555   2.165 -0.3029 -0.0695 -0.2280
  726MOL0     C97917   2.709   2.406   2.129  0.3461 -0.2480 -0.0703
  726MOL0     C97918   2.829   2.339   2.066  1.0241  0.8980 -0.1347
  726MOL0     C97919   2.766   2.223   1.979 -1.7140  0.6500 -0.7049
  726MOL0    Cl97920   2.692   2.108   2.089  0.3031  0.0468  0.4513
  726MOL0     C97921   3.006   2.269   2.749 -0.3010  0.0360  0.4290
  726MOL0     C97922   3.083   2.177   2.831 -0.1766 -0.4810  0.0726
  726MOL0     O97923   3.370   2.138   2.916  0.7179  0.8021  0.5949
  726MOL0     C97924   3.498   1.967   3.121  0.7287 -0.4913  0.1684
  726MOL0     C97925   3.569   1.903   3.222 -0.2578 -0.1577  0.4269
  726MOL0     N97926   4.211   1.684   3.635 -0.0965  0.3156  0.7852
  726MOL0     N97927   4.286   1.609   3.699 -0.5479  0.1984 -0.2543
  726MOL0     C97928   4.664   1.065   4.723 -0.3263  0.0338 -0.9149
  726MOL0     C97929   4.792   1.026   4.765 -0.4301 -0.2179 -0.3377
  726MOL0     C97930   5.229   0.855   4.745 -0.4398 -0.8714 -0.2636
  726MOL0     C97931   5.285   0.956   4.825  0.3361 -0.4815  0.1388
  726MOL0     C97932   5.417   0.964   4.866  0.1043 -0.5293 -0.7324
  726MOL0     C97933   5.507   0.870   4.817 -0.5529  0.0864 -0.2741
  726MOL0     O97934   5.642   0.861   4.852 -0.7397 -0.0188  0.1059
  726MOL0     C97935   5.719   0.981   4.851  0.2614 -1.0584  0.1851
  726MOL0     C97936   5.753   1.024   4.992  0.6743  0.2218 -0.1415
  726MOL0     C97937   5.886   0.959   5.050 -0.5101  0.1858 -0.6162
  726MOL0     C97938   5.983   1.062   5.104 -0.4208  0.0460  0.5294
  726MOL0     C97939   6.112   1.000   5.151  0.0323  0.1043 -0.1185
  726MOL0     C97940   6.226   0.958   5.177  0.3694  0.3217  0.3509
  726MOL0     C97941   5.451   0.761   4.747  0.2017  0.0009 -0.3462
  726MOL0     C97942   5.316   0.754   4.715 -0.7124  0.0138  0.4955
  726MOL0     H97943   4.941   0.935   4.480 -0.8865 -1.3203 -2.1829
  726MOL0     H97944   4.700   1.008   4.399 -0.0823 -0.5615 -0.5968
  726MOL0     H97945   4.399   1.165   4.695 -1.8186  0.8716  0.0771
  726MOL0     H97946   4.499   1.257   4.573  0.4896 -0.5014 -1.5236
  726MOL0     H97947   4.254   1.088   4.525  2.9288 -0.8491  1.3739
  726MOL0     H97948   4.250   1.270   4.552  0.3290  1.0043 -0.0452
  726MOL0     H97949   4.409   1.262   4.331 -1.8250  2.9240  1.1561
  726MOL0     H97950   4.344   1.102   4.312  3.0905  0.9051  0.7714
  726MOL0     H97951   4.135   1.193   4.256  0.0823  0.4479  1.1722
  726MOL0     H97952   4.143   1.343   4.358 -0.3520  1.8066 -2.4766
  726MOL0     H97953   4.135   1.415   4.151  0.2222 -0.1196 -0.1128
  726MOL0     H97954   4.301   1.438   4.222  0.3793 -0.6375  0.8200
  726MOL0     H97955   4.396   1.274   4.085  1.0138  1.2808 -0.2603
  726MOL0     H97956   4.235   1.204   4.040  0.7772  0.4725 -0.9491
  726MOL0     H97957   4.350   1.343   3.861  0.7938  3.3407 -0.9897
  726MOL0     H97958   4.178   1.352   3.885 -0.0605 -1.4972  0.8682
  726MOL0     H97959   4.397   1.559   3.955 -0.0463 -0.9574 -3.0047
  726MOL0     H97960   4.243   1.572   4.031  0.8332  0.2391  0.6504
  726MOL0     H97961   4.038   1.654   3.916  2.9015  0.8231  1.8470
  726MOL0     H97962   3.940   1.823   3.749  1.4934 -2.7720  2.1228
  726MOL0     H97963   4.015   1.854   3.583 -0.8898  0.7847 -0.1003
  726MOL0     H97964   3.879   1.588   3.676 -0.3488  0.4246  0.2307
  726MOL0     H97965   3.925   1.629   3.512 -0.1556  0.0232 -0.0066
  726MOL0     H97966   3.706   1.777   3.669 -0.5515 -2.7678  1.0354
  726MOL0     H97967   3.682   1.635   3.582  1.4668 -1.0479  0.6512
  726MOL0     H97968   3.711   1.719   3.371 -1.4951  0.4902 -1.2921
  726MOL0     H97969   3.802   1.865   3.426 -3.1840  2.4916  0.4807
  726MOL0     H97970   3.412   2.044   3.483 -0.6332  1.6467 -0.7886
  726MOL0     H97971   3.256   2.271   3.234 -0.4637 -1.5943 -0.9229
  726MOL0     H97972   3.159   2.155   3.325 -0.4319  1.3124  0.5197
  726MOL0     H97973   3.289   2.216   3.410  0.9908  0.7781 -1.0482
  726MOL0     H97974   3.083   2.344   3.120 -0.8612 -0.4408 -0.0117
  726MOL0     H97975   2.971   2.511   2.970 -2.6472 -1.1777  0.0528
  726MOL0     H97976   2.907   2.424   2.546  1.0155 -0.6390  1.1494
  726MOL0     H97977   2.751   2.390   2.636 -0.2420  0.1141  0.3997
  726MOL0     H97978   2.681   2.623   2.625  0.6027 -0.2980  1.9233
  726MOL0     H97979   2.821   2.661   2.534 -1.6704  1.9424  3.2818
  726MOL0     H97980   2.621   2.610   2.395  0.5776 -0.3021 -1.7619
  726MOL0     H97981   2.667   2.429   2.422  5.0473 -1.6441  2.2147
  726MOL0     H97982   2.837   2.663   2.310 -2.4856  1.3090 -3.9120
  726MOL0     H97983   2.887   2.500   2.317  1.7418  2.3132  0.6122
  726MOL0     H97984   2.805   2.607   2.103 -0.0918  0.1668  0.2087
  726MOL0     H97985   2.637   2.607   2.149 -0.2413 -0.8383 -4.0412
  726MOL0     H97986   2.676   2.341   2.210  0.0300 -1.0701 -0.8498
  726MOL0     H97987   2.622   2.397   2.065 -0.3867  0.2054  0.8345
  726MOL0     H97988   2.896   2.300   2.144  1.3241  2.0584  0.2096
  726MOL0     H97989   2.891   2.409   2.009  1.4815 -0.4759 -1.4011
  726MOL0     H97990   2.857   2.183   1.933 -2.0440  3.8848 -4.8061
  726MOL0     H97991   2.700   2.254   1.897 -0.8482 -1.2748 -2.2184
  726MOL0     H97992   2.971   2.251   2.648 -1.7652  0.1267  0.9039
  726MOL0     H97993   3.112   2.081   2.789  1.0125 -0.8377  1.6514
  726MOL0     H97994   3.531   1.948   3.019  1.7793  4.6309 -0.7303
  726MOL0     H97995   3.635   1.823   3.191 -1.4144 -0.7563 -0.5519
  726MOL0     H97996   4.595   1.100   4.800  0.4175  0.0399 -0.2294
  726MOL0     H97997   4.819   1.032   4.870 -1.3705  3.0256 -0.1968
  726MOL0     H97998   5.218   1.031   4.867  2.6406  0.3036  2.7426
  726MOL0     H97999   5.444   1.048   4.929 -1.4500  0.1823 -0.9680
  726MOL0     H98000   5.804   0.975   4.783  2.7590 -1.5964  3.1483
  726MOL0     H98001   5.654   1.059   4.810  2.5786 -0.2590 -2.2468
  726MOL0     H98002   5.668   1.006   5.059  1.3236 -1.0411  0.3829
  726MOL0     H98003   5.760   1.133   4.989 -1.4769  0.3723 -1.7666
  726MOL0     H98004   5.934   0.898   4.974  1.3547  0.1204  0.5493
  726MOL0     H98005   5.856   0.903   5.139  2.2312  2.9727  2.3513
  726MOL0     H98006   5.931   1.116   5.184 -1.9298  2.4211 -1.8398
  726MOL0     H98007   6.002   1.134   5.024 -0.7224 -0.4924 -0.0344
  726MOL0     H98008   6.328   0.939   5.203 -0.4054 -0.6568  3.0063
  726MOL0     H98009   5.513   0.675   4.722  0.1141 -0.3155  0.4819
  726MOL0     H98010   5.285   0.657   4.677  2.8054  0.3531 -4.1554
  727MOL0     O98011   4.103   3.231   5.845  0.7162  0.7190 -0.3295
  727MOL0     C98012   4.152   3.313   5.928 -0.3509  0.4394  0.1395
  727MOL0     O98013   4.089   3.427   5.969  0.6299  0.3907  0.2300
  727MOL0     C98014   3.959   3.446   5.949 -0.0457  0.4864  0.3893
  727MOL0     C98015   3.880   3.421   5.833  0.5063  0.6310  0.6043
  727MOL0     C98016   3.738   3.439   5.833 -1.0047  0.6891  0.4909
  727MOL0     C98017   3.674   3.485   5.944  0.4216  1.0324  0.1505
  727MOL0     O98018   3.534   3.463   5.951 -0.1563 -0.4903  0.2489
  727MOL0     C98019   3.465   3.532   6.061  0.5863  0.1871 -0.1225
  727MOL0     C98020   3.323   3.527   6.015 -0.4096  0.3020  0.2697
  727MOL0     C98021   3.230   3.640   6.071 -0.8593 -0.5151  0.1341
  727MOL0     C98022   3.101   3.644   5.989  0.0903 -0.1490 -0.0359
  727MOL0     C98023   2.994   3.725   6.059  0.9471 -0.6043  0.7638
  727MOL0     C98024   2.909   3.648   6.159  0.5968  0.0932 -0.9133
  727MOL0     C98025   2.825   3.548   6.083  0.7734  0.2938 -0.0339
  727MOL0     C98026   2.702   3.623   6.015  0.1296 -0.2822  0.5131
  727MOL0     N98027   2.579   3.645   6.096 -0.0821  0.2275 -0.5598
  727MOL0     C98028   2.577   3.635   6.233 -0.3186 -0.1810 -0.9016
  727MOL0     C98029   2.447   3.652   6.274 -0.0008  0.5454  0.6298
  727MOL0     C98030   2.382   3.658   6.414  0.2155  0.4450  0.3660
  727MOL0     C98031   2.230   3.694   6.417  0.1474 -0.3298 -0.3852
  727MOL0     C98032   2.166   3.664   6.551  0.3225  0.4970 -0.0192
  727MOL0     C98033   2.020   3.619   6.551 -0.0993  1.2383  0.3125
  727MOL0     O98034   1.936   3.716   6.605 -0.0483  0.0583  0.0549
  727MOL0     C98035   1.808   3.726   6.559 -0.3254 -0.6464  1.2350
  727MOL0     C98036   1.769   3.689   6.432  0.6503  0.6446 -0.3094
  727MOL0     C98037   1.638   3.689   6.384 -0.1217  0.6055 -0.3207
  727MOL0     C98038   1.598   3.629   6.252  0.1894 -0.2060 -0.2931
  727MOL0     C98039   1.541   3.744   6.473 -0.3477  0.2431 -0.4305
  727MOL0     C98040   1.399   3.745   6.427 -0.2311  0.0714 -1.0901
  727MOL0     O98041   1.347   3.638   6.352 -0.3525 -0.2259 -0.1793
  727MOL0     C98042   1.211   3.659   6.329  0.0419 -0.5162  0.0479
  727MOL0     C98043   1.172   3.702   6.204  0.3395 -0.6615 -0.2567
  727MOL0     C98044   1.039   3.735   6.173  0.8129 -0.2074  0.4575
  727MOL0     C98045   0.937   3.703   6.262 -0.2217  1.0983 -0.0024
  727MOL0     O98046   0.804   3.700   6.250 -0.7910  0.3671 -1.3315
  727MOL0     C98047   0.750   3.741   6.129  0.0247  0.0739  0.4652
  727MOL0     C98048   0.605   3.739   6.143 -0.7461 -0.8631 -0.1314
  727MOL0     C98049   0.537   3.819   6.026  0.5244 -1.1843 -0.7042
  727MOL0     C98050   0.395   3.830   6.057  1.0046 -0.2831 -0.0445
  727MOL0     C98051   0.322   3.907   5.945  0.4459  0.9306 -1.1542
  727MOL0     C98052   0.337   4.059   5.938 -0.0726  0.4722  0.1299
  727MOL0     C98053   0.440   4.112   5.840 -0.5269  0.3000 -0.1313
  727MOL0     C98054   0.424   4.264   5.829 -0.2302  0.6155  0.5821
  727MOL0    Cl98055   0.569   4.309   5.734  0.2355  0.5132  0.0271
  727MOL0     C98056   0.979   3.652   6.391  0.5485  0.1010 -0.9138
  727MOL0     C98057   1.112   3.630   6.430 -0.5680  0.7177  0.8675
  727MOL0     O98058   1.335   3.848   6.450 -0.1389 -0.1548 -0.5760
  727MOL0     C98059   1.590   3.803   6.588 -0.2689  0.1652 -0.2584
  727MOL0     C98060   1.718   3.785   6.643  0.7345 -0.2475  0.1089
  727MOL0     N98061   2.375   3.664   6.152 -0.1240 -0.3949 -0.3546
  727MOL0     N98062   2.456   3.657   6.051 -0.5637  0.2814 -1.0232
  727MOL0     C98063   3.748   3.532   6.054  0.3075  0.1126  0.0238
  727MOL0     C98064   3.893   3.498   6.059 -0.6645 -1.0096 -0.2521
  727MOL0     C98065   4.297   3.294   5.974  0.1568  0.5695 -0.0628
  727MOL0     C98066   4.340   3.171   6.037 -0.6074  0.6915  0.2649
  727MOL0     C98067   4.473   3.154   6.070 -0.0014  0.5889 -1.0390
  727MOL0     C98068   4.563   3.261   6.064  0.0254 -0.4288  0.1034
  727MOL0     O98069   4.691   3.246   6.120 -0.0722 -0.5815 -0.1353
  727MOL0     C98070   4.796   3.337   6.086  0.9156  0.1966  0.4738
  727MOL0     C98071   4.929   3.276   6.113 -0.2086  0.2278  0.5500
  727MOL0     C98072   4.955   3.246   6.264  0.8395 -0.5640  0.6733
  727MOL0     C98073   5.103   3.197   6.288  0.6927  0.2019 -0.2155
  727MOL0     C98074   5.194   3.306   6.269 -0.4907  0.1127 -0.6139
  727MOL0     C98075   5.268   3.405   6.248  0.4219 -0.4713 -0.1216
  727MOL0     C98076   4.513   3.386   6.015  0.0928 -0.1341 -0.2352
  727MOL0     C98077   4.385   3.401   5.960  0.8995  0.0539 -0.7168
  727MOL0     H98078   3.927   3.378   5.746 -0.2659  1.4729 -0.2496
  727MOL0     H98079   3.682   3.399   5.749 -2.0659  1.0130  1.0255
  727MOL0     H98080   3.487   3.481   6.156  1.9278  0.5265 -0.2278
  727MOL0     H98081   3.503   3.634   6.076  0.7403  0.3204 -1.3775
  727MOL0     H98082   3.316   3.531   5.906  0.7280  2.3895  0.2200
  727MOL0     H98083   3.286   3.429   6.048  0.2875 -0.5467 -1.3744
  727MOL0     H98084   3.227   3.622   6.179 -2.1180 -0.6846  0.0772
  727MOL0     H98085   3.285   3.735   6.061  0.0220 -1.1109 -0.8325
  727MOL0     H98086   3.116   3.692   5.891 -3.7995 -1.5915 -1.5258
  727MOL0     H98087   3.078   3.539   5.972 -2.9175  0.1082  1.7765
  727MOL0     H98088   3.040   3.817   6.095  3.6214 -0.6077 -2.1971
  727MOL0     H98089   2.934   3.758   5.973  0.5840  0.6402  1.4757
  727MOL0     H98090   2.963   3.601   6.241  0.9388  0.6724 -0.7967
  727MOL0     H98091   2.854   3.713   6.227  3.0523  1.0222  0.3056
  727MOL0     H98092   2.874   3.499   5.998  0.5508  0.9556 -0.5512
  727MOL0     H98093   2.789   3.476   6.158  1.4336  2.8012  2.8977
  727MOL0     H98094   2.673   3.563   5.928  0.1107  0.6204 -0.1142
  727MOL0     H98095   2.724   3.723   5.977 -2.3183  0.8853  1.9001
  727MOL0     H98096   2.663   3.606   6.292  0.8168 -2.7335 -3.5411
  727MOL0     H98097   2.401   3.553   6.436 -0.7721 -0.1380 -1.3525
  727MOL0     H98098   2.442   3.707   6.491 -1.4149 -0.3580  2.2519
  727MOL0     H98099   2.180   3.646   6.332  2.0677  1.6052 -2.7501
  727MOL0     H98100   2.211   3.801   6.401 -2.6712 -0.6392  0.2823
  727MOL0     H98101   2.175   3.748   6.620 -2.5301  2.8768 -2.3146
  727MOL0     H98102   2.229   3.584   6.593  0.9502 -0.8321 -3.1719
  727MOL0     H98103   2.004   3.522   6.598  3.2733 -2.2284 -4.5822
  727MOL0     H98104   1.994   3.573   6.455  1.2052 -1.8596  1.3129
  727MOL0     H98105   1.840   3.653   6.358  0.0355 -0.3317 -0.4328
  727MOL0     H98106   1.541   3.700   6.191  0.8907  0.0907 -0.6135
  727MOL0     H98107   1.675   3.581   6.191 -0.2957 -0.7425 -0.4962
  727MOL0     H98108   1.532   3.542   6.256  0.2995 -0.2995 -0.5028
  727MOL0     H98109   1.253   3.722   6.135  1.9617 -3.4650  0.6805
  727MOL0     H98110   1.014   3.764   6.072 -0.6322  1.5811  1.2515
  727MOL0     H98111   0.764   3.849   6.118 -1.7786  0.5743  2.4848
  727MOL0     H98112   0.790   3.674   6.052 -1.8960 -3.9503  2.6741
  727MOL0     H98113   0.576   3.634   6.134  3.9272 -2.6900  2.4614
  727MOL0     H98114   0.576   3.775   6.242 -0.7163  1.0817 -0.7747
  727MOL0     H98115   0.574   3.765   5.938  1.7108 -0.5895 -0.5972
  727MOL0     H98116   0.578   3.920   6.031 -2.4807  0.1924 -1.5473
  727MOL0     H98117   0.352   3.730   6.061 -1.6497  0.7669 -0.5752
  727MOL0     H98118   0.387   3.879   6.154  0.2563  1.2703 -0.8397
  727MOL0     H98119   0.220   3.904   5.984  1.4948  0.1373  1.7590
  727MOL0     H98120   0.343   3.865   5.846  2.5277 -2.0272  0.3859
  727MOL0     H98121   0.243   4.111   5.918 -0.1155  0.2565 -0.2251
  727MOL0     H98122   0.376   4.105   6.030  0.7624 -0.3554  0.2030
  727MOL0     H98123   0.424   4.059   5.745  0.0534 -0.3020  0.0957
  727MOL0     H98124   0.543   4.089   5.870  1.1715  3.1453 -3.1239
  727MOL0     H98125   0.431   4.312   5.926 -2.7209  1.7744  0.2794
  727MOL0     H98126   0.331   4.292   5.779  0.6891 -1.0487 -2.3403
  727MOL0     H98127   0.901   3.627   6.463  0.3922 -2.9827 -2.0265
  727MOL0     H98128   1.126   3.595   6.532  2.7379 -1.4012 -0.1521
  727MOL0     H98129   1.528   3.845   6.667 -1.3129 -1.3231 -0.2481
  727MOL0     H98130   1.753   3.817   6.740  0.1054  0.6734  0.0441
  727MOL0     H98131   3.713   3.581   6.145  0.1835 -1.3550  0.8030
  727MOL0     H98132   3.958   3.517   6.143  1.8391 -0.4839 -2.2079
  727MOL0     H98133   4.265   3.093   6.049 -1.4326  1.5641  0.9575
  727MOL0     H98134   4.501   3.058   6.113 -0.9705  1.2253  1.1460
  727MOL0     H98135   4.780   3.361   5.980 -0.2037  1.6439  0.9300
  727MOL0     H98136   4.789   3.430   6.144 -0.3421  1.8796 -2.1763
  727MOL0     H98137   5.004   3.349   6.082  0.8993 -0.4675  1.4920
  727MOL0     H98138   4.943   3.176   6.069 -0.6104 -0.8887  2.8253
  727MOL0     H98139   4.890   3.169   6.307  0.6769 -0.6975  0.1947
  727MOL0     H98140   4.933   3.339   6.317  0.0414  0.2664 -1.0392
  727MOL0     H98141   5.135   3.122   6.215  2.0382  1.3082 -0.8201
  727MOL0     H98142   5.119   3.155   6.388 -0.0641  4.2488  1.8461
  727MOL0     H98143   5.339   3.482   6.226  1.8964 -1.7237  0.0568
  727MOL0     H98144   4.578   3.473   6.018  1.3694 -0.9826 -1.8045
  727MOL0     H98145   4.355   3.493   5.911  2.2667 -0.9063 -3.5959
  728MOL0     O98146   9.921   4.160  10.922 -0.2097 -0.0495 -0.2214
  728MOL0     C98147   9.980   4.200  10.821 -0.1377  0.2645  0.8494
  728MOL0     O98148   9.969   4.151  10.699  0.3655  0.0706 -0.5312
  728MOL0     C98149   9.863   4.066  10.683  0.4583 -0.3151 -0.0612
  728MOL0     C98150   9.881   3.929  10.673  0.1801  1.1103  0.5743
  728MOL0     C98151   9.773   3.845  10.643  0.8532 -0.2524 -0.2383
  728MOL0     C98152   9.638   3.897  10.649  0.6225 -0.1970  1.2405
  728MOL0     O98153   9.541   3.801  10.629  0.1208 -0.1898 -0.7039
  728MOL0     C98154   9.419   3.830  10.707 -0.3908  0.2630 -0.0449
  728MOL0     C98155   9.330   3.697  10.709 -0.6679 -0.8792 -0.6863
  728MOL0     C98156   9.306   3.629  10.578 -0.0812 -0.2938 -0.1375
  728MOL0     C98157   9.196   3.527  10.560  0.5122 -0.6178  0.6613
  728MOL0     C98158   9.059   3.596  10.513 -0.2064  0.5910 -0.4152
  728MOL0     C98159   8.935   3.502  10.484  0.2573 -0.4614  0.2095
  728MOL0     C98160   8.820   3.574  10.412  0.3589 -0.1556  0.0982
  728MOL0     C98161   8.732   3.655  10.502 -0.0144 -0.1174  0.5002
  728MOL0     N98162   8.608   3.700  10.441 -0.2114 -0.1323 -0.1112
  728MOL0     C98163   8.520   3.798  10.484 -0.2527  0.6338 -0.3030
  728MOL0     C98164   8.447   3.815  10.383  0.5430  0.4195 -0.1262
  728MOL0     C98165   8.335   3.911  10.379  0.4485 -0.4564 -0.6887
  728MOL0     C98166   8.203   3.853  10.446 -0.7905 -1.1500  0.5892
  728MOL0     C98167   8.150   3.726  10.381 -1.0706  0.7667  0.6995
  728MOL0     C98168   7.997   3.707  10.387  0.5224 -0.5663  0.0346
  728MOL0     O98169   7.952   3.600  10.311 -0.5047  0.8542  0.2554
  728MOL0     C98170   7.822   3.553  10.328  0.1176  1.1768  0.2228
  728MOL0     C98171   7.727   3.624  10.401 -1.1159 -0.1017 -0.2593
  728MOL0     C98172   7.594   3.589  10.385 -0.8916  0.6503  0.0043
  728MOL0     C98173   7.497   3.660  10.478 -1.0535  0.5810 -0.2767
  728MOL0     C98174   7.557   3.482  10.301 -0.1200 -0.1672  0.3686
  728MOL0     C98175   7.419   3.449  10.275  0.4917  0.1433  0.1190
  728MOL0     O98176   7.324   3.550  10.252  0.4588 -0.2506 -0.2028
  728MOL0     C98177   7.196   3.504  10.274  0.4632  0.4933 -0.0806
  728MOL0     C98178   7.097   3.514  10.176  0.1484 -0.1433  0.4314
  728MOL0     C98179   6.959   3.471  10.206 -0.6277 -0.3378 -0.5074
  728MOL0     C98180   6.928   3.421  10.336 -0.0511  1.0487  0.7265
  728MOL0     O98181   6.808   3.374  10.372  0.9156  0.3867 -0.1143
  728MOL0     C98182   6.694   3.430  10.300  0.5990  0.0868  0.6061
  728MOL0     C98183   6.574   3.440  10.393  0.7910  0.7719 -0.7701
  728MOL0     C98184   6.553   3.312  10.461 -0.4821  0.5314  0.0210
  728MOL0     C98185   6.430   3.311  10.558  0.6251 -0.5127 -0.5043
  728MOL0     C98186   6.308   3.248  10.497  0.6834  0.2322  0.9638
  728MOL0     C98187   6.198   3.227  10.600  0.5212 -0.3023 -0.3360
  728MOL0     C98188   6.152   3.344  10.682 -0.2316 -0.8588  0.6381
  728MOL0     C98189   6.065   3.455  10.615  0.1315  0.1214 -0.4396
  728MOL0    Cl98190   5.944   3.385  10.521 -0.3239 -0.1318 -0.1652
  728MOL0     C98191   7.032   3.415  10.428  0.1030  0.5136 -0.0310
  728MOL0     C98192   7.157   3.467  10.400  0.5663  0.0765 -0.8128
  728MOL0     O98193   7.394   3.333  10.299 -0.4364 -0.8976  0.1340
  728MOL0     C98194   7.653   3.407  10.233  0.8291  0.0738 -0.2200
  728MOL0     C98195   7.782   3.447  10.250 -1.0987  0.1190 -0.0336
  728MOL0     N98196   8.471   3.730  10.280  0.3672 -0.0932 -0.0414
  728MOL0     N98197   8.574   3.659  10.320  0.4658  0.5183  0.4005
  728MOL0     C98198   9.625   4.032  10.672 -0.2780 -0.2967 -0.6289
  728MOL0     C98199   9.735   4.117  10.692 -0.8802 -0.1018  0.1430
  728MOL0     C98200  10.061   4.324  10.832  0.4252  0.6044 -0.5940
  728MOL0     C98201  10.112   4.387  10.715 -0.4912  0.8847 -0.4536
  728MOL0     C98202  10.195   4.492  10.732  0.5639  0.2611 -0.0300
  728MOL0     C98203  10.214   4.551  10.852  0.7286  0.4910  0.4578
  728MOL0     O98204  10.281   4.667  10.851 -0.2846 -0.1847  1.0167
  728MOL0     C98205  10.358   4.724  10.961 -0.6397  0.0563 -0.3908
  728MOL0     C98206  10.508   4.667  10.978 -0.4447 -1.1231  1.1241
  728MOL0     C98207  10.603   4.740  10.876 -0.4120 -0.5022 -0.9570
  728MOL0     C98208  10.667   4.870  10.952  0.0279 -0.4587 -0.8753
  728MOL0     C98209  10.797   4.837  11.022 -0.2439  0.7151 -1.0497
  728MOL0     C98210  10.901   4.803  11.083 -0.0302  0.6832 -0.5287
  728MOL0     C98211  10.156   4.494  10.968  0.2862 -0.2982  0.7753
  728MOL0     C98212  10.081   4.380  10.957 -0.4763 -0.8239  0.8514
  728MOL0     H98213   9.978   3.881  10.672 -0.4547 -0.2085  0.1108
  728MOL0     H98214   9.784   3.739  10.620 -2.1695 -0.7321  0.1727
  728MOL0     H98215   9.436   3.848  10.814 -0.0317  2.0381 -0.3683
  728MOL0     H98216   9.380   3.917  10.653  3.5719  1.5202 -1.2428
  728MOL0     H98217   9.378   3.627  10.777 -0.6166  0.5117  0.7725
  728MOL0     H98218   9.237   3.729  10.757 -0.0101  1.4503 -0.8215
  728MOL0     H98219   9.302   3.699  10.495 -1.7941 -2.0544 -1.6422
  728MOL0     H98220   9.397   3.570  10.566 -0.7052 -1.1332 -0.9340
  728MOL0     H98221   9.226   3.448  10.491 -3.4013  0.3362 -2.5491
  728MOL0     H98222   9.181   3.469  10.651  3.5727  0.2339  1.8123
  728MOL0     H98223   9.033   3.653  10.602  0.9376  0.2923  0.1250
  728MOL0     H98224   9.072   3.663  10.427  0.3900  2.1075  0.7982
  728MOL0     H98225   8.965   3.411  10.433  0.8059 -1.6300  2.4853
  728MOL0     H98226   8.913   3.452  10.579 -1.6246  0.0066  0.0633
  728MOL0     H98227   8.862   3.641  10.336  0.3073 -2.3023 -1.9168
  728MOL0     H98228   8.758   3.499  10.362  0.2713 -1.4628  2.0729
  728MOL0     H98229   8.794   3.745  10.503  1.0101 -0.6956 -2.2493
  728MOL0     H98230   8.728   3.610  10.602  0.4435 -0.4329  0.3795
  728MOL0     H98231   8.517   3.843  10.582  1.9956 -1.3514  0.7871
  728MOL0     H98232   8.362   4.003  10.432  3.1192 -0.3223 -2.1587
  728MOL0     H98233   8.311   3.932  10.275 -0.7204 -1.8644 -0.7435
  728MOL0     H98234   8.128   3.932  10.454 -0.3298 -0.7019  0.5373
  728MOL0     H98235   8.237   3.829  10.547  2.0163  1.9428  0.5591
  728MOL0     H98236   8.189   3.645  10.443  1.8910  1.9120  0.4672
  728MOL0     H98237   8.180   3.720  10.276  0.0585  1.1825  0.9838
  728MOL0     H98238   7.950   3.797  10.348  0.2172 -0.7194  0.0458
  728MOL0     H98239   7.970   3.688  10.491  1.5097  1.6305  0.7340
  728MOL0     H98240   7.748   3.707  10.467 -1.3075 -1.1426  1.1617
  728MOL0     H98241   7.435   3.727  10.417  0.5386  0.5961 -1.9435
  728MOL0     H98242   7.434   3.588  10.531  1.3520 -2.1334 -0.8965
  728MOL0     H98243   7.554   3.724  10.546 -3.1445  2.2187  0.0579
  728MOL0     H98244   7.132   3.545  10.078  0.4402 -2.9296 -0.4460
  728MOL0     H98245   6.882   3.469  10.129 -0.1551 -1.2420 -0.9748
  728MOL0     H98246   6.716   3.529  10.259  1.1835 -0.6696 -0.9618
  728MOL0     H98247   6.656   3.359  10.227  1.7248 -1.9557  1.9128
  728MOL0     H98248   6.588   3.523  10.463 -0.4576  1.4872 -1.3302
  728MOL0     H98249   6.489   3.461  10.327 -0.2087 -0.4613  0.0904
  728MOL0     H98250   6.644   3.274  10.509  1.4226 -0.3034 -3.8601
  728MOL0     H98251   6.528   3.235  10.388  3.4906 -2.0762  1.0556
  728MOL0     H98252   6.461   3.242  10.637 -0.6013 -0.3122  0.1723
  728MOL0     H98253   6.419   3.417  10.584  0.9737  0.0954 -2.6560
  728MOL0     H98254   6.331   3.148  10.460 -2.0403 -1.6694  3.8583
  728MOL0     H98255   6.270   3.312  10.417  0.5834 -4.2902 -3.0019
  728MOL0     H98256   6.113   3.162  10.574  0.8861 -1.5430  1.3795
  728MOL0     H98257   6.250   3.167  10.675 -1.3115 -0.8798  0.5414
  728MOL0     H98258   6.241   3.393  10.723 -2.6324  1.5555  3.3746
  728MOL0     H98259   6.083   3.292  10.749 -0.2179  0.7187  1.9325
  728MOL0     H98260   6.136   3.508  10.551  2.5425 -1.4055  0.8185
  728MOL0     H98261   6.016   3.520  10.688 -1.9130 -1.1765 -0.5839
  728MOL0     H98262   7.028   3.387  10.533  0.1260 -1.8969 -0.6184
  728MOL0     H98263   7.237   3.482  10.472  0.4448 -0.5723 -0.5339
  728MOL0     H98264   7.628   3.323  10.169  2.4161 -0.8240  0.2872
  728MOL0     H98265   7.851   3.389  10.188 -2.2484 -0.5073 -0.7508
  728MOL0     H98266   9.523   4.070  10.664 -0.3441 -0.6301 -1.4732
  728MOL0     H98267   9.707   4.221  10.705 -1.5014 -0.5957  3.8148
  728MOL0     H98268  10.098   4.341  10.618 -0.4946  1.0143 -0.5148
  728MOL0     H98269  10.228   4.544  10.642 -2.1826 -1.1292 -1.9531
  728MOL0     H98270  10.363   4.832  10.947  2.5345  0.0153 -0.4826
  728MOL0     H98271  10.315   4.703  11.059  1.3863 -1.5629  0.2345
  728MOL0     H98272  10.502   4.563  10.946 -0.4366 -0.7480 -0.1228
  728MOL0     H98273  10.548   4.674  11.080 -0.9393 -1.4644  1.3469
  728MOL0     H98274  10.548   4.773  10.787 -1.0127 -1.4586 -0.9555
  728MOL0     H98275  10.677   4.671  10.834 -2.1787 -1.9577 -1.8431
  728MOL0     H98276  10.599   4.922  11.020  0.7375  0.4370 -0.8375
  728MOL0     H98277  10.684   4.953  10.882  2.1208  0.8059  1.0098
  728MOL0     H98278  10.998   4.783  11.124 -0.5909 -1.6236 -0.1791
  728MOL0     H98279  10.165   4.529  11.070 -2.3221  2.6268  0.1452
  728MOL0     H98280  10.045   4.340  11.052  0.5616 -2.1481  0.7229
  729MOL0     O98281   4.256   1.829   9.666  0.0379  0.0320 -0.4876
  729MOL0     C98282   4.315   1.737   9.728 -0.6819 -0.4397  0.2576
  729MOL0     O98283   4.261   1.648   9.812 -0.4533 -0.8442 -0.1595
  729MOL0     C98284   4.127   1.655   9.839 -0.0075  0.5423 -0.8096
  729MOL0     C98285   4.082   1.681   9.970  0.5510  0.4508  0.0704
  729MOL0     C98286   3.951   1.707   9.993  0.2701 -0.4087  0.5934
  729MOL0     C98287   3.854   1.680   9.898 -0.3069 -1.0228  0.1435
  729MOL0     O98288   3.715   1.695   9.923 -0.2068  0.3772  0.1181
  729MOL0     C98289   3.669   1.675  10.060 -0.4608 -0.3403  0.9390
  729MOL0     C98290   3.518   1.633  10.062  0.3667 -0.0670  0.4963
  729MOL0     C98291   3.435   1.753  10.009  1.1674  0.4697  0.2135
  729MOL0     C98292   3.285   1.713  10.016  0.2681  0.8147  0.5810
  729MOL0     C98293   3.201   1.808   9.924  0.0522 -0.1181  0.4574
  729MOL0     C98294   3.046   1.787   9.930 -0.2362  0.3000  0.1265
  729MOL0     C98295   2.966   1.881   9.835 -0.1582  0.0997 -0.2730
  729MOL0     C98296   2.814   1.854   9.855 -0.3704  0.4238 -0.1397
  729MOL0     N98297   2.730   1.954   9.786  0.6613  0.2550  0.2567
  729MOL0     C98298   2.663   1.944   9.665  0.1187  0.2381 -0.8980
  729MOL0     C98299   2.592   2.062   9.669 -0.4721 -0.2595  0.4347
  729MOL0     C98300   2.492   2.100   9.565 -0.3854  1.0780  0.3420
  729MOL0     C98301   2.363   2.073   9.632 -0.5069  0.0745  0.4515
  729MOL0     C98302   2.293   2.190   9.698 -0.4739 -0.3641 -0.7303
  729MOL0     C98303   2.161   2.161   9.775  0.6842 -0.1260  0.4462
  729MOL0     O98304   2.083   2.078   9.690 -0.6487  0.1397  0.0683
  729MOL0     C98305   1.963   2.036   9.730  0.2241 -0.0910  0.1229
  729MOL0     C98306   1.914   2.048   9.855 -0.7501 -0.4500 -0.8281
  729MOL0     C98307   1.801   1.995   9.907  0.1948  1.0798 -0.4834
  729MOL0     C98308   1.781   2.015  10.059 -0.4345 -0.2758 -0.1540
  729MOL0     C98309   1.711   1.942   9.812 -0.2986 -1.0875 -0.4425
  729MOL0     C98310   1.572   1.910   9.841  0.2830  0.0841  0.1492
  729MOL0     O98311   1.498   1.895   9.732  0.3559  0.4773 -0.0920
  729MOL0     C98312   1.366   1.852   9.747 -0.1738 -0.3468 -0.2565
  729MOL0     C98313   1.323   1.723   9.719 -0.4728 -0.6868 -0.7931
  729MOL0     C98314   1.185   1.686   9.742 -0.1814  0.1390  0.7941
  729MOL0     C98315   1.093   1.775   9.793  1.4737 -0.4984 -0.3182
  729MOL0     O98316   0.968   1.717   9.830 -0.3628 -0.2148 -0.2070
  729MOL0     C98317   0.917   1.751   9.957  0.5446  0.0497  0.4991
  729MOL0     C98318   0.779   1.687   9.963 -0.0095 -0.4996 -0.1416
  729MOL0     C98319   0.685   1.757   9.860  0.1213 -0.3536 -0.4458
  729MOL0     C98320   0.535   1.767   9.898  0.1847 -0.1537 -0.3387
  729MOL0     C98321   0.464   1.873   9.812 -1.0353  0.7478 -0.4991
  729MOL0     C98322   0.316   1.883   9.834  0.0290  0.3322 -0.2595
  729MOL0     C98323   0.268   2.000   9.755 -0.2372 -0.5036  0.1750
  729MOL0     C98324   0.125   2.047   9.786 -0.7630 -0.2152 -0.3441
  729MOL0    Cl98325   0.071   2.136   9.645  0.2833 -0.0013 -0.0205
  729MOL0     C98326   1.130   1.906   9.814 -0.4325 -0.2974  0.3831
  729MOL0     C98327   1.265   1.939   9.795  0.3359 -0.3318  0.5623
  729MOL0     O98328   1.540   1.871   9.952 -0.6688 -0.3970 -0.0126
  729MOL0     C98329   1.756   1.925   9.680 -1.5255  0.3565 -0.4314
  729MOL0     C98330   1.882   1.970   9.644  0.9026 -0.3636  0.9298
  729MOL0     N98331   2.623   2.133   9.786 -0.0770 -0.5614  0.6792
  729MOL0     N98332   2.710   2.067   9.848  0.2105 -0.2879 -0.1698
  729MOL0     C98333   3.901   1.634   9.778 -0.4768  0.1549  0.1608
  729MOL0     C98334   4.035   1.620   9.744 -0.0752  0.4717 -0.3938
  729MOL0     C98335   4.465   1.734   9.705  0.1326  0.4285 -0.2051
  729MOL0     C98336   4.557   1.655   9.779  0.5090 -0.6259 -0.4477
  729MOL0     C98337   4.688   1.653   9.745  0.2626  0.3518  0.2031
  729MOL0     C98338   4.739   1.737   9.650 -0.5076 -0.2188 -0.5403
  729MOL0     O98339   4.873   1.721   9.641  0.4210 -0.2310  0.1864
  729MOL0     C98340   4.936   1.828   9.571 -0.1501 -0.4682  0.7351
  729MOL0     C98341   5.083   1.844   9.631  0.4722 -0.3993  0.3318
  729MOL0     C98342   5.163   1.951   9.545  0.3231  0.6551 -0.4817
  729MOL0     C98343   5.310   1.948   9.574 -0.1587  0.2639 -0.6288
  729MOL0     C98344   5.347   1.977   9.716  0.1870  0.8401 -0.1564
  729MOL0     C98345   5.393   1.979   9.832  0.4504  0.6641  0.1015
  729MOL0     C98346   4.658   1.829   9.578  0.3742  0.0966  0.8711
  729MOL0     C98347   4.515   1.827   9.606  0.4994 -0.2568 -0.3778
  729MOL0     H98348   4.155   1.703  10.047 -1.6615  4.3111  1.3526
  729MOL0     H98349   3.910   1.749  10.084  0.1730 -0.7126  0.6898
  729MOL0     H98350   3.743   1.606  10.101 -0.5311 -0.1489  1.3961
  729MOL0     H98351   3.677   1.771  10.112  4.0004  0.2714 -0.5040
  729MOL0     H98352   3.485   1.545  10.006 -2.6014 -0.8424  3.1511
  729MOL0     H98353   3.488   1.616  10.165  0.5812  1.1742  0.7838
  729MOL0     H98354   3.451   1.849  10.059 -0.7781 -0.2120  2.3356
  729MOL0     H98355   3.474   1.768   9.908  1.7657 -0.2010  0.3357
  729MOL0     H98356   3.267   1.616   9.970 -0.5934  1.7145 -1.0451
  729MOL0     H98357   3.240   1.704  10.115 -2.6605  1.4317 -0.5895
  729MOL0     H98358   3.227   1.909   9.956 -4.8607  1.2530  0.9474
  729MOL0     H98359   3.232   1.796   9.820  0.3928 -0.4644  0.5978
  729MOL0     H98360   3.031   1.685   9.894  0.4388  0.3654 -0.3482
  729MOL0     H98361   3.018   1.810  10.034 -1.0075  1.7770 -0.3808
  729MOL0     H98362   2.980   1.984   9.870  2.5543 -0.8416  1.7627
  729MOL0     H98363   2.999   1.868   9.731 -2.3862 -4.0662 -0.6588
  729MOL0     H98364   2.798   1.876   9.961 -1.2180 -0.2124 -0.1271
  729MOL0     H98365   2.773   1.753   9.849  1.0995 -0.3909  2.1023
  729MOL0     H98366   2.672   1.870   9.586  0.0794  1.9339 -2.5606
  729MOL0     H98367   2.493   2.201   9.522  0.1541  0.9148 -0.0379
  729MOL0     H98368   2.506   2.035   9.478 -1.8321 -2.3688  2.4961
  729MOL0     H98369   2.377   1.987   9.698 -2.3405 -1.0511 -0.5338
  729MOL0     H98370   2.297   2.029   9.556  0.3306  1.3304 -1.0546
  729MOL0     H98371   2.282   2.268   9.622  4.3231  0.5359 -0.8060
  729MOL0     H98372   2.360   2.238   9.770 -1.2161  0.6677 -0.7063
  729MOL0     H98373   2.103   2.253   9.792  1.0628  0.1493  0.2791
  729MOL0     H98374   2.185   2.122   9.874  1.3143  0.9503  0.7429
  729MOL0     H98375   1.966   2.108   9.929 -1.0009 -1.5821  0.2964
  729MOL0     H98376   1.684   2.063  10.075  1.0152  1.7229  4.4215
  729MOL0     H98377   1.785   1.916  10.104 -0.4529  0.2390  1.0276
  729MOL0     H98378   1.862   2.071  10.107 -1.9727  2.4383 -0.4772
  729MOL0     H98379   1.407   1.662   9.687  1.4485  0.3490  1.9087
  729MOL0     H98380   1.155   1.584   9.723 -1.4000  0.9713 -2.3923
  729MOL0     H98381   0.971   1.698  10.035  1.2843 -0.6165 -0.4408
  729MOL0     H98382   0.916   1.859   9.975  1.0496  0.5829 -2.1700
  729MOL0     H98383   0.790   1.581   9.936 -1.5644 -0.8384  0.4520
  729MOL0     H98384   0.733   1.696  10.062  1.2443  3.0315  0.2508
  729MOL0     H98385   0.698   1.710   9.762 -0.5065  0.0755 -0.7424
  729MOL0     H98386   0.717   1.861   9.851  1.7899 -0.6905  0.9374
  729MOL0     H98387   0.474   1.677   9.890 -0.3127 -0.1638  2.5716
  729MOL0     H98388   0.534   1.808  10.000  3.3109 -0.9942  0.1411
  729MOL0     H98389   0.485   1.853   9.706 -0.7123 -1.0344 -0.1400
  729MOL0     H98390   0.515   1.965   9.838  1.8556 -1.1889  1.2785
  729MOL0     H98391   0.265   1.790   9.807  1.9659 -1.0265  0.4805
  729MOL0     H98392   0.295   1.901   9.940  0.7163  1.3522 -0.2748
  729MOL0     H98393   0.273   1.970   9.650  2.3828  2.3156 -0.6155
  729MOL0     H98394   0.331   2.086   9.777 -0.3930 -0.7445  1.7068
  729MOL0     H98395   0.125   2.110   9.875 -1.8248 -1.1463  0.3281
  729MOL0     H98396   0.053   1.967   9.804 -0.3781 -0.3602  0.5579
  729MOL0     H98397   1.061   1.981   9.852  0.3977  1.9707 -2.2666
  729MOL0     H98398   1.289   2.044   9.814 -1.2925  0.0054  0.8843
  729MOL0     H98399   1.691   1.867   9.616 -1.8020 -1.1296  1.1546
  729MOL0     H98400   1.910   1.950   9.541 -2.2472  2.0923 -0.5591
  729MOL0     H98401   3.834   1.615   9.694  1.1058  0.4455 -1.2278
  729MOL0     H98402   4.080   1.572   9.658 -1.1241 -0.4052 -0.4920
  729MOL0     H98403   4.530   1.583   9.856  0.5398 -1.6825 -1.3950
  729MOL0     H98404   4.732   1.573   9.805 -0.5559 -0.1977  0.0994
  729MOL0     H98405   4.921   1.804   9.465  1.4441  1.4200  0.0220
  729MOL0     H98406   4.885   1.922   9.593  2.2816  1.2425 -0.4905
  729MOL0     H98407   5.137   1.751   9.614  1.0339 -0.0467  0.1762
  729MOL0     H98408   5.073   1.881   9.733  0.9389 -1.9338  0.9586
  729MOL0     H98409   5.125   2.053   9.555  1.5798  1.2416 -1.3774
  729MOL0     H98410   5.144   1.936   9.438  1.8716  2.3900 -1.0630
  729MOL0     H98411   5.362   2.012   9.503  3.0667  1.4182  2.4891
  729MOL0     H98412   5.355   1.849   9.559  0.4481  0.6885 -1.7190
  729MOL0     H98413   5.417   1.967   9.936 -2.3385 -2.1603  0.6046
  729MOL0     H98414   4.688   1.909   9.511 -0.2811  0.9760  1.5998
  729MOL0     H98415   4.465   1.909   9.556  1.0186  1.5082  1.8259
  730MOL0     O98416   8.793   5.630   4.293  0.3827 -0.1984  0.0230
  730MOL0     C98417   8.856   5.739   4.291  1.0923 -0.4745  0.4097
  730MOL0     O98418   8.812   5.859   4.348  0.7600 -0.6253 -0.3902
  730MOL0     C98419   8.690   5.846   4.415  0.2407 -0.2320  0.5848
  730MOL0     C98420   8.692   5.796   4.544 -0.7570 -0.9266 -0.3649
  730MOL0     C98421   8.578   5.750   4.607  1.0579  0.5286  0.4991
  730MOL0     C98422   8.452   5.774   4.554 -0.5602 -1.0498  0.1722
  730MOL0     O98423   8.349   5.734   4.638  0.6115 -0.1217 -0.0809
  730MOL0     C98424   8.231   5.705   4.569  0.4873 -0.7240 -0.1636
  730MOL0     C98425   8.122   5.671   4.686 -0.7224 -0.3775  0.1471
  730MOL0     C98426   7.978   5.647   4.626  0.5346 -0.0766  0.3737
  730MOL0     C98427   7.866   5.632   4.734 -0.0297 -0.2928 -0.5283
  730MOL0     C98428   7.734   5.612   4.677  0.2479 -0.4312 -0.5503
  730MOL0     C98429   7.674   5.735   4.596 -0.1535 -0.4187 -0.5348
  730MOL0     C98430   7.529   5.717   4.551 -0.1070  0.2925  0.7887
  730MOL0     C98431   7.483   5.854   4.504 -0.2103 -0.4000  0.2238
  730MOL0     N98432   7.352   5.820   4.433  0.6808  0.1093 -0.0569
  730MOL0     C98433   7.234   5.820   4.495 -0.6080 -0.4244  0.7458
  730MOL0     C98434   7.143   5.775   4.404 -1.0790  0.9216 -0.5109
  730MOL0     C98435   6.997   5.750   4.432  0.7429  0.2411  0.6869
  730MOL0     C98436   6.921   5.879   4.452  0.9123 -1.0367 -0.4589
  730MOL0     C98437   6.769   5.884   4.482  1.3260  0.2737 -0.2427
  730MOL0     C98438   6.674   5.816   4.375 -0.6935 -0.8584 -0.5602
  730MOL0     O98439   6.545   5.788   4.428 -0.7930 -0.2074  0.6717
  730MOL0     C98440   6.440   5.874   4.407 -0.0361 -0.5479  0.8449
  730MOL0     C98441   6.446   5.996   4.344 -0.2470 -1.0735  0.3650
  730MOL0     C98442   6.325   6.072   4.312  0.0938 -0.3970  0.5296
  730MOL0     C98443   6.355   6.197   4.215  0.0865  0.1355  0.0595
  730MOL0     C98444   6.201   6.030   4.367  0.2163  0.1492  0.2967
  730MOL0     C98445   6.071   6.097   4.355 -0.2079  0.5114  0.2877
  730MOL0     O98446   5.977   6.074   4.457 -0.0040 -0.5371 -0.3233
  730MOL0     C98447   5.861   6.149   4.452 -0.0888 -0.7280 -0.3872
  730MOL0     C98448   5.863   6.281   4.478  0.7089  0.3373 -0.6994
  730MOL0     C98449   5.748   6.363   4.456  0.0063 -0.3019 -0.4196
  730MOL0     C98450   5.632   6.303   4.417  0.1766  0.7052 -0.5684
  730MOL0     O98451   5.514   6.368   4.388 -0.1227 -0.4634  0.3253
  730MOL0     C98452   5.498   6.501   4.423 -0.3564 -0.1291  0.4708
  730MOL0     C98453   5.357   6.536   4.380  0.2518 -0.3009 -0.8147
  730MOL0     C98454   5.322   6.679   4.437 -0.6686 -1.0232  0.5615
  730MOL0     C98455   5.174   6.698   4.422 -0.4484 -0.4086  0.6211
  730MOL0     C98456   5.144   6.850   4.442  0.4492 -0.3466  0.5559
  730MOL0     C98457   4.990   6.881   4.419 -1.1905 -0.4130 -0.3371
  730MOL0     C98458   4.940   7.017   4.415 -0.8422  1.1284  0.1220
  730MOL0     C98459   4.797   7.034   4.384 -0.3199 -0.1360 -0.7392
  730MOL0    Cl98460   4.768   7.208   4.361  0.0669 -0.2581  0.0669
  730MOL0     C98461   5.628   6.162   4.399 -0.3488 -0.4144  1.1773
  730MOL0     C98462   5.745   6.087   4.415  0.3390 -0.3880 -0.2877
  730MOL0     O98463   6.053   6.178   4.261  0.3094 -0.1675  0.8225
  730MOL0     C98464   6.205   5.930   4.460 -0.1171 -0.2863  0.5875
  730MOL0     C98465   6.319   5.848   4.472  0.0846  0.3584 -0.0229
  730MOL0     N98466   7.213   5.736   4.298 -0.2356  0.5299  0.0307
  730MOL0     N98467   7.337   5.773   4.306 -0.0728 -0.8271 -0.3316
  730MOL0     C98468   8.445   5.832   4.420 -0.2912 -0.4561 -1.3237
  730MOL0     C98469   8.561   5.868   4.354  0.5605 -0.4066  0.1564
  730MOL0     C98470   8.985   5.744   4.226  0.1013 -0.2110 -0.6026
  730MOL0     C98471   9.079   5.851   4.257 -0.6711 -1.1251  0.1797
  730MOL0     C98472   9.202   5.856   4.199 -0.1361  0.2702 -0.6170
  730MOL0     C98473   9.235   5.767   4.095  0.0450  0.2642  0.4056
  730MOL0     O98474   9.357   5.767   4.027 -0.3096  0.4214 -0.0735
  730MOL0     C98475   9.451   5.879   4.060  0.0730  0.7360  0.7195
  730MOL0     C98476   9.561   5.875   3.952  0.2972  0.1717 -0.2763
  730MOL0     C98477   9.504   5.888   3.805  0.3658 -0.1263  0.7268
  730MOL0     C98478   9.619   5.917   3.713  0.3850 -0.2049  1.1951
  730MOL0     C98479   9.564   5.984   3.593 -0.4023 -0.6652  0.3426
  730MOL0     C98480   9.522   6.045   3.489  0.3958 -0.5729 -1.2276
  730MOL0     C98481   9.142   5.667   4.064  0.8213 -0.1158 -0.2641
  730MOL0     C98482   9.022   5.650   4.135 -0.9087 -0.8337 -0.3807
  730MOL0     H98483   8.788   5.780   4.593 -0.0618  0.0890 -1.3433
  730MOL0     H98484   8.580   5.710   4.708 -0.1284 -1.4622 -0.2092
  730MOL0     H98485   8.199   5.786   4.503  1.7670 -1.0520 -1.2217
  730MOL0     H98486   8.265   5.622   4.506 -1.1685 -1.9981  0.5356
  730MOL0     H98487   8.169   5.587   4.739  0.3170  0.9143  1.3631
  730MOL0     H98488   8.120   5.747   4.765  1.9247 -0.9258  0.8406
  730MOL0     H98489   7.953   5.722   4.551  0.0422  0.3833  0.9894
  730MOL0     H98490   7.970   5.554   4.569 -5.6356  0.2313  0.0799
  730MOL0     H98491   7.885   5.553   4.807 -1.1013  0.2131  0.3310
  730MOL0     H98492   7.859   5.724   4.794  1.9620 -0.4071 -0.0688
  730MOL0     H98493   7.744   5.528   4.607  2.7171 -1.1283  0.5370
  730MOL0     H98494   7.666   5.578   4.756 -0.7759  0.2195 -1.1211
  730MOL0     H98495   7.684   5.813   4.673 -0.4509 -1.4344  0.5508
  730MOL0     H98496   7.743   5.763   4.516  3.4003 -2.8891  1.3877
  730MOL0     H98497   7.525   5.649   4.466  1.7156 -1.0600  1.7143
  730MOL0     H98498   7.469   5.675   4.632  0.0613  0.2257  0.8789
  730MOL0     H98499   7.559   5.897   4.438 -1.3526  0.6183 -0.5001
  730MOL0     H98500   7.473   5.917   4.592  0.3551 -0.5323  0.3816
  730MOL0     H98501   7.212   5.842   4.599 -0.6374 -0.3062  0.7148
  730MOL0     H98502   6.956   5.682   4.357  1.7840 -0.8197  1.0548
  730MOL0     H98503   6.989   5.711   4.534 -1.6114 -0.6307  0.2324
  730MOL0     H98504   6.928   5.934   4.358 -4.2567  1.7367  0.3842
  730MOL0     H98505   6.969   5.937   4.531 -2.2482 -0.3081  1.1078
  730MOL0     H98506   6.733   5.986   4.497 -2.6368 -0.5982 -2.3443
  730MOL0     H98507   6.749   5.833   4.576 -2.0327 -0.9487 -1.4497
  730MOL0     H98508   6.715   5.719   4.343 -0.1160  0.0367 -2.6981
  730MOL0     H98509   6.673   5.876   4.283 -0.8794 -1.4594 -0.9597
  730MOL0     H98510   6.541   6.029   4.304 -0.5269 -0.5287  0.1280
  730MOL0     H98511   6.441   6.181   4.149 -0.7357  0.9372 -1.2598
  730MOL0     H98512   6.268   6.221   4.153 -1.3680  0.8484  2.2733
  730MOL0     H98513   6.369   6.293   4.264  1.0750  1.5744 -2.8026
  730MOL0     H98514   5.951   6.332   4.517  2.1490 -2.3484 -0.2095
  730MOL0     H98515   5.750   6.471   4.468 -2.7189 -0.0024 -1.8329
  730MOL0     H98516   5.524   6.509   4.529  4.8734  0.3385 -0.5636
  730MOL0     H98517   5.571   6.561   4.367  0.0140 -1.2354 -0.2697
  730MOL0     H98518   5.344   6.519   4.273  1.1638  0.4514 -1.0497
  730MOL0     H98519   5.283   6.467   4.423  2.1860  0.8372  5.2611
  730MOL0     H98520   5.381   6.746   4.373 -1.3341 -0.4423  0.5427
  730MOL0     H98521   5.349   6.705   4.539  0.7222 -0.0651 -0.0268
  730MOL0     H98522   5.145   6.666   4.321  1.7594 -0.8774  0.0883
  730MOL0     H98523   5.112   6.646   4.496 -1.7675 -0.9785 -0.8240
  730MOL0     H98524   5.203   6.900   4.365 -0.3421 -1.4098 -0.7840
  730MOL0     H98525   5.158   6.885   4.544  0.4308 -0.4160  0.5820
  730MOL0     H98526   4.977   6.841   4.318  2.2234 -1.1515 -0.6072
  730MOL0     H98527   4.933   6.821   4.489  2.3188 -1.9113  1.5107
  730MOL0     H98528   5.001   7.078   4.348 -0.7112  1.1599  0.2677
  730MOL0     H98529   4.949   7.055   4.518 -0.1124 -0.6254  0.7355
  730MOL0     H98530   4.731   7.012   4.468  0.3470 -0.3131 -0.2605
  730MOL0     H98531   4.756   6.973   4.303 -1.0802 -0.9779  0.2639
  730MOL0     H98532   5.540   6.115   4.356  0.5936 -0.4499 -0.8655
  730MOL0     H98533   5.745   5.986   4.375 -0.7004 -0.0487 -1.1692
  730MOL0     H98534   6.121   5.895   4.519 -0.6840 -0.5323 -0.3436
  730MOL0     H98535   6.311   5.758   4.532 -1.7304  0.5573  0.0852
  730MOL0     H98536   8.346   5.843   4.377 -0.3271  3.0324 -0.6289
  730MOL0     H98537   8.551   5.903   4.252  2.8267  0.7689  0.2724
  730MOL0     H98538   9.056   5.927   4.331 -0.1979 -0.6550 -0.1559
  730MOL0     H98539   9.274   5.932   4.228 -0.0017  1.0598 -2.8596
  730MOL0     H98540   9.399   5.976   4.057 -2.8117 -0.7075  0.3163
  730MOL0     H98541   9.488   5.850   4.159 -0.1842 -0.8520  0.3732
  730MOL0     H98542   9.623   5.786   3.962 -1.1254 -0.8817 -0.4165
  730MOL0     H98543   9.625   5.960   3.978 -0.2858 -0.4543  3.9088
  730MOL0     H98544   9.436   5.974   3.811 -0.2676 -0.6546  1.2372
  730MOL0     H98545   9.447   5.800   3.774  0.7580 -0.3262  0.5720
  730MOL0     H98546   9.675   5.830   3.680  0.3216 -0.8047  2.6063
  730MOL0     H98547   9.685   5.991   3.759  1.3861  0.8688 -1.7301
  730MOL0     H98548   9.479   6.111   3.416  2.0361  0.0470 -1.6665
  730MOL0     H98549   9.163   5.591   3.989 -1.9324 -1.3078  0.0355
  730MOL0     H98550   8.967   5.556   4.134 -0.5947 -1.0536  0.8535
  731MOL0     O98551   6.701   2.783   0.409 -0.8706  0.8595  0.8573
  731MOL0     C98552   6.797   2.796   0.487 -0.1344 -0.4404 -0.5493
  731MOL0     O98553   6.835   2.922   0.535 -0.1203 -0.0504  0.2691
  731MOL0     C98554   6.746   3.022   0.525  0.2533  0.0625 -0.4365
  731MOL0     C98555   6.800   3.152   0.508  0.5232 -0.5218 -0.2776
  731MOL0     C98556   6.712   3.259   0.523  1.1249 -0.4712 -0.7677
  731MOL0     C98557   6.573   3.240   0.547  0.1823  1.0329  0.1400
  731MOL0     O98558   6.488   3.340   0.553  0.1990 -0.0410 -0.1075
  731MOL0     C98559   6.518   3.479   0.575 -0.5281  0.3294 -0.1783
  731MOL0     C98560   6.407   3.521   0.672 -0.3935  0.0106  0.6433
  731MOL0     C98561   6.259   3.502   0.621  0.1430 -0.0685 -0.1473
  731MOL0     C98562   6.173   3.558   0.737  0.2804 -0.0519  0.5624
  731MOL0     C98563   6.031   3.586   0.683  0.3829 -0.0127  0.1261
  731MOL0     C98564   5.955   3.669   0.791 -0.2380 -0.0936  0.0033
  731MOL0     C98565   5.817   3.717   0.739  0.3067  0.0678 -0.8787
  731MOL0     C98566   5.745   3.824   0.820  0.3389  0.2150  0.2941
  731MOL0     N98567   5.758   3.799   0.966 -0.1570 -1.0155  0.3420
  731MOL0     C98568   5.686   3.700   1.032 -0.3835 -0.7221  0.2065
  731MOL0     C98569   5.702   3.717   1.166 -0.1649 -0.0364 -0.2305
  731MOL0     C98570   5.627   3.634   1.272  0.5927  0.8243  0.0650
  731MOL0     C98571   5.474   3.629   1.269 -0.2960  0.3863 -0.0700
  731MOL0     C98572   5.400   3.514   1.191 -0.8653 -0.4302 -0.1240
  731MOL0     C98573   5.254   3.521   1.209 -0.3331 -0.1632 -0.5392
  731MOL0     O98574   5.202   3.649   1.162 -0.5600 -0.8927  0.2698
  731MOL0     C98575   5.081   3.644   1.094 -0.5922 -0.2499 -0.1846
  731MOL0     C98576   4.980   3.545   1.111  0.3653 -0.4963 -0.5360
  731MOL0     C98577   4.858   3.548   1.041  0.9091 -0.2244 -0.0660
  731MOL0     C98578   4.783   3.414   1.066  1.4154 -0.4382  0.5897
  731MOL0     C98579   4.824   3.664   0.959  1.0269 -0.5955 -1.2583
  731MOL0     C98580   4.699   3.682   0.884 -0.0915  0.2888  0.8374
  731MOL0     O98581   4.665   3.804   0.842 -1.0052 -0.1021  0.0091
  731MOL0     C98582   4.542   3.815   0.782 -0.9870 -0.7260  0.2803
  731MOL0     C98583   4.426   3.815   0.854  0.4043  0.1615  0.3649
  731MOL0     C98584   4.294   3.827   0.790 -0.3304 -0.3123 -0.4773
  731MOL0     C98585   4.294   3.872   0.653  0.2904  0.5278 -0.1809
  731MOL0     O98586   4.170   3.898   0.594  0.1423 -0.7943  0.0003
  731MOL0     C98587   4.154   3.906   0.452 -0.3564 -0.1414 -0.0624
  731MOL0     C98588   4.009   3.894   0.410 -0.1502 -0.4112 -0.2865
  731MOL0     C98589   3.995   3.869   0.260  0.0185  0.3004 -0.1043
  731MOL0     C98590   4.033   3.981   0.173 -0.2261  0.4242 -0.6822
  731MOL0     C98591   4.078   3.944   0.037  0.1059  0.6580  1.0713
  731MOL0     C98592   4.229   3.909   0.035 -0.2794 -0.2463  0.3326
  731MOL0     C98593   4.277   3.769   0.080 -0.4612  0.0899 -0.8668
  731MOL0     C98594   4.424   3.748   0.042  0.3509  0.2835  0.8100
  731MOL0    Cl98595   4.519   3.834   0.158 -0.0016  0.0176  0.6452
  731MOL0     C98596   4.418   3.890   0.584  0.0679  0.3585 -0.7864
  731MOL0     C98597   4.539   3.851   0.649 -0.2105 -0.3788  1.1549
  731MOL0     O98598   4.635   3.580   0.862  0.4929 -0.4234 -0.2345
  731MOL0     C98599   4.914   3.774   0.959  0.4411  0.1810  0.3794
  731MOL0     C98600   5.041   3.766   1.025 -0.2173  0.2043 -0.0480
  731MOL0     N98601   5.785   3.825   1.182 -0.0616 -0.1961 -0.0263
  731MOL0     N98602   5.819   3.872   1.068 -1.0934 -0.2574  0.6575
  731MOL0     C98603   6.521   3.109   0.571  0.2977 -0.6758 -0.3125
  731MOL0     C98604   6.605   2.996   0.563 -0.1802 -0.3202  1.0232
  731MOL0     C98605   6.876   2.683   0.550 -0.0958 -0.9821 -0.1106
  731MOL0     C98606   6.976   2.703   0.655  1.4594  0.0772 -0.1673
  731MOL0     C98607   7.038   2.586   0.713  0.0421 -0.9073  0.0495
  731MOL0     C98608   7.010   2.455   0.674 -0.1674 -0.0291  0.3713
  731MOL0     O98609   7.071   2.338   0.723 -0.0463  0.6471  0.3171
  731MOL0     C98610   7.177   2.345   0.824  0.1374  0.4270 -0.1422
  731MOL0     C98611   7.222   2.210   0.877 -0.4600  0.2512 -0.0523
  731MOL0     C98612   7.341   2.222   0.970 -0.3333 -0.5044  0.6175
  731MOL0     C98613   7.292   2.238   1.116 -0.6494  0.1271  0.0678
  731MOL0     C98614   7.429   2.261   1.186  0.4953  0.7694 -0.0473
  731MOL0     C98615   7.536   2.288   1.236  0.0773  1.0088 -0.5840
  731MOL0     C98616   6.921   2.445   0.565 -0.4939  0.1425 -0.0631
  731MOL0     C98617   6.853   2.550   0.504  0.4695 -0.5004 -0.2019
  731MOL0     H98618   6.904   3.171   0.484 -0.1009  0.6745 -2.2883
  731MOL0     H98619   6.742   3.362   0.503  0.5732 -0.2662 -0.5717
  731MOL0     H98620   6.616   3.486   0.622 -0.2426 -0.4818 -0.6305
  731MOL0     H98621   6.510   3.548   0.490 -2.7045  3.3666  2.2286
  731MOL0     H98622   6.413   3.444   0.750  0.3790  0.2322  0.8200
  731MOL0     H98623   6.422   3.623   0.708  2.4003 -0.1011  0.0302
  731MOL0     H98624   6.247   3.550   0.523 -0.9992  0.5903  0.3050
  731MOL0     H98625   6.236   3.395   0.620 -0.0056 -0.0580  1.1574
  731MOL0     H98626   6.175   3.488   0.821  1.1822 -1.6730 -0.7586
  731MOL0     H98627   6.216   3.658   0.747  1.5296 -0.3560 -1.2134
  731MOL0     H98628   6.045   3.649   0.595 -2.0923  0.4989  0.0251
  731MOL0     H98629   5.980   3.492   0.660  0.8609  0.2017 -1.9601
  731MOL0     H98630   5.957   3.612   0.885  2.4431  2.3187  1.5768
  731MOL0     H98631   6.000   3.765   0.818 -0.4153 -0.0625  0.1886
  731MOL0     H98632   5.825   3.758   0.638 -1.3802  1.0841 -0.6365
  731MOL0     H98633   5.754   3.629   0.753  0.5713  0.2102  1.6718
  731MOL0     H98634   5.639   3.820   0.796  0.7020 -0.5750 -1.2581
  731MOL0     H98635   5.787   3.920   0.788  3.2189 -0.9391  0.2497
  731MOL0     H98636   5.631   3.632   0.968  4.2541 -3.7219 -1.0222
  731MOL0     H98637   5.651   3.529   1.252 -4.6212 -0.5122 -0.4378
  731MOL0     H98638   5.670   3.672   1.365  0.7764  0.3786  0.1670
  731MOL0     H98639   5.435   3.726   1.236  0.0002 -0.1812 -2.3005
  731MOL0     H98640   5.442   3.616   1.373  0.3873  0.2101  0.1184
  731MOL0     H98641   5.426   3.412   1.220 -3.3911 -1.2367 -0.4521
  731MOL0     H98642   5.410   3.514   1.082  0.0561 -2.3306 -0.0945
  731MOL0     H98643   5.244   3.502   1.316 -1.3240  1.4068 -0.3215
  731MOL0     H98644   5.205   3.441   1.152  4.6895 -4.2741  0.1421
  731MOL0     H98645   4.995   3.464   1.181  1.4652  2.2613  2.7006
  731MOL0     H98646   4.851   3.331   1.089 -0.9915 -2.5286  0.6779
  731MOL0     H98647   4.721   3.425   1.155  0.8352 -0.1441  0.1590
  731MOL0     H98648   4.731   3.380   0.976  1.8042 -2.1469  0.9617
  731MOL0     H98649   4.436   3.796   0.960  0.2842 -0.8705  0.1987
  731MOL0     H98650   4.197   3.802   0.833 -0.0535  0.5421  0.7000
  731MOL0     H98651   4.199   3.999   0.416 -0.8362 -0.2215 -0.8946
  731MOL0     H98652   4.207   3.827   0.397 -0.7196  1.5407 -3.0738
  731MOL0     H98653   3.960   3.810   0.460 -0.7061  1.5772  2.7713
  731MOL0     H98654   3.953   3.985   0.437 -0.3687 -0.3978 -0.7724
  731MOL0     H98655   3.891   3.843   0.241 -0.8316  2.8316  0.6372
  731MOL0     H98656   4.070   3.790   0.250  1.7430  1.8115  0.2390
  731MOL0     H98657   3.940   4.038   0.174 -0.4383  0.0940  1.2820
  731MOL0     H98658   4.101   4.047   0.227 -1.7122  2.2782 -0.9880
  731MOL0     H98659   4.056   4.033  -0.023  0.6307  0.0684 -0.0308
  731MOL0     H98660   4.028   3.855  -0.002 -2.0851  1.9899  0.6973
  731MOL0     H98661   4.247   3.915  -0.073 -0.9510 -2.1611  0.0707
  731MOL0     H98662   4.287   3.990   0.079 -0.9464 -0.3187  1.3732
  731MOL0     H98663   4.225   3.685   0.034  2.6907 -2.3001 -0.3766
  731MOL0     H98664   4.267   3.764   0.189 -1.0754  1.2744 -0.8516
  731MOL0     H98665   4.448   3.771  -0.062 -0.4197 -3.4111 -0.3467
  731MOL0     H98666   4.446   3.642   0.055 -2.0269 -0.4644 -0.7221
  731MOL0     H98667   4.426   3.920   0.480  0.5615  0.7194 -0.6486
  731MOL0     H98668   4.635   3.851   0.597 -0.3664  1.2707  0.7977
  731MOL0     H98669   4.890   3.869   0.913 -4.4452 -1.0307 -0.0735
  731MOL0     H98670   5.110   3.848   1.010 -0.1663  1.2170  4.2811
  731MOL0     H98671   6.413   3.105   0.578  0.1295  0.6446 -1.6515
  731MOL0     H98672   6.562   2.898   0.579 -2.7065  0.7680  1.3498
  731MOL0     H98673   7.001   2.803   0.690  0.6871 -0.7017  2.8528
  731MOL0     H98674   7.105   2.594   0.798 -0.8175  2.9977  0.5487
  731MOL0     H98675   7.256   2.413   0.793 -0.9181 -0.1224 -4.8688
  731MOL0     H98676   7.128   2.390   0.910  0.2916 -0.4039  0.3903
  731MOL0     H98677   7.263   2.162   0.787 -0.6267  0.1079 -0.0513
  731MOL0     H98678   7.146   2.148   0.924 -0.7813  1.0485  0.4884
  731MOL0     H98679   7.403   2.306   0.937 -1.3107  0.8093  1.9525
  731MOL0     H98680   7.406   2.136   0.954  1.5539  0.5295  2.2049
  731MOL0     H98681   7.233   2.151   1.144 -2.2581  0.5104 -1.9455
  731MOL0     H98682   7.231   2.329   1.125  1.9914  2.0606 -0.1165
  731MOL0     H98683   7.632   2.293   1.282  0.6408 -0.1796 -1.5776
  731MOL0     H98684   6.905   2.339   0.547  1.3479 -0.3346  0.8917
  731MOL0     H98685   6.791   2.532   0.417  1.2381 -0.4577 -0.7696
  732MOL0     O98686   2.375   3.829   9.644  0.3875  0.0774  0.0262
  732MOL0     C98687   2.431   3.719   9.644  0.6387  0.0988  1.3286
  732MOL0     O98688   2.362   3.598   9.646 -0.0803 -0.3289 -0.5276
  732MOL0     C98689   2.225   3.583   9.625 -0.2099 -0.5992  0.1179
  732MOL0     C98690   2.129   3.684   9.651  0.2628  0.1755  0.1548
  732MOL0     C98691   1.990   3.668   9.633 -0.0765  1.1298  0.2204
  732MOL0     C98692   1.940   3.537   9.598  0.0662  0.1751 -0.3498
  732MOL0     O98693   1.803   3.529   9.591  1.0597  0.3649 -0.2746
  732MOL0     C98694   1.731   3.424   9.521 -0.7854  0.5622  0.3739
  732MOL0     C98695   1.652   3.334   9.610 -0.5125  0.4502 -0.0298
  732MOL0     C98696   1.515   3.295   9.564 -0.3901  0.8269 -0.9546
  732MOL0     C98697   1.444   3.190   9.654  0.7735  0.5384 -0.6469
  732MOL0     C98698   1.293   3.207   9.656  0.1490  0.6533 -0.0274
  732MOL0     C98699   1.228   3.118   9.759 -0.2741 -0.3587  0.2368
  732MOL0     C98700   1.078   3.124   9.775  0.5607 -0.1474  0.3667
  732MOL0     C98701   1.058   3.251   9.863 -0.1935 -0.3671  0.1267
  732MOL0     N98702   0.913   3.261   9.887 -0.6700 -0.8348  0.0882
  732MOL0     C98703   0.851   3.179   9.978 -0.5984 -0.4789 -0.1207
  732MOL0     C98704   0.724   3.180   9.939 -0.2510 -0.6121 -0.4700
  732MOL0     C98705   0.602   3.111  10.000  0.1163 -0.3722  0.7845
  732MOL0     C98706   0.597   3.139  10.157  0.6047 -0.6942 -0.0126
  732MOL0     C98707   0.470   3.215  10.201  1.3836 -0.5232  0.2262
  732MOL0     C98708   0.481   3.238  10.350 -0.4798  0.1401  0.7515
  732MOL0     O98709   0.363   3.316  10.397  0.1573 -0.4592 -0.1587
  732MOL0     C98710   0.259   3.242  10.448 -0.1213  0.1415 -0.2329
  732MOL0     C98711   0.273   3.162  10.561 -0.2139  0.3743  0.2873
  732MOL0     C98712   0.169   3.072  10.599 -0.1597 -1.0012  0.3623
  732MOL0     C98713   0.197   2.985  10.722 -0.4042  0.3168 -0.1181
  732MOL0     C98714   0.048   3.064  10.520  0.4227  0.4178  0.0779
  732MOL0     C98715  -0.066   2.979  10.550  0.4172 -0.8436 -0.2559
  732MOL0     O98716  -0.045   2.882  10.625 -0.3715  1.1477 -0.5162
  732MOL0     C98717  -0.130   2.782  10.649  0.1225  0.0946 -1.1390
  732MOL0     C98718  -0.229   2.730  10.567 -0.4407 -0.3077 -0.2772
  732MOL0     C98719  -0.321   2.641  10.615  0.4555 -0.3359 -0.3218
  732MOL0     C98720  -0.307   2.584  10.745  0.7477  0.2525  0.6192
  732MOL0     O98721  -0.395   2.490  10.779  0.2205 -0.7591 -0.9078
  732MOL0     C98722  -0.421   2.489  10.921  0.6676 -0.7541 -0.0106
  732MOL0     C98723  -0.563   2.427  10.941  0.5746  0.5889  0.5900
  732MOL0     C98724  -0.643   2.493  11.048  0.3500  0.0906 -0.1247
  732MOL0     C98725  -0.774   2.421  11.071  0.4367  0.3307 -0.5881
  732MOL0     C98726  -0.861   2.462  11.191 -0.0669  0.0582  0.3230
  732MOL0     C98727  -0.980   2.353  11.218 -0.4802  0.5220 -0.2280
  732MOL0     C98728  -1.067   2.414  11.325  0.7652  0.2948 -0.2763
  732MOL0     C98729  -1.167   2.308  11.385 -0.1166 -0.2003  0.7695
  732MOL0    Cl98730  -1.249   2.387  11.521  0.4400  0.3430 -0.0609
  732MOL0     C98731  -0.194   2.622  10.823  0.3355  0.7752  0.4642
  732MOL0     C98732  -0.109   2.721  10.769 -0.5163  0.1143  0.2895
  732MOL0     O98733  -0.169   3.012  10.491 -0.3470  0.7146 -0.6619
  732MOL0     C98734   0.033   3.156  10.410 -1.2944 -0.3120 -0.1325
  732MOL0     C98735   0.135   3.241  10.377 -0.0967  0.5131 -0.0012
  732MOL0     N98736   0.709   3.284   9.849  0.6781  0.7988 -0.8705
  732MOL0     N98737   0.821   3.319   9.804  0.2803 -0.1917 -0.8332
  732MOL0     C98738   2.031   3.425   9.583  0.1898 -0.2994  1.7947
  732MOL0     C98739   2.171   3.455   9.579 -0.5179  0.1666 -0.2811
  732MOL0     C98740   2.576   3.707   9.646 -0.2095  0.1187 -0.0056
  732MOL0     C98741   2.656   3.824   9.621  1.0080 -0.1572  0.1840
  732MOL0     C98742   2.797   3.810   9.622  0.5207 -0.2958  0.4148
  732MOL0     C98743   2.862   3.681   9.637 -0.5710 -1.1323 -0.8392
  732MOL0     O98744   2.995   3.672   9.613  0.3634 -0.4184  0.1099
  732MOL0     C98745   3.067   3.543   9.627 -0.0007 -0.4712 -0.4260
  732MOL0     C98746   3.216   3.558   9.583 -0.6757  0.4581  0.0277
  732MOL0     C98747   3.306   3.432   9.580  0.2547 -0.0444  0.3185
  732MOL0     C98748   3.446   3.462   9.520  0.0379 -0.0181 -0.6428
  732MOL0     C98749   3.438   3.482   9.365  0.2956 -0.4849 -0.4717
  732MOL0     C98750   3.436   3.512   9.246 -0.5764  0.4624 -0.5580
  732MOL0     C98751   2.780   3.567   9.661  0.1623  0.9981 -0.3189
  732MOL0     C98752   2.640   3.582   9.673 -0.3522  0.3201  0.0866
  732MOL0     H98753   2.144   3.785   9.687 -1.3470  0.1577  0.9389
  732MOL0     H98754   1.930   3.759   9.642 -0.9498  0.8785 -2.2688
  732MOL0     H98755   1.657   3.477   9.460  2.2036  3.3393 -1.2272
  732MOL0     H98756   1.802   3.373   9.455 -1.3121 -0.4064  0.5525
  732MOL0     H98757   1.716   3.246   9.621  3.8316  3.1169 -1.5158
  732MOL0     H98758   1.630   3.385   9.705 -2.9577 -1.2383  0.3964
  732MOL0     H98759   1.457   3.387   9.571 -2.4455 -0.3116 -1.8866
  732MOL0     H98760   1.514   3.255   9.462 -1.9258 -0.2190 -0.5692
  732MOL0     H98761   1.466   3.094   9.608  3.0004  1.5361 -1.8549
  732MOL0     H98762   1.476   3.187   9.759 -0.7157 -0.6112 -0.1875
  732MOL0     H98763   1.274   3.312   9.682 -0.1780  0.3158  1.1207
  732MOL0     H98764   1.240   3.187   9.562 -0.9967  0.0180  0.7281
  732MOL0     H98765   1.252   3.018   9.721 -3.1796 -1.5223  1.2189
  732MOL0     H98766   1.272   3.118   9.859  1.3806 -3.1535 -0.3728
  732MOL0     H98767   1.028   3.141   9.679  1.0205 -0.6933  0.0274
  732MOL0     H98768   1.030   3.037   9.821  0.6571  0.7329  2.2288
  732MOL0     H98769   1.098   3.342   9.817  1.7170 -1.5255 -0.6292
  732MOL0     H98770   1.108   3.237   9.960  0.4584  0.7286 -0.0324
  732MOL0     H98771   0.899   3.121  10.056  2.9190  1.7681 -0.3514
  732MOL0     H98772   0.507   3.150   9.960 -1.4441 -0.4323  4.1081
  732MOL0     H98773   0.603   3.003   9.989 -0.7973 -0.6209  2.7269
  732MOL0     H98774   0.686   3.195  10.188 -0.2419  0.4094  0.4803
  732MOL0     H98775   0.599   3.047  10.217 -0.7126 -0.5545  0.2758
  732MOL0     H98776   0.382   3.158  10.169  3.5050 -2.6185 -2.3091
  732MOL0     H98777   0.455   3.316  10.162  3.0270 -0.8693 -1.4423
  732MOL0     H98778   0.574   3.293  10.368 -1.9155  1.9444  3.3940
  732MOL0     H98779   0.482   3.144  10.405 -3.8894 -0.1939  0.4624
  732MOL0     H98780   0.366   3.174  10.617  1.6982  0.6414 -2.7156
  732MOL0     H98781   0.260   3.028  10.800 -0.3845 -1.9061  1.1943
  732MOL0     H98782   0.101   2.968  10.773 -0.0003 -0.6864  0.3313
  732MOL0     H98783   0.253   2.897  10.688 -0.9304  0.5350 -1.6016
  732MOL0     H98784  -0.232   2.775  10.468  2.3293 -1.4980 -1.0090
  732MOL0     H98785  -0.398   2.600  10.550 -0.0313  0.1437 -0.0507
  732MOL0     H98786  -0.353   2.423  10.975  1.0599  1.2029  2.0182
  732MOL0     H98787  -0.415   2.591  10.962  1.0118 -1.1935  1.0729
  732MOL0     H98788  -0.608   2.442  10.842  1.6266 -1.1479 -0.1977
  732MOL0     H98789  -0.573   2.320  10.962  0.1830  0.6821  0.8870
  732MOL0     H98790  -0.652   2.599  11.023 -0.4947  0.1537  0.4090
  732MOL0     H98791  -0.592   2.483  11.144  0.3896  1.0889 -0.0329
  732MOL0     H98792  -0.827   2.417  10.975  2.1013 -0.5888 -1.5264
  732MOL0     H98793  -0.754   2.316  11.096 -0.1782  0.8661  2.5679
  732MOL0     H98794  -0.905   2.557  11.163  0.9634  0.9594  1.6191
  732MOL0     H98795  -0.795   2.485  11.275  1.2208 -0.2364 -0.5812
  732MOL0     H98796  -1.032   2.338  11.123 -1.3019  1.1206  0.1199
  732MOL0     H98797  -0.924   2.262  11.238 -0.4784  0.3175 -1.1078
  732MOL0     H98798  -1.097   2.506  11.274 -0.2249 -1.0364 -2.2162
  732MOL0     H98799  -1.010   2.440  11.415  1.1434  0.0639 -0.4437
  732MOL0     H98800  -1.116   2.219  11.423 -0.0273 -0.3128  0.3881
  732MOL0     H98801  -1.244   2.271  11.316 -1.0103  1.0533  1.0558
  732MOL0     H98802  -0.164   2.585  10.921  1.8388  0.4102 -0.0965
  732MOL0     H98803  -0.021   2.751  10.826 -1.6359  1.1846  1.5353
  732MOL0     H98804  -0.056   3.154  10.348 -0.8964 -0.0159 -0.7300
  732MOL0     H98805   0.117   3.314  10.299 -1.9007  1.3170  1.1037
  732MOL0     H98806   2.003   3.320   9.577 -2.8230  0.4055  2.1655
  732MOL0     H98807   2.241   3.377   9.553  1.9740  1.8017  1.0415
  732MOL0     H98808   2.606   3.920   9.625 -0.3324 -0.7991 -0.5296
  732MOL0     H98809   2.869   3.888   9.602  0.7030 -0.7977 -0.9668
  732MOL0     H98810   3.056   3.514   9.731  0.8605 -0.3763 -0.3034
  732MOL0     H98811   3.023   3.468   9.560  0.6106 -2.1897  1.0145
  732MOL0     H98812   3.262   3.630   9.651  2.6306  1.1967 -2.7286
  732MOL0     H98813   3.213   3.612   9.488 -2.5325  0.7060  0.1900
  732MOL0     H98814   3.260   3.343   9.537  1.8879 -1.4972  1.4454
  732MOL0     H98815   3.325   3.413   9.686 -1.1994 -0.2410  0.5574
  732MOL0     H98816   3.515   3.379   9.537  0.8514  0.9405  1.0570
  732MOL0     H98817   3.489   3.550   9.570 -0.6449 -0.8625  1.5933
  732MOL0     H98818   3.442   3.557   9.149  1.6958  0.7292 -0.3609
  732MOL0     H98819   2.835   3.476   9.682 -1.4524 -0.3709 -1.7503
  732MOL0     H98820   2.574   3.498   9.691 -2.8693  1.5877 -2.5521
  733MOL0     O98821   4.891   4.751   5.445 -0.2444 -0.5360 -0.0363
  733MOL0     C98822   4.990   4.799   5.390 -0.9485  0.1207  0.3611
  733MOL0     O98823   4.982   4.869   5.276  0.2682  1.0239 -1.3938
  733MOL0     C98824   4.866   4.916   5.226 -0.8881 -0.2367 -0.8263
  733MOL0     C98825   4.855   5.055   5.201 -0.4582  0.7483  0.5961
  733MOL0     C98826   4.728   5.110   5.150 -0.5164  0.5703 -1.0517
  733MOL0     C98827   4.629   5.023   5.113  0.0595 -0.6055  0.2491
  733MOL0     O98828   4.512   5.061   5.057 -0.0103  0.2100  0.3764
  733MOL0     C98829   4.486   5.197   5.020  0.1191 -0.2924  0.0811
  733MOL0     C98830   4.337   5.229   4.991 -0.1993 -0.3413 -0.3919
  733MOL0     C98831   4.319   5.339   4.881  0.0593  0.5128 -0.2096
  733MOL0     C98832   4.169   5.377   4.869  0.4787 -0.1360 -0.3951
  733MOL0     C98833   4.079   5.258   4.811  0.7418  0.0090  0.2716
  733MOL0     C98834   3.935   5.281   4.787 -0.1083  0.2253 -0.8371
  733MOL0     C98835   3.924   5.401   4.690 -0.1806  0.2269  0.8895
  733MOL0     C98836   3.802   5.381   4.597 -0.3159 -0.4738 -0.2639
  733MOL0     N98837   3.673   5.396   4.666  0.1141  0.3889  0.1291
  733MOL0     C98838   3.584   5.290   4.670  0.5734 -0.2337  0.3709
  733MOL0     C98839   3.473   5.333   4.737 -0.5573 -0.2202 -0.0985
  733MOL0     C98840   3.364   5.245   4.781  0.2757 -0.0120 -0.4093
  733MOL0     C98841   3.337   5.260   4.932  0.4443  1.0081 -0.5819
  733MOL0     C98842   3.209   5.175   4.967 -0.1457  0.4960  0.1130
  733MOL0     C98843   3.128   5.231   5.082  0.6018 -0.3361  0.3526
  733MOL0     O98844   3.025   5.146   5.129  0.5774 -0.3562  0.2954
  733MOL0     C98845   2.904   5.220   5.160 -1.7915  0.1861  0.2539
  733MOL0     C98846   2.863   5.228   5.293 -0.5724 -0.6224  0.0636
  733MOL0     C98847   2.746   5.295   5.335  0.0128  0.4069 -0.9306
  733MOL0     C98848   2.717   5.298   5.497 -0.0959 -0.1120 -0.1918
  733MOL0     C98849   2.667   5.358   5.240 -0.5368 -0.5397  0.0129
  733MOL0     C98850   2.528   5.400   5.267 -0.3258 -0.6189  0.1871
  733MOL0     O98851   2.452   5.417   5.155  0.5885 -0.1131 -0.2982
  733MOL0     C98852   2.319   5.439   5.163 -0.2005 -1.0888 -0.5656
  733MOL0     C98853   2.239   5.386   5.065  0.3225  0.1547  0.1707
  733MOL0     C98854   2.092   5.403   5.073 -0.3721 -0.2679  0.7510
  733MOL0     C98855   2.037   5.478   5.170 -0.3725 -0.2277  0.4922
  733MOL0     O98856   1.903   5.479   5.154 -0.1048  0.1407 -0.1286
  733MOL0     C98857   1.827   5.528   5.258  1.8354 -0.3829 -0.0646
  733MOL0     C98858   1.684   5.555   5.201  0.2430 -0.0422  0.6704
  733MOL0     C98859   1.605   5.422   5.174  0.0575 -0.0500  0.6647
  733MOL0     C98860   1.455   5.431   5.147  0.0716  0.2896 -0.3371
  733MOL0     C98861   1.391   5.291   5.117 -0.6268 -1.1415  0.2264
  733MOL0     C98862   1.241   5.287   5.144  0.6026 -0.6372  0.4050
  733MOL0     C98863   1.151   5.282   5.018  0.8082  0.4030 -0.6649
  733MOL0     C98864   1.019   5.226   5.059  0.7867  0.3483 -0.1113
  733MOL0    Cl98865   0.918   5.349   5.146 -0.1838  0.0166 -0.0898
  733MOL0     C98866   2.117   5.535   5.268 -0.8269  0.0314  0.7389
  733MOL0     C98867   2.259   5.517   5.263 -0.2966  0.0329  0.6444
  733MOL0     O98868   2.491   5.407   5.383 -0.3989 -0.8649  0.5441
  733MOL0     C98869   2.724   5.362   5.107 -0.6031  0.0742  1.2473
  733MOL0     C98870   2.838   5.288   5.070  0.1114  0.1568  0.1147
  733MOL0     N98871   3.496   5.462   4.774  0.3584 -0.6718  0.1780
  733MOL0     N98872   3.615   5.496   4.735  0.2673  0.0951  0.0825
  733MOL0     C98873   4.646   4.886   5.127  0.5303  0.0032  0.4942
  733MOL0     C98874   4.758   4.832   5.195 -0.8306  0.3915  0.1307
  733MOL0     C98875   5.124   4.760   5.439  0.2680  0.3333 -0.5182
  733MOL0     C98876   5.141   4.672   5.544 -0.6725  0.4769 -0.5765
  733MOL0     C98877   5.269   4.626   5.574  0.6961 -0.0350  0.0706
  733MOL0     C98878   5.384   4.659   5.500  0.5526  0.0167 -0.3274
  733MOL0     O98879   5.511   4.612   5.545 -0.1433  0.1598 -0.0190
  733MOL0     C98880   5.532   4.554   5.677 -0.0532  0.2499  0.3936
  733MOL0     C98881   5.670   4.506   5.721  0.2492  0.5438 -0.1386
  733MOL0     C98882   5.740   4.430   5.602 -0.0571  0.6840 -0.3563
  733MOL0     C98883   5.883   4.409   5.619 -0.5645 -0.4984  0.3215
  733MOL0     C98884   5.919   4.334   5.735  0.6049  0.0271  0.5531
  733MOL0     C98885   5.964   4.290   5.836 -1.0299 -0.1748 -0.2797
  733MOL0     C98886   5.376   4.752   5.399  0.2261 -0.7697  0.4235
  733MOL0     C98887   5.244   4.801   5.373  0.4916  0.1541  0.1349
  733MOL0     H98888   4.936   5.122   5.228  1.1590 -1.0533  0.4488
  733MOL0     H98889   4.731   5.217   5.131  4.6226  0.7709 -0.5725
  733MOL0     H98890   4.523   5.267   5.095 -1.2751  2.0738 -1.3174
  733MOL0     H98891   4.540   5.225   4.930  2.4422  2.3786  2.1229
  733MOL0     H98892   4.282   5.138   4.967 -0.8081 -0.1227  0.1536
  733MOL0     H98893   4.303   5.269   5.087  2.0629  0.0070  0.3470
  733MOL0     H98894   4.380   5.428   4.895  1.5686 -0.1960 -1.9520
  733MOL0     H98895   4.348   5.296   4.785 -0.7055  0.3408 -0.3718
  733MOL0     H98896   4.132   5.403   4.969  0.5405 -2.7704  0.3808
  733MOL0     H98897   4.163   5.467   4.807  2.0716  0.9904  0.9632
  733MOL0     H98898   4.117   5.216   4.717 -0.5517  2.3200 -1.3732
  733MOL0     H98899   4.083   5.180   4.887  0.4239  1.2070  1.5501
  733MOL0     H98900   3.875   5.193   4.762 -0.6107  0.3549 -0.1500
  733MOL0     H98901   3.889   5.316   4.880  3.1197 -3.8547  2.6653
  733MOL0     H98902   3.909   5.501   4.732 -1.7009  0.5903 -0.4202
  733MOL0     H98903   4.007   5.406   4.619 -0.8495  0.0031  0.0815
  733MOL0     H98904   3.805   5.285   4.545  1.3167 -0.0463 -1.0133
  733MOL0     H98905   3.812   5.463   4.526  0.7457 -1.0191 -0.7575
  733MOL0     H98906   3.600   5.191   4.628  1.0029  0.6867 -1.7946
  733MOL0     H98907   3.275   5.268   4.722  0.1746  1.4621  0.2756
  733MOL0     H98908   3.399   5.143   4.761  0.2455 -0.2993  0.9047
  733MOL0     H98909   3.322   5.364   4.963  0.1890  0.9456 -0.4984
  733MOL0     H98910   3.418   5.221   4.995 -0.6406  1.9993  1.5415
  733MOL0     H98911   3.248   5.076   4.992 -0.2763  0.7338  1.3614
  733MOL0     H98912   3.137   5.169   4.885 -0.5313  3.1359  0.1768
  733MOL0     H98913   3.093   5.327   5.043  2.6829  0.1973 -0.3874
  733MOL0     H98914   3.195   5.252   5.166 -0.6539  0.3652  1.1971
  733MOL0     H98915   2.930   5.183   5.366 -2.3223 -4.9770 -0.7026
  733MOL0     H98916   2.674   5.392   5.534 -1.6891 -1.6864  2.2382
  733MOL0     H98917   2.653   5.217   5.531 -0.6450 -0.5963 -2.2446
  733MOL0     H98918   2.811   5.279   5.550 -0.0684  1.7989  0.5489
  733MOL0     H98919   2.286   5.341   4.978  0.5351  1.3031 -0.3193
  733MOL0     H98920   2.034   5.363   4.990  3.1277 -0.8432 -1.6587
  733MOL0     H98921   1.826   5.463   5.346  5.0526  0.0055  0.3857
  733MOL0     H98922   1.863   5.627   5.288  0.8153  0.0411 -0.1778
  733MOL0     H98923   1.628   5.602   5.283 -0.2680  1.7414 -0.6364
  733MOL0     H98924   1.693   5.619   5.113  2.0891 -0.6761  0.3594
  733MOL0     H98925   1.624   5.374   5.271  1.0267  0.3754  0.6968
  733MOL0     H98926   1.649   5.359   5.096 -0.4329 -1.1537  1.2441
  733MOL0     H98927   1.393   5.470   5.228 -1.5849 -1.7007 -0.5563
  733MOL0     H98928   1.439   5.484   5.052 -0.1388 -1.1101 -1.1137
  733MOL0     H98929   1.427   5.213   5.185 -0.5922 -1.9701 -0.7110
  733MOL0     H98930   1.419   5.248   5.020  0.7136 -0.9169  0.4909
  733MOL0     H98931   1.223   5.208   5.217 -1.5598 -1.1618 -0.6061
  733MOL0     H98932   1.218   5.376   5.204 -1.0263 -1.1979  0.6680
  733MOL0     H98933   1.198   5.209   4.953  1.1608 -0.5910  0.6735
  733MOL0     H98934   1.146   5.384   4.978 -0.0913  1.1160  1.1330
  733MOL0     H98935   1.045   5.132   5.108 -0.7383 -0.7180 -1.2480
  733MOL0     H98936   0.963   5.194   4.971  0.7029  2.1590 -0.7702
  733MOL0     H98937   2.078   5.596   5.349  1.1551  0.4524  1.4489
  733MOL0     H98938   2.321   5.574   5.332  2.6486  0.0925 -1.8058
  733MOL0     H98939   2.666   5.397   5.022  0.2701 -1.1002  0.1268
  733MOL0     H98940   2.866   5.272   4.966 -0.7504 -0.2546 -0.0671
  733MOL0     H98941   4.569   4.811   5.111  1.8783 -0.9155 -2.4178
  733MOL0     H98942   4.766   4.724   5.202 -2.6134  0.0447 -2.0546
  733MOL0     H98943   5.064   4.626   5.605  0.3327  0.3726  0.6570
  733MOL0     H98944   5.273   4.551   5.653 -0.9992  1.4065  1.6443
  733MOL0     H98945   5.493   4.627   5.748  0.9985  1.0304  0.1993
  733MOL0     H98946   5.469   4.465   5.687 -1.0788  1.0031  0.7771
  733MOL0     H98947   5.659   4.442   5.810  0.9969  1.3583  0.5594
  733MOL0     H98948   5.728   4.593   5.752 -2.5032  1.8352  1.7949
  733MOL0     H98949   5.730   4.482   5.506 -1.4097 -0.0196 -0.6095
  733MOL0     H98950   5.696   4.332   5.582 -0.6074  0.3218  2.2702
  733MOL0     H98951   5.937   4.504   5.620 -1.9370  0.3191  1.8331
  733MOL0     H98952   5.912   4.357   5.527 -0.9983  0.2324 -0.2393
  733MOL0     H98953   6.007   4.253   5.927 -0.3038 -1.7074 -1.2191
  733MOL0     H98954   5.464   4.792   5.349 -1.1804  0.3077 -1.2819
  733MOL0     H98955   5.237   4.869   5.289  0.5286 -1.1747 -0.9969
  734MOL0     O98956   5.986   3.647   3.863  0.5843  0.0323 -0.0633
  734MOL0     C98957   6.057   3.626   3.964  0.0867 -0.2090  0.8099
  734MOL0     O98958   6.014   3.623   4.089 -0.8312  0.0037 -0.3881
  734MOL0     C98959   5.884   3.619   4.121  0.5560 -0.0106 -0.2103
  734MOL0     C98960   5.780   3.557   4.065 -0.1935  0.3916  0.3883
  734MOL0     C98961   5.650   3.553   4.119  0.2951 -0.2983  0.5229
  734MOL0     C98962   5.609   3.631   4.223 -0.3823  0.3818 -0.2217
  734MOL0     O98963   5.489   3.666   4.276  0.3873  0.4510 -0.3379
  734MOL0     C98964   5.382   3.630   4.181  0.5991  0.1421  0.1228
  734MOL0     C98965   5.252   3.683   4.237 -0.0254  0.2067 -0.4248
  734MOL0     C98966   5.132   3.626   4.150 -1.2099 -0.3025 -0.6972
  734MOL0     C98967   5.001   3.666   4.198  0.6129  0.2015  0.2259
  734MOL0     C98968   4.970   3.806   4.140 -0.5258  0.0362 -0.0146
  734MOL0     C98969   4.825   3.838   4.171 -0.7545  0.4370 -0.1514
  734MOL0     C98970   4.778   3.971   4.114  0.4385 -0.0622  0.2201
  734MOL0     C98971   4.615   3.985   4.128  0.4290  0.3212  0.0187
  734MOL0     N98972   4.564   4.109   4.061 -0.9733  0.5659 -0.6962
  734MOL0     C98973   4.520   4.133   3.934 -0.8062  0.3014  0.0895
  734MOL0     C98974   4.483   4.268   3.942 -0.4769 -0.4970  0.1291
  734MOL0     C98975   4.417   4.340   3.826 -0.4946  0.5116  0.8116
  734MOL0     C98976   4.511   4.364   3.704 -0.0555 -0.5067 -0.5158
  734MOL0     C98977   4.475   4.480   3.605  0.5071  0.2626  0.5812
  734MOL0     C98978   4.376   4.440   3.502  0.2849 -0.4968  0.0023
  734MOL0     O98979   4.247   4.457   3.576 -0.1646 -0.2395  0.8721
  734MOL0     C98980   4.132   4.419   3.505  0.4325  0.4704 -0.3496
  734MOL0     C98981   4.006   4.454   3.559 -0.3021 -0.2562 -0.7257
  734MOL0     C98982   3.880   4.415   3.507 -0.6589 -0.1528 -0.1386
  734MOL0     C98983   3.768   4.436   3.601 -0.0992  0.6791  0.3564
  734MOL0     C98984   3.879   4.348   3.388  0.2672 -0.7142 -0.0507
  734MOL0     C98985   3.746   4.333   3.315 -0.4554  0.2505  0.1044
  734MOL0     O98986   3.638   4.388   3.363 -0.1514 -0.6645  0.2705
  734MOL0     C98987   3.524   4.410   3.281  0.2841  0.5066  0.3280
  734MOL0     C98988   3.516   4.394   3.139 -0.0461  0.0798 -0.2190
  734MOL0     C98989   3.394   4.408   3.082  0.6469  0.0894 -0.1834
  734MOL0     C98990   3.278   4.438   3.158  0.5362 -0.8567 -0.1116
  734MOL0     O98991   3.157   4.465   3.089 -0.0577 -0.0967 -0.0769
  734MOL0     C98992   3.061   4.370   3.103  0.5923 -0.0434  1.7282
  734MOL0     C98993   2.939   4.387   3.009 -0.2258  0.1338  0.5291
  734MOL0     C98994   2.835   4.497   3.045 -0.7833  0.1534 -0.1920
  734MOL0     C98995   2.710   4.492   2.946 -0.0629  0.6861  0.3647
  734MOL0     C98996   2.615   4.591   2.994  0.7640 -0.6632  0.0746
  734MOL0     C98997   2.470   4.564   2.940 -0.4543 -0.2578  0.5509
  734MOL0     C98998   2.369   4.644   3.018  0.4958  0.4455 -0.6801
  734MOL0     C98999   2.226   4.651   2.952 -0.1578 -0.2027 -0.1291
  734MOL0    Cl99000   2.156   4.499   2.905 -0.2821 -0.0229 -0.1139
  734MOL0     C99001   3.281   4.444   3.298  0.2312  0.1292  0.1581
  734MOL0     C99002   3.410   4.440   3.354  0.0466 -0.4162 -0.6689
  734MOL0     O99003   3.755   4.258   3.221  0.4569  0.5615  0.2982
  734MOL0     C99004   4.000   4.307   3.333  0.1669 -0.1230 -0.5632
  734MOL0     C99005   4.119   4.344   3.386 -0.7100  0.4766 -0.1157
  734MOL0     N99006   4.510   4.318   4.074  0.3628  0.1463  0.0172
  734MOL0     N99007   4.569   4.220   4.139 -0.1310  0.0510  0.6376
  734MOL0     C99008   5.717   3.702   4.281  0.0051 -0.9243 -0.4336
  734MOL0     C99009   5.844   3.700   4.227 -0.2625 -0.2905 -1.0108
  734MOL0     C99010   6.206   3.604   3.944  0.2306  0.0181 -0.6998
  734MOL0     C99011   6.258   3.601   3.809 -0.1809  0.6665 -1.1149
  734MOL0     C99012   6.388   3.576   3.784  0.0320  0.2046  0.0391
  734MOL0     C99013   6.482   3.565   3.887 -0.1994  1.1276  0.4530
  734MOL0     O99014   6.617   3.550   3.888  0.5956  0.5685  0.4793
  734MOL0     C99015   6.692   3.607   3.783 -0.3101 -0.2589  0.6423
  734MOL0     C99016   6.832   3.655   3.819  0.3234  0.0250  0.3199
  734MOL0     C99017   6.848   3.799   3.876 -0.2516  0.5363 -0.2091
  734MOL0     C99018   6.999   3.811   3.909  0.1340 -1.0492  0.7860
  734MOL0     C99019   7.018   3.742   4.036  0.4047 -0.7171  0.2237
  734MOL0     C99020   7.032   3.686   4.141  0.1286 -0.1625  0.3660
  734MOL0     C99021   6.429   3.576   4.018 -0.1566 -0.1185 -0.4788
  734MOL0     C99022   6.295   3.581   4.046  0.9008  0.1370  0.0074
  734MOL0     H99023   5.793   3.495   3.977 -0.0176 -0.0348  0.7106
  734MOL0     H99024   5.588   3.494   4.052  0.0686  0.9296 -0.3681
  734MOL0     H99025   5.397   3.660   4.077 -0.7240  1.2967  0.2362
  734MOL0     H99026   5.381   3.521   4.180  1.5771  0.1123 -1.9846
  734MOL0     H99027   5.245   3.649   4.340 -3.4635  0.6878 -0.4034
  734MOL0     H99028   5.257   3.792   4.231  1.1182  0.1557 -0.6902
  734MOL0     H99029   5.158   3.654   4.048 -0.2278 -2.7092 -1.1626
  734MOL0     H99030   5.141   3.517   4.153  1.0329 -0.1367  1.2099
  734MOL0     H99031   4.926   3.596   4.161  0.5767  0.4191 -0.1181
  734MOL0     H99032   4.985   3.672   4.306 -3.1326  1.1754 -0.2474
  734MOL0     H99033   5.035   3.881   4.187 -0.1616 -0.6921  0.6853
  734MOL0     H99034   4.982   3.814   4.032 -3.6106  2.8850 -0.3053
  734MOL0     H99035   4.766   3.754   4.134  2.9853 -1.4307 -2.4571
  734MOL0     H99036   4.801   3.855   4.276 -2.2880  2.7337 -0.7796
  734MOL0     H99037   4.829   4.059   4.156  0.6609  0.7173 -1.5954
  734MOL0     H99038   4.804   3.971   4.008  2.2579  1.9231  0.6001
  734MOL0     H99039   4.599   3.992   4.236 -3.1278 -0.5917 -0.3054
  734MOL0     H99040   4.576   3.891   4.088 -0.1627  0.1414  0.9902
  734MOL0     H99041   4.516   4.077   3.842  2.4550  0.7184 -0.4042
  734MOL0     H99042   4.336   4.274   3.792  0.6923 -2.2747  2.9422
  734MOL0     H99043   4.371   4.434   3.855 -0.3892  0.6207  0.6300
  734MOL0     H99044   4.534   4.275   3.645 -0.0523  1.0233 -3.0041
  734MOL0     H99045   4.613   4.381   3.739 -0.1215 -2.3309  0.7082
  734MOL0     H99046   4.563   4.504   3.545  0.2617  1.6864  0.7667
  734MOL0     H99047   4.456   4.580   3.645  1.3337  1.4732 -1.8243
  734MOL0     H99048   4.396   4.342   3.458 -0.6305  0.3611 -2.5395
  734MOL0     H99049   4.372   4.512   3.419  1.8356  1.9035  1.8824
  734MOL0     H99050   4.011   4.497   3.659 -0.9311 -1.0168 -0.3594
  734MOL0     H99051   3.814   4.443   3.700  0.8381 -0.3300  0.0071
  734MOL0     H99052   3.697   4.516   3.578 -0.8393  0.5098  1.8973
  734MOL0     H99053   3.710   4.344   3.606  2.1804 -0.7767  1.4851
  734MOL0     H99054   3.601   4.379   3.074  0.9784  1.1673  0.8284
  734MOL0     H99055   3.387   4.400   2.974 -1.0423  0.8637 -0.1616
  734MOL0     H99056   3.094   4.268   3.082 -0.2336  0.1367 -0.7256
  734MOL0     H99057   3.013   4.376   3.201 -1.1327  0.9834  0.8663
  734MOL0     H99058   2.978   4.409   2.910 -0.1513 -0.5066  0.4122
  734MOL0     H99059   2.887   4.291   2.995  4.0653 -2.2159 -1.2384
  734MOL0     H99060   2.879   4.597   3.037 -0.6256 -0.0357 -2.0008
  734MOL0     H99061   2.796   4.486   3.147 -1.6332  0.2232 -0.4957
  734MOL0     H99062   2.744   4.521   2.846  0.8236 -1.1557  0.1010
  734MOL0     H99063   2.674   4.389   2.946  1.6737 -0.1148  4.3024
  734MOL0     H99064   2.657   4.686   2.959 -0.0310  0.4538  2.0219
  734MOL0     H99065   2.617   4.605   3.102  0.6134  2.3409 -0.2319
  734MOL0     H99066   2.476   4.590   2.834  1.6290 -0.5118  0.5639
  734MOL0     H99067   2.436   4.460   2.944 -4.0486  0.8343  2.2694
  734MOL0     H99068   2.400   4.748   3.031  1.0345  0.0781  1.4379
  734MOL0     H99069   2.355   4.602   3.118 -1.8360  2.2455 -0.1664
  734MOL0     H99070   2.243   4.696   2.854  1.1705  0.4183  0.3676
  734MOL0     H99071   2.150   4.708   3.006 -0.9274 -1.9870  0.7685
  734MOL0     H99072   3.186   4.456   3.350 -0.8309 -1.5783 -1.2581
  734MOL0     H99073   3.431   4.447   3.461  2.7583 -1.1387 -1.0761
  734MOL0     H99074   3.995   4.254   3.238  1.5157 -2.2885  0.4749
  734MOL0     H99075   4.205   4.303   3.332 -1.2106 -0.3681 -0.2987
  734MOL0     H99076   5.710   3.778   4.358 -0.2148 -2.5525  1.2190
  734MOL0     H99077   5.910   3.774   4.272 -2.0034  0.1655  0.9524
  734MOL0     H99078   6.181   3.625   3.737 -0.5155  0.2181 -0.9162
  734MOL0     H99079   6.415   3.562   3.680  0.2129 -3.2944  0.4362
  734MOL0     H99080   6.698   3.531   3.705  2.0021  0.9801 -0.4761
  734MOL0     H99081   6.642   3.690   3.733  0.6013 -0.6243 -0.9495
  734MOL0     H99082   6.893   3.656   3.728  0.9985  0.6892  0.7662
  734MOL0     H99083   6.867   3.578   3.888 -2.1325 -0.7541  0.7936
  734MOL0     H99084   6.788   3.808   3.967  2.1961  0.6356  1.4949
  734MOL0     H99085   6.818   3.872   3.801 -3.0453 -0.7318 -0.4398
  734MOL0     H99086   7.021   3.918   3.913 -3.1525 -0.1501 -1.3205
  734MOL0     H99087   7.058   3.769   3.827  1.5812 -0.0926  1.2882
  734MOL0     H99088   7.045   3.629   4.230 -0.8847  0.9046  1.2349
  734MOL0     H99089   6.495   3.552   4.101 -2.9562  2.3622  2.7081
  734MOL0     H99090   6.271   3.574   4.152 -2.0598 -1.7973 -0.6997
  735MOL0     O99091   5.816   4.386   8.543  0.4214  0.0900 -0.0730
  735MOL0     C99092   5.856   4.386   8.428 -0.6589  0.3186  0.5493
  735MOL0     O99093   5.772   4.377   8.319 -0.4357 -1.0670 -0.6124
  735MOL0     C99094   5.634   4.384   8.338  1.0039  0.4277 -0.5413
  735MOL0     C99095   5.554   4.274   8.355 -0.3582  0.0022 -0.0939
  735MOL0     C99096   5.421   4.283   8.378  0.0901 -0.3790 -0.5787
  735MOL0     C99097   5.353   4.402   8.390  0.5720 -0.8855  0.0805
  735MOL0     O99098   5.214   4.405   8.406 -0.3829  0.4436 -0.1954
  735MOL0     C99099   5.163   4.502   8.493 -0.0670 -0.4092 -0.2748
  735MOL0     C99100   5.010   4.528   8.461 -0.0990  0.0749 -0.4388
  735MOL0     C99101   4.993   4.568   8.327  1.1358 -0.2342  0.7892
  735MOL0     C99102   4.853   4.563   8.275  1.1494  0.1014 -0.1159
  735MOL0     C99103   4.846   4.571   8.120  0.0320  0.3299 -0.0668
  735MOL0     C99104   4.710   4.573   8.063 -0.1131  0.5301  0.5568
  735MOL0     C99105   4.724   4.561   7.910  1.1115  0.6910  0.4114
  735MOL0     C99106   4.704   4.414   7.854 -0.8624  0.3568  0.3467
  735MOL0     N99107   4.664   4.406   7.704  0.2168  0.0625  0.3596
  735MOL0     C99108   4.550   4.470   7.661  0.1000  0.3963 -0.3342
  735MOL0     C99109   4.555   4.471   7.522  0.3259  0.1427 -0.7312
  735MOL0     C99110   4.439   4.523   7.447  0.2063 -0.0398 -0.0089
  735MOL0     C99111   4.302   4.453   7.486 -0.6596 -0.6003  0.1566
  735MOL0     C99112   4.188   4.493   7.405  0.2367 -0.9626  0.2318
  735MOL0     C99113   4.153   4.631   7.455  0.7260  0.1884 -0.3073
  735MOL0     O99114   4.056   4.711   7.380  0.4854  0.6124  0.5702
  735MOL0     C99115   3.931   4.714   7.431 -0.1870 -0.1123 -0.8220
  735MOL0     C99116   3.873   4.608   7.493 -0.1815 -0.5836 -0.1349
  735MOL0     C99117   3.749   4.614   7.547  0.8430  0.3044  0.7710
  735MOL0     C99118   3.717   4.486   7.629 -0.0653 -0.3578 -0.0207
  735MOL0     C99119   3.668   4.724   7.536  0.5496 -0.3131 -0.9059
  735MOL0     C99120   3.526   4.747   7.581 -0.8943  0.7298  1.0354
  735MOL0     O99121   3.473   4.876   7.557  0.0909  0.1904  0.0260
  735MOL0     C99122   3.347   4.922   7.589  1.3582 -0.1431 -0.0329
  735MOL0     C99123   3.282   4.860   7.695 -0.2151 -0.8265  0.2555
  735MOL0     C99124   3.160   4.912   7.748  0.8316 -0.0039 -0.1484
  735MOL0     C99125   3.093   5.021   7.690 -0.0844 -0.8746 -0.4806
  735MOL0     O99126   2.969   5.071   7.727  0.8230 -0.4240  0.2501
  735MOL0     C99127   2.952   5.213   7.752 -0.3299  0.1327  0.5876
  735MOL0     C99128   2.806   5.248   7.789 -0.6626  0.3418  0.5478
  735MOL0     C99129   2.716   5.188   7.677  0.5128 -0.3788 -0.5238
  735MOL0     C99130   2.601   5.282   7.658 -0.4693  0.3823 -0.1190
  735MOL0     C99131   2.485   5.228   7.574  0.2810 -0.1037  0.5374
  735MOL0     C99132   2.420   5.101   7.614  0.8099 -1.0407 -0.3871
  735MOL0     C99133   2.280   5.085   7.539  0.5015 -0.2034  0.4048
  735MOL0     C99134   2.234   4.943   7.532  0.0381  0.5398 -0.0338
  735MOL0    Cl99135   2.062   4.948   7.479 -0.2460  0.2336  0.4433
  735MOL0     C99136   3.165   5.087   7.590  0.0283  0.8138 -0.3455
  735MOL0     C99137   3.287   5.036   7.531  0.9994  0.2004 -0.5053
  735MOL0     O99138   3.464   4.646   7.617 -0.4152 -0.5254  0.1607
  735MOL0     C99139   3.727   4.835   7.469  0.0981  0.0424  0.5760
  735MOL0     C99140   3.858   4.827   7.414 -0.1810 -0.2369  0.3716
  735MOL0     N99141   4.661   4.387   7.487  0.4811 -0.6269 -0.0994
  735MOL0     N99142   4.727   4.357   7.594  0.4105  0.1365  0.2117
  735MOL0     C99143   5.435   4.515   8.364  0.6510 -1.0222  0.5297
  735MOL0     C99144   5.570   4.510   8.347 -0.0268 -0.3943  0.4876
  735MOL0     C99145   5.994   4.390   8.419 -0.0454  0.8939 -0.6755
  735MOL0     C99146   6.083   4.422   8.528  0.0625  0.1014 -0.8269
  735MOL0     C99147   6.218   4.408   8.514 -0.0183  0.0968 -0.2553
  735MOL0     C99148   6.280   4.378   8.390 -0.3180 -0.4618 -0.3522
  735MOL0     O99149   6.420   4.367   8.367  0.3995  0.0480 -0.2859
  735MOL0     C99150   6.512   4.439   8.452 -0.4361  0.3834 -0.4531
  735MOL0     C99151   6.504   4.593   8.449  0.8435  0.0556  0.5184
  735MOL0     C99152   6.579   4.652   8.330  0.0469 -0.2936 -0.9212
  735MOL0     C99153   6.731   4.640   8.343  0.4252 -0.1200 -0.8389
  735MOL0     C99154   6.803   4.740   8.264  0.2736  0.6833  0.0464
  735MOL0     C99155   6.852   4.839   8.205 -0.8596 -0.6750 -0.8225
  735MOL0     C99156   6.196   4.365   8.281  0.5740 -0.2642  0.3297
  735MOL0     C99157   6.055   4.367   8.291 -0.4802  0.2598 -0.0385
  735MOL0     H99158   5.597   4.176   8.335  0.5776  0.8969 -2.9390
  735MOL0     H99159   5.351   4.200   8.376 -1.1631  0.6490 -0.5321
  735MOL0     H99160   5.168   4.465   8.595 -2.7683  0.6449  0.3398
  735MOL0     H99161   5.212   4.599   8.480  0.6420 -0.3766  2.2063
  735MOL0     H99162   4.962   4.431   8.477  0.0498 -0.4495 -2.8432
  735MOL0     H99163   4.959   4.606   8.518  0.1278 -0.1840  0.1300
  735MOL0     H99164   5.024   4.672   8.324  3.3651 -0.8209  1.4873
  735MOL0     H99165   5.057   4.509   8.260  1.5996  0.9739  0.1558
  735MOL0     H99166   4.805   4.472   8.311 -0.7776  0.5461 -1.4331
  735MOL0     H99167   4.795   4.650   8.307  1.7820 -0.1107  1.6992
  735MOL0     H99168   4.912   4.651   8.084  1.7048 -1.6425 -1.6092
  735MOL0     H99169   4.894   4.481   8.081 -0.6074 -0.0155 -0.0691
  735MOL0     H99170   4.650   4.499   8.115 -0.3854  0.6040  0.3487
  735MOL0     H99171   4.662   4.669   8.086 -0.6783  0.2477  0.5656
  735MOL0     H99172   4.644   4.628   7.876 -0.5280 -0.0358  2.6169
  735MOL0     H99173   4.822   4.603   7.886  0.9847  0.4319 -0.6040
  735MOL0     H99174   4.626   4.368   7.915 -0.8648 -0.5412 -0.3098
  735MOL0     H99175   4.801   4.365   7.863 -1.5493 -1.0308  0.5236
  735MOL0     H99176   4.480   4.514   7.731 -0.3631 -1.0698  0.1601
  735MOL0     H99177   4.446   4.631   7.464 -0.1105 -0.1721  1.0552
  735MOL0     H99178   4.444   4.514   7.338 -0.2998 -0.3254 -0.0115
  735MOL0     H99179   4.280   4.471   7.592 -0.5881 -0.7218  0.1926
  735MOL0     H99180   4.319   4.346   7.479  0.1442 -0.9251  4.3603
  735MOL0     H99181   4.104   4.424   7.418  0.0885 -1.0896 -1.2168
  735MOL0     H99182   4.209   4.492   7.298 -1.1456  2.3355 -0.1733
  735MOL0     H99183   4.245   4.691   7.458  0.4788  0.9427 -3.8422
  735MOL0     H99184   4.121   4.623   7.559 -0.1161  4.1284 -0.0841
  735MOL0     H99185   3.918   4.509   7.487  0.7101 -0.3558  2.0063
  735MOL0     H99186   3.647   4.515   7.707 -0.7222  1.6087 -1.2757
  735MOL0     H99187   3.683   4.401   7.569  1.9081 -3.1485  2.4645
  735MOL0     H99188   3.806   4.445   7.679  0.3130 -0.9874 -1.1744
  735MOL0     H99189   3.330   4.777   7.746 -1.6115 -0.9474  1.4284
  735MOL0     H99190   3.121   4.853   7.829 -2.8605  2.1687 -0.1198
  735MOL0     H99191   3.010   5.238   7.842 -0.5028  0.8571  0.5000
  735MOL0     H99192   2.968   5.266   7.658  1.8657 -1.3673  0.0471
  735MOL0     H99193   2.793   5.191   7.882  5.3085 -0.0055  1.5779
  735MOL0     H99194   2.790   5.356   7.795 -1.8073  0.3033 -1.2331
  735MOL0     H99195   2.677   5.090   7.706 -2.1391  0.2911 -1.5313
  735MOL0     H99196   2.772   5.179   7.583  1.2481  0.9127 -0.2324
  735MOL0     H99197   2.570   5.324   7.754  0.1352 -1.8142  1.1082
  735MOL0     H99198   2.640   5.365   7.599  4.0157 -1.8574 -0.7203
  735MOL0     H99199   2.529   5.226   7.474  1.4382  4.2770  0.7451
  735MOL0     H99200   2.417   5.313   7.583  0.6224  0.0063  2.6622
  735MOL0     H99201   2.481   5.018   7.576  1.5846 -1.0158  0.7375
  735MOL0     H99202   2.403   5.097   7.722 -2.8999 -1.2130 -0.8698
  735MOL0     H99203   2.286   5.135   7.442  1.8568  0.2754  0.7086
  735MOL0     H99204   2.215   5.148   7.600  1.1434  2.6931 -1.7001
  735MOL0     H99205   2.248   4.891   7.628 -2.2627 -0.1723 -0.0355
  735MOL0     H99206   2.295   4.894   7.455  0.1168  0.8842 -0.1917
  735MOL0     H99207   3.121   5.176   7.545  0.0120  1.0897  0.2050
  735MOL0     H99208   3.322   5.095   7.447 -2.1697  1.1447 -1.2811
  735MOL0     H99209   3.676   4.929   7.449 -1.1018 -0.7445 -0.2026
  735MOL0     H99210   3.913   4.908   7.368 -0.6824  1.2461  2.2868
  735MOL0     H99211   5.395   4.613   8.340  4.1785  0.1753 -1.0123
  735MOL0     H99212   5.621   4.602   8.319 -0.8336 -0.6436 -1.9703
  735MOL0     H99213   6.044   4.451   8.626 -0.5880  2.2471 -1.6622
  735MOL0     H99214   6.285   4.423   8.598  1.0814  0.5978 -1.1944
  735MOL0     H99215   6.498   4.414   8.558  1.7626 -3.9249 -0.9572
  735MOL0     H99216   6.615   4.417   8.422 -0.5435  0.5101 -0.9313
  735MOL0     H99217   6.541   4.634   8.543  1.5529 -1.3253  0.8643
  735MOL0     H99218   6.397   4.616   8.445  0.4632 -1.7405 -0.9980
  735MOL0     H99219   6.555   4.759   8.328 -0.1240 -0.2769  0.7026
  735MOL0     H99220   6.543   4.614   8.234 -1.4450  0.0320 -0.5243
  735MOL0     H99221   6.759   4.546   8.295 -1.9132 -1.8961  1.0424
  735MOL0     H99222   6.747   4.639   8.451 -2.3982  0.2639 -0.3452
  735MOL0     H99223   6.907   4.923   8.169 -1.0661  1.6902  3.6374
  735MOL0     H99224   6.243   4.323   8.193  1.4346  1.6556 -0.1677
  735MOL0     H99225   5.996   4.355   8.201 -0.8599  0.0234  0.2369
  736MOL0     O99226   4.072   8.179   9.891  0.4683 -0.5894 -0.0368
  736MOL0     C99227   4.094   8.284   9.833  0.5013 -0.7090 -0.0393
  736MOL0     O99228   4.006   8.353   9.757 -0.5473 -0.7515  0.6617
  736MOL0     C99229   3.904   8.286   9.691 -0.1589 -0.0027  0.1768
  736MOL0     C99230   3.802   8.371   9.651  0.1207  0.8977  0.8169
  736MOL0     C99231   3.693   8.313   9.581 -0.2944 -1.1616 -0.0369
  736MOL0     C99232   3.697   8.180   9.542  0.1730  0.4388  0.2613
  736MOL0     O99233   3.606   8.123   9.450  0.4328 -0.0082  0.5317
  736MOL0     C99234   3.491   8.203   9.430  0.5302 -0.2616 -0.4541
  736MOL0     C99235   3.383   8.137   9.345  0.0105  0.2892 -0.1457
  736MOL0     C99236   3.285   8.056   9.431  0.0002  0.3058 -0.7955
  736MOL0     C99237   3.200   7.959   9.354  0.1365 -0.1743 -0.0527
  736MOL0     C99238   3.052   7.945   9.394 -0.2978  0.5514  0.6273
  736MOL0     C99239   3.029   7.839   9.505 -0.1899 -0.3094  0.9085
  736MOL0     C99240   3.022   7.697   9.455  0.3493  0.0587  0.4413
  736MOL0     C99241   3.051   7.596   9.569  0.5134  0.5201  0.2063
  736MOL0     N99242   2.962   7.594   9.689 -0.4244 -0.9171 -0.1581
  736MOL0     C99243   2.824   7.596   9.689  0.2989 -0.5511 -0.6092
  736MOL0     C99244   2.799   7.589   9.817  0.2096  0.4370 -0.8638
  736MOL0     C99245   2.663   7.578   9.877  0.6471  0.0055 -0.5751
  736MOL0     C99246   2.626   7.699   9.969  1.3443  0.0118  0.7641
  736MOL0     C99247   2.473   7.710   9.997  0.4189 -0.6030  1.0821
  736MOL0     C99248   2.387   7.716   9.863  0.0209 -0.4285 -0.8305
  736MOL0     O99249   2.251   7.741   9.893  0.1571 -0.3505 -0.5867
  736MOL0     C99250   2.148   7.726   9.799 -0.4616  0.4468 -0.5803
  736MOL0     C99251   2.030   7.776   9.851 -0.0130  0.5380 -1.0926
  736MOL0     C99252   1.905   7.755   9.786  0.9866 -0.3386 -0.3069
  736MOL0     C99253   1.779   7.798   9.857 -0.5840 -0.0286  0.4636
  736MOL0     C99254   1.903   7.686   9.663 -0.6668 -0.0201 -0.4097
  736MOL0     C99255   1.786   7.639   9.588  0.0143 -0.3210 -0.4110
  736MOL0     O99256   1.665   7.705   9.613 -1.0199  0.2683  0.2903
  736MOL0     C99257   1.553   7.685   9.534 -0.7424 -0.7145 -0.3746
  736MOL0     C99258   1.440   7.733   9.585 -0.1414  0.3505 -0.7584
  736MOL0     C99259   1.313   7.703   9.530 -0.7145 -0.0948 -0.7488
  736MOL0     C99260   1.302   7.640   9.414 -0.6429 -0.2802  1.1056
  736MOL0     O99261   1.185   7.634   9.349 -1.1040 -0.0311  0.0617
  736MOL0     C99262   1.088   7.579   9.434  0.5554  0.0490  0.1112
  736MOL0     C99263   1.002   7.483   9.344  0.9083 -0.1571 -0.1858
  736MOL0     C99264   0.895   7.556   9.263  0.1846 -0.1055 -0.2374
  736MOL0     C99265   0.780   7.610   9.358 -0.0476  0.6721 -0.8213
  736MOL0     C99266   0.665   7.657   9.264  0.1472  0.5031 -0.4649
  736MOL0     C99267   0.682   7.778   9.182 -0.0181 -0.2233  0.2667
  736MOL0     C99268   0.554   7.814   9.111  0.2384  0.3827 -0.0923
  736MOL0     C99269   0.575   7.944   9.035  0.5310 -0.9565  0.3727
  736MOL0    Cl99270   0.678   7.925   8.887  0.2256 -0.0499 -0.0992
  736MOL0     C99271   1.422   7.612   9.343  0.1994  0.5213 -0.6366
  736MOL0     C99272   1.550   7.633   9.403 -0.4218 -0.1798 -1.1297
  736MOL0     O99273   1.807   7.534   9.521  0.4049 -0.7395 -0.3115
  736MOL0     C99274   2.029   7.641   9.615 -0.2941 -0.1722 -0.4711
  736MOL0     C99275   2.150   7.670   9.673  1.2400  1.3328 -0.9959
  736MOL0     N99276   2.911   7.587   9.902  0.1175  0.2809  0.2447
  736MOL0     N99277   3.009   7.592   9.818  0.6708 -0.7016  0.4869
  736MOL0     C99278   3.802   8.088   9.574  0.8774  0.1633 -0.2438
  736MOL0     C99279   3.900   8.147   9.654 -0.1807  0.2616  0.4589
  736MOL0     C99280   4.214   8.362   9.869 -0.9085 -0.0564 -0.2074
  736MOL0     C99281   4.309   8.317   9.964 -0.2101  0.4123  0.3919
  736MOL0     C99282   4.428   8.388   9.981  0.2776  0.6801 -0.4275
  736MOL0     C99283   4.452   8.507   9.910  0.0351 -0.0303 -1.0586
  736MOL0     O99284   4.564   8.577   9.954  0.1470 -0.1243 -0.7069
  736MOL0     C99285   4.548   8.723   9.978 -0.4947 -0.3308  0.9898
  736MOL0     C99286   4.576   8.756  10.124 -0.5734 -1.0691 -0.2115
  736MOL0     C99287   4.707   8.709  10.175 -0.1769 -0.1323 -0.2824
  736MOL0     C99288   4.731   8.780  10.311 -1.1714  0.2040  0.0034
  736MOL0     C99289   4.839   8.710  10.388  0.6102 -0.1887 -0.3867
  736MOL0     C99290   4.930   8.653  10.448  0.1396  0.7012 -0.5857
  736MOL0     C99291   4.350   8.558   9.831 -0.4605  0.3853  0.6028
  736MOL0     C99292   4.239   8.484   9.811 -0.4097 -1.1911  0.4081
  736MOL0     H99293   3.797   8.478   9.663  1.3613  1.6885 -3.7450
  736MOL0     H99294   3.610   8.377   9.553  0.4766  0.0445  0.3607
  736MOL0     H99295   3.443   8.226   9.525  0.2746 -2.8907  0.1500
  736MOL0     H99296   3.513   8.292   9.370  0.1686 -0.6091 -1.1176
  736MOL0     H99297   3.324   8.215   9.296 -0.2123  0.3886  0.2760
  736MOL0     H99298   3.436   8.080   9.268  2.3415  1.7478  0.2795
  736MOL0     H99299   3.333   8.011   9.518 -0.5485 -0.7592 -1.0243
  736MOL0     H99300   3.220   8.130   9.480 -1.8792 -1.9052  0.2224
  736MOL0     H99301   3.186   8.004   9.256 -2.0824  1.1549  0.7905
  736MOL0     H99302   3.239   7.858   9.342  0.2122 -0.4042  1.7882
  736MOL0     H99303   3.016   8.043   9.429  1.1307  1.3410  0.0039
  736MOL0     H99304   3.002   7.909   9.304  1.2167 -0.0693 -0.0036
  736MOL0     H99305   3.116   7.852   9.569  0.4841 -1.5959  0.2906
  736MOL0     H99306   2.942   7.867   9.566  0.0742  0.9781  0.7285
  736MOL0     H99307   2.932   7.663   9.404 -0.1791  0.1672  1.2940
  736MOL0     H99308   3.103   7.684   9.382  0.7410  1.1510  0.6569
  736MOL0     H99309   3.156   7.606   9.597  1.1393 -0.1778 -1.7693
  736MOL0     H99310   3.044   7.497   9.523  0.0615  0.9689 -0.7195
  736MOL0     H99311   2.755   7.599   9.605  1.8657 -0.2856 -1.9456
  736MOL0     H99312   2.584   7.566   9.803 -4.9478 -3.2000  4.8958
  736MOL0     H99313   2.655   7.498   9.952 -1.7881  2.0159  1.5186
  736MOL0     H99314   2.666   7.791   9.925 -2.9906  0.5596 -2.7050
  736MOL0     H99315   2.670   7.674  10.066 -0.4612 -2.8820  0.9705
  736MOL0     H99316   2.443   7.793  10.061  0.8899  1.7055 -1.5173
  736MOL0     H99317   2.451   7.624  10.061  1.8597  0.7059  3.5135
  736MOL0     H99318   2.380   7.614   9.824  1.8394 -0.9442  0.0866
  736MOL0     H99319   2.423   7.788   9.789 -0.7076  1.0615  0.2165
  736MOL0     H99320   2.038   7.821   9.949  1.9418 -1.9385  0.0164
  736MOL0     H99321   1.804   7.864   9.941 -0.0866  1.7206 -0.9997
  736MOL0     H99322   1.716   7.865   9.798  3.4461  1.2750 -2.8184
  736MOL0     H99323   1.730   7.705   9.889 -3.1271  0.7030 -1.0058
  736MOL0     H99324   1.441   7.786   9.679  0.9329  1.1499 -1.2014
  736MOL0     H99325   1.226   7.738   9.585 -2.8822 -4.1543 -1.1951
  736MOL0     H99326   1.135   7.518   9.512 -2.7253 -1.2174  1.2982
  736MOL0     H99327   1.022   7.651   9.485 -0.1725 -0.8877  0.5341
  736MOL0     H99328   1.057   7.417   9.276 -0.1011 -0.5225 -0.6726
  736MOL0     H99329   0.952   7.411   9.409  0.8579 -0.5602 -0.6657
  736MOL0     H99330   0.855   7.481   9.194 -0.3894  0.1230 -0.1610
  736MOL0     H99331   0.939   7.638   9.206 -1.0883  0.4567 -0.4586
  736MOL0     H99332   0.736   7.542   9.432 -0.7323 -0.3143 -2.0853
  736MOL0     H99333   0.816   7.694   9.417  0.4026 -0.8866  1.2402
  736MOL0     H99334   0.574   7.666   9.323 -0.9330 -2.0295 -1.5594
  736MOL0     H99335   0.632   7.584   9.189  2.9365  0.1700 -1.4907
  736MOL0     H99336   0.710   7.860   9.249 -1.3899 -0.7599  1.5328
  736MOL0     H99337   0.763   7.769   9.109 -0.2705  2.8922 -0.5445
  736MOL0     H99338   0.470   7.828   9.180  0.2868  2.4455 -0.3925
  736MOL0     H99339   0.523   7.737   9.039 -0.6326  0.2981  0.3627
  736MOL0     H99340   0.610   8.026   9.098  4.2334 -1.7963 -0.3454
  736MOL0     H99341   0.475   7.969   9.001  0.1045 -2.9318  0.0161
  736MOL0     H99342   1.410   7.568   9.244 -2.9774  2.3502 -1.1805
  736MOL0     H99343   1.642   7.606   9.351  0.2904 -0.4489  0.2340
  736MOL0     H99344   2.029   7.605   9.512  1.3675  2.9978 -1.7172
  736MOL0     H99345   2.241   7.639   9.622  0.2415 -0.6534 -1.6890
  736MOL0     H99346   3.793   7.985   9.542 -4.6156 -0.1756  1.2308
  736MOL0     H99347   3.970   8.071   9.686 -0.8301  0.0264  1.3590
  736MOL0     H99348   4.283   8.220  10.004 -0.7448 -0.4740 -1.9514
  736MOL0     H99349   4.494   8.362  10.063 -0.4025 -0.1129 -0.1139
  736MOL0     H99350   4.618   8.769   9.909 -0.5836 -2.6312 -0.7472
  736MOL0     H99351   4.452   8.760   9.940  0.1602  3.5710  2.5844
  736MOL0     H99352   4.488   8.716  10.176 -1.8907 -0.3186 -1.7962
  736MOL0     H99353   4.580   8.865  10.135  0.0247 -1.1796  0.8455
  736MOL0     H99354   4.792   8.729  10.108  1.4301 -4.3397  0.1527
  736MOL0     H99355   4.705   8.601  10.190  0.8429 -0.5005 -2.4199
  736MOL0     H99356   4.635   8.788  10.364 -2.5987  1.7594 -2.6311
  736MOL0     H99357   4.762   8.882  10.285  1.2609 -0.9694 -2.1878
  736MOL0     H99358   5.018   8.599  10.475  1.3201  2.7057 -0.2513
  736MOL0     H99359   4.357   8.648   9.771  0.2972 -0.9475 -1.4055
  736MOL0     H99360   4.173   8.538   9.743  0.3632  0.9624  1.2758
  737MOL0     O99361   0.673   6.370   9.836 -0.0069 -0.3447 -0.2395
  737MOL0     C99362   0.714   6.450   9.921  0.5101 -0.0729 -0.7494
  737MOL0     O99363   0.641   6.548   9.981  0.0571 -0.4709  0.4142
  737MOL0     C99364   0.504   6.547   9.958  0.6835  0.6337  0.4122
  737MOL0     C99365   0.449   6.672   9.965 -0.4136  0.3280 -0.0516
  737MOL0     C99366   0.313   6.692   9.947 -0.2626  0.5207  0.1483
  737MOL0     C99367   0.226   6.583   9.917 -0.9257 -0.1571 -0.9563
  737MOL0     O99368   0.094   6.605   9.888 -0.0845 -0.0002 -0.3008
  737MOL0     C99369   0.042   6.732   9.925  0.2298  1.2456  0.2105
  737MOL0     C99370  -0.113   6.736   9.917 -0.4263 -0.3390  0.1542
  737MOL0     C99371  -0.171   6.690   9.777  0.0326 -0.5639 -0.3425
  737MOL0     C99372  -0.315   6.740   9.743 -0.7501  0.5217  0.1761
  737MOL0     C99373  -0.424   6.726   9.846 -0.2164  0.0425  0.0289
  737MOL0     C99374  -0.568   6.743   9.786 -0.5743  0.7067  0.1021
  737MOL0     C99375  -0.675   6.728   9.902 -0.9915  0.3083  0.6341
  737MOL0     C99376  -0.812   6.739   9.849 -0.6260 -0.3414  0.9993
  737MOL0     N99377  -0.920   6.731   9.947 -0.4835  0.9288 -0.2533
  737MOL0     C99378  -1.036   6.799   9.931  0.7763  0.6573 -0.7288
  737MOL0     C99379  -1.101   6.804  10.054 -0.9345  1.6413 -0.2018
  737MOL0     C99380  -1.242   6.841  10.078 -0.5249  0.4613 -0.0415
  737MOL0     C99381  -1.332   6.734  10.024  0.0356  1.5145 -0.2392
  737MOL0     C99382  -1.475   6.762  10.070  0.0221 -0.3366  0.8787
  737MOL0     C99383  -1.575   6.650  10.032 -0.7189  0.0774  0.0839
  737MOL0     O99384  -1.662   6.626  10.139 -0.1230  0.0972  0.0524
  737MOL0     C99385  -1.768   6.540  10.119  0.3872  0.8076  0.2976
  737MOL0     C99386  -1.811   6.474   9.999  0.5579 -1.1502 -0.3481
  737MOL0     C99387  -1.925   6.405   9.977 -0.3814  0.0601 -0.3429
  737MOL0     C99388  -1.949   6.348   9.840 -0.1958 -0.3329 -0.2542
  737MOL0     C99389  -2.007   6.379  10.094  0.8116  0.0820 -0.4655
  737MOL0     C99390  -2.138   6.294  10.090 -0.1563  0.2288  0.3741
  737MOL0     O99391  -2.186   6.261  10.208  0.4797  0.9525 -0.3018
  737MOL0     C99392  -2.314   6.203  10.214 -0.3367 -0.5830 -0.1814
  737MOL0     C99393  -2.331   6.063  10.218 -0.5619  1.2794 -0.3151
  737MOL0     C99394  -2.460   6.009  10.248 -0.8697 -0.4471  0.9865
  737MOL0     C99395  -2.567   6.095  10.254 -0.0962  0.6875 -0.7958
  737MOL0     O99396  -2.682   6.033  10.282  0.6688  0.1364 -0.2735
  737MOL0     C99397  -2.799   6.102  10.309  0.3855 -0.1079  0.7226
  737MOL0     C99398  -2.912   6.001  10.321  0.4865  0.0140  0.2335
  737MOL0     C99399  -2.934   5.902  10.208  0.0217 -1.1042  0.9899
  737MOL0     C99400  -2.891   5.760  10.249 -0.3560 -0.5557 -0.5130
  737MOL0     C99401  -2.898   5.667  10.123 -0.1553 -0.2449 -0.1163
  737MOL0     C99402  -3.043   5.645  10.071  0.0857 -0.7185  0.3293
  737MOL0     C99403  -3.053   5.554   9.942 -0.4882 -0.0340  0.1426
  737MOL0     C99404  -3.200   5.527   9.900  0.5240  0.1973 -0.0959
  737MOL0    Cl99405  -3.291   5.425  10.017 -0.1461 -0.0961 -0.1572
  737MOL0     C99406  -2.552   6.231  10.256  0.2411  0.0967  0.8831
  737MOL0     C99407  -2.423   6.291  10.241 -1.1163 -0.2902 -0.4624
  737MOL0     O99408  -2.195   6.280   9.982 -0.8235 -0.2281  0.2164
  737MOL0     C99409  -1.961   6.432  10.215  0.2263  0.8806 -1.1991
  737MOL0     C99410  -1.845   6.515  10.230 -0.3947 -0.1533  0.8796
  737MOL0     N99411  -1.016   6.732  10.149  0.2350 -0.0735  0.0952
  737MOL0     N99412  -0.913   6.686  10.082 -0.4808  0.0702 -0.0783
  737MOL0     C99413   0.281   6.457   9.922  0.0309  0.4491  0.2124
  737MOL0     C99414   0.408   6.438   9.953  0.5290  0.2458  0.0905
  737MOL0     C99415   0.850   6.428   9.971 -0.3698 -0.4545  0.0736
  737MOL0     C99416   0.938   6.339   9.913 -0.5080  0.6636  0.5244
  737MOL0     C99417   1.083   6.334   9.937 -0.3868 -0.4818  0.5089
  737MOL0     C99418   1.138   6.426  10.033 -0.5209  0.0082 -1.2853
  737MOL0     O99419   1.255   6.404  10.093 -0.0585  0.2364  0.2845
  737MOL0     C99420   1.359   6.417  10.003  0.2928  0.4949  0.3926
  737MOL0     C99421   1.484   6.381  10.088  0.3526  0.8062  0.1025
  737MOL0     C99422   1.512   6.465  10.211  0.6677 -0.5958 -0.0473
  737MOL0     C99423   1.523   6.613  10.169 -0.4843 -0.3107  0.2412
  737MOL0     C99424   1.641   6.650  10.084  0.2000  0.2734 -1.2207
  737MOL0     C99425   1.743   6.694  10.029 -0.2475  0.3945 -0.8144
  737MOL0     C99426   1.048   6.507  10.107 -0.4733 -0.1524  0.2951
  737MOL0     C99427   0.909   6.508  10.077  0.5576 -0.2682  0.0821
  737MOL0     H99428   0.505   6.763   9.985 -0.5149  0.0559  1.6161
  737MOL0     H99429   0.278   6.795   9.944  2.4834  1.5242 -3.4393
  737MOL0     H99430   0.074   6.761  10.025  0.6129  3.2925 -0.4376
  737MOL0     H99431   0.078   6.805   9.852  0.1612 -0.3297 -1.4714
  737MOL0     H99432  -0.145   6.657   9.985 -1.2487 -0.4164 -0.3083
  737MOL0     H99433  -0.151   6.834   9.947  2.7818  1.9714 -2.5405
  737MOL0     H99434  -0.098   6.717   9.700 -1.4010  1.1430 -1.1593
  737MOL0     H99435  -0.181   6.582   9.760 -1.4989 -0.6455  0.8626
  737MOL0     H99436  -0.314   6.844   9.708  0.5339  1.4925  2.8069
  737MOL0     H99437  -0.344   6.690   9.650  0.5960 -1.6111  0.8296
  737MOL0     H99438  -0.418   6.627   9.893  1.7042 -0.0034 -0.2037
  737MOL0     H99439  -0.416   6.786   9.937 -0.7800  0.2542 -0.0612
  737MOL0     H99440  -0.580   6.843   9.743  0.6309  0.8869  0.1485
  737MOL0     H99441  -0.591   6.667   9.712 -1.0915 -1.0614  1.9701
  737MOL0     H99442  -0.663   6.632   9.952  0.7130  0.9885  1.6225
  737MOL0     H99443  -0.659   6.809   9.974  1.6147 -0.4626  1.0346
  737MOL0     H99444  -0.832   6.661   9.775 -0.8040 -0.0155  0.7029
  737MOL0     H99445  -0.824   6.837   9.804 -0.8499 -0.7507  0.1397
  737MOL0     H99446  -1.081   6.842   9.842 -2.3954  0.0963  0.5047
  737MOL0     H99447  -1.249   6.845  10.187  0.3859 -4.0103  0.3751
  737MOL0     H99448  -1.262   6.932  10.020 -2.0771 -1.2832 -2.4436
  737MOL0     H99449  -1.302   6.639  10.068 -0.3131  1.2065 -0.6603
  737MOL0     H99450  -1.325   6.736   9.914  1.6764  2.5087 -0.1456
  737MOL0     H99451  -1.512   6.856  10.029  0.2190  0.2009  1.8932
  737MOL0     H99452  -1.471   6.792  10.175  1.2037 -3.3350  1.8061
  737MOL0     H99453  -1.523   6.569   9.980  1.7968  3.2935 -2.9428
  737MOL0     H99454  -1.646   6.688   9.958 -0.1330  3.0816  0.9018
  737MOL0     H99455  -1.752   6.492   9.910  0.0764  0.6952 -0.3361
  737MOL0     H99456  -2.001   6.418   9.773 -0.5452 -1.0139 -0.7113
  737MOL0     H99457  -1.855   6.337   9.786  1.4598  2.0555  1.8640
  737MOL0     H99458  -2.001   6.252   9.853 -2.8105  0.8018 -1.5480
  737MOL0     H99459  -2.244   5.999  10.211 -2.1918 -1.3192  1.2445
  737MOL0     H99460  -2.471   5.907  10.283  0.8636 -0.0919  2.7720
  737MOL0     H99461  -2.780   6.166  10.395  1.0860  1.3267 -0.4720
  737MOL0     H99462  -2.831   6.180  10.240  1.4842  0.2842  0.6453
  737MOL0     H99463  -2.905   5.946  10.416 -0.8135 -2.5128 -1.0088
  737MOL0     H99464  -3.011   6.048  10.317  0.1574 -0.6659  0.1591
  737MOL0     H99465  -2.890   5.930  10.112  1.3425  0.1862  1.9340
  737MOL0     H99466  -3.040   5.903  10.180 -0.1713 -2.8762  1.5247
  737MOL0     H99467  -2.788   5.758  10.285 -0.7303  1.0195  0.7569
  737MOL0     H99468  -2.955   5.708  10.321 -0.5379 -2.4860 -1.9544
  737MOL0     H99469  -2.859   5.570  10.154  0.0082 -0.7172 -1.7187
  737MOL0     H99470  -2.846   5.720  10.043 -1.4419 -0.5858 -1.2049
  737MOL0     H99471  -3.098   5.594  10.151 -0.6628 -2.2408 -1.0958
  737MOL0     H99472  -3.101   5.734  10.050 -1.4811 -1.0525  2.7493
  737MOL0     H99473  -3.011   5.454   9.951  0.9682  0.6398  1.3433
  737MOL0     H99474  -3.011   5.614   9.861 -0.2554  1.3286  1.2400
  737MOL0     H99475  -3.205   5.477   9.803 -2.0525 -1.3700  0.7462
  737MOL0     H99476  -3.244   5.627   9.893 -0.2821  0.0096  1.7463
  737MOL0     H99477  -2.641   6.286  10.286  0.4044  0.8701 -0.0262
  737MOL0     H99478  -2.420   6.398  10.256 -3.7029 -0.4002  1.4429
  737MOL0     H99479  -2.004   6.404  10.311  4.0866  2.3424  1.2012
  737MOL0     H99480  -1.827   6.555  10.330 -0.6913 -0.1781  0.9463
  737MOL0     H99481   0.213   6.377   9.894  0.9303  0.1088 -1.0763
  737MOL0     H99482   0.425   6.336   9.984 -3.5179  0.1505  2.8398
  737MOL0     H99483   0.904   6.270   9.837 -0.5598  1.0313  0.2091
  737MOL0     H99484   1.133   6.243   9.904 -2.1235 -1.0407 -0.7240
  737MOL0     H99485   1.343   6.340   9.927  1.9626 -1.9199  2.3143
  737MOL0     H99486   1.378   6.514   9.956  0.3356  1.0578  1.5195
  737MOL0     H99487   1.569   6.386  10.020  0.9465  0.3387  0.7971
  737MOL0     H99488   1.467   6.277  10.115  0.2466  0.6733 -0.4737
  737MOL0     H99489   1.599   6.429  10.267  1.3544  0.9700 -0.0532
  737MOL0     H99490   1.421   6.462  10.272  1.3933 -0.0619  1.0967
  737MOL0     H99491   1.533   6.680  10.254  0.5650  0.8042 -0.7231
  737MOL0     H99492   1.427   6.647  10.129  0.4397  2.1779 -0.0665
  737MOL0     H99493   1.823   6.739   9.974 -1.4288  4.0731  0.1916
  737MOL0     H99494   1.088   6.575  10.181 -1.8682 -0.3174  1.2268
  737MOL0     H99495   0.855   6.582  10.135  0.0710 -0.2099 -0.4395
  738MOL0     O99496  10.877  10.603   3.017 -0.2404  0.4199  0.8076
  738MOL0     C99497  10.957  10.507   3.031 -0.0401 -0.0938  0.2337
  738MOL0     O99498  10.919  10.374   3.053  0.4148  0.5475 -0.1538
  738MOL0     C99499  10.793  10.326   3.036 -0.0677 -0.4307  0.1415
  738MOL0     C99500  10.727  10.236   3.122 -0.4731 -0.1460  0.0699
  738MOL0     C99501  10.595  10.200   3.104  0.7867  0.7114  0.5404
  738MOL0     C99502  10.516  10.263   3.005  0.0308 -0.3691 -0.9138
  738MOL0     O99503  10.389  10.222   3.002  1.1197  0.4351 -0.0630
  738MOL0     C99504  10.290  10.319   2.987 -0.0909 -0.7585  0.0199
  738MOL0     C99505  10.161  10.247   2.944 -0.9314  0.3275 -0.6584
  738MOL0     C99506  10.033  10.328   2.914 -0.3203  0.0658  0.0711
  738MOL0     C99507  10.024  10.417   2.796  0.5752  0.3498 -0.8271
  738MOL0     C99508   9.885  10.496   2.806 -0.4026  0.4045  0.0001
  738MOL0     C99509   9.898  10.618   2.710  0.2715 -0.2463 -0.2687
  738MOL0     C99510   9.775  10.721   2.704 -0.4978 -0.1243 -0.6465
  738MOL0     C99511   9.635  10.644   2.663 -0.1414  0.8995  0.2064
  738MOL0     N99512   9.539  10.739   2.606 -0.1594  0.0054  0.1792
  738MOL0     C99513   9.421  10.708   2.545  0.6105  0.6509  0.8283
  738MOL0     C99514   9.365  10.823   2.523 -0.5802 -0.5695  0.9000
  738MOL0     C99515   9.228  10.847   2.450  0.1540 -0.0253  0.6895
  738MOL0     C99516   9.112  10.815   2.548  0.2091 -0.0702  0.7217
  738MOL0     C99517   8.969  10.846   2.488 -0.6866  0.2399 -0.3153
  738MOL0     C99518   8.909  10.719   2.419  0.0354  0.8821 -0.9037
  738MOL0     O99519   8.957  10.699   2.276 -0.2296  0.0529 -0.5287
  738MOL0     C99520   8.942  10.569   2.227 -0.0666 -0.0162 -0.4230
  738MOL0     C99521   9.054  10.491   2.217  0.4222  0.1900  0.1170
  738MOL0     C99522   9.040  10.358   2.173  0.1467 -0.6491 -0.4700
  738MOL0     C99523   9.169  10.279   2.159  0.7923 -0.3270 -0.2936
  738MOL0     C99524   8.911  10.299   2.160  0.6269 -0.6666  0.1252
  738MOL0     C99525   8.882  10.164   2.134  0.1637  0.8894  0.5702
  738MOL0     O99526   8.755  10.131   2.079  0.5007  0.6895 -0.8277
  738MOL0     C99527   8.732  10.009   2.030  0.4023  0.7970 -0.0980
  738MOL0     C99528   8.824   9.957   1.942 -0.3377 -0.1636  0.1498
  738MOL0     C99529   8.801   9.830   1.877 -0.7582  0.6784 -0.4137
  738MOL0     C99530   8.686   9.756   1.909 -0.8213  0.4001  0.0221
  738MOL0     O99531   8.671   9.645   1.833  0.0145 -0.6146  0.1974
  738MOL0     C99532   8.569   9.554   1.853  0.6440  0.8051 -0.6232
  738MOL0     C99533   8.433   9.594   1.803 -0.3148 -0.4866  0.1585
  738MOL0     C99534   8.324   9.486   1.824  0.4822 -0.2789 -0.3636
  738MOL0     C99535   8.189   9.563   1.808  0.4564 -0.1189 -0.9461
  738MOL0     C99536   8.070   9.474   1.830  0.3889 -0.1838 -0.1840
  738MOL0     C99537   7.936   9.534   1.801  0.9133 -0.5455  0.0642
  738MOL0     C99538   7.808   9.456   1.840 -0.9752  0.3817  0.0407
  738MOL0     C99539   7.740   9.402   1.710  0.2076  0.5630 -0.1970
  738MOL0    Cl99540   7.843   9.295   1.601 -0.0107  0.2477 -0.0035
  738MOL0     C99541   8.593   9.815   1.990 -0.3743 -0.5535 -0.1665
  738MOL0     C99542   8.614   9.943   2.052 -0.4614  0.1894 -0.6335
  738MOL0     O99543   8.958  10.077   2.165 -0.0156 -0.3131  0.1874
  738MOL0     C99544   8.797  10.391   2.154 -0.7023  0.7668  0.0498
  738MOL0     C99545   8.816  10.523   2.199 -1.0173  0.9931  0.3003
  738MOL0     N99546   9.447  10.927   2.564  0.2898  0.0094  0.2606
  738MOL0     N99547   9.547  10.875   2.618 -0.2593  0.3394 -0.2282
  738MOL0     C99548  10.571  10.349   2.913 -0.0741  0.9754 -0.9275
  738MOL0     C99549  10.705  10.379   2.935 -0.6157 -0.4722  0.9446
  738MOL0     C99550  11.101  10.537   3.020 -0.6101 -0.3123 -1.1407
  738MOL0     C99551  11.199  10.437   3.028  0.2979 -1.2549 -0.1757
  738MOL0     C99552  11.333  10.463   3.023  0.2505 -0.3771 -0.6409
  738MOL0     C99553  11.379  10.596   3.024  0.5707 -0.2605  0.1364
  738MOL0     O99554  11.509  10.632   3.032 -0.0638 -0.0391  0.2097
  738MOL0     C99555  11.612  10.539   3.017  0.2791 -0.1492  0.2446
  738MOL0     C99556  11.741  10.604   3.036  0.4932 -0.6456  0.7956
  738MOL0     C99557  11.758  10.640   3.184 -0.7248 -0.4932 -0.2860
  738MOL0     C99558  11.901  10.675   3.208  0.1557  0.9127 -1.7741
  738MOL0     C99559  11.921  10.699   3.351 -0.2890  0.1086 -0.6922
  738MOL0     C99560  11.925  10.730   3.467  0.7023 -0.5065 -0.6970
  738MOL0     C99561  11.284  10.696   3.020 -0.5428  0.0444 -0.0540
  738MOL0     C99562  11.150  10.671   3.008 -0.1974 -0.6297 -0.4121
  738MOL0     H99563  10.779  10.222   3.216 -1.9750 -2.5891  0.5968
  738MOL0     H99564  10.542  10.134   3.172  0.7180 -0.7134 -0.8454
  738MOL0     H99565  10.274  10.372   3.080 -0.4391  0.7234 -0.8594
  738MOL0     H99566  10.314  10.393   2.910 -0.7772 -0.8015 -0.2453
  738MOL0     H99567  10.184  10.184   2.858  1.2947 -1.2583  0.9864
  738MOL0     H99568  10.144  10.171   3.021 -3.7563 -1.3911 -2.7745
  738MOL0     H99569   9.947  10.261   2.920 -1.6465  1.1307 -4.0937
  738MOL0     H99570  10.007  10.390   3.000 -4.6301 -1.6562  0.2827
  738MOL0     H99571  10.116  10.476   2.806  2.2522 -2.0697 -1.1945
  738MOL0     H99572  10.025  10.348   2.711  2.3083 -1.6682  0.7217
  738MOL0     H99573   9.801  10.437   2.767 -1.2604  1.9475 -0.5826
  738MOL0     H99574   9.856  10.523   2.908 -2.3152 -1.0522 -0.0929
  738MOL0     H99575   9.992  10.667   2.735  0.7627 -2.2496  2.2049
  738MOL0     H99576   9.906  10.589   2.604 -1.5676  1.2091 -0.8748
  738MOL0     H99577   9.767  10.771   2.801 -1.5665 -0.7636 -0.3876
  738MOL0     H99578   9.795  10.793   2.625 -2.5347 -0.6706 -1.7164
  738MOL0     H99579   9.603  10.599   2.757 -2.2257  0.5515 -0.6410
  738MOL0     H99580   9.658  10.560   2.597  1.7295  0.6651  1.0737
  738MOL0     H99581   9.384  10.609   2.520  1.1095  0.6543  0.0026
  738MOL0     H99582   9.227  10.950   2.414  2.9335 -0.1945 -0.1472
  738MOL0     H99583   9.220  10.775   2.368 -2.8360  2.0553 -1.0326
  738MOL0     H99584   9.128  10.898   2.618 -0.4609 -0.6232  1.5411
  738MOL0     H99585   9.122  10.725   2.608 -1.2200 -0.3468  0.5616
  738MOL0     H99586   8.974  10.934   2.424  0.1193  0.1683 -0.3699
  738MOL0     H99587   8.897  10.871   2.566 -1.8324 -1.5029 -0.7529
  738MOL0     H99588   8.800  10.733   2.420 -0.0768  0.3875  1.7252
  738MOL0     H99589   8.948  10.631   2.472  2.8759  2.7792  0.3697
  738MOL0     H99590   9.152  10.534   2.233  0.0351  1.2577 -0.3047
  738MOL0     H99591   9.188  10.196   2.227  1.1822  1.4734  1.8992
  738MOL0     H99592   9.167  10.254   2.053 -2.6880  0.2718 -0.4877
  738MOL0     H99593   9.261  10.337   2.172  0.8587 -0.6823  0.9523
  738MOL0     H99594   8.910  10.018   1.920 -1.3480  1.2515  0.0187
  738MOL0     H99595   8.879   9.786   1.816 -2.7327 -1.3902 -1.6042
  738MOL0     H99596   8.585   9.455   1.811  1.7741  1.6574 -2.3143
  738MOL0     H99597   8.560   9.521   1.957 -0.2136  0.3579 -0.8299
  738MOL0     H99598   8.400   9.693   1.835  3.5561  1.0352 -0.0717
  738MOL0     H99599   8.438   9.610   1.695 -1.2508 -3.2858 -0.3850
  738MOL0     H99600   8.339   9.449   1.926 -1.7307 -0.0776  0.0770
  738MOL0     H99601   8.333   9.406   1.751  1.7122  0.6290 -1.2661
  738MOL0     H99602   8.190   9.644   1.882 -0.0525  0.8046 -1.9288
  738MOL0     H99603   8.195   9.604   1.707  3.5709  0.9855 -0.4288
  738MOL0     H99604   8.067   9.443   1.935  0.8775  0.3672  0.0015
  738MOL0     H99605   8.078   9.377   1.781 -0.1356  0.0914 -0.8160
  738MOL0     H99606   7.926   9.627   1.858 -1.3037 -1.6641  1.6926
  738MOL0     H99607   7.930   9.554   1.694 -0.8582 -0.4532  0.1372
  738MOL0     H99608   7.745   9.525   1.896 -0.1165  1.6281 -0.4694
  738MOL0     H99609   7.836   9.374   1.907 -0.6073 -1.3403 -2.1101
  738MOL0     H99610   7.716   9.494   1.656  0.9267  0.5419 -0.5627
  738MOL0     H99611   7.645   9.351   1.729 -1.3107  2.5048 -2.0868
  738MOL0     H99612   8.506   9.757   2.018 -0.9762  0.8661  1.0419
  738MOL0     H99613   8.541   9.997   2.112  0.7867  0.2557  0.8724
  738MOL0     H99614   8.700  10.360   2.116 -0.4792  1.4046 -1.0733
  738MOL0     H99615   8.734  10.595   2.207 -0.0213  1.9591  2.4820
  738MOL0     H99616  10.511  10.384   2.829  0.4504  0.1786 -1.6585
  738MOL0     H99617  10.751  10.449   2.867 -3.4342  1.9695  1.3186
  738MOL0     H99618  11.175  10.331   3.032 -1.8022 -0.7992  2.4549
  738MOL0     H99619  11.401  10.379   3.023 -1.2292 -1.6479  0.7330
  738MOL0     H99620  11.594  10.457   3.087 -1.6342 -0.7855 -0.9119
  738MOL0     H99621  11.607  10.507   2.912  1.3470 -0.2469  0.2123
  738MOL0     H99622  11.730  10.690   2.969 -0.2002 -2.5049 -1.5885
  738MOL0     H99623  11.828  10.546   3.003  0.3507 -1.2308  1.4327
  738MOL0     H99624  11.727  10.557   3.248  1.2133 -0.6679  0.4778
  738MOL0     H99625  11.693  10.721   3.219 -0.7852 -0.4930 -0.3972
  738MOL0     H99626  11.935  10.770   3.165  2.3637  1.2361  0.4407
  738MOL0     H99627  11.973  10.595   3.187  1.8454  1.5207  1.1141
  738MOL0     H99628  11.925  10.772   3.565 -0.9429  1.0948 -1.3042
  738MOL0     H99629  11.318  10.799   3.016  1.6579 -0.6156  0.3360
  738MOL0     H99630  11.084  10.756   3.000 -0.4486 -0.5703  1.8204
  739MOL0     O99631   8.839   7.648   8.754 -0.0158  0.6941 -0.0620
  739MOL0     C99632   8.859   7.652   8.871 -1.0369  0.1139  0.0657
  739MOL0     O99633   8.773   7.698   8.970  0.6350 -0.4811 -0.4094
  739MOL0     C99634   8.639   7.709   8.934  0.1414 -0.0373 -0.2928
  739MOL0     C99635   8.558   7.596   8.913  0.7247 -0.0403 -1.2213
  739MOL0     C99636   8.418   7.614   8.882 -0.1344 -0.8799 -0.2493
  739MOL0     C99637   8.369   7.740   8.869  0.8992 -0.5092 -0.1521
  739MOL0     O99638   8.238   7.763   8.833  0.8355 -0.3922 -0.2094
  739MOL0     C99639   8.141   7.680   8.907 -1.1310 -0.2803  0.7001
  739MOL0     C99640   7.999   7.724   8.861  0.4708  0.3388 -0.4380
  739MOL0     C99641   7.898   7.627   8.924  0.5151 -0.9204  0.3747
  739MOL0     C99642   7.757   7.647   8.860 -0.8231 -0.1667 -0.5217
  739MOL0     C99643   7.662   7.527   8.882 -0.0158 -0.4848  0.5718
  739MOL0     C99644   7.528   7.549   8.825  0.5165 -0.1279  0.6603
  739MOL0     C99645   7.518   7.518   8.674  0.6841  1.7040  0.0485
  739MOL0     C99646   7.378   7.540   8.610 -0.2759 -0.2676 -0.4345
  739MOL0     N99647   7.380   7.478   8.478 -0.3720  0.4057  0.2927
  739MOL0     C99648   7.358   7.340   8.446  0.3272 -0.1517 -0.3752
  739MOL0     C99649   7.403   7.325   8.322 -0.3519 -0.2801 -0.0244
  739MOL0     C99650   7.377   7.206   8.240  0.0414  0.2396 -0.5490
  739MOL0     C99651   7.246   7.215   8.177  0.3969 -0.5571  0.2126
  739MOL0     C99652   7.198   7.081   8.110  0.5201  0.2561 -1.0088
  739MOL0     C99653   7.061   7.081   8.035  0.0457  0.0420 -0.9284
  739MOL0     O99654   6.963   7.135   8.125 -0.6771 -0.2180 -0.0220
  739MOL0     C99655   6.831   7.121   8.091  0.5824 -0.7586 -1.2673
  739MOL0     C99656   6.743   7.164   8.198  0.9598  0.3899 -0.2752
  739MOL0     C99657   6.603   7.165   8.183 -0.0423  0.8610  0.2452
  739MOL0     C99658   6.532   7.189   8.318  0.4308  0.2193 -0.6260
  739MOL0     C99659   6.548   7.121   8.057 -0.1678 -0.4283 -0.4698
  739MOL0     C99660   6.407   7.128   8.023  0.6477  1.0386 -0.6994
  739MOL0     O99661   6.372   7.065   7.900  0.1916 -0.7179  0.3186
  739MOL0     C99662   6.244   7.092   7.853  0.2054 -0.5329 -0.6394
  739MOL0     C99663   6.145   6.995   7.875  0.4390 -0.0925 -0.0309
  739MOL0     C99664   6.017   7.020   7.830 -0.0145  1.0462 -0.4547
  739MOL0     C99665   5.993   7.134   7.763  0.4155  1.0122  0.7727
  739MOL0     O99666   5.865   7.153   7.702 -0.1830 -0.1840  0.0032
  739MOL0     C99667   5.779   7.211   7.802 -0.0776 -1.1503  0.0956
  739MOL0     C99668   5.742   7.114   7.918  0.2709 -0.0573 -0.0521
  739MOL0     C99669   5.616   7.169   7.987 -0.4253  0.2024 -1.5475
  739MOL0     C99670   5.616   7.104   8.132  1.6027 -0.0678  0.5186
  739MOL0     C99671   5.486   7.138   8.201 -0.2601  0.0407 -0.0880
  739MOL0     C99672   5.482   7.137   8.356  0.0627  0.7005 -0.5305
  739MOL0     C99673   5.342   7.164   8.418 -0.1516  0.0267  0.4252
  739MOL0     C99674   5.329   7.123   8.566  0.0472 -0.4466  0.1291
  739MOL0    Cl99675   5.471   7.188   8.651  0.2301 -0.7222 -0.5041
  739MOL0     C99676   6.095   7.219   7.724 -0.0092  0.4670  0.7524
  739MOL0     C99677   6.225   7.198   7.763  0.2749 -0.4881 -0.2293
  739MOL0     O99678   6.333   7.170   8.103  0.6894  0.4408  0.1970
  739MOL0     C99679   6.638   7.073   7.956  0.3398 -0.1255  0.6047
  739MOL0     C99680   6.778   7.075   7.970  0.1746  0.9138 -0.3887
  739MOL0     N99681   7.443   7.451   8.268 -0.5859 -0.3869 -1.1726
  739MOL0     N99682   7.438   7.536   8.367  0.8517 -0.2854  0.0263
  739MOL0     C99683   8.458   7.854   8.866 -0.1780 -0.1424  0.0168
  739MOL0     C99684   8.588   7.828   8.906  0.3238 -0.2590 -0.0420
  739MOL0     C99685   9.000   7.626   8.910 -0.1174  0.8540 -0.6945
  739MOL0     C99686   9.087   7.573   8.816 -0.8174 -0.5052  0.4030
  739MOL0     C99687   9.224   7.546   8.844  0.6164  0.1445 -0.2808
  739MOL0     C99688   9.268   7.552   8.978 -0.4424 -0.1346 -0.0842
  739MOL0     O99689   9.392   7.492   9.007 -0.0120 -0.7923 -0.0878
  739MOL0     C99690   9.432   7.484   9.141 -0.0160  0.3563 -0.3556
  739MOL0     C99691   9.576   7.462   9.141  0.6451  0.4962  0.0894
  739MOL0     C99692   9.606   7.393   9.271  0.3990 -0.2675 -0.6844
  739MOL0     C99693   9.758   7.371   9.287 -0.0025 -0.4262 -0.0801
  739MOL0     C99694   9.801   7.356   9.429  0.2115 -0.0054 -0.2113
  739MOL0     C99695   9.844   7.347   9.537  0.3810 -1.0426  0.3310
  739MOL0     C99696   9.189   7.620   9.070 -0.3282 -0.1414 -0.5650
  739MOL0     C99697   9.052   7.644   9.042 -0.1356 -0.3116 -0.3139
  739MOL0     H99698   8.607   7.499   8.919  0.0305 -0.4177 -1.4765
  739MOL0     H99699   8.359   7.526   8.858 -1.4452 -0.7963  2.4044
  739MOL0     H99700   8.149   7.573   8.887 -2.6665 -0.0170 -1.8431
  739MOL0     H99701   8.143   7.696   9.015  1.4488 -0.4043  0.7291
  739MOL0     H99702   7.983   7.822   8.908  1.6213 -0.3028  1.4229
  739MOL0     H99703   7.998   7.719   8.752 -0.3598 -1.1666 -0.3871
  739MOL0     H99704   7.925   7.521   8.922  2.0943 -0.5343 -0.4837
  739MOL0     H99705   7.895   7.642   9.032  1.5788  1.6014  0.1325
  739MOL0     H99706   7.720   7.740   8.904 -1.9838  1.7113 -4.9571
  739MOL0     H99707   7.754   7.670   8.753 -2.4980  1.6106 -0.1633
  739MOL0     H99708   7.709   7.436   8.844 -0.2450  0.6965 -2.8457
  739MOL0     H99709   7.648   7.519   8.990  2.6276 -0.7742  0.9706
  739MOL0     H99710   7.449   7.487   8.870  0.4458  1.2718  2.5967
  739MOL0     H99711   7.496   7.652   8.843 -0.0821 -0.2382  0.2726
  739MOL0     H99712   7.595   7.573   8.618  1.4256  0.3273 -0.3408
  739MOL0     H99713   7.551   7.414   8.668  1.4753  1.9835 -0.6607
  739MOL0     H99714   7.359   7.648   8.614 -1.6713 -0.4766  4.0495
  739MOL0     H99715   7.295   7.496   8.665  0.3088 -2.0864 -0.9366
  739MOL0     H99716   7.311   7.261   8.503 -0.0045 -0.5603 -1.2118
  739MOL0     H99717   7.463   7.197   8.172  0.0359  0.1368 -0.5438
  739MOL0     H99718   7.374   7.115   8.301 -3.5992  0.2296 -0.5398
  739MOL0     H99719   7.252   7.291   8.099  0.4765  0.6378  1.3402
  739MOL0     H99720   7.162   7.247   8.241 -1.7521 -0.3953 -2.4990
  739MOL0     H99721   7.187   7.010   8.192 -1.5847  2.2997  0.6098
  739MOL0     H99722   7.273   7.059   8.033  0.9172  1.3602 -0.9620
  739MOL0     H99723   7.033   6.981   8.000 -0.1033 -0.4454  0.5421
  739MOL0     H99724   7.063   7.147   7.947 -1.1260  2.1569  0.5581
  739MOL0     H99725   6.796   7.198   8.287  2.6429 -1.7467 -0.3957
  739MOL0     H99726   6.490   7.290   8.316  1.7260  0.7762 -0.6565
  739MOL0     H99727   6.461   7.110   8.345  1.1492 -1.6658 -3.7168
  739MOL0     H99728   6.604   7.193   8.399 -1.2157 -0.1236  0.9262
  739MOL0     H99729   6.163   6.900   7.923  1.8357 -0.7712 -1.8057
  739MOL0     H99730   5.944   6.942   7.851 -0.3421  1.1661 -1.1389
  739MOL0     H99731   5.825   7.296   7.853 -0.7138 -0.2819 -0.7601
  739MOL0     H99732   5.694   7.239   7.740  1.6139  1.7526 -1.0762
  739MOL0     H99733   5.725   7.012   7.882 -4.3684  0.6990 -0.7105
  739MOL0     H99734   5.824   7.123   7.989  0.6093  3.1846 -0.6933
  739MOL0     H99735   5.523   7.147   7.934 -2.3520  0.5262  1.4223
  739MOL0     H99736   5.612   7.277   8.002  1.1899  0.2298 -1.1457
  739MOL0     H99737   5.620   6.994   8.133  2.2690 -0.0470  1.1532
  739MOL0     H99738   5.705   7.146   8.179  2.1719 -0.0750 -0.5250
  739MOL0     H99739   5.416   7.062   8.165 -0.7995  1.1445 -1.4424
  739MOL0     H99740   5.447   7.232   8.162 -3.6950 -1.4066 -0.5204
  739MOL0     H99741   5.527   7.042   8.388 -2.1362 -0.1075  0.3247
  739MOL0     H99742   5.551   7.211   8.396  1.4084 -1.0076  0.4454
  739MOL0     H99743   5.271   7.098   8.366  0.9442 -2.0205  1.4040
  739MOL0     H99744   5.322   7.270   8.399 -0.7052 -0.4602 -2.0794
  739MOL0     H99745   5.314   7.015   8.578  2.2943 -0.7773  0.4103
  739MOL0     H99746   5.242   7.171   8.613 -1.2732 -1.2351 -1.3872
  739MOL0     H99747   6.080   7.313   7.673 -0.5045  1.6704  2.9867
  739MOL0     H99748   6.290   7.281   7.736  0.2516 -0.7712 -1.1849
  739MOL0     H99749   6.603   7.018   7.869 -1.7535  1.0563  0.6327
  739MOL0     H99750   6.845   7.044   7.889  1.7090 -1.8208  1.7519
  739MOL0     H99751   8.421   7.955   8.847 -1.1799  0.0106  2.4349
  739MOL0     H99752   8.660   7.909   8.901  0.8248 -0.6032  1.2844
  739MOL0     H99753   9.040   7.547   8.722  0.2447  0.7602 -0.5244
  739MOL0     H99754   9.293   7.501   8.773  0.3973  0.3420 -0.6192
  739MOL0     H99755   9.409   7.577   9.193  0.0436  0.7069 -0.9462
  739MOL0     H99756   9.381   7.394   9.177  0.5577 -0.1730 -0.8507
  739MOL0     H99757   9.629   7.558   9.130  0.0738  0.6609 -1.4667
  739MOL0     H99758   9.612   7.396   9.062 -0.9829  0.4432 -0.6383
  739MOL0     H99759   9.557   7.295   9.275 -1.6287  0.7288  1.8736
  739MOL0     H99760   9.573   7.451   9.358  2.6584 -0.3927  0.3180
  739MOL0     H99761   9.814   7.453   9.241 -1.2302  1.4724  1.6490
  739MOL0     H99762   9.787   7.276   9.240 -0.5919  0.5769 -2.6256
  739MOL0     H99763   9.873   7.322   9.637 -1.1344  0.3838  1.1827
  739MOL0     H99764   9.213   7.616   9.176  0.4506  2.6046 -0.5751
  739MOL0     H99765   8.980   7.660   9.121 -0.6491  0.5839 -0.9365
  740MOL0     O99766   1.933   4.181  10.711 -0.4888 -0.5537 -0.0704
  740MOL0     C99767   1.854   4.259  10.761 -0.6194 -1.0817 -0.1683
  740MOL0     O99768   1.753   4.232  10.838  0.2678  0.4979  0.1353
  740MOL0     C99769   1.686   4.108  10.817  0.0025  0.5457  0.1363
  740MOL0     C99770   1.712   4.003  10.907  0.8974  0.1790  0.2393
  740MOL0     C99771   1.640   3.879  10.899 -0.0924 -0.8646  0.8323
  740MOL0     C99772   1.523   3.869  10.823  0.3369  0.1252  0.6477
  740MOL0     O99773   1.452   3.749  10.803 -0.8056  0.3016  0.2571
  740MOL0     C99774   1.313   3.755  10.822 -0.2441  0.1597  0.5599
  740MOL0     C99775   1.264   3.780  10.962 -0.2009  0.5318  0.6811
  740MOL0     C99776   1.124   3.724  10.979 -0.1735 -0.4022  0.3448
  740MOL0     C99777   1.081   3.766  11.123  0.2852  0.4017 -1.8971
  740MOL0     C99778   0.970   3.675  11.176  0.1312  0.3531 -0.2684
  740MOL0     C99779   0.848   3.701  11.088  0.6828  0.1802  0.4659
  740MOL0     C99780   0.722   3.648  11.173  0.0977 -0.4679  0.4008
  740MOL0     C99781   0.600   3.657  11.083  0.2418  0.1647  0.0693
  740MOL0     N99782   0.520   3.774  11.115  0.2724 -0.4787 -0.2841
  740MOL0     C99783   0.552   3.898  11.067  0.3449 -0.4407  0.7703
  740MOL0     C99784   0.472   3.979  11.135 -0.4509 -0.1688  0.4006
  740MOL0     C99785   0.486   4.120  11.113  0.0884  0.8391  0.2431
  740MOL0     C99786   0.616   4.152  11.172 -0.4685  0.4862  0.3930
  740MOL0     C99787   0.648   4.301  11.152  0.5612 -0.7969 -0.4588
  740MOL0     C99788   0.783   4.352  11.194 -1.3967 -0.5600  0.6397
  740MOL0     O99789   0.805   4.352  11.341 -0.8961  0.2704 -0.0724
  740MOL0     C99790   0.940   4.369  11.381  0.1471  0.8383 -0.0322
  740MOL0     C99791   0.960   4.356  11.518  0.2943  0.4900  0.1569
  740MOL0     C99792   1.094   4.357  11.566 -0.6695 -0.1274 -0.3050
  740MOL0     C99793   1.106   4.361  11.715  0.0172  0.7244 -0.7947
  740MOL0     C99794   1.207   4.364  11.487 -0.0163  0.3470 -0.4466
  740MOL0     C99795   1.341   4.334  11.538 -0.5126  1.1087 -0.5263
  740MOL0     O99796   1.438   4.400  11.472  0.7686 -0.4889  0.2630
  740MOL0     C99797   1.574   4.392  11.496 -0.2342  0.4535  0.5548
  740MOL0     C99798   1.638   4.267  11.521 -0.6230 -0.7255 -0.3083
  740MOL0     C99799   1.771   4.257  11.550 -0.0673  0.5003  0.2530
  740MOL0     C99800   1.846   4.368  11.556 -0.0979  0.0633  0.3699
  740MOL0     O99801   1.970   4.359  11.597  0.2433  0.6050 -0.6751
  740MOL0     C99802   2.062   4.308  11.505 -1.1591  0.2227  0.9776
  740MOL0     C99803   2.155   4.196  11.554  0.2762 -0.5648 -0.5617
  740MOL0     C99804   2.263   4.230  11.660  0.5558 -0.5045 -0.0331
  740MOL0     C99805   2.348   4.111  11.677 -0.2249 -0.1980  0.6319
  740MOL0     C99806   2.463   4.132  11.778 -0.0932  0.3452 -0.9593
  740MOL0     C99807   2.509   3.990  11.816 -0.6215  0.1548 -0.0508
  740MOL0     C99808   2.602   3.983  11.943 -1.4554  0.7805  0.2496
  740MOL0     C99809   2.630   3.840  11.972  0.2070  0.1384  0.9261
  740MOL0    Cl99810   2.661   3.821  12.147  0.8592 -0.1558  0.0346
  740MOL0     C99811   1.789   4.494  11.527 -0.0455 -0.7756 -0.6182
  740MOL0     C99812   1.650   4.503  11.491  0.2425  0.0964 -0.1129
  740MOL0     O99813   1.362   4.259  11.637  0.1153 -0.1804  0.2817
  740MOL0     C99814   1.186   4.385  11.355 -0.3557  0.5390 -0.1679
  740MOL0     C99815   1.058   4.384  11.302  0.1616 -0.3185 -0.1929
  740MOL0     N99816   0.396   3.907  11.225 -0.0046  0.3497 -0.3686
  740MOL0     N99817   0.430   3.781  11.218 -0.0736 -0.4650 -0.0151
  740MOL0     C99818   1.484   3.989  10.751  0.1133  0.5254 -0.1802
  740MOL0     C99819   1.568   4.104  10.748  0.1267 -0.2092  0.1045
  740MOL0     C99820   1.877   4.396  10.730 -0.6441  0.5220 -0.4800
  740MOL0     C99821   1.932   4.437  10.605  0.9460  0.0352  0.2627
  740MOL0     C99822   1.939   4.571  10.573  0.0523  0.5809 -0.4940
  740MOL0     C99823   1.918   4.668  10.664  1.1738  0.2252  0.7574
  740MOL0     O99824   1.957   4.792  10.614  0.4298  0.0774 -0.2139
  740MOL0     C99825   1.920   4.910  10.688 -0.6339  0.5873 -0.5690
  740MOL0     C99826   2.024   5.017  10.652  0.3797  0.1294 -0.4790
  740MOL0     C99827   2.027   5.054  10.505  0.0507  0.8691  0.6803
  740MOL0     C99828   2.139   5.142  10.468  0.1075  0.7025 -0.0600
  740MOL0     C99829   2.186   5.130  10.331 -0.7046 -1.3353  0.5615
  740MOL0     C99830   2.225   5.122  10.215  0.0797  0.1386  0.6662
  740MOL0     C99831   1.857   4.631  10.785 -0.7238 -0.2546 -0.2997
  740MOL0     C99832   1.836   4.496  10.819 -0.0944 -0.0933 -0.6698
  740MOL0     H99833   1.803   4.005  10.966  0.4100  0.3126  0.9985
  740MOL0     H99834   1.670   3.784  10.942  2.9371 -0.3552  0.0852
  740MOL0     H99835   1.269   3.833  10.759  2.7713  2.4278  1.0649
  740MOL0     H99836   1.273   3.657  10.792  3.1275 -1.9035  2.1593
  740MOL0     H99837   1.331   3.726  11.031  0.3929  0.1347 -0.1918
  740MOL0     H99838   1.266   3.888  10.978  1.1569  0.8541 -1.3023
  740MOL0     H99839   1.053   3.762  10.905 -0.9852 -2.5432 -0.0622
  740MOL0     H99840   1.124   3.615  10.965 -2.7719 -0.3351 -0.6352
  740MOL0     H99841   1.161   3.780  11.197 -1.9529  1.3886  0.5092
  740MOL0     H99842   1.038   3.865  11.108  0.5504  0.0697 -6.1574
  740MOL0     H99843   0.987   3.567  11.178 -4.2550 -0.5323 -0.6695
  740MOL0     H99844   0.935   3.708  11.274 -2.5221  2.4257 -1.7766
  740MOL0     H99845   0.832   3.807  11.066 -0.0387  0.3656  1.7764
  740MOL0     H99846   0.855   3.642  10.996 -2.8134 -0.6360  0.5884
  740MOL0     H99847   0.740   3.547  11.211 -2.2288 -0.7996  0.7542
  740MOL0     H99848   0.715   3.719  11.256  0.5197  0.7047 -0.5357
  740MOL0     H99849   0.536   3.572  11.109 -1.4418  0.7205 -1.9964
  740MOL0     H99850   0.620   3.662  10.976  1.5906  0.3689  0.3086
  740MOL0     H99851   0.618   3.938  10.991 -0.4095  0.4991  0.5901
  740MOL0     H99852   0.481   4.126  11.004  1.8534  1.9100  0.1796
  740MOL0     H99853   0.424   4.183  11.177 -0.2565  0.4753  0.2705
  740MOL0     H99854   0.694   4.098  11.117 -0.8238  1.1365 -0.7862
  740MOL0     H99855   0.631   4.120  11.275  2.3517 -1.3204 -0.4421
  740MOL0     H99856   0.575   4.368  11.199  2.6445  0.5924  0.9675
  740MOL0     H99857   0.649   4.327  11.046 -0.0319  2.3493  0.1950
  740MOL0     H99858   0.803   4.448  11.144 -1.4908 -1.9769 -2.3248
  740MOL0     H99859   0.852   4.277  11.156 -1.3377 -1.5661  2.6185
  740MOL0     H99860   0.874   4.346  11.584 -0.1265 -2.6718 -0.7175
  740MOL0     H99861   1.193   4.425  11.735  2.2825 -2.5099  0.5672
  740MOL0     H99862   1.021   4.400  11.772 -0.2760  1.1192 -1.4926
  740MOL0     H99863   1.138   4.261  11.746  1.9040  1.4024 -0.4468
  740MOL0     H99864   1.578   4.178  11.511 -0.9745 -0.7338  1.5588
  740MOL0     H99865   1.810   4.162  11.584  2.8560  1.3778 -0.3778
  740MOL0     H99866   2.016   4.276  11.410  1.0947 -1.4155  0.3420
  740MOL0     H99867   2.123   4.394  11.476 -2.6451  2.0238  2.8818
  740MOL0     H99868   2.086   4.118  11.589 -1.3780 -0.1932 -2.7640
  740MOL0     H99869   2.199   4.153  11.463 -3.0008  0.0289 -2.6230
  740MOL0     H99870   2.223   4.257  11.758 -2.1390 -0.9283 -0.9431
  740MOL0     H99871   2.320   4.310  11.613 -0.4832 -2.0364 -4.3660
  740MOL0     H99872   2.267   4.047  11.712 -2.0844  1.2745 -0.7417
  740MOL0     H99873   2.380   4.084  11.576 -1.2478 -0.4064  0.3524
  740MOL0     H99874   2.432   4.186  11.868  1.4950  0.1080 -0.2156
  740MOL0     H99875   2.538   4.198  11.732  0.2430 -0.0806 -1.0378
  740MOL0     H99876   2.428   3.920  11.839 -2.0588  1.5406 -0.7109
  740MOL0     H99877   2.562   3.944  11.733 -2.3230 -1.8715 -0.0919
  740MOL0     H99878   2.551   4.027  12.029 -1.7273  0.4438  0.2638
  740MOL0     H99879   2.694   4.041  11.926 -2.3582  2.3860  0.5895
  740MOL0     H99880   2.727   3.817  11.927  0.2528 -1.7244  1.8990
  740MOL0     H99881   2.565   3.762  11.933  1.7078  0.1945 -1.9276
  740MOL0     H99882   1.838   4.592  11.531 -2.3296  0.4055  2.8076
  740MOL0     H99883   1.616   4.603  11.463  2.9708  1.5176  1.2605
  740MOL0     H99884   1.271   4.368  11.289 -0.4785  0.9077 -0.4197
  740MOL0     H99885   1.048   4.393  11.194  0.6938  1.1430 -0.1440
  740MOL0     H99886   1.400   3.983  10.683  1.2050  0.7176 -1.5945
  740MOL0     H99887   1.540   4.193  10.692 -0.3897 -1.6024 -1.9826
  740MOL0     H99888   1.952   4.362  10.529  2.8368  2.3786 -1.7271
  740MOL0     H99889   1.974   4.606  10.476 -2.1773  0.1103 -1.5402
  740MOL0     H99890   1.815   4.929  10.663 -0.1939  1.1007 -2.1599
  740MOL0     H99891   1.924   4.876  10.791 -1.0916 -1.8486 -1.2869
  740MOL0     H99892   2.117   4.979  10.694  1.1416  0.1183 -2.0826
  740MOL0     H99893   1.998   5.109  10.705  0.9718  1.8148 -2.9600
  740MOL0     H99894   1.930   5.098  10.480 -1.8100 -2.3526  1.6319
  740MOL0     H99895   2.033   4.965  10.440  0.0606  1.9199 -0.8077
  740MOL0     H99896   2.228   5.111  10.523  1.5000  1.4799 -1.7999
  740MOL0     H99897   2.113   5.246  10.488 -0.2045  0.2617  2.0949
  740MOL0     H99898   2.247   5.122  10.111  0.5031 -1.3523  0.7455
  740MOL0     H99899   1.815   4.710  10.846  1.2940  0.5897  0.0849
  740MOL0     H99900   1.793   4.469  10.915 -4.1552 -0.4442 -2.4079
  741MOL0     O99901   8.140   9.958   4.251  0.3752  0.3757 -0.4192
  741MOL0     C99902   8.163   9.993   4.139 -0.7709 -0.2822  0.1244
  741MOL0     O99903   8.111   9.944   4.021 -0.5334 -0.1751  0.1644
  741MOL0     C99904   7.992   9.871   4.009  0.5075 -0.4387 -0.5026
  741MOL0     C99905   7.942   9.877   3.882  0.8599 -0.0494 -0.3689
  741MOL0     C99906   7.821   9.811   3.848 -0.6922 -0.1079 -0.3141
  741MOL0     C99907   7.746   9.750   3.944 -0.6863 -0.0545 -0.7498
  741MOL0     O99908   7.648   9.664   3.904  0.6549 -0.0665  0.7436
  741MOL0     C99909   7.513   9.715   3.930 -0.6009 -0.1558 -0.2452
  741MOL0     C99910   7.427   9.593   3.992 -0.0354  0.0139 -0.1423
  741MOL0     C99911   7.284   9.630   4.007 -0.3724 -0.1426  0.1893
  741MOL0     C99912   7.191   9.509   4.043 -1.1887 -0.2199 -0.1653
  741MOL0     C99913   7.055   9.545   4.093  0.1600 -0.2364  0.5170
  741MOL0     C99914   6.979   9.425   4.154  0.6172 -0.3303 -0.4789
  741MOL0     C99915   6.854   9.486   4.220  0.1785  0.3191  0.0910
  741MOL0     C99916   6.803   9.400   4.336 -0.1081  0.2930  0.3201
  741MOL0     N99917   6.666   9.422   4.367 -0.1504 -0.9853 -0.7781
  741MOL0     C99918   6.614   9.504   4.473  0.1356  0.5262 -0.2072
  741MOL0     C99919   6.481   9.465   4.483 -0.3705 -1.0128  0.4019
  741MOL0     C99920   6.382   9.545   4.572 -0.7169  0.4228  0.5246
  741MOL0     C99921   6.318   9.654   4.490  0.1875  0.8617  0.4870
  741MOL0     C99922   6.220   9.729   4.572  0.3859  0.0453  0.5150
  741MOL0     C99923   6.136   9.832   4.484  0.4419 -0.3060  0.7368
  741MOL0     O99924   6.052   9.771   4.382  0.3657  0.2660 -1.1233
  741MOL0     C99925   5.913   9.763   4.399  0.3261  0.4818  0.5613
  741MOL0     C99926   5.856   9.752   4.525  0.2368 -0.0551  0.1691
  741MOL0     C99927   5.717   9.741   4.536  0.0194  0.7362 -0.3258
  741MOL0     C99928   5.659   9.725   4.682  0.7709  0.1022  0.8773
  741MOL0     C99929   5.634   9.749   4.425  0.3014  0.0358  0.4905
  741MOL0     C99930   5.487   9.733   4.424 -0.5209  0.2213  0.6594
  741MOL0     O99931   5.416   9.763   4.533  0.4972  0.0949  0.2627
  741MOL0     C99932   5.287   9.771   4.511  0.0345 -0.6671 -0.7330
  741MOL0     C99933   5.200   9.676   4.576  0.0064 -0.0769 -0.2964
  741MOL0     C99934   5.059   9.685   4.551  0.1519 -1.0838  0.0942
  741MOL0     C99935   4.997   9.789   4.479 -0.7414 -0.1301  0.3961
  741MOL0     O99936   4.861   9.807   4.457 -0.2847 -0.8780  0.3757
  741MOL0     C99937   4.814   9.939   4.424  0.6935 -0.6006  0.3290
  741MOL0     C99938   4.663   9.932   4.443 -0.6004 -0.3331 -0.2171
  741MOL0     C99939   4.599  10.070   4.424  0.4657  0.6426  1.2496
  741MOL0     C99940   4.463  10.076   4.499 -0.6444  1.4068  0.2777
  741MOL0     C99941   4.368   9.981   4.423  0.1307 -0.5780 -0.6086
  741MOL0     C99942   4.228  10.016   4.477  0.0983 -0.2539 -0.0449
  741MOL0     C99943   4.129   9.915   4.424  0.4744  0.2776 -0.9915
  741MOL0     C99944   4.008   9.890   4.517  0.5350 -0.0087 -0.5447
  741MOL0    Cl99945   3.872   9.999   4.475 -0.6160  0.3276 -0.3047
  741MOL0     C99946   5.092   9.878   4.424  0.0473 -0.1856 -0.0957
  741MOL0     C99947   5.224   9.872   4.436  0.2212 -0.1639 -0.5762
  741MOL0     O99948   5.441   9.686   4.316  0.4150 -0.1848 -0.3267
  741MOL0     C99949   5.691   9.759   4.298 -0.2195  0.6270 -0.3519
  741MOL0     C99950   5.829   9.763   4.286 -0.9884 -0.1513  0.5907
  741MOL0     N99951   6.460   9.369   4.385  0.3612 -0.5235 -0.9708
  741MOL0     N99952   6.574   9.343   4.323  0.1670  0.3577 -0.0663
  741MOL0     C99953   7.791   9.759   4.078  0.3284  0.0640 -0.1460
  741MOL0     C99954   7.915   9.818   4.119  0.1349 -0.4800  0.9275
  741MOL0     C99955   8.269  10.099   4.137  0.3341  0.6532  0.8423
  741MOL0     C99956   8.325  10.134   4.011  0.3807  0.1073 -0.8466
  741MOL0     C99957   8.427  10.233   4.010  0.6337 -0.2035 -0.3927
  741MOL0     C99958   8.476  10.285   4.129 -0.2965  0.4534 -0.2750
  741MOL0     O99959   8.580  10.375   4.127 -0.3543 -0.0094  0.4256
  741MOL0     C99960   8.538  10.507   4.128 -0.7675 -0.1154  0.3907
  741MOL0     C99961   8.642  10.607   4.083 -0.2655  0.3380 -0.1213
  741MOL0     C99962   8.667  10.607   3.933 -0.2576  0.3996  0.6674
  741MOL0     C99963   8.786  10.688   3.892 -0.2469 -0.4707  0.5442
  741MOL0     C99964   8.817  10.656   3.751 -0.0647  0.1381  0.2194
  741MOL0     C99965   8.839  10.622   3.637 -0.6319  0.5964 -0.0619
  741MOL0     C99966   8.423  10.245   4.257 -0.0644  0.3050  0.2321
  741MOL0     C99967   8.321  10.154   4.255 -0.1799 -0.5903 -0.5587
  741MOL0     H99968   8.009   9.924   3.810  1.6979 -0.5868  0.0337
  741MOL0     H99969   7.789   9.803   3.745  0.6961 -3.0282 -0.6249
  741MOL0     H99970   7.510   9.803   3.996 -1.2131 -1.3532  1.3774
  741MOL0     H99971   7.478   9.746   3.831  1.1524  2.3165 -0.1877
  741MOL0     H99972   7.453   9.509   3.928  2.9031 -0.2006  1.1781
  741MOL0     H99973   7.459   9.581   4.096  0.9499  1.5120 -0.2348
  741MOL0     H99974   7.272   9.702   4.088  0.8808 -0.0064  0.2810
  741MOL0     H99975   7.267   9.682   3.913  2.7555  0.4331 -0.1656
  741MOL0     H99976   7.189   9.437   3.961 -0.1881 -0.7665  0.2750
  741MOL0     H99977   7.240   9.446   4.118 -0.9001 -0.1429 -0.2856
  741MOL0     H99978   7.061   9.621   4.171 -0.4718 -0.1213  0.4518
  741MOL0     H99979   7.002   9.583   4.006  1.1929 -0.4918 -0.2548
  741MOL0     H99980   6.949   9.342   4.089  0.0100 -0.7749  0.3548
  741MOL0     H99981   7.031   9.389   4.244 -4.0675 -0.6035  2.4258
  741MOL0     H99982   6.862   9.588   4.258 -1.6534 -0.4101  2.7289
  741MOL0     H99983   6.768   9.495   4.153  0.1333  0.0975  0.1177
  741MOL0     H99984   6.874   9.421   4.416  0.7163  2.2418 -0.8433
  741MOL0     H99985   6.807   9.295   4.306  0.1591  0.2393  0.5420
  741MOL0     H99986   6.671   9.572   4.535  0.7034 -0.2850  0.1774
  741MOL0     H99987   6.299   9.481   4.604 -1.2335  0.6799 -0.2870
  741MOL0     H99988   6.430   9.580   4.664  2.3260  0.4911 -0.9648
  741MOL0     H99989   6.273   9.610   4.401  1.9607  1.2193 -0.6428
  741MOL0     H99990   6.396   9.724   4.457  1.6321 -0.2172  1.4801
  741MOL0     H99991   6.275   9.787   4.647  1.7284  1.2645 -1.3098
  741MOL0     H99992   6.154   9.664   4.630 -1.3107  1.0879 -0.1542
  741MOL0     H99993   6.207   9.902   4.438 -0.3226 -1.0316 -1.7358
  741MOL0     H99994   6.073   9.901   4.541 -0.5167  0.4682 -1.1439
  741MOL0     H99995   5.917   9.768   4.613  0.2037  2.0971 -0.1560
  741MOL0     H99996   5.591   9.808   4.703 -1.0572 -0.3905 -2.3815
  741MOL0     H99997   5.611   9.627   4.689  1.7868 -0.3270  2.8469
  741MOL0     H99998   5.729   9.711   4.765 -0.7247 -3.4611  1.7598
  741MOL0     H99999   5.243   9.597   4.637 -2.2727 -1.1800 -0.0412
  741MOL0     H    0   5.000   9.604   4.595  0.8031 -0.8960  1.3781
  741MOL0     H    1   4.857  10.015   4.490 -0.9197 -2.0889  3.2844
  741MOL0     H    2   4.833   9.964   4.320 -1.2053  1.7138  0.4557
  741MOL0     H    3   4.620   9.855   4.378  1.8366 -2.8644  0.9304
  741MOL0     H    4   4.648   9.905   4.548  0.8106  2.3464  0.7647
  741MOL0     H    5   4.583  10.088   4.317  2.9926  1.9126  0.9987
  741MOL0     H    6   4.662  10.155   4.453  1.8616  0.5687 -1.2569
  741MOL0     H    7   4.476  10.042   4.603 -1.2629 -1.5796 -0.5180
  741MOL0     H    8   4.418  10.175   4.495 -0.9459  1.2290 -0.9726
  741MOL0     H    9   4.394   9.880   4.454 -2.0393 -0.5069  1.7692
  741MOL0     H   10   4.375   9.989   4.314 -0.2768 -0.4088 -0.6234
  741MOL0     H   11   4.236  10.029   4.585  1.2756  1.8821 -0.3266
  741MOL0     H   12   4.203  10.118   4.446  0.5141 -0.0821  0.1860
  741MOL0     H   13   4.177   9.820   4.396  0.0592 -0.5797  1.0253
  741MOL0     H   14   4.084   9.966   4.338  1.6151  1.0502 -1.1395
  741MOL0     H   15   4.044   9.912   4.619 -2.8600 -1.0506  1.0130
  741MOL0     H   16   3.983   9.784   4.526 -0.2854  0.3475  2.7423
  741MOL0     H   17   5.048   9.959   4.366  0.0254  0.3718  0.6954
  741MOL0     H   18   5.294   9.940   4.389  2.4458 -2.1698 -0.3572
  741MOL0     H   19   5.632   9.763   4.207  1.1726  3.9468 -1.2695
  741MOL0     H   20   5.882   9.767   4.191  0.4654  0.9846  1.4124
  741MOL0     H   21   7.733   9.703   4.152  2.7451 -3.0138 -0.3814
  741MOL0     H   22   7.937   9.791   4.222  0.4097 -1.4541  0.6287
  741MOL0     H   23   8.295  10.076   3.924 -1.9866 -3.1605  1.8944
  741MOL0     H   24   8.468  10.264   3.915  1.8359 -1.2617 -0.2334
  741MOL0     H   25   8.451  10.522   4.064 -0.6251 -0.7512  0.0367
  741MOL0     H   26   8.500  10.518   4.230  3.9058  0.3933  2.3099
  741MOL0     H   27   8.725  10.577   4.148  1.6925  0.1161 -2.5862
  741MOL0     H   28   8.611  10.705   4.121 -0.7867  0.2344 -0.2611
  741MOL0     H   29   8.577  10.644   3.883 -2.0181 -2.5273  1.4369
  741MOL0     H   30   8.674  10.501   3.908 -3.5236  0.3879 -0.6562
  741MOL0     H   31   8.873  10.651   3.947 -0.1575  1.9272  2.1905
  741MOL0     H   32   8.783  10.792   3.928  1.6632 -1.1167  2.8689
  741MOL0     H   33   8.843  10.578   3.539 -0.2849 -1.8186  0.9521
  741MOL0     H   34   8.467  10.300   4.341  0.9089  1.4549 -0.9785
  741MOL0     H   35   8.277  10.117   4.347  1.0439  0.6926  0.5998
  742MOL0     O   36   2.952   8.318   1.913  0.5060 -0.5074 -0.2213
  742MOL0     C   37   2.989   8.355   1.802  0.2617 -0.9959 -0.7402
  742MOL0     O   38   2.921   8.394   1.694 -0.2525 -0.9714  0.0563
  742MOL0     C   39   2.781   8.401   1.694 -0.8464 -0.4920 -0.8831
  742MOL0     C   40   2.703   8.472   1.785  0.2841 -0.5465 -0.3180
  742MOL0     C   41   2.565   8.459   1.783  0.7646 -0.7767 -1.0595
  742MOL0     C   42   2.506   8.378   1.682  0.7293 -0.2666 -0.3268
  742MOL0     O   43   2.366   8.356   1.673 -0.2637 -0.2358 -1.0037
  742MOL0     C   44   2.294   8.345   1.795  1.2036 -0.4129 -0.3234
  742MOL0     C   45   2.177   8.242   1.784  0.3551 -0.7394  0.0251
  742MOL0     C   46   2.119   8.222   1.924 -0.5321 -0.1794 -0.1590
  742MOL0     C   47   2.093   8.071   1.948  0.6761 -0.1583 -0.2820
  742MOL0     C   48   2.058   8.040   2.100 -0.6424  0.8794 -0.3100
  742MOL0     C   49   1.906   8.051   2.122 -0.0191  0.4943 -0.4863
  742MOL0     C   50   1.837   7.929   2.081 -0.5092 -0.5608 -0.0174
  742MOL0     C   51   1.684   7.933   2.112 -0.2127 -0.7760  0.9507
  742MOL0     N   52   1.617   8.056   2.067  1.0631 -0.2053  0.6977
  742MOL0     C   53   1.578   8.157   2.155 -0.4291 -1.0019  0.0345
  742MOL0     C   54   1.506   8.246   2.079  0.2325  0.1228  0.0810
  742MOL0     C   55   1.441   8.368   2.135  0.2860 -0.7348  0.4332
  742MOL0     C   56   1.312   8.404   2.051 -0.2321  0.8531 -0.2139
  742MOL0     C   57   1.240   8.521   2.126 -1.0711  0.0101  0.2707
  742MOL0     C   58   1.092   8.518   2.121 -0.3953  0.6940  0.9106
  742MOL0     O   59   1.042   8.634   2.185 -0.2515 -0.4697 -0.1938
  742MOL0     C   60   0.913   8.680   2.181  0.8816  0.9770  0.4755
  742MOL0     C   61   0.872   8.801   2.220  0.0276  0.2880 -0.4434
  742MOL0     C   62   0.735   8.847   2.222 -0.6278 -0.3639 -0.7134
  742MOL0     C   63   0.711   8.997   2.248 -0.1113 -0.4793 -0.0245
  742MOL0     C   64   0.636   8.751   2.189 -0.4377 -0.0421 -0.0490
  742MOL0     C   65   0.495   8.781   2.211  1.3210 -0.5324  0.5653
  742MOL0     O   66   0.417   8.693   2.154 -0.5096  0.0997  0.0745
  742MOL0     C   67   0.283   8.697   2.165 -0.4485 -0.1108  0.1747
  742MOL0     C   68   0.223   8.676   2.044 -0.6374 -0.7943  0.4656
  742MOL0     C   69   0.083   8.676   2.036  0.0852 -0.4028 -0.7041
  742MOL0     C   70   0.003   8.701   2.150  0.0370  0.6836  0.5905
  742MOL0     O   71  -0.131   8.704   2.139 -0.4679 -0.0343 -0.4051
  742MOL0     C   72  -0.208   8.684   2.260 -0.1152 -0.0419 -0.2675
  742MOL0     C   73  -0.358   8.720   2.223  0.2410 -0.2688 -0.0401
  742MOL0     C   74  -0.364   8.874   2.195  0.1971 -0.6457  0.4918
  742MOL0     C   75  -0.419   8.951   2.312  0.5566  0.3242 -0.4508
  742MOL0     C   76  -0.449   9.097   2.282 -0.1074  0.1043  0.3493
  742MOL0     C   77  -0.557   9.124   2.178 -0.2167  0.2229  0.2093
  742MOL0     C   78  -0.577   9.278   2.150  0.0697 -0.3824 -0.2188
  742MOL0     C   79  -0.675   9.298   2.040 -0.5556 -0.6263  0.6347
  742MOL0    Cl   80  -0.614   9.293   1.869  0.4174  0.3615  0.0818
  742MOL0     C   81   0.070   8.721   2.273  0.4320 -0.4104 -0.4845
  742MOL0     C   82   0.209   8.710   2.282  0.8867 -0.5579 -0.2770
  742MOL0     O   83   0.457   8.870   2.289  0.6110 -0.3279 -0.5966
  742MOL0     C   84   0.680   8.628   2.136  0.2176 -0.0723 -0.5269
  742MOL0     C   85   0.812   8.590   2.136 -0.0162 -0.6597  0.2770
  742MOL0     N   86   1.507   8.195   1.948 -0.4699  0.0764  0.7449
  742MOL0     N   87   1.581   8.095   1.933 -0.2457  0.7921  0.0791
  742MOL0     C   88   2.588   8.320   1.591 -0.1488  0.4209  0.2201
  742MOL0     C   89   2.726   8.320   1.594  0.1460 -0.1109  0.3657
  742MOL0     C   90   3.132   8.335   1.775  0.2822 -0.7272 -0.1170
  742MOL0     C   91   3.195   8.393   1.663  0.3437 -0.7062  0.3629
  742MOL0     C   92   3.332   8.404   1.644  0.5554  0.0156  0.0267
  742MOL0     C   93   3.415   8.350   1.745 -0.7082 -0.1905  0.1577
  742MOL0     O   94   3.550   8.361   1.745 -0.7019 -0.1105  0.7314
  742MOL0     C   95   3.617   8.435   1.645  0.2802  0.6510  0.2397
  742MOL0     C   96   3.598   8.591   1.666 -0.7275  0.7855 -0.8931
  742MOL0     C   97   3.593   8.642   1.812 -1.1597  0.8503  0.1966
  742MOL0     C   98   3.712   8.607   1.904 -0.2960 -0.4150  0.1973
  742MOL0     C   99   3.837   8.676   1.873  0.5847 -0.4780  0.3608
  742MOL0     C  100   3.934   8.745   1.854  0.2269  0.0485 -0.1351
  742MOL0     C  101   3.356   8.300   1.860 -0.4527  0.5975 -0.1198
  742MOL0     C  102   3.217   8.281   1.865  0.2780 -0.5950 -0.2062
  742MOL0     H  103   2.748   8.519   1.872 -0.4684 -3.0508  1.5341
  742MOL0     H  104   2.507   8.519   1.853  0.9014 -0.6829 -1.0260
  742MOL0     H  105   2.361   8.303   1.871  1.2317  0.6815  0.2843
  742MOL0     H  106   2.269   8.447   1.825 -1.3803 -0.2464 -2.7033
  742MOL0     H  107   2.103   8.284   1.715  0.4821 -0.3388  0.1308
  742MOL0     H  108   2.219   8.152   1.737 -1.8423 -2.1175  0.5245
  742MOL0     H  109   2.191   8.255   1.999  2.0395 -1.4556 -1.9408
  742MOL0     H  110   2.029   8.284   1.927  1.4548  2.8494  1.8719
  742MOL0     H  111   2.009   8.046   1.884  1.5734 -0.0135 -1.5575
  742MOL0     H  112   2.181   8.017   1.912 -1.4268 -2.9682 -1.5771
  742MOL0     H  113   2.091   7.938   2.123  0.4069  0.7776 -2.0723
  742MOL0     H  114   2.105   8.107   2.173  1.7073 -0.7238 -0.2322
  742MOL0     H  115   1.884   8.058   2.229 -0.1740  0.8168 -0.5379
  742MOL0     H  116   1.871   8.139   2.068  0.7720  1.5201  0.6170
  742MOL0     H  117   1.855   7.925   1.973 -1.8744 -1.2747 -0.2387
  742MOL0     H  118   1.887   7.839   2.118  1.3315  0.2097 -0.5248
  742MOL0     H  119   1.672   7.927   2.221 -0.1114 -1.5627  0.9293
  742MOL0     H  120   1.642   7.850   2.055 -0.8945  0.9283 -1.1451
  742MOL0     H  121   1.610   8.166   2.258  0.5485  1.4136 -0.4192
  742MOL0     H  122   1.408   8.352   2.238 -1.1955  4.3143  1.0109
  742MOL0     H  123   1.513   8.451   2.129 -2.3599  1.8443  1.9411
  742MOL0     H  124   1.254   8.312   2.056  0.5411  0.3902  0.4423
  742MOL0     H  125   1.330   8.438   1.949  1.2762  1.3480  0.1848
  742MOL0     H  126   1.275   8.616   2.084 -1.2943 -0.7098 -1.6769
  742MOL0     H  127   1.270   8.536   2.230 -1.1128 -1.0527  0.4515
  742MOL0     H  128   1.039   8.438   2.173 -1.1468  0.5191 -0.0966
  742MOL0     H  129   1.054   8.520   2.019 -1.9620  2.3352  1.4551
  742MOL0     H  130   0.955   8.867   2.244  2.2305 -2.1485 -0.8072
  742MOL0     H  131   0.624   9.031   2.192 -1.6613 -1.3615  1.7307
  742MOL0     H  132   0.690   9.005   2.355 -1.8154 -0.5165 -0.3254
  742MOL0     H  133   0.800   9.056   2.224 -1.1917  1.0418 -0.3689
  742MOL0     H  134   0.293   8.668   1.961 -3.7929  4.9283 -3.4058
  742MOL0     H  135   0.047   8.667   1.934  2.1486 -0.6364 -1.4616
  742MOL0     H  136  -0.214   8.580   2.293 -1.2491  0.3569  0.8786
  742MOL0     H  137  -0.173   8.759   2.332  2.1161 -0.4678 -0.8427
  742MOL0     H  138  -0.387   8.667   2.132  0.3361  0.8728 -0.7579
  742MOL0     H  139  -0.421   8.688   2.307  0.7022 -0.1487  0.3594
  742MOL0     H  140  -0.429   8.893   2.109  1.4101  4.0263  0.3195
  742MOL0     H  141  -0.271   8.924   2.166 -0.5487  0.8693  0.5980
  742MOL0     H  142  -0.513   8.909   2.349  0.2414  3.1119  2.3659
  742MOL0     H  143  -0.349   8.943   2.397  0.1313 -4.2455 -0.3165
  742MOL0     H  144  -0.352   9.136   2.251  0.4945 -0.2624  1.7083
  742MOL0     H  145  -0.470   9.130   2.384  4.1912  1.0295  1.1485
  742MOL0     H  146  -0.529   9.070   2.088  2.4729 -0.0980  1.1378
  742MOL0     H  147  -0.655   9.086   2.205 -0.7624  1.3620 -0.1084
  742MOL0     H  148  -0.484   9.329   2.124 -0.4408  0.1337 -1.0685
  742MOL0     H  149  -0.613   9.329   2.240 -2.2120 -2.5107  0.2126
  742MOL0     H  150  -0.724   9.394   2.062  1.9744  0.4975  1.7159
  742MOL0     H  151  -0.757   9.226   2.045 -1.3991  0.2110 -0.5145
  742MOL0     H  152   0.026   8.741   2.370  2.0484 -1.2778  0.4697
  742MOL0     H  153   0.254   8.721   2.381 -0.2392 -0.9191  0.2911
  742MOL0     H  154   0.604   8.554   2.116 -1.3518  1.9030 -2.3560
  742MOL0     H  155   0.837   8.491   2.098 -1.6987 -0.2753 -2.0543
  742MOL0     H  156   2.533   8.265   1.515  3.8114 -1.8778 -1.3029
  742MOL0     H  157   2.787   8.262   1.526  1.6428  1.7806 -0.0090
  742MOL0     H  158   3.141   8.446   1.586  3.0148  0.4092 -0.8957
  742MOL0     H  159   3.362   8.458   1.555  1.4680  0.9703  0.8842
  742MOL0     H  160   3.719   8.394   1.639 -0.4506 -1.3813  0.7407
  742MOL0     H  161   3.580   8.403   1.547  1.1753  2.0012 -0.5679
  742MOL0     H  162   3.504   8.614   1.616 -1.9896 -2.7847 -0.4614
  742MOL0     H  163   3.680   8.633   1.606  0.8775 -2.8622 -1.5341
  742MOL0     H  164   3.503   8.607   1.863 -0.0396  2.1204  3.2842
  742MOL0     H  165   3.593   8.751   1.820  1.8909  0.8425  1.4476
  742MOL0     H  166   3.733   8.500   1.893  3.5533  0.3820 -2.3376
  742MOL0     H  167   3.687   8.630   2.008 -0.1611  3.4545 -0.4729
  742MOL0     H  168   4.022   8.805   1.845  1.9098 -1.9513  1.8351
  742MOL0     H  169   3.434   8.257   1.922 -1.3032  1.4547  1.6059
  742MOL0     H  170   3.176   8.232   1.953  0.4633  1.0255  0.8232
  743MOL0     O  171   8.684   9.262   4.718  0.3285  0.4733 -0.4689
  743MOL0     C  172   8.735   9.285   4.609  0.3537 -1.1267 -0.4143
  743MOL0     O  173   8.677   9.258   4.482 -0.2935  0.0291 -0.6342
  743MOL0     C  174   8.555   9.194   4.478 -0.1118  0.0145  0.1094
  743MOL0     C  175   8.549   9.057   4.511  0.6134  0.4486  0.1167
  743MOL0     C  176   8.428   8.994   4.500  0.3492 -0.0397  0.2105
  743MOL0     C  177   8.311   9.059   4.439 -0.0179  0.7787  0.2077
  743MOL0     O  178   8.183   9.008   4.451  0.0898  0.4927  0.0756
  743MOL0     C  179   8.166   8.865   4.445  0.0813  0.1908  0.2840
  743MOL0     C  180   8.039   8.828   4.395 -0.1509 -0.1708  0.5205
  743MOL0     C  181   7.914   8.906   4.448  0.1119  0.2135  0.0428
  743MOL0     C  182   7.862   8.861   4.585 -0.1333 -0.6652  0.6422
  743MOL0     C  183   7.723   8.933   4.598  0.0361 -0.6823  0.2842
  743MOL0     C  184   7.633   8.882   4.708  0.5709  0.2228  1.7034
  743MOL0     C  185   7.676   8.910   4.847 -0.5004  1.0607 -0.5293
  743MOL0     C  186   7.565   8.888   4.950  0.9875 -0.2318  0.1206
  743MOL0     N  187   7.532   8.746   4.980 -0.1710  0.0207  0.0377
  743MOL0     C  188   7.616   8.657   5.045 -0.2467  0.6029  0.3042
  743MOL0     C  189   7.549   8.539   5.030  0.1779  0.3813  0.1339
  743MOL0     C  190   7.581   8.399   5.073 -1.1366 -0.1281 -0.3629
  743MOL0     C  191   7.477   8.284   5.044  0.5182  0.8718  0.3247
  743MOL0     C  192   7.457   8.242   4.896 -0.8102 -0.0672  0.4977
  743MOL0     C  193   7.355   8.132   4.874  0.2829 -0.4931 -0.0386
  743MOL0     O  194   7.231   8.201   4.901 -0.1560  0.3875  0.2981
  743MOL0     C  195   7.111   8.138   4.880  0.1406 -0.0248  0.4442
  743MOL0     C  196   7.006   8.212   4.914  0.4838 -0.4489  0.1142
  743MOL0     C  197   6.874   8.162   4.882 -0.2841 -0.0600 -0.2699
  743MOL0     C  198   6.761   8.243   4.931  0.0990 -0.6010 -0.2735
  743MOL0     C  199   6.861   8.029   4.827  0.0702 -0.2255  1.1686
  743MOL0     C  200   6.731   7.958   4.801  0.4260 -0.0502 -0.0772
  743MOL0     O  201   6.618   8.036   4.802  0.7960 -0.7327 -0.3919
  743MOL0     C  202   6.499   7.976   4.785  0.4278  0.4603  0.7462
  743MOL0     C  203   6.470   7.901   4.663 -0.6942 -0.5750  1.1750
  743MOL0     C  204   6.345   7.829   4.648  0.9836 -1.2989 -0.1434
  743MOL0     C  205   6.242   7.853   4.743 -0.0323 -0.7721 -0.1615
  743MOL0     O  206   6.111   7.814   4.721  0.1195 -0.1584  0.1296
  743MOL0     C  207   6.070   7.687   4.757 -0.3934  0.5872  0.2905
  743MOL0     C  208   5.954   7.639   4.669  0.2519  0.1325  0.3629
  743MOL0     C  209   5.877   7.515   4.718  0.1422  0.2073  0.9022
  743MOL0     C  210   5.757   7.498   4.618  0.4978  0.1214  0.1939
  743MOL0     C  211   5.665   7.384   4.652  0.3474 -0.3383 -0.6040
  743MOL0     C  212   5.558   7.350   4.552  0.2473 -1.3779  0.7087
  743MOL0     C  213   5.491   7.220   4.581 -0.6699 -0.4911  0.0030
  743MOL0     C  214   5.387   7.179   4.475 -1.1183 -0.3440 -0.3271
  743MOL0    Cl  215   5.250   7.283   4.499 -0.6143  0.2370  0.0097
  743MOL0     C  216   6.265   7.935   4.851  0.6291 -0.0775 -0.5188
  743MOL0     C  217   6.395   7.994   4.872  0.8402  0.8886 -0.4038
  743MOL0     O  218   6.733   7.841   4.776 -0.2252 -0.1809  0.8981
  743MOL0     C  219   6.977   7.960   4.804 -0.5861  0.6237  0.4117
  743MOL0     C  220   7.103   8.013   4.830  0.1342 -0.4078  0.0977
  743MOL0     N  221   7.430   8.557   4.960  0.4093  0.1401 -0.3065
  743MOL0     N  222   7.428   8.685   4.936  0.1742  0.3271 -0.0947
  743MOL0     C  223   8.329   9.190   4.398 -0.7627  0.0502  0.6082
  743MOL0     C  224   8.448   9.258   4.420 -0.5424 -0.8834  0.3724
  743MOL0     C  225   8.864   9.359   4.600  0.0042  0.4976  0.3708
  743MOL0     C  226   8.928   9.401   4.726  0.4771 -0.0802  0.1092
  743MOL0     C  227   9.052   9.471   4.728 -0.7473  0.2705 -0.5352
  743MOL0     C  228   9.109   9.515   4.610  1.0603 -0.4604 -0.5285
  743MOL0     O  229   9.219   9.599   4.622 -0.5017 -0.3190  0.1766
  743MOL0     C  230   9.255   9.692   4.521  0.4422  0.7564  0.1656
  743MOL0     C  231   9.302   9.829   4.566 -0.2114  0.0457 -0.0234
  743MOL0     C  232   9.418   9.816   4.670  0.1310 -0.0305 -0.1730
  743MOL0     C  233   9.425   9.955   4.737 -0.2870  1.0294 -0.0729
  743MOL0     C  234   9.528   9.953   4.839 -0.4917  0.8684  0.1010
  743MOL0     C  235   9.619   9.965   4.917  0.8555 -0.9332 -0.3485
  743MOL0     C  236   9.048   9.475   4.486 -0.0751  0.5869  0.4320
  743MOL0     C  237   8.929   9.395   4.488  0.5212  0.6349  0.5461
  743MOL0     H  238   8.635   9.003   4.550 -0.8946 -0.2063  2.7732
  743MOL0     H  239   8.411   8.892   4.532  0.2989 -1.5855 -4.1404
  743MOL0     H  240   8.242   8.832   4.373 -0.4072  2.6217 -1.4584
  743MOL0     H  241   8.178   8.826   4.546 -2.3283 -0.3550  0.4101
  743MOL0     H  242   8.058   8.836   4.287  0.4304 -0.6773  0.5797
  743MOL0     H  243   8.018   8.724   4.423 -1.3938 -0.0140  0.2485
  743MOL0     H  244   7.925   9.014   4.456 -0.5876  0.3192 -0.3311
  743MOL0     H  245   7.834   8.897   4.374 -0.2247 -0.0165  0.4277
  743MOL0     H  246   7.843   8.753   4.590 -2.3564 -0.2608  3.5389
  743MOL0     H  247   7.936   8.881   4.663 -0.4824 -3.6508  1.8693
  743MOL0     H  248   7.746   9.040   4.603  0.5005 -0.7896  0.4957
  743MOL0     H  249   7.668   8.914   4.506 -0.3631 -1.6182  0.6954
  743MOL0     H  250   7.526   8.897   4.696  0.7454  1.5867  1.6254
  743MOL0     H  251   7.626   8.775   4.686 -1.4795  0.8305 -1.1666
  743MOL0     H  252   7.766   8.856   4.878 -1.8343  0.1910  2.1442
  743MOL0     H  253   7.711   9.012   4.868  1.3633  0.4522 -0.4870
  743MOL0     H  254   7.472   8.938   4.920 -0.6012 -2.0248  1.8175
  743MOL0     H  255   7.589   8.944   5.041  1.5724 -2.8717  1.6951
  743MOL0     H  256   7.714   8.670   5.091  1.2718  0.0353 -2.5917
  743MOL0     H  257   7.677   8.383   5.025 -1.2387  1.7652 -1.2605
  743MOL0     H  258   7.596   8.418   5.180  2.3795  2.7044 -1.1630
  743MOL0     H  259   7.379   8.321   5.074  0.9869  1.8437  0.6948
  743MOL0     H  260   7.504   8.199   5.108  1.6107 -0.2612 -1.5682
  743MOL0     H  261   7.552   8.212   4.850 -0.8171 -0.1877  0.5601
  743MOL0     H  262   7.425   8.333   4.845 -0.5700 -2.0108 -3.5246
  743MOL0     H  263   7.380   8.044   4.935 -1.0717 -2.1661 -1.7705
  743MOL0     H  264   7.354   8.100   4.769 -0.5889  2.2540 -0.9544
  743MOL0     H  265   7.014   8.314   4.951 -0.4438 -0.5005  0.4936
  743MOL0     H  266   6.784   8.347   4.957 -2.8397  0.1399 -0.3143
  743MOL0     H  267   6.685   8.253   4.852  1.6189 -2.9472 -2.1996
  743MOL0     H  268   6.723   8.188   5.017  1.4015 -4.6367 -2.0031
  743MOL0     H  269   6.546   7.898   4.586  0.4322 -0.5817  2.2561
  743MOL0     H  270   6.317   7.771   4.561 -3.0194 -1.3996  1.0250
  743MOL0     H  271   6.155   7.618   4.755 -0.3631  0.6059 -1.7706
  743MOL0     H  272   6.032   7.695   4.859  0.4023 -1.1721  0.7578
  743MOL0     H  273   5.879   7.717   4.656 -0.4796 -0.4642  0.8696
  743MOL0     H  274   5.999   7.630   4.570 -1.0483  3.6064 -0.6702
  743MOL0     H  275   5.832   7.541   4.814 -2.1096 -2.3134  0.6616
  743MOL0     H  276   5.935   7.423   4.724 -0.2700 -0.1174  0.1633
  743MOL0     H  277   5.700   7.591   4.607 -1.6766 -1.4288 -3.5104
  743MOL0     H  278   5.796   7.477   4.518 -0.0896 -0.9226  0.1781
  743MOL0     H  279   5.606   7.412   4.739 -1.9399  2.6100 -2.8659
  743MOL0     H  280   5.720   7.294   4.681 -1.9421 -1.4690  0.5382
  743MOL0     H  281   5.483   7.429   4.545  1.3080 -0.4858 -3.6970
  743MOL0     H  282   5.589   7.351   4.447  0.7403 -1.2987  0.8481
  743MOL0     H  283   5.432   7.218   4.673  0.4005 -0.7403  0.7050
  743MOL0     H  284   5.568   7.145   4.601 -0.4706 -0.2667  0.0881
  743MOL0     H  285   5.350   7.076   4.479 -2.3079  0.0172 -1.3891
  743MOL0     H  286   5.429   7.185   4.374 -0.2240  2.1230  0.1159
  743MOL0     H  287   6.186   7.954   4.922  0.4598  0.6165 -0.8838
  743MOL0     H  288   6.421   8.060   4.955  1.8611  1.6898 -1.3241
  743MOL0     H  289   6.969   7.856   4.776 -2.5398  1.0238 -0.6799
  743MOL0     H  290   7.187   7.944   4.823  1.0647  0.6971  0.0570
  743MOL0     H  291   8.246   9.251   4.365  1.2699  1.3586 -2.6357
  743MOL0     H  292   8.466   9.362   4.393  0.1741 -1.1508 -0.2331
  743MOL0     H  293   8.883   9.376   4.822 -3.1286  1.8994 -0.9059
  743MOL0     H  294   9.089   9.503   4.825 -3.1895 -2.4003  1.4211
  743MOL0     H  295   9.326   9.645   4.452  0.2117 -1.2664  1.2248
  743MOL0     H  296   9.167   9.706   4.458  2.1309 -1.1548 -2.9130
  743MOL0     H  297   9.217   9.886   4.605  0.7291  2.4592 -1.3225
  743MOL0     H  298   9.348   9.878   4.480  0.5091 -0.1461  0.2454
  743MOL0     H  299   9.505   9.775   4.617 -0.6745 -1.1685 -0.6650
  743MOL0     H  300   9.384   9.742   4.743 -0.9403  0.2642 -0.3483
  743MOL0     H  301   9.332   9.989   4.783 -1.3240  1.1769 -2.1482
  743MOL0     H  302   9.453  10.026   4.658 -0.0547 -0.4882 -1.4222
  743MOL0     H  303   9.707   9.983   4.975  2.2563 -1.2776 -2.2674
  743MOL0     H  304   9.093   9.498   4.390 -0.6454 -1.0142 -0.2620
  743MOL0     H  305   8.888   9.367   4.391  2.2698  0.5821 -0.2235
  744MOL0     O  306   9.836   8.226   9.141  0.1670  0.0742  0.3545
  744MOL0     C  307   9.932   8.155   9.105  0.2792 -0.3067 -0.1821
  744MOL0     O  308   9.928   8.070   8.992 -0.6084 -0.6358 -0.0137
  744MOL0     C  309   9.821   8.052   8.912  0.4181 -0.1325  0.4078
  744MOL0     C  310   9.730   8.152   8.871 -0.0050  0.2678  0.2173
  744MOL0     C  311   9.619   8.119   8.792 -0.1414 -0.4164  0.7880
  744MOL0     C  312   9.596   7.983   8.753 -0.2192 -0.6164  0.0369
  744MOL0     O  313   9.485   7.964   8.675 -0.3889 -0.7955 -0.4209
  744MOL0     C  314   9.428   7.833   8.657 -0.3993 -0.0688 -0.2324
  744MOL0     C  315   9.296   7.847   8.584  0.1644  0.3763  0.2370
  744MOL0     C  316   9.197   7.919   8.666 -0.0015 -0.3754 -0.5715
  744MOL0     C  317   9.062   7.946   8.589 -0.0455  0.3279 -0.4151
  744MOL0     C  318   8.966   8.028   8.671 -0.5912  0.0746  0.3348
  744MOL0     C  319   8.853   8.100   8.604  0.7677  0.2749  0.0597
  744MOL0     C  320   8.721   8.024   8.589  0.3947  0.4240  0.6258
  744MOL0     C  321   8.731   7.915   8.478 -0.0446 -0.6168 -0.1224
  744MOL0     N  322   8.601   7.851   8.466  0.0335 -0.1183  0.2836
  744MOL0     C  323   8.483   7.879   8.528 -0.8134  0.4116 -1.2952
  744MOL0     C  324   8.386   7.807   8.469 -0.5108 -0.6459  0.1410
  744MOL0     C  325   8.243   7.845   8.488  0.2852 -0.0084  0.0065
  744MOL0     C  326   8.161   7.725   8.529  0.2164  0.3425  1.7699
  744MOL0     C  327   8.157   7.605   8.426  0.1628 -0.3643  0.7970
  744MOL0     C  328   8.110   7.647   8.286 -0.0697  0.0126 -0.2128
  744MOL0     O  329   7.970   7.671   8.314 -0.5263  0.0677 -0.4227
  744MOL0     C  330   7.877   7.696   8.221 -0.3545 -0.1377  0.5218
  744MOL0     C  331   7.907   7.786   8.118  0.3079  0.0865  0.5321
  744MOL0     C  332   7.804   7.824   8.024 -0.4330 -0.2147 -0.4217
  744MOL0     C  333   7.856   7.928   7.915 -0.5022  1.3919 -0.1251
  744MOL0     C  334   7.675   7.761   8.022 -0.1779 -0.5905  1.5005
  744MOL0     C  335   7.560   7.809   7.927  0.2688  0.4564 -0.4241
  744MOL0     O  336   7.432   7.793   7.984 -0.0480  0.6410  0.1115
  744MOL0     C  337   7.334   7.860   7.920  0.3309  0.8437 -0.6728
  744MOL0     C  338   7.324   8.003   7.905  0.3141  0.3383  0.0532
  744MOL0     C  339   7.213   8.072   7.868  0.6388  0.3046  0.8747
  744MOL0     C  340   7.099   7.996   7.828  0.2598 -0.1792 -0.6173
  744MOL0     O  341   6.981   8.042   7.781  0.0540 -0.0804 -0.1087
  744MOL0     C  342   6.944   8.172   7.805 -1.0441  0.5662  0.2756
  744MOL0     C  343   6.794   8.203   7.797 -0.9667  0.2746  0.1436
  744MOL0     C  344   6.704   8.102   7.878 -0.1976 -0.2331  0.2048
  744MOL0     C  345   6.721   8.114   8.030 -0.1965 -0.2050 -0.1198
  744MOL0     C  346   6.640   8.027   8.122 -0.0242  0.0163  0.1914
  744MOL0     C  347   6.689   7.887   8.134 -0.6954  0.3912 -0.2838
  744MOL0     C  348   6.622   7.803   8.241 -0.1372  0.5563  0.1178
  744MOL0     C  349   6.719   7.690   8.287  0.1656  0.4804  0.3168
  744MOL0    Cl  350   6.614   7.554   8.334 -0.2314 -0.2220  0.6164
  744MOL0     C  351   7.110   7.854   7.830  0.4144 -0.4897  0.0836
  744MOL0     C  352   7.220   7.787   7.881  0.8061  1.1502  0.3685
  744MOL0     O  353   7.587   7.876   7.826 -0.5600  0.2220  0.2842
  744MOL0     C  354   7.656   7.674   8.132  0.4663  0.1291  1.1170
  744MOL0     C  355   7.758   7.637   8.225 -0.6154  0.2829 -0.5984
  744MOL0     N  356   8.437   7.740   8.365 -0.6029 -0.6891 -0.1000
  744MOL0     N  357   8.571   7.759   8.367  0.1085  0.4352 -1.0326
  744MOL0     C  358   9.696   7.887   8.788 -0.2263 -0.9074 -0.4946
  744MOL0     C  359   9.803   7.920   8.864  0.2556 -0.2809  0.1995
  744MOL0     C  360  10.068   8.167   9.165  0.0974 -0.5805  0.1999
  744MOL0     C  361  10.079   8.200   9.297 -0.8198  0.3018 -0.4757
  744MOL0     C  362  10.206   8.242   9.349 -0.0173 -1.0515  0.0033
  744MOL0     C  363  10.321   8.247   9.271  0.8896  0.0099 -0.7408
  744MOL0     O  364  10.439   8.282   9.323 -0.2073  0.3242 -0.2296
  744MOL0     C  365  10.560   8.275   9.245 -0.2468  0.1250  0.6096
  744MOL0     C  366  10.681   8.278   9.345  1.2641  0.4982 -0.5862
  744MOL0     C  367  10.682   8.396   9.446 -0.0499  0.9387  0.6917
  744MOL0     C  368  10.767   8.506   9.400  0.3972  0.1598  0.4177
  744MOL0     C  369  10.724   8.561   9.270  0.2278  0.4847  0.2595
  744MOL0     C  370  10.701   8.592   9.152  0.5267  0.2825 -0.4779
  744MOL0     C  371  10.303   8.218   9.130 -0.6366  0.1212 -0.3993
  744MOL0     C  372  10.178   8.174   9.081  0.0776 -0.2706 -0.6272
  744MOL0     H  373   9.733   8.259   8.890  0.2994  0.0918  1.2485
  744MOL0     H  374   9.558   8.196   8.747 -0.1709 -1.0401 -0.2670
  744MOL0     H  375   9.493   7.781   8.586 -2.6616 -2.1385 -0.9393
  744MOL0     H  376   9.407   7.768   8.742 -2.0811 -2.9813 -2.6723
  744MOL0     H  377   9.306   7.885   8.482 -0.7816  1.0913  0.3977
  744MOL0     H  378   9.254   7.745   8.581 -0.6135  0.6262  1.6550
  744MOL0     H  379   9.192   7.868   8.763 -0.0830  0.0809 -0.3357
  744MOL0     H  380   9.240   8.019   8.677 -2.6135  0.6055  2.0144
  744MOL0     H  381   9.080   8.001   8.496  0.5500  0.1696 -0.4032
  744MOL0     H  382   9.023   7.847   8.565  0.9999 -0.2241  0.1056
  744MOL0     H  383   8.933   7.972   8.759 -0.4700  2.0951  1.7362
  744MOL0     H  384   9.028   8.111   8.708  0.7235 -0.4442 -0.6338
  744MOL0     H  385   8.825   8.188   8.662  0.0990  0.6258 -0.7771
  744MOL0     H  386   8.876   8.143   8.506 -4.2469  1.5906 -0.8503
  744MOL0     H  387   8.685   7.981   8.683 -0.0763 -0.1580  0.1847
  744MOL0     H  388   8.648   8.102   8.568  1.6802  1.4926 -0.0460
  744MOL0     H  389   8.804   7.842   8.515  0.0397  0.3668  1.7770
  744MOL0     H  390   8.764   7.960   8.384 -1.1019 -1.1727 -0.7775
  744MOL0     H  391   8.467   7.957   8.601  1.4422  0.2040 -0.4936
  744MOL0     H  392   8.244   7.935   8.551  1.6776  0.0246 -0.0302
  744MOL0     H  393   8.192   7.874   8.396  1.8466 -1.0234 -1.2347
  744MOL0     H  394   8.057   7.749   8.553 -0.9783 -2.3901 -0.0839
  744MOL0     H  395   8.204   7.677   8.618  1.6379 -1.4716  0.2088
  744MOL0     H  396   8.096   7.521   8.459 -1.1921  0.0982 -0.4063
  744MOL0     H  397   8.256   7.559   8.417 -0.6524 -2.0996  0.3400
  744MOL0     H  398   8.127   7.562   8.219 -0.7925  0.1198 -0.5432
  744MOL0     H  399   8.176   7.731   8.262 -0.1354  0.2252  0.3568
  744MOL0     H  400   8.002   7.837   8.117 -0.3730  1.3997 -0.0870
  744MOL0     H  401   7.782   8.008   7.900 -0.5554  1.2507 -0.6045
  744MOL0     H  402   7.952   7.965   7.952  0.1592 -1.2671  1.0341
  744MOL0     H  403   7.861   7.884   7.816 -0.6962  1.2671 -0.0801
  744MOL0     H  404   7.411   8.063   7.929  0.2045  1.5621 -2.2698
  744MOL0     H  405   7.218   8.180   7.869  1.3883  0.2871  0.1636
  744MOL0     H  406   6.972   8.191   7.909  2.5624 -0.1800 -0.4276
  744MOL0     H  407   6.999   8.240   7.740  0.3636  0.8546  1.6998
  744MOL0     H  408   6.775   8.302   7.840 -1.3634  0.1080  0.3637
  744MOL0     H  409   6.757   8.204   7.694  2.3770 -0.6255 -1.1827
  744MOL0     H  410   6.720   8.001   7.841 -1.3315 -0.9868  1.6685
  744MOL0     H  411   6.605   8.138   7.851  0.4493  0.4356 -1.4056
  744MOL0     H  412   6.829   8.107   8.048  1.0908 -1.0322 -5.9810
  744MOL0     H  413   6.706   8.220   8.052  0.4391  0.0720 -0.9268
  744MOL0     H  414   6.533   8.012   8.103 -0.7884  0.3992  3.4776
  744MOL0     H  415   6.649   8.072   8.221  1.1666  2.5935 -0.9971
  744MOL0     H  416   6.686   7.842   8.034 -1.1407 -1.7202  0.6219
  744MOL0     H  417   6.796   7.897   8.156 -0.0999 -2.1718 -1.6758
  744MOL0     H  418   6.540   7.754   8.187 -0.0894  0.0544  0.4907
  744MOL0     H  419   6.587   7.857   8.329 -0.2643  0.2240  0.2751
  744MOL0     H  420   6.776   7.729   8.372 -2.4192 -0.9187  2.8817
  744MOL0     H  421   6.785   7.656   8.206 -1.1245 -1.7888  0.1543
  744MOL0     H  422   7.015   7.804   7.814  0.4285 -0.0499 -1.6464
  744MOL0     H  423   7.207   7.679   7.885 -1.6801  1.3385 -0.3748
  744MOL0     H  424   7.556   7.636   8.152 -0.1195  1.7123  1.2858
  744MOL0     H  425   7.732   7.563   8.300 -0.4535 -0.9224 -1.6889
  744MOL0     H  426   9.698   7.784   8.753 -2.3475 -1.1611 -0.0314
  744MOL0     H  427   9.881   7.845   8.880  1.5309  0.3909 -2.2955
  744MOL0     H  428   9.991   8.189   9.360 -0.0427 -0.2981  0.5209
  744MOL0     H  429  10.214   8.262   9.455 -0.8312 -1.1546  0.0883
  744MOL0     H  430  10.551   8.177   9.198  0.3701 -1.3326  3.3492
  744MOL0     H  431  10.572   8.356   9.172  1.9302 -1.8506 -1.3965
  744MOL0     H  432  10.770   8.286   9.282  0.0383  1.0916 -2.3398
  744MOL0     H  433  10.668   8.185   9.400 -5.2197 -0.7516 -3.2120
  744MOL0     H  434  10.720   8.353   9.539 -2.1702 -1.6642  0.4988
  744MOL0     H  435  10.577   8.427   9.456 -0.8803 -1.3540 -0.1744
  744MOL0     H  436  10.872   8.476   9.400  1.1799  2.6265 -0.5338
  744MOL0     H  437  10.776   8.581   9.479  0.3242  0.4746  0.1321
  744MOL0     H  438  10.688   8.614   9.048 -0.9447  0.3706 -0.2900
  744MOL0     H  439  10.376   8.229   9.051 -1.7778  1.1052 -1.3511
  744MOL0     H  440  10.176   8.153   8.975  3.9411 -1.4304 -0.6215
  745MOL0     O  441   2.870   5.235   6.463 -0.6064  0.0828  0.1090
  745MOL0     C  442   2.886   5.207   6.582 -0.5689  0.2929  0.3755
  745MOL0     O  443   2.784   5.203   6.672  0.6641 -0.2517  0.0592
  745MOL0     C  444   2.652   5.231   6.653 -0.0094 -0.2760  1.0330
  745MOL0     C  445   2.556   5.170   6.737 -0.3644  0.5160 -0.4202
  745MOL0     C  446   2.423   5.209   6.726 -0.1168  0.1774 -0.1961
  745MOL0     C  447   2.382   5.306   6.638  0.6647  0.4243  0.4331
  745MOL0     O  448   2.253   5.349   6.653 -0.0276  0.1130  0.6896
  745MOL0     C  449   2.164   5.327   6.546  0.3095  0.7473  0.1791
  745MOL0     C  450   2.021   5.363   6.590  0.6817  0.1079  1.4004
  745MOL0     C  451   1.918   5.328   6.486  1.0643  0.2853 -0.5837
  745MOL0     C  452   1.777   5.365   6.523  0.2270  0.1983  0.6457
  745MOL0     C  453   1.741   5.510   6.560 -0.3501  0.0476 -0.5552
  745MOL0     C  454   1.595   5.544   6.537  0.7242  0.5689 -0.2824
  745MOL0     C  455   1.539   5.670   6.605 -1.1014 -0.3462 -0.4428
  745MOL0     C  456   1.386   5.663   6.599  0.1643  0.1913 -1.1069
  745MOL0     N  457   1.344   5.571   6.715  0.4291  0.7999  0.5040
  745MOL0     C  458   1.286   5.451   6.682  0.7869  0.3818 -0.0759
  745MOL0     C  459   1.224   5.408   6.792  0.0540 -0.1675 -0.3802
  745MOL0     C  460   1.156   5.273   6.813 -0.7214 -0.3223 -0.0861
  745MOL0     C  461   1.018   5.263   6.741 -0.5809 -0.1487  0.2197
  745MOL0     C  462   0.921   5.379   6.773  0.0218  0.3066  0.3159
  745MOL0     C  463   0.890   5.396   6.924 -1.0314  0.4753  0.4149
  745MOL0     O  464   0.820   5.276   6.976 -0.0580  0.3018 -0.0171
  745MOL0     C  465   0.685   5.272   6.993 -0.2283 -0.8929 -0.3352
  745MOL0     C  466   0.636   5.159   7.051 -0.2493  0.5195  0.3220
  745MOL0     C  467   0.501   5.124   7.061  0.7879  0.5307 -0.2627
  745MOL0     C  468   0.463   4.991   7.117  0.5713  0.6407 -1.0405
  745MOL0     C  469   0.404   5.218   7.017 -0.1040  0.0486  0.2576
  745MOL0     C  470   0.262   5.205   7.022  0.2073 -0.2384 -0.6263
  745MOL0     O  471   0.209   5.083   6.989  0.0089  0.1161 -0.3102
  745MOL0     C  472   0.070   5.064   7.008 -0.1740 -0.1811  1.0042
  745MOL0     C  473  -0.025   5.123   6.921  0.2584  0.2425  0.3930
  745MOL0     C  474  -0.160   5.101   6.952  0.4973  0.8364  0.0700
  745MOL0     C  475  -0.210   5.006   7.043  0.0500  0.3806 -0.6698
  745MOL0     O  476  -0.336   4.972   7.067  0.2744 -0.0189  0.0510
  745MOL0     C  477  -0.444   5.059   7.019  0.0373 -0.2270 -0.5216
  745MOL0     C  478  -0.576   4.988   7.065  0.4899  0.3688 -0.3699
  745MOL0     C  479  -0.706   5.078   7.075 -0.8527 -0.2841 -0.5145
  745MOL0     C  480  -0.828   4.989   7.089  1.3548 -1.1051  0.0641
  745MOL0     C  481  -0.954   5.076   7.123  0.0293  1.0305 -0.3990
  745MOL0     C  482  -1.080   4.992   7.161  0.1188  0.0664  0.0189
  745MOL0     C  483  -1.192   5.058   7.249 -0.1019  0.6914 -0.0686
  745MOL0     C  484  -1.215   5.207   7.230 -0.4101 -0.4901 -0.1933
  745MOL0    Cl  485  -1.263   5.236   7.067 -0.3153 -0.1125  0.1552
  745MOL0     C  486  -0.108   4.955   7.125  0.1880  0.4726 -0.6506
  745MOL0     C  487   0.030   4.976   7.107 -0.1355  0.0508 -0.0627
  745MOL0     O  488   0.192   5.295   7.053  0.4334  0.3426  0.3523
  745MOL0     C  489   0.453   5.343   6.957  0.0106  0.0952  0.0607
  745MOL0     C  490   0.590   5.364   6.942  0.1121  0.6922 -0.3586
  745MOL0     N  491   1.241   5.506   6.893 -0.1752 -0.4302  0.1998
  745MOL0     N  492   1.307   5.606   6.844 -0.0196 -0.1803 -1.1490
  745MOL0     C  493   2.471   5.362   6.545 -0.3190  0.1061  0.2620
  745MOL0     C  494   2.604   5.317   6.555  0.6277  0.1428 -0.0838
  745MOL0     C  495   3.021   5.179   6.630  0.0547 -0.5064  0.0322
  745MOL0     C  496   3.128   5.192   6.536  0.7771  0.4914  0.2841
  745MOL0     C  497   3.256   5.142   6.578 -0.0967  0.6949 -0.2154
  745MOL0     C  498   3.283   5.099   6.707 -0.3530 -0.8028 -0.6162
  745MOL0     O  499   3.400   5.048   6.759  0.2480  0.5580  0.4929
  745MOL0     C  500   3.520   5.048   6.681  0.1224 -0.2182  0.4487
  745MOL0     C  501   3.599   5.175   6.690 -0.0145  0.1196 -0.2388
  745MOL0     C  502   3.740   5.145   6.641  0.6925  0.1018 -0.5512
  745MOL0     C  503   3.836   5.257   6.676  0.3618  0.5836  0.1834
  745MOL0     C  504   3.823   5.362   6.573  0.4206 -1.0112  0.8899
  745MOL0     C  505   3.829   5.442   6.482  0.1676 -0.1118  0.5101
  745MOL0     C  506   3.177   5.110   6.804  0.5010 -0.0292  0.4074
  745MOL0     C  507   3.049   5.139   6.762 -0.3206 -0.4553 -0.4965
  745MOL0     H  508   2.594   5.095   6.805 -2.5351  1.3028  1.8069
  745MOL0     H  509   2.356   5.162   6.797 -0.2401  0.6927  0.0321
  745MOL0     H  510   2.179   5.399   6.465 -2.6188  1.6280  0.3027
  745MOL0     H  511   2.177   5.233   6.492 -0.3608  0.8429 -0.1636
  745MOL0     H  512   1.995   5.332   6.691  3.7311 -0.8600  1.9936
  745MOL0     H  513   2.026   5.472   6.597 -0.0848  0.2608  0.0623
  745MOL0     H  514   1.943   5.385   6.396 -0.4949  0.8184 -0.7022
  745MOL0     H  515   1.922   5.221   6.463  4.3205  0.7197 -2.7482
  745MOL0     H  516   1.718   5.338   6.434 -0.5460  0.5226  1.0568
  745MOL0     H  517   1.753   5.297   6.605  1.7811  1.8878  2.5734
  745MOL0     H  518   1.773   5.528   6.663 -0.8809 -1.1185 -0.1727
  745MOL0     H  519   1.804   5.576   6.500  3.3354 -1.1701  1.6787
  745MOL0     H  520   1.576   5.533   6.430  1.8377  2.2616 -0.6828
  745MOL0     H  521   1.535   5.466   6.584 -0.9953  1.5110 -0.8226
  745MOL0     H  522   1.577   5.671   6.707 -1.9298  2.8211 -0.0408
  745MOL0     H  523   1.582   5.757   6.553  0.3306 -0.7522  0.0114
  745MOL0     H  524   1.340   5.639   6.503 -0.4192  0.2450 -0.8463
  745MOL0     H  525   1.354   5.764   6.626 -1.3987 -0.4759 -0.3893
  745MOL0     H  526   1.278   5.413   6.581 -1.4331  3.1330 -1.0771
  745MOL0     H  527   1.224   5.205   6.761 -1.8145 -0.1111 -1.8647
  745MOL0     H  528   1.147   5.232   6.914  0.6542 -1.2839 -0.3184
  745MOL0     H  529   0.969   5.176   6.784  0.1785 -0.7457 -0.1042
  745MOL0     H  530   1.041   5.245   6.635  0.7229  0.1899  0.4211
  745MOL0     H  531   0.827   5.369   6.718  0.7839 -0.4732 -0.8841
  745MOL0     H  532   0.963   5.469   6.726 -0.2223 -0.4891 -1.5188
  745MOL0     H  533   0.832   5.488   6.935 -0.7602  0.6322  0.5493
  745MOL0     H  534   0.981   5.409   6.983 -1.0834  1.3535  0.3126
  745MOL0     H  535   0.701   5.084   7.096 -2.0116 -1.3599 -0.0780
  745MOL0     H  536   0.538   4.952   7.187  0.4493 -1.0657 -1.8209
  745MOL0     H  537   0.371   4.993   7.176  0.1118 -4.0829 -1.2248
  745MOL0     H  538   0.451   4.918   7.037  1.2390  1.3089 -1.7690
  745MOL0     H  539  -0.002   5.189   6.837  1.3946 -1.6318 -0.8425
  745MOL0     H  540  -0.228   5.154   6.886 -1.5394 -0.3614  1.0933
  745MOL0     H  541  -0.440   5.159   7.064 -1.3192 -0.1979 -0.4078
  745MOL0     H  542  -0.437   5.078   6.911  0.4816 -0.7929 -0.5970
  745MOL0     H  543  -0.594   4.896   7.009  1.1070  0.8521 -1.3897
  745MOL0     H  544  -0.555   4.947   7.164  1.0036 -1.5945 -1.2488
  745MOL0     H  545  -0.725   5.126   6.979 -1.2581  0.1003 -0.2470
  745MOL0     H  546  -0.691   5.154   7.152  0.6420 -0.7133 -0.3524
  745MOL0     H  547  -0.846   4.938   6.994  3.4522 -0.4630 -0.7313
  745MOL0     H  548  -0.812   4.914   7.167  1.7808 -0.9706  0.1063
  745MOL0     H  549  -0.979   5.139   7.037 -0.3595 -1.6134 -2.3100
  745MOL0     H  550  -0.916   5.143   7.201  2.6917  1.1740 -1.7001
  745MOL0     H  551  -1.129   4.956   7.070 -0.3767  0.4485  0.1245
  745MOL0     H  552  -1.051   4.908   7.224  0.8772 -1.0830 -1.8071
  745MOL0     H  553  -1.165   5.046   7.355 -0.4880 -1.2935 -0.1684
  745MOL0     H  554  -1.292   5.016   7.235  0.3180 -0.6749  0.8006
  745MOL0     H  555  -1.119   5.254   7.254  0.8197 -2.9106 -0.1074
  745MOL0     H  556  -1.294   5.252   7.290 -3.0551  1.5609 -4.7018
  745MOL0     H  557  -0.135   4.881   7.201 -0.3978 -2.1575 -3.2424
  745MOL0     H  558   0.103   4.923   7.167 -0.1620 -2.7697 -2.3466
  745MOL0     H  559   0.379   5.422   6.947 -0.0182  0.2200  1.1493
  745MOL0     H  560   0.620   5.457   6.896 -1.2340  1.0764 -0.4938
  745MOL0     H  561   2.440   5.432   6.468 -2.0927  1.2885  1.9645
  745MOL0     H  562   2.668   5.364   6.481 -1.2922  1.1372 -1.2005
  745MOL0     H  563   3.107   5.216   6.432 -3.2036  0.7851  0.9903
  745MOL0     H  564   3.337   5.134   6.506  0.4100 -2.2911  0.5569
  745MOL0     H  565   3.582   4.964   6.714  2.5405  2.4859  3.4378
  745MOL0     H  566   3.507   5.027   6.575  0.3106  1.3207  0.0960
  745MOL0     H  567   3.607   5.210   6.793  1.6386  0.2380 -0.3866
  745MOL0     H  568   3.551   5.257   6.635 -0.4037  0.0548 -0.0047
  745MOL0     H  569   3.742   5.139   6.531  5.8560  0.6034 -0.7511
  745MOL0     H  570   3.777   5.050   6.681  0.1480  0.3741  0.6371
  745MOL0     H  571   3.937   5.220   6.656 -0.6465 -1.4320 -1.6333
  745MOL0     H  572   3.823   5.295   6.777 -2.0693  0.4683 -0.0387
  745MOL0     H  573   3.852   5.497   6.393  2.3462  3.7383  3.1686
  745MOL0     H  574   3.196   5.077   6.906  1.6441 -0.7036 -0.0073
  745MOL0     H  575   2.975   5.157   6.840  2.5260  2.8426  1.7231
  746MOL0     O  576  10.631   8.852  11.158  0.0962  1.0642  0.0134
  746MOL0     C  577  10.671   8.768  11.076 -0.3769  0.1816  0.0144
  746MOL0     O  578  10.607   8.654  11.041  0.6196  0.4476  0.1918
  746MOL0     C  579  10.494   8.627  11.118  0.6008  0.7968 -0.4944
  746MOL0     C  580  10.370   8.679  11.082  0.3453  0.2863 -0.3356
  746MOL0     C  581  10.253   8.640  11.147 -1.1615 -0.3635  0.6631
  746MOL0     C  582  10.243   8.555  11.256  1.2027 -0.1003  0.5565
  746MOL0     O  583  10.125   8.505  11.306  0.0383 -0.6765 -0.7790
  746MOL0     C  584  10.020   8.480  11.212 -0.0576 -0.0198 -0.4667
  746MOL0     C  585   9.895   8.413  11.269  0.0230  0.5656  0.0378
  746MOL0     C  586   9.859   8.439  11.419  0.2838  1.1165  0.3563
  746MOL0     C  587   9.727   8.374  11.447 -0.0621 -0.5677  0.0877
  746MOL0     C  588   9.692   8.402  11.594 -0.0709 -0.2685  0.7244
  746MOL0     C  589   9.539   8.371  11.600 -0.1505 -1.3680  1.0034
  746MOL0     C  590   9.483   8.357  11.745 -1.4139  0.1598  0.3036
  746MOL0     C  591   9.332   8.410  11.756 -0.1940  0.1294  0.6194
  746MOL0     N  592   9.224   8.333  11.682 -0.2145  0.3176 -0.0833
  746MOL0     C  593   9.220   8.250  11.571  0.1377 -0.4527  0.4423
  746MOL0     C  594   9.098   8.206  11.578  0.2784 -0.3819 -0.7761
  746MOL0     C  595   9.028   8.111  11.490  0.8034 -0.2532  0.3630
  746MOL0     C  596   9.086   8.103  11.348  0.5652  0.0937  0.0445
  746MOL0     C  597   9.005   8.010  11.255  0.0356  0.1464  0.3605
  746MOL0     C  598   9.084   7.997  11.116  0.7555  1.6172 -0.4573
  746MOL0     O  599   9.037   7.883  11.038  0.3480 -0.1670 -0.7895
  746MOL0     C  600   8.912   7.881  10.979 -0.1159 -0.1641 -0.2516
  746MOL0     C  601   8.868   7.762  10.925 -0.6823 -0.3718 -0.7494
  746MOL0     C  602   8.730   7.752  10.887  0.3443 -0.7334  0.0609
  746MOL0     C  603   8.704   7.610  10.855 -0.6058 -0.0144  0.6148
  746MOL0     C  604   8.643   7.866  10.901 -0.7980  0.5087  0.0363
  746MOL0     C  605   8.503   7.871  10.864  1.1530 -0.1915  0.4207
  746MOL0     O  606   8.425   7.988  10.860 -0.5369  0.6866  0.3689
  746MOL0     C  607   8.300   7.976  10.810  0.3362 -0.0935  0.3417
  746MOL0     C  608   8.269   8.003  10.679  0.1971 -0.5799  0.5190
  746MOL0     C  609   8.138   7.993  10.638  0.0143 -0.1532  0.1530
  746MOL0     C  610   8.031   7.981  10.734  1.1958 -0.1836 -0.1192
  746MOL0     O  611   7.904   7.999  10.689 -0.7354 -0.6148  0.6267
  746MOL0     C  612   7.805   7.897  10.699  0.5571 -0.5473 -0.6585
  746MOL0     C  613   7.769   7.826  10.573  0.4285 -0.1690  0.6457
  746MOL0     C  614   7.776   7.917  10.447  0.6721  0.2363 -0.8774
  746MOL0     C  615   7.692   8.050  10.465 -0.2966 -0.1999  0.5948
  746MOL0     C  616   7.650   8.109  10.316  0.2083  0.1540 -0.5267
  746MOL0     C  617   7.520   8.179  10.320 -0.8958  0.6679  0.1747
  746MOL0     C  618   7.523   8.306  10.411  1.6943 -0.2480 -0.6572
  746MOL0     C  619   7.391   8.387  10.410 -1.0355 -1.2836  0.2847
  746MOL0    Cl  620   7.357   8.443  10.246 -0.3289  0.1944 -0.2217
  746MOL0     C  621   8.059   7.959  10.865  0.0113  0.4931 -0.7554
  746MOL0     C  622   8.197   7.943  10.900  0.1449  0.2823 -0.2590
  746MOL0     O  623   8.449   7.764  10.838  0.2117 -0.0836 -0.0453
  746MOL0     C  624   8.703   7.989  10.928  1.0337  0.4427  0.8762
  746MOL0     C  625   8.828   7.991  10.979 -0.3942  0.1411  0.5025
  746MOL0     N  626   9.022   8.253  11.689  0.4175 -0.1993  0.0422
  746MOL0     N  627   9.102   8.326  11.746  0.0439  0.0061 -0.7941
  746MOL0     C  628  10.370   8.504  11.296 -0.8534 -0.8925  0.5892
  746MOL0     C  629  10.496   8.542  11.231  0.5035 -0.2343  0.2248
  746MOL0     C  630  10.797   8.801  10.995 -0.2769  0.1686  0.6525
  746MOL0     C  631  10.851   8.706  10.913  0.6122  0.0618  0.1739
  746MOL0     C  632  10.977   8.725  10.856  0.1666 -0.4262  0.8324
  746MOL0     C  633  11.055   8.841  10.870  0.5382  0.5739 -0.3653
  746MOL0     O  634  11.175   8.854  10.798  0.3467  0.5200 -0.2443
  746MOL0     C  635  11.242   8.975  10.812 -0.4519 -0.5882 -0.0822
  746MOL0     C  636  11.369   8.975  10.723  0.3383 -0.0517  0.1889
  746MOL0     C  637  11.325   8.954  10.577  0.3608 -0.7551  0.7334
  746MOL0     C  638  11.437   8.966  10.467  0.8276 -0.1287  0.9856
  746MOL0     C  639  11.555   8.871  10.485 -0.0610  0.2534 -0.1463
  746MOL0     C  640  11.636   8.780  10.496  0.8440  0.4715 -0.2975
  746MOL0     C  641  10.996   8.939  10.958 -1.3016 -0.5602 -0.1476
  746MOL0     C  642  10.871   8.916  11.024 -0.5286  0.3708  0.2864
  746MOL0     H  643  10.367   8.757  11.007  2.7240  0.6749 -0.1020
  746MOL0     H  644  10.165   8.685  11.103 -3.5122 -1.8956  3.4287
  746MOL0     H  645   9.986   8.575  11.169 -0.1485 -0.3883 -1.2299
  746MOL0     H  646  10.059   8.411  11.138  0.4264 -0.0640 -0.1762
  746MOL0     H  647   9.807   8.449  11.214 -0.3821  1.0259  0.9734
  746MOL0     H  648   9.897   8.305  11.248  2.5815  0.4044  0.7558
  746MOL0     H  649   9.933   8.394  11.485  2.3947  2.7081 -0.7929
  746MOL0     H  650   9.849   8.546  11.439 -2.6874  0.9165  0.4314
  746MOL0     H  651   9.663   8.439  11.386  1.7654  0.3553 -0.9479
  746MOL0     H  652   9.721   8.269  11.419  0.3422 -0.4587 -0.4223
  746MOL0     H  653   9.735   8.327  11.661  2.4765  1.1127  0.7594
  746MOL0     H  654   9.725   8.497  11.636 -0.4165  0.3270 -0.3169
  746MOL0     H  655   9.490   8.460  11.558  2.3060  0.1802  1.2046
  746MOL0     H  656   9.504   8.281  11.549 -0.7373 -0.7584  0.2946
  746MOL0     H  657   9.489   8.258  11.791 -2.4815  0.2716  0.7068
  746MOL0     H  658   9.545   8.419  11.810 -0.1478 -0.2802 -0.4476
  746MOL0     H  659   9.330   8.516  11.730  1.3474  0.2271  0.8048
  746MOL0     H  660   9.312   8.419  11.863  0.3973  1.3291  0.6451
  746MOL0     H  661   9.299   8.220  11.502  1.6249  0.6200  1.5987
  746MOL0     H  662   9.032   8.020  11.550  0.2147  0.0557  0.8909
  746MOL0     H  663   8.925   8.148  11.483  1.3550  2.2824  3.2837
  746MOL0     H  664   9.181   8.052  11.367 -0.6427 -1.0937  3.7166
  746MOL0     H  665   9.094   8.206  11.311  2.1428  0.1760  0.4977
  746MOL0     H  666   8.911   8.060  11.231 -0.7354 -2.6079 -3.3940
  746MOL0     H  667   8.977   7.917  11.304 -0.9948  0.5751  0.6145
  746MOL0     H  668   9.192   7.986  11.132  0.3766 -0.0634  1.2256
  746MOL0     H  669   9.069   8.095  11.068 -1.9292 -0.0302 -3.3637
  746MOL0     H  670   8.944   7.685  10.919 -1.0818 -1.0166  1.6495
  746MOL0     H  671   8.794   7.557  10.821 -1.2537 -3.0877  3.1565
  746MOL0     H  672   8.678   7.568  10.953 -3.0371 -0.2539 -0.0781
  746MOL0     H  673   8.615   7.601  10.792  0.1586 -0.2018 -0.4677
  746MOL0     H  674   8.348   8.007  10.604 -1.5889  2.2547 -1.4413
  746MOL0     H  675   8.115   8.011  10.534 -0.0695  2.1728  0.5378
  746MOL0     H  676   7.849   7.831  10.774  2.2635  1.0293 -0.1637
  746MOL0     H  677   7.714   7.943  10.739  1.2022 -0.2817  0.5649
  746MOL0     H  678   7.841   7.750  10.540 -0.1007  0.5381 -2.4051
  746MOL0     H  679   7.674   7.774  10.586  0.5851 -0.5839  0.1650
  746MOL0     H  680   7.752   7.858  10.358  0.3808 -4.0600  1.7499
  746MOL0     H  681   7.882   7.944  10.435  0.3387  1.3002 -1.6255
  746MOL0     H  682   7.599   8.036  10.521  0.2789  2.9721  2.5816
  746MOL0     H  683   7.751   8.124  10.520  0.7310 -1.6608  1.5226
  746MOL0     H  684   7.645   8.034  10.237  1.2173 -0.7733  0.2578
  746MOL0     H  685   7.733   8.178  10.296  1.7099 -0.9598  1.4432
  746MOL0     H  686   7.489   8.199  10.217 -1.7397  1.5860  0.5939
  746MOL0     H  687   7.438   8.119  10.360 -1.5700 -0.5557 -2.7335
  746MOL0     H  688   7.603   8.375  10.385 -0.8666  2.8018 -0.9424
  746MOL0     H  689   7.535   8.275  10.515  1.0239 -1.0846 -0.8192
  746MOL0     H  690   7.419   8.473  10.471 -0.4692 -0.7393 -0.7154
  746MOL0     H  691   7.314   8.330  10.463  0.1549 -2.0269  1.2888
  746MOL0     H  692   7.978   7.938  10.934  0.1589  0.6755 -0.5240
  746MOL0     H  693   8.226   7.919  11.002 -0.0412  0.7767 -0.0863
  746MOL0     H  694   8.645   8.080  10.937  0.3237  0.1195 -0.2056
  746MOL0     H  695   8.854   8.081  11.034 -1.1301 -0.0131  1.1144
  746MOL0     H  696  10.364   8.443  11.385  0.3043  0.7808  1.8817
  746MOL0     H  697  10.588   8.503  11.274  0.2500  2.1927  3.3233
  746MOL0     H  698  10.817   8.605  10.892  0.7302  0.0470  0.0532
  746MOL0     H  699  11.013   8.648  10.789  3.8826 -0.6896  2.8127
  746MOL0     H  700  11.178   9.063  10.812 -1.8433 -1.4641  2.7025
  746MOL0     H  701  11.269   8.988  10.918 -1.8131  0.2295  0.1781
  746MOL0     H  702  11.434   8.898  10.766 -0.8252 -1.3801 -0.3656
  746MOL0     H  703  11.414   9.075  10.717 -0.7471  0.4265 -0.1172
  746MOL0     H  704  11.254   9.030  10.542  1.1715 -1.1965 -2.2124
  746MOL0     H  705  11.279   8.855  10.563  0.0473 -0.6697  1.1489
  746MOL0     H  706  11.482   9.065  10.453  0.6345 -0.4318 -2.6016
  746MOL0     H  707  11.381   8.944  10.376 -3.5549 -3.0745  3.9995
  746MOL0     H  708  11.709   8.705  10.516  1.7077  1.6011  0.9634
  746MOL0     H  709  11.051   9.026  10.989 -0.8075 -1.5950  2.0475
  746MOL0     H  710  10.834   9.000  11.082  1.3776  0.5565  1.3035
  747MOL0     O  711   3.675  10.090   9.511  0.1449  0.0206  0.5630
  747MOL0     C  712   3.790  10.116   9.551  0.1830  0.6087  0.5383
  747MOL0     O  713   3.855  10.074   9.671 -0.2504 -0.2594  0.5252
  747MOL0     C  714   3.784  10.024   9.779 -0.2777  0.0454  0.1911
  747MOL0     C  715   3.849   9.936   9.863 -0.2384 -0.8452 -0.0121
  747MOL0     C  716   3.784   9.866   9.968 -0.0092 -0.8572 -0.4729
  747MOL0     C  717   3.648   9.889   9.982  0.3951 -0.5915 -0.6636
  747MOL0     O  718   3.576   9.817  10.075  0.5601 -0.7924  0.1262
  747MOL0     C  719   3.638   9.806  10.203 -0.1821 -0.3640  0.0259
  747MOL0     C  720   3.529   9.755  10.300 -0.6935 -0.1968  0.2665
  747MOL0     C  721   3.395   9.821  10.280 -0.5236 -0.5782 -0.1823
  747MOL0     C  722   3.282   9.772  10.378 -0.4927 -0.0480 -0.0788
  747MOL0     C  723   3.163   9.877  10.402 -1.1665 -0.5494  0.1813
  747MOL0     C  724   3.047   9.819  10.487 -0.8350 -0.5063 -0.0990
  747MOL0     C  725   3.096   9.745  10.611  0.4285  0.1967 -0.1937
  747MOL0     C  726   3.161   9.835  10.710  0.6105  0.0411 -0.0996
  747MOL0     N  727   3.150   9.779  10.846  0.3972 -0.6624 -0.3856
  747MOL0     C  728   3.070   9.810  10.953 -0.3842  0.3591  0.5762
  747MOL0     C  729   3.099   9.721  11.054 -0.7349 -0.2081 -0.9137
  747MOL0     C  730   3.017   9.697  11.181 -1.0250  0.1899 -0.3937
  747MOL0     C  731   2.930   9.573  11.180  0.1452 -0.1160 -0.1926
  747MOL0     C  732   2.813   9.575  11.065 -0.4698 -0.6517  0.4402
  747MOL0     C  733   2.720   9.692  11.092  0.3512  0.4766 -0.9174
  747MOL0     O  734   2.643   9.658  11.210 -0.0769  0.1492 -0.4570
  747MOL0     C  735   2.545   9.737  11.265 -0.1056  0.3281 -0.0205
  747MOL0     C  736   2.488   9.678  11.381 -0.1486 -0.1222  0.1168
  747MOL0     C  737   2.387   9.745  11.457 -0.1421  0.0692  0.3715
  747MOL0     C  738   2.322   9.660  11.567 -0.7265  0.0080 -0.4861
  747MOL0     C  739   2.343   9.878  11.420 -0.4244  0.6849 -0.2880
  747MOL0     C  740   2.237   9.959  11.487  0.1396  0.6080  0.3690
  747MOL0     O  741   2.200  10.071  11.424  0.5535  0.0297 -0.4753
  747MOL0     C  742   2.091  10.145  11.472  0.4938  0.3969  0.1989
  747MOL0     C  743   1.960  10.087  11.472 -1.1590 -0.1073  0.5927
  747MOL0     C  744   1.854  10.167  11.504  0.5605  0.4091  0.7970
  747MOL0     C  745   1.868  10.297  11.544  0.3018  0.9607  0.0090
  747MOL0     O  746   1.762  10.371  11.573  0.2321 -0.6554 -0.4436
  747MOL0     C  747   1.702  10.445  11.462  0.0660 -0.9448  0.8940
  747MOL0     C  748   1.564  10.504  11.488  0.4353  0.1355 -0.5333
  747MOL0     C  749   1.555  10.599  11.608  0.0230  0.2090  0.1989
  747MOL0     C  750   1.415  10.644  11.640  0.5565  0.2579  0.1028
  747MOL0     C  751   1.410  10.747  11.746  0.6445  1.1098  1.1608
  747MOL0     C  752   1.312  10.857  11.713  0.4209 -0.6569  0.1707
  747MOL0     C  753   1.167  10.827  11.718  0.0197  0.4970 -0.5719
  747MOL0     C  754   1.094  10.897  11.602 -0.2946 -0.4867  0.4314
  747MOL0    Cl  755   1.128  11.075  11.599  0.0039 -0.3690 -0.2567
  747MOL0     C  756   1.993  10.352  11.547  0.1119  0.6231 -0.0595
  747MOL0     C  757   2.101  10.283  11.502 -0.2518 -0.1335 -1.2641
  747MOL0     O  758   2.197   9.917  11.596  0.0826  0.1722 -0.7325
  747MOL0     C  759   2.411   9.934  11.312  0.6174 -0.5591 -0.8606
  747MOL0     C  760   2.510   9.872  11.235 -0.1884 -0.2026 -0.1003
  747MOL0     N  761   3.193   9.628  10.997 -0.5605 -0.1344 -1.0647
  747MOL0     N  762   3.227   9.671  10.883  0.1745 -0.2435 -0.2370
  747MOL0     C  763   3.573   9.962   9.892 -1.4570  0.0386 -0.3017
  747MOL0     C  764   3.639  10.049   9.800  0.0789 -0.7329 -0.4602
  747MOL0     C  765   3.877  10.198   9.466  0.7932 -0.1344 -0.3625
  747MOL0     C  766   4.009  10.235   9.519  0.0449  1.2079  0.3713
  747MOL0     C  767   4.100  10.304   9.436 -0.5173  0.3931  0.2553
  747MOL0     C  768   4.059  10.368   9.316  1.0869 -0.0617  0.7433
  747MOL0     O  769   4.151  10.435   9.244  0.1004  0.3411  0.3545
  747MOL0     C  770   4.291  10.415   9.255 -0.1804  0.1615 -0.3720
  747MOL0     C  771   4.342  10.278   9.206 -0.0125 -0.9998 -0.7134
  747MOL0     C  772   4.493  10.257   9.236  0.2092  0.3033 -0.0983
  747MOL0     C  773   4.557  10.155   9.140 -0.1742 -1.1321  0.3285
  747MOL0     C  774   4.535  10.020   9.179  0.1127  0.2826 -0.0900
  747MOL0     C  775   4.509   9.903   9.201 -0.3912 -1.1174  0.4744
  747MOL0     C  776   3.922  10.353   9.276  0.2850  0.1825 -0.3781
  747MOL0     C  777   3.839  10.256   9.342  0.3631  1.0041  0.4045
  747MOL0     H  778   3.950   9.902   9.846  0.6461  1.1299  0.9490
  747MOL0     H  779   3.848   9.811  10.037  0.7303 -0.8564 -1.1355
  747MOL0     H  780   3.717   9.732  10.184 -2.1200 -2.2226 -1.2249
  747MOL0     H  781   3.687   9.896  10.242  0.9599 -0.8118 -0.3065
  747MOL0     H  782   3.519   9.651  10.267  2.9807 -0.6693  0.2205
  747MOL0     H  783   3.571   9.750  10.401  2.7970 -0.8999 -1.0608
  747MOL0     H  784   3.401   9.930  10.292 -0.3376 -0.6703  0.5608
  747MOL0     H  785   3.344   9.810  10.183 -3.6718  1.6097  1.0226
  747MOL0     H  786   3.237   9.676  10.348  0.3735 -0.5011  0.0419
  747MOL0     H  787   3.335   9.762  10.473 -0.9946  2.0093  0.4681
  747MOL0     H  788   3.216   9.957  10.455 -0.3495 -1.7454  1.2739
  747MOL0     H  789   3.120   9.918  10.311  3.5072  3.2403 -0.6976
  747MOL0     H  790   2.970   9.890  10.519  2.0107  3.7020 -1.6818
  747MOL0     H  791   2.989   9.753  10.421 -1.6074 -0.0983  0.1597
  747MOL0     H  792   3.003   9.719  10.662  1.8155 -0.1008  2.3956
  747MOL0     H  793   3.166   9.661  10.597  2.6735  1.5617  1.9144
  747MOL0     H  794   3.129   9.938  10.690 -1.0944 -0.8512 -2.3897
  747MOL0     H  795   3.267   9.832  10.682 -0.1436 -2.6757 -3.2713
  747MOL0     H  796   3.002   9.893  10.960  0.4805  1.2294 -0.8839
  747MOL0     H  797   3.073   9.698  11.275  0.4477 -1.7418 -1.1564
  747MOL0     H  798   2.950   9.783  11.184 -0.3981  0.6868 -0.3147
  747MOL0     H  799   2.889   9.579  11.281  0.7850 -1.5428  0.1634
  747MOL0     H  800   2.985   9.481  11.159 -1.7240 -1.4055  0.3115
  747MOL0     H  801   2.759   9.480  11.072 -1.7888 -0.2008 -2.4236
  747MOL0     H  802   2.859   9.596  10.968 -1.2079 -1.5386 -0.1221
  747MOL0     H  803   2.650   9.711  11.011  0.8544  1.4570 -1.1346
  747MOL0     H  804   2.767   9.789  11.114  1.5996 -0.4864  0.8831
  747MOL0     H  805   2.541   9.592  11.421 -0.6200 -0.3237  0.3280
  747MOL0     H  806   2.213   9.665  11.567 -1.0496 -3.9865 -0.9535
  747MOL0     H  807   2.355   9.556  11.555  1.6747  0.4249  1.6941
  747MOL0     H  808   2.350   9.707  11.661  0.8620  1.9966 -1.8786
  747MOL0     H  809   1.943   9.980  11.462 -0.2678 -0.1746 -0.3955
  747MOL0     H  810   1.755  10.122  11.516  0.8701 -0.3666  0.5322
  747MOL0     H  811   1.768  10.531  11.443  0.8933 -1.7785 -0.1710
  747MOL0     H  812   1.708  10.395  11.365  2.2831  1.1732 -0.1853
  747MOL0     H  813   1.518  10.554  11.402 -3.6526  0.5955  1.6354
  747MOL0     H  814   1.492  10.423  11.504  1.3700 -0.6283 -0.0705
  747MOL0     H  815   1.621  10.685  11.589  0.1235  0.1560  0.3093
  747MOL0     H  816   1.584  10.545  11.699 -0.4450 -1.3918 -0.5736
  747MOL0     H  817   1.375  10.674  11.543  2.0947 -1.3303 -1.0941
  747MOL0     H  818   1.354  10.558  11.670  1.2509  0.5661  2.6616
  747MOL0     H  819   1.508  10.787  11.776  0.2491 -0.4692  5.0715
  747MOL0     H  820   1.394  10.695  11.840  1.6346  0.7580  1.1550
  747MOL0     H  821   1.332  10.939  11.783 -0.1974 -0.0180 -0.3801
  747MOL0     H  822   1.335  10.905  11.617 -0.5509  0.0268  0.2610
  747MOL0     H  823   1.129  10.871  11.811 -0.0127  1.7161 -1.1373
  747MOL0     H  824   1.154  10.719  11.717 -2.1406  0.7102 -0.1163
  747MOL0     H  825   0.986  10.888  11.614 -0.3183 -0.7653  0.0374
  747MOL0     H  826   1.133  10.850  11.511 -0.5318 -0.9556  0.5695
  747MOL0     H  827   2.010  10.449  11.593  0.8015 -0.6830  2.5862
  747MOL0     H  828   2.194  10.340  11.504 -0.4662  0.3693  2.8554
  747MOL0     H  829   2.375  10.032  11.285  0.3210  0.3170  2.3917
  747MOL0     H  830   2.553   9.924  11.150  3.3414 -1.5393  0.7294
  747MOL0     H  831   3.465   9.955   9.882 -1.6149 -0.4254  1.2888
  747MOL0     H  832   3.596  10.121   9.731  0.7577  1.2704  1.0968
  747MOL0     H  833   4.046  10.181   9.605 -0.6644 -2.0278 -1.2247
  747MOL0     H  834   4.195  10.331   9.481  1.3592 -3.5900 -0.9362
  747MOL0     H  835   4.347  10.497   9.208 -1.4238  0.3883 -1.5119
  747MOL0     H  836   4.324  10.435   9.357  1.5200  2.9984 -1.3470
  747MOL0     H  837   4.338  10.278   9.097  2.7588 -0.6184 -0.8878
  747MOL0     H  838   4.287  10.193   9.247  0.5862 -0.8897  0.3848
  747MOL0     H  839   4.502  10.229   9.342 -2.2154 -0.8318 -0.1310
  747MOL0     H  840   4.543  10.354   9.224 -2.0387  1.8670  2.1132
  747MOL0     H  841   4.666  10.164   9.137  0.1776 -3.7252  1.7999
  747MOL0     H  842   4.519  10.173   9.039 -0.6289 -1.6596  0.4007
  747MOL0     H  843   4.480   9.801   9.213 -1.6461 -0.8880 -0.3447
  747MOL0     H  844   3.895  10.387   9.177  5.6122 -2.0605 -3.0225
  747MOL0     H  845   3.744  10.225   9.301  1.0493 -1.5312  0.5842
  748MOL0     O  846   5.159   4.617   6.710  0.1152 -0.3714  0.6970
  748MOL0     C  847   5.113   4.548   6.621  0.8744  0.0475  0.5184
  748MOL0     O  848   5.084   4.412   6.627 -0.0811  0.7496  0.2046
  748MOL0     C  849   5.139   4.344   6.724  0.1931 -0.1448 -0.2113
  748MOL0     C  850   5.254   4.268   6.695  0.6220  0.3511 -0.4253
  748MOL0     C  851   5.324   4.203   6.799 -0.9589 -0.6454  0.9372
  748MOL0     C  852   5.293   4.227   6.937  1.0184  0.2942 -0.0608
  748MOL0     O  853   5.346   4.153   7.036 -0.2388 -0.1034  0.6655
  748MOL0     C  854   5.491   4.148   7.033 -0.1444 -0.6858  0.6809
  748MOL0     C  855   5.522   4.027   7.119  0.0158  0.4437  0.3717
  748MOL0     C  856   5.669   4.002   7.144  0.2805 -0.7605  0.0017
  748MOL0     C  857   5.763   4.013   7.022  0.0758 -0.0136  0.5629
  748MOL0     C  858   5.903   4.011   7.072  0.9581  0.0245  0.8407
  748MOL0     C  859   5.946   3.860   7.093 -0.3503 -0.2284  0.4118
  748MOL0     C  860   6.088   3.847   7.159 -0.4412  0.2814  0.2404
  748MOL0     C  861   6.195   3.846   7.050  0.7386 -0.5905 -0.1001
  748MOL0     N  862   6.323   3.874   7.110 -0.3644  0.0623 -0.0948
  748MOL0     C  863   6.423   3.792   7.160 -0.1857 -0.0853  1.7213
  748MOL0     C  864   6.527   3.881   7.191  0.2722  0.1907 -0.0245
  748MOL0     C  865   6.657   3.853   7.257  0.3525 -0.4839  0.8213
  748MOL0     C  866   6.748   3.758   7.173 -0.7227  1.0731 -0.5002
  748MOL0     C  867   6.740   3.772   7.024  1.6317 -0.2473 -0.1615
  748MOL0     C  868   6.790   3.909   6.995  0.2717  0.0667 -0.1238
  748MOL0     O  869   6.791   3.932   6.848  0.5984 -0.4965 -0.6913
  748MOL0     C  870   6.660   3.938   6.798 -0.5184 -0.3210 -0.9167
  748MOL0     C  871   6.603   3.840   6.717 -0.3592 -0.9949  0.8045
  748MOL0     C  872   6.470   3.854   6.668 -0.3853  0.0573 -0.4664
  748MOL0     C  873   6.421   3.748   6.573  0.3314 -0.5488 -0.6337
  748MOL0     C  874   6.391   3.962   6.711 -1.1500  0.0270 -0.5334
  748MOL0     C  875   6.250   3.984   6.675  0.2896  0.6103  0.1668
  748MOL0     O  876   6.167   3.878   6.656  0.4423 -0.2823  1.0204
  748MOL0     C  877   6.031   3.888   6.630 -1.0173 -0.0477  0.3297
  748MOL0     C  878   5.981   3.806   6.530 -0.2972 -0.3437 -0.7386
  748MOL0     C  879   5.851   3.807   6.483  0.1931 -0.0252 -0.0370
  748MOL0     C  880   5.755   3.896   6.535  0.5849 -0.1018  0.1922
  748MOL0     O  881   5.623   3.909   6.504 -0.7659  0.7304  0.2006
  748MOL0     C  882   5.582   3.834   6.390  0.1098 -0.4809 -0.3516
  748MOL0     C  883   5.442   3.883   6.331 -0.1335 -0.8366  0.0451
  748MOL0     C  884   5.379   3.797   6.225  0.6351  0.2221 -0.0630
  748MOL0     C  885   5.241   3.852   6.183  0.2543 -0.9056 -0.0049
  748MOL0     C  886   5.163   3.749   6.101  0.6411  0.2398 -0.8036
  748MOL0     C  887   5.244   3.717   5.972  0.4458 -0.5586 -1.1732
  748MOL0     C  888   5.153   3.673   5.855  0.0375  0.2733  0.5813
  748MOL0     C  889   5.072   3.549   5.875 -0.3628  0.6395 -0.4490
  748MOL0    Cl  890   4.939   3.530   5.753 -0.0811 -0.0852  0.1383
  748MOL0     C  891   5.795   3.992   6.633 -0.3321 -0.4722  0.1755
  748MOL0     C  892   5.940   3.988   6.675 -0.3749  0.4825  0.5198
  748MOL0     O  893   6.211   4.104   6.684  0.3530  0.0696  0.6873
  748MOL0     C  894   6.449   4.057   6.807  0.7116  0.4850 -0.2185
  748MOL0     C  895   6.579   4.046   6.847 -0.1216  0.2414 -0.2991
  748MOL0     N  896   6.485   4.011   7.176  0.9506  0.4603 -0.1699
  748MOL0     N  897   6.367   4.001   7.132 -0.5266  0.9558  0.6223
  748MOL0     C  898   5.181   4.307   6.961  0.6158 -0.8666 -0.1412
  748MOL0     C  899   5.096   4.359   6.860  0.1204 -0.4065  0.6200
  748MOL0     C  900   5.078   4.616   6.490  0.2753  0.4946  0.7650
  748MOL0     C  901   4.978   4.556   6.408  0.2238 -0.4028  0.2667
  748MOL0     C  902   4.935   4.619   6.289 -0.0139  0.3980 -0.5038
  748MOL0     C  903   4.984   4.749   6.258  0.8005 -0.7748  0.3041
  748MOL0     O  904   4.922   4.832   6.167  0.2496  0.1948  0.5556
  748MOL0     C  905   4.865   4.773   6.051  0.3035 -0.4123  0.1402
  748MOL0     C  906   4.863   4.865   5.930 -0.4561  0.3411 -0.8063
  748MOL0     C  907   4.855   4.789   5.800 -0.8628  0.5748  0.6112
  748MOL0     C  908   4.739   4.691   5.778 -0.3754  0.4541  0.9828
  748MOL0     C  909   4.611   4.759   5.781  0.1366 -0.0252  0.1178
  748MOL0     C  910   4.508   4.818   5.772  0.4492  0.4176 -0.0186
  748MOL0     C  911   5.083   4.810   6.341  0.6211  0.1877  0.2567
  748MOL0     C  912   5.138   4.740   6.446  0.1569  0.1485  0.8787
  748MOL0     H  913   5.286   4.265   6.592  0.8581 -0.6677 -0.3336
  748MOL0     H  914   5.402   4.135   6.767 -0.7650 -1.4462  2.9464
  748MOL0     H  915   5.537   4.145   6.934  2.5077 -1.5358  1.8513
  748MOL0     H  916   5.533   4.245   7.060 -1.7018  0.9636 -2.3264
  748MOL0     H  917   5.487   4.039   7.222 -1.5134 -1.4098  0.1225
  748MOL0     H  918   5.486   3.935   7.072  1.5695 -0.0857  0.1411
  748MOL0     H  919   5.713   4.075   7.213  0.8267 -1.7388  0.7114
  748MOL0     H  920   5.680   3.905   7.192  2.1117  0.5778  2.5427
  748MOL0     H  921   5.745   3.937   6.946  3.3840 -2.8539  2.2881
  748MOL0     H  922   5.728   4.107   6.978 -0.3139  0.8816  2.6274
  748MOL0     H  923   5.978   4.059   7.008  0.1841 -0.8880 -0.8144
  748MOL0     H  924   5.926   4.061   7.166  1.6663  0.1300  0.6221
  748MOL0     H  925   5.877   3.810   7.161 -0.8733 -1.6722 -1.1104
  748MOL0     H  926   5.937   3.806   6.998 -0.9452  0.3944  0.1066
  748MOL0     H  927   6.103   3.941   7.215 -1.3376  2.2573 -2.5973
  748MOL0     H  928   6.105   3.757   7.218  1.7648  0.4476 -0.0737
  748MOL0     H  929   6.169   3.927   6.981  0.0442 -0.9285 -0.2427
  748MOL0     H  930   6.208   3.751   6.997  1.8767 -1.5311  1.7689
  748MOL0     H  931   6.426   3.683   7.164 -0.4967 -0.2095 -0.3540
  748MOL0     H  932   6.699   3.951   7.279 -0.9933  0.1103  0.8255
  748MOL0     H  933   6.635   3.803   7.352 -2.5177  1.0440  1.0674
  748MOL0     H  934   6.717   3.656   7.196  1.7653 -0.0669 -1.8432
  748MOL0     H  935   6.850   3.767   7.214 -0.7033  2.3788 -0.7773
  748MOL0     H  936   6.636   3.755   6.997  1.3523  2.2638 -0.8854
  748MOL0     H  937   6.793   3.690   6.974 -1.0120 -3.5055  1.9448
  748MOL0     H  938   6.890   3.914   7.039 -0.0042 -0.7052  0.6100
  748MOL0     H  939   6.728   3.980   7.050 -0.2631 -1.5438  1.4460
  748MOL0     H  940   6.668   3.764   6.677 -1.8581 -2.5688  1.2350
  748MOL0     H  941   6.378   3.793   6.484  0.9178 -1.4712 -1.3991
  748MOL0     H  942   6.502   3.679   6.548 -1.0453 -2.5760  0.2270
  748MOL0     H  943   6.341   3.695   6.625 -0.1138  1.2896  0.6374
  748MOL0     H  944   6.035   3.724   6.484 -0.5889 -0.7513 -0.3594
  748MOL0     H  945   5.822   3.721   6.422  0.1493 -1.3727  1.7902
  748MOL0     H  946   5.658   3.843   6.313  1.5313 -0.3006  1.0322
  748MOL0     H  947   5.580   3.728   6.417  0.9085 -1.3232 -3.2473
  748MOL0     H  948   5.372   3.895   6.415 -0.4440  4.4248 -0.6554
  748MOL0     H  949   5.457   3.984   6.291  4.3789 -0.1634  2.6529
  748MOL0     H  950   5.364   3.697   6.266  2.3820 -0.4987 -1.0490
  748MOL0     H  951   5.451   3.797   6.143  0.7583 -1.5958 -0.0039
  748MOL0     H  952   5.181   3.878   6.271 -1.3148 -2.2978 -0.5966
  748MOL0     H  953   5.256   3.944   6.126 -3.5823  0.8446  1.4547
  748MOL0     H  954   5.062   3.786   6.084 -0.2636 -1.9613 -0.5179
  748MOL0     H  955   5.152   3.658   6.161 -1.8161  0.4823 -0.7766
  748MOL0     H  956   5.293   3.808   5.938  0.6346  0.2544  1.1395
  748MOL0     H  957   5.324   3.645   5.990  0.8790 -0.3326 -2.1498
  748MOL0     H  958   5.220   3.656   5.769 -1.7404  1.2825 -1.0969
  748MOL0     H  959   5.091   3.758   5.824  0.2656  0.2728  0.1051
  748MOL0     H  960   5.046   3.545   5.981  1.2977  0.7049 -0.0138
  748MOL0     H  961   5.142   3.467   5.857 -0.4514  0.4139  0.1775
  748MOL0     H  962   5.740   4.064   6.692 -0.2596  1.3995 -1.9120
  748MOL0     H  963   5.978   4.059   6.748  0.0589  2.3272 -1.3930
  748MOL0     H  964   6.395   4.146   6.837  0.3570 -0.3017  1.6138
  748MOL0     H  965   6.623   4.129   6.902 -0.9212  0.4439  0.0577
  748MOL0     H  966   5.160   4.322   7.066  0.1598 -1.2185 -0.1814
  748MOL0     H  967   5.015   4.427   6.884  0.5689 -0.3485  2.0183
  748MOL0     H  968   4.932   4.459   6.425  0.6996 -0.2775  2.4736
  748MOL0     H  969   4.874   4.570   6.213  0.7482  0.8091 -1.3972
  748MOL0     H  970   4.909   4.677   6.025 -1.9028 -0.9733 -1.9709
  748MOL0     H  971   4.761   4.751   6.076  0.2168 -0.4506 -0.2367
  748MOL0     H  972   4.957   4.921   5.933 -0.7133  0.8914  3.5891
  748MOL0     H  973   4.778   4.932   5.941 -2.4327 -2.2998  1.4005
  748MOL0     H  974   4.946   4.730   5.802 -1.1206  0.1695  0.5301
  748MOL0     H  975   4.857   4.858   5.715  0.8056 -2.0075 -1.6218
  748MOL0     H  976   4.754   4.623   5.863  0.5774 -0.0022  0.4633
  748MOL0     H  977   4.739   4.644   5.679 -0.3716  3.1550 -0.3677
  748MOL0     H  978   4.413   4.867   5.783 -0.7234 -1.9066  0.9513
  748MOL0     H  979   5.112   4.913   6.321 -0.7834  0.3809 -0.9998
  748MOL0     H  980   5.209   4.780   6.517 -0.2229  1.6941  0.4438
  749MOL0     O  981   4.273   9.395   0.465 -0.0268  0.2194  0.1996
  749MOL0     C  982   4.322   9.465   0.555  1.0128 -0.6356  0.4037
  749MOL0     O  983   4.248   9.511   0.663 -0.5046  0.3425  0.2785
  749MOL0     C  984   4.157   9.429   0.716  1.0626 -0.4199 -0.3453
  749MOL0     C  985   4.046   9.487   0.794 -0.2493  0.4245  0.0350
  749MOL0     C  986   3.947   9.406   0.848 -0.1094  0.5341 -0.5372
  749MOL0     C  987   3.950   9.266   0.821  0.0523 -0.1579  0.4780
  749MOL0     O  988   3.848   9.196   0.866  0.7491  0.4314  0.1908
  749MOL0     C  989   3.788   9.096   0.774  0.0744  0.6577  0.4240
  749MOL0     C  990   3.647   9.075   0.821  0.7948  0.9737  0.3881
  749MOL0     C  991   3.621   9.034   0.971  0.3867  0.2707 -0.9211
  749MOL0     C  992   3.486   8.967   1.008  0.3382 -0.4276 -0.1791
  749MOL0     C  993   3.476   8.947   1.167  0.5488 -0.9343 -0.2008
  749MOL0     C  994   3.338   8.898   1.194  0.0885  0.1103  0.3018
  749MOL0     C  995   3.316   8.869   1.339 -0.8806  0.1596  0.0107
  749MOL0     C  996   3.301   8.989   1.436 -0.3713  0.1774 -0.2262
  749MOL0     N  997   3.170   9.051   1.424  0.0287 -0.3665 -0.2516
  749MOL0     C  998   3.138   9.168   1.485  0.1238  0.5707 -0.1695
  749MOL0     C  999   3.014   9.209   1.433  0.3510  0.6621 -0.7917
  749MOL0     C 1000   2.941   9.337   1.464  0.5438 -0.5024  0.2816
  749MOL0     C 1001   2.857   9.332   1.591 -0.6324  0.4078  0.0248
  749MOL0     C 1002   2.784   9.198   1.607 -0.0268 -0.6052  0.6240
  749MOL0     C 1003   2.675   9.199   1.724 -0.6366 -0.5491  0.1528
  749MOL0     O 1004   2.577   9.298   1.696 -0.1484 -0.1962 -0.1810
  749MOL0     C 1005   2.455   9.289   1.758 -0.5497 -0.7867  1.0121
  749MOL0     C 1006   2.360   9.354   1.681 -0.0545  0.6007  0.3397
  749MOL0     C 1007   2.232   9.380   1.721  0.4228  0.2216 -0.1896
  749MOL0     C 1008   2.140   9.461   1.636 -0.0323  0.5002  0.7356
  749MOL0     C 1009   2.181   9.330   1.846 -0.2617  1.0124  0.0432
  749MOL0     C 1010   2.039   9.339   1.906  0.4897 -0.6397 -0.4650
  749MOL0     O 1011   2.021   9.260   2.016 -0.8062  0.0169  0.5489
  749MOL0     C 1012   1.899   9.200   2.016  0.3786  0.0564 -0.2461
  749MOL0     C 1013   1.785   9.266   2.088 -0.0212 -0.6260 -1.5979
  749MOL0     C 1014   1.670   9.192   2.115  0.4528  0.0119 -0.4086
  749MOL0     C 1015   1.660   9.051   2.087 -0.0229 -0.0386  0.1820
  749MOL0     O 1016   1.545   8.983   2.108  0.6647 -0.2373 -0.3137
  749MOL0     C 1017   1.446   9.010   2.011 -0.5280 -0.3417  0.8930
  749MOL0     C 1018   1.325   8.920   2.032  0.3817 -0.3219  0.5850
  749MOL0     C 1019   1.243   8.957   2.157  0.0511  0.5833  0.4670
  749MOL0     C 1020   1.194   9.098   2.168 -0.3856 -0.1626 -1.4584
  749MOL0     C 1021   1.125   9.123   2.300 -0.1425  0.4272 -1.0440
  749MOL0     C 1022   1.065   9.254   2.302  0.4364  0.2460 -0.4365
  749MOL0     C 1023   1.017   9.301   2.447 -0.8404 -0.0761  0.1003
  749MOL0     C 1024   0.936   9.434   2.442  0.5783  0.2071  0.2949
  749MOL0    Cl 1025   0.848   9.440   2.595  0.1756  0.0908 -0.2903
  749MOL0     C 1026   1.766   8.985   2.021 -1.3525 -0.0968  0.6909
  749MOL0     C 1027   1.882   9.061   1.981  0.1681 -1.1535 -0.0682
  749MOL0     O 1028   1.946   9.404   1.860  0.6349  0.1711  0.1884
  749MOL0     C 1029   2.278   9.245   1.916  0.7964 -0.2605 -0.2294
  749MOL0     C 1030   2.416   9.229   1.879 -0.0089  0.5854  0.0191
  749MOL0     N 1031   2.969   9.110   1.357  0.3410  0.8952 -0.3574
  749MOL0     N 1032   3.062   9.020   1.353 -0.2565 -0.2897 -0.5121
  749MOL0     C 1033   4.061   9.201   0.762  0.8022 -0.8798 -0.8842
  749MOL0     C 1034   4.159   9.285   0.707  0.0079 -0.3781  0.6286
  749MOL0     C 1035   4.468   9.507   0.539  0.6605  0.1130 -0.3941
  749MOL0     C 1036   4.529   9.525   0.408 -0.0934  0.0883 -0.5887
  749MOL0     C 1037   4.663   9.571   0.403  0.3148  0.3228 -0.3000
  749MOL0     C 1038   4.739   9.601   0.514  0.5043 -0.0428 -0.4699
  749MOL0     O 1039   4.850   9.661   0.480 -0.2965  0.5709  0.0645
  749MOL0     C 1040   4.938   9.727   0.582  0.3331  0.0954 -0.0822
  749MOL0     C 1041   4.889   9.867   0.612 -0.3938 -0.2496 -0.5015
  749MOL0     C 1042   4.938   9.909   0.748  0.6580  0.4847 -0.7076
  749MOL0     C 1043   5.087   9.952   0.770 -0.0707 -0.6196  0.0236
  749MOL0     C 1044   5.110  10.097   0.740 -0.1523  0.0806  0.0341
  749MOL0     C 1045   5.125  10.216   0.705 -0.9644 -0.8812  0.3242
  749MOL0     C 1046   4.670   9.583   0.641  0.0721  0.0631  0.2502
  749MOL0     C 1047   4.540   9.532   0.653  0.2138  0.3089 -0.0583
  749MOL0     H 1048   4.048   9.594   0.812 -2.6251  0.5440 -0.1128
  749MOL0     H 1049   3.870   9.450   0.911  0.2213 -0.0135  0.2648
  749MOL0     H 1050   3.784   9.133   0.671 -0.8387  0.8908  0.5363
  749MOL0     H 1051   3.837   8.998   0.782 -0.9892  0.1063  0.4363
  749MOL0     H 1052   3.594   9.166   0.792  3.4472  1.4075 -4.0654
  749MOL0     H 1053   3.608   8.988   0.767 -2.5672  1.5938  1.5715
  749MOL0     H 1054   3.698   8.958   0.989 -0.9502 -0.7565  0.7959
  749MOL0     H 1055   3.633   9.119   1.039 -1.3720  0.6509 -1.0414
  749MOL0     H 1056   3.408   9.030   0.966  0.6446  0.3149  0.3420
  749MOL0     H 1057   3.462   8.875   0.955 -2.1950  1.0736 -1.8061
  749MOL0     H 1058   3.543   8.874   1.213  0.9206  1.0042  2.5807
  749MOL0     H 1059   3.493   9.040   1.222  1.3971 -0.3801 -1.3722
  749MOL0     H 1060   3.270   8.980   1.167  0.2818  0.6497  1.3959
  749MOL0     H 1061   3.307   8.816   1.128  0.7207 -0.7303  1.0248
  749MOL0     H 1062   3.223   8.812   1.348 -2.0444  1.8431 -1.0144
  749MOL0     H 1063   3.394   8.797   1.367  0.2808 -0.1623 -3.6032
  749MOL0     H 1064   3.380   9.060   1.410 -2.1895  0.9254 -4.7362
  749MOL0     H 1065   3.316   8.956   1.539 -0.9780 -2.4775 -0.9071
  749MOL0     H 1066   3.207   9.225   1.547  3.3648 -2.6884 -0.4499
  749MOL0     H 1067   3.007   9.424   1.475 -0.7431  0.8832 -2.1102
  749MOL0     H 1068   2.876   9.363   1.380 -0.8823  0.1276  1.5345
  749MOL0     H 1069   2.778   9.406   1.575 -1.0762 -0.7325 -4.2984
  749MOL0     H 1070   2.917   9.361   1.678 -1.0163  1.2292  0.0280
  749MOL0     H 1071   2.855   9.118   1.628 -0.5506 -0.6496  2.3685
  749MOL0     H 1072   2.735   9.183   1.510  0.2220  0.0109  0.3945
  749MOL0     H 1073   2.712   9.227   1.823 -1.6100  4.4486 -0.6442
  749MOL0     H 1074   2.637   9.097   1.726 -2.8571  0.2201 -0.2969
  749MOL0     H 1075   2.393   9.404   1.590 -1.5717 -1.5066 -1.4913
  749MOL0     H 1076   2.096   9.548   1.685 -0.8029 -0.2383  1.4010
  749MOL0     H 1077   2.200   9.499   1.554  0.1262 -1.9493 -0.3886
  749MOL0     H 1078   2.064   9.394   1.594  1.2512  0.5072 -1.7894
  749MOL0     H 1079   1.790   9.367   2.127 -1.4203 -1.5469  1.2547
  749MOL0     H 1080   1.587   9.247   2.158  2.3168  1.1026  2.0179
  749MOL0     H 1081   1.414   9.113   2.020 -1.4039 -0.4389 -0.7094
  749MOL0     H 1082   1.489   9.007   1.910 -0.8101  0.3949  0.7470
  749MOL0     H 1083   1.263   8.936   1.944  2.2516  3.2915 -0.2488
  749MOL0     H 1084   1.357   8.815   2.025  0.7908 -0.1426 -0.3998
  749MOL0     H 1085   1.311   8.922   2.235  3.1122  2.1480 -1.2965
  749MOL0     H 1086   1.157   8.890   2.153  0.8080 -0.3809  0.0158
  749MOL0     H 1087   1.275   9.172   2.171 -1.2210  0.7738  0.9612
  749MOL0     H 1088   1.139   9.120   2.076 -0.8750  0.7185 -0.9716
  749MOL0     H 1089   1.191   9.103   2.384  0.6111 -3.0606 -2.2749
  749MOL0     H 1090   1.042   9.051   2.307 -0.4521  0.6396 -2.2526
  749MOL0     H 1091   1.133   9.330   2.263  3.1829 -0.3643  2.6795
  749MOL0     H 1092   0.976   9.255   2.239  0.1958  3.0107 -0.1589
  749MOL0     H 1093   1.107   9.328   2.504 -1.9340  2.2782  0.8129
  749MOL0     H 1094   0.951   9.226   2.491 -2.4434  0.9358 -0.4915
  749MOL0     H 1095   0.854   9.426   2.370  1.6404  0.2287 -0.9384
  749MOL0     H 1096   1.003   9.520   2.441 -0.8242  1.5824  3.9696
  749MOL0     H 1097   1.774   8.879   1.996 -2.0359  0.1628 -0.7142
  749MOL0     H 1098   1.968   9.010   1.938  0.7326 -0.5067  0.2757
  749MOL0     H 1099   2.260   9.193   2.009  3.3258 -1.1945 -0.1925
  749MOL0     H 1100   2.491   9.176   1.935  0.3341  0.0498 -0.9350
  749MOL0     H 1101   4.067   9.094   0.752 -1.9777 -1.3258  0.9732
  749MOL0     H 1102   4.244   9.232   0.665  0.0288 -0.1902  0.4300
  749MOL0     H 1103   4.477   9.504   0.315  0.4511  2.1641 -1.3979
  749MOL0     H 1104   4.706   9.563   0.304  0.9419  0.4230 -0.0346
  749MOL0     H 1105   4.917   9.669   0.673 -0.2487 -1.6788 -1.3017
  749MOL0     H 1106   5.044   9.711   0.562  0.7538 -2.6733  3.3469
  749MOL0     H 1107   4.780   9.873   0.613 -0.3396  0.9688  0.0341
  749MOL0     H 1108   4.922   9.945   0.542  2.8089  0.9498  2.1032
  749MOL0     H 1109   4.908   9.836   0.824  2.5905  0.5834  0.2140
  749MOL0     H 1110   4.874   9.996   0.765 -0.1852  0.2300 -2.4315
  749MOL0     H 1111   5.166   9.894   0.723  1.2592  1.2340 -0.1339
  749MOL0     H 1112   5.091   9.934   0.878 -0.0271 -1.9753 -0.1879
  749MOL0     H 1113   5.142  10.316   0.669 -0.1289  0.3265  3.6246
  749MOL0     H 1114   4.722   9.625   0.727 -1.0572  1.7451  0.1571
  749MOL0     H 1115   4.482   9.517   0.743 -1.0771 -2.9143 -1.2951
  750MOL0     O 1116   0.367   1.819   9.271  0.0655  0.0393  0.4834
  750MOL0     C 1117   0.287   1.810   9.182 -0.5816  0.3672  0.7094
  750MOL0     O 1118   0.322   1.803   9.051 -0.0245 -0.1332  0.1703
  750MOL0     C 1119   0.458   1.806   9.018 -0.3076 -0.5044  0.1274
  750MOL0     C 1120   0.529   1.924   9.037 -0.3217 -0.4339  0.5830
  750MOL0     C 1121   0.665   1.935   9.005  0.0716  0.2576 -0.7359
  750MOL0     C 1122   0.732   1.835   8.945 -0.6426  0.3606 -0.1921
  750MOL0     O 1123   0.862   1.832   8.903  0.5030 -0.2283  0.3671
  750MOL0     C 1124   0.946   1.946   8.908 -0.3791  0.3440 -0.0628
  750MOL0     C 1125   1.094   1.909   8.884 -0.1298  0.6601 -0.4351
  750MOL0     C 1126   1.112   1.874   8.739  0.3954 -0.9306 -0.0083
  750MOL0     C 1127   1.220   1.760   8.711  0.5934  0.7698 -0.7533
  750MOL0     C 1128   1.219   1.711   8.551 -0.5118 -0.0727  0.5665
  750MOL0     C 1129   1.303   1.813   8.466  0.1581 -0.0224 -1.0624
  750MOL0     C 1130   1.307   1.778   8.321 -0.9020 -0.5356  0.7567
  750MOL0     C 1131   1.394   1.888   8.245 -0.3579  0.3023  0.4363
  750MOL0     N 1132   1.540   1.892   8.294  0.3419  0.2859  1.0429
  750MOL0     C 1133   1.620   1.780   8.320 -0.7529  0.4131 -0.3518
  750MOL0     C 1134   1.703   1.817   8.418  0.0520 -0.2977 -0.0314
  750MOL0     C 1135   1.788   1.721   8.499  0.0251 -0.0351  0.5306
  750MOL0     C 1136   1.705   1.661   8.619  1.0871  0.6034 -0.0721
  750MOL0     C 1137   1.795   1.580   8.715 -0.3231 -0.7134  0.2349
  750MOL0     C 1138   1.716   1.542   8.844 -0.3029  0.5026  0.3924
  750MOL0     O 1139   1.607   1.444   8.821 -0.4125  0.0401 -0.3300
  750MOL0     C 1140   1.484   1.463   8.890 -0.3294  0.7217  0.1021
  750MOL0     C 1141   1.376   1.382   8.859  0.0714  0.6475 -0.4458
  750MOL0     C 1142   1.249   1.405   8.911  0.6054 -0.9535 -0.1930
  750MOL0     C 1143   1.140   1.322   8.856  0.2210  0.3347  0.1347
  750MOL0     C 1144   1.225   1.507   9.014 -0.8419  0.6164 -0.1291
  750MOL0     C 1145   1.092   1.523   9.090 -0.1799 -0.4838  0.3621
  750MOL0     O 1146   1.087   1.611   9.194  0.4367  0.4696 -0.2318
  750MOL0     C 1147   0.979   1.603   9.275 -0.0117  0.3360  0.0601
  750MOL0     C 1148   0.997   1.582   9.410  0.5481  0.6722  0.8475
  750MOL0     C 1149   0.880   1.567   9.489 -0.2569 -0.1959  0.2818
  750MOL0     C 1150   0.754   1.573   9.439 -0.1268  0.1613 -0.2828
  750MOL0     O 1151   0.651   1.534   9.522 -0.6006 -0.0100  0.0505
  750MOL0     C 1152   0.516   1.568   9.501  0.2184 -0.0481  0.4253
  750MOL0     C 1153   0.452   1.483   9.383  1.2044  0.0650 -0.1702
  750MOL0     C 1154   0.378   1.357   9.428 -0.3357  0.0678 -0.7515
  750MOL0     C 1155   0.284   1.295   9.324  0.2120  0.0754  0.6968
  750MOL0     C 1156   0.148   1.355   9.312  0.6017 -0.2917  0.4742
  750MOL0     C 1157   0.094   1.371   9.169 -0.7320  1.1777  0.4583
  750MOL0     C 1158  -0.033   1.438   9.158  0.9948 -0.1959 -0.1274
  750MOL0     C 1159  -0.079   1.448   9.010 -0.5693 -0.0321 -0.8116
  750MOL0    Cl 1160  -0.232   1.548   8.999  0.5047  0.2307  0.0138
  750MOL0     C 1161   0.741   1.619   9.310 -0.0291  0.6585  0.2436
  750MOL0     C 1162   0.853   1.639   9.227 -0.3546 -0.5190 -0.5408
  750MOL0     O 1163   0.997   1.459   9.049  0.3326 -0.3609  0.5514
  750MOL0     C 1164   1.337   1.575   9.056  0.5540 -0.4365 -0.5139
  750MOL0     C 1165   1.463   1.552   9.000  0.2715  0.5113 -1.0466
  750MOL0     N 1166   1.682   1.956   8.429  0.2091 -0.0980  0.2238
  750MOL0     N 1167   1.586   2.000   8.356 -1.0695 -0.5727 -0.1330
  750MOL0     C 1168   0.665   1.715   8.930  0.6101  0.6959  0.5259
  750MOL0     C 1169   0.529   1.696   8.967 -0.1282  0.7076  0.1433
  750MOL0     C 1170   0.147   1.814   9.219  0.3180 -0.3591  0.1979
  750MOL0     C 1171   0.104   1.842   9.350  0.4182  0.3392  0.5877
  750MOL0     C 1172  -0.031   1.852   9.376 -0.1570 -0.3815 -0.7786
  750MOL0     C 1173  -0.124   1.865   9.273  0.5271  0.5001 -0.5132
  750MOL0     O 1174  -0.256   1.899   9.292  0.2382 -0.3175 -0.2511
  750MOL0     C 1175  -0.351   1.791   9.329 -0.9595  0.6839 -0.1479
  750MOL0     C 1176  -0.455   1.805   9.214 -0.4907  0.5543 -0.0549
  750MOL0     C 1177  -0.565   1.692   9.191 -0.5255  0.0356 -1.2454
  750MOL0     C 1178  -0.654   1.720   9.073 -0.5229 -1.2372  0.7081
  750MOL0     C 1179  -0.746   1.624   9.048  0.3636 -0.0722 -0.6137
  750MOL0     C 1180  -0.840   1.553   9.011 -0.0418 -0.3281 -0.3922
  750MOL0     C 1181  -0.078   1.818   9.149  0.5591 -0.0824  0.1066
  750MOL0     C 1182   0.050   1.791   9.119 -0.4726  0.7640 -0.5697
  750MOL0     H 1183   0.492   2.018   9.077  2.7266  0.7533  0.9460
  750MOL0     H 1184   0.720   2.023   9.037 -1.3392  1.2658 -1.0087
  750MOL0     H 1185   0.905   2.013   8.832 -3.9659 -0.4501  0.9815
  750MOL0     H 1186   0.933   2.003   9.001  0.4286  1.1817 -0.4439
  750MOL0     H 1187   1.162   1.987   8.919  1.1735 -0.5633 -0.1440
  750MOL0     H 1188   1.101   1.822   8.950 -1.1824 -0.5545 -1.8576
  750MOL0     H 1189   1.016   1.838   8.702 -0.6235 -0.0628  1.7078
  750MOL0     H 1190   1.139   1.966   8.687 -0.1142  0.5555  2.2598
  750MOL0     H 1191   1.318   1.801   8.738  0.6247 -1.1090  2.5613
  750MOL0     H 1192   1.201   1.670   8.770  0.3518  1.8906  0.9340
  750MOL0     H 1193   1.275   1.617   8.552  3.9702  2.3650  1.0332
  750MOL0     H 1194   1.118   1.706   8.509  0.3522  0.2388 -1.6773
  750MOL0     H 1195   1.253   1.911   8.469 -0.3463 -0.1407 -3.6310
  750MOL0     H 1196   1.403   1.828   8.508 -0.7541  0.9167  0.9365
  750MOL0     H 1197   1.346   1.678   8.300  0.9905  0.7880 -2.9305
  750MOL0     H 1198   1.206   1.770   8.281 -1.6324 -2.1035  2.7710
  750MOL0     H 1199   1.349   1.987   8.258  0.1637  0.4335  1.3121
  750MOL0     H 1200   1.390   1.867   8.137  0.8945  1.0928  0.2173
  750MOL0     H 1201   1.601   1.684   8.274  3.2739 -0.9623  0.4813
  750MOL0     H 1202   1.837   1.639   8.445 -2.8894 -3.0150  2.0165
  750MOL0     H 1203   1.860   1.786   8.549 -2.4777  1.5880  2.2291
  750MOL0     H 1204   1.631   1.592   8.577 -1.4967  0.6366  3.9497
  750MOL0     H 1205   1.657   1.741   8.676 -1.4718  0.7879 -2.2715
  750MOL0     H 1206   1.885   1.638   8.737 -2.0244  1.0614  3.1175
  750MOL0     H 1207   1.832   1.491   8.663  2.5058  1.0484 -1.0634
  750MOL0     H 1208   1.679   1.641   8.871 -0.5611  1.4300 -2.9627
  750MOL0     H 1209   1.783   1.496   8.917  0.7503  2.0386  0.4257
  750MOL0     H 1210   1.396   1.303   8.788 -1.0000 -0.5449  0.5378
  750MOL0     H 1211   1.182   1.246   8.790  0.3063 -2.5829  3.2840
  750MOL0     H 1212   1.097   1.258   8.934  1.6514 -0.0304  0.6642
  750MOL0     H 1213   1.064   1.386   8.810  0.0420  0.9507  1.2460
  750MOL0     H 1214   1.097   1.575   9.453 -0.3635 -2.4943  2.7794
  750MOL0     H 1215   0.897   1.553   9.595  0.2839  0.5029  0.2937
  750MOL0     H 1216   0.467   1.569   9.598 -1.0819  4.4315 -0.0324
  750MOL0     H 1217   0.502   1.663   9.447 -1.5579 -1.8356 -2.5454
  750MOL0     H 1218   0.373   1.549   9.346 -1.6767 -2.1693  1.5446
  750MOL0     H 1219   0.525   1.449   9.308  1.0634  0.2672 -0.4003
  750MOL0     H 1220   0.312   1.376   9.513  2.6591 -0.7740  1.9973
  750MOL0     H 1221   0.455   1.284   9.455  0.8878  1.4745 -0.3088
  750MOL0     H 1222   0.333   1.301   9.226 -2.6173 -3.8623 -1.2505
  750MOL0     H 1223   0.262   1.191   9.349 -1.6498  0.7571  2.1180
  750MOL0     H 1224   0.152   1.460   9.344 -0.6588 -0.4171  1.1407
  750MOL0     H 1225   0.085   1.299   9.383  1.9996  0.3402  2.2998
  750MOL0     H 1226   0.163   1.428   9.107 -1.8734  2.2653  0.1549
  750MOL0     H 1227   0.083   1.269   9.132 -0.7828  1.5142 -0.4634
  750MOL0     H 1228  -0.042   1.529   9.218 -4.5495 -0.6580  0.1758
  750MOL0     H 1229  -0.113   1.378   9.202 -0.0053  0.1663 -1.3882
  750MOL0     H 1230  -0.095   1.348   8.967 -0.9946 -0.5932  0.6126
  750MOL0     H 1231   0.008   1.495   8.963 -0.2423  1.6181  1.3309
  750MOL0     H 1232   0.640   1.630   9.273  0.0165  1.1317  0.2524
  750MOL0     H 1233   0.837   1.655   9.120 -0.9487  1.8763 -0.1631
  750MOL0     H 1234   1.321   1.623   9.152  0.1427 -1.8777  0.1682
  750MOL0     H 1235   1.539   1.598   9.063 -0.7690 -1.4631  1.8757
  750MOL0     H 1236   0.710   1.634   8.873 -2.5972 -1.2392  0.4899
  750MOL0     H 1237   0.481   1.598   8.964  0.1016  0.4889  2.3909
  750MOL0     H 1238   0.178   1.861   9.427  1.4384 -0.2150 -0.2298
  750MOL0     H 1239  -0.049   1.878   9.479  4.1055  2.0295 -0.3901
  750MOL0     H 1240  -0.299   1.695   9.327  1.7587  1.9618  1.8730
  750MOL0     H 1241  -0.400   1.805   9.426  0.2784 -0.2251  0.6382
  750MOL0     H 1242  -0.396   1.817   9.122  2.5690 -0.5178  1.6163
  750MOL0     H 1243  -0.513   1.897   9.220 -1.2964  0.2342 -1.9858
  750MOL0     H 1244  -0.623   1.681   9.283  1.7849 -2.9596  0.0540
  750MOL0     H 1245  -0.530   1.589   9.174 -7.6566 -2.9813 -0.8943
  750MOL0     H 1246  -0.577   1.718   8.995  1.5459  0.7583  2.5448
  750MOL0     H 1247  -0.706   1.814   9.092  1.2099 -0.4571  1.8533
  750MOL0     H 1248  -0.925   1.494   8.983 -0.0907 -0.9214  0.9338
  750MOL0     H 1249  -0.148   1.800   9.068  3.0069 -3.0204 -1.5165
  750MOL0     H 1250   0.082   1.763   9.019 -1.4421  2.7160 -1.4742
  751MOL0     O 1251   6.401   4.558   5.982  1.1014  0.1583  0.0832
  751MOL0     C 1252   6.445   4.471   6.058  0.9731 -0.0477 -0.9297
  751MOL0     O 1253   6.376   4.422   6.173 -0.0484  0.3083  0.0872
  751MOL0     C 1254   6.246   4.413   6.199  0.1500  0.3745  0.0412
  751MOL0     C 1255   6.139   4.453   6.120 -0.7505 -0.6566 -0.2519
  751MOL0     C 1256   6.011   4.437   6.160  0.7275  0.2018 -0.2952
  751MOL0     C 1257   5.982   4.388   6.288  0.4803  0.3394  0.4373
  751MOL0     O 1258   5.856   4.410   6.326 -0.2341  0.0123 -0.4616
  751MOL0     C 1259   5.822   4.358   6.449 -0.0900 -0.0450 -0.7354
  751MOL0     C 1260   5.675   4.391   6.476  0.0108 -0.7453 -0.2519
  751MOL0     C 1261   5.580   4.342   6.370  0.2386 -0.2006  0.2022
  751MOL0     C 1262   5.453   4.426   6.390 -0.0183 -0.1580 -0.2449
  751MOL0     C 1263   5.331   4.361   6.327  0.0787 -0.9146 -0.2930
  751MOL0     C 1264   5.341   4.339   6.172  0.4584 -0.3036 -0.7914
  751MOL0     C 1265   5.359   4.463   6.079 -0.0419  0.8396  0.2180
  751MOL0     C 1266   5.236   4.557   6.080  1.0425  0.9055 -0.4811
  751MOL0     N 1267   5.126   4.513   5.992  0.6033  0.8115  0.2627
  751MOL0     C 1268   5.021   4.425   6.026  0.1959 -0.7978  0.2789
  751MOL0     C 1269   4.973   4.379   5.909 -0.2528 -0.0099 -0.1971
  751MOL0     C 1270   4.870   4.264   5.895  0.4059 -0.2451 -0.9473
  751MOL0     C 1271   4.733   4.305   5.863  0.2712  0.1481 -0.0527
  751MOL0     C 1272   4.635   4.203   5.804  0.2816 -0.2363 -0.3174
  751MOL0     C 1273   4.508   4.264   5.752 -0.3486  0.5767  0.4769
  751MOL0     O 1274   4.440   4.309   5.864  0.4189 -0.2386 -0.2154
  751MOL0     C 1275   4.309   4.340   5.836  0.1523  0.0820 -0.2143
  751MOL0     C 1276   4.252   4.360   5.702  0.3019  0.0327 -0.4131
  751MOL0     C 1277   4.115   4.402   5.685 -0.2726  0.6070 -0.7308
  751MOL0     C 1278   4.058   4.419   5.549  0.9092 -0.3406  0.1194
  751MOL0     C 1279   4.045   4.445   5.802 -0.7056 -0.4055  0.2888
  751MOL0     C 1280   3.913   4.517   5.803  0.4093 -0.7967 -0.4670
  751MOL0     O 1281   3.851   4.528   5.924 -0.2141 -0.0854 -0.0833
  751MOL0     C 1282   3.728   4.582   5.924  0.4677 -0.2703  0.1247
  751MOL0     C 1283   3.704   4.716   5.980 -0.4538  0.0959 -0.7635
  751MOL0     C 1284   3.566   4.767   5.974 -0.5442 -0.5837  0.6591
  751MOL0     C 1285   3.463   4.679   5.937  0.2581  0.2598  0.0904
  751MOL0     O 1286   3.334   4.723   5.931 -0.0430  0.0862  0.1294
  751MOL0     C 1287   3.270   4.822   6.016  0.5373  0.4363 -0.1599
  751MOL0     C 1288   3.120   4.836   5.989 -0.4219 -0.3339  0.0796
  751MOL0     C 1289   3.060   4.968   6.045  0.1909 -0.1178 -0.2783
  751MOL0     C 1290   2.905   4.959   6.030  0.1616  0.1988 -0.1789
  751MOL0     C 1291   2.837   5.070   6.118 -0.1408  0.0678 -0.1669
  751MOL0     C 1292   2.681   5.053   6.102 -0.0782  0.8395  0.2920
  751MOL0     C 1293   2.624   5.178   6.177  0.4935  0.4862 -0.0495
  751MOL0     C 1294   2.474   5.191   6.204  0.5739  0.4621  0.4475
  751MOL0    Cl 1295   2.402   5.239   6.045  0.0727 -0.3170 -0.1316
  751MOL0     C 1296   3.488   4.547   5.890 -0.0946  0.4503  0.8713
  751MOL0     C 1297   3.623   4.497   5.883 -0.3717  0.7124  0.2257
  751MOL0     O 1298   3.868   4.565   5.699  0.4611 -0.4767  0.1649
  751MOL0     C 1299   4.108   4.423   5.925  0.4773  0.3122  0.2827
  751MOL0     C 1300   4.232   4.367   5.938  0.2636 -0.0578 -0.0558
  751MOL0     N 1301   5.038   4.453   5.796 -0.3623 -0.5843 -0.7083
  751MOL0     N 1302   5.127   4.526   5.850  0.6992 -0.3286 -0.0844
  751MOL0     C 1303   6.092   4.360   6.369 -0.0560  0.1012  1.0194
  751MOL0     C 1304   6.219   4.360   6.324  0.1405  0.0825  0.4557
  751MOL0     C 1305   6.581   4.431   6.054 -0.2107 -0.1638 -0.8500
  751MOL0     C 1306   6.680   4.486   5.976  0.0102 -0.9494  0.5170
  751MOL0     C 1307   6.810   4.429   5.975  0.0881  0.7355  0.6214
  751MOL0     C 1308   6.841   4.317   6.050 -0.3080 -0.1925  0.1866
  751MOL0     O 1309   6.966   4.261   6.026  0.4895 -0.0733  0.1826
  751MOL0     C 1310   7.021   4.171   6.119 -0.4085  0.2251  0.3434
  751MOL0     C 1311   7.116   4.245   6.221  0.2410  0.1742  0.9164
  751MOL0     C 1312   7.037   4.299   6.338 -0.3409  0.1046 -0.4467
  751MOL0     C 1313   7.128   4.343   6.464  0.8784  0.2706 -0.8059
  751MOL0     C 1314   7.199   4.239   6.538 -0.0160  0.6475 -0.0708
  751MOL0     C 1315   7.261   4.146   6.604  0.2684  0.6825  0.9952
  751MOL0     C 1316   6.748   4.270   6.141  0.6065  0.4765  0.1302
  751MOL0     C 1317   6.616   4.323   6.137 -0.5501  0.9798  0.0687
  751MOL0     H 1318   6.151   4.502   6.024 -2.2789  2.9906  1.2392
  751MOL0     H 1319   5.946   4.474   6.081 -0.3772  0.4913  0.7208
  751MOL0     H 1320   5.833   4.250   6.438  1.2484  0.2789 -3.1183
  751MOL0     H 1321   5.865   4.407   6.537  0.0534  1.6555 -1.7125
  751MOL0     H 1322   5.638   4.345   6.568 -0.7192  2.4243  1.1703
  751MOL0     H 1323   5.673   4.500   6.489 -0.4189 -0.6073 -1.3414
  751MOL0     H 1324   5.617   4.349   6.268 -1.3548  1.3119 -0.3095
  751MOL0     H 1325   5.558   4.237   6.395 -1.8065  0.2274  0.3259
  751MOL0     H 1326   5.437   4.442   6.497  2.4045  0.9526  0.0226
  751MOL0     H 1327   5.465   4.529   6.353  0.5042 -0.6098 -1.3575
  751MOL0     H 1328   5.313   4.263   6.371  2.0739 -0.6206  1.3452
  751MOL0     H 1329   5.243   4.424   6.339  1.0384  0.2987  0.6799
  751MOL0     H 1330   5.423   4.269   6.153  0.6045 -0.1501 -0.7252
  751MOL0     H 1331   5.246   4.285   6.161 -0.5370  0.5366  2.6125
  751MOL0     H 1332   5.454   4.516   6.090 -0.8482  1.9477  2.7715
  751MOL0     H 1333   5.363   4.420   5.979 -4.9520  1.7980 -0.6592
  751MOL0     H 1334   5.272   4.658   6.060  1.2507  1.6074  2.7979
  751MOL0     H 1335   5.201   4.563   6.184 -1.3593  1.1842 -1.2485
  751MOL0     H 1336   4.989   4.375   6.116  1.7185 -2.9710 -0.3189
  751MOL0     H 1337   4.903   4.203   5.811  2.2143 -0.0108 -0.4393
  751MOL0     H 1338   4.862   4.205   5.987 -0.4937  2.3351  0.7599
  751MOL0     H 1339   4.734   4.387   5.791  0.4550  2.3202  2.2751
  751MOL0     H 1340   4.695   4.353   5.954  0.7857  0.9709 -0.2620
  751MOL0     H 1341   4.619   4.130   5.884  2.6580 -0.4045  0.0689
  751MOL0     H 1342   4.677   4.154   5.716 -1.8072  0.9645 -2.1097
  751MOL0     H 1343   4.465   4.187   5.688  1.1120 -0.3112  0.5190
  751MOL0     H 1344   4.532   4.347   5.686 -0.6591  0.5272  0.2989
  751MOL0     H 1345   4.311   4.338   5.614 -2.1287 -2.4117 -1.5853
  751MOL0     H 1346   4.116   4.350   5.485  0.5716 -1.7168  1.2456
  751MOL0     H 1347   3.953   4.391   5.556  0.4919  1.4321  1.7122
  751MOL0     H 1348   4.063   4.521   5.511  1.7599  0.5954  2.5657
  751MOL0     H 1349   3.788   4.777   6.011 -0.4013 -1.8928  3.7666
  751MOL0     H 1350   3.533   4.867   5.998 -1.9753 -0.2024 -2.4233
  751MOL0     H 1351   3.277   4.798   6.122 -3.1079  2.7172  0.7884
  751MOL0     H 1352   3.321   4.917   6.001  1.6435  0.0647  1.0997
  751MOL0     H 1353   3.106   4.835   5.881  0.5685 -0.5146 -0.0534
  751MOL0     H 1354   3.065   4.754   6.037  0.4780 -0.4328  0.9725
  751MOL0     H 1355   3.095   5.056   5.990  0.3250  0.1899  0.2937
  751MOL0     H 1356   3.091   4.984   6.149 -1.2597  0.7838  0.0464
  751MOL0     H 1357   2.879   4.959   5.924  1.0795 -1.2746 -0.4322
  751MOL0     H 1358   2.858   4.871   6.075  0.7114 -0.7468 -1.4073
  751MOL0     H 1359   2.865   5.170   6.083  1.0695  1.0615  3.2179
  751MOL0     H 1360   2.867   5.062   6.223 -1.7384  1.3929  0.4437
  751MOL0     H 1361   2.660   5.053   5.995  0.4863  0.0041  0.1754
  751MOL0     H 1362   2.648   4.961   6.150 -0.4114  0.4532 -0.6659
  751MOL0     H 1363   2.682   5.257   6.127  3.7434 -1.5308  0.2123
  751MOL0     H 1364   2.664   5.171   6.278  2.2592 -1.6617 -0.8154
  751MOL0     H 1365   2.446   5.267   6.278  1.2595 -1.2008  2.5217
  751MOL0     H 1366   2.431   5.097   6.239  1.6612 -0.3864 -0.4622
  751MOL0     H 1367   3.403   4.484   5.866 -0.3790  0.8446  0.8407
  751MOL0     H 1368   3.636   4.398   5.842  0.3356  1.1560 -0.6456
  751MOL0     H 1369   4.049   4.447   6.014 -2.2111  1.7304 -1.7212
  751MOL0     H 1370   4.274   4.363   6.038  0.1210  0.2500  0.0155
  751MOL0     H 1371   6.076   4.341   6.474  0.9117 -0.3953  1.0876
  751MOL0     H 1372   6.302   4.344   6.392  2.2319 -0.4941 -2.0872
  751MOL0     H 1373   6.661   4.570   5.910  3.7207 -1.5527 -1.6167
  751MOL0     H 1374   6.889   4.477   5.919  1.2136  0.3902  1.8391
  751MOL0     H 1375   6.942   4.111   6.165 -1.0192  0.2538 -0.6328
  751MOL0     H 1376   7.079   4.099   6.060  1.8287  1.1270  1.3467
  751MOL0     H 1377   7.182   4.320   6.175 -0.8385  0.1795 -0.7040
  751MOL0     H 1378   7.184   4.174   6.269  1.4530  0.8879  0.3115
  751MOL0     H 1379   6.967   4.223   6.374  0.5416 -0.2270  0.6034
  751MOL0     H 1380   6.975   4.380   6.298 -1.3377 -1.5233 -2.4926
  751MOL0     H 1381   7.061   4.396   6.532  2.4171  4.4254 -2.1887
  751MOL0     H 1382   7.190   4.425   6.426 -1.8626  2.2348 -1.3277
  751MOL0     H 1383   7.302   4.062   6.656  1.2611 -0.4041 -1.4138
  751MOL0     H 1384   6.768   4.192   6.214  0.5887  0.3962  0.0500
  751MOL0     H 1385   6.551   4.283   6.214 -2.7198  5.0296  0.6089
  752MOL0     O 1386   2.987   9.354   2.262 -0.3892  0.5338  0.1553
  752MOL0     C 1387   3.015   9.246   2.315 -0.7716 -0.1246  0.0215
  752MOL0     O 1388   2.920   9.162   2.378 -0.0800  1.0244 -0.1374
  752MOL0     C 1389   2.784   9.184   2.361 -0.3501  0.4518 -0.4361
  752MOL0     C 1390   2.704   9.171   2.473 -0.6008 -0.5371  0.7403
  752MOL0     C 1391   2.566   9.194   2.461 -1.1705 -1.0328 -0.1082
  752MOL0     C 1392   2.510   9.218   2.334 -0.3472 -0.7038 -0.8801
  752MOL0     O 1393   2.372   9.228   2.311 -0.3343 -0.2327  0.7480
  752MOL0     C 1394   2.285   9.191   2.415 -0.2103 -0.3952 -0.1610
  752MOL0     C 1395   2.131   9.195   2.382  0.6033 -0.2960 -0.5574
  752MOL0     C 1396   2.042   9.181   2.505  0.3458 -0.1929 -0.7051
  752MOL0     C 1397   1.895   9.216   2.469  0.9406  0.0657 -0.1791
  752MOL0     C 1398   1.808   9.174   2.589  1.1511  0.2752 -0.9531
  752MOL0     C 1399   1.651   9.187   2.560  0.5239  0.4179  0.6559
  752MOL0     C 1400   1.587   9.325   2.538  0.7503  0.0409  0.1988
  752MOL0     C 1401   1.445   9.322   2.489 -0.4534  0.2084 -0.2525
  752MOL0     N 1402   1.385   9.454   2.517  0.0318 -0.7381 -0.7814
  752MOL0     C 1403   1.393   9.563   2.433  0.6270  0.0035  0.2745
  752MOL0     C 1404   1.296   9.651   2.478 -0.3202  0.2241  0.3948
  752MOL0     C 1405   1.269   9.781   2.407 -0.0559 -0.1344 -0.3177
  752MOL0     C 1406   1.120   9.807   2.389 -0.2373  0.0272 -0.9097
  752MOL0     C 1407   1.076   9.730   2.262  0.6023 -0.1710  0.0717
  752MOL0     C 1408   0.928   9.753   2.225  1.1406  0.0647 -0.5180
  752MOL0     O 1409   0.888   9.645   2.133 -0.0130 -0.2335  0.6912
  752MOL0     C 1410   0.750   9.624   2.101 -1.1990  0.6020  0.6645
  752MOL0     C 1411   0.650   9.715   2.121 -0.3179 -0.3989 -0.2871
  752MOL0     C 1412   0.514   9.690   2.085 -0.2465 -0.1411  0.1094
  752MOL0     C 1413   0.401   9.797   2.108 -0.6649  0.5361 -0.9065
  752MOL0     C 1414   0.483   9.563   2.032  0.7742 -0.7967  0.2784
  752MOL0     C 1415   0.352   9.530   1.978  0.2611 -0.0982  0.5834
  752MOL0     O 1416   0.351   9.502   1.842  0.3241  0.1836 -0.3149
  752MOL0     C 1417   0.229   9.474   1.778 -0.7881  0.1786  0.5268
  752MOL0     C 1418   0.240   9.389   1.674 -0.2591  1.3156  0.2048
  752MOL0     C 1419   0.135   9.361   1.590  0.4485  0.0732  0.1292
  752MOL0     C 1420   0.015   9.418   1.618  0.7777 -0.6091  0.5760
  752MOL0     O 1421  -0.102   9.376   1.560  0.1580  0.1017  0.1757
  752MOL0     C 1422  -0.140   9.248   1.603 -0.0917  0.9194  0.7619
  752MOL0     C 1423  -0.293   9.245   1.581  0.1172 -0.1550  0.5543
  752MOL0     C 1424  -0.361   9.372   1.592 -0.2306  0.9201 -0.4941
  752MOL0     C 1425  -0.510   9.346   1.552  0.1588  0.4616 -0.6158
  752MOL0     C 1426  -0.594   9.470   1.551 -0.1611  0.0461 -0.4375
  752MOL0     C 1427  -0.716   9.439   1.459 -1.2086 -0.3069  0.1925
  752MOL0     C 1428  -0.819   9.550   1.467  0.3805 -0.7134  0.9888
  752MOL0     C 1429  -0.927   9.542   1.353 -0.4215  0.7957 -0.3025
  752MOL0    Cl 1430  -1.037   9.681   1.379 -0.0305  0.0659  0.3850
  752MOL0     C 1431  -0.004   9.506   1.727 -0.6712  0.2874 -0.0107
  752MOL0     C 1432   0.114   9.545   1.799 -0.2260  0.3978  0.7593
  752MOL0     O 1433   0.250   9.542   2.050 -0.2478 -0.0806  0.0295
  752MOL0     C 1434   0.589   9.469   2.015 -0.1257 -0.6587 -0.2554
  752MOL0     C 1435   0.721   9.491   2.053 -0.3975  0.0195 -0.3452
  752MOL0     N 1436   1.236   9.602   2.590 -0.1075 -0.3010 -0.0156
  752MOL0     N 1437   1.283   9.481   2.607 -0.3000  0.0408  0.0340
  752MOL0     C 1438   2.593   9.233   2.225  0.7632 -0.0279 -0.5963
  752MOL0     C 1439   2.734   9.221   2.237  1.1119  0.3418 -0.6328
  752MOL0     C 1440   3.149   9.200   2.305  0.6818  0.8423  0.0504
  752MOL0     C 1441   3.183   9.064   2.329  0.0031  0.0767 -0.2508
  752MOL0     C 1442   3.316   9.027   2.295  0.2777 -0.9101  0.7260
  752MOL0     C 1443   3.412   9.121   2.255 -0.0830 -0.2317  0.2797
  752MOL0     O 1444   3.541   9.080   2.240 -0.1175 -0.2496 -0.1809
  752MOL0     C 1445   3.621   9.162   2.159  0.0461 -0.1489 -0.5584
  752MOL0     C 1446   3.745   9.080   2.132 -0.0481  0.4490 -0.7076
  752MOL0     C 1447   3.828   9.165   2.042 -0.1145 -0.1686  0.2052
  752MOL0     C 1448   3.915   9.079   1.945 -0.4078 -0.0027 -0.1174
  752MOL0     C 1449   3.987   9.167   1.857 -0.7614 -0.3334  0.5691
  752MOL0     C 1450   4.051   9.228   1.770  0.2255 -0.0503 -0.1287
  752MOL0     C 1451   3.377   9.251   2.232  0.7351  0.4258  0.0596
  752MOL0     C 1452   3.250   9.293   2.260 -0.4697  0.7614  0.0901
  752MOL0     H 1453   2.745   9.152   2.572 -0.1115  1.0875  0.8821
  752MOL0     H 1454   2.512   9.181   2.555 -1.1756  1.4559  0.2987
  752MOL0     H 1455   2.314   9.091   2.450  2.1334  0.5039  0.6655
  752MOL0     H 1456   2.309   9.255   2.500  1.8471 -2.0625  0.6117
  752MOL0     H 1457   2.107   9.290   2.332  1.3151 -0.5484 -1.4018
  752MOL0     H 1458   2.123   9.105   2.321  1.1081 -1.0784  0.4934
  752MOL0     H 1459   2.048   9.075   2.534 -0.6673 -0.0493  0.0814
  752MOL0     H 1460   2.071   9.232   2.597  0.8005 -2.8712  0.7409
  752MOL0     H 1461   1.890   9.324   2.456  1.0238 -0.0855 -1.5555
  752MOL0     H 1462   1.859   9.149   2.390 -0.8190 -2.0314  2.2305
  752MOL0     H 1463   1.817   9.067   2.607 -2.1405 -0.3666 -2.2802
  752MOL0     H 1464   1.828   9.219   2.686 -1.4839 -4.5074  2.2013
  752MOL0     H 1465   1.639   9.142   2.461  1.0432  0.8884  0.3679
  752MOL0     H 1466   1.598   9.145   2.646  1.1470 -1.4468  0.1860
  752MOL0     H 1467   1.594   9.373   2.635  3.3873 -2.3508  1.3409
  752MOL0     H 1468   1.642   9.381   2.462 -0.9977 -0.4365 -1.4929
  752MOL0     H 1469   1.378   9.242   2.523 -0.2869  0.8213  1.6490
  752MOL0     H 1470   1.460   9.318   2.381 -0.7090 -0.8415 -0.2678
  752MOL0     H 1471   1.453   9.585   2.346 -2.5708 -1.4279 -2.4968
  752MOL0     H 1472   1.323   9.857   2.464 -0.5510  0.0318 -0.0664
  752MOL0     H 1473   1.322   9.786   2.311 -0.7110  2.2110 -0.6239
  752MOL0     H 1474   1.091   9.910   2.367  0.9203  0.5092 -0.2562
  752MOL0     H 1475   1.071   9.776   2.482 -0.3204 -0.5416 -1.1344
  752MOL0     H 1476   1.103   9.626   2.280  2.2890  0.0633 -0.9794
  752MOL0     H 1477   1.148   9.757   2.185  2.5036 -1.2113  1.4201
  752MOL0     H 1478   0.911   9.854   2.187  0.3266  0.1956  0.1856
  752MOL0     H 1479   0.865   9.739   2.313  0.6278  0.2314 -0.8516
  752MOL0     H 1480   0.679   9.811   2.163 -2.3379 -0.9787  2.7289
  752MOL0     H 1481   0.438   9.893   2.146  1.1598 -0.3893 -0.2129
  752MOL0     H 1482   0.352   9.823   2.014 -1.4766 -0.3204 -0.7318
  752MOL0     H 1483   0.324   9.761   2.177 -1.9728  1.4894 -1.8149
  752MOL0     H 1484   0.336   9.346   1.648 -0.9686  0.1554 -0.5603
  752MOL0     H 1485   0.147   9.295   1.505  1.7513 -0.2246  0.5329
  752MOL0     H 1486  -0.089   9.167   1.551 -2.1801  0.6510 -1.0385
  752MOL0     H 1487  -0.120   9.226   1.708  1.3753 -0.8164  0.1669
  752MOL0     H 1488  -0.310   9.204   1.481  1.0337  2.0429 -0.5687
  752MOL0     H 1489  -0.334   9.183   1.661 -2.2691 -0.1014 -0.5377
  752MOL0     H 1490  -0.329   9.435   1.509 -1.1693  1.0432 -0.7751
  752MOL0     H 1491  -0.338   9.417   1.688  0.6554 -1.9954  0.7835
  752MOL0     H 1492  -0.520   9.309   1.450 -1.6370  4.9463 -2.3388
  752MOL0     H 1493  -0.558   9.270   1.614 -1.2828  0.6837 -1.4262
  752MOL0     H 1494  -0.538   9.557   1.514 -0.8944  0.5581 -0.3648
  752MOL0     H 1495  -0.618   9.498   1.654  1.5599  0.8994 -0.2319
  752MOL0     H 1496  -0.686   9.408   1.358 -0.2941 -2.0209  0.9505
  752MOL0     H 1497  -0.760   9.347   1.499  1.2564 -2.0887 -0.9429
  752MOL0     H 1498  -0.763   9.643   1.451 -2.4688  0.8420 -0.7768
  752MOL0     H 1499  -0.868   9.557   1.564 -1.6081  1.0763 -0.0733
  752MOL0     H 1500  -0.974   9.443   1.356  0.1004  0.4383 -2.3039
  752MOL0     H 1501  -0.881   9.554   1.255  0.5192 -0.2263 -0.0198
  752MOL0     H 1502  -0.099   9.537   1.769 -0.1614 -0.7890  2.0511
  752MOL0     H 1503   0.111   9.618   1.879  1.4459  0.0221  1.1963
  752MOL0     H 1504   0.559   9.368   1.991 -0.4027 -1.2840  2.3541
  752MOL0     H 1505   0.795   9.411   2.054 -0.9060 -0.4604  1.0534
  752MOL0     H 1506   2.566   9.258   2.123 -0.4651 -0.4008 -0.3768
  752MOL0     H 1507   2.802   9.247   2.156 -1.0743  2.5943 -1.9138
  752MOL0     H 1508   3.116   8.987   2.365  2.7475 -2.4135 -0.1296
  752MOL0     H 1509   3.351   8.925   2.309 -0.5703 -1.4356 -0.7414
  752MOL0     H 1510   3.574   9.177   2.061 -0.4280 -3.6604 -1.0064
  752MOL0     H 1511   3.658   9.253   2.206 -1.0080 -0.5190  1.0433
  752MOL0     H 1512   3.717   8.991   2.075  1.5549 -0.0466 -0.7833
  752MOL0     H 1513   3.802   9.059   2.223 -1.8555 -0.2147  0.3142
  752MOL0     H 1514   3.894   9.223   2.107  0.0305  2.4329 -2.0524
  752MOL0     H 1515   3.781   9.237   1.974  1.6309  0.8832  0.0322
  752MOL0     H 1516   3.839   9.017   1.895 -1.5231 -0.5573  2.1438
  752MOL0     H 1517   3.983   9.010   1.995 -1.4273 -1.2709 -0.4324
  752MOL0     H 1518   4.108   9.280   1.696 -0.9699 -0.1683 -1.1736
  752MOL0     H 1519   3.442   9.333   2.205  0.6803  1.3009  2.2984
  752MOL0     H 1520   3.231   9.398   2.243  1.5571  1.0219 -0.9035
  753MOL0     O 1521   7.104   8.784   4.205  0.3731 -0.7932 -0.1572
  753MOL0     C 1522   7.103   8.754   4.327  1.1488  0.1270 -0.6948
  753MOL0     O 1523   6.994   8.783   4.417  0.8648  0.2331 -0.1142
  753MOL0     C 1524   6.877   8.814   4.354 -0.6932 -0.3543  0.4522
  753MOL0     C 1525   6.847   8.951   4.332 -0.2455 -0.1728 -0.1526
  753MOL0     C 1526   6.734   8.986   4.255  0.7688 -0.4817 -0.9435
  753MOL0     C 1527   6.650   8.887   4.202 -0.2952 -0.7907  0.1808
  753MOL0     O 1528   6.542   8.908   4.130  0.2724  0.1858  0.3746
  753MOL0     C 1529   6.462   9.023   4.162  0.2023 -0.6174  0.5324
  753MOL0     C 1530   6.346   9.046   4.061 -0.5481  0.4291 -0.1935
  753MOL0     C 1531   6.274   9.177   4.096 -0.0780 -0.0318  0.8560
  753MOL0     C 1532   6.187   9.178   4.210 -1.1468  0.1121  0.0538
  753MOL0     C 1533   6.134   9.316   4.241  0.8566  0.4044  0.3631
  753MOL0     C 1534   6.033   9.293   4.362  0.1231 -0.2752  0.3413
  753MOL0     C 1535   6.012   9.402   4.471  0.3467 -0.7895  0.6536
  753MOL0     C 1536   5.901   9.372   4.572  0.0110  0.6322 -0.1827
  753MOL0     N 1537   5.932   9.259   4.663  0.0925  0.0600 -0.5883
  753MOL0     C 1538   5.887   9.131   4.648  0.2100 -0.6501  0.0487
  753MOL0     C 1539   5.934   9.072   4.758 -0.2138 -0.3830  0.0514
  753MOL0     C 1540   5.915   8.916   4.776  0.5173 -0.5264  0.3021
  753MOL0     C 1541   5.836   8.896   4.904  0.8210  1.1087 -0.4544
  753MOL0     C 1542   5.833   8.741   4.940 -0.1386 -1.0949 -0.1287
  753MOL0     C 1543   5.768   8.652   4.830 -0.3470  0.0319 -0.2908
  753MOL0     O 1544   5.631   8.691   4.805 -0.4636 -0.2441 -0.0069
  753MOL0     C 1545   5.534   8.689   4.898 -0.3337  0.2775 -0.2564
  753MOL0     C 1546   5.546   8.594   5.001  0.2287 -0.6467 -0.7915
  753MOL0     C 1547   5.446   8.589   5.103 -0.1587 -0.1034  0.3917
  753MOL0     C 1548   5.458   8.468   5.198  0.8060  0.1732 -0.2303
  753MOL0     C 1549   5.333   8.692   5.093  0.0235  0.2228 -0.5573
  753MOL0     C 1550   5.232   8.710   5.203 -0.3882  0.1908  0.8978
  753MOL0     O 1551   5.111   8.776   5.167 -0.2952 -0.4477  0.3277
  753MOL0     C 1552   5.007   8.762   5.254  1.1174 -0.4150 -0.4859
  753MOL0     C 1553   4.951   8.630   5.277  0.7673 -0.6274 -0.0890
  753MOL0     C 1554   4.846   8.610   5.368 -0.5733 -1.2071  0.2178
  753MOL0     C 1555   4.790   8.723   5.421  0.1960  0.9644 -0.7969
  753MOL0     O 1556   4.685   8.698   5.503  0.4476  0.9242  0.2726
  753MOL0     C 1557   4.629   8.799   5.582 -0.5797 -0.0651  1.3972
  753MOL0     C 1558   4.535   8.751   5.682  0.9702  0.2423 -0.4139
  753MOL0     C 1559   4.469   8.883   5.726  0.1237  1.3328 -0.0628
  753MOL0     C 1560   4.392   8.863   5.860 -0.2709  0.4120 -0.2336
  753MOL0     C 1561   4.292   8.972   5.884  0.1637 -0.3436  0.0040
  753MOL0     C 1562   4.210   8.963   5.999  0.3365  0.3352  0.4177
  753MOL0     C 1563   4.278   8.951   6.136 -0.6100 -0.3032  0.4581
  753MOL0     C 1564   4.388   9.047   6.165 -0.2028 -0.2439 -0.0543
  753MOL0    Cl 1565   4.505   8.981   6.291 -0.1818  0.2530  0.0084
  753MOL0     C 1566   4.837   8.853   5.390 -0.5853  0.1185 -0.4193
  753MOL0     C 1567   4.952   8.872   5.317  0.2082 -0.0688 -0.6472
  753MOL0     O 1568   5.266   8.671   5.313  0.3148  0.3278 -0.4217
  753MOL0     C 1569   5.323   8.765   4.980  0.4939 -0.2423  0.4275
  753MOL0     C 1570   5.418   8.772   4.883  0.8229 -0.1255  0.6077
  753MOL0     N 1571   6.007   9.163   4.843 -0.0680  0.3723  0.4676
  753MOL0     N 1572   6.012   9.266   4.771 -0.3888 -0.3872  0.1877
  753MOL0     C 1573   6.681   8.755   4.222  0.2716 -0.3350 -0.2742
  753MOL0     C 1574   6.784   8.716   4.302 -0.0153 -0.6893 -0.1569
  753MOL0     C 1575   7.231   8.701   4.386  0.1891 -0.3216  0.1784
  753MOL0     C 1576   7.219   8.614   4.497 -0.5490 -0.6661  0.1290
  753MOL0     C 1577   7.338   8.554   4.539 -0.2066  0.0518  1.0422
  753MOL0     C 1578   7.466   8.580   4.483  0.5179 -0.1994  0.8373
  753MOL0     O 1579   7.592   8.533   4.513  0.2541 -0.1723 -0.2555
  753MOL0     C 1580   7.600   8.445   4.629 -0.6765 -0.1367  0.2274
  753MOL0     C 1581   7.746   8.382   4.652 -0.0801 -0.9867  0.5822
  753MOL0     C 1582   7.862   8.486   4.646  0.5111  0.4870 -0.3703
  753MOL0     C 1583   7.998   8.413   4.687  0.6139  0.9697  0.2271
  753MOL0     C 1584   8.111   8.498   4.658 -0.1540  0.6564  0.4929
  753MOL0     C 1585   8.211   8.558   4.644 -0.8267 -0.1249  0.7086
  753MOL0     C 1586   7.472   8.668   4.383  0.8787 -0.0313  0.4892
  753MOL0     C 1587   7.359   8.724   4.328 -0.6753  0.1564 -0.2793
  753MOL0     H 1588   6.915   9.024   4.373  0.2530 -2.2104  2.9615
  753MOL0     H 1589   6.712   9.092   4.249  1.2214 -0.4509 -2.2518
  753MOL0     H 1590   6.417   9.007   4.260  1.8500  1.7719  1.7773
  753MOL0     H 1591   6.514   9.119   4.161 -1.4944  0.3969 -2.4703
  753MOL0     H 1592   6.392   9.056   3.962 -0.0112  1.3351  0.1346
  753MOL0     H 1593   6.276   8.962   4.063 -1.7514  1.4026  1.2835
  753MOL0     H 1594   6.351   9.253   4.109 -0.4039  0.3157  0.7869
  753MOL0     H 1595   6.206   9.212   4.018 -0.7619 -0.5171  1.2141
  753MOL0     H 1596   6.101   9.112   4.194 -1.0084  0.0220 -0.3234
  753MOL0     H 1597   6.243   9.143   4.297 -2.2897  0.7339  1.0666
  753MOL0     H 1598   6.216   9.379   4.276  1.4129  0.4506 -0.9750
  753MOL0     H 1599   6.090   9.363   4.153 -0.5956 -2.5960 -0.6291
  753MOL0     H 1600   5.940   9.290   4.303 -0.1889  0.6145  0.7760
  753MOL0     H 1601   6.060   9.200   4.412  0.6097 -0.0215  0.5553
  753MOL0     H 1602   6.106   9.421   4.525  1.2303 -1.6803 -0.5320
  753MOL0     H 1603   5.981   9.493   4.420  0.3498 -2.1057 -1.8343
  753MOL0     H 1604   5.815   9.342   4.512  0.4038 -1.0119  0.0359
  753MOL0     H 1605   5.882   9.458   4.638  2.6795  1.5629 -0.5254
  753MOL0     H 1606   5.816   9.094   4.575  0.5046 -1.4012  0.1328
  753MOL0     H 1607   5.850   8.887   4.693  0.2097  3.8821 -1.2886
  753MOL0     H 1608   6.010   8.862   4.771  0.9835  0.3619 -1.1949
  753MOL0     H 1609   5.734   8.935   4.894  0.1337 -1.0969 -3.0867
  753MOL0     H 1610   5.882   8.945   4.991  1.3073  2.2868 -1.3419
  753MOL0     H 1611   5.783   8.733   5.037 -0.2610  1.1341  0.0487
  753MOL0     H 1612   5.939   8.716   4.952  0.6685  0.9253 -2.2950
  753MOL0     H 1613   5.773   8.545   4.854  1.3361  0.5001  1.6946
  753MOL0     H 1614   5.819   8.661   4.733 -2.3376 -0.3823 -1.4388
  753MOL0     H 1615   5.635   8.534   5.015 -0.6261 -1.6313  0.6668
  753MOL0     H 1616   5.387   8.467   5.282  2.4557  1.6127  1.2862
  753MOL0     H 1617   5.461   8.383   5.130 -0.0600  0.2125 -0.3318
  753MOL0     H 1618   5.558   8.481   5.241  2.1909  1.3420 -3.4761
  753MOL0     H 1619   4.987   8.547   5.217 -0.6496 -1.1000 -0.3130
  753MOL0     H 1620   4.813   8.509   5.389  1.3795 -1.8074  0.5763
  753MOL0     H 1621   4.711   8.840   5.642  1.9087 -0.6119 -1.3979
  753MOL0     H 1622   4.581   8.868   5.513  3.0876  1.5229  0.1537
  753MOL0     H 1623   4.463   8.676   5.647 -1.3147  1.6632  0.9105
  753MOL0     H 1624   4.593   8.706   5.763 -0.8262 -1.2728  0.1284
  753MOL0     H 1625   4.397   8.912   5.648 -3.4074  2.3515  3.2327
  753MOL0     H 1626   4.530   8.974   5.725  2.3699 -0.0434  2.3969
  753MOL0     H 1627   4.332   8.772   5.860 -2.4537  1.7674  0.5580
  753MOL0     H 1628   4.460   8.856   5.945 -0.5034  1.2020  0.0315
  753MOL0     H 1629   4.211   8.966   5.811  0.8095 -1.7262 -0.6624
  753MOL0     H 1630   4.356   9.060   5.880  1.9808 -1.6311 -1.6790
  753MOL0     H 1631   4.148   9.053   5.992 -2.4203 -1.5267 -1.1943
  753MOL0     H 1632   4.135   8.885   5.990  2.6072 -1.9479  0.0030
  753MOL0     H 1633   4.315   8.848   6.139 -0.5700 -0.4694 -2.6368
  753MOL0     H 1634   4.205   8.958   6.217 -1.0170  1.4730 -0.0203
  753MOL0     H 1635   4.343   9.138   6.206 -1.5839 -0.1502 -1.6729
  753MOL0     H 1636   4.452   9.076   6.081 -1.3061  3.1469  0.1495
  753MOL0     H 1637   4.792   8.946   5.425 -0.7025  0.5048 -1.5488
  753MOL0     H 1638   4.993   8.970   5.295  2.5425 -1.1755 -1.6542
  753MOL0     H 1639   5.240   8.835   4.974  1.3413  0.6537 -1.7177
  753MOL0     H 1640   5.413   8.847   4.805 -1.8379  0.1477  0.9558
  753MOL0     H 1641   6.616   8.679   4.180 -1.1803 -0.9771  2.8735
  753MOL0     H 1642   6.804   8.610   4.297  1.0564 -0.4450 -1.9704
  753MOL0     H 1643   7.123   8.590   4.541 -0.8597  1.0368  0.4147
  753MOL0     H 1644   7.317   8.481   4.616  0.3322  2.6127  3.8086
  753MOL0     H 1645   7.585   8.510   4.715 -1.6963  0.8917 -0.7026
  753MOL0     H 1646   7.527   8.365   4.616 -0.3758 -0.2220 -1.1129
  753MOL0     H 1647   7.754   8.305   4.575 -0.5247 -0.6826  0.2288
  753MOL0     H 1648   7.749   8.321   4.743 -1.9578 -0.3959  1.0945
  753MOL0     H 1649   7.855   8.568   4.717  1.5402  1.0177 -0.8671
  753MOL0     H 1650   7.879   8.519   4.543  1.0063 -2.2869 -1.2826
  753MOL0     H 1651   8.022   8.332   4.618  2.8467  3.7058 -2.5164
  753MOL0     H 1652   7.999   8.379   4.791 -1.0819 -0.8638 -0.2954
  753MOL0     H 1653   8.293   8.617   4.608 -0.0451 -1.2648  0.5838
  753MOL0     H 1654   7.570   8.683   4.339 -0.1307  0.4174 -1.7624
  753MOL0     H 1655   7.367   8.780   4.235 -0.4092 -0.4179 -0.6119
  754MOL0     O 1656   9.666   6.971   1.418  0.0125  0.0810  0.9085
  754MOL0     C 1657   9.787   6.993   1.430  0.6845  0.0939 -0.0712
  754MOL0     O 1658   9.877   6.906   1.491 -0.2344  0.2563  0.5119
  754MOL0     C 1659   9.828   6.795   1.563  0.2429  0.1234 -0.2643
  754MOL0     C 1660   9.884   6.663   1.545 -0.1349 -0.3699  0.6529
  754MOL0     C 1661   9.848   6.554   1.619 -0.1413 -0.2731 -0.0426
  754MOL0     C 1662   9.750   6.570   1.718  0.3995  0.4014 -0.2730
  754MOL0     O 1663   9.734   6.458   1.792  0.1076 -0.2289  0.2069
  754MOL0     C 1664   9.648   6.466   1.904 -0.3636 -0.1082  1.3267
  754MOL0     C 1665   9.673   6.349   1.996 -0.1264 -0.4435 -0.1630
  754MOL0     C 1666   9.591   6.366   2.128 -0.2654  0.4824  0.6380
  754MOL0     C 1667   9.444   6.340   2.107 -0.2262  0.3006  0.0454
  754MOL0     C 1668   9.384   6.300   2.240 -0.4252 -1.3525 -0.1303
  754MOL0     C 1669   9.360   6.430   2.322 -0.9401 -0.0715  0.1501
  754MOL0     C 1670   9.294   6.399   2.461 -1.0479 -0.9781 -0.6519
  754MOL0     C 1671   9.242   6.526   2.519 -0.7139 -0.0324  0.1243
  754MOL0     N 1672   9.148   6.504   2.624  0.9504  0.5647  0.6782
  754MOL0     C 1673   9.026   6.457   2.600  0.1255  0.2239  0.0308
  754MOL0     C 1674   8.962   6.426   2.711 -0.1722 -0.0888 -0.4174
  754MOL0     C 1675   8.837   6.356   2.738  0.3033  0.0593 -0.0879
  754MOL0     C 1676   8.731   6.370   2.626 -1.0090  0.2520 -0.5194
  754MOL0     C 1677   8.594   6.310   2.667 -0.3571  0.0884  0.0379
  754MOL0     C 1678   8.478   6.337   2.558 -0.0043  0.8114 -0.1814
  754MOL0     O 1679   8.467   6.474   2.517 -0.0547  0.0292 -0.3885
  754MOL0     C 1680   8.364   6.505   2.427  0.0737 -0.9063 -0.4860
  754MOL0     C 1681   8.249   6.429   2.402 -0.2547  0.1092 -0.0603
  754MOL0     C 1682   8.150   6.468   2.305  0.5800  0.4808  0.1010
  754MOL0     C 1683   8.035   6.372   2.285 -0.1778 -0.2848 -0.1667
  754MOL0     C 1684   8.160   6.596   2.243 -0.6915  0.4137  0.5367
  754MOL0     C 1685   8.045   6.650   2.152 -0.5595 -0.2443 -0.1032
  754MOL0     O 1686   7.916   6.608   2.167  0.2279 -0.3362 -0.3521
  754MOL0     C 1687   7.822   6.701   2.136  0.5938  0.2760  0.2506
  754MOL0     C 1688   7.783   6.723   2.008  0.3716 -0.0705 -0.3760
  754MOL0     C 1689   7.695   6.827   1.973  1.1906  0.4914 -0.1557
  754MOL0     C 1690   7.642   6.908   2.069 -0.4064  0.0401 -0.4455
  754MOL0     O 1691   7.555   7.008   2.033 -0.2916 -0.1950  0.5490
  754MOL0     C 1692   7.466   7.073   2.129 -0.1101  0.2651  0.2458
  754MOL0     C 1693   7.371   7.169   2.059  0.2782 -0.2224  0.2371
  754MOL0     C 1694   7.298   7.095   1.941  0.3491 -0.5840  1.0548
  754MOL0     C 1695   7.230   6.967   1.993 -1.2134 -0.1170 -0.6367
  754MOL0     C 1696   7.128   6.913   1.897  0.2548  0.3098  0.7129
  754MOL0     C 1697   7.177   6.882   1.754  0.1215 -0.2705  0.2593
  754MOL0     C 1698   7.086   6.788   1.674 -0.6922 -0.1131  0.1335
  754MOL0     C 1699   6.995   6.861   1.568 -0.9010 -0.4132 -0.3864
  754MOL0    Cl 1700   7.085   6.962   1.448  0.1681 -0.2383 -0.1138
  754MOL0     C 1701   7.671   6.888   2.205  0.1171 -0.4971 -0.3841
  754MOL0     C 1702   7.764   6.781   2.241 -0.5148 -0.2584  0.0225
  754MOL0     O 1703   8.079   6.752   2.086 -0.4165  0.4482  0.2899
  754MOL0     C 1704   8.275   6.672   2.266 -0.0145  0.6459  0.6387
  754MOL0     C 1705   8.378   6.621   2.353 -0.3293  0.2232  0.0770
  754MOL0     N 1706   9.060   6.461   2.806  0.4500 -1.0115  0.6040
  754MOL0     N 1707   9.173   6.512   2.756 -0.3711  0.2616 -0.2032
  754MOL0     C 1708   9.695   6.700   1.743 -0.4652  0.1148 -0.1581
  754MOL0     C 1709   9.738   6.810   1.659 -0.4595  0.0719 -0.4222
  754MOL0     C 1710   9.835   7.119   1.380  0.0061 -0.5762  0.0659
  754MOL0     C 1711   9.751   7.219   1.337 -0.1231  0.0874  0.6903
  754MOL0     C 1712   9.801   7.331   1.264  0.1893 -0.9231 -0.4662
  754MOL0     C 1713   9.934   7.349   1.230  1.4174 -0.4299  0.1119
  754MOL0     O 1714   9.981   7.471   1.177  0.9184  0.2181 -0.6125
  754MOL0     C 1715  10.120   7.505   1.179 -0.0305  0.6269  0.7787
  754MOL0     C 1716  10.127   7.663   1.151  0.5605 -0.2815 -0.0403
  754MOL0     C 1717  10.074   7.758   1.256  0.6928 -0.0710 -0.3106
  754MOL0     C 1718  10.084   7.903   1.213 -0.0536  0.0169 -0.2715
  754MOL0     C 1719   9.987   7.947   1.106 -0.4835 -0.8323 -0.0283
  754MOL0     C 1720   9.912   7.985   1.022  0.9333 -0.2793  0.1847
  754MOL0     C 1721  10.024   7.249   1.268 -0.1877 -0.0073  0.2444
  754MOL0     C 1722   9.970   7.134   1.339  0.1494 -0.1838  1.3463
  754MOL0     H 1723   9.956   6.666   1.464  0.7780 -1.3661  1.3977
  754MOL0     H 1724   9.883   6.457   1.587 -3.7285 -1.5248 -0.5878
  754MOL0     H 1725   9.657   6.560   1.959 -0.8298  0.9667 -0.3730
  754MOL0     H 1726   9.543   6.469   1.871  0.4665 -2.2655 -2.0184
  754MOL0     H 1727   9.679   6.248   1.953  0.6542 -0.2313 -0.5834
  754MOL0     H 1728   9.774   6.375   2.030 -0.8809  1.6214  0.6599
  754MOL0     H 1729   9.635   6.289   2.193  1.7429 -1.6152 -2.8951
  754MOL0     H 1730   9.611   6.466   2.166  2.4133  0.3042 -0.0853
  754MOL0     H 1731   9.378   6.419   2.069 -1.4479 -1.6730 -2.2183
  754MOL0     H 1732   9.439   6.258   2.034 -0.6351 -1.7902  2.3076
  754MOL0     H 1733   9.291   6.245   2.230  0.0932 -2.1186 -0.8813
  754MOL0     H 1734   9.439   6.220   2.291 -0.4231 -1.8394 -0.8924
  754MOL0     H 1735   9.456   6.479   2.341 -0.2890 -0.8238 -1.0352
  754MOL0     H 1736   9.293   6.491   2.261 -0.5102  2.2125  1.8631
  754MOL0     H 1737   9.215   6.323   2.458 -1.8757 -0.5597  3.9894
  754MOL0     H 1738   9.372   6.348   2.518 -1.6382 -4.4237 -2.6009
  754MOL0     H 1739   9.187   6.584   2.444  0.5808  0.9561 -0.0861
  754MOL0     H 1740   9.324   6.591   2.550  0.4017 -0.0009 -2.6576
  754MOL0     H 1741   8.983   6.435   2.503  2.5270 -1.7317 -0.6931
  754MOL0     H 1742   8.849   6.253   2.773 -0.2210 -0.2225 -0.7185
  754MOL0     H 1743   8.790   6.413   2.819  1.0775  1.5599 -0.6573
  754MOL0     H 1744   8.769   6.300   2.551 -1.5347 -1.2798  0.5871
  754MOL0     H 1745   8.725   6.476   2.598 -0.6555  0.3625 -0.1823
  754MOL0     H 1746   8.553   6.339   2.764 -0.3624  0.2707 -0.0170
  754MOL0     H 1747   8.594   6.201   2.680 -0.5314  0.1291  0.3987
  754MOL0     H 1748   8.387   6.312   2.614 -0.4026  3.8014  0.6679
  754MOL0     H 1749   8.491   6.269   2.474  1.7867 -0.1336  0.7984
  754MOL0     H 1750   8.236   6.332   2.449 -1.3850  0.8299  1.1874
  754MOL0     H 1751   7.953   6.387   2.357 -0.7542 -1.5307 -0.5544
  754MOL0     H 1752   7.985   6.376   2.188 -2.5583  1.3428  1.0251
  754MOL0     H 1753   8.080   6.274   2.300 -1.5267 -1.3645 -2.7028
  754MOL0     H 1754   7.834   6.683   1.921 -0.0487 -0.5789 -0.3912
  754MOL0     H 1755   7.679   6.850   1.868  0.1153 -0.4617 -0.2195
  754MOL0     H 1756   7.398   7.008   2.184 -1.5998 -1.4287 -3.3219
  754MOL0     H 1757   7.530   7.130   2.197  0.3860  0.1789 -0.1414
  754MOL0     H 1758   7.293   7.206   2.126 -0.2161 -0.9156  0.0535
  754MOL0     H 1759   7.420   7.254   2.011  0.4036 -1.1610 -1.3607
  754MOL0     H 1760   7.356   7.062   1.855 -0.0863 -0.9642  0.9032
  754MOL0     H 1761   7.214   7.156   1.907  0.5185 -0.8263  0.1744
  754MOL0     H 1762   7.310   6.895   2.012 -1.8707 -0.5052  0.8185
  754MOL0     H 1763   7.193   6.984   2.095  0.7355 -1.5716  0.3774
  754MOL0     H 1764   7.041   6.980   1.901  0.4776  1.0804 -3.2878
  754MOL0     H 1765   7.108   6.812   1.933 -0.3051 -0.1260 -0.7558
  754MOL0     H 1766   7.192   6.973   1.694 -0.2526  0.3195  1.0338
  754MOL0     H 1767   7.279   6.842   1.760  1.4562  2.9834  2.2329
  754MOL0     H 1768   7.027   6.716   1.732  0.9276 -1.3617  0.2918
  754MOL0     H 1769   7.152   6.724   1.614 -1.4353 -2.2759  1.4991
  754MOL0     H 1770   6.918   6.923   1.617 -1.3483 -0.4867 -0.9886
  754MOL0     H 1771   6.928   6.786   1.525 -2.9167 -0.4970  2.5799
  754MOL0     H 1772   7.615   6.939   2.282  3.1052 -3.3810  4.1569
  754MOL0     H 1773   7.788   6.764   2.345 -0.5408 -0.1486  0.0469
  754MOL0     H 1774   8.290   6.760   2.203  0.5312  0.8146  0.9892
  754MOL0     H 1775   8.467   6.679   2.377  1.0309 -1.3223 -1.0091
  754MOL0     H 1776   9.632   6.715   1.830  1.0085  0.3350  0.9012
  754MOL0     H 1777   9.689   6.901   1.692 -0.4315 -0.7055  1.8952
  754MOL0     H 1778   9.643   7.211   1.341 -0.2148 -1.6293 -2.1919
  754MOL0     H 1779   9.726   7.407   1.242 -2.5183 -3.7252 -1.6634
  754MOL0     H 1780  10.156   7.487   1.281  0.3968  3.2029  1.1427
  754MOL0     H 1781  10.174   7.452   1.101  2.0394  5.8781 -1.8238
  754MOL0     H 1782  10.081   7.684   1.054 -1.8017  1.2181  1.3209
  754MOL0     H 1783  10.230   7.698   1.145  0.6480 -0.2262  1.4365
  754MOL0     H 1784  10.134   7.746   1.347  0.0789  1.4448  0.3153
  754MOL0     H 1785   9.975   7.721   1.282  0.6404 -0.7160 -1.3601
  754MOL0     H 1786  10.182   7.917   1.168 -0.6287 -0.7595 -1.8395
  754MOL0     H 1787  10.078   7.963   1.304  1.6013  0.1859 -0.2412
  754MOL0     H 1788   9.855   8.034   0.945  0.9834 -3.0926 -1.8034
  754MOL0     H 1789  10.127   7.265   1.237 -0.3796  0.4826 -0.1606
  754MOL0     H 1790  10.046   7.059   1.360  0.2843  0.3823  3.0043
  755MOL0     O 1791   3.930   7.474   3.163  0.9665  0.4681  0.4629
  755MOL0     C 1792   4.031   7.404   3.152  0.8109 -0.4192 -0.9383
  755MOL0     O 1793   4.032   7.267   3.144  0.2053  0.7420  0.4503
  755MOL0     C 1794   3.907   7.194   3.147  0.1212 -0.4397 -0.4120
  755MOL0     C 1795   3.830   7.184   3.264  0.3782 -0.5241  0.3938
  755MOL0     C 1796   3.711   7.120   3.273  1.7336  0.2997  1.0331
  755MOL0     C 1797   3.666   7.048   3.158 -0.1601  0.1358 -0.8474
  755MOL0     O 1798   3.548   6.984   3.155  0.3227 -0.0435  0.5200
  755MOL0     C 1799   3.436   7.037   3.236  1.0034 -0.2578 -0.1092
  755MOL0     C 1800   3.308   6.967   3.220  0.5017 -0.2195 -0.5339
  755MOL0     C 1801   3.230   7.008   3.084 -0.6006 -0.1325 -0.7101
  755MOL0     C 1802   3.090   6.953   3.084  0.6907 -0.5299 -0.2058
  755MOL0     C 1803   3.018   6.990   2.952 -0.6900  0.8800  0.1510
  755MOL0     C 1804   2.909   6.896   2.923  0.5111  0.7501  0.2867
  755MOL0     C 1805   2.853   6.901   2.781 -0.6460  0.2298 -0.1205
  755MOL0     C 1806   2.742   6.790   2.762 -0.4598  0.0016  0.0205
  755MOL0     N 1807   2.676   6.795   2.626 -0.1006  0.4106 -0.0156
  755MOL0     C 1808   2.746   6.783   2.504  0.4134  0.2977  0.0113
  755MOL0     C 1809   2.651   6.803   2.404  0.5215 -0.9100  0.0118
  755MOL0     C 1810   2.665   6.794   2.252  0.4130 -0.8722  0.1609
  755MOL0     C 1811   2.679   6.657   2.188 -0.3401  0.7882 -0.0426
  755MOL0     C 1812   2.550   6.562   2.197  0.3978  0.3995  0.8306
  755MOL0     C 1813   2.428   6.610   2.116  0.6098 -0.3262  0.2643
  755MOL0     O 1814   2.311   6.525   2.134  0.4227  0.0528  1.4841
  755MOL0     C 1815   2.224   6.527   2.240  0.3906 -0.6141 -0.5902
  755MOL0     C 1816   2.242   6.589   2.358  0.3249 -0.5977 -0.4921
  755MOL0     C 1817   2.146   6.591   2.457  0.3940  0.1658 -1.1000
  755MOL0     C 1818   2.190   6.652   2.582  0.5148  0.4198  0.6127
  755MOL0     C 1819   2.016   6.533   2.435 -0.5823  0.7486  0.6585
  755MOL0     C 1820   1.906   6.535   2.540  0.4536  0.5001 -1.4813
  755MOL0     O 1821   1.792   6.472   2.495  0.0833  0.6268 -0.0236
  755MOL0     C 1822   1.692   6.466   2.592  0.0426 -0.1691  0.2208
  755MOL0     C 1823   1.674   6.350   2.676 -0.0869 -0.9062 -1.0001
  755MOL0     C 1824   1.565   6.342   2.760  0.5607 -0.7923  0.6125
  755MOL0     C 1825   1.475   6.452   2.769 -1.0248 -0.5748 -0.1178
  755MOL0     O 1826   1.375   6.449   2.857  0.8242  0.3107 -0.5156
  755MOL0     C 1827   1.343   6.332   2.937 -0.0895 -0.9106  0.0819
  755MOL0     C 1828   1.201   6.360   2.989 -0.9625  0.1226  0.0123
  755MOL0     C 1829   1.134   6.239   3.047 -0.3022 -0.3012  0.4333
  755MOL0     C 1830   0.995   6.274   3.116 -0.6142  0.4850 -1.1648
  755MOL0     C 1831   0.967   6.167   3.233 -0.6642  0.8759  0.2080
  755MOL0     C 1832   0.841   6.206   3.322  0.1435 -0.7493  0.0132
  755MOL0     C 1833   0.711   6.217   3.250 -0.6708 -0.6183 -0.4387
  755MOL0     C 1834   0.666   6.094   3.172 -0.2347  0.3916  0.4330
  755MOL0    Cl 1835   0.489   6.101   3.135  0.1473  0.3446 -0.0785
  755MOL0     C 1836   1.489   6.567   2.683  0.2436  0.1343 -0.0538
  755MOL0     C 1837   1.599   6.576   2.599  0.2414  0.8458  0.3126
  755MOL0     O 1838   1.919   6.596   2.648  0.9674  0.7790 -0.4316
  755MOL0     C 1839   1.992   6.470   2.312  0.3654  0.1913  0.3566
  755MOL0     C 1840   2.095   6.467   2.220  0.6616  0.4424  0.1858
  755MOL0     N 1841   2.531   6.831   2.469  0.1915  0.6815  1.2551
  755MOL0     N 1842   2.546   6.820   2.595  0.6400 -0.4641 -0.5139
  755MOL0     C 1843   3.750   7.045   3.042 -0.0306 -0.7397 -0.4476
  755MOL0     C 1844   3.866   7.126   3.039 -0.1577  0.5007  0.6640
  755MOL0     C 1845   4.165   7.469   3.155 -0.1570  0.1007  0.9206
  755MOL0     C 1846   4.282   7.404   3.108  0.5823  0.1936 -0.6550
  755MOL0     C 1847   4.409   7.461   3.094  0.9336  0.4834 -0.0158
  755MOL0     C 1848   4.426   7.593   3.140 -0.1709 -0.3601  0.6110
  755MOL0     O 1849   4.556   7.639   3.127  0.5403 -0.0568  0.1074
  755MOL0     C 1850   4.568   7.777   3.164 -0.3551 -0.5554  0.1412
  755MOL0     C 1851   4.696   7.840   3.123 -0.1786 -0.4801  1.1346
  755MOL0     C 1852   4.819   7.794   3.190  0.0524  0.1867  0.0820
  755MOL0     C 1853   4.883   7.672   3.117 -0.2116  1.3836 -0.1643
  755MOL0     C 1854   5.010   7.648   3.185  0.3270 -0.3249  0.0718
  755MOL0     C 1855   5.115   7.605   3.232 -0.0963 -0.1521  0.8298
  755MOL0     C 1856   4.313   7.666   3.196 -0.6211  0.5739  0.9443
  755MOL0     C 1857   4.188   7.601   3.202  0.6280 -0.0295 -0.0383
  755MOL0     H 1858   3.865   7.237   3.352  2.0041 -3.7051  1.8191
  755MOL0     H 1859   3.657   7.124   3.367  3.8213  0.0405  2.2876
  755MOL0     H 1860   3.456   7.027   3.343 -0.1235  0.2862  0.1569
  755MOL0     H 1861   3.420   7.144   3.222  0.2305 -0.2550  0.7100
  755MOL0     H 1862   3.322   6.858   3.223 -1.4794 -0.5093  2.2231
  755MOL0     H 1863   3.235   7.001   3.294 -1.8431  1.1721 -3.2955
  755MOL0     H 1864   3.229   7.117   3.082  0.0980  0.1465  3.9520
  755MOL0     H 1865   3.289   6.968   3.001 -4.1036 -1.8956 -2.5859
  755MOL0     H 1866   3.093   6.845   3.094 -0.7041 -0.3873  2.9789
  755MOL0     H 1867   3.028   6.976   3.171  0.2765 -1.0075 -0.3706
  755MOL0     H 1868   2.979   7.093   2.950 -1.7788  0.5624  2.1877
  755MOL0     H 1869   3.090   6.986   2.870 -0.3497 -0.7064  0.5016
  755MOL0     H 1870   2.941   6.794   2.949  0.4891  1.0171  1.4222
  755MOL0     H 1871   2.831   6.921   2.995 -1.5957 -1.8671 -0.8834
  755MOL0     H 1872   2.810   7.001   2.775 -0.1526  0.6429  2.2027
  755MOL0     H 1873   2.933   6.890   2.708 -1.9616  2.0162 -1.9440
  755MOL0     H 1874   2.658   6.797   2.831  0.1282  0.2265  0.7217
  755MOL0     H 1875   2.796   6.698   2.787 -0.6641  0.0074  0.4755
  755MOL0     H 1876   2.850   6.756   2.490  0.4290  2.0419 -5.7540
  755MOL0     H 1877   2.582   6.843   2.201 -1.3396 -2.6695  1.1293
  755MOL0     H 1878   2.758   6.848   2.233 -1.3492  2.2737 -0.2180
  755MOL0     H 1879   2.759   6.618   2.251  0.1663  0.7871 -0.6748
  755MOL0     H 1880   2.709   6.660   2.083 -3.1629 -2.5288 -1.1501
  755MOL0     H 1881   2.542   6.553   2.305 -0.3911  1.1609  0.8453
  755MOL0     H 1882   2.570   6.460   2.163  1.4175  0.3423  1.5558
  755MOL0     H 1883   2.441   6.630   2.009 -2.1990  0.8023  0.0561
  755MOL0     H 1884   2.400   6.708   2.154  0.5431 -0.2909  0.1233
  755MOL0     H 1885   2.331   6.648   2.375 -0.2113 -0.0729  0.6433
  755MOL0     H 1886   2.155   6.756   2.580  0.9319  0.5487 -0.5895
  755MOL0     H 1887   2.149   6.596   2.667  0.1125  1.8490  1.3983
  755MOL0     H 1888   2.297   6.675   2.583  0.6699 -0.2932  0.4901
  755MOL0     H 1889   1.751   6.274   2.680  3.2312  2.1942 -0.5289
  755MOL0     H 1890   1.556   6.258   2.829 -2.7121 -2.0014 -1.0962
  755MOL0     H 1891   1.341   6.239   2.880 -1.0329 -2.3439  2.3599
  755MOL0     H 1892   1.422   6.312   3.009 -0.2944 -0.8938  0.3141
  755MOL0     H 1893   1.196   6.432   3.072 -0.3967 -1.7102  1.7236
  755MOL0     H 1894   1.146   6.402   2.905 -0.9369 -1.9204 -1.0712
  755MOL0     H 1895   1.204   6.196   3.119  2.8854  1.4534 -1.4170
  755MOL0     H 1896   1.112   6.160   2.975 -0.3066  0.4038 -0.3522
  755MOL0     H 1897   1.013   6.366   3.173  2.2707 -1.1780  0.9100
  755MOL0     H 1898   0.908   6.284   3.050 -1.7414  0.3122  0.2394
  755MOL0     H 1899   1.044   6.147   3.307 -0.6966 -0.9503 -0.2186
  755MOL0     H 1900   0.940   6.080   3.173 -0.7681  1.3673 -0.4704
  755MOL0     H 1901   0.825   6.130   3.400  3.8032 -0.0279  1.6896
  755MOL0     H 1902   0.865   6.295   3.380 -1.0927 -0.2809 -0.1676
  755MOL0     H 1903   0.714   6.289   3.168 -0.3733 -0.3322 -0.1786
  755MOL0     H 1904   0.633   6.258   3.315 -2.5100 -3.6069 -0.5836
  755MOL0     H 1905   0.675   6.000   3.227 -3.1549  0.7646  1.7682
  755MOL0     H 1906   0.714   6.076   3.076 -0.8820  0.9583 -0.0122
  755MOL0     H 1907   1.402   6.632   2.689 -1.2089 -1.7686  0.8295
  755MOL0     H 1908   1.623   6.653   2.526 -0.2112 -0.1356 -0.8993
  755MOL0     H 1909   1.892   6.432   2.296 -1.2998  4.0682  0.4859
  755MOL0     H 1910   2.077   6.415   2.127 -0.5623 -1.4644  1.4132
  755MOL0     H 1911   3.717   6.990   2.953 -2.9001  1.4952 -0.9042
  755MOL0     H 1912   3.922   7.114   2.947  0.6903 -2.2670  1.4359
  755MOL0     H 1913   4.279   7.305   3.062  4.0260 -0.2403 -0.2322
  755MOL0     H 1914   4.487   7.407   3.041  1.2354  0.3068  0.6115
  755MOL0     H 1915   4.500   7.843   3.110  0.7641  0.0111 -0.6021
  755MOL0     H 1916   4.548   7.791   3.271  1.5683  0.3112  0.4190
  755MOL0     H 1917   4.691   7.948   3.143  0.6603  0.9296 -4.5159
  755MOL0     H 1918   4.712   7.836   3.015  0.1673 -1.6836  1.2121
  755MOL0     H 1919   4.790   7.782   3.295 -1.6908 -0.2322 -0.4175
  755MOL0     H 1920   4.883   7.882   3.186  1.5518 -0.8489  0.5020
  755MOL0     H 1921   4.900   7.700   3.013  1.1760  0.3894 -0.2455
  755MOL0     H 1922   4.819   7.584   3.121  0.4271  0.7843 -2.1237
  755MOL0     H 1923   5.208   7.574   3.274  1.6094 -0.7306 -2.9510
  755MOL0     H 1924   4.314   7.769   3.233 -2.0367  0.8889  0.1800
  755MOL0     H 1925   4.101   7.654   3.240 -1.1758 -2.0897 -1.0134
  756MOL0     O 1926  10.037   6.588   5.431 -0.1550 -0.3950 -0.0627
  756MOL0     C 1927  10.055   6.707   5.449 -0.0685  0.8073 -0.5804
  756MOL0     O 1928   9.964   6.808   5.427 -0.0757  0.2209  0.4121
  756MOL0     C 1929   9.837   6.768   5.403  0.5132 -0.0575 -0.9715
  756MOL0     C 1930   9.800   6.692   5.292 -0.1349  0.4853  0.0782
  756MOL0     C 1931   9.670   6.656   5.256  0.4832  0.3037  0.4959
  756MOL0     C 1932   9.568   6.701   5.340  0.1147 -0.1059  0.0431
  756MOL0     O 1933   9.432   6.666   5.311 -0.1592 -0.0007  0.4414
  756MOL0     C 1934   9.402   6.521   5.319 -0.0190 -0.3956 -0.1747
  756MOL0     C 1935   9.264   6.489   5.252 -1.0669  0.7983 -0.2888
  756MOL0     C 1936   9.229   6.576   5.129 -0.1734 -0.9243  0.3460
  756MOL0     C 1937   9.122   6.506   5.039  0.1103  0.3379 -0.6409
  756MOL0     C 1938   8.985   6.483   5.116 -0.0109  0.2752  0.2414
  756MOL0     C 1939   8.869   6.496   5.003  0.6659  0.0288 -0.0356
  756MOL0     C 1940   8.737   6.468   5.064  0.3446  0.1600  0.3274
  756MOL0     C 1941   8.621   6.435   4.967  0.0934  0.2389  0.1682
  756MOL0     N 1942   8.490   6.405   5.036 -0.1454  0.3153 -0.1652
  756MOL0     C 1943   8.470   6.290   5.117 -0.8902 -0.6646  0.1584
  756MOL0     C 1944   8.339   6.314   5.153 -0.1083  0.4986 -0.8521
  756MOL0     C 1945   8.252   6.230   5.236  0.1301  1.2114  0.4596
  756MOL0     C 1946   8.266   6.277   5.378 -0.4985 -0.5121 -0.2141
  756MOL0     C 1947   8.215   6.187   5.489  0.3741 -0.2291  0.8205
  756MOL0     C 1948   8.075   6.131   5.459 -0.4936 -0.4075  0.2835
  756MOL0     O 1949   7.986   6.100   5.567 -0.6869 -0.0013 -0.1898
  756MOL0     C 1950   7.867   6.057   5.532  0.1428  0.2916  0.1604
  756MOL0     C 1951   7.812   6.032   5.408  0.2209 -0.8998  0.0691
  756MOL0     C 1952   7.687   5.978   5.385 -0.3768 -0.8981  0.4501
  756MOL0     C 1953   7.649   5.963   5.237  0.9272  0.1768 -0.2597
  756MOL0     C 1954   7.607   5.939   5.492  0.2355 -0.1791  1.2698
  756MOL0     C 1955   7.474   5.868   5.485  0.5027 -0.2161  0.6753
  756MOL0     O 1956   7.386   5.903   5.583 -0.5949 -0.1926  0.2313
  756MOL0     C 1957   7.261   5.842   5.563 -1.5456  0.0299  0.5259
  756MOL0     C 1958   7.218   5.744   5.661 -0.1207 -0.8034  0.1429
  756MOL0     C 1959   7.085   5.693   5.660 -1.0511 -0.0370 -0.7559
  756MOL0     C 1960   7.008   5.702   5.538  0.3064 -0.4189  0.7328
  756MOL0     O 1961   6.892   5.634   5.526 -0.1846  0.1773 -0.2669
  756MOL0     C 1962   6.859   5.579   5.398 -0.1566  0.3027 -0.4116
  756MOL0     C 1963   6.729   5.503   5.405 -0.3476 -0.1409  0.6265
  756MOL0     C 1964   6.716   5.419   5.525  0.2024  0.2423 -0.4490
  756MOL0     C 1965   6.822   5.305   5.525  0.8828 -0.7019  0.1833
  756MOL0     C 1966   6.814   5.235   5.663 -0.7531 -0.2013 -0.3679
  756MOL0     C 1967   6.907   5.114   5.671  0.1558  1.4010  0.1025
  756MOL0     C 1968   6.926   5.057   5.816 -0.3602  0.5127 -0.1251
  756MOL0     C 1969   7.003   5.167   5.902  0.5727  0.4240  0.8269
  756MOL0    Cl 1970   7.150   5.228   5.817 -0.0558  0.1469 -0.2843
  756MOL0     C 1971   7.065   5.787   5.436 -1.1012  0.9832 -0.4284
  756MOL0     C 1972   7.188   5.857   5.452 -0.1123 -0.6431 -0.2339
  756MOL0     O 1973   7.457   5.790   5.401 -0.3060  0.2158  0.5164
  756MOL0     C 1974   7.660   5.970   5.621 -0.1978  0.2508  0.4516
  756MOL0     C 1975   7.787   6.017   5.639 -0.2599 -0.7688 -0.7446
  756MOL0     N 1976   8.292   6.439   5.113 -0.1352 -0.4710  0.4649
  756MOL0     N 1977   8.384   6.492   5.039  0.3220  0.1701 -0.0584
  756MOL0     C 1978   9.601   6.788   5.453 -0.1613  0.1380  0.0042
  756MOL0     C 1979   9.737   6.821   5.479  0.5110  0.3308  0.4608
  756MOL0     C 1980  10.189   6.744   5.493 -0.9980  0.8012 -0.5469
  756MOL0     C 1981  10.270   6.658   5.576 -0.3854  0.0504  0.9877
  756MOL0     C 1982  10.383   6.714   5.639  0.1771 -0.7008  0.4662
  756MOL0     C 1983  10.421   6.847   5.611 -0.9426 -1.0099 -0.4647
  756MOL0     O 1984  10.527   6.925   5.671  0.4162  0.2147 -0.8073
  756MOL0     C 1985  10.634   6.866   5.743  0.3902 -0.1910 -0.2653
  756MOL0     C 1986  10.757   6.945   5.705  0.2340  0.9500  0.5453
  756MOL0     C 1987  10.886   6.873   5.752 -0.0032 -1.0023  0.0171
  756MOL0     C 1988  10.909   6.880   5.907 -0.5159  0.3730  0.9036
  756MOL0     C 1989  11.047   6.826   5.925  0.0995 -0.2326  0.3369
  756MOL0     C 1990  11.165   6.800   5.945 -0.0532  0.2840  0.0023
  756MOL0     C 1991  10.353   6.914   5.515 -0.1885  0.6009 -0.1740
  756MOL0     C 1992  10.235   6.871   5.461 -0.2962  0.0719 -0.0372
  756MOL0     H 1993   9.866   6.658   5.213 -0.1333  0.9859 -0.1416
  756MOL0     H 1994   9.639   6.593   5.174 -1.6166  2.4048 -0.4381
  756MOL0     H 1995   9.480   6.459   5.273  0.2077  1.2375 -2.1503
  756MOL0     H 1996   9.392   6.481   5.420 -0.0689 -0.4999 -0.2205
  756MOL0     H 1997   9.261   6.384   5.220 -1.2340  0.4744  0.7619
  756MOL0     H 1998   9.188   6.499   5.330 -1.2638  3.6644 -0.7287
  756MOL0     H 1999   9.194   6.672   5.169 -1.7687 -1.2318 -0.2277
  756MOL0     H 2000   9.309   6.605   5.060 -1.4138 -1.2280 -1.2911
  756MOL0     H 2001   9.108   6.560   4.945  0.0641  0.5073 -0.5371
  756MOL0     H 2002   9.159   6.406   5.014 -0.6533  0.5446 -2.7642
  756MOL0     H 2003   8.972   6.382   5.154 -0.9099 -0.6534 -2.3088
  756MOL0     H 2004   8.967   6.552   5.199 -1.7357 -0.5071  0.5623
  756MOL0     H 2005   8.861   6.589   4.945 -1.2229 -0.2240 -0.2339
  756MOL0     H 2006   8.883   6.414   4.932  0.6607  0.1769 -0.2092
  756MOL0     H 2007   8.743   6.386   5.136  0.5986  0.2331  0.3919
  756MOL0     H 2008   8.724   6.563   5.117 -0.2283  1.2112 -1.6104
  756MOL0     H 2009   8.660   6.351   4.909  0.0671  0.4806 -0.2060
  756MOL0     H 2010   8.588   6.517   4.903 -0.2783  0.8419  1.1077
  756MOL0     H 2011   8.542   6.209   5.121 -0.2944 -0.3124 -2.1138
  756MOL0     H 2012   8.153   6.234   5.189  0.0614 -3.5049 -0.2061
  756MOL0     H 2013   8.278   6.124   5.228  2.4709  1.8733 -1.7470
  756MOL0     H 2014   8.224   6.378   5.385  0.1050 -0.3762  2.2284
  756MOL0     H 2015   8.373   6.279   5.400 -0.3161  2.3419 -0.9364
  756MOL0     H 2016   8.225   6.237   5.585 -1.6430 -0.3959  1.1740
  756MOL0     H 2017   8.279   6.100   5.501  0.2668 -0.2979  0.8908
  756MOL0     H 2018   8.101   6.038   5.406 -0.3385 -0.7367  0.9214
  756MOL0     H 2019   8.021   6.192   5.386  3.4195  0.2250 -2.3658
  756MOL0     H 2020   7.870   6.061   5.321  2.6709 -0.9386  1.6048
  756MOL0     H 2021   7.687   5.869   5.197  1.7063  0.3962 -0.0425
  756MOL0     H 2022   7.539   5.962   5.237  0.9240 -1.3849 -0.9184
  756MOL0     H 2023   7.676   6.055   5.183  1.3059 -1.4988 -3.0984
  756MOL0     H 2024   7.291   5.727   5.739  0.2473  2.3706  0.6379
  756MOL0     H 2025   7.047   5.635   5.743 -1.0445  1.8191  0.5906
  756MOL0     H 2026   6.830   5.654   5.324  0.4234  1.9386  0.9743
  756MOL0     H 2027   6.943   5.520   5.360  1.3123  1.1692  1.3112
  756MOL0     H 2028   6.654   5.581   5.417 -0.9920 -0.6539  0.0112
  756MOL0     H 2029   6.729   5.440   5.315  0.8302 -1.8924  1.7869
  756MOL0     H 2030   6.614   5.380   5.529 -0.4746  1.8812  3.4294
  756MOL0     H 2031   6.728   5.488   5.609  0.3625  2.2429 -2.0392
  756MOL0     H 2032   6.787   5.236   5.448 -0.6361  0.7596 -0.4852
  756MOL0     H 2033   6.920   5.350   5.509  0.2124  0.7300 -0.0713
  756MOL0     H 2034   6.710   5.206   5.676 -1.1671  0.3849 -2.1103
  756MOL0     H 2035   6.832   5.305   5.746  2.4318 -2.0659  0.7176
  756MOL0     H 2036   6.871   5.025   5.618 -0.0298  0.6406  1.4575
  756MOL0     H 2037   7.008   5.132   5.634  1.2300 -1.1783  1.5366
  756MOL0     H 2038   6.978   4.961   5.807 -0.9551  0.0661  0.9922
  756MOL0     H 2039   6.832   5.035   5.868 -1.3999 -0.6263 -2.3461
  756MOL0     H 2040   7.026   5.131   6.003  0.6390 -2.4728 -0.1049
  756MOL0     H 2041   6.931   5.245   5.928  1.2178  0.3270  3.1030
  756MOL0     H 2042   7.015   5.800   5.341 -0.0043 -2.8725 -1.7088
  756MOL0     H 2043   7.211   5.922   5.368 -2.1977 -0.1469 -0.4791
  756MOL0     H 2044   7.596   5.956   5.708  0.4531 -3.0386  0.5317
  756MOL0     H 2045   7.824   6.023   5.741 -0.1500 -3.4956 -0.5648
  756MOL0     H 2046   9.517   6.834   5.502 -0.6110  0.5086 -1.0775
  756MOL0     H 2047   9.765   6.881   5.565  0.8122  3.7662 -1.8417
  756MOL0     H 2048  10.253   6.551   5.589  1.6911 -0.7631 -1.9447
  756MOL0     H 2049  10.440   6.655   5.710  0.1906 -2.3921 -0.9104
  756MOL0     H 2050  10.612   6.878   5.850  0.5104 -2.2320  0.0321
  756MOL0     H 2051  10.647   6.759   5.720 -0.0598  0.0239 -1.5797
  756MOL0     H 2052  10.757   7.051   5.732  3.5151  1.6383 -1.5487
  756MOL0     H 2053  10.765   6.938   5.596 -0.0763 -0.8009  0.5993
  756MOL0     H 2054  10.977   6.913   5.706  1.2956 -0.3587  2.9560
  756MOL0     H 2055  10.883   6.770   5.717 -2.5743 -1.2098  0.6559
  756MOL0     H 2056  10.831   6.819   5.952 -1.6749  1.4168  0.3730
  756MOL0     H 2057  10.906   6.984   5.940  0.8396  0.9854 -0.7548
  756MOL0     H 2058  11.269   6.780   5.960 -0.3725 -1.4004  0.1846
  756MOL0     H 2059  10.380   7.015   5.486 -0.2545  0.1627 -1.9045
  756MOL0     H 2060  10.179   6.924   5.384  0.5496  1.0615  0.0083
  757MOL0     O 2061   2.381   4.799   9.275  0.6973  0.1313 -0.7198
  757MOL0     C 2062   2.455   4.714   9.320  0.6471  0.6782 -0.4488
  757MOL0     O 2063   2.419   4.581   9.344 -0.1876 -0.9077 -0.0578
  757MOL0     C 2064   2.324   4.527   9.261 -0.1221  0.0219  0.4356
  757MOL0     C 2065   2.363   4.473   9.134  0.2124  0.6878  0.0313
  757MOL0     C 2066   2.263   4.416   9.044 -0.6671  0.2677  0.5301
  757MOL0     C 2067   2.133   4.399   9.087  0.6076 -0.5918 -0.0576
  757MOL0     O 2068   2.044   4.321   9.021 -0.3203 -0.1857  0.1664
  757MOL0     C 2069   2.007   4.364   8.891  0.0996  0.2854 -0.9504
  757MOL0     C 2070   1.886   4.271   8.852  0.5639 -0.2729  0.0112
  757MOL0     C 2071   1.754   4.305   8.919 -0.5928 -0.3439  0.6609
  757MOL0     C 2072   1.648   4.203   8.884 -0.8990  0.7823  0.2239
  757MOL0     C 2073   1.505   4.248   8.920 -0.4855 -0.6181  0.2693
  757MOL0     C 2074   1.412   4.121   8.926  0.5734  0.0054  0.4469
  757MOL0     C 2075   1.276   4.177   8.981  1.0450  0.2625  0.5836
  757MOL0     C 2076   1.156   4.102   8.920  0.0159 -0.3946 -0.0754
  757MOL0     N 2077   1.025   4.133   8.986 -0.2572  0.3389 -0.3477
  757MOL0     C 2078   0.978   4.063   9.094  0.2075 -0.0584 -0.1734
  757MOL0     C 2079   0.870   4.129   9.129 -0.2599  0.0978  0.6672
  757MOL0     C 2080   0.773   4.085   9.231 -0.0719 -0.8806  0.8154
  757MOL0     C 2081   0.815   4.107   9.370 -0.6239 -0.2850  0.4119
  757MOL0     C 2082   0.803   4.250   9.409  0.0217 -0.7113  0.7104
  757MOL0     C 2083   0.657   4.297   9.446 -0.7572  0.7534  0.1011
  757MOL0     O 2084   0.614   4.278   9.583 -0.5569  0.5277 -0.5835
  757MOL0     C 2085   0.479   4.274   9.595 -0.1327  0.1813  0.3237
  757MOL0     C 2086   0.413   4.190   9.686 -0.1289 -0.3281  0.6251
  757MOL0     C 2087   0.274   4.183   9.709  0.4670  0.8784  0.2339
  757MOL0     C 2088   0.226   4.086   9.812 -0.6294  0.1290  0.1249
  757MOL0     C 2089   0.191   4.268   9.638  0.9274 -0.3084 -0.5069
  757MOL0     C 2090   0.043   4.270   9.648 -0.1079  0.0809 -0.0724
  757MOL0     O 2091   0.013   4.348   9.748  0.4570  0.2150  0.3488
  757MOL0     C 2092  -0.116   4.401   9.742 -0.2513  0.0495 -0.0731
  757MOL0     C 2093  -0.241   4.331   9.720 -0.5327 -0.4076 -0.1602
  757MOL0     C 2094  -0.361   4.394   9.720 -0.2333  0.1964  0.4650
  757MOL0     C 2095  -0.377   4.539   9.746  0.0248  0.0813  0.6301
  757MOL0     O 2096  -0.499   4.594   9.733 -0.6217 -0.4143  0.1655
  757MOL0     C 2097  -0.522   4.728   9.766 -0.5928 -0.3342 -0.0577
  757MOL0     C 2098  -0.671   4.745   9.769  0.6511 -0.1566 -0.4134
  757MOL0     C 2099  -0.747   4.724   9.909 -0.2364 -0.3964 -0.2022
  757MOL0     C 2100  -0.747   4.864   9.973  0.0184 -0.3260 -0.5346
  757MOL0     C 2101  -0.831   4.846  10.103 -0.3078  0.3832 -0.1379
  757MOL0     C 2102  -0.809   4.965  10.180  0.3251  0.4847  0.2471
  757MOL0     C 2103  -0.881   4.972  10.318  0.3010 -0.7713  0.3581
  757MOL0     C 2104  -0.843   4.857  10.410 -0.0006 -0.7571  0.4044
  757MOL0    Cl 2105  -0.943   4.871  10.553  0.1943 -0.2068 -0.0595
  757MOL0     C 2106  -0.253   4.607   9.772  0.0996 -0.7214  0.3146
  757MOL0     C 2107  -0.130   4.538   9.775 -0.7172  0.0364  0.3743
  757MOL0     O 2108  -0.033   4.207   9.573 -0.0421  0.0471 -0.8195
  757MOL0     C 2109   0.252   4.354   9.545  0.0402 -0.5198  0.3783
  757MOL0     C 2110   0.389   4.356   9.523  0.2925  0.8572 -0.8986
  757MOL0     N 2111   0.859   4.240   9.047  0.1045 -0.0300  0.6361
  757MOL0     N 2112   0.954   4.240   8.959  0.0297 -0.0912 -0.1957
  757MOL0     C 2113   2.101   4.449   9.212 -0.8243 -0.1657  0.3441
  757MOL0     C 2114   2.189   4.515   9.301 -0.4780  1.0418  0.6853
  757MOL0     C 2115   2.582   4.745   9.371  0.5757  0.2168 -0.1864
  757MOL0     C 2116   2.610   4.878   9.398  0.3987 -0.4949  0.0934
  757MOL0     C 2117   2.730   4.916   9.461  0.0569 -0.4862 -0.7481
  757MOL0     C 2118   2.829   4.828   9.501  0.3334  0.1641 -0.5525
  757MOL0     O 2119   2.936   4.868   9.567  0.2722 -0.0909  0.2266
  757MOL0     C 2120   3.030   4.773   9.611 -0.7203 -0.8196 -0.0226
  757MOL0     C 2121   3.154   4.847   9.641  0.3254  0.7779 -0.9916
  757MOL0     C 2122   3.267   4.746   9.658  0.7527  0.2753 -0.3589
  757MOL0     C 2123   3.392   4.810   9.717 -0.1817 -0.1833 -0.3461
  757MOL0     C 2124   3.383   4.809   9.861  0.1530  0.1189  0.3445
  757MOL0     C 2125   3.373   4.812   9.979  0.7754  0.8179 -0.6713
  757MOL0     C 2126   2.798   4.691   9.476 -0.0049 -1.1446 -0.1292
  757MOL0     C 2127   2.680   4.655   9.419 -0.3335  0.5833 -1.0936
  757MOL0     H 2128   2.467   4.460   9.108  0.0136  0.4393 -0.6450
  757MOL0     H 2129   2.311   4.366   8.961  2.2399  0.1592  2.1632
  757MOL0     H 2130   1.966   4.465   8.880 -0.4847  0.0685 -0.8021
  757MOL0     H 2131   2.083   4.367   8.812 -1.9747 -0.1174 -3.0837
  757MOL0     H 2132   1.862   4.284   8.746 -3.8283  2.3336  1.0957
  757MOL0     H 2133   1.907   4.165   8.863 -1.0103 -0.8131 -1.7250
  757MOL0     H 2134   1.761   4.286   9.026 -1.1921 -1.3609  0.5347
  757MOL0     H 2135   1.735   4.411   8.897 -2.0112 -0.6516  0.3306
  757MOL0     H 2136   1.659   4.162   8.783  1.1054 -0.5060  0.8985
  757MOL0     H 2137   1.673   4.122   8.952 -2.0497 -0.0553 -0.3299
  757MOL0     H 2138   1.510   4.292   9.020 -0.4215  1.9243 -0.7888
  757MOL0     H 2139   1.464   4.324   8.853 -1.7067 -0.8289  0.7473
  757MOL0     H 2140   1.393   4.082   8.825  1.3082  0.3301  0.1781
  757MOL0     H 2141   1.466   4.051   8.990  4.1360  3.8093  2.0315
  757MOL0     H 2142   1.260   4.164   9.089 -3.6195  2.5375  0.4171
  757MOL0     H 2143   1.271   4.284   8.957 -2.3846  0.6072  2.1616
  757MOL0     H 2144   1.165   3.994   8.930  1.7149 -0.5335 -2.4969
  757MOL0     H 2145   1.152   4.112   8.811 -1.2702  0.9077  0.0543
  757MOL0     H 2146   1.026   3.982   9.148  0.3801  1.9180  2.8517
  757MOL0     H 2147   0.674   4.129   9.218  1.5611  3.0368  0.2324
  757MOL0     H 2148   0.766   3.976   9.230  1.8469 -1.1154  3.4601
  757MOL0     H 2149   0.918   4.080   9.395 -0.8818 -0.7709  0.9808
  757MOL0     H 2150   0.750   4.051   9.439  0.0205 -2.0474 -0.3641
  757MOL0     H 2151   0.846   4.327   9.344 -1.3947  1.7576  2.5287
  757MOL0     H 2152   0.859   4.255   9.503  0.1907  0.3781  0.5601
  757MOL0     H 2153   0.579   4.248   9.386 -2.2687 -0.8359  3.1430
  757MOL0     H 2154   0.659   4.403   9.418  1.7628  0.6887 -0.2183
  757MOL0     H 2155   0.481   4.124   9.739  2.0289  1.8779  0.7546
  757MOL0     H 2156   0.287   4.098   9.902 -2.1727 -0.5445  1.3133
  757MOL0     H 2157   0.121   4.101   9.840 -0.5731  2.1641 -0.5531
  757MOL0     H 2158   0.242   3.986   9.771 -2.2535 -0.5596  1.0784
  757MOL0     H 2159  -0.242   4.223   9.713  1.7308 -0.3681 -3.0440
  757MOL0     H 2160  -0.453   4.335   9.713 -0.2449  0.1552  0.9037
  757MOL0     H 2161  -0.474   4.750   9.862 -1.6836  1.4881  0.1137
  757MOL0     H 2162  -0.473   4.781   9.683  0.7606 -1.9743 -0.3572
  757MOL0     H 2163  -0.708   4.834   9.717 -0.1240  1.7472  3.0815
  757MOL0     H 2164  -0.713   4.678   9.694  0.4840 -0.0395 -0.4241
  757MOL0     H 2165  -0.702   4.650   9.976  2.9454  0.3651 -1.3213
  757MOL0     H 2166  -0.849   4.692   9.886 -0.8824 -0.6184  2.5531
  757MOL0     H 2167  -0.645   4.896   9.995 -0.4445  0.5362  0.4702
  757MOL0     H 2168  -0.792   4.944   9.912 -1.8434  1.6958  3.1232
  757MOL0     H 2169  -0.791   4.758  10.155  2.1819  0.5676 -1.6059
  757MOL0     H 2170  -0.940   4.844  10.089 -0.1650 -1.2664 -1.3518
  757MOL0     H 2171  -0.703   4.959  10.207  1.2099  1.0597 -2.7353
  757MOL0     H 2172  -0.818   5.057  10.122  0.3281  2.5288  3.2535
  757MOL0     H 2173  -0.988   4.985  10.303  0.7992 -0.3907 -3.9399
  757MOL0     H 2174  -0.850   5.067  10.363  0.1934 -1.5239  2.0936
  757MOL0     H 2175  -0.743   4.861  10.453 -0.0798 -3.0796  0.9640
  757MOL0     H 2176  -0.862   4.758  10.367 -0.2044 -0.6908  0.3371
  757MOL0     H 2177  -0.257   4.708   9.810  0.9633 -1.6345  3.0923
  757MOL0     H 2178  -0.037   4.588   9.799 -0.9068  0.3614  0.4466
  757MOL0     H 2179   0.187   4.421   9.489 -0.4568 -0.5020  0.9743
  757MOL0     H 2180   0.422   4.418   9.440  3.7386 -1.3321 -1.3764
  757MOL0     H 2181   2.011   4.417   9.264 -0.6634  0.2723  0.9060
  757MOL0     H 2182   2.151   4.551   9.396 -2.1443 -1.4549  1.0551
  757MOL0     H 2183   2.549   4.961   9.366  0.4131 -0.0351  1.1975
  757MOL0     H 2184   2.757   5.017   9.489  1.7387 -1.1577  0.1910
  757MOL0     H 2185   2.994   4.723   9.701  1.9284 -3.2614 -0.1845
  757MOL0     H 2186   3.040   4.697   9.533 -2.3767  0.7431 -1.8804
  757MOL0     H 2187   3.131   4.900   9.734 -0.2610 -0.6201 -0.3100
  757MOL0     H 2188   3.177   4.913   9.557  2.5344  0.5961 -0.5987
  757MOL0     H 2189   3.289   4.705   9.559  0.5435 -1.3303  0.2215
  757MOL0     H 2190   3.238   4.657   9.715 -0.9695  1.5272  0.8306
  757MOL0     H 2191   3.393   4.913   9.680  2.1495 -0.3788 -0.9911
  757MOL0     H 2192   3.477   4.750   9.683 -0.1639 -1.5095  1.8664
  757MOL0     H 2193   3.354   4.835  10.081 -2.9935  1.7641 -1.4324
  757MOL0     H 2194   2.854   4.600   9.495  3.1614 -0.0793 -3.1908
  757MOL0     H 2195   2.663   4.547   9.418 -3.3060  0.9215 -3.8538
  758MOL0     O 2196   6.955  10.678   5.301  0.6814 -0.1561  0.2502
  758MOL0     C 2197   7.045  10.661   5.378 -1.2163 -0.1457  0.3970
  758MOL0     O 2198   7.037  10.641   5.513 -0.0638  0.1604 -1.2778
  758MOL0     C 2199   6.920  10.621   5.582  0.0119  0.5621  0.4910
  758MOL0     C 2200   6.808  10.563   5.531  0.4669  0.1631 -0.3439
  758MOL0     C 2201   6.696  10.535   5.613 -0.6334  0.1245  0.2644
  758MOL0     C 2202   6.699  10.574   5.747 -0.0425 -0.1264 -1.1410
  758MOL0     O 2203   6.583  10.541   5.822  0.2875 -0.1115  0.2993
  758MOL0     C 2204   6.577  10.559   5.962 -0.2504 -0.0732  0.4096
  758MOL0     C 2205   6.444  10.491   5.998 -0.6728  0.0229 -0.8846
  758MOL0     C 2206   6.443  10.485   6.150  0.6094  0.3483  0.2247
  758MOL0     C 2207   6.311  10.434   6.206  0.3348 -0.1656 -0.1378
  758MOL0     C 2208   6.293  10.454   6.363 -0.1885 -0.2198  0.2364
  758MOL0     C 2209   6.389  10.378   6.455 -0.5852 -0.9557  0.5265
  758MOL0     C 2210   6.375  10.424   6.594 -0.7043 -0.6984  0.1231
  758MOL0     C 2211   6.442  10.328   6.696 -0.0878  0.7998  0.5792
  758MOL0     N 2212   6.591  10.315   6.673  0.6438  0.3758 -0.3603
  758MOL0     C 2213   6.692  10.408   6.680  0.2036 -0.2106  0.6335
  758MOL0     C 2214   6.811  10.337   6.674 -0.3968 -0.7570 -0.0097
  758MOL0     C 2215   6.946  10.387   6.658  0.5430  0.4167  0.3771
  758MOL0     C 2216   7.044  10.292   6.730  0.1253 -0.1323 -0.5251
  758MOL0     C 2217   7.189  10.309   6.690  0.2503 -0.3495 -0.1330
  758MOL0     C 2218   7.296  10.241   6.769  0.0359  0.2200  0.4133
  758MOL0     O 2219   7.300  10.300   6.901 -0.2534  1.0862  0.3895
  758MOL0     C 2220   7.378  10.223   6.983 -0.7667 -0.1541  0.4359
  758MOL0     C 2221   7.344  10.203   7.126  0.4611 -0.9253  0.5153
  758MOL0     C 2222   7.437  10.139   7.214 -0.3168 -0.2160 -0.3585
  758MOL0     C 2223   7.391  10.126   7.350 -0.8342 -0.2793  0.2356
  758MOL0     C 2224   7.557  10.082   7.163  0.5040  0.7900  0.5652
  758MOL0     C 2225   7.654   9.997   7.236 -0.8303  0.2966 -0.1983
  758MOL0     O 2226   7.739   9.923   7.155  1.1096  0.3691 -0.1278
  758MOL0     C 2227   7.840   9.869   7.228  0.2405  1.1333 -0.2649
  758MOL0     C 2228   7.859   9.728   7.227  0.8139 -0.7900 -0.5121
  758MOL0     C 2229   7.982   9.675   7.278  0.8295  0.6505  0.2406
  758MOL0     C 2230   8.073   9.759   7.353  0.4072  0.0830  0.3367
  758MOL0     O 2231   8.178   9.690   7.403  0.8958 -0.0296 -0.1135
  758MOL0     C 2232   8.294   9.772   7.422 -0.1067  0.9287  0.0248
  758MOL0     C 2233   8.400   9.665   7.452 -0.0554 -0.2061 -0.3642
  758MOL0     C 2234   8.522   9.755   7.505 -0.3421 -0.0124 -0.5887
  758MOL0     C 2235   8.663   9.687   7.504 -0.3806 -0.4298 -0.2239
  758MOL0     C 2236   8.768   9.747   7.595 -0.0058 -0.1721  0.2165
  758MOL0     C 2237   8.893   9.663   7.559 -0.7856 -0.7241  0.2616
  758MOL0     C 2238   8.994   9.662   7.679  0.2349 -0.2696 -1.5333
  758MOL0     C 2239   9.133   9.634   7.635 -0.2013  0.2182  1.1953
  758MOL0    Cl 2240   9.238   9.643   7.775  0.1206  0.1557 -0.2385
  758MOL0     C 2241   8.054   9.887   7.360  0.9374  0.8980 -0.1133
  758MOL0     C 2242   7.938   9.946   7.299  0.1155 -0.6398 -0.2333
  758MOL0     O 2243   7.663  10.010   7.361  0.2484  0.0346  0.4911
  758MOL0     C 2244   7.585  10.103   7.027  0.4000  0.4961 -0.3979
  758MOL0     C 2245   7.500  10.166   6.940 -0.9113  0.1836  0.3967
  758MOL0     N 2246   6.777  10.199   6.658 -0.1346 -0.0814  0.6372
  758MOL0     N 2247   6.650  10.194   6.654  0.7394  0.4924 -0.6916
  758MOL0     C 2248   6.804  10.651   5.799  0.6870  0.2887 -0.0831
  758MOL0     C 2249   6.914  10.670   5.712  0.0398  0.4413  0.5706
  758MOL0     C 2250   7.178  10.686   5.328  0.6322 -0.6263  0.4235
  758MOL0     C 2251   7.296  10.681   5.411 -0.6646  0.0594  0.8660
  758MOL0     C 2252   7.425  10.690   5.347  0.5549  0.5869  0.6346
  758MOL0     C 2253   7.439  10.710   5.212  0.6133  0.0379 -0.6946
  758MOL0     O 2254   7.569  10.724   5.179  0.5020  0.0919  0.1192
  758MOL0     C 2255   7.605  10.763   5.047 -0.6703  0.5850  0.8071
  758MOL0     C 2256   7.758  10.806   5.045  0.1158 -0.3537 -0.0159
  758MOL0     C 2257   7.782  10.950   5.092  0.1467 -0.4590  0.3116
  758MOL0     C 2258   7.732  10.989   5.233 -0.4810  0.3953 -0.0152
  758MOL0     C 2259   7.751  11.124   5.282  0.3084  0.8345 -0.5716
  758MOL0     C 2260   7.773  11.240   5.313  0.2229  1.0707 -0.1213
  758MOL0     C 2261   7.331  10.720   5.129 -0.3723  0.3207 -1.0065
  758MOL0     C 2262   7.207  10.702   5.187  0.3135  0.7329  0.1860
  758MOL0     H 2263   6.810  10.545   5.424  0.5933  3.6698 -1.0473
  758MOL0     H 2264   6.606  10.493   5.570 -2.3238  3.2950  0.3490
  758MOL0     H 2265   6.660  10.511   6.014  0.5187  1.9599  1.1285
  758MOL0     H 2266   6.583  10.663   5.994  0.1956  0.0636 -0.1026
  758MOL0     H 2267   6.352  10.543   5.969 -2.0035  0.0621  2.8201
  758MOL0     H 2268   6.436  10.390   5.958 -1.5325  0.3256 -1.5228
  758MOL0     H 2269   6.524  10.425   6.192 -0.0668 -0.8063 -0.0488
  758MOL0     H 2270   6.447  10.590   6.180  0.9331  0.4422 -0.1382
  758MOL0     H 2271   6.234  10.500   6.166 -0.1805 -1.2580 -1.0014
  758MOL0     H 2272   6.286  10.330   6.184 -0.1020 -0.0009 -0.4158
  758MOL0     H 2273   6.296  10.563   6.374 -1.4696 -0.1472  0.0254
  758MOL0     H 2274   6.194  10.409   6.373 -0.8326  0.3490 -2.7003
  758MOL0     H 2275   6.364  10.273   6.441  0.7464 -0.9829 -2.6131
  758MOL0     H 2276   6.491  10.378   6.415 -0.2671 -3.0350  1.2101
  758MOL0     H 2277   6.426  10.520   6.602 -4.6427  1.4544  2.6734
  758MOL0     H 2278   6.270  10.433   6.622  0.0201  1.5832  2.5381
  758MOL0     H 2279   6.402  10.230   6.670  1.9330  0.5543 -2.0140
  758MOL0     H 2280   6.423  10.369   6.796  0.5821  1.4095  0.4646
  758MOL0     H 2281   6.692  10.515   6.701 -0.0297  0.1399 -0.9930
  758MOL0     H 2282   6.986  10.381   6.557  0.3723 -4.4312  0.3215
  758MOL0     H 2283   6.948  10.489   6.696  1.1525 -0.6973  3.7112
  758MOL0     H 2284   7.018  10.189   6.706 -1.9998  0.7384 -2.3107
  758MOL0     H 2285   7.044  10.316   6.837  3.5431  2.9399 -1.0118
  758MOL0     H 2286   7.216  10.415   6.699 -0.3610 -0.2918  1.2422
  758MOL0     H 2287   7.195  10.278   6.585 -2.6076  0.3756 -0.5958
  758MOL0     H 2288   7.392  10.260   6.719 -1.7015 -0.4673 -3.5959
  758MOL0     H 2289   7.276  10.134   6.772  0.9219  0.0379  0.1978
  758MOL0     H 2290   7.245  10.226   7.165  0.8054  0.9938  0.3562
  758MOL0     H 2291   7.367  10.020   7.358  1.1868 -0.6440  3.3048
  758MOL0     H 2292   7.467  10.155   7.423 -1.7541 -2.4011  2.1500
  758MOL0     H 2293   7.301  10.185   7.372 -2.0476 -0.9087 -2.5394
  758MOL0     H 2294   7.785   9.664   7.181  2.0539 -2.4978 -0.2253
  758MOL0     H 2295   8.012   9.571   7.265  3.0953  1.2604  0.2073
  758MOL0     H 2296   8.314   9.824   7.327 -1.2537 -2.1334 -2.0626
  758MOL0     H 2297   8.282   9.842   7.505  1.2279  2.1876 -0.7934
  758MOL0     H 2298   8.371   9.588   7.524 -1.5389 -1.0003 -1.7684
  758MOL0     H 2299   8.444   9.626   7.360  0.6228  0.4617 -0.3374
  758MOL0     H 2300   8.501   9.762   7.612  1.9977 -0.7040 -0.0273
  758MOL0     H 2301   8.529   9.854   7.460  0.7304  1.5686  2.7179
  758MOL0     H 2302   8.648   9.583   7.532 -3.0968 -0.0299  0.1311
  758MOL0     H 2303   8.708   9.691   7.404 -1.2064  1.0872 -0.5743
  758MOL0     H 2304   8.750   9.729   7.701 -2.6151  0.2537 -0.0952
  758MOL0     H 2305   8.793   9.853   7.583  5.7431 -0.9678  2.1242
  758MOL0     H 2306   8.866   9.560   7.533 -0.2587 -0.6427 -0.6375
  758MOL0     H 2307   8.939   9.699   7.467  1.9628  1.3201  2.2487
  758MOL0     H 2308   8.970   9.582   7.750 -0.5207 -0.4415 -1.9695
  758MOL0     H 2309   8.995   9.758   7.731 -0.2973 -1.8363  1.5640
  758MOL0     H 2310   9.174   9.709   7.566  0.4991 -0.5547  0.7584
  758MOL0     H 2311   9.145   9.533   7.593 -0.4731 -0.8061  3.4718
  758MOL0     H 2312   8.114   9.950   7.424  2.8499 -0.9283  0.0076
  758MOL0     H 2313   7.916  10.052   7.308 -1.0036 -0.9289  0.5624
  758MOL0     H 2314   7.682  10.075   6.988  0.1300 -1.0892 -0.0087
  758MOL0     H 2315   7.531  10.186   6.838 -1.6774  0.1863  0.1523
  758MOL0     H 2316   6.801  10.690   5.901 -3.4093 -1.9984  0.9100
  758MOL0     H 2317   7.000  10.729   5.740 -1.0420  1.5890  1.5850
  758MOL0     H 2318   7.278  10.659   5.515 -3.0430 -0.8482  0.3295
  758MOL0     H 2319   7.516  10.683   5.406  2.2840  0.2116 -1.9278
  758MOL0     H 2320   7.598  10.669   4.991  1.9297  0.7214  0.1248
  758MOL0     H 2321   7.547  10.848   5.011 -1.6843 -1.0355 -1.6067
  758MOL0     H 2322   7.800  10.802   4.944  2.6798 -0.6261  0.9843
  758MOL0     H 2323   7.812  10.733   5.106  0.6809  0.9200  1.0437
  758MOL0     H 2324   7.734  11.014   5.017 -0.6412  0.3391  1.4550
  758MOL0     H 2325   7.890  10.965   5.092 -0.0248  0.9907 -0.5760
  758MOL0     H 2326   7.780  10.919   5.303 -0.5723  1.0023  0.6649
  758MOL0     H 2327   7.625  10.968   5.230 -0.0634 -2.0372  0.0564
  758MOL0     H 2328   7.769  11.341   5.348 -0.9413  2.9293 -4.8088
  758MOL0     H 2329   7.344  10.725   5.021 -2.0557 -1.2590 -1.3339
  758MOL0     H 2330   7.126  10.702   5.114  0.2723 -1.9788  0.1146
  759MOL0     O 2331   3.310   4.788   9.337  0.1106 -0.8352 -0.0535
  759MOL0     C 2332   3.351   4.698   9.262 -0.6626 -1.1060 -0.5254
  759MOL0     O 2333   3.292   4.650   9.150  0.0230 -0.1701 -0.3448
  759MOL0     C 2334   3.161   4.676   9.117 -1.0568 -0.0411 -0.9403
  759MOL0     C 2335   3.053   4.676   9.204  0.1858 -0.0743 -0.4977
  759MOL0     C 2336   2.932   4.729   9.162 -0.5734  0.7470  0.3383
  759MOL0     C 2337   2.914   4.759   9.023  0.0938  0.5527  0.0698
  759MOL0     O 2338   2.793   4.791   8.963 -0.2911  0.9547 -0.3694
  759MOL0     C 2339   2.662   4.774   9.020 -0.2071  0.1867 -0.0120
  759MOL0     C 2340   2.554   4.802   8.913 -0.2572 -0.0532  0.6511
  759MOL0     C 2341   2.413   4.751   8.941 -0.2261  0.0628  0.3864
  759MOL0     C 2342   2.300   4.794   8.837  0.2077  0.5082  0.7922
  759MOL0     C 2343   2.157   4.744   8.869  0.3918  1.5296 -0.6112
  759MOL0     C 2344   2.088   4.823   8.982 -0.0860 -0.0659 -0.0628
  759MOL0     C 2345   1.965   4.766   9.032 -0.2551  0.2402 -0.3833
  759MOL0     C 2346   1.861   4.754   8.925 -0.3453  0.2437 -0.8735
  759MOL0     N 2347   1.728   4.737   8.982  0.2187 -0.7517 -1.0632
  759MOL0     C 2348   1.686   4.646   9.076 -1.0586  0.0206  0.1277
  759MOL0     C 2349   1.552   4.668   9.099  0.2561  0.0705 -0.2731
  759MOL0     C 2350   1.458   4.585   9.192  0.5988  0.5272 -0.0184
  759MOL0     C 2351   1.319   4.575   9.119 -0.0315  0.4790 -0.0259
  759MOL0     C 2352   1.228   4.481   9.204  0.5263  0.4774 -0.7596
  759MOL0     C 2353   1.087   4.476   9.146 -0.5384 -0.6922  0.0628
  759MOL0     O 2354   1.025   4.607   9.176  0.0814 -0.5611  0.0198
  759MOL0     C 2355   0.888   4.610   9.204 -0.4283 -0.2476 -0.2971
  759MOL0     C 2356   0.802   4.563   9.105 -0.1926 -0.2134 -0.2010
  759MOL0     C 2357   0.658   4.566   9.116 -1.3739 -0.9734 -0.2013
  759MOL0     C 2358   0.588   4.549   8.980  0.3577  0.3428  0.4274
  759MOL0     C 2359   0.608   4.628   9.231 -0.7901 -0.1475 -0.0053
  759MOL0     C 2360   0.463   4.631   9.260 -0.5635  0.1495  0.3677
  759MOL0     O 2361   0.382   4.545   9.184 -0.0183 -1.6121  0.3052
  759MOL0     C 2362   0.245   4.564   9.181 -0.3753  0.3417  0.2622
  759MOL0     C 2363   0.192   4.676   9.135 -0.0754 -0.2220 -0.5506
  759MOL0     C 2364   0.058   4.704   9.129 -0.2249  0.1810 -0.0632
  759MOL0     C 2365  -0.027   4.603   9.174  1.0033  0.1671 -0.2542
  759MOL0     O 2366  -0.164   4.620   9.165 -0.0628  0.6253 -1.2317
  759MOL0     C 2367  -0.233   4.640   9.036 -0.1331  0.0351  0.7151
  759MOL0     C 2368  -0.379   4.621   9.061  0.1771  0.2696  0.2632
  759MOL0     C 2369  -0.415   4.493   9.139 -0.0405  0.1698 -0.8317
  759MOL0     C 2370  -0.567   4.456   9.128 -0.3601 -0.1229 -0.0921
  759MOL0     C 2371  -0.597   4.316   9.160 -0.0882 -0.3686 -0.5806
  759MOL0     C 2372  -0.562   4.300   9.312  0.7484  0.1025  0.4742
  759MOL0     C 2373  -0.629   4.183   9.376 -0.6311 -0.8926  0.1254
  759MOL0     C 2374  -0.579   4.168   9.516 -0.2242  0.4115 -0.8934
  759MOL0    Cl 2375  -0.641   4.009   9.586  0.3038 -0.2201  0.3105
  759MOL0     C 2376   0.020   4.481   9.209 -0.3057 -0.5382 -0.7449
  759MOL0     C 2377   0.158   4.468   9.222 -0.8561 -0.2112 -0.0537
  759MOL0     O 2378   0.419   4.708   9.353 -0.1903 -0.3065  0.1403
  759MOL0     C 2379   0.700   4.679   9.333  0.4006  0.1702 -0.1825
  759MOL0     C 2380   0.838   4.675   9.321 -0.1839 -0.6549 -1.1414
  759MOL0     N 2381   1.526   4.793   9.042  0.1402  0.3563 -0.6198
  759MOL0     N 2382   1.629   4.829   8.974  0.0006 -0.4996 -0.1409
  759MOL0     C 2383   3.016   4.739   8.931  0.1010 -0.0444  0.1696
  759MOL0     C 2384   3.141   4.701   8.978 -0.4617 -0.5779 -0.6185
  759MOL0     C 2385   3.490   4.652   9.289  0.1220  0.5049 -0.4108
  759MOL0     C 2386   3.580   4.727   9.376  0.5460  1.0134  0.1401
  759MOL0     C 2387   3.712   4.672   9.389 -0.2058 -0.5059 -1.3471
  759MOL0     C 2388   3.753   4.554   9.324  0.4042 -0.6732 -0.0236
  759MOL0     O 2389   3.881   4.494   9.341  0.4037 -0.3853  0.2923
  759MOL0     C 2390   3.963   4.528   9.449 -0.2716 -0.2269 -1.2660
  759MOL0     C 2391   3.899   4.510   9.591  0.5431 -0.2345  0.1236
  759MOL0     C 2392   3.829   4.374   9.607 -0.2064 -0.0822  0.6081
  759MOL0     C 2393   3.803   4.336   9.757  0.2676  0.1886 -0.3281
  759MOL0     C 2394   3.926   4.302   9.829  0.6303  0.3626 -0.2581
  759MOL0     C 2395   4.030   4.281   9.891  0.5894 -0.8754  0.6814
  759MOL0     C 2396   3.670   4.498   9.221  1.0242  0.0803  1.1576
  759MOL0     C 2397   3.541   4.549   9.207 -0.4949  1.4922  0.3466
  759MOL0     H 2398   3.080   4.661   9.308  3.2710  1.3850 -0.9599
  759MOL0     H 2399   2.850   4.759   9.225 -0.0643  2.3433  0.2764
  759MOL0     H 2400   2.644   4.673   9.059  0.2164  0.0017 -0.2944
  759MOL0     H 2401   2.651   4.847   9.101 -2.0337  0.7918 -0.7416
  759MOL0     H 2402   2.552   4.910   8.895  0.4069  0.1194  1.5059
  759MOL0     H 2403   2.589   4.756   8.820  0.5931  2.1343 -0.1770
  759MOL0     H 2404   2.418   4.641   8.947  0.5755 -0.2244 -3.1797
  759MOL0     H 2405   2.376   4.777   9.040 -0.2038  0.4576  0.2939
  759MOL0     H 2406   2.309   4.903   8.834 -0.2790  0.6062  2.0728
  759MOL0     H 2407   2.331   4.758   8.739  2.0066  0.8653  1.1843
  759MOL0     H 2408   2.089   4.738   8.784 -0.4868 -2.1857  0.1611
  759MOL0     H 2409   2.176   4.643   8.906 -1.2773  0.2186 -3.0988
  759MOL0     H 2410   2.155   4.839   9.066  0.8428 -2.5117 -0.2508
  759MOL0     H 2411   2.062   4.926   8.954  0.1157  0.6072  2.0439
  759MOL0     H 2412   1.984   4.671   9.081  0.3448  0.6097  0.1156
  759MOL0     H 2413   1.923   4.826   9.113  0.7835 -1.3508  1.4030
  759MOL0     H 2414   1.887   4.677   8.852 -0.2143  0.1344 -0.7152
  759MOL0     H 2415   1.860   4.855   8.885  0.3950  0.8392  0.5497
  759MOL0     H 2416   1.745   4.561   9.109 -0.6408 -0.6527 -2.1465
  759MOL0     H 2417   1.488   4.482   9.214  1.7294  1.0014  0.7394
  759MOL0     H 2418   1.446   4.652   9.277 -0.1770  1.1449 -0.5929
  759MOL0     H 2419   1.320   4.525   9.022 -2.1583 -0.9432  0.6064
  759MOL0     H 2420   1.279   4.677   9.120 -1.1804  0.0473  0.1373
  759MOL0     H 2421   1.215   4.519   9.306 -1.9464 -4.2559  0.9731
  759MOL0     H 2422   1.254   4.375   9.210  1.2841  0.6776 -0.4561
  759MOL0     H 2423   1.025   4.396   9.188 -2.8911 -0.5709 -2.8070
  759MOL0     H 2424   1.080   4.452   9.039 -0.3398  0.6478 -0.2704
  759MOL0     H 2425   0.850   4.523   9.016 -1.1115 -2.4189  0.2313
  759MOL0     H 2426   0.517   4.632   8.978  1.7368  1.8340  4.1710
  759MOL0     H 2427   0.652   4.561   8.893  2.4829 -1.6534  1.6207
  759MOL0     H 2428   0.539   4.451   8.982 -2.8621  1.7747 -0.3965
  759MOL0     H 2429   0.261   4.751   9.094  4.4924 -4.5050 -1.7081
  759MOL0     H 2430   0.022   4.803   9.103 -2.4990 -0.0201  1.9737
  759MOL0     H 2431  -0.217   4.739   8.992  2.6794  0.2838  2.0827
  759MOL0     H 2432  -0.195   4.557   8.977 -0.9487 -2.1442  3.0781
  759MOL0     H 2433  -0.400   4.713   9.117  1.0629  0.1806  0.7547
  759MOL0     H 2434  -0.437   4.621   8.968  0.7431  0.1615 -0.0959
  759MOL0     H 2435  -0.379   4.514   9.240 -0.8140  3.2150 -1.0974
  759MOL0     H 2436  -0.355   4.407   9.109  0.5194  0.2395  0.0334
  759MOL0     H 2437  -0.631   4.532   9.172  0.1024 -0.5025  1.2955
  759MOL0     H 2438  -0.590   4.467   9.021  1.9334 -2.5749 -0.9635
  759MOL0     H 2439  -0.540   4.251   9.094 -2.6091 -1.1106 -2.1466
  759MOL0     H 2440  -0.705   4.302   9.156 -0.3407 -1.8819  4.6037
  759MOL0     H 2441  -0.453   4.288   9.312  0.6979 -0.3971 -0.0430
  759MOL0     H 2442  -0.597   4.383   9.374 -1.1731 -1.2270  1.2914
  759MOL0     H 2443  -0.608   4.089   9.323 -0.0348 -0.6787 -0.0280
  759MOL0     H 2444  -0.736   4.204   9.372 -0.3091  0.9941  0.3553
  759MOL0     H 2445  -0.603   4.258   9.574  2.3082 -0.5674  1.9209
  759MOL0     H 2446  -0.470   4.173   9.510  0.0996 -1.7181  1.6148
  759MOL0     H 2447  -0.040   4.393   9.228  2.6051 -2.3680  0.8819
  759MOL0     H 2448   0.202   4.376   9.261  1.2276  0.9423  0.4451
  759MOL0     H 2449   0.654   4.708   9.427 -1.2010 -0.4635 -0.7221
  759MOL0     H 2450   0.914   4.708   9.392 -0.5479 -0.1066 -1.0005
  759MOL0     H 2451   2.997   4.753   8.825 -3.3462  0.0019  0.6821
  759MOL0     H 2452   3.208   4.708   8.893  0.1561 -0.8347 -0.1544
  759MOL0     H 2453   3.542   4.803   9.443  1.9765  1.2417  0.7289
  759MOL0     H 2454   3.773   4.720   9.466 -0.5177 -1.6521 -0.3590
  759MOL0     H 2455   4.051   4.464   9.457 -0.6250 -0.4428  2.7246
  759MOL0     H 2456   4.000   4.630   9.438  0.0386 -0.3224 -1.1161
  759MOL0     H 2457   3.825   4.586   9.614 -0.3958 -1.3825  1.0199
  759MOL0     H 2458   3.973   4.518   9.672 -0.3843  1.6346  0.8301
  759MOL0     H 2459   3.890   4.303   9.550 -0.3260  1.1355 -1.0991
  759MOL0     H 2460   3.733   4.370   9.554  0.5576  3.1711 -1.2648
  759MOL0     H 2461   3.731   4.256   9.774 -0.0995  0.8461  1.3059
  759MOL0     H 2462   3.756   4.419   9.810 -0.4527  0.2454 -1.0318
  759MOL0     H 2463   4.120   4.243   9.937 -0.7985 -4.4809  0.7409
  759MOL0     H 2464   3.702   4.408   9.171  0.8759 -0.8642  2.6946
  759MOL0     H 2465   3.476   4.499   9.137  1.1811 -1.6263  0.8405
  760MOL0     O 2466   0.419   6.041  10.635  0.3458  0.2255 -1.1779
  760MOL0     C 2467   0.509   6.112  10.679 -0.9990  0.2322  0.0414
  760MOL0     O 2468   0.492   6.242  10.703  0.3763  0.5308  0.4234
  760MOL0     C 2469   0.370   6.302  10.704  0.2751 -0.0332  0.3166
  760MOL0     C 2470   0.271   6.284  10.608  0.4300 -0.3174  1.1033
  760MOL0     C 2471   0.159   6.370  10.618 -0.0357 -0.7550  0.5730
  760MOL0     C 2472   0.138   6.460  10.719 -0.1409 -0.1047 -0.1386
  760MOL0     O 2473   0.022   6.532  10.702  0.3055 -0.2067  0.1153
  760MOL0     C 2474  -0.011   6.653  10.772  0.2270  0.5895 -0.7906
  760MOL0     C 2475  -0.158   6.644  10.828 -0.1983  0.1007 -0.9043
  760MOL0     C 2476  -0.255   6.686  10.728  0.2551  0.1305  0.6095
  760MOL0     C 2477  -0.283   6.592  10.612  0.8027 -0.4061 -0.7354
  760MOL0     C 2478  -0.345   6.457  10.652 -0.0830  0.2912 -0.3602
  760MOL0     C 2479  -0.370   6.373  10.523  0.8398  1.1728  0.0704
  760MOL0     C 2480  -0.386   6.225  10.561 -0.3283  0.3266  0.2093
  760MOL0     C 2481  -0.431   6.130  10.449  0.0222 -0.6360  0.3526
  760MOL0     N 2482  -0.566   6.167  10.390 -0.5861 -0.2023  0.1998
  760MOL0     C 2483  -0.687   6.187  10.463  0.2808  0.6804 -0.0093
  760MOL0     C 2484  -0.772   6.234  10.364  0.4035 -0.1893  0.1523
  760MOL0     C 2485  -0.917   6.257  10.377  0.4459 -0.1385 -0.5058
  760MOL0     C 2486  -0.953   6.290  10.527 -0.3793  0.2097  0.6045
  760MOL0     C 2487  -1.096   6.340  10.548 -0.3546 -0.3033  0.0112
  760MOL0     C 2488  -1.117   6.393  10.693 -0.3468  0.4076 -0.0542
  760MOL0     O 2489  -1.118   6.283  10.787  0.0112 -0.3526 -0.0026
  760MOL0     C 2490  -1.222   6.195  10.808  0.3288  0.1300 -0.4620
  760MOL0     C 2491  -1.343   6.191  10.740  1.1886  0.8531 -0.5785
  760MOL0     C 2492  -1.449   6.095  10.765  0.5688 -0.2303 -0.0780
  760MOL0     C 2493  -1.558   6.089  10.663  0.1009 -0.0993 -0.4630
  760MOL0     C 2494  -1.425   6.000  10.870  0.3148 -1.2717 -0.2832
  760MOL0     C 2495  -1.526   5.907  10.908 -0.0504 -0.3921 -0.1231
  760MOL0     O 2496  -1.649   5.931  10.871  0.6998 -0.1180 -0.0754
  760MOL0     C 2497  -1.754   5.887  10.956  0.1070 -0.2728  0.0534
  760MOL0     C 2498  -1.771   5.754  11.007 -0.1054  0.6387 -0.4521
  760MOL0     C 2499  -1.877   5.720  11.089 -0.5671 -0.3573  0.3669
  760MOL0     C 2500  -1.965   5.830  11.134 -0.0916 -0.2394 -0.5011
  760MOL0     O 2501  -2.076   5.790  11.206  0.4772  0.1991 -0.4194
  760MOL0     C 2502  -2.194   5.866  11.189  0.1674 -0.2636 -0.4983
  760MOL0     C 2503  -2.321   5.804  11.252 -0.1316 -0.0528  0.6385
  760MOL0     C 2504  -2.447   5.894  11.229 -0.0309  0.4671  0.9975
  760MOL0     C 2505  -2.506   5.889  11.090 -0.0947 -0.6715  0.5971
  760MOL0     C 2506  -2.562   5.754  11.047 -0.5413 -0.5094 -0.5968
  760MOL0     C 2507  -2.694   5.778  10.971 -0.5815 -0.1341 -0.1301
  760MOL0     C 2508  -2.771   5.654  10.955  0.2499  0.1979 -0.5212
  760MOL0     C 2509  -2.884   5.665  10.851  0.1395 -0.2678 -0.6789
  760MOL0    Cl 2510  -3.036   5.721  10.914 -0.1661 -0.0688 -0.4928
  760MOL0     C 2511  -1.946   5.963  11.088  0.0020 -0.4488  1.0051
  760MOL0     C 2512  -1.845   5.986  11.000 -0.3656  0.1083  0.4054
  760MOL0     O 2513  -1.489   5.803  10.965 -0.5884 -0.0682  0.4682
  760MOL0     C 2514  -1.295   6.003  10.935  0.6926 -0.5221  0.2347
  760MOL0     C 2515  -1.192   6.096  10.905  1.5282 -0.1730 -0.7293
  760MOL0     N 2516  -0.700   6.247  10.248  0.6860 -1.1235 -0.4280
  760MOL0     N 2517  -0.578   6.218  10.264 -0.7332 -0.5800 -0.5428
  760MOL0     C 2518   0.226   6.462  10.823 -0.4384 -0.3592 -0.3980
  760MOL0     C 2519   0.341   6.380  10.819  0.0301 -0.7525  0.8627
  760MOL0     C 2520   0.637   6.050  10.711 -0.5685  0.2237 -0.0813
  760MOL0     C 2521   0.683   5.936  10.640  0.2673 -0.1978 -0.0553
  760MOL0     C 2522   0.811   5.888  10.668 -0.1743  0.0152  0.1494
  760MOL0     C 2523   0.898   5.946  10.761  1.0977 -0.1359  0.1140
  760MOL0     O 2524   1.025   5.900  10.781  0.8493 -0.2040 -0.4605
  760MOL0     C 2525   1.126   5.991  10.739 -0.7986  0.0213 -0.3567
  760MOL0     C 2526   1.240   5.922  10.666  0.5539  0.0430 -0.0387
  760MOL0     C 2527   1.292   5.809  10.745 -0.1191  0.3171 -0.4551
  760MOL0     C 2528   1.445   5.778  10.712  0.1174  0.0021  0.8041
  760MOL0     C 2529   1.510   5.674  10.785  0.0012  0.1782 -0.6163
  760MOL0     C 2530   1.553   5.580  10.859 -0.1664 -0.8156 -0.6846
  760MOL0     C 2531   0.858   6.057  10.830 -0.5084 -0.1423 -0.1891
  760MOL0     C 2532   0.727   6.106  10.813  0.1566  0.5965 -0.0875
  760MOL0     H 2533   0.288   6.218  10.524  0.1616  1.1273 -0.1309
  760MOL0     H 2534   0.090   6.372  10.535 -1.3787  2.7795  1.5760
  760MOL0     H 2535   0.061   6.657  10.855  3.2004  1.2703 -3.2046
  760MOL0     H 2536  -0.000   6.745  10.714  1.1255  0.8666 -0.2138
  760MOL0     H 2537  -0.181   6.542  10.861  0.7718 -0.5012 -2.0128
  760MOL0     H 2538  -0.163   6.707  10.917 -2.9441  0.2152 -1.0601
  760MOL0     H 2539  -0.344   6.695  10.791 -0.8064  0.7066 -0.9201
  760MOL0     H 2540  -0.229   6.778  10.675 -2.4336  0.4173 -0.3465
  760MOL0     H 2541  -0.356   6.639  10.546 -3.5352 -3.4483  1.4458
  760MOL0     H 2542  -0.188   6.568  10.562  1.8020  0.7118  0.5507
  760MOL0     H 2543  -0.275   6.402  10.716 -1.2601 -0.7814  0.0535
  760MOL0     H 2544  -0.432   6.468  10.717  1.5749 -2.9089  2.7562
  760MOL0     H 2545  -0.455   6.408  10.464  0.4333  0.4039  0.1755
  760MOL0     H 2546  -0.289   6.383  10.450  2.2310  1.6665  1.6102
  760MOL0     H 2547  -0.285   6.196  10.592 -0.3070 -0.1415 -0.2815
  760MOL0     H 2548  -0.467   6.230  10.634  0.0063 -0.5266  0.6535
  760MOL0     H 2549  -0.437   6.029  10.490  2.4314 -0.8089  0.4204
  760MOL0     H 2550  -0.350   6.135  10.375  0.0804  1.7090  0.4923
  760MOL0     H 2551  -0.712   6.165  10.566  3.4989  0.2824  0.7916
  760MOL0     H 2552  -0.946   6.345  10.319 -1.6946 -1.1937 -1.1687
  760MOL0     H 2553  -0.980   6.178  10.333 -1.5943  0.7800  0.6399
  760MOL0     H 2554  -0.875   6.361  10.556  1.4927  0.5481 -4.2599
  760MOL0     H 2555  -0.937   6.201  10.588  5.1848 -2.2787 -3.6448
  760MOL0     H 2556  -1.175   6.268  10.523 -1.5586  0.4185  1.6148
  760MOL0     H 2557  -1.105   6.420  10.474  1.9279 -0.8010 -0.8941
  760MOL0     H 2558  -1.212   6.446  10.701 -0.3266  0.2862  1.1676
  760MOL0     H 2559  -1.037   6.467  10.706 -1.0356  1.3065 -0.8195
  760MOL0     H 2560  -1.351   6.263  10.659 -1.1080  1.9636  0.5422
  760MOL0     H 2561  -1.541   6.151  10.574  1.8236  2.8125  1.7209
  760MOL0     H 2562  -1.550   5.988  10.622  0.9483 -0.3079  0.1970
  760MOL0     H 2563  -1.656   6.116  10.703  0.2330  2.8457 -1.8559
  760MOL0     H 2564  -1.713   5.671  10.968 -2.1226 -0.6234 -0.9633
  760MOL0     H 2565  -1.903   5.619  11.118  0.4630 -1.4245 -2.1358
  760MOL0     H 2566  -2.182   5.964  11.236  0.5760  0.4702 -2.0475
  760MOL0     H 2567  -2.221   5.890  11.085 -1.3142  1.4968  0.2293
  760MOL0     H 2568  -2.330   5.708  11.202 -0.2601  0.5308 -0.4792
  760MOL0     H 2569  -2.316   5.788  11.360 -3.1317  0.5807  0.9691
  760MOL0     H 2570  -2.417   5.999  11.244  0.8030  1.1301 -3.6645
  760MOL0     H 2571  -2.527   5.867  11.298 -0.9688 -2.1927 -0.9750
  760MOL0     H 2572  -2.583   5.966  11.099  2.5295  2.3345 -0.7991
  760MOL0     H 2573  -2.441   5.929  11.011 -0.4709  3.6860  2.2191
  760MOL0     H 2574  -2.595   5.702  11.137  1.9207  0.8941  1.2134
  760MOL0     H 2575  -2.477   5.703  11.002  2.2240  1.0719  2.4617
  760MOL0     H 2576  -2.751   5.852  11.026 -2.4707 -1.3874 -0.3186
  760MOL0     H 2577  -2.683   5.835  10.878 -0.3002  1.1043  0.6455
  760MOL0     H 2578  -2.812   5.615  11.048  0.3961 -0.8774 -0.8901
  760MOL0     H 2579  -2.705   5.583  10.904 -0.5371  0.5022 -2.0308
  760MOL0     H 2580  -2.891   5.563  10.814 -2.2553  0.3934 -2.3059
  760MOL0     H 2581  -2.862   5.732  10.767 -3.1543 -0.5107 -1.8955
  760MOL0     H 2582  -2.010   6.049  11.104  1.8929  1.0011  1.1219
  760MOL0     H 2583  -1.834   6.088  10.966  0.3643 -0.1034 -0.0139
  760MOL0     H 2584  -1.284   5.920  11.005  1.7315  0.4669  1.2878
  760MOL0     H 2585  -1.101   6.097  10.965 -0.7148 -2.1629  3.1409
  760MOL0     H 2586   0.217   6.521  10.913  1.3080 -0.3906 -0.1744
  760MOL0     H 2587   0.413   6.391  10.900  0.1768 -0.1332  0.6543
  760MOL0     H 2588   0.616   5.880  10.575  0.2152 -2.1538  1.5842
  760MOL0     H 2589   0.820   5.801  10.603 -3.4932  1.4877 -2.5725
  760MOL0     H 2590   1.086   6.069  10.674  1.0072 -0.0397 -1.6181
  760MOL0     H 2591   1.156   6.037  10.834 -4.5468 -0.6894  1.3784
  760MOL0     H 2592   1.316   5.998  10.644  0.0648  0.3524 -0.6771
  760MOL0     H 2593   1.208   5.880  10.571 -0.2252 -0.5324  0.4603
  760MOL0     H 2594   1.234   5.721  10.716 -1.5467  1.5380 -1.4411
  760MOL0     H 2595   1.287   5.830  10.852 -1.4734  0.0680 -0.4509
  760MOL0     H 2596   1.496   5.874  10.725 -1.9308  1.3079 -0.1904
  760MOL0     H 2597   1.457   5.747  10.608  1.8757  1.6371  0.4779
  760MOL0     H 2598   1.607   5.526  10.933 -0.9496 -0.5171  0.1265
  760MOL0     H 2599   0.937   6.110  10.882  1.9417  0.2531 -3.8774
  760MOL0     H 2600   0.693   6.188  10.876  1.4420  0.2360  1.1177
  761MOL0     O 2601   8.273   3.818   6.210  0.1826  0.0820 -0.2891
  761MOL0     C 2602   8.309   3.922   6.152 -0.6238 -0.3932 -0.5729
  761MOL0     O 2603   8.224   3.996   6.069 -1.0153  1.0395 -0.1314
  761MOL0     C 2604   8.091   3.976   6.057  0.2469 -1.1241 -0.4695
  761MOL0     C 2605   8.031   4.067   5.974  0.1386  0.3245 -0.6201
  761MOL0     C 2606   7.889   4.058   5.963 -0.8705 -1.0776  0.2076
  761MOL0     C 2607   7.812   3.960   6.024 -0.1049 -0.3730  1.0041
  761MOL0     O 2608   7.680   3.951   6.006 -0.2778 -0.2768 -0.3670
  761MOL0     C 2609   7.605   4.049   5.943  0.6659  0.1964  0.2686
  761MOL0     C 2610   7.451   4.039   5.969  0.6691 -0.8141 -0.5771
  761MOL0     C 2611   7.384   3.916   5.899 -0.3330  0.1794 -0.4863
  761MOL0     C 2612   7.235   3.907   5.924 -0.0270  1.1935 -0.2948
  761MOL0     C 2613   7.140   3.796   5.866  0.2929 -0.2564  0.8165
  761MOL0     C 2614   7.008   3.807   5.937 -0.7835  0.5569 -0.3511
  761MOL0     C 2615   6.926   3.913   5.868 -0.4146 -0.1481 -0.1767
  761MOL0     C 2616   6.788   3.913   5.925  0.3091  0.0489  0.1439
  761MOL0     N 2617   6.685   3.974   5.852 -0.7280  0.0166  0.2302
  761MOL0     C 2618   6.594   4.056   5.905  0.1927  0.0432  0.0224
  761MOL0     C 2619   6.504   4.065   5.809  0.9380  0.2570  0.1783
  761MOL0     C 2620   6.373   4.128   5.839  0.1978 -0.7902  0.2440
  761MOL0     C 2621   6.381   4.269   5.776 -0.9569 -0.2675  0.1409
  761MOL0     C 2622   6.350   4.275   5.631  0.1988  0.1302  0.8144
  761MOL0     C 2623   6.330   4.428   5.594  0.3956  1.1494 -0.3365
  761MOL0     O 2624   6.452   4.500   5.568  0.0799  0.4688 -0.4145
  761MOL0     C 2625   6.439   4.637   5.586  0.2703 -0.0022 -1.5333
  761MOL0     C 2626   6.538   4.701   5.660 -0.5505 -0.4871 -0.2062
  761MOL0     C 2627   6.527   4.828   5.705  0.2107 -0.5293 -1.0847
  761MOL0     C 2628   6.636   4.893   5.785  0.0079 -0.7010 -0.9729
  761MOL0     C 2629   6.410   4.906   5.676  0.3489  0.4120  0.2394
  761MOL0     C 2630   6.372   5.047   5.711 -0.0733 -0.4463 -0.3460
  761MOL0     O 2631   6.265   5.106   5.656  0.5165 -0.4901 -0.2686
  761MOL0     C 2632   6.253   5.243   5.681  1.0666 -0.3034  0.0550
  761MOL0     C 2633   6.180   5.295   5.792  0.5392  0.3811  0.4077
  761MOL0     C 2634   6.164   5.433   5.796 -0.1507 -0.2511 -0.0018
  761MOL0     C 2635   6.203   5.524   5.702  0.3941 -0.2855 -0.0834
  761MOL0     O 2636   6.173   5.660   5.727 -0.2057 -0.0516 -0.0617
  761MOL0     C 2637   6.228   5.772   5.647  0.0526  0.2872 -0.4827
  761MOL0     C 2638   6.215   5.902   5.731  0.0145  0.8119 -0.3552
  761MOL0     C 2639   6.323   6.001   5.691 -1.1773  1.0165  0.6746
  761MOL0     C 2640   6.459   5.973   5.744  0.3576 -0.7789  0.4444
  761MOL0     C 2641   6.552   6.101   5.717  0.0910  0.4992 -0.6431
  761MOL0     C 2642   6.683   6.093   5.801  0.7386  0.4886 -0.3455
  761MOL0     C 2643   6.779   6.005   5.736 -0.6307 -0.2567 -0.2201
  761MOL0     C 2644   6.914   5.991   5.817  0.5084 -0.4549  0.3427
  761MOL0    Cl 2645   6.895   5.864   5.940  0.2062  0.0522 -0.0322
  761MOL0     C 2646   6.276   5.477   5.590  0.0299  0.4347 -0.1398
  761MOL0     C 2647   6.296   5.338   5.586 -0.4119  0.7480 -0.3264
  761MOL0     O 2648   6.442   5.102   5.801  0.8860 -0.3867  0.0108
  761MOL0     C 2649   6.310   4.848   5.590 -0.1094 -0.4301 -0.7919
  761MOL0     C 2650   6.330   4.715   5.539  0.0419  0.1229 -1.1349
  761MOL0     N 2651   6.544   3.988   5.699  0.8202  0.2891 -0.4334
  761MOL0     N 2652   6.665   3.946   5.727 -0.3119  0.6636 -0.7053
  761MOL0     C 2653   7.878   3.867   6.089  0.5909 -0.0781 -0.3785
  761MOL0     C 2654   8.015   3.869   6.107  0.1461 -0.5795 -0.3679
  761MOL0     C 2655   8.452   3.958   6.173 -0.2945  0.6993 -0.2382
  761MOL0     C 2656   8.550   3.860   6.211 -0.3543  0.0972 -0.8191
  761MOL0     C 2657   8.692   3.885   6.202  0.4994 -0.2774 -0.3067
  761MOL0     C 2658   8.728   4.016   6.161 -0.1086 -0.7426 -0.3940
  761MOL0     O 2659   8.854   4.059   6.154 -0.1522 -0.1572 -0.3252
  761MOL0     C 2660   8.955   3.989   6.231  0.5899  0.2988  0.6267
  761MOL0     C 2661   9.073   4.087   6.248  1.2139 -0.0849  0.2232
  761MOL0     C 2662   9.134   4.131   6.110 -0.1495 -0.9833 -0.6164
  761MOL0     C 2663   9.264   4.199   6.131 -1.1247 -0.7073 -0.3014
  761MOL0     C 2664   9.355   4.116   6.212  0.3870  0.5763  1.0302
  761MOL0     C 2665   9.422   4.026   6.272 -0.0447 -0.5431 -0.3509
  761MOL0     C 2666   8.634   4.115   6.136 -0.4265 -0.3105  0.1549
  761MOL0     C 2667   8.501   4.087   6.137  0.5093  0.4636 -0.2478
  761MOL0     H 2668   8.083   4.148   5.924 -0.4244  2.2866  1.7672
  761MOL0     H 2669   7.862   4.137   5.894  2.8566  0.4022  0.2304
  761MOL0     H 2670   7.644   4.146   5.974 -0.7495  1.1839 -0.8827
  761MOL0     H 2671   7.621   4.042   5.835  0.5328 -2.0888  0.3364
  761MOL0     H 2672   7.429   4.053   6.075 -0.3938 -1.0197 -0.7601
  761MOL0     H 2673   7.410   4.128   5.920  1.9845  2.2705  3.3598
  761MOL0     H 2674   7.402   3.924   5.791 -2.2236  1.2046 -0.7637
  761MOL0     H 2675   7.434   3.826   5.935 -1.3116 -0.0278  0.3787
  761MOL0     H 2676   7.226   3.881   6.030  0.9193 -0.3581 -0.5677
  761MOL0     H 2677   7.191   4.007   5.911 -0.4590  0.7512 -2.7986
  761MOL0     H 2678   7.130   3.816   5.759  0.0116 -0.6796  0.7586
  761MOL0     H 2679   7.176   3.694   5.883  1.6008 -0.3364 -1.9489
  761MOL0     H 2680   6.954   3.712   5.926  0.1883  0.2062 -2.4764
  761MOL0     H 2681   7.025   3.812   6.045  0.3320 -2.3873 -0.2980
  761MOL0     H 2682   6.967   4.014   5.882  0.5119  0.3217 -4.6689
  761MOL0     H 2683   6.925   3.902   5.759 -1.3098 -1.2707 -0.0698
  761MOL0     H 2684   6.790   3.957   6.025 -0.2596 -0.0374  0.1940
  761MOL0     H 2685   6.748   3.811   5.925 -1.7593  0.6694 -3.7760
  761MOL0     H 2686   6.587   4.093   6.007 -0.7423 -1.4251  0.5049
  761MOL0     H 2687   6.288   4.075   5.795 -1.9231 -0.2977  3.4405
  761MOL0     H 2688   6.350   4.130   5.945  1.1493  1.0864  0.4476
  761MOL0     H 2689   6.481   4.314   5.781 -2.4577  3.4108  0.7117
  761MOL0     H 2690   6.320   4.338   5.835  3.2002  2.1856  2.0597
  761MOL0     H 2691   6.259   4.217   5.614  1.1980 -1.6511  1.1970
  761MOL0     H 2692   6.434   4.229   5.577  0.7289 -3.3399  4.1485
  761MOL0     H 2693   6.261   4.480   5.661  0.3285  2.5954 -1.4753
  761MOL0     H 2694   6.268   4.433   5.504  1.3143 -3.1612 -1.4507
  761MOL0     H 2695   6.632   4.649   5.678  0.6300  1.9001  0.8880
  761MOL0     H 2696   6.721   4.826   5.802 -1.4427 -1.8850  2.9852
  761MOL0     H 2697   6.668   4.985   5.737 -1.5116  0.9808  1.0603
  761MOL0     H 2698   6.594   4.916   5.884 -2.4637 -4.0738 -1.0657
  761MOL0     H 2699   6.118   5.245   5.866 -0.0362 -1.9399 -1.5111
  761MOL0     H 2700   6.119   5.463   5.890 -0.7884  0.5566 -0.5551
  761MOL0     H 2701   6.334   5.755   5.629 -0.1006  0.6854 -1.9050
  761MOL0     H 2702   6.175   5.774   5.551 -0.7588 -2.0763 -0.1537
  761MOL0     H 2703   6.119   5.947   5.704 -0.9137 -0.4821  0.6530
  761MOL0     H 2704   6.215   5.885   5.839  0.7562 -0.6939 -0.5614
  761MOL0     H 2705   6.281   6.098   5.718 -1.9024  0.3933  1.8540
  761MOL0     H 2706   6.325   6.012   5.582 -1.3776  2.1424  0.7732
  761MOL0     H 2707   6.445   5.952   5.851 -1.5604 -2.0068  0.0179
  761MOL0     H 2708   6.493   5.882   5.694 -0.9077 -1.0984  0.1300
  761MOL0     H 2709   6.503   6.192   5.752 -2.2019 -0.4358 -1.2016
  761MOL0     H 2710   6.568   6.098   5.609  0.5782 -1.2147 -0.5464
  761MOL0     H 2711   6.720   6.196   5.794  0.9952  0.3394 -1.4516
  761MOL0     H 2712   6.658   6.063   5.903 -0.6622 -0.8099 -1.0233
  761MOL0     H 2713   6.805   6.056   5.642 -0.5790 -0.8143 -0.5104
  761MOL0     H 2714   6.733   5.911   5.706  0.5346 -0.1576 -2.5763
  761MOL0     H 2715   6.928   6.085   5.871  2.5565  0.2406 -1.2872
  761MOL0     H 2716   6.999   5.968   5.753  0.6814  0.4263  0.2422
  761MOL0     H 2717   6.327   5.542   5.520  3.0116 -0.1215  1.3376
  761MOL0     H 2718   6.347   5.307   5.496  0.0827  2.1056 -0.5330
  761MOL0     H 2719   6.219   4.894   5.554 -0.3195  0.3879  0.7031
  761MOL0     H 2720   6.254   4.676   5.471  0.0049 -1.8664 -0.0352
  761MOL0     H 2721   7.817   3.785   6.126  2.3231 -0.5093  1.7122
  761MOL0     H 2722   8.060   3.794   6.172  0.5982 -1.4163 -1.6006
  761MOL0     H 2723   8.515   3.763   6.246  3.4957 -0.7389  1.3194
  761MOL0     H 2724   8.760   3.806   6.232  2.0677  0.9785 -0.4173
  761MOL0     H 2725   8.924   3.959   6.331 -0.9900 -1.3898 -0.3136
  761MOL0     H 2726   8.978   3.901   6.171 -1.6158 -1.5110  2.2760
  761MOL0     H 2727   9.151   4.038   6.307  1.1531  0.2325  0.5664
  761MOL0     H 2728   9.039   4.171   6.309 -0.4709 -0.8999  0.4586
  761MOL0     H 2729   9.071   4.194   6.046  1.9862  0.8438 -1.0146
  761MOL0     H 2730   9.154   4.042   6.049  1.1581  0.5487 -2.5333
  761MOL0     H 2731   9.254   4.290   6.191  2.7562 -0.9097  0.9654
  761MOL0     H 2732   9.309   4.225   6.035 -1.5468  1.8668  0.1301
  761MOL0     H 2733   9.489   3.964   6.327  0.3826 -0.4894 -0.7970
  761MOL0     H 2734   8.668   4.215   6.113  1.1568 -0.9626 -0.4567
  761MOL0     H 2735   8.426   4.162   6.116 -0.3861 -1.0430 -2.8470
  762MOL0     O 2736   8.915   2.200   7.247  0.1904 -0.2118 -0.4565
  762MOL0     C 2737   8.844   2.184   7.143 -0.1730 -0.0460 -0.5600
  762MOL0     O 2738   8.709   2.184   7.144  0.1517 -0.0424 -0.1202
  762MOL0     C 2739   8.626   2.240   7.249 -0.2349  1.1753 -0.0172
  762MOL0     C 2740   8.501   2.289   7.213 -0.2912  1.0401  0.1118
  762MOL0     C 2741   8.399   2.327   7.310 -0.8110 -0.0841 -0.4388
  762MOL0     C 2742   8.434   2.312   7.446 -0.3149  0.2226  0.0224
  762MOL0     O 2743   8.342   2.325   7.552 -0.0315  0.9684  0.3005
  762MOL0     C 2744   8.212   2.255   7.544 -0.2039 -0.3591  0.3309
  762MOL0     C 2745   8.149   2.254   7.687  0.3317 -0.1932 -0.1027
  762MOL0     C 2746   8.008   2.200   7.676 -0.1393 -0.2606  0.4584
  762MOL0     C 2747   7.943   2.190   7.813 -0.0494 -0.5317  0.2752
  762MOL0     C 2748   7.798   2.168   7.802 -0.0650  0.0152  0.2783
  762MOL0     C 2749   7.749   2.057   7.724 -0.5503 -0.1180 -0.1258
  762MOL0     C 2750   7.596   2.050   7.733  0.6698 -0.0432  0.1737
  762MOL0     C 2751   7.534   1.913   7.719  0.1035  0.2450 -0.0171
  762MOL0     N 2752   7.395   1.911   7.755  0.8181 -0.3064  0.1069
  762MOL0     C 2753   7.345   1.901   7.881  0.6440 -0.4535 -0.2700
  762MOL0     C 2754   7.209   1.891   7.862 -0.3176  0.3942  0.2847
  762MOL0     C 2755   7.110   1.863   7.973 -0.4204 -0.7978  0.1827
  762MOL0     C 2756   7.046   1.718   7.959  0.5355  0.8526 -0.2689
  762MOL0     C 2757   6.974   1.682   8.102 -0.3696  0.2592  0.3865
  762MOL0     C 2758   6.844   1.756   8.127  0.0600  0.2654 -0.6333
  762MOL0     O 2759   6.799   1.727   8.259  0.2810 -0.3190  0.6870
  762MOL0     C 2760   6.673   1.778   8.288  0.4503  0.6210  0.8254
  762MOL0     C 2761   6.608   1.728   8.410 -0.4204  0.5838  0.4169
  762MOL0     C 2762   6.474   1.761   8.452  0.4198 -0.3784 -0.2818
  762MOL0     C 2763   6.426   1.695   8.577 -0.0750  0.1576  0.0267
  762MOL0     C 2764   6.408   1.863   8.383 -1.0149 -0.0304  0.7839
  762MOL0     C 2765   6.271   1.914   8.415 -1.0882 -0.0455  0.1052
  762MOL0     O 2766   6.227   2.021   8.341 -0.1082  0.2037  0.4410
  762MOL0     C 2767   6.116   2.075   8.383 -0.0652 -0.5730  0.1493
  762MOL0     C 2768   6.003   2.053   8.301 -0.5136 -0.5752 -0.7707
  762MOL0     C 2769   5.879   2.115   8.332  0.5893 -0.6278 -0.7490
  762MOL0     C 2770   5.863   2.185   8.460 -0.0082  0.5852 -0.1233
  762MOL0     O 2771   5.746   2.253   8.494 -0.3277 -0.0834 -0.1769
  762MOL0     C 2772   5.629   2.248   8.411  0.2450  0.5953 -0.2645
  762MOL0     C 2773   5.537   2.352   8.488 -0.0681  0.3116 -0.4883
  762MOL0     C 2774   5.393   2.331   8.448  0.9705  0.0967 -0.0749
  762MOL0     C 2775   5.301   2.388   8.560  0.5671  0.7029  0.2391
  762MOL0     C 2776   5.163   2.432   8.508 -0.2585  1.0653 -0.0349
  762MOL0     C 2777   5.075   2.490   8.605  0.3896 -0.5299 -0.1170
  762MOL0     C 2778   4.932   2.536   8.562 -0.0150 -0.5525  0.1618
  762MOL0     C 2779   4.941   2.643   8.457  0.5448 -0.4301 -0.6933
  762MOL0    Cl 2780   4.787   2.698   8.415  0.4205 -0.1789 -0.0242
  762MOL0     C 2781   5.976   2.184   8.546 -0.0038  0.8399  0.0264
  762MOL0     C 2782   6.102   2.135   8.508 -0.1930  0.4381  0.5267
  762MOL0     O 2783   6.207   1.854   8.497  0.6677  0.0950  0.3093
  762MOL0     C 2784   6.474   1.914   8.263 -0.7225 -0.6389  0.6593
  762MOL0     C 2785   6.598   1.876   8.224 -0.3793 -0.1933  0.1967
  762MOL0     N 2786   7.179   1.898   7.727  0.0585  0.4256  0.4507
  762MOL0     N 2787   7.297   1.925   7.665 -0.6246 -0.2863  0.0082
  762MOL0     C 2788   8.569   2.282   7.487  0.1148  0.2128 -0.1347
  762MOL0     C 2789   8.660   2.242   7.391  0.0579 -0.0231 -0.3621
  762MOL0     C 2790   8.898   2.140   7.012  0.6986 -0.9696 -0.1181
  762MOL0     C 2791   9.029   2.088   7.004 -0.3868  0.0428  0.2641
  762MOL0     C 2792   9.077   2.043   6.881 -0.2384 -0.6244 -0.4666
  762MOL0     C 2793   9.014   2.070   6.762 -0.0218 -0.4814 -0.0866
  762MOL0     O 2794   9.055   2.033   6.634 -0.2960 -0.3281 -0.6428
  762MOL0     C 2795   9.198   2.029   6.610 -0.3137 -0.0810  0.4940
  762MOL0     C 2796   9.269   2.169   6.601 -0.5471 -0.0508  0.2084
  762MOL0     C 2797   9.407   2.189   6.543 -0.6192  0.0202  0.0609
  762MOL0     C 2798   9.416   2.168   6.392  0.3138 -0.6059 -0.1375
  762MOL0     C 2799   9.556   2.159   6.347 -0.8085 -0.2147 -0.0261
  762MOL0     C 2800   9.668   2.174   6.304 -0.1598  0.1179 -0.6207
  762MOL0     C 2801   8.882   2.121   6.765  0.1723  0.0102 -0.0429
  762MOL0     C 2802   8.827   2.153   6.890  0.5834 -0.3826  0.2623
  762MOL0     H 2803   8.485   2.311   7.108 -0.5217  0.3477 -0.0033
  762MOL0     H 2804   8.296   2.358   7.289 -0.5474  1.6347  0.5565
  762MOL0     H 2805   8.157   2.306   7.464 -1.7701  0.3861  1.8141
  762MOL0     H 2806   8.214   2.150   7.514 -0.9760 -0.3270  0.1442
  762MOL0     H 2807   8.205   2.194   7.759 -0.0245 -2.6801 -1.7853
  762MOL0     H 2808   8.137   2.349   7.740 -2.8205 -2.6596  4.2352
  762MOL0     H 2809   7.958   2.275   7.613  1.7521  0.7922  0.1375
  762MOL0     H 2810   8.018   2.105   7.622 -0.5703  0.2203 -0.4838
  762MOL0     H 2811   7.975   2.107   7.876 -0.2258  0.3709  1.6021
  762MOL0     H 2812   7.963   2.270   7.885 -0.9790 -1.0681  1.1615
  762MOL0     H 2813   7.749   2.148   7.898 -0.9697 -0.2842 -0.2348
  762MOL0     H 2814   7.766   2.256   7.747  1.1049 -0.4448 -1.2138
  762MOL0     H 2815   7.782   2.057   7.620 -3.7803 -1.1206 -1.2672
  762MOL0     H 2816   7.781   1.958   7.760  1.1227  0.5698  0.4019
  762MOL0     H 2817   7.569   2.098   7.827 -0.2296  0.0997 -0.1493
  762MOL0     H 2818   7.550   2.110   7.653 -1.0777 -2.9942 -1.1963
  762MOL0     H 2819   7.586   1.839   7.780 -1.1607 -1.6526 -1.1314
  762MOL0     H 2820   7.548   1.880   7.616 -1.9661 -0.7171 -0.0393
  762MOL0     H 2821   7.396   1.918   7.975  0.7650  1.8854 -0.6931
  762MOL0     H 2822   7.165   1.870   8.067 -0.5208  0.4697  0.1586
  762MOL0     H 2823   7.033   1.941   7.976  0.0758 -0.2824 -0.2442
  762MOL0     H 2824   7.120   1.640   7.940 -0.5415 -0.6577  1.4431
  762MOL0     H 2825   6.965   1.715   7.885 -0.9429  1.4418  1.2564
  762MOL0     H 2826   7.042   1.714   8.181 -0.5853 -0.4670  0.8799
  762MOL0     H 2827   6.952   1.575   8.102  0.4106  0.0670 -0.6847
  762MOL0     H 2828   6.775   1.740   8.044 -1.4252  0.9273  0.4252
  762MOL0     H 2829   6.868   1.862   8.111 -1.7444  0.6161 -1.2955
  762MOL0     H 2830   6.663   1.657   8.470 -2.4453 -0.0222  1.6440
  762MOL0     H 2831   6.413   1.774   8.651 -1.1312 -1.8423  2.0884
  762MOL0     H 2832   6.333   1.643   8.552  0.5374 -0.2880 -1.4359
  762MOL0     H 2833   6.502   1.627   8.616  1.4444  0.9743 -1.3404
  762MOL0     H 2834   6.015   1.999   8.208  0.3855 -0.5038 -0.7021
  762MOL0     H 2835   5.794   2.114   8.265 -0.4964  2.5952  0.3850
  762MOL0     H 2836   5.650   2.288   8.311 -2.4610 -0.4435 -1.3397
  762MOL0     H 2837   5.574   2.154   8.411  0.3077  0.5008  2.5928
  762MOL0     H 2838   5.536   2.302   8.585 -1.0540 -5.1827 -2.9324
  762MOL0     H 2839   5.574   2.455   8.483 -0.5856  0.6159  1.1860
  762MOL0     H 2840   5.376   2.223   8.439 -1.8672  0.2218  2.2568
  762MOL0     H 2841   5.387   2.372   8.347  2.4047  2.0569  0.5721
  762MOL0     H 2842   5.281   2.317   8.640 -1.1301  0.4960 -0.3411
  762MOL0     H 2843   5.354   2.470   8.610 -2.1862  2.1881  0.9341
  762MOL0     H 2844   5.110   2.347   8.464  1.9326  1.0680 -2.9848
  762MOL0     H 2845   5.185   2.500   8.425 -4.5048  2.4304 -0.3095
  762MOL0     H 2846   5.047   2.415   8.680  1.1180  0.1378  0.8563
  762MOL0     H 2847   5.124   2.570   8.663 -0.4301 -0.5881  0.6868
  762MOL0     H 2848   4.876   2.564   8.651  1.5735 -0.4787  1.1739
  762MOL0     H 2849   4.880   2.447   8.524 -2.1267  1.5046 -2.0653
  762MOL0     H 2850   4.989   2.605   8.366  0.3692 -1.8599 -0.2142
  762MOL0     H 2851   5.007   2.721   8.495  2.7601 -1.8588 -1.3794
  762MOL0     H 2852   5.973   2.241   8.638 -1.2832 -2.9943  2.5583
  762MOL0     H 2853   6.192   2.137   8.569 -2.3082 -1.2134  3.9607
  762MOL0     H 2854   6.434   1.983   8.191  2.2349  1.2133  0.6163
  762MOL0     H 2855   6.633   1.918   8.131 -0.1672 -0.2174  0.2638
  762MOL0     H 2856   8.596   2.275   7.592 -0.3839 -1.6718 -0.0863
  762MOL0     H 2857   8.756   2.200   7.416  0.0934 -0.6106 -1.4091
  762MOL0     H 2858   9.091   2.087   7.093 -1.0711 -3.8600  0.8892
  762MOL0     H 2859   9.173   1.995   6.868  0.9600  1.6088 -0.3398
  762MOL0     H 2860   9.249   1.969   6.686 -1.5350 -3.1384 -0.9278
  762MOL0     H 2861   9.202   1.972   6.517 -0.7183 -0.4149  0.6799
  762MOL0     H 2862   9.267   2.202   6.706 -0.0522 -2.3640  1.0142
  762MOL0     H 2863   9.193   2.236   6.560 -1.0028 -1.1692 -0.8290
  762MOL0     H 2864   9.478   2.117   6.587 -0.5573  0.1054  0.1008
  762MOL0     H 2865   9.440   2.291   6.562  0.4258 -0.1244 -0.8596
  762MOL0     H 2866   9.370   2.256   6.344  0.2904 -0.9605 -0.7844
  762MOL0     H 2867   9.347   2.090   6.357 -0.2644  0.1295 -0.6908
  762MOL0     H 2868   9.773   2.172   6.286  0.2742 -3.5313  1.3263
  762MOL0     H 2869   8.834   2.142   6.670  0.1205  0.8870  0.1747
  762MOL0     H 2870   8.728   2.196   6.892 -0.1441 -1.9914  1.4417
  763MOL0     O 2871   1.372   3.785   9.223  0.2273  0.0653  0.3377
  763MOL0     C 2872   1.471   3.757   9.293  0.1895  0.9878 -0.1749
  763MOL0     O 2873   1.460   3.705   9.423  0.3850  0.8783 -0.9325
  763MOL0     C 2874   1.331   3.705   9.466 -0.1366  0.1448 -0.1695
  763MOL0     C 2875   1.281   3.816   9.532 -0.2811 -0.4900  0.3091
  763MOL0     C 2876   1.157   3.818   9.594  0.2651 -0.2457 -0.6341
  763MOL0     C 2877   1.073   3.707   9.583 -0.1489  0.1367  1.0191
  763MOL0     O 2878   0.950   3.727   9.647  0.2680  0.1613  0.0411
  763MOL0     C 2879   0.866   3.616   9.663  0.2749  0.8388 -0.2482
  763MOL0     C 2880   0.748   3.645   9.746 -0.6053  0.1069  0.6718
  763MOL0     C 2881   0.651   3.752   9.681 -0.6545  0.1202 -0.5224
  763MOL0     C 2882   0.589   3.713   9.549  0.6874 -0.8421  1.5004
  763MOL0     C 2883   0.512   3.831   9.487 -0.2442 -0.0228 -0.2209
  763MOL0     C 2884   0.462   3.813   9.347  0.3117  0.4311 -0.5131
  763MOL0     C 2885   0.394   3.944   9.293 -0.0952 -0.2650  0.2555
  763MOL0     C 2886   0.248   3.961   9.346  0.5585  0.0756  0.1266
  763MOL0     N 2887   0.155   3.983   9.234 -0.7213  0.0624 -0.2935
  763MOL0     C 2888   0.100   3.883   9.164  0.1932  0.5810  0.1287
  763MOL0     C 2889  -0.001   3.947   9.100 -0.5647 -0.1823  0.3923
  763MOL0     C 2890  -0.121   3.887   9.020  0.2763  0.1575  0.7939
  763MOL0     C 2891  -0.093   3.828   8.872 -0.4177  0.6483 -0.9011
  763MOL0     C 2892  -0.099   3.932   8.758 -0.1872  0.0972  0.6804
  763MOL0     C 2893  -0.001   3.903   8.644  0.3635  0.6576 -0.0080
  763MOL0     O 2894   0.130   3.945   8.683  0.4271  0.3919 -0.0782
  763MOL0     C 2895   0.234   3.918   8.600 -0.1773 -0.4281 -0.7394
  763MOL0     C 2896   0.268   4.017   8.504 -0.8983  0.6207 -0.3712
  763MOL0     C 2897   0.374   4.001   8.418 -0.0954 -0.4126  0.2835
  763MOL0     C 2898   0.399   4.124   8.336 -0.3421 -0.4828  0.4878
  763MOL0     C 2899   0.454   3.886   8.426  0.1499 -0.3301 -0.1575
  763MOL0     C 2900   0.582   3.867   8.351  1.4757  0.0548  1.0323
  763MOL0     O 2901   0.598   3.740   8.300  0.3520 -0.8083  1.0031
  763MOL0     C 2902   0.709   3.709   8.225 -0.2802 -0.6371 -0.5271
  763MOL0     C 2903   0.770   3.581   8.244 -1.3408 -0.9321  0.3883
  763MOL0     C 2904   0.895   3.547   8.181 -0.6581  0.3191  0.3765
  763MOL0     C 2905   0.949   3.631   8.086  0.7391 -0.0406  0.1696
  763MOL0     O 2906   1.069   3.590   8.036 -0.2556 -0.4871  0.6027
  763MOL0     C 2907   1.109   3.661   7.918 -0.0002 -0.2186  0.4283
  763MOL0     C 2908   1.242   3.614   7.875 -0.2573  0.5600  0.3454
  763MOL0     C 2909   1.244   3.468   7.849  0.0478 -0.4325  1.0392
  763MOL0     C 2910   1.368   3.438   7.759 -0.1907  0.1144 -0.7698
  763MOL0     C 2911   1.361   3.293   7.715 -0.0253 -0.3806 -0.7983
  763MOL0     C 2912   1.250   3.269   7.607  0.4389  0.6550 -0.2809
  763MOL0     C 2913   1.251   3.122   7.562 -0.2691 -0.4466 -0.1517
  763MOL0     C 2914   1.127   3.088   7.477 -0.5351 -0.0446 -0.2434
  763MOL0    Cl 2915   1.123   2.913   7.441  0.0351  0.2839 -0.2191
  763MOL0     C 2916   0.886   3.764   8.059  0.0524 -0.3487  0.7482
  763MOL0     C 2917   0.773   3.799   8.132 -0.4797 -0.3824 -0.2760
  763MOL0     O 2918   0.656   3.960   8.332  0.2353 -0.2821  0.0074
  763MOL0     C 2919   0.406   3.776   8.509  0.5732  0.0312  0.4911
  763MOL0     C 2920   0.300   3.794   8.597  0.5700  0.1120  0.8313
  763MOL0     N 2921   0.011   4.076   9.121  0.6512  0.7237 -0.2388
  763MOL0     N 2922   0.107   4.105   9.198 -0.5238  0.4556  0.1686
  763MOL0     C 2923   1.114   3.586   9.515  0.1086 -0.5894  0.0157
  763MOL0     C 2924   1.249   3.595   9.463 -0.3072  0.8266 -0.9854
  763MOL0     C 2925   1.592   3.786   9.231  0.4714  0.1491  0.2108
  763MOL0     C 2926   1.597   3.821   9.098  0.1267 -0.1981  0.0228
  763MOL0     C 2927   1.710   3.845   9.027 -0.5056  0.6696 -0.6157
  763MOL0     C 2928   1.830   3.844   9.099  0.3891  0.1725 -0.0355
  763MOL0     O 2929   1.957   3.841   9.053 -0.2450  0.1551  0.4530
  763MOL0     C 2930   1.981   3.855   8.910 -0.0879 -1.2708  0.0646
  763MOL0     C 2931   2.107   3.934   8.895 -0.5573  0.5622  0.4019
  763MOL0     C 2932   2.157   3.941   8.751  0.4839 -0.1830  0.2668
  763MOL0     C 2933   2.284   4.030   8.754  0.7257  0.5629  0.2503
  763MOL0     C 2934   2.382   3.979   8.851  0.3048 -0.4736  0.0521
  763MOL0     C 2935   2.470   3.929   8.923 -0.4259 -0.1969  0.0190
  763MOL0     C 2936   1.828   3.818   9.233 -0.1519  0.6477 -0.3069
  763MOL0     C 2937   1.711   3.791   9.301  0.2445 -0.0124 -0.1181
  763MOL0     H 2938   1.342   3.905   9.543  0.8355 -0.8348 -2.3079
  763MOL0     H 2939   1.128   3.908   9.648  0.7267 -0.2205 -0.4257
  763MOL0     H 2940   0.831   3.574   9.568 -1.8213 -0.0979  0.8803
  763MOL0     H 2941   0.922   3.537   9.712 -0.1561  1.1647  0.8000
  763MOL0     H 2942   0.691   3.553   9.763 -2.0445  0.8099 -0.0995
  763MOL0     H 2943   0.784   3.665   9.847 -0.9096 -3.4528  1.5872
  763MOL0     H 2944   0.572   3.755   9.756 -1.7590 -0.3460 -1.6227
  763MOL0     H 2945   0.691   3.854   9.672  0.8610 -0.5581 -2.0864
  763MOL0     H 2946   0.657   3.678   9.471 -1.7743  0.9700 -1.7094
  763MOL0     H 2947   0.516   3.633   9.558 -3.3910  2.0273 -1.8911
  763MOL0     H 2948   0.430   3.861   9.553  1.0577  0.5124  1.2334
  763MOL0     H 2949   0.574   3.921   9.485  1.1400 -0.9627 -1.0538
  763MOL0     H 2950   0.535   3.775   9.275  0.5245  0.3408 -0.2529
  763MOL0     H 2951   0.383   3.737   9.347  0.4608  0.2616  0.4787
  763MOL0     H 2952   0.447   4.034   9.326 -0.4029 -0.1354  0.3984
  763MOL0     H 2953   0.386   3.943   9.184 -3.0965 -0.6523  0.3951
  763MOL0     H 2954   0.230   4.048   9.410  0.8488 -0.5906  1.1395
  763MOL0     H 2955   0.223   3.868   9.398 -0.4322  1.3666  2.0818
  763MOL0     H 2956   0.126   3.778   9.165 -1.0096  0.1195 -3.1784
  763MOL0     H 2957  -0.169   3.812   9.083 -0.8348 -0.0220 -0.2277
  763MOL0     H 2958  -0.195   3.967   9.011  0.4458  0.6783  3.3243
  763MOL0     H 2959  -0.173   3.754   8.859 -0.1745  0.6141 -2.3427
  763MOL0     H 2960   0.002   3.774   8.876 -0.8383 -0.0678  0.1002
  763MOL0     H 2961  -0.070   4.031   8.796  0.7541 -0.4595  1.4608
  763MOL0     H 2962  -0.202   3.940   8.723  0.3808  0.9006 -0.8975
  763MOL0     H 2963  -0.026   3.963   8.556 -2.3639  1.4600  1.2012
  763MOL0     H 2964  -0.009   3.799   8.612  0.0423  0.6187  0.1884
  763MOL0     H 2965   0.198   4.099   8.494 -2.7139 -0.8216  0.0303
  763MOL0     H 2966   0.445   4.203   8.397  0.3284  0.4738 -1.2098
  763MOL0     H 2967   0.451   4.103   8.242 -1.4205 -0.6994 -0.0766
  763MOL0     H 2968   0.303   4.155   8.295  0.6459  1.2686 -0.5905
  763MOL0     H 2969   0.715   3.524   8.318  0.3555 -1.4964  1.2452
  763MOL0     H 2970   0.953   3.456   8.197 -1.1522  0.4150  3.0364
  763MOL0     H 2971   1.041   3.638   7.835  0.8194 -2.6537  0.3545
  763MOL0     H 2972   1.119   3.767   7.941  1.8988 -0.5300  1.2293
  763MOL0     H 2973   1.271   3.674   7.789  0.4611  3.8085  2.6350
  763MOL0     H 2974   1.310   3.654   7.950 -0.5836  4.1255 -1.0377
  763MOL0     H 2975   1.151   3.440   7.799 -2.1593 -0.6143  4.7997
  763MOL0     H 2976   1.241   3.407   7.940 -2.1152 -1.0064  0.6525
  763MOL0     H 2977   1.368   3.507   7.673 -0.3926  1.0896 -0.0055
  763MOL0     H 2978   1.459   3.449   7.819  1.6709 -3.1275 -2.7062
  763MOL0     H 2979   1.330   3.237   7.804 -1.1988 -0.3121 -1.1417
  763MOL0     H 2980   1.461   3.263   7.684  0.6211 -0.1796  0.9651
  763MOL0     H 2981   1.149   3.291   7.640  0.9586  2.1717  0.3710
  763MOL0     H 2982   1.267   3.330   7.518 -0.5869  0.4667 -0.6141
  763MOL0     H 2983   1.250   3.063   7.654 -1.5321  3.1246  2.3794
  763MOL0     H 2984   1.338   3.098   7.500  0.1187 -1.8924  0.9122
  763MOL0     H 2985   1.125   3.134   7.377 -2.2798 -0.8106 -0.6055
  763MOL0     H 2986   1.034   3.123   7.522 -0.3442 -0.9071  0.8657
  763MOL0     H 2987   0.933   3.838   7.995 -4.2062  1.6856 -0.4153
  763MOL0     H 2988   0.732   3.898   8.117  0.0826  0.1872  1.7016
  763MOL0     H 2989   0.463   3.683   8.510  0.9688  0.2793  1.1158
  763MOL0     H 2990   0.270   3.719   8.669  4.1249 -1.5850  0.7374
  763MOL0     H 2991   1.045   3.504   9.526  1.7999 -1.8403  2.1086
  763MOL0     H 2992   1.282   3.503   9.416 -2.5147  0.6688 -2.3896
  763MOL0     H 2993   1.514   3.805   9.029  0.2851 -0.2390 -0.1583
  763MOL0     H 2994   1.715   3.864   8.921 -1.8173  2.1015 -0.4625
  763MOL0     H 2995   1.992   3.760   8.857 -0.7505 -2.5614  2.1018
  763MOL0     H 2996   1.901   3.909   8.858  0.0371  2.0752  2.9615
  763MOL0     H 2997   2.175   3.877   8.959  0.0811  0.6475 -0.1845
  763MOL0     H 2998   2.107   4.035   8.935  0.7549  0.7103  0.0874
  763MOL0     H 2999   2.083   3.998   8.694 -1.6933 -0.6200  2.4467
  763MOL0     H 3000   2.167   3.840   8.711  1.1007  0.1686 -0.4981
  763MOL0     H 3001   2.258   4.132   8.782 -0.3578 -0.1685  2.0794
  763MOL0     H 3002   2.324   4.035   8.652 -0.4669 -0.5952 -0.3139
  763MOL0     H 3003   2.537   3.876   8.988 -0.0742  1.9591  1.5365
  763MOL0     H 3004   1.930   3.819   9.271 -0.2201 -2.2206  0.1292
  763MOL0     H 3005   1.711   3.769   9.408  0.9139 -1.4126 -0.3810
  764MOL0     O 3006  10.987   9.620   0.549 -0.9571 -0.0151  0.3816
  764MOL0     C 3007  11.056   9.527   0.585 -0.2556  0.2631  0.2420
  764MOL0     O 3008  11.015   9.397   0.592  1.4733 -0.6616 -0.0903
  764MOL0     C 3009  10.877   9.368   0.569 -0.2827  0.6415 -0.6640
  764MOL0     C 3010  10.786   9.399   0.673  0.3560  0.6260 -0.4160
  764MOL0     C 3011  10.653   9.360   0.664 -0.8664 -0.3438  0.4884
  764MOL0     C 3012  10.606   9.278   0.554 -0.3205 -0.0644 -0.4294
  764MOL0     O 3013  10.477   9.235   0.548 -0.3399  0.2039 -0.2739
  764MOL0     C 3014  10.381   9.289   0.640  0.1874 -0.6231 -0.2266
  764MOL0     C 3015  10.235   9.263   0.598  0.0264 -0.6237 -0.9583
  764MOL0     C 3016  10.135   9.359   0.665  0.6361 -0.0526 -1.0695
  764MOL0     C 3017  10.002   9.349   0.585  0.7959  0.8960 -0.3335
  764MOL0     C 3018   9.891   9.426   0.659  0.1816  0.5716 -0.0233
  764MOL0     C 3019   9.752   9.396   0.598  0.6016  0.4580  1.4682
  764MOL0     C 3020   9.646   9.463   0.683 -0.2786  0.4677 -0.8138
  764MOL0     C 3021   9.509   9.485   0.617  0.2135 -0.9111  0.2817
  764MOL0     N 3022   9.419   9.373   0.609  0.5771 -0.0428 -0.6279
  764MOL0     C 3023   9.379   9.320   0.485 -0.4885  0.1166  0.6270
  764MOL0     C 3024   9.262   9.251   0.526  0.5541  0.6112 -0.0556
  764MOL0     C 3025   9.172   9.171   0.427 -0.1383 -0.0215  0.3384
  764MOL0     C 3026   9.219   9.021   0.425  0.8400 -0.4583  0.4931
  764MOL0     C 3027   9.192   8.948   0.562 -1.0907  0.2726 -0.0977
  764MOL0     C 3028   9.185   8.795   0.548  0.0111 -0.5418 -0.5993
  764MOL0     O 3029   9.281   8.730   0.635  0.1571 -0.0689 -0.2603
  764MOL0     C 3030   9.413   8.726   0.602 -0.7484 -0.7073 -0.3211
  764MOL0     C 3031   9.488   8.665   0.705 -1.8752 -0.5996 -0.0186
  764MOL0     C 3032   9.629   8.656   0.692  0.0783  0.3288 -0.5966
  764MOL0     C 3033   9.702   8.602   0.808  0.1106  0.3277  0.2225
  764MOL0     C 3034   9.691   8.698   0.574 -0.7872  0.2700 -0.9649
  764MOL0     C 3035   9.835   8.692   0.556 -0.3405 -0.4583  1.2757
  764MOL0     O 3036   9.881   8.696   0.425  0.2986  0.2172  0.3096
  764MOL0     C 3037  10.015   8.703   0.403  0.1534  0.5451  0.8796
  764MOL0     C 3038  10.065   8.618   0.304 -0.6398  0.3403 -0.7327
  764MOL0     C 3039  10.207   8.626   0.269  0.8732 -0.6060  0.4249
  764MOL0     C 3040  10.292   8.725   0.327 -0.2873  0.3681  0.0434
  764MOL0     O 3041  10.412   8.737   0.264 -0.0053 -0.0856  0.0186
  764MOL0     C 3042  10.456   8.863   0.226  0.4137  0.0111  1.0250
  764MOL0     C 3043  10.588   8.850   0.146  0.2308  0.4945 -0.4445
  764MOL0     C 3044  10.702   8.774   0.217  0.2920  0.2519 -0.2416
  764MOL0     C 3045  10.831   8.815   0.147 -0.1441 -1.0384  0.6117
  764MOL0     C 3046  10.948   8.735   0.213 -0.0069 -0.6001  0.7155
  764MOL0     C 3047  11.087   8.763   0.142  0.2797 -0.1411  0.5957
  764MOL0     C 3048  11.096   8.792  -0.012 -0.4697  0.3236 -0.3553
  764MOL0     C 3049  11.054   8.679  -0.097 -0.2009 -0.0654  0.0694
  764MOL0    Cl 3050  11.151   8.540  -0.052  0.2440 -0.1285 -0.0597
  764MOL0     C 3051  10.229   8.818   0.413 -0.8065 -0.7908  0.7834
  764MOL0     C 3052  10.096   8.809   0.456  0.1396  0.0456  0.0967
  764MOL0     O 3053   9.910   8.695   0.650  0.3781 -0.8364  0.2726
  764MOL0     C 3054   9.612   8.753   0.479  0.2268 -0.2808 -0.8515
  764MOL0     C 3055   9.474   8.767   0.481 -0.6115 -0.4406  0.6389
  764MOL0     N 3056   9.248   9.254   0.664  0.0113  0.0202 -0.1074
  764MOL0     N 3057   9.338   9.331   0.709  0.4608  0.0845 -0.3360
  764MOL0     C 3058  10.705   9.232   0.463 -0.0808  0.8550  0.9752
  764MOL0     C 3059  10.830   9.283   0.464 -1.1657 -0.5306 -0.4132
  764MOL0     C 3060  11.197   9.558   0.623  0.0355 -0.1960 -0.8462
  764MOL0     C 3061  11.296   9.451   0.634  0.5261  0.1411  1.0003
  764MOL0     C 3062  11.429   9.477   0.669  0.0530 -0.3131 -0.3398
  764MOL0     C 3063  11.468   9.607   0.704 -0.9936  0.5449 -0.0513
  764MOL0     O 3064  11.597   9.633   0.741 -0.4572  0.0520 -0.1889
  764MOL0     C 3065  11.701   9.535   0.717  0.4007  0.1112  0.4141
  764MOL0     C 3066  11.826   9.578   0.795 -0.9018 -0.4810 -0.3943
  764MOL0     C 3067  11.935   9.477   0.784 -0.0568  0.0610  1.4114
  764MOL0     C 3068  12.064   9.507   0.871  0.1984 -0.4599 -0.5863
  764MOL0     C 3069  12.150   9.391   0.890  0.1532  0.0887 -0.1172
  764MOL0     C 3070  12.223   9.292   0.878 -0.2484 -0.0420  0.1481
  764MOL0     C 3071  11.380   9.709   0.692 -0.1115 -0.2257  0.6869
  764MOL0     C 3072  11.242   9.686   0.647 -0.8994  0.0353  0.3684
  764MOL0     H 3073  10.826   9.452   0.759  3.3307  0.1990 -1.4212
  764MOL0     H 3074  10.587   9.385   0.747 -0.2309 -1.9823  1.5215
  764MOL0     H 3075  10.391   9.241   0.738  0.1777 -0.2832 -0.0566
  764MOL0     H 3076  10.383   9.397   0.654 -1.1813 -0.6943  0.7516
  764MOL0     H 3077  10.232   9.284   0.490 -1.4294 -4.8999 -1.9244
  764MOL0     H 3078  10.214   9.157   0.609  2.6884 -1.1174  0.0327
  764MOL0     H 3079  10.122   9.332   0.771  1.9761 -1.9288 -1.3282
  764MOL0     H 3080  10.168   9.463   0.662 -0.0759  0.2989  1.1741
  764MOL0     H 3081  10.002   9.386   0.483 -2.8417 -1.2954 -1.3243
  764MOL0     H 3082   9.968   9.245   0.585  0.0144  1.0759  2.2366
  764MOL0     H 3083   9.893   9.398   0.765 -1.9222  1.6523  0.3628
  764MOL0     H 3084   9.908   9.534   0.668 -1.8272  0.7320  4.7801
  764MOL0     H 3085   9.749   9.448   0.502 -0.5995  0.0648  1.2827
  764MOL0     H 3086   9.733   9.289   0.588 -4.7340  0.7800  4.7996
  764MOL0     H 3087   9.631   9.403   0.773  0.1635  2.4034  0.6294
  764MOL0     H 3088   9.678   9.559   0.727  0.8502 -0.0398 -0.4982
  764MOL0     H 3089   9.524   9.530   0.518  1.5184 -1.8390  0.0182
  764MOL0     H 3090   9.456   9.557   0.679  0.4955 -0.0572 -0.4316
  764MOL0     H 3091   9.418   9.342   0.387  0.7713 -3.3646  0.2056
  764MOL0     H 3092   9.069   9.192   0.457 -0.8953 -0.7875 -1.5818
  764MOL0     H 3093   9.182   9.216   0.328 -0.2713 -0.1811  0.2521
  764MOL0     H 3094   9.328   9.009   0.413  0.7295 -0.6466 -0.3994
  764MOL0     H 3095   9.175   8.964   0.343  3.1816 -0.2268 -1.0334
  764MOL0     H 3096   9.108   8.992   0.618 -0.9423  0.9618 -0.4073
  764MOL0     H 3097   9.282   8.965   0.622 -1.6072  1.0172  0.4843
  764MOL0     H 3098   9.203   8.760   0.446 -0.1178 -2.8291  0.0960
  764MOL0     H 3099   9.083   8.767   0.578 -0.2096  1.0473  0.2064
  764MOL0     H 3100   9.428   8.628   0.787 -0.9352 -1.3189  0.3557
  764MOL0     H 3101   9.643   8.585   0.899 -1.6536  0.1428 -0.9122
  764MOL0     H 3102   9.767   8.517   0.786  0.5590  0.4088  1.1945
  764MOL0     H 3103   9.770   8.680   0.844 -0.4453  2.0433 -2.1911
  764MOL0     H 3104  10.011   8.532   0.265  0.5025 -0.5311 -0.4708
  764MOL0     H 3105  10.247   8.556   0.196 -0.1533 -1.0655  0.2891
  764MOL0     H 3106  10.381   8.923   0.174  0.4861  2.1609  3.2147
  764MOL0     H 3107  10.472   8.920   0.318  0.5942 -1.2177  1.7723
  764MOL0     H 3108  10.568   8.798   0.052  4.8326 -2.2766 -0.2195
  764MOL0     H 3109  10.615   8.955   0.128 -0.1771  0.3329 -2.1663
  764MOL0     H 3110  10.687   8.666   0.213 -0.6876  0.3767 -0.3636
  764MOL0     H 3111  10.698   8.804   0.322 -0.5236  2.0052 -0.7271
  764MOL0     H 3112  10.823   8.798   0.039 -2.3833  1.6628  0.2311
  764MOL0     H 3113  10.836   8.923   0.167 -4.8395 -0.4185 -0.5012
  764MOL0     H 3114  10.929   8.628   0.224  0.0441 -0.4088  3.0520
  764MOL0     H 3115  10.942   8.780   0.312 -2.3925  1.7621 -0.3810
  764MOL0     H 3116  11.129   8.854   0.184 -0.4983  0.3537  0.3333
  764MOL0     H 3117  11.152   8.680   0.172 -0.4939 -0.2599  2.0187
  764MOL0     H 3118  11.199   8.819  -0.039  0.0874 -1.3498 -0.0336
  764MOL0     H 3119  11.039   8.883  -0.033 -1.0278  0.1459  0.3510
  764MOL0     H 3120  11.053   8.704  -0.203  0.1110  1.7831  0.4716
  764MOL0     H 3121  10.948   8.658  -0.080 -0.3642  0.1947 -0.5872
  764MOL0     H 3122  10.292   8.900   0.445  0.4019 -1.3991  0.0276
  764MOL0     H 3123  10.047   8.877   0.526  0.4367  2.6579 -2.0508
  764MOL0     H 3124   9.667   8.792   0.394  2.1686 -0.6080  0.1836
  764MOL0     H 3125   9.434   8.819   0.394  0.7665 -1.0731 -0.4104
  764MOL0     H 3126  10.671   9.183   0.373 -0.3523  0.6727  1.1769
  764MOL0     H 3127  10.892   9.265   0.377 -1.7674 -0.3005 -0.9024
  764MOL0     H 3128  11.250   9.357   0.607 -0.7595  1.7236 -2.9643
  764MOL0     H 3129  11.496   9.391   0.663 -0.3600 -0.6175 -0.5942
  764MOL0     H 3130  11.676   9.433   0.749  0.2490 -0.3486 -1.1180
  764MOL0     H 3131  11.724   9.513   0.612  0.3126  1.7544  0.0349
  764MOL0     H 3132  11.802   9.601   0.899 -0.1333 -1.1210 -0.0671
  764MOL0     H 3133  11.850   9.677   0.755 -3.6441  0.7905  0.8565
  764MOL0     H 3134  11.976   9.475   0.683 -2.3901 -0.6155  0.4300
  764MOL0     H 3135  11.902   9.379   0.819 -0.8656 -0.1152  0.1956
  764MOL0     H 3136  12.036   9.538   0.973 -2.3884  0.5367 -1.5133
  764MOL0     H 3137  12.116   9.581   0.811 -1.0245 -0.0071 -1.1210
  764MOL0     H 3138  12.256   9.194   0.854  0.1735 -0.1150  0.9887
  764MOL0     H 3139  11.405   9.814   0.705  0.2615 -0.1887 -0.2305
  764MOL0     H 3140  11.182   9.775   0.632  0.8134  1.0346 -0.8356
  765MOL0     O 3141   7.684   6.580  10.377 -0.0228  0.3049 -0.0002
  765MOL0     C 3142   7.624   6.678  10.414  0.5536  0.1028  0.6041
  765MOL0     O 3143   7.683   6.783  10.476 -0.5047 -0.4689 -0.0495
  765MOL0     C 3144   7.808   6.766  10.523  0.6523 -0.0597 -0.5404
  765MOL0     C 3145   7.838   6.698  10.645 -0.0613  0.7968 -0.7389
  765MOL0     C 3146   7.973   6.695  10.691  1.5197 -1.1167 -0.2290
  765MOL0     C 3147   8.077   6.765  10.627  0.0609  0.0127  0.2749
  765MOL0     O 3148   8.203   6.765  10.675  0.1624 -0.3624  0.6003
  765MOL0     C 3149   8.302   6.716  10.585  0.3091  1.0175  0.3205
  765MOL0     C 3150   8.423   6.691  10.665 -0.1048  0.0446  0.5146
  765MOL0     C 3151   8.512   6.817  10.673  0.3707  0.3022  0.2824
  765MOL0     C 3152   8.649   6.780  10.738 -0.2417 -0.0144  0.4782
  765MOL0     C 3153   8.647   6.757  10.889 -0.0525 -0.6936  0.1128
  765MOL0     C 3154   8.789   6.715  10.934 -0.3482 -0.4928 -0.8313
  765MOL0     C 3155   8.780   6.712  11.086  1.2683 -0.2606  0.0884
  765MOL0     C 3156   8.909   6.693  11.150  0.3097  0.5417  0.7874
  765MOL0     N 3157   9.008   6.794  11.136 -0.0648 -0.4456 -0.8500
  765MOL0     C 3158   9.011   6.896  11.229  0.6849  0.5339  0.3228
  765MOL0     C 3159   9.118   6.964  11.195 -0.3586  0.6144  0.2935
  765MOL0     C 3160   9.183   7.059  11.286 -0.5475 -0.7142  0.0608
  765MOL0     C 3161   9.314   7.022  11.352 -0.1887  0.4902 -0.6865
  765MOL0     C 3162   9.302   6.901  11.442 -0.4024  0.2674 -0.3630
  765MOL0     C 3163   9.413   6.889  11.538 -1.1468  0.1982 -0.6930
  765MOL0     O 3164   9.442   6.757  11.586  0.7575  0.7638 -0.1337
  765MOL0     C 3165   9.352   6.685  11.674 -0.3119 -1.1171  0.4321
  765MOL0     C 3166   9.255   6.744  11.753 -0.5929 -0.9007  0.2421
  765MOL0     C 3167   9.182   6.679  11.849 -0.1909 -0.0025 -0.0742
  765MOL0     C 3168   9.081   6.756  11.928 -0.0141  0.2118 -0.3572
  765MOL0     C 3169   9.197   6.536  11.852  0.7757 -0.0179  0.4977
  765MOL0     C 3170   9.121   6.452  11.944  0.4785  0.7414  0.7592
  765MOL0     O 3171   9.053   6.358  11.890  0.2720 -0.4489 -0.1367
  765MOL0     C 3172   8.943   6.311  11.959 -0.0383 -0.0526  0.4558
  765MOL0     C 3173   8.823   6.382  11.987 -0.2865  0.0724 -0.0931
  765MOL0     C 3174   8.710   6.313  12.038  0.0467  0.2048  0.0159
  765MOL0     C 3175   8.728   6.175  12.070  0.2005  0.5087 -0.2228
  765MOL0     O 3176   8.617   6.114  12.100  0.2260 -0.7835 -0.8378
  765MOL0     C 3177   8.608   6.023  12.216  0.2081 -0.0573  0.2792
  765MOL0     C 3178   8.473   6.046  12.288 -0.5805 -0.4118 -1.0537
  765MOL0     C 3179   8.356   6.058  12.185  0.1950 -0.4438 -0.3592
  765MOL0     C 3180   8.219   6.105  12.251 -0.3055 -0.2883 -0.2866
  765MOL0     C 3181   8.103   6.102  12.142  0.0537 -0.3237 -0.8612
  765MOL0     C 3182   7.965   6.126  12.196  0.4905 -0.0777 -0.4192
  765MOL0     C 3183   7.856   6.149  12.088  0.3789  0.4876 -0.2077
  765MOL0     C 3184   7.717   6.137  12.142  0.4228 -0.3138 -0.8683
  765MOL0    Cl 3185   7.665   6.251  12.274  0.3268 -0.2146  0.0147
  765MOL0     C 3186   8.858   6.116  12.072 -0.7161  0.5876 -0.7268
  765MOL0     C 3187   8.960   6.189  12.014  0.9247  0.4165  0.4258
  765MOL0     O 3188   9.139   6.484  12.064  0.0751  0.4095 -0.2334
  765MOL0     C 3189   9.289   6.473  11.770 -0.6893 -0.4401  0.7277
  765MOL0     C 3190   9.373   6.547  11.686  0.7620 -0.6181 -0.3277
  765MOL0     N 3191   9.177   6.906  11.082 -0.7858  0.6633  0.8439
  765MOL0     N 3192   9.113   6.799  11.052  0.5790  0.3095  0.3913
  765MOL0     C 3193   8.051   6.826  10.504 -0.5345 -0.2093 -0.1087
  765MOL0     C 3194   7.918   6.828  10.457 -0.0601  0.4497  0.8966
  765MOL0     C 3195   7.475   6.688  10.385 -0.1316 -0.6264  0.1843
  765MOL0     C 3196   7.405   6.805  10.406  0.2888 -0.5649  0.7611
  765MOL0     C 3197   7.269   6.815  10.391  0.0904  0.1885  0.8057
  765MOL0     C 3198   7.194   6.704  10.353 -0.4088 -0.1924  0.1948
  765MOL0     O 3199   7.056   6.702  10.347  0.6088  0.7441  0.1638
  765MOL0     C 3200   6.993   6.825  10.338  0.2735  0.3201 -0.3291
  765MOL0     C 3201   6.850   6.800  10.319  0.1874  0.2458 -0.5548
  765MOL0     C 3202   6.791   6.720  10.439  0.5001  0.0750 -0.7548
  765MOL0     C 3203   6.813   6.780  10.578 -0.6919 -0.1393 -0.0444
  765MOL0     C 3204   6.772   6.921  10.591  0.9058  0.8633  0.9307
  765MOL0     C 3205   6.736   7.036  10.594 -0.1569 -0.1851  0.2812
  765MOL0     C 3206   7.267   6.588  10.326  1.0190 -0.3773 -0.2889
  765MOL0     C 3207   7.402   6.567  10.342 -0.4911 -0.4817 -0.4590
  765MOL0     H 3208   7.762   6.647  10.704  1.3385 -0.3407  0.1527
  765MOL0     H 3209   8.002   6.635  10.777  0.4860 -1.9462 -0.4492
  765MOL0     H 3210   8.264   6.617  10.559 -2.1162  1.6144  1.2684
  765MOL0     H 3211   8.330   6.788  10.508  0.1967  0.8222  0.0987
  765MOL0     H 3212   8.394   6.664  10.767  0.5314 -0.6260  0.5194
  765MOL0     H 3213   8.480   6.607  10.624  0.7451  1.6785 -1.8833
  765MOL0     H 3214   8.537   6.853  10.573  2.6862 -1.8241  0.0172
  765MOL0     H 3215   8.470   6.905  10.723  0.4452  0.3419  0.2762
  765MOL0     H 3216   8.683   6.687  10.690 -1.0200  0.8699 -1.9685
  765MOL0     H 3217   8.725   6.853  10.711 -0.5781  0.2054  0.1149
  765MOL0     H 3218   8.603   6.844  10.938 -1.3443 -1.1290 -0.2362
  765MOL0     H 3219   8.580   6.673  10.908 -1.9168  1.1006  1.9339
  765MOL0     H 3220   8.832   6.623  10.893  0.6984 -1.0010  1.2794
  765MOL0     H 3221   8.851   6.796  10.895 -0.9644  1.4627  1.9900
  765MOL0     H 3222   8.738   6.808  11.117  1.6107 -0.6532  1.8550
  765MOL0     H 3223   8.709   6.630  11.099 -1.0777  1.4215 -1.2754
  765MOL0     H 3224   8.952   6.605  11.100  0.1970  0.6224  0.5501
  765MOL0     H 3225   8.903   6.677  11.258  0.1626 -1.4381  0.5184
  765MOL0     H 3226   8.944   6.920  11.310 -0.0972  1.6115 -0.6210
  765MOL0     H 3227   9.197   7.144  11.218 -1.3541 -0.8606 -0.3048
  765MOL0     H 3228   9.106   7.085  11.359 -1.3592  0.5878 -1.2010
  765MOL0     H 3229   9.346   7.113  11.404 -0.4517  2.0674 -3.0696
  765MOL0     H 3230   9.387   6.995  11.275 -0.2757  1.0835 -0.9810
  765MOL0     H 3231   9.308   6.812  11.379  3.1516 -0.6697  1.1030
  765MOL0     H 3232   9.210   6.902  11.501 -0.6036  2.4317 -0.6083
  765MOL0     H 3233   9.396   6.963  11.617 -1.2942  0.3523 -0.8697
  765MOL0     H 3234   9.508   6.908  11.487 -0.3736  0.3213  0.7333
  765MOL0     H 3235   9.222   6.845  11.731 -2.1680 -1.3000  0.5974
  765MOL0     H 3236   9.127   6.783  12.024 -1.3776 -0.1812  0.4302
  765MOL0     H 3237   9.065   6.855  11.884  0.1779  0.5875  0.3857
  765MOL0     H 3238   8.991   6.697  11.949  2.4177 -2.5016  3.9040
  765MOL0     H 3239   8.806   6.488  11.970 -2.1281  0.0077  1.0059
  765MOL0     H 3240   8.612   6.360  12.036 -0.3197 -0.5391  0.2195
  765MOL0     H 3241   8.603   5.919  12.185 -1.4600 -0.5574  2.0358
  765MOL0     H 3242   8.692   6.047  12.282  0.6246 -0.5877 -0.0520
  765MOL0     H 3243   8.455   5.956  12.349 -1.1275 -0.4520 -1.2713
  765MOL0     H 3244   8.484   6.130  12.358  0.5452 -2.9824  2.1477
  765MOL0     H 3245   8.313   5.966  12.146 -2.0473  0.2568  0.3054
  765MOL0     H 3246   8.385   6.128  12.106  2.2422  1.0215  1.5445
  765MOL0     H 3247   8.205   6.038  12.336  0.8134 -0.2452 -0.0534
  765MOL0     H 3248   8.224   6.206  12.294 -1.3299 -0.5395  0.4654
  765MOL0     H 3249   8.100   6.012  12.080  1.1805 -2.3720  1.8397
  765MOL0     H 3250   8.121   6.178  12.065  0.6811  0.9042  0.4568
  765MOL0     H 3251   7.937   6.039  12.256  1.4860  0.8185  1.4436
  765MOL0     H 3252   7.975   6.209  12.266  0.1781  0.2428 -0.7453
  765MOL0     H 3253   7.887   6.076  12.013 -0.7963 -1.8686  1.4798
  765MOL0     H 3254   7.856   6.253  12.053 -2.3798  0.1340 -1.4855
  765MOL0     H 3255   7.701   6.033  12.173 -1.6578 -0.4646 -2.1905
  765MOL0     H 3256   7.644   6.128  12.060 -1.8592  1.4151  0.8649
  765MOL0     H 3257   8.875   6.024  12.126  0.4548  2.1773  1.7381
  765MOL0     H 3258   9.060   6.149  12.009  0.3657 -1.0111  0.2954
  765MOL0     H 3259   9.302   6.365  11.768  0.7446 -0.3313  2.1821
  765MOL0     H 3260   9.456   6.495  11.639  0.7422  0.8238 -2.0490
  765MOL0     H 3261   8.142   6.860  10.456 -0.9545  1.0843 -0.0283
  765MOL0     H 3262   7.894   6.886  10.368 -1.4959  0.2026  1.0939
  765MOL0     H 3263   7.464   6.891  10.436  1.7418 -0.6582 -1.5251
  765MOL0     H 3264   7.214   6.909  10.391 -1.3776 -0.6291  0.1758
  765MOL0     H 3265   7.019   6.903  10.409 -0.8530 -0.5644  1.1237
  765MOL0     H 3266   7.022   6.874  10.244 -1.0392 -1.3432 -1.6683
  765MOL0     H 3267   6.842   6.743  10.226  0.8026 -1.4575  0.3883
  765MOL0     H 3268   6.800   6.895  10.303 -3.1436 -1.3323 -0.4288
  765MOL0     H 3269   6.840   6.623  10.444  0.3286  0.0532  1.7187
  765MOL0     H 3270   6.685   6.701  10.419  0.6928 -1.1749 -0.6663
  765MOL0     H 3271   6.918   6.769  10.607 -1.1701  0.8734  2.2120
  765MOL0     H 3272   6.757   6.727  10.656  0.5883  1.3221  1.9476
  765MOL0     H 3273   6.705   7.139  10.599 -0.8066 -0.1457 -2.8069
  765MOL0     H 3274   7.201   6.513  10.283 -1.0813  0.7944  0.7408
  765MOL0     H 3275   7.451   6.470  10.338  1.5231  0.4440  0.2326
  766MOL0     O 3276   7.428   3.192   8.697  0.0174 -0.4104  0.6832
  766MOL0     C 3277   7.509   3.125   8.636  0.1155  0.1861  0.2600
  766MOL0     O 3278   7.488   3.007   8.555  0.6119 -0.8481  0.8199
  766MOL0     C 3279   7.368   2.945   8.583  0.4919  0.2742 -0.0618
  766MOL0     C 3280   7.371   2.819   8.642 -0.1660  0.2445 -0.0959
  766MOL0     C 3281   7.262   2.754   8.690  0.7098  0.2582 -0.4308
  766MOL0     C 3282   7.131   2.803   8.662 -0.8964  0.5739  0.1114
  766MOL0     O 3283   7.023   2.725   8.697 -0.1341  0.2011  0.1414
  766MOL0     C 3284   6.926   2.792   8.779 -0.5702  0.9448  0.4518
  766MOL0     C 3285   6.834   2.688   8.843  0.9643 -0.4413 -0.1570
  766MOL0     C 3286   6.751   2.624   8.735  0.4814 -0.3935 -0.3012
  766MOL0     C 3287   6.660   2.520   8.818 -0.3601  0.8491 -0.6402
  766MOL0     C 3288   6.555   2.447   8.730 -0.4094 -0.0584 -0.9845
  766MOL0     C 3289   6.430   2.531   8.721  0.4425  0.6087 -0.3417
  766MOL0     C 3290   6.327   2.445   8.649  0.7912  0.5560 -0.1124
  766MOL0     C 3291   6.180   2.487   8.647  0.8424 -0.7575  0.5408
  766MOL0     N 3292   6.120   2.519   8.778 -0.7181 -0.1318  0.7084
  766MOL0     C 3293   6.129   2.441   8.886 -0.2255  0.6628 -0.3688
  766MOL0     C 3294   6.058   2.513   8.973 -0.7741  0.9073  0.0043
  766MOL0     C 3295   6.031   2.473   9.109  0.2204 -0.3492 -0.0742
  766MOL0     C 3296   5.892   2.391   9.126  0.0394 -0.2966 -0.0905
  766MOL0     C 3297   5.861   2.366   9.265 -0.4064  0.0539 -0.2121
  766MOL0     C 3298   5.810   2.483   9.360 -0.3714 -1.3472 -0.1381
  766MOL0     O 3299   5.711   2.566   9.289  0.8130  0.1008 -0.8741
  766MOL0     C 3300   5.580   2.539   9.316  0.5575 -0.0514 -0.0074
  766MOL0     C 3301   5.489   2.648   9.311 -0.4557 -0.3724 -0.7313
  766MOL0     C 3302   5.349   2.638   9.338 -0.5904  0.9155  0.2850
  766MOL0     C 3303   5.271   2.760   9.345 -0.0944  0.3183  0.2170
  766MOL0     C 3304   5.307   2.509   9.375  0.1584  0.6001  0.2887
  766MOL0     C 3305   5.164   2.465   9.395 -0.5874  0.4798  0.2290
  766MOL0     O 3306   5.141   2.331   9.396  0.2257  0.3831  0.0917
  766MOL0     C 3307   5.012   2.279   9.384 -0.6468 -0.2892  0.4990
  766MOL0     C 3308   4.895   2.334   9.436  0.0525  0.3539 -0.3229
  766MOL0     C 3309   4.775   2.270   9.426 -0.8625 -0.0989  0.1557
  766MOL0     C 3310   4.760   2.154   9.349  0.2602 -0.0778 -0.2949
  766MOL0     O 3311   4.638   2.085   9.342  0.0714 -1.0113 -0.3925
  766MOL0     C 3312   4.596   2.048   9.214 -0.2958  0.4416  0.3801
  766MOL0     C 3313   4.488   1.943   9.223  0.9003 -0.6772  0.4582
  766MOL0     C 3314   4.348   2.007   9.236  0.1390 -0.4360  0.0295
  766MOL0     C 3315   4.343   2.104   9.348  0.0237  0.4333 -0.1492
  766MOL0     C 3316   4.207   2.115   9.411 -0.4231 -0.0168 -0.3051
  766MOL0     C 3317   4.099   2.192   9.334  0.2044 -0.3492  0.5128
  766MOL0     C 3318   3.960   2.218   9.401 -1.1268  0.9725  0.2370
  766MOL0     C 3319   3.889   2.328   9.327 -0.5402 -0.3801  0.2996
  766MOL0    Cl 3320   3.711   2.303   9.339  0.0230 -0.3642  0.1638
  766MOL0     C 3321   4.879   2.104   9.295 -0.0070  0.1915  0.4466
  766MOL0     C 3322   5.002   2.162   9.311  0.8788  0.1604  0.5314
  766MOL0     O 3323   5.075   2.548   9.386  0.7586 -0.1053 -0.6924
  766MOL0     C 3324   5.392   2.404   9.387  0.5218  0.9174  0.3924
  766MOL0     C 3325   5.526   2.413   9.358 -0.8286  0.2288  0.3931
  766MOL0     N 3326   6.015   2.629   8.919 -0.7250  0.0154  0.7196
  766MOL0     N 3327   6.058   2.635   8.798 -0.6362 -0.0805 -0.4236
  766MOL0     C 3328   7.121   2.927   8.598  0.6972 -0.9002 -0.1487
  766MOL0     C 3329   7.232   2.994   8.558 -0.2509 -0.2678 -0.6476
  766MOL0     C 3330   7.652   3.169   8.619 -0.1872 -0.0389  0.6420
  766MOL0     C 3331   7.698   3.296   8.652  0.1519 -0.3732 -0.6934
  766MOL0     C 3332   7.830   3.341   8.640 -0.2359  0.6783 -0.6398
  766MOL0     C 3333   7.930   3.248   8.588 -0.2629  0.3098 -0.5072
  766MOL0     O 3334   8.059   3.271   8.572 -0.4517 -0.6088 -0.2287
  766MOL0     C 3335   8.126   3.369   8.655 -0.0399 -0.1375 -0.2716
  766MOL0     C 3336   8.269   3.406   8.618  0.6664 -0.0770 -0.1337
  766MOL0     C 3337   8.281   3.428   8.470 -0.2139 -0.1225 -1.2040
  766MOL0     C 3338   8.417   3.494   8.427 -0.0411  0.7277  0.4836
  766MOL0     C 3339   8.396   3.543   8.294 -0.3048 -0.5426  0.6902
  766MOL0     C 3340   8.366   3.577   8.185 -0.2795  0.5303 -0.4349
  766MOL0     C 3341   7.887   3.121   8.554  1.2188  0.3815 -0.2450
  766MOL0     C 3342   7.754   3.079   8.575 -0.3990 -0.1669 -0.5907
  766MOL0     H 3343   7.468   2.776   8.663 -0.3288 -0.8241 -1.3473
  766MOL0     H 3344   7.263   2.657   8.739  0.3908  1.4127  1.9868
  766MOL0     H 3345   6.966   2.845   8.866 -0.0019 -1.4129  1.7133
  766MOL0     H 3346   6.868   2.855   8.711 -0.9648 -2.3611 -2.5689
  766MOL0     H 3347   6.893   2.611   8.893 -0.5439 -1.1289  0.6313
  766MOL0     H 3348   6.777   2.737   8.923 -0.2254  0.0351 -1.2544
  766MOL0     H 3349   6.690   2.703   8.690  0.1165 -0.9395 -0.7819
  766MOL0     H 3350   6.815   2.584   8.657 -0.4916 -1.2411 -0.6877
  766MOL0     H 3351   6.721   2.446   8.871 -0.0180  1.3909 -0.2691
  766MOL0     H 3352   6.606   2.571   8.898 -2.8278 -0.8227 -1.1283
  766MOL0     H 3353   6.585   2.425   8.627 -0.2710 -2.0630 -0.5569
  766MOL0     H 3354   6.536   2.351   8.780 -1.5228  1.2692  1.3189
  766MOL0     H 3355   6.386   2.550   8.819 -3.3217 -0.1387 -1.7155
  766MOL0     H 3356   6.447   2.624   8.666 -0.2392  2.1238  1.8895
  766MOL0     H 3357   6.364   2.420   8.549  1.1354 -5.5804  1.1273
  766MOL0     H 3358   6.314   2.345   8.692 -0.9439  1.4672  1.6340
  766MOL0     H 3359   6.121   2.407   8.602  1.4413 -0.5139 -0.7182
  766MOL0     H 3360   6.167   2.577   8.586 -1.2927 -0.8926  0.6899
  766MOL0     H 3361   6.184   2.348   8.890 -0.2292  0.6480  3.5149
  766MOL0     H 3362   6.107   2.406   9.152 -1.2095 -1.3114  1.0635
  766MOL0     H 3363   6.039   2.562   9.172  4.3588 -0.1561 -0.5575
  766MOL0     H 3364   5.906   2.298   9.070 -0.3008 -0.1103 -0.4911
  766MOL0     H 3365   5.809   2.446   9.080  0.2631 -0.2986 -0.5047
  766MOL0     H 3366   5.951   2.318   9.305 -0.3230  0.0012 -0.4610
  766MOL0     H 3367   5.792   2.281   9.268 -0.1585 -0.1499  2.5658
  766MOL0     H 3368   5.888   2.554   9.387 -2.0180  0.0160  1.3090
  766MOL0     H 3369   5.770   2.434   9.450 -1.2072  0.8449  0.7625
  766MOL0     H 3370   5.532   2.747   9.297  1.4515 -0.3836  3.4966
  766MOL0     H 3371   5.233   2.765   9.447 -0.3504  1.7992  0.0742
  766MOL0     H 3372   5.328   2.850   9.318  0.5025 -0.6265 -1.9478
  766MOL0     H 3373   5.182   2.755   9.282  1.0282  1.5707 -1.5899
  766MOL0     H 3374   4.895   2.423   9.498 -2.8418  1.1881 -1.3573
  766MOL0     H 3375   4.695   2.324   9.475  1.1740  2.0026  1.3968
  766MOL0     H 3376   4.576   2.135   9.151  1.0106  1.3481  1.1617
  766MOL0     H 3377   4.676   1.989   9.167  1.3769  0.5833  2.8223
  766MOL0     H 3378   4.491   1.888   9.128 -0.9509 -0.2828  0.1322
  766MOL0     H 3379   4.510   1.883   9.311 -0.6428 -0.1348  1.2507
  766MOL0     H 3380   4.280   1.927   9.265  0.2033 -0.7209 -0.5914
  766MOL0     H 3381   4.318   2.067   9.150  1.5480 -0.6595 -0.6540
  766MOL0     H 3382   4.418   2.075   9.423  1.3195  2.4114 -0.5951
  766MOL0     H 3383   4.379   2.205   9.327  0.5924  0.6694  1.7202
  766MOL0     H 3384   4.220   2.183   9.496  0.3479 -2.2245  1.4461
  766MOL0     H 3385   4.167   2.023   9.455 -1.0940  0.6011  0.4244
  766MOL0     H 3386   4.143   2.286   9.299 -0.7097 -1.1520 -3.2341
  766MOL0     H 3387   4.078   2.133   9.245  1.8310  0.6482 -0.5793
  766MOL0     H 3388   3.980   2.253   9.503 -1.9551 -1.4567  1.3107
  766MOL0     H 3389   3.900   2.127   9.402 -1.6712  1.3041 -0.4863
  766MOL0     H 3390   3.909   2.328   9.219  0.6388 -2.1005  0.4739
  766MOL0     H 3391   3.926   2.424   9.364  0.4572 -1.3069  1.8155
  766MOL0     H 3392   4.873   2.007   9.246 -1.9124  0.7593 -0.5467
  766MOL0     H 3393   5.090   2.119   9.264 -1.2558 -0.8588 -2.8290
  766MOL0     H 3394   5.361   2.303   9.411 -0.5571  0.4581 -2.4880
  766MOL0     H 3395   5.590   2.328   9.378  0.3994  1.6401  2.9875
  766MOL0     H 3396   7.023   2.967   8.574  0.4117 -0.8456  1.0463
  766MOL0     H 3397   7.223   3.083   8.496 -0.5304 -0.5851 -1.0749
  766MOL0     H 3398   7.626   3.366   8.693  3.0177  1.1837  2.1419
  766MOL0     H 3399   7.847   3.442   8.677 -0.2389 -0.1890  1.9344
  766MOL0     H 3400   8.059   3.454   8.641 -1.7107 -1.6698 -2.4608
  766MOL0     H 3401   8.130   3.335   8.759  2.3125 -0.8710 -0.5354
  766MOL0     H 3402   8.331   3.326   8.661 -1.8295 -1.5854  0.8511
  766MOL0     H 3403   8.296   3.499   8.669 -0.6915  0.2352  0.0533
  766MOL0     H 3404   8.191   3.477   8.432  0.9607  1.4986 -1.9984
  766MOL0     H 3405   8.281   3.328   8.427 -4.5609 -1.6096  1.6306
  766MOL0     H 3406   8.495   3.417   8.420 -0.2783  0.5992 -1.0887
  766MOL0     H 3407   8.446   3.578   8.491 -0.5905  1.6355 -0.4108
  766MOL0     H 3408   8.338   3.602   8.084 -0.9037  3.2122  0.3181
  766MOL0     H 3409   7.959   3.051   8.512  3.1589  2.6004 -0.8463
  766MOL0     H 3410   7.737   2.975   8.550 -1.0244  0.0363 -1.0299
  767MOL0     O 3411   5.195   0.453   0.403  0.2168 -0.4858  0.1237
  767MOL0     C 3412   5.148   0.342   0.435  0.0761  0.3646  0.3583
  767MOL0     O 3413   5.197   0.269   0.536  0.0415  0.4067  0.2303
  767MOL0     C 3414   5.310   0.309   0.609  0.5588 -0.3581  0.9904
  767MOL0     C 3415   5.430   0.235   0.615  0.2810 -0.4347  0.6263
  767MOL0     C 3416   5.509   0.263   0.723  0.0292 -0.5325  0.2252
  767MOL0     C 3417   5.475   0.367   0.826  0.3342  0.3076 -0.2752
  767MOL0     O 3418   5.542   0.396   0.936 -0.1306 -0.5803 -0.0065
  767MOL0     C 3419   5.684   0.379   0.921 -0.2776 -0.7383  0.2417
  767MOL0     C 3420   5.774   0.424   1.036  0.0259  0.8322 -0.6454
  767MOL0     C 3421   5.760   0.575   1.062 -0.4002 -0.1683 -0.0270
  767MOL0     C 3422   5.833   0.623   1.188  0.6281 -0.1199  0.9436
  767MOL0     C 3423   5.832   0.782   1.194 -0.1553  0.0831  0.7275
  767MOL0     C 3424   5.868   0.839   1.335  0.1489 -0.1390  0.6326
  767MOL0     C 3425   6.027   0.826   1.350  0.2638 -0.7496 -0.1429
  767MOL0     C 3426   6.063   0.892   1.479 -0.2790 -1.1078  0.3805
  767MOL0     N 3427   6.211   0.876   1.499  0.1336 -0.9635  0.5129
  767MOL0     C 3428   6.288   0.968   1.559 -0.2599  0.0403 -0.5307
  767MOL0     C 3429   6.407   0.907   1.579  0.3255 -0.8301 -0.1991
  767MOL0     C 3430   6.531   0.960   1.633 -0.2477 -0.1052 -1.1223
  767MOL0     C 3431   6.657   0.891   1.590  0.0225  0.1906 -0.6358
  767MOL0     C 3432   6.779   0.968   1.644  0.3527 -0.7325  0.7065
  767MOL0     C 3433   6.904   0.883   1.667  0.6656 -0.9770 -0.0903
  767MOL0     O 3434   6.988   0.939   1.768 -0.4271 -0.0832  0.3420
  767MOL0     C 3435   7.089   1.028   1.738 -0.0725 -0.1864  0.4961
  767MOL0     C 3436   7.147   1.041   1.616  0.0868  0.4958 -0.5093
  767MOL0     C 3437   7.257   1.127   1.602 -0.2131 -0.4914  0.1304
  767MOL0     C 3438   7.335   1.122   1.466 -0.2143 -0.2079 -0.6021
  767MOL0     C 3439   7.293   1.228   1.696  0.0242  1.3370 -0.1152
  767MOL0     C 3440   7.414   1.318   1.683 -0.5381  0.3798  0.5174
  767MOL0     O 3441   7.441   1.394   1.794 -0.6909  0.3963  0.1406
  767MOL0     C 3442   7.565   1.466   1.801  0.3158  0.3241 -0.7229
  767MOL0     C 3443   7.564   1.602   1.816  0.1770 -0.9831 -0.1711
  767MOL0     C 3444   7.674   1.681   1.804 -0.0728 -0.1565  0.8432
  767MOL0     C 3445   7.802   1.626   1.774 -0.1008 -0.8769  0.5956
  767MOL0     O 3446   7.906   1.715   1.786  0.4720 -0.1439  0.1766
  767MOL0     C 3447   8.036   1.674   1.802 -0.6608  0.3634 -0.0473
  767MOL0     C 3448   8.128   1.800   1.796  0.3576 -0.7113  0.0331
  767MOL0     C 3449   8.203   1.797   1.662  0.0872 -0.4234  0.7097
  767MOL0     C 3450   8.354   1.762   1.668 -0.8958 -0.5405  0.7814
  767MOL0     C 3451   8.389   1.614   1.693  0.1981  0.8165  0.1827
  767MOL0     C 3452   8.520   1.596   1.775  0.3123  0.6784 -0.2789
  767MOL0     C 3453   8.650   1.641   1.707 -0.2349  0.6308 -0.0337
  767MOL0     C 3454   8.663   1.551   1.575 -0.2553  0.4276  0.1577
  767MOL0    Cl 3455   8.787   1.609   1.463  0.2850  0.2004  0.6427
  767MOL0     C 3456   7.802   1.479   1.765  0.5745 -0.4506 -0.1072
  767MOL0     C 3457   7.689   1.400   1.764  1.4805 -1.4652 -0.5727
  767MOL0     O 3458   7.474   1.332   1.576  0.0398 -0.2613  0.8503
  767MOL0     C 3459   7.222   1.215   1.818  0.2787  0.5080 -0.4797
  767MOL0     C 3460   7.121   1.119   1.841  0.2055  0.2950  0.7304
  767MOL0     N 3461   6.403   0.775   1.545 -0.1962  1.0368  0.2597
  767MOL0     N 3462   6.285   0.759   1.504  0.5736  0.1941 -0.2123
  767MOL0     C 3463   5.356   0.442   0.807 -0.6058  0.0286  0.5089
  767MOL0     C 3464   5.276   0.410   0.699  0.3942 -0.5826 -0.2781
  767MOL0     C 3465   5.031   0.297   0.358  0.5170  0.7254  0.4310
  767MOL0     C 3466   4.961   0.379   0.263  0.1808  0.3123  1.4204
  767MOL0     C 3467   4.846   0.326   0.203 -0.5663  0.0674  0.1984
  767MOL0     C 3468   4.797   0.195   0.234  0.3427 -0.0562 -0.1830
  767MOL0     O 3469   4.678   0.155   0.169  0.0839 -0.2253 -0.4457
  767MOL0     C 3470   4.619   0.027   0.209 -0.4991 -0.2844  0.6756
  767MOL0     C 3471   4.468   0.026   0.174 -0.3141 -0.9153  0.0262
  767MOL0     C 3472   4.387   0.137   0.231 -0.0234  0.0522 -0.6694
  767MOL0     C 3473   4.232   0.123   0.202 -1.1111 -0.7582 -0.5018
  767MOL0     C 3474   4.182   0.015   0.274  0.3959  0.1910  0.1845
  767MOL0     C 3475   4.129  -0.071   0.340 -0.7201 -0.0422 -0.7129
  767MOL0     C 3476   4.870   0.125   0.333 -0.1383 -0.6586  0.2207
  767MOL0     C 3477   4.989   0.169   0.386  0.0789  0.3321 -0.4702
  767MOL0     H 3478   5.447   0.150   0.551 -0.4242  0.7727 -1.2387
  767MOL0     H 3479   5.598   0.201   0.739 -0.2234 -0.7639  0.7743
  767MOL0     H 3480   5.700   0.272   0.907 -0.1188 -0.8406  1.1376
  767MOL0     H 3481   5.717   0.431   0.831  0.3480  1.0101  1.4278
  767MOL0     H 3482   5.735   0.372   1.125  0.4960 -1.9941 -1.9731
  767MOL0     H 3483   5.877   0.394   1.018  0.1637  0.8342  0.1003
  767MOL0     H 3484   5.795   0.629   0.974 -0.8274 -0.8593 -0.6236
  767MOL0     H 3485   5.654   0.602   1.064 -0.2929  0.5328 -1.8544
  767MOL0     H 3486   5.775   0.583   1.272 -0.9219 -1.2899 -0.6149
  767MOL0     H 3487   5.935   0.584   1.193 -0.2480 -3.6263 -3.2199
  767MOL0     H 3488   5.893   0.829   1.117 -1.2973 -0.1560 -0.3476
  767MOL0     H 3489   5.729   0.809   1.168  0.5409  0.1156 -2.2881
  767MOL0     H 3490   5.829   0.941   1.345  0.1264  0.2350 -2.3377
  767MOL0     H 3491   5.822   0.781   1.415 -0.0348  0.3058  0.8550
  767MOL0     H 3492   6.068   0.724   1.352 -0.0097 -0.9007 -1.3984
  767MOL0     H 3493   6.081   0.870   1.265 -3.8332 -0.6334 -2.9799
  767MOL0     H 3494   6.018   0.840   1.565  1.8718 -0.3547  2.0505
  767MOL0     H 3495   6.020   0.991   1.492  1.2971 -0.3692  0.1577
  767MOL0     H 3496   6.267   1.072   1.583  0.0175 -0.4630  2.2988
  767MOL0     H 3497   6.548   1.064   1.604 -0.5915  0.5744  0.9322
  767MOL0     H 3498   6.520   0.958   1.742 -1.0286 -0.5573 -1.2034
  767MOL0     H 3499   6.658   0.890   1.480  0.6794  0.7033 -0.6408
  767MOL0     H 3500   6.654   0.791   1.634  0.7132  0.8949  1.1003
  767MOL0     H 3501   6.754   1.024   1.735  2.2027  0.7313  0.3826
  767MOL0     H 3502   6.812   1.044   1.572  2.7718  0.7351  3.1590
  767MOL0     H 3503   6.955   0.868   1.571 -2.1578 -0.8470 -1.7100
  767MOL0     H 3504   6.865   0.788   1.706  1.4345 -0.6271  1.6175
  767MOL0     H 3505   7.128   0.969   1.537 -4.2400 -0.4592  1.0883
  767MOL0     H 3506   7.306   1.204   1.399  0.2619 -1.1749 -2.0346
  767MOL0     H 3507   7.443   1.127   1.483 -0.5081  0.7152  1.3051
  767MOL0     H 3508   7.327   1.034   1.402 -1.9806  0.9220 -2.0642
  767MOL0     H 3509   7.468   1.651   1.831  0.2106 -0.6428 -1.0074
  767MOL0     H 3510   7.658   1.787   1.821  2.3091  0.2108  1.1592
  767MOL0     H 3511   8.060   1.627   1.899  1.7757 -1.3311 -1.3643
  767MOL0     H 3512   8.057   1.600   1.725 -1.2604 -1.8123  1.7477
  767MOL0     H 3513   8.063   1.888   1.798 -0.5674 -1.3467  2.8903
  767MOL0     H 3514   8.198   1.820   1.878  1.5191 -0.5899 -0.9641
  767MOL0     H 3515   8.189   1.892   1.611  0.3869 -0.3610  0.7405
  767MOL0     H 3516   8.154   1.728   1.593 -1.2056 -1.4630  2.5641
  767MOL0     H 3517   8.398   1.780   1.570 -2.0551 -1.4460  0.0726
  767MOL0     H 3518   8.410   1.831   1.732  1.7248 -1.9702  0.1712
  767MOL0     H 3519   8.383   1.549   1.605  1.2288  1.5170 -0.4269
  767MOL0     H 3520   8.307   1.571   1.751 -2.6855  2.6506 -2.1915
  767MOL0     H 3521   8.520   1.664   1.860  0.8534  2.1182 -1.3864
  767MOL0     H 3522   8.530   1.494   1.813  0.1031  0.6214 -0.3790
  767MOL0     H 3523   8.743   1.641   1.764  0.9665  0.6767 -1.8835
  767MOL0     H 3524   8.641   1.743   1.669 -0.2747 -0.4525 -3.2190
  767MOL0     H 3525   8.568   1.530   1.525  0.6385 -1.3005 -0.9474
  767MOL0     H 3526   8.701   1.454   1.610  0.4508 -1.5391 -5.0799
  767MOL0     H 3527   7.898   1.433   1.742 -0.4705 -1.9111 -1.7336
  767MOL0     H 3528   7.702   1.293   1.771  0.7242 -1.4711  4.4207
  767MOL0     H 3529   7.252   1.274   1.904  0.1175  0.8504 -0.6552
  767MOL0     H 3530   7.064   1.098   1.931 -1.1085 -2.8208 -0.6654
  767MOL0     H 3531   5.333   0.527   0.870  1.4678  2.4413 -1.7695
  767MOL0     H 3532   5.195   0.482   0.687 -1.7720 -2.7953  0.2314
  767MOL0     H 3533   4.990   0.480   0.233  1.3606 -1.4816 -4.8749
  767MOL0     H 3534   4.782   0.383   0.136 -0.1266  1.1036  0.6396
  767MOL0     H 3535   4.670  -0.054   0.156  1.8041 -0.2085  2.5997
  767MOL0     H 3536   4.632   0.011   0.316  0.8802 -0.5777  0.4776
  767MOL0     H 3537   4.415  -0.067   0.197  1.3406 -1.7914  0.3760
  767MOL0     H 3538   4.467   0.037   0.065  1.0131  0.0489  0.0862
  767MOL0     H 3539   4.411   0.232   0.184  1.3193  0.7764  1.3419
  767MOL0     H 3540   4.405   0.137   0.339  4.7920 -0.8863 -1.2834
  767MOL0     H 3541   4.205   0.120   0.096 -0.2780  0.1685 -0.7504
  767MOL0     H 3542   4.185   0.213   0.243 -0.1799  0.0834 -1.2436
  767MOL0     H 3543   4.107  -0.154   0.404  3.0739  0.7793  2.0239
  767MOL0     H 3544   4.833   0.033   0.378 -0.6948 -0.5987 -0.1071
  767MOL0     H 3545   5.042   0.107   0.457 -1.3087  0.9876  1.1965
  768MOL0     O 3546   3.668   8.261   1.297 -0.2775 -0.0908 -0.0601
  768MOL0     C 3547   3.759   8.227   1.226  0.1821 -0.1253 -0.5232
  768MOL0     O 3548   3.746   8.135   1.127 -0.4511  0.7320  0.5919
  768MOL0     C 3549   3.618   8.097   1.098 -0.0839  0.1878  0.7760
  768MOL0     C 3550   3.587   7.956   1.101 -0.4247 -0.2085  0.3128
  768MOL0     C 3551   3.461   7.911   1.077  0.8353  0.1661 -1.2221
  768MOL0     C 3552   3.358   7.992   1.036 -0.2049  0.2378  0.5689
  768MOL0     O 3553   3.237   7.943   0.984  0.3409  0.0011  0.3018
  768MOL0     C 3554   3.228   7.810   0.925  0.0664  0.7627 -0.1286
  768MOL0     C 3555   3.175   7.698   1.016  0.2680 -0.5047  0.0904
  768MOL0     C 3556   3.042   7.720   1.084  1.1320  0.7316 -0.1728
  768MOL0     C 3557   2.912   7.725   0.996 -0.1091 -0.3648 -0.5535
  768MOL0     C 3558   2.796   7.658   1.070 -0.0414  0.4028  0.3557
  768MOL0     C 3559   2.683   7.632   0.974  0.1566  0.9053  0.0954
  768MOL0     C 3560   2.560   7.584   1.048  0.2535  0.1657 -0.4956
  768MOL0     C 3561   2.479   7.695   1.125 -0.2269  0.3945  0.4617
  768MOL0     N 3562   2.355   7.642   1.175  0.4566 -0.5333  0.6878
  768MOL0     C 3563   2.327   7.538   1.271  0.1269 -1.3057 -0.5426
  768MOL0     C 3564   2.196   7.545   1.288  0.1585  1.0554  0.0988
  768MOL0     C 3565   2.121   7.456   1.380 -0.3202 -0.4844  0.0350
  768MOL0     C 3566   1.979   7.486   1.373  0.7366  0.6149 -0.0067
  768MOL0     C 3567   1.901   7.392   1.458 -0.2736  0.7903 -0.5679
  768MOL0     C 3568   1.755   7.418   1.446 -0.0936  0.6806  0.1191
  768MOL0     O 3569   1.690   7.341   1.551  0.0593  0.0481 -0.1526
  768MOL0     C 3570   1.553   7.337   1.554 -0.0094 -0.6329 -0.1516
  768MOL0     C 3571   1.499   7.232   1.626 -0.0719 -0.0733  0.9865
  768MOL0     C 3572   1.361   7.216   1.624 -0.7006 -0.4540 -0.3082
  768MOL0     C 3573   1.303   7.093   1.686 -0.8220 -0.2580 -0.0547
  768MOL0     C 3574   1.278   7.301   1.555  0.0726  0.2947  0.1890
  768MOL0     C 3575   1.134   7.308   1.579  0.2041 -0.1002 -0.5403
  768MOL0     O 3576   1.062   7.268   1.479  0.0604  0.1181 -0.1520
  768MOL0     C 3577   0.945   7.331   1.459  0.0407 -0.7497  1.0926
  768MOL0     C 3578   0.844   7.319   1.550  0.5458  0.7067  0.2432
  768MOL0     C 3579   0.724   7.390   1.535  0.1541  0.5632 -0.4551
  768MOL0     C 3580   0.702   7.469   1.426 -0.9041 -0.5703 -0.3199
  768MOL0     O 3581   0.570   7.522   1.427 -0.2054  0.0973  0.0645
  768MOL0     C 3582   0.535   7.621   1.331  0.0041  0.4009 -0.5939
  768MOL0     C 3583   0.382   7.629   1.329  0.0948 -0.2057 -0.0196
  768MOL0     C 3584   0.309   7.632   1.464 -0.2274  0.3752 -0.5449
  768MOL0     C 3585   0.176   7.691   1.456 -0.1388  0.2430 -0.0121
  768MOL0     C 3586   0.096   7.677   1.587 -0.1258  0.9231 -0.5425
  768MOL0     C 3587  -0.036   7.750   1.583  0.7994 -0.3099  0.9494
  768MOL0     C 3588  -0.127   7.719   1.706  0.8383  0.7347  0.1307
  768MOL0     C 3589  -0.251   7.814   1.705  0.2652 -0.1100 -0.4466
  768MOL0    Cl 3590  -0.186   7.982   1.744 -0.2653 -0.2431 -0.1946
  768MOL0     C 3591   0.812   7.486   1.335  0.6040 -0.4030  1.0606
  768MOL0     C 3592   0.934   7.426   1.353 -0.2767  0.1294  0.1334
  768MOL0     O 3593   1.094   7.358   1.682  0.4044  0.2248  0.0476
  768MOL0     C 3594   1.337   7.397   1.477  0.7484  0.0807  0.0219
  768MOL0     C 3595   1.471   7.427   1.487  0.0648  0.6522  0.6897
  768MOL0     N 3596   2.140   7.646   1.206  0.1551 -1.1699 -0.7318
  768MOL0     N 3597   2.235   7.700   1.139  0.6802 -0.7846  0.0130
  768MOL0     C 3598   3.384   8.128   1.015  0.0651  0.6437 -0.0555
  768MOL0     C 3599   3.509   8.181   1.058  0.5295  0.0694 -0.0873
  768MOL0     C 3600   3.887   8.277   1.256  0.0496 -0.0762  0.1345
  768MOL0     C 3601   3.907   8.368   1.374  1.1690  1.1104  0.4920
  768MOL0     C 3602   4.035   8.415   1.414 -0.0005 -1.0056  0.6809
  768MOL0     C 3603   4.149   8.393   1.328 -0.3226  0.7904  0.3182
  768MOL0     O 3604   4.270   8.444   1.365  0.2050 -0.0065  0.1997
  768MOL0     C 3605   4.378   8.395   1.288 -1.5289 -0.3535  0.6552
  768MOL0     C 3606   4.509   8.454   1.347 -0.1281  0.3438 -0.4062
  768MOL0     C 3607   4.635   8.398   1.295 -0.0765  0.7634  0.5856
  768MOL0     C 3608   4.745   8.493   1.256 -0.0665 -0.3178  0.0863
  768MOL0     C 3609   4.768   8.592   1.364 -0.6949  0.8567 -0.3786
  768MOL0     C 3610   4.782   8.670   1.451 -0.4047  0.5184  0.1806
  768MOL0     C 3611   4.123   8.316   1.210  0.0527  0.7626  1.2303
  768MOL0     C 3612   3.997   8.261   1.169 -0.0116  0.0572  0.9819
  768MOL0     H 3613   3.657   7.880   1.134  0.9638  0.9221  0.0338
  768MOL0     H 3614   3.439   7.805   1.085  0.0208  0.3886 -0.3719
  768MOL0     H 3615   3.161   7.817   0.839 -1.4186 -0.8440  0.8179
  768MOL0     H 3616   3.325   7.778   0.885 -0.1203  0.6806 -0.5232
  768MOL0     H 3617   3.173   7.607   0.956  0.3468  0.9973 -2.3171
  768MOL0     H 3618   3.249   7.684   1.095  0.0578 -1.0868  0.1835
  768MOL0     H 3619   3.037   7.642   1.160 -2.6351  2.1923  1.3228
  768MOL0     H 3620   3.048   7.810   1.145 -0.3675 -0.1032  1.2833
  768MOL0     H 3621   2.884   7.827   0.967 -0.0564  0.4503  2.0028
  768MOL0     H 3622   2.932   7.676   0.900  2.9900  3.4991 -2.1981
  768MOL0     H 3623   2.829   7.563   1.113  1.3635 -0.2325 -1.9866
  768MOL0     H 3624   2.759   7.721   1.152 -0.7819 -1.1058  1.2263
  768MOL0     H 3625   2.663   7.724   0.918  1.7384  1.2956  0.1226
  768MOL0     H 3626   2.718   7.549   0.912  1.1221  1.0190  0.4740
  768MOL0     H 3627   2.481   7.552   0.979 -2.0139  2.9098  0.6166
  768MOL0     H 3628   2.580   7.499   1.113 -3.3017 -1.1732 -0.8997
  768MOL0     H 3629   2.450   7.775   1.056 -1.4525 -0.4774 -0.0846
  768MOL0     H 3630   2.545   7.738   1.200 -1.6002  0.9223  1.3922
  768MOL0     H 3631   2.394   7.464   1.313 -1.7635 -3.0102 -0.3452
  768MOL0     H 3632   2.147   7.351   1.362 -1.3046 -1.2906  2.7683
  768MOL0     H 3633   2.155   7.477   1.482 -3.0438  1.0838  0.7068
  768MOL0     H 3634   1.943   7.474   1.270  0.6352  1.5148 -0.0865
  768MOL0     H 3635   1.966   7.589   1.408  3.0937  0.0437  2.9368
  768MOL0     H 3636   1.926   7.401   1.564  1.9181 -3.0236 -0.5579
  768MOL0     H 3637   1.928   7.289   1.432 -0.3937 -0.3965  3.3038
  768MOL0     H 3638   1.716   7.394   1.347 -1.6155 -0.1553  0.8712
  768MOL0     H 3639   1.739   7.527   1.451  2.6632  1.2015 -0.5512
  768MOL0     H 3640   1.569   7.159   1.666  3.3782  0.5247 -3.1654
  768MOL0     H 3641   1.253   7.121   1.779 -1.9875  1.7390 -1.2105
  768MOL0     H 3642   1.239   7.040   1.616  0.3239 -0.9568 -0.5955
  768MOL0     H 3643   1.375   7.016   1.716 -2.6060 -2.3933 -1.0368
  768MOL0     H 3644   0.857   7.255   1.636 -3.5287  3.1090  2.9897
  768MOL0     H 3645   0.647   7.376   1.609  0.8781 -1.0446  0.0286
  768MOL0     H 3646   0.569   7.719   1.366  2.9145 -0.3270 -1.1084
  768MOL0     H 3647   0.575   7.609   1.230 -0.8407  1.6422 -1.1115
  768MOL0     H 3648   0.369   7.724   1.277  0.9399 -0.7805 -1.3397
  768MOL0     H 3649   0.345   7.540   1.277  1.4497  0.0190 -1.4545
  768MOL0     H 3650   0.369   7.694   1.532 -1.9216  0.3569  1.0644
  768MOL0     H 3651   0.316   7.528   1.498  0.0207  0.8369  0.9108
  768MOL0     H 3652   0.191   7.795   1.429  1.0580 -0.0852 -0.7204
  768MOL0     H 3653   0.117   7.644   1.377 -0.0938  1.1302 -0.5777
  768MOL0     H 3654   0.158   7.711   1.671  2.2382  0.1732 -1.8878
  768MOL0     H 3655   0.075   7.570   1.589  1.0616  0.6662 -0.7734
  768MOL0     H 3656  -0.014   7.856   1.565  3.5543 -1.2426 -2.2332
  768MOL0     H 3657  -0.083   7.714   1.491 -2.5607 -0.2715  2.5041
  768MOL0     H 3658  -0.072   7.727   1.800  0.4520  0.3365  0.3944
  768MOL0     H 3659  -0.172   7.619   1.708 -3.3740  2.4244  1.7986
  768MOL0     H 3660  -0.324   7.789   1.783  1.2772 -4.4428 -0.6163
  768MOL0     H 3661  -0.294   7.812   1.605  1.1760  7.3437 -1.5080
  768MOL0     H 3662   0.792   7.554   1.252  0.6794 -0.5106  0.9537
  768MOL0     H 3663   1.006   7.441   1.274 -2.0819  3.6072 -1.0510
  768MOL0     H 3664   1.284   7.466   1.412  1.3636  1.7936  1.2675
  768MOL0     H 3665   1.507   7.523   1.452 -0.9840  0.5329 -0.8097
  768MOL0     H 3666   3.298   8.188   0.984  0.0316 -0.7188 -2.8892
  768MOL0     H 3667   3.519   8.289   1.053 -2.9548  0.4849 -3.5893
  768MOL0     H 3668   3.821   8.390   1.436 -0.7392 -2.1820 -0.7367
  768MOL0     H 3669   4.038   8.474   1.505 -3.0494 -0.3531  0.4593
  768MOL0     H 3670   4.390   8.287   1.291  2.1480 -0.0287  2.7600
  768MOL0     H 3671   4.369   8.427   1.184  1.4143  2.2756  1.0664
  768MOL0     H 3672   4.507   8.447   1.457 -2.0977  0.4755 -0.3881
  768MOL0     H 3673   4.498   8.561   1.324 -3.5612  0.1348 -0.3312
  768MOL0     H 3674   4.616   8.335   1.208  0.4581 -0.4933  1.3521
  768MOL0     H 3675   4.675   8.329   1.370  0.3418 -1.1138 -1.2736
  768MOL0     H 3676   4.697   8.554   1.178  2.2581  0.8131 -0.5797
  768MOL0     H 3677   4.835   8.449   1.212  0.2400  2.0221 -1.8527
  768MOL0     H 3678   4.788   8.739   1.533  3.3468 -0.7994  1.2311
  768MOL0     H 3679   4.205   8.278   1.150 -1.8167 -1.9734  0.1767
  768MOL0     H 3680   4.002   8.203   1.078 -0.7000 -0.3467  1.1949
  769MOL0     O 3681   9.041   6.658   7.138  0.2132  0.8514 -0.3824
  769MOL0     C 3682   8.991   6.767   7.110  0.0021  1.4925 -1.6589
  769MOL0     O 3683   8.879   6.819   7.166  0.5964  0.8409  0.3818
  769MOL0     C 3684   8.797   6.736   7.243  0.2141 -0.0224 -0.3457
  769MOL0     C 3685   8.820   6.715   7.381 -0.1027 -0.3431 -0.4292
  769MOL0     C 3686   8.719   6.666   7.452  0.1131  0.2116 -0.3596
  769MOL0     C 3687   8.609   6.607   7.399  0.0147 -0.6635  0.6338
  769MOL0     O 3688   8.505   6.552   7.472  0.1055 -0.3740  0.1331
  769MOL0     C 3689   8.456   6.608   7.598  0.8604 -0.2592 -0.1712
  769MOL0     C 3690   8.362   6.522   7.677 -0.3138  0.3230 -0.1349
  769MOL0     C 3691   8.238   6.491   7.588  0.5739 -0.2249 -0.6879
  769MOL0     C 3692   8.134   6.404   7.664 -0.5899 -0.5112  0.3490
  769MOL0     C 3693   8.038   6.479   7.756  0.2694  0.4244 -1.1402
  769MOL0     C 3694   7.939   6.390   7.838 -0.1963  0.0891 -0.0547
  769MOL0     C 3695   7.875   6.491   7.941 -0.1724  0.2819 -0.3900
  769MOL0     C 3696   7.973   6.495   8.060 -0.1554 -0.6335  0.3303
  769MOL0     N 3697   7.900   6.552   8.174  0.6023  0.1032 -0.5789
  769MOL0     C 3698   7.865   6.684   8.187  0.0408  0.5574  0.2824
  769MOL0     C 3699   7.765   6.677   8.277 -0.3494  0.6999  0.2336
  769MOL0     C 3700   7.687   6.795   8.320 -0.4308 -0.8596  0.5018
  769MOL0     C 3701   7.545   6.814   8.249 -0.6578 -0.5402  0.0425
  769MOL0     C 3702   7.562   6.866   8.111  0.7092 -0.1500  0.1427
  769MOL0     C 3703   7.446   6.816   8.016  0.3376  0.3088 -0.0638
  769MOL0     O 3704   7.457   6.672   7.990 -0.6220 -0.5961 -0.6505
  769MOL0     C 3705   7.534   6.626   7.889 -0.0069  0.0173 -1.0970
  769MOL0     C 3706   7.519   6.493   7.861  0.4032 -0.1584 -1.5516
  769MOL0     C 3707   7.568   6.432   7.746 -1.7242 -0.1117 -0.1864
  769MOL0     C 3708   7.546   6.288   7.728  0.3690  0.5689 -0.0202
  769MOL0     C 3709   7.650   6.514   7.662 -0.4323 -0.3875 -0.2198
  769MOL0     C 3710   7.697   6.467   7.528 -0.0650  0.0679 -0.3324
  769MOL0     O 3711   7.794   6.545   7.474 -0.0954  0.5868  1.0142
  769MOL0     C 3712   7.873   6.500   7.376 -0.2613 -0.1947  0.0913
  769MOL0     C 3713   7.987   6.586   7.366  0.4488 -1.0175 -0.5413
  769MOL0     C 3714   8.078   6.577   7.259  0.8389 -0.2642 -0.4100
  769MOL0     C 3715   8.074   6.471   7.169  0.7233 -0.5711  0.2141
  769MOL0     O 3716   8.174   6.472   7.076 -0.4879 -0.6937  0.5784
  769MOL0     C 3717   8.185   6.366   6.977 -0.1077  0.6213  0.5796
  769MOL0     C 3718   8.328   6.355   6.920  0.0175  0.0058 -0.9457
  769MOL0     C 3719   8.358   6.491   6.843 -0.2042  0.4688  0.5237
  769MOL0     C 3720   8.475   6.469   6.751  0.2729  0.5598  0.4379
  769MOL0     C 3721   8.609   6.500   6.822 -0.2737 -0.5542 -0.0007
  769MOL0     C 3722   8.733   6.529   6.729  0.5869  0.1740 -1.0568
  769MOL0     C 3723   8.868   6.544   6.801 -0.1679 -0.5384  0.7106
  769MOL0     C 3724   8.987   6.506   6.707 -0.9343 -0.6015  0.4002
  769MOL0    Cl 3725   9.011   6.608   6.560 -0.3626  0.1035 -0.4847
  769MOL0     C 3726   7.967   6.386   7.177 -0.1506 -0.2207 -0.3931
  769MOL0     C 3727   7.856   6.401   7.275 -0.2883 -0.7110  0.4677
  769MOL0     O 3728   7.649   6.362   7.475 -0.9074 -0.0869  0.3967
  769MOL0     C 3729   7.678   6.651   7.695 -0.3572  0.6729 -0.1604
  769MOL0     C 3730   7.616   6.703   7.803  0.2348  0.3928  0.3860
  769MOL0     N 3731   7.753   6.545   8.329  0.4704 -0.2352 -0.2811
  769MOL0     N 3732   7.824   6.475   8.257  1.1546 -0.1702 -0.6152
  769MOL0     C 3733   8.590   6.600   7.261 -0.3349  0.3944  0.2783
  769MOL0     C 3734   8.689   6.671   7.185  0.5473 -0.0217  0.0042
  769MOL0     C 3735   9.082   6.852   7.033 -0.7469 -0.4824  0.5137
  769MOL0     C 3736   9.209   6.809   6.996  0.2289 -0.2894 -0.2219
  769MOL0     C 3737   9.300   6.895   6.939 -0.6323  0.6064  0.2083
  769MOL0     C 3738   9.267   7.027   6.901  0.3688 -0.5127  0.6936
  769MOL0     O 3739   9.363   7.093   6.831  0.7956  0.2300  0.1001
  769MOL0     C 3740   9.388   7.233   6.870 -0.0430 -0.6140 -0.2794
  769MOL0     C 3741   9.468   7.270   7.002 -0.3615 -0.0338  1.0015
  769MOL0     C 3742   9.613   7.255   6.967 -0.1958  0.1291  0.2997
  769MOL0     C 3743   9.707   7.321   7.076 -0.1675 -0.7199  0.0830
  769MOL0     C 3744   9.850   7.297   7.052  0.6702  0.2412 -0.2607
  769MOL0     C 3745   9.966   7.273   7.024  0.0457  0.5019  0.4216
  769MOL0     C 3746   9.135   7.062   6.922  0.0446 -0.3160  0.4067
  769MOL0     C 3747   9.046   6.969   6.976  0.2226  0.5951  0.1521
  769MOL0     H 3748   8.908   6.758   7.428 -0.8415  2.2573 -1.2555
  769MOL0     H 3749   8.733   6.657   7.559 -0.0857 -4.6564 -0.5183
  769MOL0     H 3750   8.543   6.626   7.662  1.2846 -3.2080  0.2305
  769MOL0     H 3751   8.397   6.699   7.583 -2.4850 -1.9537  1.7338
  769MOL0     H 3752   8.412   6.427   7.697 -0.6028 -1.0035 -4.6041
  769MOL0     H 3753   8.326   6.555   7.775  1.8027 -0.3085  0.9057
  769MOL0     H 3754   8.190   6.579   7.546 -0.8723 -0.2887  0.7545
  769MOL0     H 3755   8.256   6.431   7.498 -2.2721 -2.5359  0.1229
  769MOL0     H 3756   8.090   6.336   7.591 -0.0807 -0.1411 -0.3171
  769MOL0     H 3757   8.188   6.339   7.734  3.4885  2.4431  0.3119
  769MOL0     H 3758   8.098   6.541   7.823 -0.6030  1.5525 -1.3617
  769MOL0     H 3759   7.990   6.551   7.688  0.8712  2.9241  0.9197
  769MOL0     H 3760   7.861   6.356   7.769  0.7614  0.9936 -1.6696
  769MOL0     H 3761   7.995   6.305   7.877 -0.2498  1.0694  2.3275
  769MOL0     H 3762   7.864   6.589   7.893 -2.4821 -0.7369 -2.1142
  769MOL0     H 3763   7.777   6.458   7.974 -0.5037  0.8011 -0.8404
  769MOL0     H 3764   8.059   6.557   8.034 -0.8292  0.9067  1.6183
  769MOL0     H 3765   8.005   6.397   8.096 -3.7166 -1.5118  1.4777
  769MOL0     H 3766   7.894   6.767   8.122 -0.6160 -0.5898 -1.5364
  769MOL0     H 3767   7.679   6.785   8.429 -0.0441 -2.3727  0.4123
  769MOL0     H 3768   7.728   6.896   8.310  0.0662 -0.8656  2.0742
  769MOL0     H 3769   7.482   6.872   8.316 -0.1998  0.1541 -0.1121
  769MOL0     H 3770   7.501   6.715   8.237  0.2852 -0.7792 -1.8164
  769MOL0     H 3771   7.657   6.849   8.058  0.1060  0.3125 -1.1127
  769MOL0     H 3772   7.552   6.974   8.119 -1.2552 -0.4218  2.1346
  769MOL0     H 3773   7.444   6.882   7.928  4.3447 -1.0558 -1.3691
  769MOL0     H 3774   7.355   6.815   8.077  0.1060 -0.8734 -0.4074
  769MOL0     H 3775   7.457   6.442   7.935  1.5554 -0.6346 -0.8874
  769MOL0     H 3776   7.642   6.237   7.737  0.1044  0.4096  3.5254
  769MOL0     H 3777   7.491   6.234   7.805  0.2598 -1.2025 -1.2907
  769MOL0     H 3778   7.485   6.272   7.639  2.0306 -0.2936 -1.0477
  769MOL0     H 3779   8.013   6.680   7.414 -1.4704 -0.5175 -0.4091
  769MOL0     H 3780   8.162   6.643   7.238 -1.3021  1.9999 -2.4113
  769MOL0     H 3781   8.159   6.264   7.006  2.4232 -0.1934  0.2751
  769MOL0     H 3782   8.118   6.395   6.895 -0.9651 -2.2534  0.1711
  769MOL0     H 3783   8.404   6.346   6.998  1.4607  2.1351 -2.0150
  769MOL0     H 3784   8.331   6.270   6.851  3.1575  0.8322 -2.0008
  769MOL0     H 3785   8.367   6.573   6.914 -3.7540  0.1386  1.5668
  769MOL0     H 3786   8.278   6.515   6.773  2.4120  2.6386 -1.9553
  769MOL0     H 3787   8.477   6.367   6.712 -1.7294  0.4756  0.4980
  769MOL0     H 3788   8.470   6.540   6.668  1.9810 -0.9914 -1.0770
  769MOL0     H 3789   8.630   6.410   6.881  0.0766 -1.3228 -1.2584
  769MOL0     H 3790   8.601   6.586   6.889 -0.1344 -0.2361 -0.3838
  769MOL0     H 3791   8.734   6.442   6.664 -1.1189  0.4782 -1.5538
  769MOL0     H 3792   8.721   6.627   6.681 -2.1636  0.3246 -0.2181
  769MOL0     H 3793   8.876   6.468   6.879 -3.3150  1.1173  2.8897
  769MOL0     H 3794   8.876   6.638   6.856  3.8082 -2.4802  3.9595
  769MOL0     H 3795   8.974   6.403   6.672 -0.5179 -0.7221  0.5878
  769MOL0     H 3796   9.081   6.513   6.764 -1.3403 -3.5370  1.6213
  769MOL0     H 3797   7.967   6.305   7.105  1.2393 -2.1153  1.5914
  769MOL0     H 3798   7.771   6.333   7.275 -1.0494  0.1751  2.0092
  769MOL0     H 3799   7.726   6.713   7.619 -1.1800 -0.0919 -1.3241
  769MOL0     H 3800   7.607   6.809   7.819 -0.9989  0.4284 -0.4405
  769MOL0     H 3801   8.500   6.551   7.224 -0.5840  1.2739 -0.3200
  769MOL0     H 3802   8.681   6.674   7.076 -0.4669  1.8335  0.0948
  769MOL0     H 3803   9.240   6.706   7.009  0.6604 -0.2141 -0.6476
  769MOL0     H 3804   9.397   6.855   6.911 -1.2236  0.1233 -1.2403
  769MOL0     H 3805   9.435   7.266   6.777 -2.2381 -0.2580 -1.3400
  769MOL0     H 3806   9.287   7.276   6.875  0.3845  0.3708  0.0367
  769MOL0     H 3807   9.437   7.197   7.077 -4.5110  0.9008  0.4544
  769MOL0     H 3808   9.447   7.371   7.038 -0.9975  0.9474 -1.8468
  769MOL0     H 3809   9.649   7.289   6.869  0.5783 -1.0048  0.1722
  769MOL0     H 3810   9.634   7.148   6.974  0.6003  0.4067  3.7254
  769MOL0     H 3811   9.676   7.306   7.180 -0.7224 -2.1891 -0.2703
  769MOL0     H 3812   9.690   7.425   7.047  0.0707 -0.4090  1.0218
  769MOL0     H 3813  10.070   7.252   7.010 -0.0733  0.8926 -1.1547
  769MOL0     H 3814   9.085   7.151   6.885 -2.2085 -0.0556  3.7172
  769MOL0     H 3815   8.942   7.002   6.976  0.2518  0.7210  1.3641
  770MOL0     O 3816   4.697   2.471   9.785 -0.3068 -0.9248  0.4626
  770MOL0     C 3817   4.765   2.370   9.781 -0.7437  0.1735  0.5667
  770MOL0     O 3818   4.722   2.241   9.790 -0.0156 -0.8333  0.1899
  770MOL0     C 3819   4.587   2.220   9.815  0.1214 -0.0813  0.0347
  770MOL0     C 3820   4.507   2.140   9.728 -0.0940  0.5152 -0.1495
  770MOL0     C 3821   4.377   2.114   9.758  0.0677  0.5989 -0.4410
  770MOL0     C 3822   4.314   2.160   9.875 -0.2658 -0.1986 -0.6042
  770MOL0     O 3823   4.185   2.132   9.906  0.0314  0.3770 -0.9803
  770MOL0     C 3824   4.100   2.098   9.797 -0.3933 -0.3729 -0.0337
  770MOL0     C 3825   3.964   2.117   9.861 -0.7022  0.0487 -0.2710
  770MOL0     C 3826   3.856   2.038   9.787  0.0579 -0.7240  0.0958
  770MOL0     C 3827   3.722   2.041   9.855  0.2335  0.5676  0.0235
  770MOL0     C 3828   3.607   2.003   9.755  0.0235 -0.0807 -0.1957
  770MOL0     C 3829   3.644   1.916   9.635  0.7048  0.7700  0.2404
  770MOL0     C 3830   3.522   1.900   9.544 -0.3631  0.3489  0.0200
  770MOL0     C 3831   3.433   1.780   9.578  0.5515  0.1352  0.1183
  770MOL0     N 3832   3.315   1.762   9.483  0.2966  0.4776 -0.9332
  770MOL0     C 3833   3.198   1.702   9.519  0.6459 -0.6611 -0.2945
  770MOL0     C 3834   3.111   1.724   9.412  0.4671  0.5070 -0.5873
  770MOL0     C 3835   2.967   1.677   9.406  0.4974 -0.6659  0.4492
  770MOL0     C 3836   2.894   1.706   9.276  0.4742  0.2162 -0.1318
  770MOL0     C 3837   2.760   1.636   9.273  0.3196  0.1707  0.1021
  770MOL0     C 3838   2.734   1.596   9.130  0.4535 -1.3611  0.2635
  770MOL0     O 3839   2.607   1.539   9.118 -0.1570  0.3201 -0.2386
  770MOL0     C 3840   2.486   1.610   9.118 -0.9828  0.4877 -0.2144
  770MOL0     C 3841   2.481   1.754   9.122  0.1982  0.1250 -0.0914
  770MOL0     C 3842   2.364   1.823   9.120  0.1845  0.0875  0.2697
  770MOL0     C 3843   2.373   1.976   9.142  0.0657  0.4436  0.2740
  770MOL0     C 3844   2.236   1.745   9.117 -1.0485 -0.2272  0.4441
  770MOL0     C 3845   2.108   1.807   9.112 -0.0110  0.0939 -0.1475
  770MOL0     O 3846   2.001   1.731   9.150 -0.5139  0.0381  0.0137
  770MOL0     C 3847   1.878   1.791   9.141  0.7602  0.3365  0.7881
  770MOL0     C 3848   1.813   1.814   9.016  0.6314  0.3714  0.8567
  770MOL0     C 3849   1.677   1.842   9.018  0.4670  0.0024  0.9079
  770MOL0     C 3850   1.605   1.855   9.144  0.0350 -0.4998 -0.1434
  770MOL0     O 3851   1.468   1.885   9.141 -0.1790 -0.3696  0.5084
  770MOL0     C 3852   1.398   1.928   9.257 -0.6028  0.2620 -0.5628
  770MOL0     C 3853   1.255   1.964   9.224  0.4954  0.3830  1.0660
  770MOL0     C 3854   1.173   1.952   9.355 -0.6734  0.0362  0.1836
  770MOL0     C 3855   1.030   1.977   9.319 -0.4652 -0.3924  0.2418
  770MOL0     C 3856   0.926   1.983   9.438 -0.3927 -0.3241  0.6839
  770MOL0     C 3857   0.780   1.980   9.396 -0.5990 -0.4665  0.7683
  770MOL0     C 3858   0.688   2.002   9.511  0.1813 -0.1340 -0.3715
  770MOL0     C 3859   0.541   2.010   9.454 -0.3163  0.3395  0.1375
  770MOL0    Cl 3860   0.440   2.143   9.502  0.0634 -0.1359  0.1986
  770MOL0     C 3861   1.676   1.842   9.268  0.0076  0.1590  0.6871
  770MOL0     C 3862   1.814   1.821   9.261  0.1022  0.0274 -0.3076
  770MOL0     O 3863   2.104   1.921   9.070 -0.2005  0.0083  0.1937
  770MOL0     C 3864   2.238   1.607   9.116  0.3842 -0.4528  0.1700
  770MOL0     C 3865   2.366   1.542   9.118  0.7040 -0.0564 -0.5681
  770MOL0     N 3866   3.180   1.794   9.313  0.4308 -0.0159 -0.5520
  770MOL0     N 3867   3.298   1.813   9.356  0.3888 -0.1403  0.1481
  770MOL0     C 3868   4.391   2.238   9.966  0.4918  0.0226  0.6191
  770MOL0     C 3869   4.532   2.267   9.931  0.4587  0.7637 -0.9667
  770MOL0     C 3870   4.917   2.386   9.758  0.2666 -1.2537 -0.4525
  770MOL0     C 3871   4.970   2.502   9.716 -0.6072  0.5374  0.5838
  770MOL0     C 3872   5.109   2.518   9.710  0.1545  0.2158 -0.9084
  770MOL0     C 3873   5.193   2.410   9.731 -0.3036 -0.2829 -0.6595
  770MOL0     O 3874   5.328   2.435   9.712 -0.4219  0.2568 -0.7299
  770MOL0     C 3875   5.421   2.325   9.716 -0.2860  0.1836 -0.3377
  770MOL0     C 3876   5.568   2.379   9.713 -0.2595  0.4588  1.0936
  770MOL0     C 3877   5.616   2.427   9.851 -0.0498 -0.7041  0.4128
  770MOL0     C 3878   5.762   2.451   9.846 -0.2427 -0.0680 -0.0531
  770MOL0     C 3879   5.794   2.529   9.957 -1.0153  0.5768 -0.9839
  770MOL0     C 3880   5.811   2.576  10.067  0.1348 -0.2595  0.2046
  770MOL0     C 3881   5.142   2.285   9.761 -0.8230  0.3563  0.2512
  770MOL0     C 3882   5.003   2.276   9.772  0.3256  0.0135  0.4108
  770MOL0     H 3883   4.552   2.105   9.636  1.3576 -1.0870  1.1086
  770MOL0     H 3884   4.320   2.049   9.693 -0.3646  1.9879 -1.5210
  770MOL0     H 3885   4.105   2.169   9.714  1.2214 -1.1580 -0.6439
  770MOL0     H 3886   4.111   1.999   9.752 -1.5499  0.5937 -2.6498
  770MOL0     H 3887   3.972   2.086   9.966  0.3927  0.0894 -0.3387
  770MOL0     H 3888   3.950   2.225   9.857  0.9612  0.2540 -1.9597
  770MOL0     H 3889   3.838   2.088   9.692 -0.1777  1.5471  1.2834
  770MOL0     H 3890   3.881   1.935   9.759  0.9741  0.5643 -4.7258
  770MOL0     H 3891   3.723   1.959   9.927  0.6084  0.9415  0.4490
  770MOL0     H 3892   3.710   2.137   9.907  2.6710  2.9197 -3.3035
  770MOL0     H 3893   3.521   1.964   9.811 -3.3528  4.5901 -1.5104
  770MOL0     H 3894   3.577   2.098   9.710 -1.7187 -1.5574 -2.3590
  770MOL0     H 3895   3.713   1.971   9.571  1.1880 -1.2569 -1.0631
  770MOL0     H 3896   3.687   1.822   9.669  2.1689 -0.7325 -4.8296
  770MOL0     H 3897   3.479   2.001   9.536  1.3306  1.1012 -0.0747
  770MOL0     H 3898   3.544   1.883   9.438 -3.7889 -0.8971 -0.6061
  770MOL0     H 3899   3.399   1.794   9.681  0.8377 -1.3251  0.4276
  770MOL0     H 3900   3.490   1.687   9.587  1.4172  0.3334 -2.4611
  770MOL0     H 3901   3.173   1.652   9.612 -1.0069 -0.1246 -0.4181
  770MOL0     H 3902   2.966   1.567   9.409  1.2471 -0.7478 -1.1584
  770MOL0     H 3903   2.910   1.724   9.486  2.2308 -1.6501  2.3807
  770MOL0     H 3904   2.953   1.683   9.186 -3.4183  2.2494 -3.5113
  770MOL0     H 3905   2.879   1.812   9.258  2.1242  0.5955  0.4980
  770MOL0     H 3906   2.677   1.699   9.307 -1.0703  0.4686 -3.4218
  770MOL0     H 3907   2.760   1.539   9.324 -0.1010 -0.3918 -0.9340
  770MOL0     H 3908   2.805   1.521   9.091 -0.4485 -2.5872  0.9031
  770MOL0     H 3909   2.744   1.688   9.072 -1.2924 -0.4468  1.3682
  770MOL0     H 3910   2.572   1.813   9.133 -2.0804  4.2336 -1.2342
  770MOL0     H 3911   2.392   2.028   9.047 -2.5663 -0.1285 -0.6827
  770MOL0     H 3912   2.282   2.017   9.188 -0.6147  0.2409 -0.8426
  770MOL0     H 3913   2.454   1.996   9.212  0.1161 -2.1388  1.0693
  770MOL0     H 3914   1.861   1.787   8.922  1.2573 -2.6487  1.9377
  770MOL0     H 3915   1.626   1.858   8.924  0.9458  0.0360  0.6467
  770MOL0     H 3916   1.400   1.841   9.323  0.0997  1.5424  1.1717
  770MOL0     H 3917   1.452   2.014   9.298 -0.6765 -0.3752  0.9457
  770MOL0     H 3918   1.243   2.059   9.172  1.3021  0.1448  0.4311
  770MOL0     H 3919   1.214   1.885   9.160 -0.5047  2.2146 -0.6555
  770MOL0     H 3920   1.212   2.029   9.422 -2.8692  2.7484 -1.4566
  770MOL0     H 3921   1.193   1.851   9.393 -1.6715 -0.7133 -1.2087
  770MOL0     H 3922   1.029   2.075   9.269  0.1512 -0.7417 -0.4720
  770MOL0     H 3923   1.008   1.904   9.241  0.6171  0.4516 -0.8929
  770MOL0     H 3924   0.946   2.071   9.500  1.6906 -1.6163  1.9736
  770MOL0     H 3925   0.940   1.893   9.500  1.8365  0.7720  1.8977
  770MOL0     H 3926   0.758   2.063   9.329  0.3561  0.6731  1.8152
  770MOL0     H 3927   0.757   1.889   9.339  1.2601 -0.5134  0.0223
  770MOL0     H 3928   0.693   2.102   9.555 -3.7677  0.8671 -1.7361
  770MOL0     H 3929   0.698   1.923   9.585 -0.4959  0.7441  0.7047
  770MOL0     H 3930   0.497   1.917   9.490  2.5315 -0.2640  2.4742
  770MOL0     H 3931   0.546   2.017   9.345 -0.1305 -1.2077  0.0271
  770MOL0     H 3932   1.627   1.862   9.363 -0.4929  0.8526  0.2865
  770MOL0     H 3933   1.877   1.821   9.349 -0.3560  0.8436  0.0276
  770MOL0     H 3934   2.144   1.555   9.102 -0.4609  1.2017 -0.6413
  770MOL0     H 3935   2.370   1.434   9.105 -0.2205 -0.3863  1.3760
  770MOL0     H 3936   4.352   2.274  10.061  4.4187  0.6290  2.1615
  770MOL0     H 3937   4.599   2.316  10.001 -0.8311 -0.3320  1.1466
  770MOL0     H 3938   4.897   2.580   9.698 -2.1532 -0.4337  2.3089
  770MOL0     H 3939   5.147   2.612   9.672  0.7782 -0.0145 -0.8819
  770MOL0     H 3940   5.411   2.255   9.800  1.5806 -1.4181 -1.3474
  770MOL0     H 3941   5.408   2.260   9.629  0.3721  1.0540 -1.1133
  770MOL0     H 3942   5.568   2.453   9.632 -1.0192 -1.4750 -0.7917
  770MOL0     H 3943   5.628   2.294   9.681 -2.1552 -0.9474  1.1014
  770MOL0     H 3944   5.590   2.345   9.919  0.8405 -1.1965  0.1755
  770MOL0     H 3945   5.549   2.506   9.887 -0.1845 -0.6946  0.1389
  770MOL0     H 3946   5.801   2.501   9.757 -1.6531 -1.2739 -1.3856
  770MOL0     H 3947   5.809   2.353   9.849 -2.3379 -1.1851 -1.5013
  770MOL0     H 3948   5.833   2.601  10.169 -0.2109  0.3417  0.1390
  770MOL0     H 3949   5.202   2.199   9.788  1.2207  0.7664 -2.4787
  770MOL0     H 3950   4.964   2.183   9.811  0.4957 -0.8842 -1.4521
  771MOL0     O 3951   2.478   3.035   9.450  0.4291 -0.3276 -0.2286
  771MOL0     C 3952   2.459   3.123   9.537 -0.5041  0.1973 -0.3870
  771MOL0     O 3953   2.551   3.229   9.570  0.0331 -0.0350 -0.1381
  771MOL0     C 3954   2.670   3.231   9.492 -0.4266  0.3037  0.0192
  771MOL0     C 3955   2.665   3.249   9.351 -0.6764  0.4681  0.4493
  771MOL0     C 3956   2.794   3.252   9.294  0.6729 -0.1980 -0.9447
  771MOL0     C 3957   2.920   3.231   9.358  0.0030  0.2579 -0.2333
  771MOL0     O 3958   3.031   3.223   9.282  0.5706 -0.6051 -0.3289
  771MOL0     C 3959   3.077   3.339   9.216  0.1720 -0.8985 -0.5700
  771MOL0     C 3960   3.049   3.350   9.071  0.7596 -0.3660 -0.0034
  771MOL0     C 3961   3.135   3.253   8.986  0.2601  0.6043 -0.0559
  771MOL0     C 3962   3.079   3.225   8.841  0.8348 -0.2703 -0.2501
  771MOL0     C 3963   3.072   3.355   8.758 -0.0822 -0.0143 -0.5010
  771MOL0     C 3964   3.015   3.322   8.621  0.2870  0.2431  0.4583
  771MOL0     C 3965   2.995   3.453   8.542 -0.8240 -0.1450 -0.8427
  771MOL0     C 3966   2.988   3.440   8.392 -0.4814 -1.0126  0.5295
  771MOL0     N 3967   2.869   3.365   8.356  0.5728  0.2919  0.2884
  771MOL0     C 3968   2.739   3.416   8.369  0.4467  0.4389  0.0468
  771MOL0     C 3969   2.654   3.320   8.322 -0.0367  0.2324 -0.1462
  771MOL0     C 3970   2.495   3.302   8.326  0.3014 -0.8020  0.0748
  771MOL0     C 3971   2.421   3.421   8.264  0.3070 -0.1819  0.0878
  771MOL0     C 3972   2.269   3.414   8.267  0.1565 -0.1339 -0.6801
  771MOL0     C 3973   2.209   3.547   8.240  0.1038 -0.6226  0.2648
  771MOL0     O 3974   2.225   3.637   8.353 -0.1394 -0.4566 -0.4546
  771MOL0     C 3975   2.107   3.649   8.425 -0.2340 -0.1908 -0.1403
  771MOL0     C 3976   2.011   3.741   8.381  0.2276  0.7717 -0.3844
  771MOL0     C 3977   1.894   3.770   8.451  0.1062  0.0551  0.2159
  771MOL0     C 3978   1.809   3.881   8.389  0.3579  0.3546 -0.0779
  771MOL0     C 3979   1.859   3.699   8.572  0.1242  0.3531 -0.4704
  771MOL0     C 3980   1.723   3.703   8.650 -0.9193 -0.8248 -0.6677
  771MOL0     O 3981   1.634   3.794   8.610  0.9288 -0.4820  0.1881
  771MOL0     C 3982   1.496   3.793   8.632  0.5197  0.2069 -1.1578
  771MOL0     C 3983   1.429   3.734   8.743 -0.3347 -0.0406 -0.8456
  771MOL0     C 3984   1.292   3.751   8.762  0.0190  1.3080  1.5343
  771MOL0     C 3985   1.217   3.822   8.666  0.6095  0.5566 -0.4948
  771MOL0     O 3986   1.083   3.845   8.691 -0.3143  0.5694 -0.0471
  771MOL0     C 3987   0.981   3.850   8.577  0.2014 -0.2546 -0.6593
  771MOL0     C 3988   0.923   3.718   8.538 -0.5829 -0.4054 -0.6054
  771MOL0     C 3989   0.886   3.636   8.658  0.1197  0.4117 -0.7867
  771MOL0     C 3990   0.755   3.672   8.730  1.2084 -0.3809 -0.6329
  771MOL0     C 3991   0.741   3.627   8.878  1.0085 -0.6461 -0.6159
  771MOL0     C 3992   0.615   3.689   8.954 -1.2760  0.4074 -0.1324
  771MOL0     C 3993   0.485   3.651   8.894  0.0395  0.5465 -0.1305
  771MOL0     C 3994   0.360   3.709   8.959  0.3128  0.9432 -0.6625
  771MOL0    Cl 3995   0.318   3.617   9.112 -0.3588 -0.3316 -0.3225
  771MOL0     C 3996   1.287   3.889   8.562 -0.8277  0.1247 -0.2368
  771MOL0     C 3997   1.426   3.882   8.551 -0.1152 -0.7458  0.3166
  771MOL0     O 3998   1.707   3.631   8.746  0.0443  0.5712 -0.1345
  771MOL0     C 3999   1.951   3.604   8.609 -0.8855  0.8565  0.6061
  771MOL0     C 4000   2.078   3.575   8.541  1.1513 -0.2298  0.2706
  771MOL0     N 4001   2.738   3.224   8.259  0.0960 -0.7713  0.6423
  771MOL0     N 4002   2.861   3.252   8.276  0.0223 -0.0034  0.6776
  771MOL0     C 4003   2.912   3.218   9.490 -0.3067 -0.6896 -0.3065
  771MOL0     C 4004   2.791   3.227   9.561  0.1943  0.0812 -0.0475
  771MOL0     C 4005   2.335   3.102   9.614 -1.1567 -0.1878 -0.6061
  771MOL0     C 4006   2.237   3.011   9.585  0.2314  0.0899 -0.3430
  771MOL0     C 4007   2.126   3.013   9.665  0.1998  0.2882 -0.3436
  771MOL0     C 4008   2.119   3.099   9.777  0.9097  0.1834  0.4352
  771MOL0     O 4009   2.008   3.106   9.867 -0.5985 -0.7078 -0.0039
  771MOL0     C 4010   1.916   2.996   9.864  0.0291 -1.3838 -0.2122
  771MOL0     C 4011   1.791   3.028   9.788  0.6504  0.2223  0.4757
  771MOL0     C 4012   1.665   2.960   9.844  0.6764  0.0681 -0.2013
  771MOL0     C 4013   1.695   2.815   9.888 -0.0068 -0.2436 -0.7087
  771MOL0     C 4014   1.564   2.750   9.918 -1.3309  0.7608 -0.3537
  771MOL0     C 4015   1.454   2.708   9.944 -1.0477  0.1957  0.9737
  771MOL0     C 4016   2.220   3.178   9.805 -0.0331  1.1246 -0.1894
  771MOL0     C 4017   2.332   3.191   9.726 -0.6078 -0.4161 -0.1635
  771MOL0     H 4018   2.576   3.276   9.296 -0.5361  0.6543  0.3111
  771MOL0     H 4019   2.788   3.256   9.186 -0.4774 -1.3878 -0.9360
  771MOL0     H 4020   3.052   3.434   9.264 -0.0148 -1.9719  1.5805
  771MOL0     H 4021   3.184   3.323   9.230  0.0028  0.3626  3.8005
  771MOL0     H 4022   2.943   3.328   9.053  0.3662  1.9454 -0.8827
  771MOL0     H 4023   3.078   3.449   9.036  0.9972 -0.9048 -1.4125
  771MOL0     H 4024   3.233   3.301   8.977 -0.1998  1.4548 -0.6458
  771MOL0     H 4025   3.135   3.156   9.037 -1.4723 -0.7079 -2.3982
  771MOL0     H 4026   3.137   3.148   8.790 -1.0204 -2.9587  1.4697
  771MOL0     H 4027   2.978   3.188   8.860 -0.8054  4.4973  2.1527
  771MOL0     H 4028   3.006   3.435   8.792 -1.9485 -0.4952 -2.7102
  771MOL0     H 4029   3.174   3.388   8.738  0.1423 -0.5627 -0.2848
  771MOL0     H 4030   3.078   3.243   8.578  0.8781  0.1637  1.4628
  771MOL0     H 4031   2.917   3.273   8.630  0.5377  0.0506  2.5698
  771MOL0     H 4032   2.903   3.498   8.579  0.5802  1.1876  1.2613
  771MOL0     H 4033   3.082   3.516   8.564 -1.5829  0.4824  0.4889
  771MOL0     H 4034   3.074   3.393   8.344 -1.0605 -2.3048  0.7182
  771MOL0     H 4035   2.987   3.543   8.354 -0.3637  0.4064  3.9532
  771MOL0     H 4036   2.701   3.497   8.432 -1.7136 -1.9155  2.0160
  771MOL0     H 4037   2.469   3.214   8.267  3.8857 -2.0212  0.0859
  771MOL0     H 4038   2.484   3.288   8.434  2.0568 -0.8840  0.2718
  771MOL0     H 4039   2.452   3.439   8.161 -4.0800  2.3536 -1.0775
  771MOL0     H 4040   2.448   3.507   8.326 -3.7754  0.9997  0.5319
  771MOL0     H 4041   2.238   3.390   8.369 -1.7981  2.8620 -0.4319
  771MOL0     H 4042   2.240   3.335   8.198 -2.8639  1.3989 -1.3451
  771MOL0     H 4043   2.104   3.536   8.211 -0.1104 -2.3053  1.4904
  771MOL0     H 4044   2.255   3.586   8.148  1.2889  1.8993  1.8149
  771MOL0     H 4045   2.040   3.806   8.299  2.7081 -0.4702 -0.6109
  771MOL0     H 4046   1.732   3.847   8.319  1.1523  0.7829 -1.1902
  771MOL0     H 4047   1.766   3.940   8.470 -0.9006 -1.0252  0.3129
  771MOL0     H 4048   1.872   3.955   8.339  2.2980 -2.0574 -1.4299
  771MOL0     H 4049   1.479   3.672   8.817 -0.9541 -0.4706 -0.7790
  771MOL0     H 4050   1.236   3.699   8.839  0.6608 -0.2122  1.0077
  771MOL0     H 4051   0.892   3.911   8.595  0.8090  0.5020 -0.1385
  771MOL0     H 4052   1.019   3.885   8.481  1.2379 -1.5757 -0.7634
  771MOL0     H 4053   0.840   3.735   8.469 -1.3818  2.1576  0.8421
  771MOL0     H 4054   1.005   3.677   8.479  2.7265  0.7237  2.8067
  771MOL0     H 4055   0.962   3.633   8.737  0.0900  2.2287 -0.6486
  771MOL0     H 4056   0.882   3.534   8.621 -0.5100 -1.2738  3.3663
  771MOL0     H 4057   0.737   3.779   8.742 -1.0833 -0.9742  2.9356
  771MOL0     H 4058   0.672   3.622   8.680  0.4157 -1.7599  1.8580
  771MOL0     H 4059   0.824   3.670   8.935  0.7928 -1.0397  0.0118
  771MOL0     H 4060   0.731   3.518   8.881 -1.0792 -0.4677  0.0178
  771MOL0     H 4061   0.623   3.638   9.050  1.7594 -1.7047 -1.3803
  771MOL0     H 4062   0.626   3.798   8.962  0.3977  0.1330  2.2261
  771MOL0     H 4063   0.478   3.543   8.887 -1.5084  0.6305 -0.2414
  771MOL0     H 4064   0.482   3.695   8.793 -2.2617  2.4946  0.6651
  771MOL0     H 4065   0.274   3.709   8.892  2.4379 -1.5594 -3.6753
  771MOL0     H 4066   0.380   3.814   8.980  0.9540  0.3967  1.7872
  771MOL0     H 4067   1.251   3.967   8.497 -0.3082  0.7904  0.2649
  771MOL0     H 4068   1.483   3.944   8.483  1.9604 -2.0629  0.7734
  771MOL0     H 4069   1.928   3.527   8.681  1.2573  0.4413  0.8998
  771MOL0     H 4070   2.149   3.506   8.586  1.6908 -0.3009 -0.6787
  771MOL0     H 4071   3.004   3.198   9.543 -0.3980  0.4809  0.3273
  771MOL0     H 4072   2.778   3.200   9.665 -2.9442 -2.8598 -1.0291
  771MOL0     H 4073   2.242   2.949   9.496  2.0818  0.1556 -0.3248
  771MOL0     H 4074   2.033   2.975   9.625 -0.0552  2.8931 -2.5591
  771MOL0     H 4075   1.961   2.899   9.841  0.9675 -2.0178  3.5906
  771MOL0     H 4076   1.895   2.979   9.970  1.5538 -1.1633  0.1457
  771MOL0     H 4077   1.804   3.011   9.681 -1.6825 -2.5916  0.5088
  771MOL0     H 4078   1.775   3.135   9.804  0.2017  0.8494 -3.2613
  771MOL0     H 4079   1.593   2.968   9.763  1.0076  2.0972 -0.3551
  771MOL0     H 4080   1.614   3.001   9.932  0.3268 -2.3167  0.7815
  771MOL0     H 4081   1.759   2.801   9.975  1.0691 -1.7148 -1.6958
  771MOL0     H 4082   1.736   2.763   9.801  2.5278  0.8452 -0.2650
  771MOL0     H 4083   1.349   2.696   9.963 -1.6505  0.1516 -1.8918
  771MOL0     H 4084   2.203   3.230   9.899 -1.4585 -0.8903  0.7248
  771MOL0     H 4085   2.405   3.271   9.739 -1.6563  0.2832  1.8741
  772MOL0     O 4086   0.033   1.061   7.325  0.0423 -0.8303 -0.1556
  772MOL0     C 4087   0.059   0.988   7.418  0.2463  0.7827 -0.0947
  772MOL0     O 4088  -0.030   0.911   7.490 -0.3781  0.4970 -0.2055
  772MOL0     C 4089  -0.160   0.939   7.477 -0.6502  0.1876  0.0239
  772MOL0     C 4090  -0.208   1.042   7.557  0.0709 -0.5393 -0.2737
  772MOL0     C 4091  -0.349   1.073   7.564 -0.7951 -0.4285  0.6856
  772MOL0     C 4092  -0.436   0.996   7.491 -0.2196 -0.4428  0.1505
  772MOL0     O 4093  -0.571   1.015   7.512 -0.4619  0.5880  0.7147
  772MOL0     C 4094  -0.670   1.003   7.413  0.0815  0.0671 -0.4247
  772MOL0     C 4095  -0.723   1.135   7.379 -0.3995  0.8297 -0.1299
  772MOL0     C 4096  -0.822   1.194   7.474 -0.0420 -0.1856 -0.2297
  772MOL0     C 4097  -0.957   1.118   7.485  0.0312 -0.2723 -0.0699
  772MOL0     C 4098  -1.032   1.132   7.353 -0.8401 -0.4675  0.0284
  772MOL0     C 4099  -1.183   1.108   7.374 -0.3095  0.4540 -0.6057
  772MOL0     C 4100  -1.236   1.234   7.458  0.5945 -0.9094 -0.0509
  772MOL0     C 4101  -1.388   1.247   7.419  0.6444 -0.5895  0.1432
  772MOL0     N 4102  -1.450   1.131   7.470  0.0819 -0.0583 -0.1091
  772MOL0     C 4103  -1.454   1.093   7.604 -1.0565  0.1418  0.8173
  772MOL0     C 4104  -1.533   0.988   7.608 -0.1437  0.1837 -0.1855
  772MOL0     C 4105  -1.565   0.914   7.734 -0.5789 -0.4992 -0.3221
  772MOL0     C 4106  -1.689   0.971   7.807  0.4003  0.1938  0.4884
  772MOL0     C 4107  -1.729   0.873   7.918 -0.2684 -0.2822  0.0679
  772MOL0     C 4108  -1.865   0.904   7.974  0.8416  0.0597 -0.1007
  772MOL0     O 4109  -1.864   0.873   8.113 -0.4113 -0.6132 -0.1746
  772MOL0     C 4110  -1.982   0.876   8.184 -0.3498  0.0033  0.5528
  772MOL0     C 4111  -2.109   0.900   8.131  0.2093  0.2699  0.3643
  772MOL0     C 4112  -2.226   0.885   8.204  0.0088  0.0470 -0.4722
  772MOL0     C 4113  -2.350   0.904   8.124 -0.3674 -0.1356  0.0406
  772MOL0     C 4114  -2.211   0.855   8.348 -0.0069 -0.5359 -0.3036
  772MOL0     C 4115  -2.331   0.851   8.434 -0.8569  1.2955 -0.5427
  772MOL0     O 4116  -2.456   0.836   8.379 -0.5992  0.3246 -0.8128
  772MOL0     C 4117  -2.568   0.842   8.459  0.3284 -0.9875 -0.4508
  772MOL0     C 4118  -2.582   0.934   8.563  0.0484 -0.6975  0.6158
  772MOL0     C 4119  -2.710   0.948   8.631  0.0510  0.6656  0.9585
  772MOL0     C 4120  -2.816   0.870   8.594 -0.0425  0.6094  0.7631
  772MOL0     O 4121  -2.931   0.892   8.665 -0.3756  0.1413  0.2990
  772MOL0     C 4122  -3.039   0.807   8.630 -0.4091  0.2438  0.2429
  772MOL0     C 4123  -3.026   0.666   8.695  0.1162  0.5494 -0.1195
  772MOL0     C 4124  -3.159   0.615   8.775  0.1081  0.3232  0.0863
  772MOL0     C 4125  -3.184   0.690   8.909 -0.3055  0.2519 -0.4095
  772MOL0     C 4126  -3.309   0.636   8.984 -0.2176  0.4283 -0.1400
  772MOL0     C 4127  -3.304   0.676   9.132 -0.1941 -1.1060  0.8726
  772MOL0     C 4128  -3.431   0.639   9.209  0.5174 -0.0135 -0.1467
  772MOL0     C 4129  -3.413   0.670   9.357 -1.2144 -0.1589 -0.2145
  772MOL0    Cl 4130  -3.519   0.578   9.454 -0.5111  0.0081 -0.5117
  772MOL0     C 4131  -2.803   0.781   8.483  0.9546 -0.7354 -0.7667
  772MOL0     C 4132  -2.681   0.772   8.421  0.4555 -0.1718 -0.4581
  772MOL0     O 4133  -2.301   0.834   8.548  0.8636  1.1410 -1.0043
  772MOL0     C 4134  -2.081   0.820   8.393  1.0681  0.8939  0.7876
  772MOL0     C 4135  -1.972   0.836   8.318  0.1850 -0.4747  0.4839
  772MOL0     N 4136  -1.571   0.957   7.477 -0.5051 -0.1748 -0.1156
  772MOL0     N 4137  -1.526   1.042   7.396  0.3072 -0.6247 -0.1080
  772MOL0     C 4138  -0.382   0.897   7.412  0.3181  0.0887  0.5942
  772MOL0     C 4139  -0.247   0.869   7.397 -0.3248 -1.1449 -0.5322
  772MOL0     C 4140   0.195   0.977   7.468 -0.2287 -0.5155  0.9560
  772MOL0     C 4141   0.232   0.983   7.603 -0.6128 -0.8147  0.0267
  772MOL0     C 4142   0.365   0.989   7.639  0.8496 -0.1267 -0.0309
  772MOL0     C 4143   0.468   0.976   7.550  0.0226  0.4102 -0.1557
  772MOL0     O 4144   0.602   0.947   7.581  0.1160  0.7668  0.0880
  772MOL0     C 4145   0.660   1.030   7.680 -0.1144  0.3851  0.4940
  772MOL0     C 4146   0.793   0.956   7.723  0.7928 -0.0918 -0.7935
  772MOL0     C 4147   0.767   0.812   7.765 -0.8320 -0.2569 -0.5937
  772MOL0     C 4148   0.878   0.760   7.867 -0.1690 -0.0616  0.1657
  772MOL0     C 4149   1.003   0.745   7.787  0.5172 -0.0695  0.5741
  772MOL0     C 4150   1.105   0.729   7.722  0.5523  0.3463 -0.0450
  772MOL0     C 4151   0.434   0.983   7.420  0.7229  0.1854 -0.0763
  772MOL0     C 4152   0.302   0.991   7.368  0.2074 -0.8246 -0.6181
  772MOL0     H 4153  -0.140   1.093   7.625 -0.9000 -1.2371  1.2681
  772MOL0     H 4154  -0.381   1.157   7.625  2.4589  0.9844  0.6515
  772MOL0     H 4155  -0.646   0.945   7.324 -1.1130 -1.8750  0.4570
  772MOL0     H 4156  -0.749   0.945   7.462  1.8804  0.1801  2.8839
  772MOL0     H 4157  -0.643   1.205   7.356 -0.1624  0.7138  0.3299
  772MOL0     H 4158  -0.766   1.124   7.279  1.3164  1.5430 -0.9864
  772MOL0     H 4159  -0.773   1.201   7.572 -1.2289  1.4569  0.2828
  772MOL0     H 4160  -0.849   1.297   7.447  1.5275  0.6597  1.2156
  772MOL0     H 4161  -0.943   1.010   7.490  1.4452 -0.2196 -1.7478
  772MOL0     H 4162  -1.021   1.163   7.561  1.5565  1.1452  0.4393
  772MOL0     H 4163  -1.015   1.235   7.323 -1.0749  0.2288  2.1278
  772MOL0     H 4164  -0.993   1.053   7.289  0.2892  0.2003 -0.1273
  772MOL0     H 4165  -1.225   1.095   7.274  0.3113  0.6693 -0.8955
  772MOL0     H 4166  -1.211   1.019   7.430 -1.9238  1.3059  0.0213
  772MOL0     H 4167  -1.225   1.210   7.564 -0.0264  1.7753  0.6765
  772MOL0     H 4168  -1.174   1.322   7.443  0.0960 -0.0025  2.6217
  772MOL0     H 4169  -1.406   1.251   7.311  0.3901  4.0687  0.1546
  772MOL0     H 4170  -1.437   1.338   7.455 -0.8145 -1.2548 -0.1089
  772MOL0     H 4171  -1.404   1.130   7.693  1.2026 -1.4661  0.2887
  772MOL0     H 4172  -1.586   0.810   7.709  2.5033 -1.3257  0.0673
  772MOL0     H 4173  -1.474   0.909   7.795  0.5074 -1.0158 -1.9389
  772MOL0     H 4174  -1.772   0.971   7.736  0.6292 -2.2218  0.1469
  772MOL0     H 4175  -1.676   1.067   7.859  3.6983 -0.4834  1.1416
  772MOL0     H 4176  -1.652   0.871   7.997  0.3461 -1.9499 -0.5267
  772MOL0     H 4177  -1.723   0.774   7.872  1.2629 -0.3621  0.3899
  772MOL0     H 4178  -1.943   0.851   7.920 -0.0002  1.2698 -0.1040
  772MOL0     H 4179  -1.881   1.010   7.953  3.7658  0.7313  0.5244
  772MOL0     H 4180  -2.118   0.924   8.026 -1.7198 -0.6354  0.2812
  772MOL0     H 4181  -2.423   0.966   8.177  0.7540  2.4514 -1.2516
  772MOL0     H 4182  -2.331   0.928   8.019  0.9449 -3.6166 -0.6353
  772MOL0     H 4183  -2.391   0.803   8.115 -1.9778  0.6133 -1.4916
  772MOL0     H 4184  -2.498   0.998   8.589  0.9851 -0.4399 -2.5983
  772MOL0     H 4185  -2.730   1.024   8.706  3.2623 -1.1853  4.0018
  772MOL0     H 4186  -3.131   0.847   8.675 -2.5499 -3.8173 -0.0916
  772MOL0     H 4187  -3.049   0.812   8.521  2.0638  3.5906  0.0221
  772MOL0     H 4188  -3.002   0.594   8.615 -0.9873 -1.6181  1.3822
  772MOL0     H 4189  -2.951   0.665   8.774  0.1351  3.2679 -0.0170
  772MOL0     H 4190  -3.146   0.507   8.787 -0.0870  0.0543 -1.8127
  772MOL0     H 4191  -3.243   0.627   8.705  1.2219 -0.5681 -1.4600
  772MOL0     H 4192  -3.098   0.663   8.971  1.7498  3.3047 -1.7055
  772MOL0     H 4193  -3.188   0.799   8.900  2.2116  0.6463  1.9596
  772MOL0     H 4194  -3.315   0.527   8.977 -1.3825  0.5127 -0.6740
  772MOL0     H 4195  -3.401   0.681   8.946 -0.4690 -0.6157 -0.8211
  772MOL0     H 4196  -3.223   0.633   9.192  2.0032  1.2740 -0.1921
  772MOL0     H 4197  -3.292   0.784   9.139 -0.3119 -0.9213 -1.2150
  772MOL0     H 4198  -3.456   0.535   9.189 -1.6373  0.6440 -1.2774
  772MOL0     H 4199  -3.515   0.693   9.163 -0.2815 -0.7822  0.3650
  772MOL0     H 4200  -3.420   0.777   9.377  2.0074  0.2202 -0.4994
  772MOL0     H 4201  -3.314   0.633   9.386 -1.2547 -1.1976 -1.2961
  772MOL0     H 4202  -2.885   0.715   8.456  0.5037  0.5712 -2.8630
  772MOL0     H 4203  -2.680   0.704   8.336 -2.0530  0.1187 -0.7982
  772MOL0     H 4204  -2.073   0.797   8.498 -0.8384  0.1419  0.8130
  772MOL0     H 4205  -1.871   0.818   8.353  0.5839  0.1725 -0.3142
  772MOL0     H 4206  -0.446   0.834   7.350 -0.7565 -0.4705  2.1916
  772MOL0     H 4207  -0.214   0.786   7.335  0.6218 -2.6466  1.8424
  772MOL0     H 4208   0.159   0.987   7.684 -2.1625 -0.8358 -1.3260
  772MOL0     H 4209   0.388   0.997   7.745 -0.2719 -0.3584  0.2389
  772MOL0     H 4210   0.681   1.130   7.639 -2.9208  0.0202 -2.1247
  772MOL0     H 4211   0.595   1.052   7.765 -0.3271 -1.7114  0.9316
  772MOL0     H 4212   0.825   1.007   7.815  3.5885  0.9679 -2.2313
  772MOL0     H 4213   0.872   0.962   7.648  1.4630 -2.1049 -0.3081
  772MOL0     H 4214   0.763   0.753   7.673 -1.4360 -0.2820 -0.5571
  772MOL0     H 4215   0.676   0.783   7.819 -0.8335  2.2216  0.8793
  772MOL0     H 4216   0.841   0.667   7.910 -5.1826  0.4054 -2.3682
  772MOL0     H 4217   0.894   0.824   7.954 -1.1925  0.8901 -0.3120
  772MOL0     H 4218   1.204   0.714   7.685  0.5875  1.4430 -0.4289
  772MOL0     H 4219   0.513   0.958   7.350  1.4645 -2.0418  1.4658
  772MOL0     H 4220   0.290   0.997   7.260  1.1382 -1.6634 -0.7924
  773MOL0     O 4221  10.419   1.841   5.371  0.2501  0.3396  0.3931
  773MOL0     C 4222  10.466   1.853   5.259 -0.3005 -1.1192  0.1797
  773MOL0     O 4223  10.420   1.931   5.158  0.0936 -0.3272 -0.0297
  773MOL0     C 4224  10.312   2.002   5.182  0.3070 -1.1577 -0.1117
  773MOL0     C 4225  10.286   2.080   5.300  0.8578  0.0890 -0.7811
  773MOL0     C 4226  10.178   2.163   5.314 -1.0466  0.1292  0.1079
  773MOL0     C 4227  10.072   2.164   5.212 -0.2950  0.3670  0.4240
  773MOL0     O 4228   9.952   2.225   5.239 -0.4889  0.0650  0.4486
  773MOL0     C 4229   9.833   2.143   5.198  0.2751 -0.3582 -0.6918
  773MOL0     C 4230   9.713   2.178   5.290 -0.5255  0.0773  0.3504
  773MOL0     C 4231   9.646   2.312   5.254 -0.9832 -0.2955 -0.9264
  773MOL0     C 4232   9.522   2.301   5.170 -0.7161  0.3850 -0.4876
  773MOL0     C 4233   9.464   2.444   5.139  0.3600  0.7275 -0.0342
  773MOL0     C 4234   9.343   2.438   5.038 -0.1208  0.4228 -0.7120
  773MOL0     C 4235   9.213   2.405   5.105 -0.2618 -0.0840 -0.2158
  773MOL0     C 4236   9.092   2.426   5.019 -1.0974 -0.1360 -0.1463
  773MOL0     N 4237   8.962   2.417   5.086 -0.4994 -0.0467  0.4787
  773MOL0     C 4238   8.920   2.356   5.205  0.1326  0.7163 -0.2264
  773MOL0     C 4239   8.779   2.376   5.214 -1.0796  0.1006 -0.0336
  773MOL0     C 4240   8.702   2.333   5.343  0.8011 -1.3544 -1.0436
  773MOL0     C 4241   8.554   2.310   5.322 -0.2460  0.2046  0.1929
  773MOL0     C 4242   8.495   2.322   5.457 -0.2135  0.4173  0.0780
  773MOL0     C 4243   8.349   2.280   5.455  1.0988  0.3862 -0.2541
  773MOL0     O 4244   8.303   2.245   5.580  0.3323 -0.1610  0.3096
  773MOL0     C 4245   8.174   2.210   5.601 -0.3046 -0.7459 -0.0472
  773MOL0     C 4246   8.137   2.185   5.731 -0.7386 -0.0396  0.2622
  773MOL0     C 4247   8.012   2.134   5.769  0.1822 -0.5003  0.0559
  773MOL0     C 4248   8.003   2.086   5.912  0.0877  0.3931  0.3359
  773MOL0     C 4249   7.910   2.145   5.677 -0.0057  0.1976  0.0032
  773MOL0     C 4250   7.766   2.122   5.703 -0.0129  0.9384  0.9859
  773MOL0     O 4251   7.686   2.106   5.583 -0.6272  0.7079 -0.2313
  773MOL0     C 4252   7.554   2.073   5.593 -1.8417  0.7637  0.1009
  773MOL0     C 4253   7.511   1.975   5.680  0.4976 -0.6305  0.2050
  773MOL0     C 4254   7.372   1.958   5.701 -0.1938 -0.3765  0.5008
  773MOL0     C 4255   7.276   2.033   5.633  0.1913 -0.2266  1.0187
  773MOL0     O 4256   7.143   2.034   5.650  0.0188 -0.4567 -0.4397
  773MOL0     C 4257   7.099   2.012   5.788 -0.3316  0.6466 -0.6859
  773MOL0     C 4258   6.952   2.052   5.807  0.7374 -0.5675 -0.0355
  773MOL0     C 4259   6.892   2.012   5.942 -0.2433  0.1467 -0.0396
  773MOL0     C 4260   6.983   2.074   6.056  0.3022 -0.4950  0.3431
  773MOL0     C 4261   6.938   2.041   6.201  0.0931 -0.1341 -0.2468
  773MOL0     C 4262   6.797   2.068   6.257  0.4440 -0.1526 -0.0984
  773MOL0     C 4263   6.800   2.027   6.407 -0.5202 -0.5623  0.0591
  773MOL0     C 4264   6.662   2.020   6.470 -0.0037  0.3102 -0.5842
  773MOL0    Cl 4265   6.565   1.893   6.389  0.2536 -0.2938  0.0950
  773MOL0     C 4266   7.323   2.121   5.534 -0.6152  0.2384  0.4986
  773MOL0     C 4267   7.458   2.145   5.517  0.1308  0.3817 -0.1110
  773MOL0     O 4268   7.725   2.124   5.824  0.3659  0.4141  0.5067
  773MOL0     C 4269   7.941   2.174   5.538 -0.3156  0.1979 -0.3738
  773MOL0     C 4270   8.076   2.209   5.502  0.1349  0.8367 -0.2593
  773MOL0     N 4271   8.740   2.436   5.106  0.1733 -0.2267  0.4135
  773MOL0     N 4272   8.846   2.469   5.041  0.2215 -0.7424  0.0694
  773MOL0     C 4273  10.100   2.090   5.096 -0.2370 -0.2464 -0.0952
  773MOL0     C 4274  10.216   2.014   5.082 -0.1000 -0.1189  0.6086
  773MOL0     C 4275  10.582   1.769   5.222  0.1073  0.5745 -0.2711
  773MOL0     C 4276  10.637   1.757   5.094  0.1390 -0.2046  0.3856
  773MOL0     C 4277  10.744   1.669   5.073 -0.0358  0.6727 -0.5295
  773MOL0     C 4278  10.811   1.605   5.179 -1.3723 -0.6637  0.1675
  773MOL0     O 4279  10.934   1.542   5.175  0.8128 -0.4236  0.5178
  773MOL0     C 4280  11.005   1.550   5.051 -0.6589 -0.5510  0.1695
  773MOL0     C 4281  11.138   1.474   5.062  0.0978 -0.1931  0.6430
  773MOL0     C 4282  11.132   1.326   5.104 -0.4000  0.0022 -0.5437
  773MOL0     C 4283  11.261   1.252   5.130  0.5881 -0.2204 -0.0404
  773MOL0     C 4284  11.325   1.215   4.998 -0.3109 -0.2180 -0.2797
  773MOL0     C 4285  11.387   1.190   4.894 -0.2183  0.3353  0.1667
  773MOL0     C 4286  10.753   1.619   5.298 -0.7389  1.3377  0.2004
  773MOL0     C 4287  10.637   1.694   5.319 -0.6377  0.8727 -0.1126
  773MOL0     H 4288  10.336   2.067   5.395 -1.0221  0.2431  0.2815
  773MOL0     H 4289  10.156   2.208   5.410  0.3167 -0.5954  0.7904
  773MOL0     H 4290   9.828   2.143   5.088  1.5848  1.2090 -0.7755
  773MOL0     H 4291   9.853   2.038   5.221 -0.6639 -0.9113 -2.1924
  773MOL0     H 4292   9.642   2.097   5.274 -0.9427  0.9541 -2.9679
  773MOL0     H 4293   9.748   2.170   5.394 -0.0125 -1.2906  0.0879
  773MOL0     H 4294   9.632   2.372   5.345  0.0459  0.9497 -1.5519
  773MOL0     H 4295   9.710   2.375   5.192  1.2865 -0.8541  0.7418
  773MOL0     H 4296   9.537   2.244   5.077 -2.9364 -0.3509 -0.4446
  773MOL0     H 4297   9.447   2.257   5.236 -2.7423  1.9828 -1.6207
  773MOL0     H 4298   9.458   2.509   5.226 -0.0586  2.2967 -1.1958
  773MOL0     H 4299   9.538   2.506   5.089 -0.5702  1.2496 -0.8060
  773MOL0     H 4300   9.338   2.536   4.988  1.2800  2.3133  2.5240
  773MOL0     H 4301   9.372   2.362   4.966  0.2426 -0.2012  0.0822
  773MOL0     H 4302   9.219   2.300   5.134 -0.7029 -0.7093 -2.2448
  773MOL0     H 4303   9.206   2.470   5.193 -2.1413 -0.8209  0.2109
  773MOL0     H 4304   9.097   2.343   4.948 -0.7563 -0.4371  0.2242
  773MOL0     H 4305   9.111   2.520   4.965  5.6059  0.5030  2.4017
  773MOL0     H 4306   8.983   2.306   5.277 -1.7703  2.2141  2.6375
  773MOL0     H 4307   8.753   2.249   5.390  0.9701  0.0375  1.4373
  773MOL0     H 4308   8.708   2.410   5.421  2.4260  0.3989 -2.8066
  773MOL0     H 4309   8.538   2.210   5.282  0.5996  0.7584 -1.6046
  773MOL0     H 4310   8.511   2.372   5.243 -2.2248 -1.8833 -0.5014
  773MOL0     H 4311   8.510   2.423   5.496 -0.4457  0.8879 -1.0034
  773MOL0     H 4312   8.546   2.249   5.519 -1.9294 -3.2833 -2.5076
  773MOL0     H 4313   8.323   2.189   5.401 -1.2922  1.3795 -0.9039
  773MOL0     H 4314   8.288   2.355   5.406 -0.1989 -1.9770 -2.5212
  773MOL0     H 4315   8.215   2.189   5.807  2.4175 -2.0187 -2.5814
  773MOL0     H 4316   8.100   2.067   5.957  0.7020  1.1543 -0.6264
  773MOL0     H 4317   7.944   2.159   5.968 -3.2356 -1.7148 -0.0782
  773MOL0     H 4318   7.952   1.989   5.915 -1.4060  1.1553  1.1895
  773MOL0     H 4319   7.578   1.902   5.726  2.8939  1.1724 -0.1963
  773MOL0     H 4320   7.333   1.887   5.774 -2.6003  1.0817  0.7616
  773MOL0     H 4321   7.116   1.909   5.822 -0.3951  1.1176  0.8629
  773MOL0     H 4322   7.162   2.073   5.853 -0.5452  1.3908 -1.1634
  773MOL0     H 4323   6.932   2.159   5.796  0.5258 -0.5936  0.0975
  773MOL0     H 4324   6.894   1.999   5.731  1.8370 -2.0883  0.1453
  773MOL0     H 4325   6.910   1.905   5.952  3.1495  0.7659  2.3454
  773MOL0     H 4326   6.787   2.041   5.951 -0.6394 -1.2878  0.2250
  773MOL0     H 4327   7.087   2.043   6.057  1.5382  2.6528 -3.2372
  773MOL0     H 4328   6.986   2.183   6.048 -1.5956 -0.3349  1.2752
  773MOL0     H 4329   7.012   2.079   6.271 -0.3095 -1.6695  1.0633
  773MOL0     H 4330   6.952   1.932   6.200  1.6430  0.0445  0.4495
  773MOL0     H 4331   6.763   2.171   6.244 -1.4086 -0.5989  0.8302
  773MOL0     H 4332   6.717   2.020   6.200  0.5433  2.3655 -2.5873
  773MOL0     H 4333   6.856   2.099   6.467 -0.3805 -0.6753  0.0657
  773MOL0     H 4334   6.846   1.928   6.418 -1.3261 -0.9497  0.0220
  773MOL0     H 4335   6.612   2.117   6.462  1.9063  1.2118 -3.7667
  773MOL0     H 4336   6.677   1.982   6.572 -3.7392 -2.8557 -1.0005
  773MOL0     H 4337   7.248   2.168   5.471 -0.7627 -0.1468  0.3889
  773MOL0     H 4338   7.475   2.227   5.449 -0.9316  0.1671 -0.6530
  773MOL0     H 4339   7.866   2.169   5.460  1.4652 -2.7494 -2.0829
  773MOL0     H 4340   8.087   2.225   5.395 -1.0610 -0.1976 -0.5652
  773MOL0     H 4341  10.035   2.106   5.010 -0.4462 -1.2495 -0.1452
  773MOL0     H 4342  10.245   1.969   4.987  0.7736  0.8468  0.3954
  773MOL0     H 4343  10.600   1.806   5.004 -3.0521 -2.5113  0.2888
  773MOL0     H 4344  10.797   1.659   4.979 -1.3989 -2.2136 -1.0973
  773MOL0     H 4345  10.949   1.482   4.987  2.7288 -1.6778 -1.8251
  773MOL0     H 4346  11.026   1.653   5.020  4.0124 -1.3194  0.0662
  773MOL0     H 4347  11.201   1.523   5.136  0.8370  1.7717 -1.1711
  773MOL0     H 4348  11.188   1.478   4.965  2.8013  1.9322  1.9773
  773MOL0     H 4349  11.069   1.271   5.034 -1.4905 -1.6113  1.5914
  773MOL0     H 4350  11.068   1.317   5.192 -1.2834  1.3858 -1.0097
  773MOL0     H 4351  11.237   1.158   5.181  2.9259  0.7820  3.3132
  773MOL0     H 4352  11.333   1.304   5.195  0.5673 -1.5209  1.0596
  773MOL0     H 4353  11.430   1.182   4.797  0.5500  0.6055  0.4811
  773MOL0     H 4354  10.801   1.569   5.382  0.1846  0.9692 -0.5390
  773MOL0     H 4355  10.609   1.695   5.424  1.1699  0.1744  0.4319
  774MOL0     O 4356   0.105   5.331   1.923 -0.3238  0.0481  0.1113
  774MOL0     C 4357   0.216   5.290   1.882  0.6745  0.2116 -0.2790
  774MOL0     O 4358   0.231   5.168   1.821  0.4123 -0.6937  0.1396
  774MOL0     C 4359   0.123   5.114   1.763  0.7674  0.5653 -0.0937
  774MOL0     C 4360   0.036   5.030   1.835 -0.4323 -0.4280  1.2346
  774MOL0     C 4361  -0.078   4.979   1.771  0.0639  0.6819 -0.3348
  774MOL0     C 4362  -0.116   5.026   1.642 -0.2481  0.4179 -0.0019
  774MOL0     O 4363  -0.224   4.977   1.570  0.1092  0.0435  0.2312
  774MOL0     C 4364  -0.331   4.905   1.638 -0.6859 -0.8095 -0.7660
  774MOL0     C 4365  -0.443   4.891   1.534 -0.0960 -0.4414  0.4500
  774MOL0     C 4366  -0.427   4.774   1.441  0.5913  0.3622  0.6171
  774MOL0     C 4367  -0.538   4.784   1.341  0.5176  0.4039  0.1481
  774MOL0     C 4368  -0.682   4.760   1.395 -1.2819  0.3675  0.6978
  774MOL0     C 4369  -0.772   4.731   1.283 -0.4787  0.2430  0.4210
  774MOL0     C 4370  -0.907   4.695   1.317  0.0684  0.9267  0.1019
  774MOL0     C 4371  -0.991   4.653   1.202 -0.4378 -0.7611  0.0805
  774MOL0     N 4372  -1.119   4.595   1.239  0.5389 -0.4885 -0.5687
  774MOL0     C 4373  -1.136   4.471   1.302 -0.2240 -0.2962  1.0900
  774MOL0     C 4374  -1.264   4.480   1.344 -0.7896 -0.0222 -0.1348
  774MOL0     C 4375  -1.337   4.376   1.424  0.0690 -0.7550 -0.7935
  774MOL0     C 4376  -1.444   4.313   1.345 -0.4745  0.5329  0.6065
  774MOL0     C 4377  -1.573   4.391   1.338 -0.0781 -0.1025 -0.2219
  774MOL0     C 4378  -1.685   4.304   1.287  0.3799 -0.5145 -1.4000
  774MOL0     O 4379  -1.809   4.376   1.304  0.9201  0.6903  0.3088
  774MOL0     C 4380  -1.928   4.315   1.262  0.7223 -1.0545 -0.4425
  774MOL0     C 4381  -1.943   4.194   1.193  1.4543 -0.7524  0.4865
  774MOL0     C 4382  -2.065   4.143   1.143  0.1270  1.1805 -0.5386
  774MOL0     C 4383  -2.068   4.005   1.074  0.3157 -0.7923 -0.0213
  774MOL0     C 4384  -2.185   4.220   1.161 -0.5709  0.7319  0.1163
  774MOL0     C 4385  -2.314   4.186   1.117  0.9210 -0.9604  0.1258
  774MOL0     O 4386  -2.412   4.290   1.125 -0.7069 -0.1058 -0.1784
  774MOL0     C 4387  -2.540   4.269   1.079  0.5701  0.2553  0.7296
  774MOL0     C 4388  -2.602   4.376   1.006 -0.1019  0.6508  0.2501
  774MOL0     C 4389  -2.730   4.362   0.950 -0.3384 -0.2782  0.2492
  774MOL0     C 4390  -2.789   4.232   0.962 -0.0931  0.6897  0.7641
  774MOL0     O 4391  -2.909   4.201   0.902 -0.4674 -0.2359  0.1078
  774MOL0     C 4392  -2.949   4.247   0.767 -0.9380  0.8217 -0.6237
  774MOL0     C 4393  -3.095   4.257   0.751  0.5690  0.2999 -0.3109
  774MOL0     C 4394  -3.168   4.349   0.850  0.4374 -0.0442 -0.4967
  774MOL0     C 4395  -3.318   4.316   0.855  0.6011  0.4045  0.2315
  774MOL0     C 4396  -3.410   4.412   0.945 -0.3538  1.3097 -0.3957
  774MOL0     C 4397  -3.557   4.390   0.921  0.0971 -0.2639 -1.0092
  774MOL0     C 4398  -3.623   4.479   1.029  0.4628  0.1690  0.2522
  774MOL0     C 4399  -3.775   4.472   1.013 -0.1245  0.3034  0.4417
  774MOL0    Cl 4400  -3.846   4.308   1.011 -0.1940  0.3394  0.3496
  774MOL0     C 4401  -2.735   4.130   1.038 -0.2995 -0.6748 -0.0982
  774MOL0     C 4402  -2.611   4.151   1.097 -0.0170  0.3107 -0.0195
  774MOL0     O 4403  -2.341   4.073   1.083 -0.0590 -0.6527  0.5998
  774MOL0     C 4404  -2.167   4.342   1.237 -0.1344 -0.6608  0.6371
  774MOL0     C 4405  -2.043   4.388   1.283 -0.6427 -0.5557 -0.0515
  774MOL0     N 4406  -1.311   4.606   1.306 -0.2269  0.2595 -0.5844
  774MOL0     N 4407  -1.224   4.675   1.246  0.3088  0.2174  0.0817
  774MOL0     C 4408  -0.030   5.116   1.572 -0.0802  0.1626  0.7309
  774MOL0     C 4409   0.089   5.157   1.631 -0.6195 -0.1722 -0.6318
  774MOL0     C 4410   0.333   5.379   1.904  0.8493  0.3694  0.2139
  774MOL0     C 4411   0.442   5.368   1.818 -0.7343 -0.7949 -0.8285
  774MOL0     C 4412   0.561   5.450   1.826 -1.0875  1.1901  0.6104
  774MOL0     C 4413   0.570   5.535   1.936 -0.5267  0.0129 -0.9589
  774MOL0     O 4414   0.677   5.619   1.973  0.1847  0.5934  0.1106
  774MOL0     C 4415   0.769   5.565   2.066 -0.7542  1.6664  0.6044
  774MOL0     C 4416   0.858   5.445   2.007 -0.3288  0.1255 -0.5507
  774MOL0     C 4417   0.930   5.469   1.875 -0.3210  0.4668  0.1114
  774MOL0     C 4418   1.041   5.570   1.897 -0.4534  0.1409  0.5752
  774MOL0     C 4419   1.162   5.506   1.941 -0.6226  0.2264 -0.8432
  774MOL0     C 4420   1.241   5.423   1.984 -0.0964  0.1158  0.0286
  774MOL0     C 4421   0.457   5.557   2.020  0.0072  0.4389  0.1650
  774MOL0     C 4422   0.344   5.473   2.007 -0.0647  0.3271  0.1478
  774MOL0     H 4423   0.068   4.984   1.928  1.6475 -1.3364  0.1263
  774MOL0     H 4424  -0.123   4.895   1.823 -2.1110  2.5086  0.9249
  774MOL0     H 4425  -0.298   4.802   1.655  1.0627 -0.3005 -0.9797
  774MOL0     H 4426  -0.356   4.949   1.735  3.3171 -0.9851  0.5317
  774MOL0     H 4427  -0.531   4.880   1.598 -1.8032  1.8304 -1.3892
  774MOL0     H 4428  -0.452   4.983   1.477 -0.0603 -0.4923  0.3612
  774MOL0     H 4429  -0.328   4.785   1.395  0.7558 -0.9531  0.6188
  774MOL0     H 4430  -0.437   4.683   1.501  0.7216  0.0165  0.1087
  774MOL0     H 4431  -0.548   4.881   1.291  0.1615  0.7380  0.8613
  774MOL0     H 4432  -0.516   4.712   1.261  1.1951 -0.3689  1.0114
  774MOL0     H 4433  -0.671   4.674   1.463 -3.1931 -0.4730  0.0447
  774MOL0     H 4434  -0.728   4.841   1.452 -3.1553 -1.3583  1.8283
  774MOL0     H 4435  -0.789   4.816   1.217  0.2464  1.0315  1.2245
  774MOL0     H 4436  -0.718   4.647   1.237  0.2008  0.4187  0.8890
  774MOL0     H 4437  -0.908   4.620   1.397 -0.4217 -1.8011 -2.3027
  774MOL0     H 4438  -0.956   4.783   1.358 -0.2998  0.1543  1.3785
  774MOL0     H 4439  -0.929   4.588   1.140 -1.1982 -1.3244 -0.1027
  774MOL0     H 4440  -1.006   4.740   1.137  2.5289 -0.8341 -0.8515
  774MOL0     H 4441  -1.056   4.400   1.321  0.0943 -0.2690 -0.0748
  774MOL0     H 4442  -1.267   4.300   1.458  0.9136  1.0820  1.9834
  774MOL0     H 4443  -1.388   4.424   1.509 -1.3309 -0.2177 -1.8848
  774MOL0     H 4444  -1.465   4.217   1.393  0.9888 -1.3212 -2.1842
  774MOL0     H 4445  -1.406   4.294   1.244 -1.8702  1.6549 -0.1581
  774MOL0     H 4446  -1.560   4.475   1.269 -0.8523 -0.6674 -1.0696
  774MOL0     H 4447  -1.593   4.423   1.441 -4.8041 -0.3427 -0.8621
  774MOL0     H 4448  -1.682   4.213   1.347  1.3073  0.3613 -0.0333
  774MOL0     H 4449  -1.674   4.277   1.182 -2.3923 -1.0104 -1.6292
  774MOL0     H 4450  -1.852   4.138   1.176  1.3167 -0.7006 -0.4646
  774MOL0     H 4451  -1.964   3.977   1.055  2.0185  3.4866  1.7293
  774MOL0     H 4452  -2.115   3.927   1.134 -0.9979  0.9317  1.3006
  774MOL0     H 4453  -2.111   4.013   0.974 -2.3021 -0.9364  1.0115
  774MOL0     H 4454  -2.558   4.474   1.014 -1.4431  1.1361  2.9764
  774MOL0     H 4455  -2.772   4.442   0.891  3.1093  0.0247 -2.0751
  774MOL0     H 4456  -2.916   4.349   0.747  1.1268  0.0411 -1.4737
  774MOL0     H 4457  -2.904   4.192   0.683 -1.1909  1.4125 -1.1525
  774MOL0     H 4458  -3.117   4.299   0.652  1.2920  0.4462 -0.4175
  774MOL0     H 4459  -3.132   4.154   0.756  4.2010 -1.1952 -1.3256
  774MOL0     H 4460  -3.160   4.452   0.812 -0.7085  0.3531  0.2772
  774MOL0     H 4461  -3.130   4.352   0.953 -2.1423  2.2457  0.4966
  774MOL0     H 4462  -3.360   4.331   0.756 -1.9196 -0.4522  1.0935
  774MOL0     H 4463  -3.332   4.214   0.893 -0.9356  1.1409  1.8016
  774MOL0     H 4464  -3.380   4.517   0.936 -4.8349  2.7926 -0.3120
  774MOL0     H 4465  -3.387   4.387   1.049 -2.1008 -0.9124 -0.4850
  774MOL0     H 4466  -3.580   4.426   0.821 -0.1906 -0.7917 -1.1392
  774MOL0     H 4467  -3.588   4.285   0.927 -1.8813  0.1286 -3.1695
  774MOL0     H 4468  -3.590   4.580   1.002  1.2885 -0.1355  0.0722
  774MOL0     H 4469  -3.600   4.457   1.134 -0.5670 -0.3369  0.3817
  774MOL0     H 4470  -3.789   4.511   0.912  1.6560 -0.3021 -0.0803
  774MOL0     H 4471  -3.828   4.524   1.094 -2.0179 -1.5881  0.5008
  774MOL0     H 4472  -2.785   4.033   1.044 -2.1811  0.2005 -0.9601
  774MOL0     H 4473  -2.565   4.079   1.164  0.6445 -0.3164 -1.1119
  774MOL0     H 4474  -2.254   4.399   1.269  1.1166  1.3174  0.7180
  774MOL0     H 4475  -2.036   4.481   1.339  0.0225 -0.0303 -0.9791
  774MOL0     H 4476  -0.052   5.156   1.474  0.4831 -3.0359 -0.8415
  774MOL0     H 4477   0.157   5.230   1.589 -1.8374  1.0086 -0.6194
  774MOL0     H 4478   0.439   5.308   1.728  0.5623 -2.4865  0.1838
  774MOL0     H 4479   0.643   5.444   1.754  0.3049  0.3470  2.1998
  774MOL0     H 4480   0.827   5.648   2.109 -3.0384  3.9635 -0.4707
  774MOL0     H 4481   0.719   5.508   2.144 -0.6849  1.0508  0.2027
  774MOL0     H 4482   0.797   5.358   1.979 -1.9402  0.1830  2.3875
  774MOL0     H 4483   0.929   5.408   2.081 -2.1777 -2.0817  0.2661
  774MOL0     H 4484   0.857   5.491   1.797  0.5540  0.5008 -0.7131
  774MOL0     H 4485   0.992   5.387   1.839 -1.1996 -0.0234 -0.3219
  774MOL0     H 4486   1.010   5.634   1.981 -2.4760 -0.6883  0.5124
  774MOL0     H 4487   1.061   5.633   1.810 -1.0268 -0.1390  0.2391
  774MOL0     H 4488   1.317   5.361   2.027  0.3807  0.0773 -0.8561
  774MOL0     H 4489   0.453   5.633   2.098 -1.1576 -0.0627  0.6174
  774MOL0     H 4490   0.254   5.493   2.065 -0.3162  0.2926 -0.2261
  775MOL0     O 4491   8.375   6.483   9.807 -1.0697  0.3503  0.6941
  775MOL0     C 4492   8.465   6.433   9.871 -0.1863 -0.3804 -0.0811
  775MOL0     O 4493   8.463   6.309   9.938  0.5726  0.0219  0.7975
  775MOL0     C 4494   8.348   6.225   9.937 -0.9449 -0.3180  0.3018
  775MOL0     C 4495   8.219   6.277   9.949  0.4276 -0.7211  0.6887
  775MOL0     C 4496   8.109   6.185   9.947  0.3239 -0.1879  0.7729
  775MOL0     C 4497   8.130   6.044   9.921  0.9160 -0.8397 -0.5164
  775MOL0     O 4498   8.029   5.956   9.910  0.7627 -0.0754  0.1869
  775MOL0     C 4499   7.915   5.957   9.999 -0.4417  0.7442 -0.2958
  775MOL0     C 4500   7.834   5.833   9.973  0.0101  0.3168  0.7139
  775MOL0     C 4501   7.769   5.849   9.827  0.7029  0.0574 -0.8299
  775MOL0     C 4502   7.716   5.721   9.764 -0.0355  0.9378  0.1248
  775MOL0     C 4503   7.590   5.750   9.685 -0.6725 -0.2528 -0.7300
  775MOL0     C 4504   7.531   5.615   9.632  0.9305  1.1110 -0.1276
  775MOL0     C 4505   7.411   5.654   9.552  0.0134 -0.2757 -0.2701
  775MOL0     C 4506   7.343   5.521   9.509 -1.5993 -0.1819  0.0821
  775MOL0     N 4507   7.217   5.555   9.436  0.0422  0.2409 -0.3894
  775MOL0     C 4508   7.100   5.500   9.470  0.0327 -0.4309  0.2905
  775MOL0     C 4509   7.005   5.556   9.388  0.0701  0.6259  0.3615
  775MOL0     C 4510   6.865   5.510   9.364  0.0294 -0.3273 -0.3773
  775MOL0     C 4511   6.767   5.575   9.467  0.2373  0.2443 -0.2390
  775MOL0     C 4512   6.642   5.488   9.486 -0.2373  0.0059 -0.3559
  775MOL0     C 4513   6.535   5.557   9.574 -0.2040  0.1853  0.3399
  775MOL0     O 4514   6.424   5.471   9.596  0.0774 -0.7864 -0.4272
  775MOL0     C 4515   6.333   5.523   9.689  0.1311  0.7492  0.1144
  775MOL0     C 4516   6.350   5.498   9.825  0.5133 -0.0008 -1.4709
  775MOL0     C 4517   6.253   5.524   9.921 -0.8039 -0.3700  0.1282
  775MOL0     C 4518   6.281   5.513  10.070 -0.7694  0.7826  0.1978
  775MOL0     C 4519   6.126   5.559   9.864  0.3125 -0.2132  0.5614
  775MOL0     C 4520   6.020   5.602   9.949  0.4320 -0.1988 -0.5594
  775MOL0     O 4521   5.891   5.578   9.902 -0.5792  0.1334  0.1513
  775MOL0     C 4522   5.781   5.580   9.983 -0.2415  0.7841  0.2540
  775MOL0     C 4523   5.787   5.547  10.125 -0.0986  0.3883  1.0991
  775MOL0     C 4524   5.674   5.540  10.201  1.1989 -0.1900  0.4198
  775MOL0     C 4525   5.547   5.545  10.145 -1.1139 -0.4512  0.6142
  775MOL0     O 4526   5.431   5.540  10.210  1.1580  0.6226 -1.1513
  775MOL0     C 4527   5.421   5.557  10.352 -0.4642  0.3862 -0.4934
  775MOL0     C 4528   5.272   5.553  10.394  0.2718  0.3002  0.0696
  775MOL0     C 4529   5.223   5.580  10.540  0.0678 -0.3387  0.1198
  775MOL0     C 4530   5.184   5.444  10.611  0.0838  0.3960 -0.1904
  775MOL0     C 4531   5.153   5.468  10.754  0.7024 -0.1430  0.3331
  775MOL0     C 4532   5.094   5.348  10.807  0.6835  0.1929 -0.4113
  775MOL0     C 4533   5.055   5.355  10.957  1.0767  0.0829  0.7977
  775MOL0     C 4534   4.993   5.231  11.013 -1.3019 -0.3838 -1.6231
  775MOL0    Cl 4535   4.822   5.214  10.956 -0.1706 -0.2093 -0.2177
  775MOL0     C 4536   5.540   5.582  10.005 -0.0984  0.0527  1.1720
  775MOL0     C 4537   5.654   5.593   9.925  0.1771 -0.2795 -0.5096
  775MOL0     O 4538   6.040   5.676  10.047 -0.3973 -0.6376 -0.9793
  775MOL0     C 4539   6.107   5.569   9.723  0.0300 -0.6662  0.6518
  775MOL0     C 4540   6.211   5.550   9.635 -0.1601 -1.0673 -0.1950
  775MOL0     N 4541   7.067   5.656   9.318  0.2911 -0.1236 -0.5523
  775MOL0     N 4542   7.195   5.652   9.341  0.3279 -0.1599  0.1195
  775MOL0     C 4543   8.258   5.999   9.905 -0.4498  0.0544  0.9748
  775MOL0     C 4544   8.367   6.087   9.925  0.1067  0.3470 -0.2977
  775MOL0     C 4545   8.592   6.515   9.887  0.6770  1.1912 -0.0166
  775MOL0     C 4546   8.595   6.645   9.839 -0.3772 -0.4375  0.7566
  775MOL0     C 4547   8.716   6.719   9.836 -0.7362 -1.0054  0.9433
  775MOL0     C 4548   8.837   6.653   9.874  0.2431 -0.0153  0.2464
  775MOL0     O 4549   8.954   6.722   9.848 -0.1455 -0.0737  0.7909
  775MOL0     C 4550   9.082   6.660   9.853  0.5885 -0.3601 -0.2463
  775MOL0     C 4551   9.144   6.666   9.995 -0.5584 -0.2258 -0.6306
  775MOL0     C 4552   9.150   6.824  10.045  0.4098  0.0996 -0.6702
  775MOL0     C 4553   9.204   6.922   9.941 -0.0846 -0.8414 -0.5925
  775MOL0     C 4554   9.223   7.055  10.001 -0.2261 -0.3608  0.3400
  775MOL0     C 4555   9.250   7.172  10.035  0.1160 -0.0824  0.5845
  775MOL0     C 4556   8.827   6.524   9.936  0.1793 -0.0704  0.0547
  775MOL0     C 4557   8.703   6.461   9.953  0.7545  0.2456  0.4866
  775MOL0     H 4558   8.202   6.383   9.959 -1.3555 -0.7737 -1.1815
  775MOL0     H 4559   8.007   6.224   9.952  0.9405  1.5416  0.6906
  775MOL0     H 4560   7.956   5.954  10.100 -0.8265 -3.6433 -0.1039
  775MOL0     H 4561   7.857   6.048   9.977  2.3877  2.4192 -1.3247
  775MOL0     H 4562   7.889   5.739   9.974  3.1072  1.9143 -1.6050
  775MOL0     H 4563   7.749   5.833  10.043 -0.7082  1.2465 -0.1129
  775MOL0     H 4564   7.685   5.916   9.848  0.6243 -0.1585 -0.4334
  775MOL0     H 4565   7.844   5.896   9.764  0.2498  1.2101 -0.5400
  775MOL0     H 4566   7.775   5.679   9.682 -0.5388  2.0161 -0.8110
  775MOL0     H 4567   7.696   5.647   9.842  3.1115 -0.1097  0.0833
  775MOL0     H 4568   7.529   5.820   9.743  0.7144  0.1492  0.2934
  775MOL0     H 4569   7.618   5.801   9.592 -2.9804  0.6667 -0.9924
  775MOL0     H 4570   7.597   5.549   9.575 -3.1022 -2.8808 -0.7260
  775MOL0     H 4571   7.498   5.552   9.715  1.6027  0.7210 -0.1457
  775MOL0     H 4572   7.353   5.709   9.627 -0.4246  1.2252 -1.6729
  775MOL0     H 4573   7.435   5.712   9.463  0.0673 -0.4507 -0.3707
  775MOL0     H 4574   7.317   5.469   9.601 -2.0241 -0.8259 -0.3909
  775MOL0     H 4575   7.408   5.459   9.446 -0.8408  0.5441  0.1298
  775MOL0     H 4576   7.075   5.422   9.541 -1.9199  1.1684  1.4845
  775MOL0     H 4577   6.828   5.527   9.263 -1.9741 -1.7419  0.0741
  775MOL0     H 4578   6.855   5.402   9.375  0.7092 -0.2943  0.8200
  775MOL0     H 4579   6.732   5.666   9.418 -2.5510  0.0958  1.2715
  775MOL0     H 4580   6.814   5.600   9.563  3.2054  0.5873 -1.6631
  775MOL0     H 4581   6.672   5.388   9.520 -0.7510 -0.2458 -0.6132
  775MOL0     H 4582   6.595   5.471   9.388  0.3572 -0.0506 -0.6341
  775MOL0     H 4583   6.501   5.645   9.518 -0.1420  0.4417  0.7065
  775MOL0     H 4584   6.571   5.597   9.669 -2.6375  1.0769  0.9723
  775MOL0     H 4585   6.450   5.474   9.861  1.0653  1.9055 -1.6207
  775MOL0     H 4586   6.266   5.607  10.123 -3.0460  0.2725  0.5835
  775MOL0     H 4587   6.201   5.457  10.119 -0.5679  1.6027  1.5072
  775MOL0     H 4588   6.372   5.454  10.082 -2.7449 -2.3516  0.8596
  775MOL0     H 4589   5.880   5.533  10.179 -1.0442 -2.3417  2.1847
  775MOL0     H 4590   5.679   5.521  10.308 -1.9679 -1.6876  0.4205
  775MOL0     H 4591   5.476   5.476  10.402 -0.3692  0.5016 -0.4108
  775MOL0     H 4592   5.474   5.650  10.375  2.6400 -1.6122  0.9972
  775MOL0     H 4593   5.219   5.624  10.329 -0.2903 -1.2194 -1.2093
  775MOL0     H 4594   5.225   5.460  10.360 -0.6336  0.8589 -0.2498
  775MOL0     H 4595   5.129   5.635  10.530  0.8957  1.0126 -0.5358
  775MOL0     H 4596   5.295   5.638  10.600 -0.2242 -0.3866  0.5219
  775MOL0     H 4597   5.096   5.400  10.563  1.0449  0.0663 -1.7142
  775MOL0     H 4598   5.264   5.371  10.598 -0.9184 -0.6840 -0.4184
  775MOL0     H 4599   5.077   5.547  10.763 -1.0668 -1.6137 -0.7827
  775MOL0     H 4600   5.247   5.498  10.800  1.0568  0.0493 -0.4989
  775MOL0     H 4601   5.009   5.322  10.744 -0.3068 -0.3793  1.0952
  775MOL0     H 4602   5.163   5.264  10.797  0.1443 -0.6112  1.9894
  775MOL0     H 4603   4.978   5.429  10.981  0.6225 -0.3403  0.6758
  775MOL0     H 4604   5.148   5.378  11.009  1.1226  0.6072  0.4891
  775MOL0     H 4605   4.986   5.241  11.122 -0.3135  0.7398 -1.6383
  775MOL0     H 4606   5.050   5.138  11.002 -1.4946 -1.3036  2.9527
  775MOL0     H 4607   5.448   5.585   9.949  0.3643  2.9474  0.4242
  775MOL0     H 4608   5.653   5.615   9.818 -3.7727  1.1967 -0.3568
  775MOL0     H 4609   6.007   5.588   9.684  0.3617 -1.5880 -0.7251
  775MOL0     H 4610   6.213   5.561   9.527 -0.7309  2.0691  0.0190
  775MOL0     H 4611   8.273   5.892   9.898 -0.2078  0.1976 -2.2186
  775MOL0     H 4612   8.466   6.045   9.914 -0.3759 -0.9290 -0.0237
  775MOL0     H 4613   8.516   6.693   9.784  2.3890  3.0487 -0.5436
  775MOL0     H 4614   8.717   6.822   9.802 -2.1231 -1.2650  0.0648
  775MOL0     H 4615   9.075   6.555   9.826 -1.3055 -0.3909  0.2357
  775MOL0     H 4616   9.146   6.706   9.777  0.2194  0.6265  0.0282
  775MOL0     H 4617   9.246   6.627   9.991 -1.1746 -2.4610  2.2707
  775MOL0     H 4618   9.091   6.605  10.068  2.5586  2.3585  4.3626
  775MOL0     H 4619   9.207   6.832  10.138 -0.2632  1.4795 -0.3393
  775MOL0     H 4620   9.049   6.850  10.078  0.9724 -0.7222  1.8675
  775MOL0     H 4621   9.134   6.938   9.858 -1.5433 -4.0037 -0.0984
  775MOL0     H 4622   9.307   6.895   9.916  0.1964 -2.1459  1.7341
  775MOL0     H 4623   9.283   7.264  10.078  4.2271 -1.5988  1.0821
  775MOL0     H 4624   8.912   6.481   9.989  1.7411  0.0256 -2.2595
  775MOL0     H 4625   8.680   6.366  10.001 -3.2867  1.2362  0.9076
  776MOL0     O 4626   0.033   7.411   5.383  0.3687 -0.1812  0.3033
  776MOL0     C 4627   0.140   7.362   5.425  0.2660  0.5373  1.5854
  776MOL0     O 4628   0.190   7.379   5.545 -0.0796 -0.0791 -0.5204
  776MOL0     C 4629   0.112   7.438   5.644 -0.4326  0.2003  0.0641
  776MOL0     C 4630   0.165   7.553   5.700  0.3342 -0.0144  0.7439
  776MOL0     C 4631   0.087   7.637   5.779 -0.5174  0.1438 -0.9551
  776MOL0     C 4632  -0.052   7.600   5.794  0.1355 -0.1397 -0.4328
  776MOL0     O 4633  -0.111   7.688   5.875 -0.5325  0.0721 -0.0349
  776MOL0     C 4634  -0.225   7.641   5.939  0.2949  0.6666  0.8841
  776MOL0     C 4635  -0.261   7.743   6.043 -0.1223 -0.1481 -0.2863
  776MOL0     C 4636  -0.305   7.884   5.995 -0.1549 -0.5709  0.3323
  776MOL0     C 4637  -0.434   7.889   5.912 -0.0660  0.4319 -0.3022
  776MOL0     C 4638  -0.494   8.027   5.880  1.5724  0.0207  0.0859
  776MOL0     C 4639  -0.619   8.012   5.779 -0.9429  0.2233 -0.3767
  776MOL0     C 4640  -0.691   8.149   5.758  0.7258  1.1141 -0.3621
  776MOL0     C 4641  -0.788   8.142   5.636  0.7455 -0.1262 -0.1382
  776MOL0     N 4642  -0.893   8.039   5.664  0.2014  0.0316  0.0201
  776MOL0     C 4643  -0.879   7.909   5.635 -0.4761  1.1390  0.1695
  776MOL0     C 4644  -0.983   7.854   5.703 -0.4027  0.9099 -0.7661
  776MOL0     C 4645  -1.019   7.703   5.717  0.6000 -0.1753  0.9456
  776MOL0     C 4646  -1.003   7.650   5.861  0.0765  0.4631 -0.6006
  776MOL0     C 4647  -1.110   7.704   5.964 -0.3660  1.3088 -0.1066
  776MOL0     C 4648  -1.219   7.607   5.980 -0.1279  0.2614 -0.0535
  776MOL0     O 4649  -1.319   7.602   5.878 -0.0257 -0.3606  0.2704
  776MOL0     C 4650  -1.404   7.495   5.872 -0.5561 -0.0197  0.1157
  776MOL0     C 4651  -1.451   7.433   5.981 -0.2192 -0.0196 -0.6930
  776MOL0     C 4652  -1.546   7.332   5.976  0.0552 -0.5570 -0.2469
  776MOL0     C 4653  -1.600   7.272   6.105 -0.5326 -0.2434 -0.1589
  776MOL0     C 4654  -1.601   7.297   5.849  0.4268 -0.2516 -0.2632
  776MOL0     C 4655  -1.713   7.198   5.824  0.2646 -0.4543  0.2871
  776MOL0     O 4656  -1.766   7.197   5.700 -0.0631  0.9146 -0.1314
  776MOL0     C 4657  -1.887   7.138   5.668 -0.5625  0.0981  0.0129
  776MOL0     C 4658  -1.999   7.137   5.753 -0.9660 -0.6295 -0.6512
  776MOL0     C 4659  -2.117   7.079   5.719 -0.1913 -0.5955  0.3494
  776MOL0     C 4660  -2.137   7.023   5.588 -0.1547 -0.0993 -0.6624
  776MOL0     O 4661  -2.267   6.989   5.555  0.0703 -0.6449 -0.4452
  776MOL0     C 4662  -2.293   6.897   5.448 -0.8907 -0.2072  0.8475
  776MOL0     C 4663  -2.440   6.873   5.442  0.2306 -0.2325  0.0111
  776MOL0     C 4664  -2.497   6.798   5.549  0.2237  1.0382  0.2558
  776MOL0     C 4665  -2.648   6.760   5.534 -0.3654  0.2008 -1.0311
  776MOL0     C 4666  -2.692   6.679   5.656  0.0178 -0.1384  0.2999
  776MOL0     C 4667  -2.657   6.533   5.638  0.3405 -0.0932 -0.2659
  776MOL0     C 4668  -2.536   6.499   5.724 -0.6795  0.2134 -0.1411
  776MOL0     C 4669  -2.479   6.367   5.692  0.5054 -1.1392 -0.0875
  776MOL0    Cl 4670  -2.423   6.366   5.521  0.3747  0.3246  0.3454
  776MOL0     C 4671  -2.032   7.019   5.499  0.8307 -0.6171  0.6410
  776MOL0     C 4672  -1.912   7.074   5.535 -0.7371  0.3554  0.0756
  776MOL0     O 4673  -1.764   7.138   5.923 -0.2927 -0.4835 -0.1074
  776MOL0     C 4674  -1.542   7.355   5.740  1.4217 -0.7165  0.3386
  776MOL0     C 4675  -1.447   7.455   5.744  0.0208  0.4195 -0.2403
  776MOL0     N 4676  -1.060   7.951   5.767 -0.4239 -0.3727 -0.1334
  776MOL0     N 4677  -1.011   8.064   5.736  0.2639 -0.4444  0.0491
  776MOL0     C 4678  -0.102   7.473   5.747 -0.1892 -0.1147  0.1468
  776MOL0     C 4679  -0.017   7.391   5.674 -0.2949 -0.0574  0.2684
  776MOL0     C 4680   0.217   7.288   5.327 -0.0496 -0.3114 -0.6039
  776MOL0     C 4681   0.164   7.232   5.213 -0.4642  1.2495  0.9011
  776MOL0     C 4682   0.251   7.167   5.114  0.4195 -1.0739  0.3166
  776MOL0     C 4683   0.392   7.172   5.134  0.6942 -0.6658 -0.5598
  776MOL0     O 4684   0.478   7.132   5.034  0.3213  0.3354 -0.0350
  776MOL0     C 4685   0.520   6.993   5.039  0.2192 -0.5116  0.1833
  776MOL0     C 4686   0.542   6.954   4.893  0.0511 -0.5204  1.0780
  776MOL0     C 4687   0.412   6.991   4.803 -0.3816  1.3474 -0.7067
  776MOL0     C 4688   0.417   6.895   4.675 -0.1111 -0.4271 -0.2353
  776MOL0     C 4689   0.512   6.940   4.578  0.2897  0.0368 -0.9661
  776MOL0     C 4690   0.598   6.969   4.502  0.3677 -0.0473 -0.0365
  776MOL0     C 4691   0.443   7.222   5.249  0.0611 -0.8818 -0.1545
  776MOL0     C 4692   0.360   7.284   5.344  0.2862 -0.0168 -0.2009
  776MOL0     H 4693   0.265   7.581   5.669  0.3766  0.2400  1.0986
  776MOL0     H 4694   0.147   7.723   5.809  0.6172 -0.8399 -0.3094
  776MOL0     H 4695  -0.303   7.636   5.862 -1.8396  0.8063  2.9298
  776MOL0     H 4696  -0.215   7.542   5.985 -3.8138  0.1307  1.0104
  776MOL0     H 4697  -0.337   7.699   6.109  0.7143 -0.0352  0.7729
  776MOL0     H 4698  -0.167   7.762   6.095  0.0452  0.6699 -0.8603
  776MOL0     H 4699  -0.331   7.949   6.080 -2.7253  1.4570 -1.7940
  776MOL0     H 4700  -0.232   7.939   5.935 -4.1845  2.4994 -2.3662
  776MOL0     H 4701  -0.417   7.823   5.826 -2.5496 -0.5575 -0.1205
  776MOL0     H 4702  -0.510   7.836   5.969  0.4559 -0.2410 -0.2236
  776MOL0     H 4703  -0.535   8.076   5.969 -1.1473 -1.3112 -0.3260
  776MOL0     H 4704  -0.424   8.098   5.835 -0.1974  2.0018  0.3264
  776MOL0     H 4705  -0.582   7.976   5.683  1.4831  0.4242  0.4153
  776MOL0     H 4706  -0.690   7.937   5.817 -2.3117  1.1875 -0.9568
  776MOL0     H 4707  -0.742   8.162   5.853  1.2821  0.4337  0.0328
  776MOL0     H 4708  -0.632   8.241   5.751  0.0116  1.9317  2.8583
  776MOL0     H 4709  -0.738   8.109   5.544  0.0317 -1.0498 -0.2049
  776MOL0     H 4710  -0.839   8.238   5.627  1.5967  0.4296  0.7814
  776MOL0     H 4711  -0.803   7.848   5.588 -2.3522 -0.3004 -1.1676
  776MOL0     H 4712  -1.116   7.679   5.671  1.7998 -2.8220 -0.4348
  776MOL0     H 4713  -0.943   7.651   5.659  0.6427  0.3205  0.5459
  776MOL0     H 4714  -0.906   7.681   5.901 -0.3129 -1.7724  2.4103
  776MOL0     H 4715  -0.993   7.541   5.858 -0.6347  0.3768  0.0840
  776MOL0     H 4716  -1.157   7.798   5.933  0.7198  2.0919  0.5602
  776MOL0     H 4717  -1.057   7.716   6.059 -0.4834  3.5578 -0.2782
  776MOL0     H 4718  -1.267   7.632   6.075 -0.7422 -0.8542 -0.0409
  776MOL0     H 4719  -1.181   7.505   5.995  1.1752  0.9400  1.5757
  776MOL0     H 4720  -1.415   7.466   6.078  0.8238 -3.0546  0.0858
  776MOL0     H 4721  -1.607   7.163   6.108  0.9333 -0.3528  0.3345
  776MOL0     H 4722  -1.526   7.309   6.176 -2.1625  4.5441 -0.5943
  776MOL0     H 4723  -1.702   7.311   6.117 -0.3957  0.2942 -0.6806
  776MOL0     H 4724  -2.004   7.191   5.847 -0.0266  0.3208 -1.1256
  776MOL0     H 4725  -2.200   7.102   5.785  0.1799  1.6363  0.1163
  776MOL0     H 4726  -2.260   6.928   5.349 -2.0057 -0.3822  0.4039
  776MOL0     H 4727  -2.246   6.801   5.473 -0.2478 -0.5185 -1.4040
  776MOL0     H 4728  -2.484   6.973   5.434  0.4505 -0.0991  0.4820
  776MOL0     H 4729  -2.459   6.818   5.349 -1.2629  0.4733 -0.1410
  776MOL0     H 4730  -2.472   6.854   5.639  0.7099 -0.7894  1.3102
  776MOL0     H 4731  -2.437   6.707   5.549  3.4851  3.0061 -0.9324
  776MOL0     H 4732  -2.711   6.849   5.538 -0.2530  0.2461  0.5505
  776MOL0     H 4733  -2.674   6.710   5.440 -4.6072  0.9493 -0.4801
  776MOL0     H 4734  -2.801   6.690   5.654  0.0658  2.5555 -4.7334
  776MOL0     H 4735  -2.654   6.715   5.751 -0.3466  2.1725 -0.3812
  776MOL0     H 4736  -2.740   6.474   5.679  0.7554 -3.2382 -3.5050
  776MOL0     H 4737  -2.650   6.500   5.534 -3.1726 -0.3324 -0.5531
  776MOL0     H 4738  -2.576   6.502   5.826 -1.5483 -0.2933 -0.4554
  776MOL0     H 4739  -2.464   6.581   5.726 -0.2193 -0.1806  1.7561
  776MOL0     H 4740  -2.543   6.282   5.715  2.8722 -1.8106  5.6124
  776MOL0     H 4741  -2.389   6.363   5.754  0.6470  4.6019  0.6290
  776MOL0     H 4742  -2.039   6.978   5.398  1.0399 -1.6830  1.0466
  776MOL0     H 4743  -1.827   7.068   5.467 -2.8959 -1.4378 -2.7055
  776MOL0     H 4744  -1.585   7.340   5.642 -0.1155  0.0999  0.8443
  776MOL0     H 4745  -1.395   7.489   5.655  0.3848 -3.2603 -1.5744
  776MOL0     H 4746  -0.203   7.440   5.768 -0.0703 -0.7825 -0.3169
  776MOL0     H 4747  -0.042   7.293   5.633  1.1767 -1.6815  2.9144
  776MOL0     H 4748   0.060   7.238   5.181  0.6477  0.2899 -3.5390
  776MOL0     H 4749   0.220   7.120   5.021  2.0021 -3.1446  0.7411
  776MOL0     H 4750   0.614   6.992   5.095 -0.4759 -0.2333  1.3864
  776MOL0     H 4751   0.441   6.940   5.093 -3.9354  2.8158 -2.0089
  776MOL0     H 4752   0.573   6.849   4.897  1.3423 -0.1749  0.5111
  776MOL0     H 4753   0.625   7.023   4.872 -1.2910  1.0047  0.5685
  776MOL0     H 4754   0.410   7.095   4.769 -0.4307  1.3920 -0.5677
  776MOL0     H 4755   0.327   6.971   4.869  0.6889  0.1818  0.3855
  776MOL0     H 4756   0.321   6.897   4.623  1.3168  0.2918 -2.9994
  776MOL0     H 4757   0.438   6.792   4.706 -1.0081 -0.9463 -1.2884
  776MOL0     H 4758   0.682   6.994   4.440  0.3969  0.0608  0.0446
  776MOL0     H 4759   0.550   7.236   5.257 -0.1138  0.4356  0.1027
  776MOL0     H 4760   0.405   7.328   5.433 -1.7987  0.2297  0.8078
  777MOL0     O 4761  10.453   7.856   1.065  0.2490  1.0056  0.8228
  777MOL0     C 4762  10.406   7.971   1.068 -0.4183 -0.7744 -0.2770
  777MOL0     O 4763  10.345   8.045   0.966 -0.9332  0.0731 -0.2129
  777MOL0     C 4764  10.329   7.995   0.837 -0.0386  0.3073 -0.2608
  777MOL0     C 4765  10.403   8.026   0.726 -0.0258 -0.6075 -0.2672
  777MOL0     C 4766  10.370   7.972   0.600 -0.8998 -0.1414 -0.1830
  777MOL0     C 4767  10.275   7.881   0.592  0.8042 -0.0472 -0.6491
  777MOL0     O 4768  10.233   7.845   0.463 -0.3308  0.3318  0.0768
  777MOL0     C 4769  10.328   7.767   0.391 -0.4360  0.2050  0.0310
  777MOL0     C 4770  10.272   7.695   0.271 -1.0732  0.3506 -0.5807
  777MOL0     C 4771  10.153   7.609   0.318 -0.0767  0.5324  0.3219
  777MOL0     C 4772  10.130   7.480   0.242  0.0539  0.8932 -0.6256
  777MOL0     C 4773  10.044   7.386   0.327 -0.1097  0.5197  0.3108
  777MOL0     C 4774   9.903   7.432   0.359  0.3507  0.6649  0.4086
  777MOL0     C 4775   9.817   7.334   0.440  0.1388 -0.5065 -0.4231
  777MOL0     C 4776   9.677   7.386   0.457 -0.7799  0.0361 -0.3614
  777MOL0     N 4777   9.582   7.273   0.488 -0.6917  0.6860  0.6547
  777MOL0     C 4778   9.532   7.239   0.610 -0.3166 -0.0969  0.4868
  777MOL0     C 4779   9.427   7.161   0.587 -0.0894  0.0355 -0.3148
  777MOL0     C 4780   9.330   7.092   0.679 -0.2354 -0.1804 -0.5456
  777MOL0     C 4781   9.232   7.199   0.740  0.3103 -0.1359 -0.3314
  777MOL0     C 4782   9.152   7.134   0.860 -0.1513  0.2019 -0.1602
  777MOL0     C 4783   9.088   7.245   0.948 -0.4497 -0.3540  0.0801
  777MOL0     O 4784   9.026   7.354   0.880  0.1040 -0.6692  0.6297
  777MOL0     C 4785   8.900   7.352   0.825 -0.7722  0.1507 -0.1112
  777MOL0     C 4786   8.853   7.459   0.754  0.6149 -0.0235  0.3582
  777MOL0     C 4787   8.730   7.454   0.692  0.2263  0.2734 -0.5189
  777MOL0     C 4788   8.701   7.567   0.600 -0.1255  0.7465  0.0140
  777MOL0     C 4789   8.645   7.340   0.704  0.6443  0.8955  1.1592
  777MOL0     C 4790   8.514   7.320   0.631  0.8270  0.3247  0.1400
  777MOL0     O 4791   8.425   7.230   0.689 -0.0983 -0.2580 -0.2017
  777MOL0     C 4792   8.305   7.203   0.625 -0.3613 -0.1855 -0.0649
  777MOL0     C 4793   8.266   7.064   0.614  0.0242 -0.0252 -0.4769
  777MOL0     C 4794   8.137   7.022   0.573  1.7499  1.0920  0.0709
  777MOL0     C 4795   8.036   7.113   0.536 -0.3796 -0.4028  0.1294
  777MOL0     O 4796   7.911   7.069   0.526  0.5077 -0.0263  0.1894
  777MOL0     C 4797   7.794   7.156   0.543  0.0739 -0.4198  1.0381
  777MOL0     C 4798   7.669   7.073   0.580  0.7208  0.1353  0.2685
  777MOL0     C 4799   7.608   7.022   0.454 -0.0370 -0.2237 -0.4299
  777MOL0     C 4800   7.494   6.945   0.500 -0.2654 -0.2407  0.8449
  777MOL0     C 4801   7.431   6.876   0.377  0.1128  0.6714  0.8475
  777MOL0     C 4802   7.288   6.815   0.407  0.2542 -0.1428  0.3155
  777MOL0     C 4803   7.170   6.906   0.350 -0.0608 -0.2392 -0.1582
  777MOL0     C 4804   7.043   6.821   0.321  0.1812 -0.5586 -0.1798
  777MOL0    Cl 4805   6.995   6.719   0.464 -0.4195 -0.1434  0.3866
  777MOL0     C 4806   8.078   7.250   0.542 -0.5218  0.3195  1.1696
  777MOL0     C 4807   8.206   7.294   0.578 -0.5309 -0.0205  0.0410
  777MOL0     O 4808   8.484   7.389   0.535 -0.3418  0.2442  0.7731
  777MOL0     C 4809   8.690   7.236   0.772  0.1950  1.0742 -0.0928
  777MOL0     C 4810   8.820   7.237   0.828  0.0146 -0.2362  0.2951
  777MOL0     N 4811   9.414   7.144   0.450 -0.0186  0.2493  1.0153
  777MOL0     N 4812   9.515   7.213   0.388  0.1385  0.2226  0.1757
  777MOL0     C 4813  10.197   7.845   0.697 -0.2556 -1.0886 -1.2740
  777MOL0     C 4814  10.227   7.899   0.822  0.1334  0.6504  0.0852
  777MOL0     C 4815  10.417   8.045   1.198 -0.6402  0.5399 -0.2739
  777MOL0     C 4816  10.365   8.164   1.213  0.0061 -0.6645 -1.2216
  777MOL0     C 4817  10.367   8.232   1.345 -0.8746 -0.4091  1.4567
  777MOL0     C 4818  10.429   8.180   1.453 -0.4656 -0.2639 -0.0567
  777MOL0     O 4819  10.452   8.231   1.578  0.3703  0.5741  0.2448
  777MOL0     C 4820  10.415   8.370   1.596 -0.3214 -0.3712 -0.2634
  777MOL0     C 4821  10.262   8.362   1.621 -0.3554 -0.6583 -0.6378
  777MOL0     C 4822  10.210   8.498   1.669  0.0171  0.5898 -0.3991
  777MOL0     C 4823  10.254   8.525   1.808  0.1797 -1.2357  0.1465
  777MOL0     C 4824  10.215   8.433   1.913  0.4758 -0.1418 -0.6103
  777MOL0     C 4825  10.200   8.352   1.996 -0.4107 -0.6684  0.3774
  777MOL0     C 4826  10.482   8.050   1.437 -0.0367 -0.6835  0.0317
  777MOL0     C 4827  10.466   7.985   1.317  0.5927  0.1461 -0.6056
  777MOL0     H 4828  10.482   8.096   0.751  0.8049 -1.5838 -0.0701
  777MOL0     H 4829  10.426   7.998   0.511 -1.4653  3.9707  0.4459
  777MOL0     H 4830  10.408   7.832   0.354  0.5631  0.1759  2.0020
  777MOL0     H 4831  10.393   7.711   0.459  0.1485  2.5521  1.5494
  777MOL0     H 4832  10.247   7.780   0.205  2.9414  2.5541  0.3966
  777MOL0     H 4833  10.343   7.627   0.223 -0.7943  3.9622 -6.2977
  777MOL0     H 4834  10.166   7.584   0.423  1.3271  0.4044  0.1319
  777MOL0     H 4835  10.066   7.675   0.309 -0.8605 -0.7189 -2.5125
  777MOL0     H 4836  10.083   7.488   0.144 -0.7054 -4.4186 -0.9652
  777MOL0     H 4837  10.230   7.437   0.229 -0.4604  0.2523 -2.8446
  777MOL0     H 4838  10.040   7.296   0.265 -1.2288 -0.0199  1.1307
  777MOL0     H 4839  10.101   7.358   0.417  1.0091  1.2830 -0.1311
  777MOL0     H 4840   9.887   7.521   0.420  0.3772  1.9308 -1.3425
  777MOL0     H 4841   9.864   7.463   0.262  0.3024  1.9861  0.8370
  777MOL0     H 4842   9.821   7.235   0.395  0.8381 -1.9397  2.5778
  777MOL0     H 4843   9.865   7.327   0.538  0.0721 -0.0541 -0.3540
  777MOL0     H 4844   9.649   7.444   0.368 -2.3038  1.1830  0.8000
  777MOL0     H 4845   9.675   7.459   0.538  1.3490 -1.0169  0.7097
  777MOL0     H 4846   9.567   7.278   0.705  2.1517 -0.3006 -0.2677
  777MOL0     H 4847   9.288   7.009   0.621  0.4539  0.3712 -1.8904
  777MOL0     H 4848   9.382   7.030   0.753 -0.8833 -0.3678 -0.2399
  777MOL0     H 4849   9.161   7.239   0.667 -1.3026 -0.1389  1.1882
  777MOL0     H 4850   9.286   7.281   0.789 -0.7054 -1.9151  4.3209
  777MOL0     H 4851   9.230   7.082   0.916  2.3646  1.7726 -2.0132
  777MOL0     H 4852   9.080   7.063   0.818 -2.0725  2.9973 -1.9371
  777MOL0     H 4853   9.173   7.288   1.003  1.2204 -2.0776 -1.0352
  777MOL0     H 4854   9.017   7.199   1.017  1.0252 -1.5014  0.8798
  777MOL0     H 4855   8.907   7.553   0.752 -0.5031  0.6108 -0.6280
  777MOL0     H 4856   8.767   7.651   0.621  2.1843 -0.9179 -0.1700
  777MOL0     H 4857   8.702   7.538   0.494 -1.2153 -0.1084  0.2247
  777MOL0     H 4858   8.600   7.603   0.618 -0.1185 -0.4065  2.7902
  777MOL0     H 4859   8.338   6.987   0.641 -1.3948 -1.3880 -0.4016
  777MOL0     H 4860   8.113   6.916   0.563 -0.2388  1.5134 -0.1301
  777MOL0     H 4861   7.817   7.227   0.622 -0.3772  0.3875  0.4643
  777MOL0     H 4862   7.776   7.215   0.453  3.6614 -1.1059 -0.2613
  777MOL0     H 4863   7.698   6.987   0.642  0.8349 -0.7380 -0.9544
  777MOL0     H 4864   7.606   7.140   0.639  1.6529  0.8955  0.4248
  777MOL0     H 4865   7.685   6.957   0.412  0.7962 -1.4810  2.7114
  777MOL0     H 4866   7.584   7.100   0.381 -2.4022  0.7065  1.2204
  777MOL0     H 4867   7.535   6.867   0.565 -2.7323 -2.4561 -0.0457
  777MOL0     H 4868   7.420   7.002   0.557  0.2314  1.8347 -0.4929
  777MOL0     H 4869   7.485   6.788   0.340 -1.1139 -0.6708  2.1169
  777MOL0     H 4870   7.427   6.941   0.289  1.5932 -2.7330 -2.0097
  777MOL0     H 4871   7.275   6.715   0.365 -1.2769 -0.0647  0.5336
  777MOL0     H 4872   7.272   6.801   0.514 -1.5353 -1.0171 -0.0237
  777MOL0     H 4873   7.210   6.956   0.261  3.7964  1.1207  2.0731
  777MOL0     H 4874   7.138   6.963   0.437 -0.7795 -3.2574  1.6980
  777MOL0     H 4875   7.061   6.760   0.232 -0.4425 -1.5963  0.3877
  777MOL0     H 4876   6.958   6.887   0.302 -1.3186 -1.9404  1.3486
  777MOL0     H 4877   8.011   7.327   0.505 -0.8569  0.2558  1.6339
  777MOL0     H 4878   8.225   7.401   0.584  0.6770 -0.2992  4.0825
  777MOL0     H 4879   8.631   7.145   0.774  0.4215  0.9327  0.4714
  777MOL0     H 4880   8.838   7.137   0.866 -0.7057 -0.8095 -0.8102
  777MOL0     H 4881  10.107   7.787   0.680 -1.2217  0.4893 -1.7814
  777MOL0     H 4882  10.174   7.862   0.910  3.4629  0.3814  2.1876
  777MOL0     H 4883  10.314   8.221   1.136 -0.2186 -0.2369 -0.7624
  777MOL0     H 4884  10.316   8.328   1.342  3.7462  2.3305 -1.6756
  777MOL0     H 4885  10.461   8.421   1.681 -1.4044 -2.4639  1.6771
  777MOL0     H 4886  10.421   8.437   1.510 -1.7280  0.2430  0.0916
  777MOL0     H 4887  10.243   8.284   1.696  0.8807  0.1401  0.5423
  777MOL0     H 4888  10.216   8.341   1.524 -0.0275 -0.7273 -0.7793
  777MOL0     H 4889  10.101   8.500   1.665 -0.0055 -0.6591 -0.8089
  777MOL0     H 4890  10.239   8.583   1.607 -1.2163  0.7322 -0.8015
  777MOL0     H 4891  10.224   8.624   1.843  3.3674 -0.4974  1.1343
  777MOL0     H 4892  10.362   8.542   1.816 -0.2299  2.5433 -0.2438
  777MOL0     H 4893  10.194   8.280   2.075  0.0542 -0.2160  0.8280
  777MOL0     H 4894  10.546   7.993   1.504  2.0255 -0.5754 -1.7388
  777MOL0     H 4895  10.503   7.884   1.307  0.1801 -0.1382  0.5849
  778MOL0     O 4896   5.473   5.594   4.479 -0.2379  0.1379  0.1067
  778MOL0     C 4897   5.573   5.638   4.538  0.3004  0.6670 -0.6628
  778MOL0     O 4898   5.574   5.691   4.672 -0.8823 -0.3698  0.0820
  778MOL0     C 4899   5.468   5.665   4.752 -0.6026 -0.1757  0.4458
  778MOL0     C 4900   5.430   5.762   4.838 -0.3876 -0.4285  0.6372
  778MOL0     C 4901   5.315   5.750   4.916 -0.1141 -0.1898  0.3930
  778MOL0     C 4902   5.237   5.632   4.911 -0.1093 -0.0088 -0.2588
  778MOL0     O 4903   5.122   5.618   4.987  0.0859 -0.7626  0.2253
  778MOL0     C 4904   5.034   5.724   4.999 -0.1678 -0.6617 -0.0119
  778MOL0     C 4905   4.910   5.671   5.053  0.5364 -0.0240 -0.4838
  778MOL0     C 4906   4.800   5.768   5.030  0.7708  0.4073  0.3703
  778MOL0     C 4907   4.656   5.729   5.083  0.5755 -0.4065 -0.2202
  778MOL0     C 4908   4.541   5.731   4.971 -0.4524  0.2171 -0.3557
  778MOL0     C 4909   4.504   5.874   4.922  0.4126  0.2164  0.2272
  778MOL0     C 4910   4.372   5.875   4.845 -0.2958 -0.5817 -0.2321
  778MOL0     C 4911   4.345   6.013   4.801 -0.2531 -0.0287  1.2126
  778MOL0     N 4912   4.243   6.016   4.698  0.0648 -0.1118 -0.1259
  778MOL0     C 4913   4.105   6.018   4.730 -0.7487  0.2421 -0.4835
  778MOL0     C 4914   4.043   6.009   4.607  0.0335 -0.1159 -0.6323
  778MOL0     C 4915   3.894   6.001   4.586  0.4375  0.4900  0.3845
  778MOL0     C 4916   3.856   5.863   4.636 -0.4464 -0.0291 -0.4615
  778MOL0     C 4917   3.716   5.827   4.606  0.1928 -0.4659  0.1504
  778MOL0     C 4918   3.605   5.929   4.648 -0.3279  0.2042  0.1371
  778MOL0     O 4919   3.480   5.869   4.613 -0.0653 -0.5759 -0.2742
  778MOL0     C 4920   3.384   5.896   4.711  0.7722 -0.7832 -0.2641
  778MOL0     C 4921   3.350   5.788   4.794  0.1595 -0.4540 -0.6912
  778MOL0     C 4922   3.247   5.799   4.892  0.0796 -0.5344 -0.1835
  778MOL0     C 4923   3.206   5.682   4.980 -0.2770 -0.0251 -0.0631
  778MOL0     C 4924   3.191   5.929   4.905  0.6802  0.6476 -0.2337
  778MOL0     C 4925   3.077   5.950   4.999  0.4211  0.6908  0.2377
  778MOL0     O 4926   2.982   5.843   5.015 -0.9039 -0.2925  0.6652
  778MOL0     C 4927   2.858   5.866   5.072 -0.0867 -0.2232  0.5493
  778MOL0     C 4928   2.809   5.762   5.144  0.3178 -0.0289  0.1065
  778MOL0     C 4929   2.677   5.760   5.189  0.7563  0.4353 -1.0348
  778MOL0     C 4930   2.597   5.872   5.178  0.5021 -0.0698 -0.9144
  778MOL0     O 4931   2.468   5.855   5.237 -1.0742 -0.1613 -0.1246
  778MOL0     C 4932   2.371   5.954   5.239  0.6319  0.4634  0.3082
  778MOL0     C 4933   2.278   5.942   5.117  0.6805  0.3782  0.1589
  778MOL0     C 4934   2.135   5.991   5.129 -0.1523 -0.7558 -0.9949
  778MOL0     C 4935   2.077   5.938   5.263  0.8768 -0.0992  0.7951
  778MOL0     C 4936   1.917   5.935   5.260 -0.2443 -0.0187 -0.4054
  778MOL0     C 4937   1.843   5.898   5.391 -0.0273 -0.4178  0.4398
  778MOL0     C 4938   1.687   5.916   5.383  0.2094 -0.1463 -0.9697
  778MOL0     C 4939   1.610   5.880   5.507 -0.0732 -0.2792 -0.8353
  778MOL0    Cl 4940   1.440   5.916   5.460  0.0280  0.5186  0.0716
  778MOL0     C 4941   2.644   5.986   5.107  0.4658  0.1294 -0.0737
  778MOL0     C 4942   2.774   5.980   5.053 -0.0748  0.0995 -0.1176
  778MOL0     O 4943   3.066   6.060   5.062  0.5711  0.4366  0.6324
  778MOL0     C 4944   3.226   6.039   4.818 -0.3680 -0.0685 -0.5614
  778MOL0     C 4945   3.322   6.024   4.718 -0.6779 -0.0225 -1.5880
  778MOL0     N 4946   4.146   6.020   4.508  0.1480  0.2078  0.1032
  778MOL0     N 4947   4.259   6.025   4.565 -0.0182 -0.0021 -0.1593
  778MOL0     C 4948   5.275   5.527   4.829  0.1039  0.0232 -0.2997
  778MOL0     C 4949   5.388   5.548   4.753 -0.8815  0.1409 -0.0981
  778MOL0     C 4950   5.697   5.647   4.461  0.9109  0.3537  0.5033
  778MOL0     C 4951   5.814   5.662   4.528 -0.2475 -0.0917 -1.1655
  778MOL0     C 4952   5.936   5.673   4.459  1.6328  0.2788 -0.3986
  778MOL0     C 4953   5.946   5.668   4.318 -0.6681 -1.0155 -0.2915
  778MOL0     O 4954   6.071   5.678   4.270 -0.2908  0.0642  0.2306
  778MOL0     C 4955   6.100   5.751   4.150  0.0001 -0.1796  0.1595
  778MOL0     C 4956   6.256   5.754   4.112  0.0371 -1.1833 -0.4815
  778MOL0     C 4957   6.326   5.616   4.111 -0.2395  0.0080 -0.7754
  778MOL0     C 4958   6.472   5.630   4.059  0.2534  0.1741  0.3206
  778MOL0     C 4959   6.510   5.487   4.050  0.6228 -0.1133  0.6745
  778MOL0     C 4960   6.535   5.372   4.039  0.9496 -0.5605  0.4683
  778MOL0     C 4961   5.825   5.646   4.249  0.6778  0.0062  0.0126
  778MOL0     C 4962   5.702   5.651   4.317 -0.0647 -0.2764 -0.1062
  778MOL0     H 4963   5.470   5.863   4.839  1.3051 -1.0319 -0.7427
  778MOL0     H 4964   5.283   5.827   4.985 -1.5712 -0.8377  0.4755
  778MOL0     H 4965   5.063   5.806   5.065 -1.8741 -0.4778  0.5520
  778MOL0     H 4966   5.028   5.760   4.895  1.0464 -0.6126 -0.0764
  778MOL0     H 4967   4.877   5.578   5.005  0.8617 -2.0095  2.8259
  778MOL0     H 4968   4.918   5.655   5.161 -0.0388  0.5622 -0.3507
  778MOL0     H 4969   4.822   5.861   5.084  0.6540 -1.2932  3.5711
  778MOL0     H 4970   4.792   5.789   4.923 -4.5543 -0.3383  0.3425
  778MOL0     H 4971   4.658   5.627   5.123 -0.2061 -0.0122  0.8827
  778MOL0     H 4972   4.626   5.802   5.159  0.2968 -0.2828 -0.4441
  778MOL0     H 4973   4.578   5.668   4.890  0.4993 -3.4009  2.6468
  778MOL0     H 4974   4.449   5.685   5.008 -1.6251  3.4495  1.1365
  778MOL0     H 4975   4.501   5.948   5.003  1.1789  0.1414  0.3315
  778MOL0     H 4976   4.583   5.916   4.858 -2.3939  1.6094 -2.5675
  778MOL0     H 4977   4.381   5.800   4.765 -0.3849 -2.2956  1.2892
  778MOL0     H 4978   4.294   5.833   4.909 -0.1409  1.0077  1.0568
  778MOL0     H 4979   4.438   6.057   4.764  0.7083 -0.1713  3.3235
  778MOL0     H 4980   4.302   6.080   4.876 -1.8124  0.9849 -0.4921
  778MOL0     H 4981   4.062   6.016   4.829  0.1962  3.8067  0.1255
  778MOL0     H 4982   3.835   6.085   4.622  1.1525  2.9764 -3.6980
  778MOL0     H 4983   3.884   6.006   4.477 -0.0969  1.6337  0.4780
  778MOL0     H 4984   3.867   5.853   4.744 -1.1056 -0.3734 -0.4171
  778MOL0     H 4985   3.922   5.793   4.584 -0.8964 -1.6725  1.0638
  778MOL0     H 4986   3.703   5.738   4.669  2.6265  0.6124  2.3697
  778MOL0     H 4987   3.710   5.790   4.503 -2.1567  1.2273 -0.4128
  778MOL0     H 4988   3.612   6.029   4.605 -0.7420  0.8841  1.5789
  778MOL0     H 4989   3.615   5.940   4.757  1.9742 -0.0168  0.0015
  778MOL0     H 4990   3.399   5.691   4.783  0.4621 -0.4850  0.6380
  778MOL0     H 4991   3.279   5.601   4.970 -0.8102 -0.9055  2.4271
  778MOL0     H 4992   3.212   5.705   5.087 -0.3262 -2.6060  0.5579
  778MOL0     H 4993   3.104   5.647   4.959  0.2220 -1.4782 -0.1862
  778MOL0     H 4994   2.865   5.671   5.161  0.4939  0.4242  2.1684
  778MOL0     H 4995   2.647   5.672   5.246  2.4564  0.7629  0.4736
  778MOL0     H 4996   2.310   5.959   5.330 -1.1857  4.9050 -0.8858
  778MOL0     H 4997   2.423   6.051   5.241  1.9494 -0.2228  0.7767
  778MOL0     H 4998   2.327   5.983   5.028  2.8263 -2.2011  0.0474
  778MOL0     H 4999   2.266   5.835   5.098  1.5754  0.8008 -3.6218
  778MOL0     H 5000   2.080   5.960   5.040 -2.2254  2.5945 -1.0600
  778MOL0     H 5001   2.125   6.100   5.137 -0.5511 -0.8749  0.2351
  778MOL0     H 5002   2.107   5.840   5.301 -3.2731 -0.7733  2.8148
  778MOL0     H 5003   2.103   6.013   5.339  1.0354 -0.5090  1.1441
  778MOL0     H 5004   1.887   5.861   5.185  1.7593  2.5189 -4.0451
  778MOL0     H 5005   1.874   6.031   5.229 -0.1322  0.7793  1.7189
  778MOL0     H 5006   1.858   5.791   5.412 -2.6946 -1.3012 -1.6013
  778MOL0     H 5007   1.892   5.957   5.469 -1.1767  0.4648  0.5143
  778MOL0     H 5008   1.662   5.854   5.297  2.3933  0.6268 -2.2407
  778MOL0     H 5009   1.673   6.024   5.371 -0.5103 -0.0245  0.6245
  778MOL0     H 5010   1.636   5.943   5.593  1.3086  0.4357 -1.7411
  778MOL0     H 5011   1.606   5.772   5.523  1.3734 -0.3701 -0.9917
  778MOL0     H 5012   2.585   6.076   5.096 -2.4336 -1.9335 -3.4937
  778MOL0     H 5013   2.797   6.067   4.991  2.5614 -0.6348 -0.2902
  778MOL0     H 5014   3.162   6.126   4.822  0.4693  0.5352  0.0605
  778MOL0     H 5015   3.348   6.105   4.650  2.5161 -1.2500 -2.0480
  778MOL0     H 5016   5.211   5.440   4.823  0.8473 -0.4664 -1.6156
  778MOL0     H 5017   5.409   5.462   4.689 -3.1881 -1.0153  0.5915
  778MOL0     H 5018   5.806   5.667   4.636 -1.3034  1.2483 -1.2780
  778MOL0     H 5019   6.029   5.685   4.515  0.8467  2.1782  0.6138
  778MOL0     H 5020   6.045   5.690   4.078  0.7612 -0.7665  0.0668
  778MOL0     H 5021   6.056   5.851   4.151  2.5081  1.0060  1.6090
  778MOL0     H 5022   6.303   5.824   4.182 -0.8797  0.4529 -1.4419
  778MOL0     H 5023   6.258   5.799   4.013  0.2425 -0.8815 -0.3418
  778MOL0     H 5024   6.267   5.555   4.041 -3.8666  3.7086 -1.2909
  778MOL0     H 5025   6.326   5.577   4.213 -2.3596  0.0470 -0.7227
  778MOL0     H 5026   6.541   5.685   4.124  2.3273  0.4967 -2.0197
  778MOL0     H 5027   6.476   5.670   3.958  2.0313 -1.7949 -0.4789
  778MOL0     H 5028   6.541   5.265   4.047 -1.5626 -0.8873 -1.1696
  778MOL0     H 5029   5.818   5.612   4.146 -1.8453  0.4745 -0.0455
  778MOL0     H 5030   5.609   5.632   4.263 -0.2653 -1.3691  0.5908
  779MOL0     O 5031   4.047   8.466   8.829  0.0363 -0.2696 -0.4178
  779MOL0     C 5032   4.110   8.355   8.822  0.9126 -0.3451  0.3611
  779MOL0     O 5033   4.060   8.230   8.847  0.0236  0.7776  0.5899
  779MOL0     C 5034   3.929   8.227   8.893 -0.0014 -0.8494 -0.2682
  779MOL0     C 5035   3.825   8.245   8.802 -0.0914 -0.2633 -0.0996
  779MOL0     C 5036   3.700   8.225   8.847  0.7658  0.7003 -0.2091
  779MOL0     C 5037   3.667   8.187   8.977  0.9586 -0.5384 -0.8561
  779MOL0     O 5038   3.545   8.161   9.028 -0.1111  0.2806  0.3434
  779MOL0     C 5039   3.432   8.187   8.941 -0.2760 -0.0943  0.3006
  779MOL0     C 5040   3.300   8.145   8.996  0.2201  0.0122  0.1567
  779MOL0     C 5041   3.186   8.126   8.897  1.0603 -0.0241  0.6567
  779MOL0     C 5042   3.070   8.052   8.969 -1.1662 -0.7897  0.1709
  779MOL0     C 5043   2.943   8.046   8.879  0.5377  0.2248  0.8926
  779MOL0     C 5044   2.843   7.926   8.915  0.3950 -0.1012  1.0326
  779MOL0     C 5045   2.799   7.930   9.061  1.0128  0.0729 -0.1931
  779MOL0     C 5046   2.678   7.843   9.077  0.1905 -0.2025  0.4252
  779MOL0     N 5047   2.624   7.834   9.207  0.2943 -0.0030 -0.1414
  779MOL0     C 5048   2.628   7.932   9.300  0.2099  0.2200 -0.6253
  779MOL0     C 5049   2.569   7.872   9.406 -0.4297 -0.1091 -0.4914
  779MOL0     C 5050   2.562   7.926   9.548 -0.3603 -0.2773  0.2728
  779MOL0     C 5051   2.440   8.010   9.584 -0.1399 -0.2949 -0.1719
  779MOL0     C 5052   2.314   7.958   9.514  0.0378 -0.1030 -0.5304
  779MOL0     C 5053   2.191   8.037   9.559  0.5034 -0.0802 -0.5265
  779MOL0     O 5054   2.075   7.998   9.482 -0.9763 -0.1388  1.1686
  779MOL0     C 5055   1.958   8.048   9.519  0.4116 -0.7740 -0.1375
  779MOL0     C 5056   1.942   8.164   9.602 -0.0161 -0.5476  1.3467
  779MOL0     C 5057   1.823   8.212   9.647  0.8397 -0.5351 -0.6662
  779MOL0     C 5058   1.809   8.321   9.757  0.5980 -0.0119  0.4831
  779MOL0     C 5059   1.708   8.141   9.605 -0.0747 -0.2918 -0.0124
  779MOL0     C 5060   1.576   8.185   9.638 -0.4797 -0.4774  0.1510
  779MOL0     O 5061   1.496   8.108   9.709 -0.1279  0.0631 -0.6101
  779MOL0     C 5062   1.372   8.158   9.723 -0.2635  0.0962  0.4910
  779MOL0     C 5063   1.346   8.231   9.837  0.1654  0.1459  0.1152
  779MOL0     C 5064   1.221   8.292   9.871  0.1832 -0.2187  0.2374
  779MOL0     C 5065   1.112   8.266   9.783  1.3352 -1.0357 -0.1153
  779MOL0     O 5066   0.986   8.312   9.802  0.6163 -0.4030  0.5158
  779MOL0     C 5067   0.917   8.384   9.702 -0.9052  0.1006  0.1623
  779MOL0     C 5068   0.960   8.525   9.678  0.5159 -1.5725 -0.5597
  779MOL0     C 5069   0.859   8.599   9.588 -1.3510 -0.4981  0.0883
  779MOL0     C 5070   0.862   8.749   9.606 -0.3778  0.1072  0.7062
  779MOL0     C 5071   0.751   8.805   9.512 -0.4776 -0.2339  0.0733
  779MOL0     C 5072   0.709   8.954   9.520 -0.5296  0.1924 -0.6402
  779MOL0     C 5073   0.810   9.034   9.431  0.0181  0.6507  0.0559
  779MOL0     C 5074   0.789   9.179   9.454  0.0789  0.4097 -0.3438
  779MOL0    Cl 5075   0.891   9.279   9.344 -0.0227  0.2992  0.1940
  779MOL0     C 5076   1.130   8.187   9.666 -0.5210  0.0331  0.6676
  779MOL0     C 5077   1.261   8.139   9.642 -0.1666  0.1508  0.8163
  779MOL0     O 5078   1.550   8.290   9.590 -0.1789 -0.1784  0.0557
  779MOL0     C 5079   1.718   8.031   9.523  0.5985 -0.0683  0.3950
  779MOL0     C 5080   1.839   7.983   9.476 -0.1184 -0.1136 -0.4219
  779MOL0     N 5081   2.528   7.748   9.374 -0.3278 -0.2826 -0.0042
  779MOL0     N 5082   2.561   7.722   9.250  0.7680  0.4587  1.0844
  779MOL0     C 5083   3.771   8.176   9.069  0.4615  0.0997 -0.6991
  779MOL0     C 5084   3.904   8.187   9.027 -0.3684  0.5557 -0.3942
  779MOL0     C 5085   4.254   8.374   8.781  0.3614  0.0030 -0.2659
  779MOL0     C 5086   4.340   8.267   8.775 -0.3848  0.2355  0.3541
  779MOL0     C 5087   4.473   8.286   8.738 -0.0345 -0.5547 -0.3633
  779MOL0     C 5088   4.520   8.418   8.705  0.0192 -0.2787 -0.4656
  779MOL0     O 5089   4.645   8.447   8.672  0.4359  0.3130 -0.3184
  779MOL0     C 5090   4.742   8.342   8.662 -0.1258  0.3062  0.0802
  779MOL0     C 5091   4.883   8.396   8.646 -1.0781 -0.0849  0.4471
  779MOL0     C 5092   4.946   8.426   8.784  1.1103  0.6856 -0.2021
  779MOL0     C 5093   5.089   8.461   8.773 -0.9676 -0.7903  0.0868
  779MOL0     C 5094   5.117   8.582   8.853 -0.5618  0.1000 -1.0142
  779MOL0     C 5095   5.138   8.666   8.934 -0.2261  0.1032  0.4178
  779MOL0     C 5096   4.428   8.522   8.698  0.0981  0.0349 -0.5414
  779MOL0     C 5097   4.294   8.502   8.736  0.3398 -0.2234 -0.6123
  779MOL0     H 5098   3.853   8.276   8.702  3.8738 -1.1862  0.5641
  779MOL0     H 5099   3.629   8.230   8.765  1.5266  0.0295 -0.9363
  779MOL0     H 5100   3.428   8.293   8.914 -1.7742 -0.4024 -0.7942
  779MOL0     H 5101   3.435   8.130   8.849  1.5140  0.5981 -0.1313
  779MOL0     H 5102   3.310   8.052   9.052 -1.0423  0.2154  0.7719
  779MOL0     H 5103   3.257   8.219   9.065  0.6252 -0.4608  0.9338
  779MOL0     H 5104   3.156   8.220   8.849  4.1649  0.2831 -0.9134
  779MOL0     H 5105   3.223   8.064   8.815  0.1376  1.0161 -0.5898
  779MOL0     H 5106   3.112   7.952   8.985  1.8325 -0.0805 -2.3025
  779MOL0     H 5107   3.041   8.102   9.062  1.3715  0.1272  0.5608
  779MOL0     H 5108   2.886   8.139   8.883 -0.0941 -0.1794  1.6535
  779MOL0     H 5109   2.973   8.028   8.775 -1.5875 -1.1888  0.4406
  779MOL0     H 5110   2.760   7.932   8.843  2.4138 -1.2041 -1.5364
  779MOL0     H 5111   2.900   7.834   8.903  0.0587 -0.2643  0.6217
  779MOL0     H 5112   2.875   7.888   9.127  0.9621  0.8911  0.3900
  779MOL0     H 5113   2.775   8.031   9.095  0.8295  0.5722 -1.7025
  779MOL0     H 5114   2.698   7.744   9.035 -1.5950 -1.4861  2.4527
  779MOL0     H 5115   2.602   7.889   9.013 -1.4429  0.4326  2.7170
  779MOL0     H 5116   2.656   8.038   9.301 -1.6660  0.7832  2.0420
  779MOL0     H 5117   2.559   7.832   9.603 -2.7223 -0.6881 -0.4585
  779MOL0     H 5118   2.657   7.978   9.567  0.5667 -2.1835  1.0884
  779MOL0     H 5119   2.467   8.113   9.561 -1.8051 -0.0261 -1.0921
  779MOL0     H 5120   2.431   8.003   9.693  1.2701  1.5043  0.1102
  779MOL0     H 5121   2.289   7.853   9.532 -3.9326  0.4423 -1.8473
  779MOL0     H 5122   2.337   7.980   9.409  4.3314  3.3416  0.8543
  779MOL0     H 5123   2.212   8.143   9.548  1.6088 -0.2078  0.2331
  779MOL0     H 5124   2.168   8.013   9.664 -3.0827  2.5454 -0.5221
  779MOL0     H 5125   2.030   8.219   9.635  0.8084 -1.2686  0.4257
  779MOL0     H 5126   1.903   8.327   9.812  1.4241  0.8606 -0.9450
  779MOL0     H 5127   1.793   8.412   9.698  0.0898 -1.2869 -1.4223
  779MOL0     H 5128   1.717   8.315   9.815  0.3158  2.2192  0.3540
  779MOL0     H 5129   1.426   8.247   9.910  1.1658  0.1914 -0.9650
  779MOL0     H 5130   1.214   8.354   9.960  0.2028 -2.3396  1.7982
  779MOL0     H 5131   0.928   8.339   9.604 -1.8996  0.1117  0.0276
  779MOL0     H 5132   0.808   8.389   9.718 -1.5492 -1.2521 -3.1669
  779MOL0     H 5133   0.959   8.572   9.777  1.1775 -0.1709 -1.1861
  779MOL0     H 5134   1.060   8.542   9.638  0.6170  1.3659  0.6819
  779MOL0     H 5135   0.762   8.551   9.603 -1.6786 -1.0364 -3.0175
  779MOL0     H 5136   0.885   8.595   9.482 -0.4347  1.6827  0.1623
  779MOL0     H 5137   0.834   8.773   9.709 -2.9710  2.5470 -0.4304
  779MOL0     H 5138   0.957   8.801   9.587 -2.1347  3.2644 -0.1509
  779MOL0     H 5139   0.660   8.748   9.527 -0.3755 -1.3029 -2.7207
  779MOL0     H 5140   0.776   8.776   9.409  0.0037 -2.4410  0.7618
  779MOL0     H 5141   0.610   8.963   9.476 -0.2501  1.3786 -1.0556
  779MOL0     H 5142   0.707   8.995   9.622 -4.3162  1.1634 -0.9552
  779MOL0     H 5143   0.799   9.004   9.326  0.7020  1.6184 -0.3049
  779MOL0     H 5144   0.914   9.005   9.453 -1.1666 -1.5829  3.5325
  779MOL0     H 5145   0.822   9.205   9.555  0.0169  2.3586 -0.7772
  779MOL0     H 5146   0.681   9.197   9.455 -0.1555 -0.8169 -0.9413
  779MOL0     H 5147   1.065   8.158   9.584  0.3969  2.1070 -0.8882
  779MOL0     H 5148   1.275   8.072   9.558  2.0841  1.0726  0.3846
  779MOL0     H 5149   1.622   7.996   9.488  0.3834 -2.9135  3.3953
  779MOL0     H 5150   1.839   7.901   9.406  1.6543  0.6008 -1.3428
  779MOL0     H 5151   3.749   8.163   9.175  1.7172 -0.3254 -0.4744
  779MOL0     H 5152   3.986   8.163   9.095 -1.7887 -0.5412  1.0046
  779MOL0     H 5153   4.309   8.169   8.809  0.9163 -0.5026 -0.5467
  779MOL0     H 5154   4.541   8.202   8.747  3.8954  2.3735 -0.1983
  779MOL0     H 5155   4.734   8.279   8.751 -1.5822  1.8285  1.1032
  779MOL0     H 5156   4.711   8.279   8.579 -0.7242 -2.8346  2.5060
  779MOL0     H 5157   4.876   8.485   8.582 -1.1013 -0.9713 -0.8221
  779MOL0     H 5158   4.938   8.322   8.588 -2.8704  0.1135 -1.6396
  779MOL0     H 5159   4.938   8.339   8.850  1.8470  0.8381  0.1133
  779MOL0     H 5160   4.889   8.500   8.840  2.4628  2.5888 -1.2384
  779MOL0     H 5161   5.123   8.462   8.669 -0.1117  0.7394  0.3461
  779MOL0     H 5162   5.146   8.381   8.820  1.0767 -0.6738 -2.0026
  779MOL0     H 5163   5.151   8.738   9.013  1.8915 -1.6604  1.7922
  779MOL0     H 5164   4.462   8.618   8.660 -1.5378  0.7817 -0.2071
  779MOL0     H 5165   4.233   8.590   8.720  0.8639 -0.4474 -5.3204
  780MOL0     O 5166   1.581   4.250   1.690  0.1245  0.0797  0.4699
  780MOL0     C 5167   1.666   4.159   1.709 -0.4626  0.1304 -0.2724
  780MOL0     O 5168   1.646   4.056   1.799 -0.1521  0.1229 -0.2583
  780MOL0     C 5169   1.528   4.050   1.863  0.0251 -0.4524  0.2927
  780MOL0     C 5170   1.511   4.070   1.998  0.7408  0.1576  0.8179
  780MOL0     C 5171   1.387   4.059   2.061  0.3022 -0.0817  0.8433
  780MOL0     C 5172   1.278   4.042   1.977 -0.3179  0.0715  0.5469
  780MOL0     O 5173   1.146   4.053   2.014  0.3546  0.5985 -0.3638
  780MOL0     C 5174   1.106   4.092   2.153 -0.6198 -0.0371 -0.4600
  780MOL0     C 5175   0.955   4.061   2.179  0.2457 -0.0623 -0.2138
  780MOL0     C 5176   0.903   4.129   2.304 -0.3961  0.3129 -0.9105
  780MOL0     C 5177   0.760   4.087   2.319  0.5953 -0.3222 -0.3276
  780MOL0     C 5178   0.687   4.173   2.421 -0.4196 -0.0099  0.2560
  780MOL0     C 5179   0.655   4.321   2.363 -0.2185 -0.2538 -0.0241
  780MOL0     C 5180   0.570   4.416   2.448  0.7867  0.4572  0.4611
  780MOL0     C 5181   0.628   4.434   2.586  0.4278  0.8679 -0.0658
  780MOL0     N 5182   0.539   4.519   2.669  0.1179 -0.2173 -0.3031
  780MOL0     C 5183   0.467   4.627   2.625  0.2931  0.4879 -0.5816
  780MOL0     C 5184   0.396   4.669   2.730  0.8383 -0.2061  0.1899
  780MOL0     C 5185   0.302   4.786   2.717 -0.1863 -0.4396 -0.6135
  780MOL0     C 5186   0.159   4.726   2.738  0.0836  0.0325  0.0269
  780MOL0     C 5187   0.055   4.830   2.735  0.9567 -0.3724 -0.5612
  780MOL0     C 5188  -0.089   4.785   2.745 -0.2090  0.2468  0.0343
  780MOL0     O 5189  -0.112   4.765   2.884  0.4210 -0.2715 -0.5808
  780MOL0     C 5190  -0.241   4.725   2.914 -1.0387  0.2176 -0.1903
  780MOL0     C 5191  -0.253   4.623   3.008  0.1607 -0.2921 -0.2022
  780MOL0     C 5192  -0.376   4.583   3.061  0.4739 -0.5776  0.7889
  780MOL0     C 5193  -0.376   4.456   3.142  0.3216 -0.3568 -0.4772
  780MOL0     C 5194  -0.491   4.659   3.029  0.5901  0.3430 -0.2001
  780MOL0     C 5195  -0.629   4.636   3.086  0.1666 -0.6360  0.5782
  780MOL0     O 5196  -0.731   4.682   3.004  0.4471 -0.8049  0.6162
  780MOL0     C 5197  -0.859   4.660   3.048 -0.5342 -0.0452  0.2823
  780MOL0     C 5198  -0.936   4.543   3.012  0.0718 -1.0944 -0.2935
  780MOL0     C 5199  -1.066   4.533   3.047 -0.0096  0.2674 -0.5120
  780MOL0     C 5200  -1.131   4.628   3.125 -0.4490 -0.2414  0.8124
  780MOL0     O 5201  -1.258   4.605   3.155  0.2901  0.1213  0.3691
  780MOL0     C 5202  -1.345   4.706   3.211 -0.8249 -0.4100  0.0306
  780MOL0     C 5203  -1.483   4.652   3.181 -0.7604 -0.1843  0.0701
  780MOL0     C 5204  -1.606   4.745   3.205 -0.3517  0.5948 -0.0795
  780MOL0     C 5205  -1.740   4.669   3.199 -0.0831  0.7827 -0.1047
  780MOL0     C 5206  -1.866   4.755   3.226 -0.0481 -0.1385  0.1037
  780MOL0     C 5207  -1.986   4.667   3.224 -0.6464 -0.0567  0.1185
  780MOL0     C 5208  -2.117   4.752   3.245 -0.2178  0.8657  0.7706
  780MOL0     C 5209  -2.199   4.764   3.110  0.1704  0.0551  0.0350
  780MOL0    Cl 5210  -2.362   4.836   3.145  0.1079 -0.3337  0.0904
  780MOL0     C 5211  -1.055   4.734   3.167 -0.2658  0.4588  0.0160
  780MOL0     C 5212  -0.920   4.756   3.129  0.3679 -0.7500  0.1604
  780MOL0     O 5213  -0.638   4.594   3.198 -0.2238 -0.3753  0.2706
  780MOL0     C 5214  -0.483   4.759   2.926 -0.2647 -0.5793 -0.0406
  780MOL0     C 5215  -0.355   4.792   2.873  0.4209  0.3849 -0.3871
  780MOL0     N 5216   0.428   4.586   2.837  0.0147 -0.6018  0.5916
  780MOL0     N 5217   0.528   4.507   2.799  0.4087 -0.1298 -0.1354
  780MOL0     C 5218   1.293   4.027   1.839  0.0647  0.8046 -0.2834
  780MOL0     C 5219   1.422   4.017   1.781  1.2265  0.1878 -0.7679
  780MOL0     C 5220   1.794   4.162   1.643 -0.9008 -0.2644 -0.1777
  780MOL0     C 5221   1.901   4.071   1.670 -0.1672  0.3384 -0.3617
  780MOL0     C 5222   2.025   4.086   1.615  0.3931  0.3539  0.0060
  780MOL0     C 5223   2.051   4.191   1.523  0.4053  0.0003 -0.7246
  780MOL0     O 5224   2.172   4.203   1.466  0.0080  0.5645 -0.2299
  780MOL0     C 5225   2.256   4.286   1.548 -0.2403 -1.0537 -0.0553
  780MOL0     C 5226   2.372   4.332   1.458  0.6237 -0.0527 -0.1340
  780MOL0     C 5227   2.512   4.351   1.522  0.0948  0.6755 -0.7627
  780MOL0     C 5228   2.588   4.219   1.548 -0.0843 -0.6385  0.3344
  780MOL0     C 5229   2.718   4.250   1.614  0.5660  1.1831  0.6550
  780MOL0     C 5230   2.820   4.270   1.674  0.5035  0.5535 -0.6675
  780MOL0     C 5231   1.947   4.283   1.501 -0.3186  1.1104 -0.2726
  780MOL0     C 5232   1.823   4.263   1.562 -0.4292  0.5500  0.2246
  780MOL0     H 5233   1.601   4.102   2.051  1.0281  1.4556 -0.3974
  780MOL0     H 5234   1.382   4.057   2.170 -0.5732 -3.4394  0.8691
  780MOL0     H 5235   1.172   4.041   2.223 -0.3021 -3.7788 -3.1574
  780MOL0     H 5236   1.120   4.200   2.157  1.0616 -0.1519 -2.0524
  780MOL0     H 5237   0.900   4.093   2.090  2.1763  1.3231 -0.9897
  780MOL0     H 5238   0.951   3.951   2.185 -0.4221 -0.0126  0.2804
  780MOL0     H 5239   0.961   4.099   2.391  2.5003  0.6031 -2.6032
  780MOL0     H 5240   0.915   4.237   2.302 -2.3575  0.6726  1.9593
  780MOL0     H 5241   0.708   4.097   2.223  0.1693 -1.3742 -0.2220
  780MOL0     H 5242   0.756   3.983   2.352  0.4959 -0.4024 -0.5881
  780MOL0     H 5243   0.598   4.119   2.455 -0.1373 -0.3466  0.4703
  780MOL0     H 5244   0.755   4.182   2.506  1.4523 -0.5237 -1.1156
  780MOL0     H 5245   0.746   4.380   2.349 -0.2974 -0.3588 -1.0491
  780MOL0     H 5246   0.612   4.323   2.263 -0.6042  2.3336  0.1363
  780MOL0     H 5247   0.549   4.505   2.387 -6.2212  0.7702  2.5132
  780MOL0     H 5248   0.475   4.362   2.448  0.5570  0.7060 -2.3984
  780MOL0     H 5249   0.728   4.478   2.580  2.5872 -3.4727 -0.3218
  780MOL0     H 5250   0.647   4.338   2.636  1.7076  0.4488 -1.2982
  780MOL0     H 5251   0.454   4.660   2.522  1.0808  1.2524 -0.4430
  780MOL0     H 5252   0.331   4.841   2.806 -1.7423 -2.8547  1.5519
  780MOL0     H 5253   0.315   4.833   2.619  1.7591  1.6009  0.5377
  780MOL0     H 5254   0.155   4.666   2.830 -1.7748  0.5183  0.3005
  780MOL0     H 5255   0.144   4.657   2.655 -1.2703 -0.8453  0.9670
  780MOL0     H 5256   0.072   4.881   2.640  3.5158  0.8831  0.4641
  780MOL0     H 5257   0.070   4.905   2.813 -0.0270  1.5590 -2.1549
  780MOL0     H 5258  -0.095   4.693   2.687 -1.3741 -1.3197  2.4756
  780MOL0     H 5259  -0.148   4.869   2.706 -0.2713  0.5376  0.7317
  780MOL0     H 5260  -0.164   4.561   3.017 -0.4034 -1.8937 -3.8066
  780MOL0     H 5261  -0.277   4.410   3.136  0.4704 -0.2323  0.7033
  780MOL0     H 5262  -0.388   4.478   3.249 -1.2110 -0.4958 -0.5853
  780MOL0     H 5263  -0.448   4.379   3.111  1.8599 -1.4260 -1.4758
  780MOL0     H 5264  -0.879   4.465   2.963  2.1660 -0.4343  0.9757
  780MOL0     H 5265  -1.138   4.461   3.009 -1.9552  1.9338 -0.1817
  780MOL0     H 5266  -1.324   4.725   3.317 -0.1965 -2.7728  0.3792
  780MOL0     H 5267  -1.334   4.799   3.154 -0.7616  0.7223  1.8003
  780MOL0     H 5268  -1.475   4.630   3.074  0.2194 -4.7327  0.8776
  780MOL0     H 5269  -1.495   4.551   3.220 -3.2876 -1.7965 -4.1349
  780MOL0     H 5270  -1.607   4.826   3.131 -0.3927  0.3581 -0.3389
  780MOL0     H 5271  -1.605   4.781   3.309  0.9037  0.3835 -0.0071
  780MOL0     H 5272  -1.744   4.622   3.101 -1.4967 -0.5341  0.5455
  780MOL0     H 5273  -1.726   4.585   3.268  3.3021  0.1228 -1.3698
  780MOL0     H 5274  -1.876   4.840   3.157 -0.9230  1.0282  1.5983
  780MOL0     H 5275  -1.856   4.797   3.327 -0.1781 -0.7304  0.3657
  780MOL0     H 5276  -1.990   4.596   3.140  1.7275  0.9408 -0.9328
  780MOL0     H 5277  -1.975   4.604   3.312 -2.9645 -3.3372 -1.6951
  780MOL0     H 5278  -2.099   4.855   3.276  0.9441  0.2661  2.2272
  780MOL0     H 5279  -2.178   4.700   3.320 -1.2205  1.9514  0.7277
  780MOL0     H 5280  -2.201   4.671   3.053  2.0840  0.5457 -0.9519
  780MOL0     H 5281  -2.139   4.833   3.051  2.2943  0.4513  2.4629
  780MOL0     H 5282  -1.096   4.807   3.236  1.8080 -0.2257  2.0864
  780MOL0     H 5283  -0.861   4.839   3.166  1.2464 -0.5062 -1.7180
  780MOL0     H 5284  -0.577   4.803   2.895 -0.6744 -3.0911 -2.8427
  780MOL0     H 5285  -0.350   4.869   2.797 -1.2062 -0.0148 -0.9427
  780MOL0     H 5286   1.204   4.005   1.781  0.2763 -0.7511 -0.0562
  780MOL0     H 5287   1.437   3.983   1.679 -0.6306 -0.3576 -0.9026
  780MOL0     H 5288   1.895   3.996   1.748 -0.4096  1.2612  0.5329
  780MOL0     H 5289   2.109   4.019   1.632 -0.9281 -1.4740 -0.4049
  780MOL0     H 5290   2.203   4.366   1.600  0.4294 -0.0871 -0.8111
  780MOL0     H 5291   2.298   4.234   1.634 -1.3772  2.0585  2.5744
  780MOL0     H 5292   2.338   4.427   1.415 -1.3044  0.5030  2.4218
  780MOL0     H 5293   2.392   4.267   1.372  0.8226 -2.2368  1.4700
  780MOL0     H 5294   2.504   4.399   1.620  1.3077  0.8234 -0.7212
  780MOL0     H 5295   2.585   4.408   1.463 -0.9663  1.2557 -1.5484
  780MOL0     H 5296   2.616   4.180   1.450 -0.6597  2.6616 -1.2869
  780MOL0     H 5297   2.536   4.140   1.603  2.8672 -3.6965 -0.9212
  780MOL0     H 5298   2.910   4.287   1.730  0.8212 -1.0516 -0.6433
  780MOL0     H 5299   1.962   4.361   1.427  2.4566  1.4393  0.5033
  780MOL0     H 5300   1.749   4.332   1.523 -1.4107 -0.7010 -0.1783
  781MOL0     O 5301   2.683   8.835   9.735  0.3972  0.4402 -0.2742
  781MOL0     C 5302   2.704   8.742   9.806  0.8951  0.1961 -0.2309
  781MOL0     O 5303   2.609   8.676   9.887  0.7282 -0.4847 -0.1297
  781MOL0     C 5304   2.475   8.713   9.879 -0.2422 -0.4286 -0.2267
  781MOL0     C 5305   2.393   8.710   9.768  0.2454 -0.6348  0.2028
  781MOL0     C 5306   2.254   8.708   9.781 -0.3213 -0.5323 -0.4501
  781MOL0     C 5307   2.197   8.717   9.903  0.0631 -0.1785  0.2185
  781MOL0     O 5308   2.059   8.727   9.919  0.4988 -1.2247 -0.4427
  781MOL0     C 5309   1.997   8.610   9.984 -0.4544 -0.7032  0.3450
  781MOL0     C 5310   1.850   8.636  10.030  0.0114  0.2702 -0.2379
  781MOL0     C 5311   1.764   8.676   9.907 -0.7108 -0.3715  1.1392
  781MOL0     C 5312   1.619   8.698   9.959 -0.3612  0.1915 -0.3646
  781MOL0     C 5313   1.520   8.715   9.841 -0.5454  0.3751  0.2105
  781MOL0     C 5314   1.500   8.576   9.765 -0.9130 -0.4956  0.5152
  781MOL0     C 5315   1.374   8.563   9.691  0.0471  0.6091 -0.3400
  781MOL0     C 5316   1.376   8.677   9.581 -0.6318 -0.2684  0.6217
  781MOL0     N 5317   1.260   8.667   9.490 -0.2439  0.3723  0.6497
  781MOL0     C 5318   1.218   8.553   9.429 -0.3402  0.3984  0.5634
  781MOL0     C 5319   1.144   8.586   9.323  0.3712 -0.0572  0.6480
  781MOL0     C 5320   1.095   8.494   9.211 -0.3926 -0.1439 -0.0474
  781MOL0     C 5321   0.967   8.539   9.148  0.6418  0.8875  0.3163
  781MOL0     C 5322   0.942   8.472   9.018  0.0271 -0.6016  0.6501
  781MOL0     C 5323   1.043   8.521   8.903  0.0596  0.8177 -0.6166
  781MOL0     O 5324   1.043   8.665   8.892 -0.2636  0.5261 -0.1652
  781MOL0     C 5325   0.920   8.709   8.854 -0.3762 -0.9416  0.2234
  781MOL0     C 5326   0.880   8.828   8.910 -0.7451 -0.1748  0.4837
  781MOL0     C 5327   0.774   8.899   8.868  0.9340 -0.4197  0.7654
  781MOL0     C 5328   0.754   9.032   8.934  0.1392  0.5233 -0.1878
  781MOL0     C 5329   0.693   8.840   8.764 -0.3331  0.1483  0.7457
  781MOL0     C 5330   0.571   8.899   8.708 -0.0749  0.5924  0.6557
  781MOL0     O 5331   0.497   8.821   8.624 -0.2144  0.7380  0.2917
  781MOL0     C 5332   0.384   8.881   8.570 -0.1267 -0.2084  0.3047
  781MOL0     C 5333   0.389   8.918   8.441  0.9265  0.0218 -0.2107
  781MOL0     C 5334   0.271   8.957   8.379  0.5178 -0.4265  0.4144
  781MOL0     C 5335   0.146   8.948   8.446  1.0250  0.3682  0.2846
  781MOL0     O 5336   0.017   8.959   8.393 -0.5637  0.5128  0.2689
  781MOL0     C 5337  -0.007   8.885   8.269 -0.0568 -0.6562 -0.9946
  781MOL0     C 5338  -0.153   8.841   8.263 -0.3360 -0.1406  0.0482
  781MOL0     C 5339  -0.228   8.965   8.208  0.2163  0.5720  0.6746
  781MOL0     C 5340  -0.367   8.926   8.170  0.6956  1.2063  0.5139
  781MOL0     C 5341  -0.454   9.040   8.127 -0.0238 -0.2417 -0.0405
  781MOL0     C 5342  -0.579   8.996   8.049  0.2892 -0.8639  0.6752
  781MOL0     C 5343  -0.552   9.007   7.891 -0.4224  0.5128 -0.2175
  781MOL0     C 5344  -0.681   9.007   7.805  0.4794 -0.0371 -0.9889
  781MOL0    Cl 5345  -0.808   8.878   7.853  0.0147 -0.2996 -0.5816
  781MOL0     C 5346   0.144   8.899   8.579 -0.1769 -0.2016 -0.3350
  781MOL0     C 5347   0.265   8.876   8.643  0.2722  0.5486 -0.1469
  781MOL0     O 5348   0.544   9.012   8.738 -0.3172 -0.0778 -0.9887
  781MOL0     C 5349   0.734   8.717   8.703 -0.1588  0.3884  0.1119
  781MOL0     C 5350   0.840   8.643   8.755  0.3939 -0.5821  0.2879
  781MOL0     N 5351   1.126   8.720   9.330  0.8399 -0.1005 -0.3613
  781MOL0     N 5352   1.205   8.771   9.423 -0.0300 -0.6375  0.2377
  781MOL0     C 5353   2.277   8.722  10.024  0.6685  0.4288 -0.3835
  781MOL0     C 5354   2.417   8.710  10.008  0.3267  0.4664  0.4149
  781MOL0     C 5355   2.847   8.683   9.815 -0.1472  0.3793 -0.7765
  781MOL0     C 5356   2.962   8.765   9.802  0.1150  0.0940  0.2281
  781MOL0     C 5357   3.089   8.716   9.805  0.7098 -0.3954  0.0187
  781MOL0     C 5358   3.102   8.584   9.842  0.1601 -0.6028 -0.0009
  781MOL0     O 5359   3.225   8.531   9.843  0.2101 -0.5428 -0.5338
  781MOL0     C 5360   3.283   8.551   9.972  0.3429 -0.0741 -0.3394
  781MOL0     C 5361   3.432   8.583   9.935  0.6193 -0.7391 -0.1373
  781MOL0     C 5362   3.529   8.521  10.028  0.0242  0.2440 -0.3214
  781MOL0     C 5363   3.524   8.628  10.147  0.1778  0.4045 -0.1880
  781MOL0     C 5364   3.577   8.547  10.260 -0.4786 -0.3586  0.0357
  781MOL0     C 5365   3.629   8.498  10.360  0.2166  0.0986  0.2818
  781MOL0     C 5366   2.998   8.498   9.878 -0.2358 -0.1969  0.5972
  781MOL0     C 5367   2.866   8.550   9.862  0.3958 -0.7250  0.7750
  781MOL0     H 5368   2.441   8.696   9.672  0.3014 -0.2415  0.1720
  781MOL0     H 5369   2.185   8.712   9.697  1.3101 -1.1157 -1.8873
  781MOL0     H 5370   1.996   8.525   9.915  0.8185 -2.1403  2.0091
  781MOL0     H 5371   2.048   8.592  10.079  0.8932 -0.4136 -0.2933
  781MOL0     H 5372   1.810   8.542  10.068  0.5791  0.4183  0.7823
  781MOL0     H 5373   1.842   8.714  10.106 -0.0867 -1.2826  1.4190
  781MOL0     H 5374   1.805   8.767   9.863 -0.1858 -1.0180  0.2379
  781MOL0     H 5375   1.761   8.605   9.823 -0.7398  0.3214  0.5499
  781MOL0     H 5376   1.585   8.608  10.011  2.2486 -0.5586  0.1858
  781MOL0     H 5377   1.617   8.781  10.030  1.1977  1.1029 -1.3432
  781MOL0     H 5378   1.425   8.748   9.885 -0.1060 -1.3160  2.6312
  781MOL0     H 5379   1.560   8.795   9.778 -1.4711  1.8466  1.4047
  781MOL0     H 5380   1.583   8.567   9.695 -0.2742 -1.3525  1.3562
  781MOL0     H 5381   1.511   8.495   9.838  1.8707 -0.0418  0.7174
  781MOL0     H 5382   1.376   8.467   9.638 -1.1101  0.0205  0.6455
  781MOL0     H 5383   1.284   8.565   9.753  0.3944 -3.2086  0.5997
  781MOL0     H 5384   1.477   8.673   9.539 -1.1597 -0.0647 -0.7083
  781MOL0     H 5385   1.374   8.773   9.634  3.0933  0.6557 -0.5483
  781MOL0     H 5386   1.238   8.449   9.452  2.3690  0.0116 -2.7776
  781MOL0     H 5387   1.175   8.497   9.135 -0.7169  1.6096 -0.3625
  781MOL0     H 5388   1.068   8.396   9.250 -1.5323  0.2919  0.2985
  781MOL0     H 5389   0.964   8.647   9.132 -2.8089  1.0383  1.2929
  781MOL0     H 5390   0.887   8.522   9.220  3.0617 -0.6915  2.8614
  781MOL0     H 5391   0.840   8.485   8.982 -0.3958 -2.8242  0.9358
  781MOL0     H 5392   0.950   8.364   9.033 -1.2438 -1.1566 -2.1258
  781MOL0     H 5393   1.017   8.474   8.808 -0.3533 -0.3217  0.0480
  781MOL0     H 5394   1.146   8.488   8.919 -0.0411  0.3128 -1.0077
  781MOL0     H 5395   0.948   8.863   8.987  0.4065  1.9166 -1.3555
  781MOL0     H 5396   0.773   9.107   8.856  0.2299 -0.7658 -1.4577
  781MOL0     H 5397   0.650   9.039   8.966  0.7140  0.9147  1.7116
  781MOL0     H 5398   0.824   9.046   9.016  0.1374  1.0394 -0.2754
  781MOL0     H 5399   0.479   8.925   8.380  1.3887 -1.0037  0.3310
  781MOL0     H 5400   0.280   8.992   8.276  2.7125 -0.1233  0.6713
  781MOL0     H 5401   0.021   8.942   8.180 -2.7247  3.2684  0.3890
  781MOL0     H 5402   0.054   8.795   8.278  1.3301  0.4084  1.5250
  781MOL0     H 5403  -0.153   8.758   8.191 -0.5303  0.9201 -1.2133
  781MOL0     H 5404  -0.204   8.817   8.356 -0.8703 -1.2175 -0.5063
  781MOL0     H 5405  -0.184   8.989   8.111  2.1445 -0.8593  1.1299
  781MOL0     H 5406  -0.231   9.046   8.281  2.6579  0.9001  0.4976
  781MOL0     H 5407  -0.361   8.852   8.088  3.0881 -1.6840  3.0470
  781MOL0     H 5408  -0.408   8.881   8.261  1.1479  1.9373  1.0875
  781MOL0     H 5409  -0.398   9.114   8.070  1.3322  0.6125  2.2694
  781MOL0     H 5410  -0.494   9.097   8.211 -0.7088  0.2305 -0.6658
  781MOL0     H 5411  -0.614   8.898   8.084  3.7991 -3.1983 -1.6724
  781MOL0     H 5412  -0.653   9.071   8.076  1.5714  0.1637  1.4602
  781MOL0     H 5413  -0.486   8.924   7.863 -0.0326  1.3650 -1.9896
  781MOL0     H 5414  -0.501   9.101   7.866  0.9295  0.1215  0.9502
  781MOL0     H 5415  -0.644   9.001   7.702  1.2070  2.3448 -0.9022
  781MOL0     H 5416  -0.720   9.108   7.811  0.0314 -0.2434 -0.3489
  781MOL0     H 5417   0.059   8.877   8.643  0.4392 -3.4496 -0.4627
  781MOL0     H 5418   0.257   8.828   8.740 -1.2583 -1.0275 -0.9876
  781MOL0     H 5419   0.678   8.675   8.621  2.3906  0.9158 -2.0249
  781MOL0     H 5420   0.864   8.541   8.724  2.6484 -0.4239  1.3348
  781MOL0     H 5421   2.215   8.719  10.113 -2.9685 -2.8570 -2.6910
  781MOL0     H 5422   2.474   8.710  10.100  0.9456  0.4323  0.0434
  781MOL0     H 5423   2.952   8.872   9.782  1.4468  0.4895  1.4525
  781MOL0     H 5424   3.177   8.777   9.789 -1.6777  3.3326 -0.0409
  781MOL0     H 5425   3.243   8.637  10.027 -2.7028 -2.0393  0.7912
  781MOL0     H 5426   3.269   8.460  10.030  2.0370 -0.6870 -0.8289
  781MOL0     H 5427   3.444   8.691   9.918 -1.0699 -0.2636  1.2569
  781MOL0     H 5428   3.449   8.540   9.836 -1.2831 -1.2282 -0.2810
  781MOL0     H 5429   3.631   8.508   9.991  1.0097 -1.2913  2.5973
  781MOL0     H 5430   3.495   8.427  10.073  0.4823  0.5241  0.6246
  781MOL0     H 5431   3.420   8.650  10.171 -0.5457 -2.4705 -0.2364
  781MOL0     H 5432   3.579   8.722  10.138 -0.3431  0.6653 -0.6954
  781MOL0     H 5433   3.671   8.449  10.445  0.3638 -0.8937 -0.3431
  781MOL0     H 5434   3.020   8.393   9.894  2.7405  0.2586  0.0024
  781MOL0     H 5435   2.787   8.476   9.862  0.4876 -1.2119 -4.2548
  782MOL0     O 5436   7.560   0.928   6.228  0.4276 -0.7225  0.0397
  782MOL0     C 5437   7.664   0.883   6.187  0.4188  0.5288 -1.0822
  782MOL0     O 5438   7.678   0.781   6.086  0.0954  0.2927 -0.4035
  782MOL0     C 5439   7.566   0.749   6.016  0.2194 -0.1251 -0.1125
  782MOL0     C 5440   7.534   0.819   5.897 -0.2159 -0.5205 -0.0387
  782MOL0     C 5441   7.416   0.784   5.817 -0.0037 -0.1680 -0.1886
  782MOL0     C 5442   7.347   0.668   5.849  0.3885  0.0162  0.5469
  782MOL0     O 5443   7.233   0.633   5.782 -0.2103 -0.0037 -0.4976
  782MOL0     C 5444   7.268   0.558   5.660  0.6678  0.3636 -0.0231
  782MOL0     C 5445   7.238   0.416   5.683  0.4036  0.0550 -0.4925
  782MOL0     C 5446   7.103   0.378   5.747  0.5069  0.5003  0.3545
  782MOL0     C 5447   7.026   0.306   5.646  0.2158  1.3432 -0.5632
  782MOL0     C 5448   6.868   0.321   5.659  0.1338 -0.5092 -0.5698
  782MOL0     C 5449   6.785   0.249   5.550  0.0655 -0.5249  0.6731
  782MOL0     C 5450   6.642   0.283   5.560 -0.1937 -0.0501 -0.3711
  782MOL0     C 5451   6.579   0.245   5.683  0.2117  0.1744 -0.4333
  782MOL0     N 5452   6.436   0.289   5.676  0.1432  0.1837 -0.3838
  782MOL0     C 5453   6.339   0.232   5.594 -0.3259 -0.2493 -0.0372
  782MOL0     C 5454   6.222   0.278   5.636  0.5109 -0.1533  0.1644
  782MOL0     C 5455   6.091   0.248   5.587  0.5055  0.5080  0.3998
  782MOL0     C 5456   6.051   0.366   5.498  0.7739 -0.7174 -0.3138
  782MOL0     C 5457   5.919   0.344   5.434  0.2741  0.1034 -0.1839
  782MOL0     C 5458   5.836   0.454   5.376 -0.8648 -0.1493  0.6463
  782MOL0     O 5459   5.814   0.547   5.484  0.0136 -0.2659  0.2605
  782MOL0     C 5460   5.683   0.595   5.506 -0.5933 -0.4170 -1.1568
  782MOL0     C 5461   5.672   0.691   5.614 -0.6347 -0.3850 -0.4641
  782MOL0     C 5462   5.555   0.748   5.652 -0.1995 -0.2230  0.4895
  782MOL0     C 5463   5.558   0.851   5.760  0.0960  0.9129 -1.1095
  782MOL0     C 5464   5.441   0.720   5.576 -0.1390 -0.6195 -0.3335
  782MOL0     C 5465   5.314   0.784   5.597 -0.0849  0.0345  0.3389
  782MOL0     O 5466   5.277   0.794   5.722  0.5774 -0.1922 -0.6445
  782MOL0     C 5467   5.155   0.834   5.764 -0.3680 -1.0859  0.1516
  782MOL0     C 5468   5.038   0.801   5.692  0.6425  0.3002  0.4229
  782MOL0     C 5469   4.910   0.828   5.741 -0.4904 -0.5800 -0.0154
  782MOL0     C 5470   4.899   0.915   5.855 -0.0979 -0.7447 -0.3568
  782MOL0     O 5471   4.787   0.969   5.905  0.7618  0.2717  0.4436
  782MOL0     C 5472   4.659   0.960   5.833  0.1477 -0.6332 -0.0418
  782MOL0     C 5473   4.550   0.985   5.935 -0.4618  0.4518 -0.7664
  782MOL0     C 5474   4.419   0.955   5.874 -0.0870 -0.1825 -0.2349
  782MOL0     C 5475   4.311   0.995   5.972 -0.1988  0.4632  0.0912
  782MOL0     C 5476   4.175   0.976   5.903 -0.1939  0.1268 -0.2169
  782MOL0     C 5477   4.057   1.037   5.985 -0.1426 -0.1134  0.1610
  782MOL0     C 5478   3.935   1.038   5.899 -0.0873 -0.2942  0.1935
  782MOL0     C 5479   3.819   1.106   5.963  1.1679  0.2588  0.0253
  782MOL0    Cl 5480   3.705   1.181   5.843 -0.3264 -0.5313 -0.1819
  782MOL0     C 5481   5.016   0.958   5.914  0.0062 -0.8898  0.9040
  782MOL0     C 5482   5.143   0.920   5.866  0.0264 -0.7838 -0.0506
  782MOL0     O 5483   5.253   0.828   5.501  0.2557  0.0638 -0.7923
  782MOL0     C 5484   5.446   0.627   5.470 -0.1806 -0.5851  0.3780
  782MOL0     C 5485   5.574   0.570   5.433  0.4517  0.3736  0.2725
  782MOL0     N 5486   6.245   0.363   5.738 -0.0829 -0.6969 -0.6981
  782MOL0     N 5487   6.377   0.371   5.759  0.8782  0.2542 -0.6906
  782MOL0     C 5488   7.381   0.598   5.964  1.0678 -0.9009  0.8902
  782MOL0     C 5489   7.495   0.629   6.039  0.1135 -0.3683  1.2536
  782MOL0     C 5490   7.789   0.937   6.249  1.3258  0.6125  0.2802
  782MOL0     C 5491   7.915   0.884   6.210 -0.0657 -0.5999  0.2303
  782MOL0     C 5492   8.029   0.927   6.276  0.3107  0.7534  0.5844
  782MOL0     C 5493   8.014   1.019   6.377  0.4282  0.2233 -0.3481
  782MOL0     O 5494   8.124   1.046   6.457  0.4977 -0.0483  0.2276
  782MOL0     C 5495   8.153   1.182   6.485 -0.0975 -0.8071 -0.0433
  782MOL0     C 5496   8.288   1.189   6.559 -0.0234 -0.5384  0.0288
  782MOL0     C 5497   8.359   1.321   6.537 -0.4808  0.1554 -0.6730
  782MOL0     C 5498   8.502   1.339   6.603  0.7866  1.4038  0.5063
  782MOL0     C 5499   8.506   1.340   6.749 -0.5657  0.0019 -0.2118
  782MOL0     C 5500   8.508   1.357   6.870 -0.8192 -0.1002  0.2665
  782MOL0     C 5501   7.889   1.071   6.411 -0.1532  0.2912 -0.4724
  782MOL0     C 5502   7.777   1.037   6.342 -0.7527  0.6941  0.7503
  782MOL0     H 5503   7.598   0.900   5.863 -1.8707  0.3022 -1.3167
  782MOL0     H 5504   7.379   0.850   5.739 -0.9819 -0.2086  0.2324
  782MOL0     H 5505   7.203   0.597   5.581  1.7570 -0.6333 -1.4418
  782MOL0     H 5506   7.374   0.560   5.634  0.9851 -2.2951  0.7556
  782MOL0     H 5507   7.264   0.359   5.593  0.5416  0.4679 -0.7132
  782MOL0     H 5508   7.309   0.382   5.759  0.7010  1.8508  0.0723
  782MOL0     H 5509   7.114   0.328   5.844  0.5647  0.6704  0.4347
  782MOL0     H 5510   7.053   0.473   5.767  2.5908  1.8527 -0.5773
  782MOL0     H 5511   7.043   0.346   5.545 -0.7273  3.0566 -0.1007
  782MOL0     H 5512   7.051   0.200   5.648  0.7451  1.2984 -3.8323
  782MOL0     H 5513   6.840   0.286   5.759  3.2062 -0.4220  0.4480
  782MOL0     H 5514   6.845   0.427   5.647  2.8610  0.0700 -1.5308
  782MOL0     H 5515   6.813   0.273   5.447 -1.9356  0.1790  0.2607
  782MOL0     H 5516   6.797   0.141   5.555  1.7802 -0.3498  1.1631
  782MOL0     H 5517   6.643   0.390   5.537 -0.7185  0.5261  2.0426
  782MOL0     H 5518   6.589   0.229   5.480  2.3795 -2.4675 -0.5857
  782MOL0     H 5519   6.623   0.295   5.770  1.1391  0.9242 -1.3136
  782MOL0     H 5520   6.576   0.136   5.684  1.4754  0.1039 -1.6027
  782MOL0     H 5521   6.359   0.149   5.527  3.4319 -1.5732  2.3938
  782MOL0     H 5522   6.105   0.149   5.541  2.2137 -0.0220  1.9393
  782MOL0     H 5523   6.029   0.238   5.676 -2.0509  0.0982 -1.3202
  782MOL0     H 5524   6.129   0.382   5.423 -0.6983  1.7829 -1.4416
  782MOL0     H 5525   6.045   0.453   5.564 -0.8882 -0.4037 -0.8349
  782MOL0     H 5526   5.854   0.300   5.510 -2.5278 -0.2395 -2.6061
  782MOL0     H 5527   5.935   0.265   5.360 -2.9303 -1.4949  0.6544
  782MOL0     H 5528   5.747   0.404   5.338  0.1343 -1.7187  0.2834
  782MOL0     H 5529   5.896   0.500   5.297 -0.6230  2.7804  2.3944
  782MOL0     H 5530   5.771   0.713   5.652 -0.4143  1.0220 -1.7628
  782MOL0     H 5531   5.654   0.903   5.761  1.0275 -0.4112 -4.5850
  782MOL0     H 5532   5.488   0.932   5.738 -0.4522  1.4248  2.0693
  782MOL0     H 5533   5.547   0.806   5.859  0.8548 -0.5421 -1.6541
  782MOL0     H 5534   5.046   0.739   5.603 -1.3934  2.0027 -1.0346
  782MOL0     H 5535   4.825   0.783   5.691  0.0011  1.6188 -3.1772
  782MOL0     H 5536   4.658   1.028   5.748  1.9561 -1.7699 -1.0343
  782MOL0     H 5537   4.637   0.863   5.787 -3.0745  0.4991 -1.1717
  782MOL0     H 5538   4.567   0.921   6.022  4.5616  2.6268  0.2344
  782MOL0     H 5539   4.556   1.084   5.981  2.9192  0.0190 -0.0145
  782MOL0     H 5540   4.417   0.846   5.859  1.3921 -0.4498  1.1913
  782MOL0     H 5541   4.415   1.013   5.782  2.9743  3.0792  1.4284
  782MOL0     H 5542   4.317   0.946   6.069 -1.2924  0.2971  0.0894
  782MOL0     H 5543   4.339   1.101   5.975 -2.7141  1.1795  0.6771
  782MOL0     H 5544   4.161   0.868   5.887  0.4658 -0.1606  1.0349
  782MOL0     H 5545   4.179   1.033   5.809  0.4344 -1.3182 -1.1084
  782MOL0     H 5546   4.039   0.973   6.072 -1.7761  1.0175  0.6920
  782MOL0     H 5547   4.080   1.139   6.015  0.8137 -0.1413 -0.4383
  782MOL0     H 5548   3.911   0.932   5.885 -1.4370 -0.3654  2.5778
  782MOL0     H 5549   3.965   1.071   5.799  0.0215  1.7389  0.8544
  782MOL0     H 5550   3.851   1.186   6.030 -1.9604  1.9494 -0.3083
  782MOL0     H 5551   3.762   1.028   6.015  0.9097 -0.4659 -1.2797
  782MOL0     H 5552   5.019   1.028   5.997 -0.5082 -0.2675  0.4120
  782MOL0     H 5553   5.227   0.965   5.918 -0.9444  2.4746 -1.0678
  782MOL0     H 5554   5.368   0.607   5.397  0.1361  2.4404 -0.9141
  782MOL0     H 5555   5.573   0.502   5.348 -0.7143  2.9978 -1.9678
  782MOL0     H 5556   7.320   0.512   5.988 -0.8861 -0.2049 -1.2238
  782MOL0     H 5557   7.526   0.580   6.130  3.0574  1.1660  1.2012
  782MOL0     H 5558   7.922   0.807   6.133  2.4024 -1.3392  1.1011
  782MOL0     H 5559   8.127   0.894   6.243 -0.6800 -1.8267 -0.0068
  782MOL0     H 5560   8.179   1.237   6.393  3.0597  2.0357  2.2854
  782MOL0     H 5561   8.077   1.227   6.549  0.4997  1.6730 -0.9562
  782MOL0     H 5562   8.356   1.116   6.513  1.8743  1.1101  0.1073
  782MOL0     H 5563   8.277   1.164   6.665  1.3239 -1.5720 -0.0405
  782MOL0     H 5564   8.291   1.397   6.577 -1.6367 -1.5849  0.8238
  782MOL0     H 5565   8.367   1.343   6.430 -0.9321 -0.4265 -0.8282
  782MOL0     H 5566   8.528   1.438   6.565 -0.2165  0.5733 -2.6997
  782MOL0     H 5567   8.564   1.256   6.568  0.9124  1.7676 -0.1398
  782MOL0     H 5568   8.501   1.368   6.977 -2.6472 -1.8222  0.3794
  782MOL0     H 5569   7.880   1.146   6.489  0.1428  0.3725 -0.5124
  782MOL0     H 5570   7.679   1.080   6.360 -0.8118  1.2380 -0.7103
  783MOL0     O 5571   7.256   2.176  10.654 -0.3136 -0.6959  0.0765
  783MOL0     C 5572   7.228   2.239  10.554 -0.1018 -0.0238 -0.0664
  783MOL0     O 5573   7.103   2.275  10.515  0.4383  0.5313 -0.0354
  783MOL0     C 5574   7.000   2.194  10.555  0.5517 -0.2082 -0.2665
  783MOL0     C 5575   6.885   2.240  10.621 -0.2285 -0.1269  0.3958
  783MOL0     C 5576   6.780   2.149  10.639  0.2555  0.1683  0.5304
  783MOL0     C 5577   6.788   2.014  10.593 -0.5191  0.0624  0.3268
  783MOL0     O 5578   6.675   1.940  10.614  0.4827  0.1924  0.3576
  783MOL0     C 5579   6.635   1.849  10.511 -0.3079 -0.5520 -0.6503
  783MOL0     C 5580   6.481   1.872  10.516  0.2096  0.3947  0.3196
  783MOL0     C 5581   6.424   1.782  10.398 -0.3400 -0.9783  0.1476
  783MOL0     C 5582   6.283   1.731  10.427  0.7604  0.0306 -0.1276
  783MOL0     C 5583   6.184   1.854  10.422 -0.1896  0.6029  0.1337
  783MOL0     C 5584   6.050   1.831  10.480 -0.0121  1.3218 -0.0237
  783MOL0     C 5585   5.973   1.962  10.488 -0.1414  0.1600  0.0238
  783MOL0     C 5586   5.840   1.961  10.571 -0.9424  0.1960  0.2463
  783MOL0     N 5587   5.743   1.880  10.509  0.4393  0.4131  0.3168
  783MOL0     C 5588   5.723   1.748  10.529 -0.6370  0.0558  1.0094
  783MOL0     C 5589   5.636   1.711  10.441 -0.1975  0.2244  0.2451
  783MOL0     C 5590   5.576   1.571  10.426  0.6639  0.6098  0.0160
  783MOL0     C 5591   5.474   1.555  10.535  0.0327 -0.1199  0.1913
  783MOL0     C 5592   5.396   1.422  10.531 -0.4495 -0.2916 -0.2095
  783MOL0     C 5593   5.270   1.403  10.616 -0.2689 -0.4457 -0.1221
  783MOL0     O 5594   5.193   1.286  10.578 -0.2550 -0.6792  0.7712
  783MOL0     C 5595   5.070   1.291  10.629  0.8501 -0.0019  0.4821
  783MOL0     C 5596   4.978   1.214  10.564 -0.1636 -0.2875 -0.2522
  783MOL0     C 5597   4.847   1.205  10.613  0.3548 -0.4255  0.0143
  783MOL0     C 5598   4.740   1.130  10.532  0.5110 -0.2788  0.1888
  783MOL0     C 5599   4.804   1.267  10.736  0.0892  0.6008 -0.3684
  783MOL0     C 5600   4.660   1.274  10.775 -0.5479 -0.7928 -0.2567
  783MOL0     O 5601   4.610   1.170  10.852 -0.2685 -0.7464 -0.2259
  783MOL0     C 5602   4.480   1.163  10.896 -0.6056  0.2486 -0.9177
  783MOL0     C 5603   4.457   1.143  11.033 -0.4502 -0.2999 -0.4649
  783MOL0     C 5604   4.328   1.134  11.077  0.6966 -0.7332  0.0910
  783MOL0     C 5605   4.215   1.152  10.998 -0.0938 -0.4125 -0.7516
  783MOL0     O 5606   4.091   1.147  11.058 -0.6367 -0.2848  0.0281
  783MOL0     C 5607   4.060   1.188  11.193  0.7260 -0.6460  0.9878
  783MOL0     C 5608   3.911   1.180  11.225 -0.7457 -0.0782 -0.1859
  783MOL0     C 5609   3.822   1.241  11.125 -0.1516 -0.0386 -0.1686
  783MOL0     C 5610   3.676   1.200  11.135 -0.6000 -0.3323 -0.2797
  783MOL0     C 5611   3.598   1.249  11.021  0.4044 -0.1298 -0.5126
  783MOL0     C 5612   3.447   1.228  11.024 -0.6678 -0.0726 -0.7663
  783MOL0     C 5613   3.368   1.283  10.898  0.3108 -1.1109 -0.1832
  783MOL0     C 5614   3.219   1.319  10.929 -0.1203 -1.4850 -0.7282
  783MOL0    Cl 5615   3.175   1.414  10.779 -0.3337 -0.3710  0.0227
  783MOL0     C 5616   4.232   1.163  10.865  0.6209 -0.1041  0.8130
  783MOL0     C 5617   4.363   1.173  10.816 -0.0826  0.0008 -0.1814
  783MOL0     O 5618   4.598   1.373  10.736 -0.3095 -0.0754  0.3564
  783MOL0     C 5619   4.903   1.346  10.798 -0.1589  0.4147  0.6680
  783MOL0     C 5620   5.033   1.360  10.751 -0.4719  0.8839  0.0605
  783MOL0     N 5621   5.595   1.823  10.377  0.3316  1.1562  0.1777
  783MOL0     N 5622   5.667   1.933  10.413 -0.2201  1.0682  0.5429
  783MOL0     C 5623   6.904   1.970  10.535 -0.4468  0.5579  0.6654
  783MOL0     C 5624   7.011   2.058  10.518  0.7359 -0.0148 -0.1406
  783MOL0     C 5625   7.348   2.281  10.473  0.3870  0.0273 -0.7998
  783MOL0     C 5626   7.476   2.264  10.525 -0.0660 -0.0415 -0.0682
  783MOL0     C 5627   7.593   2.315  10.462  0.5796  0.8331 -0.1140
  783MOL0     C 5628   7.575   2.369  10.338  0.4009  0.2982  0.0619
  783MOL0     O 5629   7.678   2.388  10.251 -0.2278  0.1599 -0.9359
  783MOL0     C 5630   7.652   2.405  10.105 -0.4863 -0.2008  0.0459
  783MOL0     C 5631   7.773   2.364  10.025 -0.1545 -0.3073  0.9059
  783MOL0     C 5632   7.912   2.436  10.055  0.3444  1.1121 -0.0734
  783MOL0     C 5633   7.934   2.549   9.955 -0.2735 -0.0524 -0.1319
  783MOL0     C 5634   7.841   2.652  10.004  0.4360 -0.0552 -0.3160
  783MOL0     C 5635   7.759   2.735  10.030 -0.0543 -0.6512 -0.3420
  783MOL0     C 5636   7.448   2.404  10.292  0.3543 -0.2437  0.8917
  783MOL0     C 5637   7.336   2.352  10.353  0.1451  0.0379  0.3145
  783MOL0     H 5638   6.877   2.348  10.624  1.1504 -0.0098  0.4324
  783MOL0     H 5639   6.688   2.175  10.691 -0.6701  1.1376 -1.4391
  783MOL0     H 5640   6.676   1.881  10.414  2.6176 -2.5813 -0.2279
  783MOL0     H 5641   6.670   1.747  10.530 -1.5082 -0.7273  0.7073
  783MOL0     H 5642   6.434   1.825  10.603  1.2770 -3.0034 -0.7741
  783MOL0     H 5643   6.460   1.978  10.504  0.5178  0.5183  0.8217
  783MOL0     H 5644   6.442   1.844  10.309  1.7781 -1.0427  0.4720
  783MOL0     H 5645   6.486   1.693  10.385  0.1499 -0.4321 -1.4476
  783MOL0     H 5646   6.256   1.654  10.354 -2.4298 -1.0612  1.9708
  783MOL0     H 5647   6.282   1.688  10.527  0.5593 -0.1255 -0.1966
  783MOL0     H 5648   6.234   1.934  10.477 -0.7606 -0.0897  1.7078
  783MOL0     H 5649   6.176   1.886  10.317 -2.8553 -0.5016 -0.0836
  783MOL0     H 5650   6.002   1.767  10.405  1.3155  1.9953 -1.4963
  783MOL0     H 5651   6.069   1.781  10.575  1.2137  1.2813 -0.2811
  783MOL0     H 5652   6.044   2.026  10.543 -1.6856  1.0413  1.0680
  783MOL0     H 5653   5.967   2.010  10.390  1.2811  0.6962  0.1729
  783MOL0     H 5654   5.792   2.058  10.583 -0.5008  0.2332  1.9216
  783MOL0     H 5655   5.860   1.921  10.671  0.4621  0.9506  0.3024
  783MOL0     H 5656   5.774   1.692  10.607  2.0104  0.7233 -0.1068
  783MOL0     H 5657   5.528   1.563  10.329  0.3466  1.2555  0.1108
  783MOL0     H 5658   5.651   1.492  10.427 -0.1340 -0.1798  1.8616
  783MOL0     H 5659   5.392   1.627  10.543 -1.2663 -1.6666  1.7338
  783MOL0     H 5660   5.534   1.559  10.626  3.0181  1.5555 -1.6701
  783MOL0     H 5661   5.460   1.339  10.561  0.0736  0.4919  0.9189
  783MOL0     H 5662   5.357   1.399  10.431  3.3258 -4.1204 -1.1251
  783MOL0     H 5663   5.209   1.490  10.590 -0.9075 -0.5905  0.8568
  783MOL0     H 5664   5.303   1.398  10.721 -1.2046 -2.2196  0.1178
  783MOL0     H 5665   5.000   1.163  10.471 -1.6884 -0.9127 -0.3022
  783MOL0     H 5666   4.781   1.062  10.457  3.3949  1.3357  0.1441
  783MOL0     H 5667   4.693   1.063  10.604 -0.1357 -0.4466 -0.3728
  783MOL0     H 5668   4.666   1.197  10.486  0.2244 -1.8365 -1.7559
  783MOL0     H 5669   4.537   1.134  11.105 -0.5264 -1.5483 -0.5128
  783MOL0     H 5670   4.327   1.123  11.185  0.0972  1.5078  0.3692
  783MOL0     H 5671   4.118   1.138  11.271  0.6279 -1.4800  0.5343
  783MOL0     H 5672   4.085   1.294  11.209  1.7678 -0.9809  1.6740
  783MOL0     H 5673   3.883   1.079  11.256 -3.7276  0.4747 -0.6792
  783MOL0     H 5674   3.895   1.234  11.319 -1.3553 -3.3349  1.7335
  783MOL0     H 5675   3.858   1.229  11.022 -0.6629 -0.6069 -0.2876
  783MOL0     H 5676   3.816   1.347  11.150 -1.0531  0.1158 -0.9767
  783MOL0     H 5677   3.661   1.091  11.129  0.9800 -0.4956 -1.8686
  783MOL0     H 5678   3.651   1.226  11.239  2.1827 -0.7239  0.5683
  783MOL0     H 5679   3.630   1.188  10.937  0.5674  0.1259 -0.6352
  783MOL0     H 5680   3.619   1.355  11.003 -0.9631  0.1763 -0.4386
  783MOL0     H 5681   3.435   1.120  11.025  3.0838 -0.6250  0.1553
  783MOL0     H 5682   3.402   1.268  11.115 -1.1664 -2.2851  0.0061
  783MOL0     H 5683   3.379   1.219  10.810 -1.0912 -1.7951  0.1129
  783MOL0     H 5684   3.403   1.385  10.877 -5.3334  1.1696 -0.4641
  783MOL0     H 5685   3.217   1.369  11.026  1.4519  0.1587 -1.4900
  783MOL0     H 5686   3.152   1.233  10.940 -2.5942  0.5035  0.6046
  783MOL0     H 5687   4.145   1.172  10.801 -1.2824 -1.2141  3.0872
  783MOL0     H 5688   4.384   1.177  10.709  0.5242 -2.6661 -0.2263
  783MOL0     H 5689   4.869   1.401  10.885  0.5268  1.8373  0.0581
  783MOL0     H 5690   5.101   1.424  10.807  0.9785 -1.8294  1.6095
  783MOL0     H 5691   6.914   1.870  10.494  1.3675  1.1724 -0.4696
  783MOL0     H 5692   7.102   2.031  10.466  0.4857 -0.3895 -0.3829
  783MOL0     H 5693   7.497   2.237  10.628  2.4870  1.5051 -0.1158
  783MOL0     H 5694   7.690   2.310  10.510 -0.6504 -1.3000  2.4171
  783MOL0     H 5695   7.564   2.350  10.069  0.4751  0.1735 -3.2391
  783MOL0     H 5696   7.630   2.511  10.086  0.6105  0.2303  1.1017
  783MOL0     H 5697   7.754   2.356   9.917  0.4876 -1.7155  0.8763
  783MOL0     H 5698   7.786   2.259  10.050 -0.4277 -0.8576 -1.0520
  783MOL0     H 5699   8.002   2.374  10.061  0.1513  0.8227 -0.1321
  783MOL0     H 5700   7.902   2.475  10.157  2.0271  0.2694  0.4455
  783MOL0     H 5701   7.900   2.522   9.855 -1.8012 -0.6267  0.5175
  783MOL0     H 5702   8.037   2.586   9.953 -1.1586  2.6046 -1.1355
  783MOL0     H 5703   7.697   2.819  10.050 -1.6672 -2.0467  0.7876
  783MOL0     H 5704   7.431   2.461  10.201  2.6608  0.3583  0.7806
  783MOL0     H 5705   7.245   2.361  10.293  0.1177  0.5352  0.4267
  784MOL0     O 5706   2.252   7.726   2.087  0.0751  0.0383  0.0375
  784MOL0     C 5707   2.293   7.620   2.044 -0.5429  0.2776  0.0259
  784MOL0     O 5708   2.250   7.558   1.930 -0.2246  0.4923  0.3441
  784MOL0     C 5709   2.130   7.604   1.882  0.0993  0.1900 -0.0695
  784MOL0     C 5710   2.011   7.594   1.954  0.0168  0.0369  0.6070
  784MOL0     C 5711   1.891   7.634   1.900 -0.1426  0.4488 -0.3143
  784MOL0     C 5712   1.882   7.683   1.764  0.3883  0.5637 -0.2741
  784MOL0     O 5713   1.758   7.707   1.698  0.2727 -0.4918  0.6167
  784MOL0     C 5714   1.632   7.674   1.756 -0.8614  1.0599  0.2750
  784MOL0     C 5715   1.504   7.721   1.679 -0.2733 -0.2732 -0.4335
  784MOL0     C 5716   1.379   7.695   1.760  1.0662 -0.0839 -0.2698
  784MOL0     C 5717   1.257   7.756   1.681  0.3418  0.3442  0.2573
  784MOL0     C 5718   1.118   7.715   1.742  0.0658 -0.1187 -0.1960
  784MOL0     C 5719   0.999   7.766   1.649 -0.7135 -0.1035 -0.0257
  784MOL0     C 5720   0.868   7.719   1.680  1.1007 -0.5384 -0.2535
  784MOL0     C 5721   0.759   7.771   1.576  0.2122  0.7470 -0.3964
  784MOL0     N 5722   0.708   7.904   1.606  0.4633  0.4083  0.0192
  784MOL0     C 5723   0.614   7.938   1.703 -0.1747  0.5821 -0.7451
  784MOL0     C 5724   0.578   8.069   1.686 -0.4753  0.2645 -0.3690
  784MOL0     C 5725   0.466   8.142   1.752 -0.8608 -0.2681  0.3412
  784MOL0     C 5726   0.337   8.087   1.696  0.0874 -0.1846  0.3783
  784MOL0     C 5727   0.323   8.131   1.546 -0.7824 -0.2869 -0.8273
  784MOL0     C 5728   0.173   8.136   1.505  0.0538  0.6169 -0.1099
  784MOL0     O 5729   0.161   8.151   1.365  0.2819 -0.2543  0.0760
  784MOL0     C 5730   0.041   8.198   1.322 -0.5998  0.4039  0.0203
  784MOL0     C 5731   0.048   8.319   1.254  0.2542 -0.4248  0.9228
  784MOL0     C 5732  -0.064   8.371   1.191  1.1966 -0.1500 -0.2005
  784MOL0     C 5733  -0.060   8.507   1.127  0.5859  0.5624  0.5567
  784MOL0     C 5734  -0.193   8.306   1.199  0.1280  0.0957  0.9123
  784MOL0     C 5735  -0.329   8.350   1.136 -0.3467 -0.5814 -0.1483
  784MOL0     O 5736  -0.448   8.283   1.173 -0.2956 -0.4836 -0.1125
  784MOL0     C 5737  -0.568   8.314   1.108 -0.8160 -0.2282  0.4081
  784MOL0     C 5738  -0.590   8.309   0.968  0.3976 -0.0400 -0.9663
  784MOL0     C 5739  -0.712   8.347   0.910 -0.7072  0.4543  0.3340
  784MOL0     C 5740  -0.817   8.400   0.988 -0.3750 -0.2143  0.6206
  784MOL0     O 5741  -0.940   8.435   0.940  0.3948 -0.2050 -0.2269
  784MOL0     C 5742  -0.961   8.463   0.803  0.1435  0.1056 -0.5423
  784MOL0     C 5743  -1.105   8.478   0.754 -0.2763  0.2513 -0.2122
  784MOL0     C 5744  -1.161   8.331   0.761 -0.0541  1.0822  0.1356
  784MOL0     C 5745  -1.306   8.338   0.701  0.0213  0.1276 -0.0416
  784MOL0     C 5746  -1.357   8.197   0.695  0.7456  0.4122  1.3820
  784MOL0     C 5747  -1.495   8.184   0.637 -0.1263  0.2261 -0.0611
  784MOL0     C 5748  -1.531   8.039   0.642  0.5468  0.0426  0.0877
  784MOL0     C 5749  -1.687   8.029   0.632  0.7186  0.1501 -1.0036
  784MOL0    Cl 5750  -1.749   7.864   0.663 -0.2908  0.0562  0.1782
  784MOL0     C 5751  -0.794   8.413   1.124  0.4748 -0.3303 -0.6983
  784MOL0     C 5752  -0.672   8.360   1.181  1.1748  0.7001 -0.1990
  784MOL0     O 5753  -0.325   8.439   1.053  0.6326  0.2490  0.0244
  784MOL0     C 5754  -0.194   8.184   1.271 -0.5932  0.4324 -1.2843
  784MOL0     C 5755  -0.077   8.133   1.334  0.8526  0.1601 -0.2169
  784MOL0     N 5756   0.649   8.103   1.570 -0.6957  0.8876 -0.4748
  784MOL0     N 5757   0.736   8.014   1.536 -0.9859 -0.0221  0.9702
  784MOL0     C 5758   2.001   7.714   1.700  0.3178  0.7201 -0.5148
  784MOL0     C 5759   2.125   7.671   1.758  1.4257  0.0031  0.0526
  784MOL0     C 5760   2.407   7.550   2.117  0.0703 -0.1739  0.1551
  784MOL0     C 5761   2.444   7.569   2.249 -0.3687 -0.8046 -0.6702
  784MOL0     C 5762   2.539   7.503   2.318 -0.2931  0.2452  0.1522
  784MOL0     C 5763   2.619   7.401   2.256 -0.1199 -0.2014  0.0805
  784MOL0     O 5764   2.720   7.331   2.308 -0.4545 -0.8546  0.4736
  784MOL0     C 5765   2.750   7.329   2.447  0.4112 -0.2473  0.6667
  784MOL0     C 5766   2.869   7.227   2.470 -0.2632  0.0615  0.3965
  784MOL0     C 5767   2.881   7.111   2.375  0.6263  0.4018 -0.1117
  784MOL0     C 5768   2.996   7.020   2.423 -0.5770  0.6416  0.0443
  784MOL0     C 5769   3.012   6.899   2.353 -1.7385  0.4525  0.6997
  784MOL0     C 5770   3.029   6.802   2.284 -0.1490 -0.1356  0.9629
  784MOL0     C 5771   2.585   7.370   2.124 -0.4102  0.2656 -0.1334
  784MOL0     C 5772   2.480   7.438   2.055  1.1795 -0.5182  0.0447
  784MOL0     H 5773   2.009   7.569   2.060 -1.2053  1.5947  0.9908
  784MOL0     H 5774   1.800   7.630   1.960  0.7250  4.6762  1.6291
  784MOL0     H 5775   1.624   7.565   1.742 -1.5706  1.3720 -2.1234
  784MOL0     H 5776   1.630   7.710   1.859  0.4692  4.7739 -0.8345
  784MOL0     H 5777   1.524   7.829   1.677  3.1517 -0.6474  2.8109
  784MOL0     H 5778   1.489   7.676   1.581 -2.0616 -1.0280  0.1583
  784MOL0     H 5779   1.358   7.589   1.773 -0.7761 -0.2155 -3.2795
  784MOL0     H 5780   1.386   7.742   1.858  1.4073  0.8803 -0.7350
  784MOL0     H 5781   1.283   7.861   1.690  1.0868  0.1348  0.6210
  784MOL0     H 5782   1.250   7.737   1.573 -2.2264  0.5542  0.3232
  784MOL0     H 5783   1.103   7.608   1.760 -0.1031  0.0675  0.8465
  784MOL0     H 5784   1.111   7.752   1.845  2.6647 -1.6118  0.6083
  784MOL0     H 5785   1.001   7.876   1.645  3.3103 -0.0540  0.0119
  784MOL0     H 5786   1.020   7.739   1.545  0.8310  3.1928 -0.7077
  784MOL0     H 5787   0.868   7.610   1.675 -1.2977 -0.6645  0.7653
  784MOL0     H 5788   0.843   7.742   1.784 -1.0592 -1.6600 -0.4662
  784MOL0     H 5789   0.667   7.711   1.578 -1.0357  2.4712 -2.4220
  784MOL0     H 5790   0.801   7.761   1.476 -0.7177  0.6540 -0.7883
  784MOL0     H 5791   0.589   7.863   1.779 -0.9094 -0.0514 -1.5893
  784MOL0     H 5792   0.459   8.126   1.861  1.0131 -0.4326  0.4723
  784MOL0     H 5793   0.466   8.248   1.725  1.2332 -0.1608  0.5457
  784MOL0     H 5794   0.248   8.133   1.740  0.8673  0.1236  1.6746
  784MOL0     H 5795   0.340   7.978   1.709 -0.4402 -0.2157  0.2865
  784MOL0     H 5796   0.383   8.061   1.486 -1.3998 -2.3362  0.8238
  784MOL0     H 5797   0.361   8.233   1.530  0.2951 -0.7838 -1.6009
  784MOL0     H 5798   0.108   8.208   1.555 -2.0313 -0.2599 -1.4265
  784MOL0     H 5799   0.120   8.041   1.519 -0.0905  0.4960 -1.3950
  784MOL0     H 5800   0.134   8.385   1.255 -0.6684  0.8205  2.4777
  784MOL0     H 5801   0.035   8.559   1.141  0.1377  1.9505 -1.1632
  784MOL0     H 5802  -0.090   8.504   1.022 -0.4574 -0.7974  0.8679
  784MOL0     H 5803  -0.139   8.563   1.179 -0.0566 -1.3464  1.7528
  784MOL0     H 5804  -0.506   8.288   0.903  1.2821  3.7520 -1.2451
  784MOL0     H 5805  -0.709   8.334   0.803 -0.4409  2.4961  0.0549
  784MOL0     H 5806  -0.904   8.554   0.781 -1.9116  2.0797  1.6621
  784MOL0     H 5807  -0.920   8.379   0.746 -2.7858 -1.7771 -0.0605
  784MOL0     H 5808  -1.170   8.546   0.810  0.9896  2.8422 -1.7129
  784MOL0     H 5809  -1.101   8.507   0.648 -1.1536 -0.1709 -0.3740
  784MOL0     H 5810  -1.168   8.304   0.867 -1.1858  3.4293  0.7311
  784MOL0     H 5811  -1.117   8.259   0.692  1.8309  1.0908  1.2916
  784MOL0     H 5812  -1.372   8.397   0.765 -0.2734  0.0984 -0.3132
  784MOL0     H 5813  -1.303   8.396   0.608  0.4857  0.3967  0.1391
  784MOL0     H 5814  -1.359   8.150   0.794  2.0342  1.2858  1.8517
  784MOL0     H 5815  -1.293   8.136   0.630  3.0392  3.3278  0.6841
  784MOL0     H 5816  -1.566   8.235   0.703 -1.0815 -3.5968  2.1670
  784MOL0     H 5817  -1.505   8.225   0.536  1.6105  2.1751  0.4817
  784MOL0     H 5818  -1.494   7.992   0.733  0.9108 -0.3031 -0.2365
  784MOL0     H 5819  -1.489   7.978   0.562  2.5378 -0.1749  1.2447
  784MOL0     H 5820  -1.738   8.086   0.553 -2.4015  2.5816  2.4282
  784MOL0     H 5821  -1.722   8.086   0.718  2.1562 -0.2781 -0.1108
  784MOL0     H 5822  -0.867   8.460   1.189 -1.0755 -3.6522  0.1758
  784MOL0     H 5823  -0.679   8.376   1.288 -0.6678  2.9184 -0.5596
  784MOL0     H 5824  -0.288   8.130   1.278 -0.2472  0.0113  3.2167
  784MOL0     H 5825  -0.095   8.049   1.400 -1.9701  0.4729 -0.4678
  784MOL0     H 5826   1.993   7.764   1.604  1.2269  2.9578  0.5058
  784MOL0     H 5827   2.216   7.683   1.701  0.2289 -1.9246 -2.4497
  784MOL0     H 5828   2.394   7.648   2.305 -0.8697 -1.4372 -0.2149
  784MOL0     H 5829   2.556   7.525   2.423 -1.3718 -3.0058  1.1244
  784MOL0     H 5830   2.780   7.426   2.487  0.2023  0.0200  0.1861
  784MOL0     H 5831   2.659   7.297   2.497 -0.9610 -0.2386 -1.6643
  784MOL0     H 5832   2.858   7.210   2.577  0.0928 -0.1470  0.3995
  784MOL0     H 5833   2.966   7.276   2.453  0.1954 -1.3299 -1.2600
  784MOL0     H 5834   2.883   7.133   2.268 -0.7333 -1.6995 -0.6545
  784MOL0     H 5835   2.789   7.052   2.382  0.4323  0.6636 -0.4492
  784MOL0     H 5836   2.981   6.985   2.525  0.4370 -1.5522 -0.4970
  784MOL0     H 5837   3.089   7.076   2.408  0.7960 -1.7164 -0.8949
  784MOL0     H 5838   3.049   6.728   2.210  1.5180 -0.1112  1.3343
  784MOL0     H 5839   2.644   7.286   2.087  0.0791 -0.3897  2.0201
  784MOL0     H 5840   2.456   7.410   1.953  2.2736  0.6747 -0.5550
  785MOL0     O 5841   5.193  11.294   0.197 -0.5588 -0.0927  0.3041
  785MOL0     C 5842   5.239  11.357   0.094  0.7221 -0.5847  0.6537
  785MOL0     O 5843   5.174  11.380  -0.027  0.0862  0.2208 -0.4292
  785MOL0     C 5844   5.070  11.304  -0.045 -0.2616 -0.0499 -0.2811
  785MOL0     C 5845   4.950  11.369  -0.055  0.3226 -0.0743  1.2439
  785MOL0     C 5846   4.834  11.286  -0.064  1.1173  0.4548  0.3305
  785MOL0     C 5847   4.833  11.151  -0.050 -0.2843  0.1257  0.0685
  785MOL0     O 5848   4.714  11.090  -0.069  0.5489  0.3203  0.0237
  785MOL0     C 5849   4.705  10.945  -0.042 -0.3501  0.1647 -0.0263
  785MOL0     C 5850   4.569  10.877  -0.092  0.1056 -0.2780 -0.4928
  785MOL0     C 5851   4.552  10.883  -0.243 -0.9212 -0.6667  0.3306
  785MOL0     C 5852   4.430  10.796  -0.278 -0.0570  0.5611  0.3458
  785MOL0     C 5853   4.391  10.790  -0.429 -0.4941 -0.3663  0.0120
  785MOL0     C 5854   4.315  10.917  -0.478 -0.8117  0.1711 -0.3664
  785MOL0     C 5855   4.169  10.887  -0.449  0.1937 -0.3407  0.6768
  785MOL0     C 5856   4.071  11.008  -0.469 -0.0177 -0.2156  0.1383
  785MOL0     N 5857   3.934  10.987  -0.421  0.2254 -0.4024  0.3645
  785MOL0     C 5858   3.887  11.002  -0.287  0.1298 -0.1511  0.4539
  785MOL0     C 5859   3.760  10.960  -0.287  0.4974  0.4386 -0.1286
  785MOL0     C 5860   3.674  10.956  -0.166 -0.0568 -0.2982  0.5731
  785MOL0     C 5861   3.597  10.832  -0.157  0.6976 -0.7114  0.3374
  785MOL0     C 5862   3.522  10.829  -0.017 -0.1941 -0.5161 -0.2098
  785MOL0     C 5863   3.451  10.697  -0.001 -0.5033 -0.8892  0.8632
  785MOL0     O 5864   3.372  10.663  -0.111 -0.1037 -0.0451 -0.2568
  785MOL0     C 5865   3.243  10.703  -0.121 -0.9980 -0.3987 -0.3676
  785MOL0     C 5866   3.147  10.651  -0.221  0.0510  0.0372 -0.4590
  785MOL0     C 5867   3.020  10.707  -0.238  0.8151 -0.2744 -1.1428
  785MOL0     C 5868   2.937  10.651  -0.345 -0.4976 -0.2666 -0.0444
  785MOL0     C 5869   2.978  10.806  -0.145 -0.7553  0.1529  0.8302
  785MOL0     C 5870   2.857  10.883  -0.159 -0.5939  0.2094  0.7092
  785MOL0     O 5871   2.813  10.917  -0.291 -0.9565 -0.3641  0.2806
  785MOL0     C 5872   2.689  10.967  -0.305  0.2037 -0.2263 -0.7803
  785MOL0     C 5873   2.679  11.103  -0.257  0.4662 -0.9719 -0.3154
  785MOL0     C 5874   2.552  11.163  -0.265  0.1161 -0.2965  0.0241
  785MOL0     C 5875   2.438  11.099  -0.319  0.8326  0.0345 -0.1683
  785MOL0     O 5876   2.334  11.191  -0.347  0.4901 -0.0851  0.1954
  785MOL0     C 5877   2.233  11.143  -0.436 -0.7621  0.2199  0.9090
  785MOL0     C 5878   2.148  11.248  -0.491 -0.1688 -0.3763  0.1384
  785MOL0     C 5879   2.079  11.209  -0.624  0.0788  0.0285  0.0233
  785MOL0     C 5880   2.006  11.330  -0.678 -1.3440 -0.0558  0.3588
  785MOL0     C 5881   1.939  11.308  -0.821 -0.0165  0.0969 -0.0281
  785MOL0     C 5882   1.792  11.261  -0.808  0.4403  0.4455  0.5334
  785MOL0     C 5883   1.713  11.279  -0.944 -1.3018 -0.2513 -0.1147
  785MOL0     C 5884   1.561  11.256  -0.923 -1.2879 -1.2329  0.5723
  785MOL0    Cl 5885   1.491  11.391  -0.823  0.5663 -0.0954  0.3043
  785MOL0     C 5886   2.447  10.966  -0.353  0.7371  1.7496  0.1108
  785MOL0     C 5887   2.566  10.897  -0.327 -0.4079 -0.3835  0.1009
  785MOL0     O 5888   2.811  10.927  -0.057  0.9216  0.2330 -0.2941
  785MOL0     C 5889   3.069  10.857  -0.046  0.0311 -0.3602 -0.2468
  785MOL0     C 5890   3.193  10.795  -0.032  0.0139 -0.6619  0.4588
  785MOL0     N 5891   3.723  10.930  -0.416  0.3773  0.5808 -0.4592
  785MOL0     N 5892   3.827  10.940  -0.490 -0.2171  0.9267  0.0279
  785MOL0     C 5893   4.958  11.090  -0.034  0.5611 -1.0457 -0.6966
  785MOL0     C 5894   5.076  11.165  -0.030  0.3799 -0.4660  0.1510
  785MOL0     C 5895   5.343  11.451   0.136 -0.2270 -0.8902 -0.2130
  785MOL0     C 5896   5.350  11.578   0.072  0.6861 -0.8173 -0.1976
  785MOL0     C 5897   5.458  11.665   0.110 -0.6607  1.3210  0.4975
  785MOL0     C 5898   5.554  11.628   0.211  0.1083  0.1530  0.3833
  785MOL0     O 5899   5.652  11.725   0.216 -0.1458  0.1641 -0.2408
  785MOL0     C 5900   5.773  11.706   0.297  0.6964 -0.4358  0.5279
  785MOL0     C 5901   5.895  11.781   0.244  0.7344 -0.0592 -0.0514
  785MOL0     C 5902   5.860  11.928   0.206 -0.2599  0.4929  0.6164
  785MOL0     C 5903   5.982  12.017   0.231  0.1317  0.3220 -1.3071
  785MOL0     C 5904   6.111  11.963   0.183  0.3128 -0.0925  0.3689
  785MOL0     C 5905   6.202  11.895   0.137 -1.2709 -0.0905 -0.3596
  785MOL0     C 5906   5.539  11.510   0.283 -0.7401 -0.1614 -0.2856
  785MOL0     C 5907   5.430  11.428   0.249 -0.0388  0.4795 -0.6533
  785MOL0     H 5908   4.949  11.477  -0.069  1.5940 -0.0335  1.3889
  785MOL0     H 5909   4.734  11.327  -0.077  1.4383  1.3436  0.6261
  785MOL0     H 5910   4.783  10.893  -0.099  0.9528  3.2745 -1.2888
  785MOL0     H 5911   4.723  10.917   0.062  0.7735 -0.4667 -0.3780
  785MOL0     H 5912   4.564  10.772  -0.060 -1.5936 -0.1700 -0.3558
  785MOL0     H 5913   4.482  10.924  -0.045 -0.9506 -2.1340 -0.4944
  785MOL0     H 5914   4.543  10.988  -0.273 -0.4934 -0.1612  1.8732
  785MOL0     H 5915   4.643  10.836  -0.282 -0.4594 -1.5984  2.4326
  785MOL0     H 5916   4.434  10.693  -0.242 -1.9455  0.0620 -0.7394
  785MOL0     H 5917   4.358  10.843  -0.210  0.2631  0.9667  0.4094
  785MOL0     H 5918   4.487  10.773  -0.478  1.1020 -1.2956  3.1849
  785MOL0     H 5919   4.327  10.703  -0.448  0.5029 -0.5732 -2.8914
  785MOL0     H 5920   4.361  11.000  -0.425  2.1732 -0.0713 -2.3714
  785MOL0     H 5921   4.328  10.930  -0.585 -1.6361 -2.1889 -0.8091
  785MOL0     H 5922   4.145  10.801  -0.513 -0.8265  0.2810  0.1941
  785MOL0     H 5923   4.162  10.860  -0.343 -0.4396  0.2581  0.7925
  785MOL0     H 5924   4.058  11.026  -0.576 -1.1186 -1.8017 -0.0240
  785MOL0     H 5925   4.121  11.095  -0.427  0.1662 -0.9306  1.4644
  785MOL0     H 5926   3.959  11.019  -0.207  0.7266 -1.0993  0.1418
  785MOL0     H 5927   3.744  10.963  -0.082  0.2946 -1.4786  0.4014
  785MOL0     H 5928   3.602  11.036  -0.149 -0.2269 -0.8764  2.7690
  785MOL0     H 5929   3.660  10.743  -0.156  2.2380  0.3438  1.2614
  785MOL0     H 5930   3.518  10.826  -0.233  1.0833  0.0462 -0.1329
  785MOL0     H 5931   3.452  10.913  -0.011 -0.8358 -0.9412 -1.3635
  785MOL0     H 5932   3.597  10.837   0.062 -0.4857 -2.8391  0.3616
  785MOL0     H 5933   3.398  10.683   0.094 -1.9858 -0.6473  0.1067
  785MOL0     H 5934   3.518  10.611  -0.005 -0.0859 -0.5261 -0.3678
  785MOL0     H 5935   3.192  10.581  -0.290 -1.5633 -1.9511  0.3940
  785MOL0     H 5936   2.864  10.579  -0.307 -1.3135  0.7536  0.3482
  785MOL0     H 5937   2.882  10.733  -0.392  2.1842  2.9644  1.9700
  785MOL0     H 5938   2.989  10.603  -0.429  1.1535 -2.3571  2.0428
  785MOL0     H 5939   2.767  11.157  -0.224  0.8057 -0.3804 -2.0611
  785MOL0     H 5940   2.541  11.264  -0.227  1.0458 -1.4863  3.8534
  785MOL0     H 5941   2.286  11.095  -0.519 -1.0360  2.3403 -0.5739
  785MOL0     H 5942   2.170  11.071  -0.382 -0.4940 -1.7155 -1.2291
  785MOL0     H 5943   2.078  11.277  -0.412  2.0742 -2.5279  3.1621
  785MOL0     H 5944   2.218  11.328  -0.517  2.1164 -1.7991  1.5326
  785MOL0     H 5945   2.019  11.119  -0.609 -2.2700  1.4329 -0.5160
  785MOL0     H 5946   2.163  11.189  -0.692  0.6778  3.0167 -0.2889
  785MOL0     H 5947   1.929  11.367  -0.610 -0.7815  3.9374 -0.9380
  785MOL0     H 5948   2.083  11.406  -0.684  0.7284 -1.7111  3.4547
  785MOL0     H 5949   2.002  11.241  -0.880  3.7449  1.3892  2.1685
  785MOL0     H 5950   1.945  11.402  -0.877  0.5123  0.4510  0.6070
  785MOL0     H 5951   1.790  11.155  -0.780  2.1643  0.4060  0.6158
  785MOL0     H 5952   1.743  11.307  -0.722 -1.3886 -0.4704  0.0239
  785MOL0     H 5953   1.755  11.220  -1.026 -0.2835 -1.3743  1.1668
  785MOL0     H 5954   1.728  11.383  -0.974  1.1181 -0.0158  1.6808
  785MOL0     H 5955   1.533  11.160  -0.878 -0.6330 -1.3775  0.6772
  785MOL0     H 5956   1.513  11.239  -1.021 -2.6544 -1.4196  1.2481
  785MOL0     H 5957   2.365  10.916  -0.404  1.2052  1.1447 -0.0489
  785MOL0     H 5958   2.576  10.792  -0.352  1.4808 -0.0842 -0.5785
  785MOL0     H 5959   3.038  10.941   0.015 -0.7093 -1.2687  0.6458
  785MOL0     H 5960   3.238  10.841   0.056 -1.9090 -2.9866  2.8189
  785MOL0     H 5961   4.963  10.983  -0.012  2.1309 -0.5859  1.5539
  785MOL0     H 5962   5.173  11.128  -0.000  0.5907 -0.9425 -1.0650
  785MOL0     H 5963   5.291  11.621  -0.007  1.6768  0.4448 -0.2837
  785MOL0     H 5964   5.470  11.756   0.052  0.6312 -0.2197 -1.8148
  785MOL0     H 5965   5.748  11.754   0.393  0.0654  2.6924 -1.0599
  785MOL0     H 5966   5.798  11.600   0.305  0.5036 -0.4764  0.5910
  785MOL0     H 5967   5.911  11.726   0.150  3.2787 -1.1646  0.9478
  785MOL0     H 5968   5.988  11.763   0.297 -0.5530 -1.4207  1.8850
  785MOL0     H 5969   5.776  11.968   0.263  0.1117  1.9796  0.1817
  785MOL0     H 5970   5.835  11.926   0.099 -0.1379  1.3080  0.5645
  785MOL0     H 5971   5.990  12.031   0.339  1.2113 -1.6681 -1.0847
  785MOL0     H 5972   5.965  12.111   0.177 -1.7136  1.0311  0.3539
  785MOL0     H 5973   6.283  11.838   0.096 -1.4237  0.5316 -1.5686
  785MOL0     H 5974   5.601  11.490   0.369  3.1433  0.1201 -2.7584
  785MOL0     H 5975   5.405  11.340   0.306 -0.1105 -0.5916 -2.2634
  786MOL0     O 5976   7.357   7.227   4.009  0.0053 -0.0725 -0.1808
  786MOL0     C 5977   7.349   7.160   3.904 -0.6186 -0.7120 -1.0949
  786MOL0     O 5978   7.234   7.126   3.841 -0.2185  0.1361 -0.6674
  786MOL0     C 5979   7.118   7.194   3.875 -0.0917  0.6354  1.1126
  786MOL0     C 5980   7.008   7.123   3.828  0.1468  0.0286 -0.0484
  786MOL0     C 5981   6.879   7.170   3.828 -0.7815  0.3455 -0.0103
  786MOL0     C 5982   6.857   7.283   3.908 -0.3049 -0.9607 -0.3291
  786MOL0     O 5983   6.728   7.333   3.927  0.6524  0.7742  0.2281
  786MOL0     C 5984   6.683   7.270   4.050 -0.3820 -0.1448  0.2354
  786MOL0     C 5985   6.568   7.356   4.111  0.9714  0.5386 -0.3136
  786MOL0     C 5986   6.435   7.375   4.019  0.2221  0.8564  0.2779
  786MOL0     C 5987   6.340   7.254   4.031  0.1642 -0.1535 -0.5729
  786MOL0     C 5988   6.293   7.196   3.905 -0.7046 -1.0658  0.1531
  786MOL0     C 5989   6.196   7.077   3.907 -0.5941  0.8625  0.0883
  786MOL0     C 5990   6.083   7.070   4.014 -0.4005  0.0776  0.7131
  786MOL0     C 5991   6.012   6.939   4.034 -0.0255 -0.7369  0.2391
  786MOL0     N 5992   5.960   6.891   3.906 -0.3027 -0.8398 -0.3938
  786MOL0     C 5993   5.829   6.881   3.876  0.3167 -0.1247  0.4244
  786MOL0     C 5994   5.835   6.811   3.758 -0.0691  0.1135 -0.5218
  786MOL0     C 5995   5.710   6.771   3.683 -0.3777  0.6836 -0.9694
  786MOL0     C 5996   5.662   6.876   3.577  1.1534  1.0744 -0.8259
  786MOL0     C 5997   5.510   6.851   3.547 -0.5248  0.0274  0.0290
  786MOL0     C 5998   5.489   6.706   3.494  0.5222 -1.3919 -0.3856
  786MOL0     O 5999   5.444   6.624   3.604 -0.4801 -0.8118 -0.0379
  786MOL0     C 6000   5.348   6.526   3.586  0.2925  0.9248  0.0722
  786MOL0     C 6001   5.273   6.507   3.472  0.0871  0.4967  0.8263
  786MOL0     C 6002   5.171   6.412   3.473 -0.0453  0.1338 -0.0828
  786MOL0     C 6003   5.102   6.393   3.333  0.0253  0.2269 -0.8296
  786MOL0     C 6004   5.134   6.346   3.592 -0.4737  0.1361 -0.4986
  786MOL0     C 6005   5.011   6.252   3.609 -0.4188  0.5995  0.2534
  786MOL0     O 6006   4.997   6.184   3.728 -0.6058 -0.1608 -0.3161
  786MOL0     C 6007   4.885   6.109   3.745  0.6441 -0.1950  0.9217
  786MOL0     C 6008   4.753   6.156   3.758 -0.0055 -0.1266  0.1125
  786MOL0     C 6009   4.646   6.067   3.777 -0.8356  0.3451  0.3615
  786MOL0     C 6010   4.657   5.929   3.781 -0.3902 -0.1509  0.1310
  786MOL0     O 6011   4.554   5.839   3.803 -0.2402 -0.2433  0.0913
  786MOL0     C 6012   4.431   5.874   3.750 -0.3535  0.8199  0.0876
  786MOL0     C 6013   4.371   5.754   3.669 -0.2609  0.5599 -0.2710
  786MOL0     C 6014   4.227   5.780   3.641 -0.0730  0.1257 -0.0312
  786MOL0     C 6015   4.152   5.659   3.578 -0.1550  0.8648  0.2097
  786MOL0     C 6016   4.001   5.668   3.576  0.2899 -0.5542 -0.0686
  786MOL0     C 6017   3.932   5.624   3.709  0.3907 -1.0090  0.5197
  786MOL0     C 6018   3.801   5.692   3.739  0.6287 -0.1893  0.6505
  786MOL0     C 6019   3.733   5.671   3.861 -0.2334  0.2782 -0.3557
  786MOL0    Cl 6020   3.594   5.771   3.882 -0.0453  0.0008  0.3276
  786MOL0     C 6021   4.787   5.880   3.770  0.0731 -0.0257 -0.2557
  786MOL0     C 6022   4.899   5.966   3.746 -0.1526 -0.1923 -0.3174
  786MOL0     O 6023   4.932   6.239   3.513 -0.9797 -0.1606  0.0820
  786MOL0     C 6024   5.205   6.383   3.709 -0.2072 -0.2785 -0.5871
  786MOL0     C 6025   5.316   6.466   3.710 -1.0450 -0.3808 -0.0018
  786MOL0     N 6026   5.957   6.775   3.726 -1.3818  0.0589 -0.0800
  786MOL0     N 6027   6.036   6.829   3.815 -0.0641 -0.1094  0.4245
  786MOL0     C 6028   6.965   7.363   3.959  0.5353  0.2836  0.0259
  786MOL0     C 6029   7.101   7.320   3.943  0.5398  0.3957 -0.3844
  786MOL0     C 6030   7.475   7.106   3.853  0.2505  0.6656 -0.4532
  786MOL0     C 6031   7.593   7.167   3.895 -0.3308 -0.1649  0.3829
  786MOL0     C 6032   7.717   7.127   3.857  0.0884 -0.1413 -0.1972
  786MOL0     C 6033   7.735   7.005   3.788 -0.5301 -0.7881  0.7284
  786MOL0     O 6034   7.854   6.953   3.756  0.5773  0.1680  0.0355
  786MOL0     C 6035   7.971   6.985   3.840 -0.2812 -0.0867 -0.2022
  786MOL0     C 6036   8.093   6.895   3.801  0.3383 -0.3232 -0.0947
  786MOL0     C 6037   8.205   6.939   3.892  0.3615 -1.0815  0.0610
  786MOL0     C 6038   8.342   6.878   3.863 -0.1622  0.2144  0.8172
  786MOL0     C 6039   8.440   6.959   3.931 -0.6444 -0.7645  0.3307
  786MOL0     C 6040   8.516   7.049   3.968  0.3717 -0.6314 -0.2201
  786MOL0     C 6041   7.613   6.945   3.736 -1.0889  0.1968 -0.3693
  786MOL0     C 6042   7.484   6.987   3.780 -0.6507  0.0157  0.6432
  786MOL0     H 6043   7.029   7.036   3.766 -2.2373 -0.6376 -0.0308
  786MOL0     H 6044   6.795   7.122   3.779  1.0869  0.3806 -3.5989
  786MOL0     H 6045   6.655   7.168   4.024  0.9248 -0.4001 -0.2648
  786MOL0     H 6046   6.765   7.266   4.122  1.6545  2.2325 -1.7479
  786MOL0     H 6047   6.533   7.318   4.208 -0.7965  1.6052 -0.4860
  786MOL0     H 6048   6.603   7.456   4.142 -1.2776  0.3105  3.7425
  786MOL0     H 6049   6.375   7.459   4.055  1.1007  0.8293  1.8967
  786MOL0     H 6050   6.466   7.385   3.915  2.0027  1.3626  0.8272
  786MOL0     H 6051   6.380   7.168   4.085 -3.2047 -2.5606 -1.5652
  786MOL0     H 6052   6.255   7.282   4.094  0.1506 -0.0353 -0.6419
  786MOL0     H 6053   6.247   7.280   3.852  1.4180  0.5194  0.6875
  786MOL0     H 6054   6.373   7.171   3.834 -1.8841 -0.1220 -1.6013
  786MOL0     H 6055   6.152   7.076   3.807  0.1522  3.2479 -0.3426
  786MOL0     H 6056   6.259   6.988   3.914  2.1354  2.7251  1.0345
  786MOL0     H 6057   6.117   7.098   4.114 -1.8519  0.9496  0.9904
  786MOL0     H 6058   6.011   7.150   3.991  0.0785 -0.0036 -1.2652
  786MOL0     H 6059   5.938   6.970   4.109  0.3533  0.3335  0.1842
  786MOL0     H 6060   6.068   6.854   4.074  1.8055 -0.5513 -1.7470
  786MOL0     H 6061   5.732   6.905   3.917 -0.5972  1.0014 -2.2023
  786MOL0     H 6062   5.743   6.677   3.636  0.8078  0.8927 -0.5955
  786MOL0     H 6063   5.630   6.750   3.754 -0.7332  1.4614 -1.1310
  786MOL0     H 6064   5.714   6.860   3.482  2.3368 -1.5277  0.1448
  786MOL0     H 6065   5.680   6.979   3.607 -1.6734  1.3521  0.1683
  786MOL0     H 6066   5.469   6.914   3.469 -0.9649 -2.6965 -2.1021
  786MOL0     H 6067   5.450   6.866   3.637  0.1069  3.0665  0.0309
  786MOL0     H 6068   5.580   6.680   3.440  0.0553 -1.9425 -0.9180
  786MOL0     H 6069   5.409   6.707   3.419 -0.3115 -0.1749  0.4779
  786MOL0     H 6070   5.309   6.539   3.375  1.1179  0.6624  1.2411
  786MOL0     H 6071   4.995   6.406   3.347  0.1338  0.5947 -0.3200
  786MOL0     H 6072   5.142   6.461   3.257 -1.9811  2.0035 -0.3632
  786MOL0     H 6073   5.128   6.289   3.307  0.2681  0.7173 -2.6768
  786MOL0     H 6074   4.739   6.264   3.752 -1.2541 -0.0755  2.6416
  786MOL0     H 6075   4.546   6.109   3.783 -0.9417  0.1071  0.2814
  786MOL0     H 6076   4.377   5.884   3.845  0.4885  0.6933  0.5895
  786MOL0     H 6077   4.427   5.964   3.688  1.7860  0.6023 -0.4307
  786MOL0     H 6078   4.429   5.740   3.578 -2.3723 -0.8410 -1.4719
  786MOL0     H 6079   4.379   5.666   3.735 -0.7225 -1.1478 -2.3846
  786MOL0     H 6080   4.217   5.871   3.580 -0.4148 -0.1926 -0.4570
  786MOL0     H 6081   4.178   5.807   3.736  0.0852 -0.5906  0.2545
  786MOL0     H 6082   4.186   5.625   3.480  0.5812  1.5076  0.2303
  786MOL0     H 6083   4.182   5.578   3.646 -2.0618  2.6557  3.4389
  786MOL0     H 6084   3.945   5.629   3.491  0.1000 -0.6756  0.1100
  786MOL0     H 6085   3.974   5.773   3.562  1.2609  0.0693  2.3623
  786MOL0     H 6086   3.925   5.515   3.719  1.2300 -1.0112  1.2578
  786MOL0     H 6087   3.992   5.655   3.795 -2.9081  2.7275  1.7837
  786MOL0     H 6088   3.730   5.653   3.665  1.2190 -2.0980  1.0564
  786MOL0     H 6089   3.817   5.800   3.729  2.5514 -0.6534 -3.0737
  786MOL0     H 6090   3.802   5.696   3.941  0.3485 -1.0543 -0.4209
  786MOL0     H 6091   3.705   5.566   3.875 -1.4523  0.6052 -0.1629
  786MOL0     H 6092   4.798   5.774   3.790  1.7313  0.7225  3.8345
  786MOL0     H 6093   4.998   5.923   3.740 -1.3963 -3.1506 -1.2158
  786MOL0     H 6094   5.184   6.339   3.807 -0.4794 -0.3936 -0.6979
  786MOL0     H 6095   5.379   6.476   3.798  0.5190 -1.2169 -0.9682
  786MOL0     H 6096   6.944   7.460   4.002  0.0576  0.5122 -0.7172
  786MOL0     H 6097   7.186   7.384   3.964  1.0060  0.0323 -1.1163
  786MOL0     H 6098   7.587   7.252   3.963 -0.7888  0.2038 -0.1130
  786MOL0     H 6099   7.801   7.186   3.893 -0.1338 -0.4180  0.8081
  786MOL0     H 6100   8.003   7.085   3.812 -0.3852  0.1031  0.3324
  786MOL0     H 6101   7.948   6.974   3.947  1.6679  1.5449  0.4401
  786MOL0     H 6102   8.115   6.920   3.697  2.5314  3.1830  1.0287
  786MOL0     H 6103   8.062   6.792   3.820  1.0180 -0.4567  0.3099
  786MOL0     H 6104   8.178   6.909   3.994  0.7768  3.1214  1.6005
  786MOL0     H 6105   8.214   7.048   3.897 -2.6392 -0.7854  2.1190
  786MOL0     H 6106   8.362   6.882   3.756  2.5203 -2.2340  1.0951
  786MOL0     H 6107   8.360   6.777   3.902  4.1007  0.6870  0.5274
  786MOL0     H 6108   8.586   7.122   4.003  1.4689 -0.9057 -1.7495
  786MOL0     H 6109   7.628   6.853   3.680  0.0347 -1.2069  2.0598
  786MOL0     H 6110   7.392   6.938   3.751  0.2195 -0.8347 -0.7796
  787MOL0     O 6111   6.248   9.118   7.521 -0.1207  1.1172 -0.0693
  787MOL0     C 6112   6.201   9.000   7.507 -0.6924  0.1773 -0.4212
  787MOL0     O 6113   6.255   8.895   7.430 -1.1555 -0.4520 -0.5457
  787MOL0     C 6114   6.370   8.913   7.361  0.4142  1.1460  0.1709
  787MOL0     C 6115   6.404   9.035   7.295  0.3117  0.5979  0.1067
  787MOL0     C 6116   6.522   9.038   7.215 -0.6923 -0.7624 -0.4849
  787MOL0     C 6117   6.604   8.925   7.204 -0.1463 -0.0343 -0.0183
  787MOL0     O 6118   6.702   8.942   7.108  0.6617 -0.6519  0.6052
  787MOL0     C 6119   6.836   8.906   7.142 -0.7384 -0.7591  0.0758
  787MOL0     C 6120   6.911   9.023   7.217  0.1842  0.3283 -0.1079
  787MOL0     C 6121   7.039   8.989   7.294 -0.2375 -0.4055  0.2378
  787MOL0     C 6122   7.099   9.106   7.379  0.1890  0.1986  0.1900
  787MOL0     C 6123   7.225   9.049   7.455  0.8849 -0.5888  0.6747
  787MOL0     C 6124   7.353   9.079   7.379 -0.3825  0.3207 -0.0772
  787MOL0     C 6125   7.466   9.116   7.471 -0.1240 -0.7266 -0.4318
  787MOL0     C 6126   7.592   9.168   7.395  0.2407 -0.7125  0.0197
  787MOL0     N 6127   7.598   9.313   7.357 -0.7134  0.4044 -0.2547
  787MOL0     C 6128   7.530   9.406   7.428 -0.0641  0.4687  0.5354
  787MOL0     C 6129   7.544   9.513   7.348 -0.2490  0.1089  0.5838
  787MOL0     C 6130   7.474   9.640   7.375 -0.3182  0.6237  0.0288
  787MOL0     C 6131   7.333   9.627   7.432  0.1416  0.6068 -0.5741
  787MOL0     C 6132   7.232   9.561   7.332 -0.1707 -1.0359 -0.5527
  787MOL0     C 6133   7.092   9.619   7.349  1.0494  0.0550 -0.4203
  787MOL0     O 6134   7.066   9.627   7.491  0.0852 -0.0322 -0.2608
  787MOL0     C 6135   6.938   9.669   7.522 -0.9711  0.8699 -0.0892
  787MOL0     C 6136   6.832   9.699   7.435 -0.3287  0.0015 -0.3127
  787MOL0     C 6137   6.707   9.742   7.481  0.5627 -0.5452  0.3086
  787MOL0     C 6138   6.618   9.823   7.380  0.1388  0.4430 -0.7387
  787MOL0     C 6139   6.685   9.762   7.617  0.1781  1.2429  0.5036
  787MOL0     C 6140   6.559   9.802   7.675  0.0701 -0.4493  0.3036
  787MOL0     O 6141   6.445   9.778   7.594 -0.2631 -1.2773 -0.3096
  787MOL0     C 6142   6.316   9.797   7.642  0.2506 -0.1538 -0.0090
  787MOL0     C 6143   6.219   9.725   7.566 -0.1472 -0.2017  0.1341
  787MOL0     C 6144   6.094   9.701   7.616 -0.2244 -0.9605  0.2153
  787MOL0     C 6145   6.044   9.762   7.739  0.7019 -0.2095 -0.0874
  787MOL0     O 6146   5.916   9.723   7.786  0.4155  0.4234  0.5278
  787MOL0     C 6147   5.856   9.768   7.905 -0.8333 -0.8362  0.1027
  787MOL0     C 6148   5.714   9.718   7.930 -0.8915 -0.6558  0.8920
  787MOL0     C 6149   5.719   9.572   7.957  0.9798 -0.2048 -0.8881
  787MOL0     C 6150   5.588   9.530   8.033 -0.3969  0.2198  0.0177
  787MOL0     C 6151   5.460   9.527   7.948 -0.1390 -0.9306 -0.3582
  787MOL0     C 6152   5.344   9.470   8.024 -0.0294 -0.5581 -0.0642
  787MOL0     C 6153   5.216   9.470   7.935 -0.3260  0.1959  0.6443
  787MOL0     C 6154   5.091   9.528   7.994  0.9700 -0.7715  0.9053
  787MOL0    Cl 6155   5.116   9.682   8.072 -0.4272 -0.3376  0.0695
  787MOL0     C 6156   6.141   9.838   7.803  0.1412 -0.1982  0.3281
  787MOL0     C 6157   6.275   9.856   7.763 -0.6999  1.1143  0.1141
  787MOL0     O 6158   6.554   9.851   7.787  0.3268 -0.0646  0.3684
  787MOL0     C 6159   6.785   9.736   7.706  0.9906 -0.1323 -0.1930
  787MOL0     C 6160   6.911   9.697   7.654 -0.6134  0.1923 -0.6827
  787MOL0     N 6161   7.626   9.483   7.240  0.0818 -1.2517 -0.5786
  787MOL0     N 6162   7.656   9.365   7.242  0.4611  0.2239 -0.0507
  787MOL0     C 6163   6.564   8.806   7.260 -0.4566 -0.0201  0.3862
  787MOL0     C 6164   6.450   8.798   7.339  0.5865 -0.2424 -0.2875
  787MOL0     C 6165   6.066   8.977   7.575 -0.1613 -0.5845  0.2337
  787MOL0     C 6166   6.003   8.865   7.539 -0.1684  0.4413  0.0626
  787MOL0     C 6167   5.872   8.843   7.589 -0.1867  0.2508  0.4534
  787MOL0     C 6168   5.804   8.931   7.678 -0.6465 -0.4497 -0.1418
  787MOL0     O 6169   5.668   8.906   7.690 -0.1157  0.2570  0.5348
  787MOL0     C 6170   5.574   9.016   7.688  0.2073  0.4054 -0.4578
  787MOL0     C 6171   5.444   8.979   7.762  0.9325  0.3770 -0.1458
  787MOL0     C 6172   5.345   9.096   7.768  0.0845 -0.5655  0.5722
  787MOL0     C 6173   5.208   9.051   7.814 -0.2653 -0.4479  0.4376
  787MOL0     C 6174   5.212   9.022   7.960  0.3591 -0.0251  0.5377
  787MOL0     C 6175   5.204   8.982   8.074 -0.4732  0.0687 -0.0284
  787MOL0     C 6176   5.878   9.041   7.716  0.8368 -0.2018  0.3868
  787MOL0     C 6177   6.013   9.070   7.668 -0.2662  0.2171  0.0326
  787MOL0     H 6178   6.334   9.118   7.302  0.4113  1.0077 -2.5349
  787MOL0     H 6179   6.550   9.120   7.150 -1.9593 -0.1513 -0.2721
  787MOL0     H 6180   6.833   8.814   7.201 -0.8901 -0.3175  0.7816
  787MOL0     H 6181   6.879   8.874   7.047 -0.0594 -0.3808  0.2489
  787MOL0     H 6182   6.928   9.106   7.148  1.9938 -0.6371 -0.9069
  787MOL0     H 6183   6.846   9.054   7.299  1.7917  2.9508  0.2773
  787MOL0     H 6184   7.018   8.896   7.348 -0.7630 -1.1447 -1.1703
  787MOL0     H 6185   7.113   8.957   7.219 -0.7034 -3.2786  0.8591
  787MOL0     H 6186   7.123   9.192   7.315  1.7848  1.8232  2.7848
  787MOL0     H 6187   7.025   9.138   7.452  0.8099 -0.4045  1.1150
  787MOL0     H 6188   7.231   9.106   7.548  0.7554  1.8224 -0.7138
  787MOL0     H 6189   7.209   8.942   7.473 -2.4238 -0.6920 -2.0038
  787MOL0     H 6190   7.390   8.995   7.319  1.8367 -2.6172  4.8259
  787MOL0     H 6191   7.335   9.170   7.320 -0.5530  0.3945  0.0912
  787MOL0     H 6192   7.427   9.187   7.545  0.0300  1.0543 -1.9889
  787MOL0     H 6193   7.495   9.029   7.532  1.5066 -1.2291 -1.8534
  787MOL0     H 6194   7.620   9.119   7.302  3.2504  0.0257  0.4433
  787MOL0     H 6195   7.675   9.145   7.462  3.0266  2.5015 -2.0638
  787MOL0     H 6196   7.480   9.388   7.523 -0.3876 -2.2378 -0.0737
  787MOL0     H 6197   7.535   9.699   7.443 -2.1089 -0.3552  2.6413
  787MOL0     H 6198   7.472   9.696   7.280  0.1114 -0.2137 -0.4799
  787MOL0     H 6199   7.297   9.724   7.469  2.2992  1.4441 -0.5412
  787MOL0     H 6200   7.333   9.561   7.520  2.1852  0.0466 -0.9537
  787MOL0     H 6201   7.220   9.452   7.340 -2.6008 -0.8884 -1.2738
  787MOL0     H 6202   7.254   9.574   7.225 -0.5180 -1.9269 -0.7490
  787MOL0     H 6203   7.023   9.551   7.298  1.3234 -2.6829  2.5419
  787MOL0     H 6204   7.081   9.721   7.309 -4.1873  0.0607  0.2510
  787MOL0     H 6205   6.854   9.698   7.329  2.4172 -0.5377  0.1768
  787MOL0     H 6206   6.674   9.827   7.286  0.0724  2.0322 -0.7304
  787MOL0     H 6207   6.514   9.793   7.370 -0.0045 -0.0859  1.6695
  787MOL0     H 6208   6.620   9.926   7.416 -0.5269 -0.2847  1.5564
  787MOL0     H 6209   6.266   9.684   7.478  1.8240  2.6622 -0.2581
  787MOL0     H 6210   6.024   9.641   7.559 -0.3519 -0.7022  0.0992
  787MOL0     H 6211   5.924   9.739   7.986  3.3591 -0.1598 -2.8921
  787MOL0     H 6212   5.841   9.876   7.912 -1.3856 -1.0063  2.5377
  787MOL0     H 6213   5.683   9.762   8.025 -1.0853 -1.5869  1.2735
  787MOL0     H 6214   5.645   9.740   7.848 -0.6399 -0.2711  0.7801
  787MOL0     H 6215   5.800   9.551   8.027  1.3052 -0.0684 -1.2178
  787MOL0     H 6216   5.742   9.514   7.866  1.3193 -0.9272 -0.3542
  787MOL0     H 6217   5.610   9.431   8.072  4.1811  1.8019  2.1563
  787MOL0     H 6218   5.568   9.593   8.120  2.0179  3.1958 -1.3823
  787MOL0     H 6219   5.469   9.472   7.854  1.5336 -0.4683 -0.4931
  787MOL0     H 6220   5.435   9.628   7.914  0.9570 -0.7741 -0.7460
  787MOL0     H 6221   5.374   9.371   8.059 -1.6515 -0.9060  0.4243
  787MOL0     H 6222   5.333   9.534   8.113  4.3987  0.9636 -0.3583
  787MOL0     H 6223   5.200   9.364   7.915 -1.6030  0.4095  0.4134
  787MOL0     H 6224   5.252   9.522   7.846  0.4975  1.3723  1.6296
  787MOL0     H 6225   5.030   9.466   8.060  0.9659 -2.4523 -0.6005
  787MOL0     H 6226   5.030   9.547   7.906  0.0490 -1.4428  1.3857
  787MOL0     H 6227   6.114   9.875   7.901  1.8959  1.8746  0.1236
  787MOL0     H 6228   6.347   9.895   7.834 -0.2368  0.6626 -0.1053
  787MOL0     H 6229   6.777   9.751   7.813  3.5919  1.0800 -0.0921
  787MOL0     H 6230   6.998   9.691   7.719 -0.1871 -0.2308 -1.2709
  787MOL0     H 6231   6.625   8.719   7.237 -0.3263  0.3128 -0.5790
  787MOL0     H 6232   6.422   8.700   7.378  0.5783 -1.2377 -2.6194
  787MOL0     H 6233   6.046   8.797   7.467 -0.3116 -0.6392  0.9642
  787MOL0     H 6234   5.805   8.769   7.545 -2.2150  3.1822 -1.8079
  787MOL0     H 6235   5.605   9.094   7.757  2.0615 -1.6246  1.1389
  787MOL0     H 6236   5.555   9.047   7.584 -1.4106 -0.7995 -0.5647
  787MOL0     H 6237   5.474   8.947   7.862 -0.2117 -1.8126 -0.4374
  787MOL0     H 6238   5.404   8.896   7.704  1.1864  1.2206 -1.5694
  787MOL0     H 6239   5.338   9.137   7.667  1.5999  0.0490  0.6960
  787MOL0     H 6240   5.386   9.175   7.832  0.2409 -2.4873  3.0301
  787MOL0     H 6241   5.185   8.964   7.751  1.3571  0.0649 -0.9103
  787MOL0     H 6242   5.132   9.128   7.799  0.3571  0.1933  0.5679
  787MOL0     H 6243   5.211   8.942   8.174 -0.2690  0.6521  0.1939
  787MOL0     H 6244   5.833   9.097   7.798 -2.1549  1.7806 -2.3673
  787MOL0     H 6245   6.065   9.156   7.709 -0.8546 -0.9306  3.5288
  788MOL0     O 6246   7.966   0.209  10.787 -0.2054 -0.0911 -0.1771
  788MOL0     C 6247   7.993   0.126  10.704 -0.5452  0.5787 -0.5938
  788MOL0     O 6248   7.905   0.060  10.624 -0.1504 -0.7306 -0.0918
  788MOL0     C 6249   7.767   0.083  10.641 -0.2698  0.6731 -0.3427
  788MOL0     C 6250   7.685   0.137  10.538 -0.8433  0.4542  0.1688
  788MOL0     C 6251   7.547   0.135  10.561  0.5081 -0.2565 -0.8290
  788MOL0     C 6252   7.485   0.096  10.681  0.4387 -0.6672  0.5970
  788MOL0     O 6253   7.351   0.101  10.704 -0.8336  0.4907  0.6874
  788MOL0     C 6254   7.277   0.222  10.677  0.6286  1.2015 -0.0844
  788MOL0     C 6255   7.158   0.225  10.770  0.2097 -0.1901 -0.5736
  788MOL0     C 6256   7.052   0.336  10.735 -0.3723  0.3884  0.1371
  788MOL0     C 6257   6.928   0.287  10.799  0.4994 -0.2910 -1.1980
  788MOL0     C 6258   6.834   0.401  10.803  0.2597 -0.0795  0.5313
  788MOL0     C 6259   6.715   0.387  10.885 -0.1218  0.4248 -0.3639
  788MOL0     C 6260   6.632   0.518  10.893 -0.2050  0.1364  0.1157
  788MOL0     C 6261   6.484   0.485  10.952  0.1643 -0.2157  0.0270
  788MOL0     N 6262   6.490   0.379  11.057  0.1773 -0.6800 -0.1726
  788MOL0     C 6263   6.550   0.389  11.179  0.3130  0.7010 -0.0217
  788MOL0     C 6264   6.541   0.259  11.236 -0.6761 -0.4060 -0.2012
  788MOL0     C 6265   6.584   0.213  11.370 -0.3971 -0.0231 -0.6152
  788MOL0     C 6266   6.468   0.227  11.468  0.8474  0.7404 -0.0822
  788MOL0     C 6267   6.500   0.155  11.592 -0.2563  0.0542  0.4601
  788MOL0     C 6268   6.403   0.172  11.714  0.9829  0.3281 -0.1555
  788MOL0     O 6269   6.378   0.313  11.739  0.5254  0.1790 -0.6621
  788MOL0     C 6270   6.273   0.357  11.810 -0.0943  0.3080  1.0002
  788MOL0     C 6271   6.173   0.273  11.868  0.2487  1.0298 -0.3111
  788MOL0     C 6272   6.064   0.344  11.938 -0.2979 -0.0394  0.1880
  788MOL0     C 6273   5.956   0.264  12.009  0.6741 -0.3669 -0.2152
  788MOL0     C 6274   6.066   0.480  11.949  0.0804  0.7922 -0.3266
  788MOL0     C 6275   5.957   0.555  12.008 -0.1552 -0.4439 -0.2026
  788MOL0     O 6276   5.828   0.530  11.959  0.2965 -0.1328 -0.2674
  788MOL0     C 6277   5.726   0.623  11.940  0.1115  0.1852 -0.2914
  788MOL0     C 6278   5.740   0.758  11.946 -0.3211  0.0729  0.1273
  788MOL0     C 6279   5.632   0.840  11.943 -0.1986 -0.6257  0.1836
  788MOL0     C 6280   5.498   0.792  11.924 -0.6597 -0.0564 -0.1259
  788MOL0     O 6281   5.399   0.888  11.925  0.5051  0.4288  0.1135
  788MOL0     C 6282   5.265   0.844  11.938 -0.2136  0.0806 -0.2938
  788MOL0     C 6283   5.173   0.966  11.954 -0.8220  0.6629  0.3149
  788MOL0     C 6284   5.033   0.920  11.997  0.4937 -1.1856 -0.5491
  788MOL0     C 6285   4.966   1.054  12.040 -0.1396 -0.8969  0.6422
  788MOL0     C 6286   4.814   1.044  12.058  0.1611 -0.1567 -0.2211
  788MOL0     C 6287   4.740   1.007  11.933  0.2201  0.2314 -0.4371
  788MOL0     C 6288   4.605   1.078  11.917  0.5445  0.6187 -0.3406
  788MOL0     C 6289   4.623   1.239  11.929 -0.0169  0.5482  0.8322
  788MOL0    Cl 6290   4.769   1.267  11.822  0.2727 -0.0320  0.6031
  788MOL0     C 6291   5.486   0.654  11.911  0.2592 -0.3356  0.4371
  788MOL0     C 6292   5.598   0.571  11.916  0.0613 -0.4954 -0.4472
  788MOL0     O 6293   5.983   0.656  12.080 -0.2237  0.0543  0.8853
  788MOL0     C 6294   6.157   0.560  11.886 -0.9927 -0.3299  0.6967
  788MOL0     C 6295   6.267   0.496  11.817 -0.1184  0.7442 -0.0826
  788MOL0     N 6296   6.471   0.176  11.146 -0.1354 -0.1204  0.0752
  788MOL0     N 6297   6.456   0.250  11.033  0.1458  0.5874 -0.8599
  788MOL0     C 6298   7.575   0.051  10.786  0.2410  0.0066  0.4671
  788MOL0     C 6299   7.711   0.039  10.761 -0.2908 -0.3818 -0.5153
  788MOL0     C 6300   8.131   0.116  10.643 -0.6099 -0.3210  0.0065
  788MOL0     C 6301   8.240   0.166  10.715 -0.5834  0.3717  0.5946
  788MOL0     C 6302   8.377   0.160  10.665  0.6843  0.2598 -0.1309
  788MOL0     C 6303   8.405   0.105  10.536  0.2995  0.0250  0.2637
  788MOL0     O 6304   8.529   0.101  10.467  0.1202  0.6327 -0.7569
  788MOL0     C 6305   8.652   0.133  10.531  0.6649 -0.1081 -0.7630
  788MOL0     C 6306   8.759   0.158  10.423  0.5518  0.1934  0.5444
  788MOL0     C 6307   8.778   0.312  10.394 -0.2907 -0.8029 -0.1589
  788MOL0     C 6308   8.852   0.349  10.267  0.1806  0.2333  0.0961
  788MOL0     C 6309   8.957   0.253  10.243 -0.0396  0.1757  0.0997
  788MOL0     C 6310   9.059   0.187  10.221 -0.3117 -0.2278 -0.0516
  788MOL0     C 6311   8.291   0.055  10.464  0.1507 -0.0851  0.2678
  788MOL0     C 6312   8.159   0.058  10.519  0.3001  0.3167  1.1557
  788MOL0     H 6313   7.729   0.170  10.444 -0.2191  0.7374  0.5520
  788MOL0     H 6314   7.489   0.156  10.472  1.7219  2.6070 -1.0619
  788MOL0     H 6315   7.349   0.300  10.701 -0.5989  1.5647  2.9194
  788MOL0     H 6316   7.235   0.234  10.577  1.7831  2.4649 -0.4451
  788MOL0     H 6317   7.105   0.130  10.759 -0.7320  0.3794 -1.0594
  788MOL0     H 6318   7.185   0.248  10.874 -3.7766  0.0739  0.5745
  788MOL0     H 6319   7.082   0.431  10.780  1.7470 -0.1958  0.0867
  788MOL0     H 6320   7.046   0.348  10.627  0.1396 -1.0599 -0.0758
  788MOL0     H 6321   6.878   0.201  10.754 -0.5523  1.0674 -2.7434
  788MOL0     H 6322   6.954   0.265  10.903 -0.5657  0.6749 -0.6976
  788MOL0     H 6323   6.877   0.499  10.827 -3.5975  1.0656  3.9823
  788MOL0     H 6324   6.791   0.416  10.703 -0.2065 -2.8590  0.2451
  788MOL0     H 6325   6.660   0.303  10.842  0.7698 -0.6102  0.4536
  788MOL0     H 6326   6.742   0.353  10.986  0.5092 -0.2157 -0.7419
  788MOL0     H 6327   6.684   0.586  10.961  1.1349 -1.8277  1.1747
  788MOL0     H 6328   6.618   0.558  10.792 -1.7355 -1.3651 -0.3081
  788MOL0     H 6329   6.425   0.451  10.866 -0.2161  0.2841  0.0835
  788MOL0     H 6330   6.448   0.582  10.986  1.3692  0.6944 -1.1566
  788MOL0     H 6331   6.612   0.474  11.207  0.1121  0.9404 -0.2947
  788MOL0     H 6332   6.620   0.111  11.384  0.2183  0.3609  0.8012
  788MOL0     H 6333   6.666   0.277  11.403 -2.2244 -0.1160  5.0449
  788MOL0     H 6334   6.387   0.169  11.424  1.1969  0.1948 -0.0131
  788MOL0     H 6335   6.436   0.329  11.491  0.0071 -0.2178  3.6632
  788MOL0     H 6336   6.595   0.194  11.630  0.4092 -1.1090  0.0494
  788MOL0     H 6337   6.508   0.049  11.565 -1.9637  0.6913 -2.9876
  788MOL0     H 6338   6.440   0.118  11.802 -0.6003 -1.7001 -0.6529
  788MOL0     H 6339   6.309   0.125  11.685 -0.3366  1.5553  1.9516
  788MOL0     H 6340   6.190   0.169  11.893 -0.5292  0.8630 -0.4417
  788MOL0     H 6341   5.879   0.241  11.935  0.3392  2.6352 -0.9310
  788MOL0     H 6342   6.000   0.178  12.060 -0.5869  0.4592  2.4320
  788MOL0     H 6343   5.910   0.322  12.089 -0.1804 -1.3682  0.0310
  788MOL0     H 6344   5.836   0.809  11.938 -0.5167  0.2574 -1.2675
  788MOL0     H 6345   5.636   0.949  11.946 -2.0162 -0.5460  1.3190
  788MOL0     H 6346   5.244   0.789  11.845 -0.6055  2.0004 -1.3880
  788MOL0     H 6347   5.245   0.769  12.015 -0.4511 -1.2332 -1.5848
  788MOL0     H 6348   5.212   1.034  12.030 -0.3226 -1.5845  2.2121
  788MOL0     H 6349   5.174   1.011  11.854 -1.4209  1.4698  0.6643
  788MOL0     H 6350   5.030   0.844  12.077  0.3955 -2.4906 -1.7533
  788MOL0     H 6351   4.981   0.887  11.907  0.0808 -0.2237 -0.6714
  788MOL0     H 6352   5.007   1.090  12.135  0.1704 -0.3063  0.2895
  788MOL0     H 6353   4.989   1.130  11.966  0.2049 -2.4297 -0.8801
  788MOL0     H 6354   4.768   1.129  12.109 -1.9964 -1.0203 -0.6230
  788MOL0     H 6355   4.804   0.966  12.135  1.7576 -2.2907 -2.0273
  788MOL0     H 6356   4.805   1.035  11.850 -1.4071 -0.8212 -2.1413
  788MOL0     H 6357   4.726   0.899  11.937 -1.8581  0.4816  0.4323
  788MOL0     H 6358   4.529   1.038  11.984  1.8220 -2.0415 -0.3417
  788MOL0     H 6359   4.578   1.042  11.817  2.2587 -2.4149  0.1509
  788MOL0     H 6360   4.655   1.268  12.030  1.6637  1.1348  0.1526
  788MOL0     H 6361   4.532   1.290  11.895 -0.5619 -0.6558  0.4262
  788MOL0     H 6362   5.396   0.603  11.880  1.1690 -0.7346 -1.7498
  788MOL0     H 6363   5.590   0.464  11.902  2.2537 -1.1380  2.2711
  788MOL0     H 6364   6.157   0.668  11.901 -0.4973  0.0593 -1.7665
  788MOL0     H 6365   6.345   0.560  11.776  0.8170  0.8205  1.7388
  788MOL0     H 6366   7.528   0.031  10.882  0.7829  0.1754  0.7705
  788MOL0     H 6367   7.775  -0.006  10.836 -0.2881  5.4430  3.6948
  788MOL0     H 6368   8.231   0.220  10.808  0.1969  1.7578 -0.1127
  788MOL0     H 6369   8.451   0.199  10.733 -1.1663  1.4766  1.2841
  788MOL0     H 6370   8.639   0.217  10.601  0.5357 -1.6916  1.1893
  788MOL0     H 6371   8.685   0.047  10.590 -1.0204  0.1311  0.6078
  788MOL0     H 6372   8.742   0.094  10.336  0.6071  0.3815  0.3952
  788MOL0     H 6373   8.856   0.128  10.465  1.3779  1.7699 -0.1338
  788MOL0     H 6374   8.840   0.360  10.470 -1.2895 -0.8243  0.6954
  788MOL0     H 6375   8.675   0.349  10.385  0.2960  0.5882 -1.4943
  788MOL0     H 6376   8.903   0.445  10.274  0.1676  0.6482 -3.4788
  788MOL0     H 6377   8.783   0.371  10.185  0.4585  1.3385  0.1484
  788MOL0     H 6378   9.153   0.138  10.206 -0.5567 -0.5401 -0.6342
  788MOL0     H 6379   8.304   0.024  10.360 -1.2046  0.7956 -0.1892
  788MOL0     H 6380   8.091   0.016  10.446  0.4274  2.1063 -0.0597
  789MOL0     O 6381   3.997   3.227   7.708 -0.7350 -0.8622  1.3326
  789MOL0     C 6382   4.011   3.106   7.703  0.4327  0.3062 -0.2084
  789MOL0     O 6383   3.910   3.005   7.711  0.2434 -0.6152 -0.6948
  789MOL0     C 6384   3.783   3.044   7.741  0.4696  0.8601  0.1580
  789MOL0     C 6385   3.684   3.013   7.647 -1.2254  0.6839 -0.9248
  789MOL0     C 6386   3.554   3.055   7.677 -0.2744  0.8916 -0.1824
  789MOL0     C 6387   3.519   3.112   7.800 -0.0532 -0.5342 -0.1694
  789MOL0     O 6388   3.384   3.143   7.830  0.4009  0.3477 -0.7612
  789MOL0     C 6389   3.313   3.240   7.750  0.2729  0.1028  0.3894
  789MOL0     C 6390   3.350   3.386   7.775  0.1285  0.8042  0.0749
  789MOL0     C 6391   3.287   3.478   7.678  0.7137  0.8011  0.4673
  789MOL0     C 6392   3.135   3.455   7.660  0.2489 -0.6388 -0.1382
  789MOL0     C 6393   3.082   3.547   7.547 -0.8772 -0.3816 -0.0723
  789MOL0     C 6394   2.930   3.524   7.542  0.8870 -0.9595 -1.0456
  789MOL0     C 6395   2.866   3.561   7.406  0.1364 -0.5977  1.4906
  789MOL0     C 6396   2.720   3.574   7.426 -0.4361  0.4487  0.4655
  789MOL0     N 6397   2.663   3.636   7.316 -0.7580  0.3744  0.1204
  789MOL0     C 6398   2.612   3.760   7.314 -0.1598 -0.0171  0.0954
  789MOL0     C 6399   2.570   3.774   7.189  0.2041  0.7937  0.3414
  789MOL0     C 6400   2.501   3.899   7.144  0.9403 -0.6862  0.3177
  789MOL0     C 6401   2.355   3.900   7.198 -0.9797 -0.0558  0.8667
  789MOL0     C 6402   2.254   3.801   7.138 -0.4568 -0.1716  0.5189
  789MOL0     C 6403   2.206   3.854   6.999  0.1053 -0.2310  0.8802
  789MOL0     O 6404   2.144   3.981   7.032 -0.4455 -0.3969  0.3363
  789MOL0     C 6405   2.005   3.969   7.031 -0.2214  0.2341 -0.0334
  789MOL0     C 6406   1.941   4.044   6.932 -0.0616 -0.0314  0.0339
  789MOL0     C 6407   1.800   4.043   6.918  0.2466  0.5688  1.5002
  789MOL0     C 6408   1.737   4.124   6.819  0.7328  0.3340  0.9661
  789MOL0     C 6409   1.725   3.972   7.008 -0.1459 -0.3476 -0.4498
  789MOL0     C 6410   1.573   3.978   7.012  0.0605  0.2408  0.6273
  789MOL0     O 6411   1.500   3.979   7.132 -0.3224  0.4694 -0.3522
  789MOL0     C 6412   1.367   3.996   7.135  1.0362  0.1265 -0.6270
  789MOL0     C 6413   1.293   3.917   7.222  0.4529  0.5263 -0.6709
  789MOL0     C 6414   1.154   3.936   7.245  0.1184  0.5026  0.4555
  789MOL0     C 6415   1.081   4.029   7.184 -0.0210 -0.5231 -0.2259
  789MOL0     O 6416   0.952   4.031   7.221  0.0109 -0.4072 -0.1148
  789MOL0     C 6417   0.854   4.119   7.153  0.5842  0.4013  0.4796
  789MOL0     C 6418   0.713   4.104   7.203 -0.3047  0.2309 -0.2549
  789MOL0     C 6419   0.657   3.975   7.238  0.1105  0.8683 -0.0331
  789MOL0     C 6420   0.679   3.860   7.129 -1.3859 -0.1380 -0.8887
  789MOL0     C 6421   0.620   3.722   7.159  0.6384 -0.3888 -0.1803
  789MOL0     C 6422   0.628   3.618   7.038  0.4194  1.1209  1.3517
  789MOL0     C 6423   0.563   3.654   6.908 -0.5609 -0.7218 -0.0329
  789MOL0     C 6424   0.582   3.560   6.787 -0.6304 -0.5763 -0.2479
  789MOL0    Cl 6425   0.758   3.567   6.728  0.6044  0.2176  0.1562
  789MOL0     C 6426   1.150   4.112   7.102 -1.1724  0.4790  0.4740
  789MOL0     C 6427   1.288   4.098   7.073  0.0087 -0.2975 -0.0175
  789MOL0     O 6428   1.521   3.973   6.899 -0.0866 -0.1420 -0.6790
  789MOL0     C 6429   1.795   3.901   7.110  0.8025  0.2341 -0.1985
  789MOL0     C 6430   1.931   3.897   7.124  0.5633 -0.3469  0.6038
  789MOL0     N 6431   2.590   3.657   7.116 -0.2211 -0.1195 -0.3424
  789MOL0     N 6432   2.651   3.572   7.197 -0.8276 -0.4996 -0.3796
  789MOL0     C 6433   3.622   3.155   7.884 -0.4681 -0.1944  0.1297
  789MOL0     C 6434   3.751   3.112   7.862 -0.5174 -0.6439  0.5101
  789MOL0     C 6435   4.154   3.057   7.676  0.0180 -0.5329  0.4622
  789MOL0     C 6436   4.259   3.144   7.653 -0.2043 -0.5761  0.0234
  789MOL0     C 6437   4.391   3.093   7.628 -0.1001 -0.5042 -0.1861
  789MOL0     C 6438   4.412   2.950   7.637 -0.5353  0.4072  0.3689
  789MOL0     O 6439   4.540   2.898   7.626  0.0475  0.8448  0.3116
  789MOL0     C 6440   4.639   2.975   7.557 -0.3219  0.1493 -0.4003
  789MOL0     C 6441   4.743   2.883   7.512 -0.1830 -0.4077  0.4066
  789MOL0     C 6442   4.839   2.958   7.418 -0.2520 -0.6342  0.1475
  789MOL0     C 6443   4.971   2.872   7.388 -0.6114  0.0517 -0.5551
  789MOL0     C 6444   4.935   2.762   7.295 -0.2154 -0.5964 -0.0110
  789MOL0     C 6445   4.921   2.667   7.223  1.0028 -0.1246 -0.2067
  789MOL0     C 6446   4.304   2.863   7.658 -0.1393 -0.3817 -0.1112
  789MOL0     C 6447   4.177   2.917   7.672  0.0740  0.0983 -0.7624
  789MOL0     H 6448   3.706   2.963   7.553  2.2637 -0.1458  0.1653
  789MOL0     H 6449   3.473   3.035   7.607 -2.7004  0.2192  2.6329
  789MOL0     H 6450   3.325   3.209   7.646  2.8383 -0.3284  0.7304
  789MOL0     H 6451   3.207   3.231   7.776 -0.3167  0.8940 -1.5610
  789MOL0     H 6452   3.317   3.415   7.876 -0.1691  1.0157 -0.0824
  789MOL0     H 6453   3.459   3.395   7.781  0.6525 -4.1235  2.3735
  789MOL0     H 6454   3.303   3.580   7.713  0.6095 -0.0551  3.2292
  789MOL0     H 6455   3.353   3.460   7.592 -0.1616 -1.7268  0.2319
  789MOL0     H 6456   3.111   3.352   7.632  0.6637 -0.6971 -0.2949
  789MOL0     H 6457   3.077   3.461   7.753 -1.5885  0.0995 -1.3038
  789MOL0     H 6458   3.111   3.652   7.560 -0.0033 -0.4504 -1.3213
  789MOL0     H 6459   3.129   3.526   7.451  0.7849  0.9370  0.3921
  789MOL0     H 6460   2.900   3.423   7.571  0.8625 -1.1754 -1.8013
  789MOL0     H 6461   2.888   3.583   7.624  2.3858  0.9564 -1.5956
  789MOL0     H 6462   2.911   3.653   7.368 -3.2159  0.6902  0.2438
  789MOL0     H 6463   2.891   3.483   7.334  1.5925  0.5334  0.7248
  789MOL0     H 6464   2.704   3.635   7.516  0.3332  1.0882  0.1800
  789MOL0     H 6465   2.680   3.473   7.437  1.7600 -0.5759 -0.3821
  789MOL0     H 6466   2.596   3.829   7.397 -4.8059  1.1689 -1.4439
  789MOL0     H 6467   2.570   3.975   7.183 -0.0845 -0.0971  1.0295
  789MOL0     H 6468   2.502   3.894   7.034 -0.5878 -1.7269  0.3293
  789MOL0     H 6469   2.323   4.005   7.189  0.8518  0.3987 -1.3593
  789MOL0     H 6470   2.369   3.868   7.301  3.7866 -0.1010  0.4050
  789MOL0     H 6471   2.171   3.793   7.209 -1.1637 -5.3292 -0.4551
  789MOL0     H 6472   2.296   3.700   7.128 -0.0827 -0.0747  1.1126
  789MOL0     H 6473   2.131   3.788   6.954 -0.8862  0.9867  0.7074
  789MOL0     H 6474   2.278   3.852   6.917  0.6559 -0.1866  1.3565
  789MOL0     H 6475   2.001   4.107   6.867  1.4222  0.8389  2.1292
  789MOL0     H 6476   1.715   4.058   6.735 -0.6590 -0.3159  1.8061
  789MOL0     H 6477   1.653   4.188   6.848 -0.4073  0.6462 -2.5318
  789MOL0     H 6478   1.815   4.187   6.773 -0.6491  1.7343  0.4251
  789MOL0     H 6479   1.338   3.826   7.261 -0.4516 -0.5083 -1.9222
  789MOL0     H 6480   1.096   3.877   7.316 -1.5302  1.0352 -0.4006
  789MOL0     H 6481   0.876   4.225   7.163  0.8398  0.3951  0.0200
  789MOL0     H 6482   0.863   4.094   7.047  0.2094  0.3476  0.4570
  789MOL0     H 6483   0.705   4.167   7.292  2.1559 -1.7657  1.5499
  789MOL0     H 6484   0.651   4.135   7.119 -0.2135 -3.1808 -1.7696
  789MOL0     H 6485   0.549   3.985   7.255 -0.0922 -1.9814  0.9279
  789MOL0     H 6486   0.702   3.952   7.335  0.3561  0.5901 -0.2128
  789MOL0     H 6487   0.619   3.905   7.050 -0.5164  0.3313 -1.2939
  789MOL0     H 6488   0.784   3.852   7.098 -0.2461 -0.7145  2.5792
  789MOL0     H 6489   0.521   3.740   7.201  0.7433  2.7767 -1.0707
  789MOL0     H 6490   0.681   3.678   7.239  0.3245 -0.4065  0.0537
  789MOL0     H 6491   0.732   3.601   7.006 -0.3002 -0.7171 -0.1878
  789MOL0     H 6492   0.585   3.522   7.069 -0.0703  0.9775  0.2492
  789MOL0     H 6493   0.603   3.751   6.876 -3.3774  0.5511  0.0583
  789MOL0     H 6494   0.455   3.660   6.922 -0.8308  1.1177 -2.3208
  789MOL0     H 6495   0.524   3.584   6.698 -2.0348 -0.7366  0.5897
  789MOL0     H 6496   0.568   3.457   6.822 -1.8801 -0.6404 -0.8702
  789MOL0     H 6497   1.097   4.194   7.055 -0.6113  1.5410  1.6395
  789MOL0     H 6498   1.343   4.164   7.007  1.1555 -0.3353  0.8768
  789MOL0     H 6499   1.735   3.854   7.187 -0.2327  1.1821 -0.4057
  789MOL0     H 6500   1.965   3.825   7.198  1.1053  0.9770  1.6857
  789MOL0     H 6501   3.606   3.202   7.981  1.0432 -1.7316  1.1692
  789MOL0     H 6502   3.824   3.138   7.938 -0.7633  1.8755 -0.0199
  789MOL0     H 6503   4.264   3.252   7.664  2.7704 -0.2606 -2.9260
  789MOL0     H 6504   4.467   3.170   7.624  1.1187 -1.6300  0.4339
  789MOL0     H 6505   4.599   3.031   7.471 -0.3826 -0.2110 -0.6057
  789MOL0     H 6506   4.659   3.044   7.640 -0.6974  0.5076 -0.5981
  789MOL0     H 6507   4.706   2.793   7.463  1.9606 -0.2153 -1.7283
  789MOL0     H 6508   4.798   2.845   7.599  0.1423 -0.5321  0.1468
  789MOL0     H 6509   4.869   3.050   7.469  2.1761 -0.9703 -0.5217
  789MOL0     H 6510   4.783   2.993   7.331  0.1071  4.3756  1.6326
  789MOL0     H 6511   5.014   2.836   7.482  0.9663 -0.5890 -1.4784
  789MOL0     H 6512   5.037   2.941   7.334 -0.6191  3.1217  2.9088
  789MOL0     H 6513   4.896   2.577   7.171  0.1083 -1.7753  2.8153
  789MOL0     H 6514   4.311   2.755   7.667  0.0465 -0.6941 -2.9758
  789MOL0     H 6515   4.096   2.847   7.688 -0.2261  0.7800  0.9915
  790MOL0     O 6516   0.301   3.058   4.358 -0.5332  0.5245 -0.0664
  790MOL0     C 6517   0.380   3.042   4.269 -0.1034  0.0924  0.0435
  790MOL0     O 6518   0.351   3.055   4.131 -0.1936 -0.2569  0.3489
  790MOL0     C 6519   0.231   3.129   4.109 -0.2793 -0.9885 -0.4560
  790MOL0     C 6520   0.117   3.070   4.087  1.1473  0.3174  0.4601
  790MOL0     C 6521  -0.011   3.139   4.072  0.5478 -0.3276  0.0575
  790MOL0     C 6522  -0.011   3.283   4.071  0.5333 -0.0748 -0.1277
  790MOL0     O 6523  -0.120   3.361   4.056  0.2622 -0.5525 -0.4546
  790MOL0     C 6524  -0.251   3.309   4.065  1.1745  0.7023  0.0254
  790MOL0     C 6525  -0.350   3.414   4.116 -0.6808 -0.0585  0.0534
  790MOL0     C 6526  -0.499   3.385   4.087 -0.2405  0.5433  0.1281
  790MOL0     C 6527  -0.583   3.510   4.072 -1.0041 -0.0975 -0.2763
  790MOL0     C 6528  -0.587   3.589   4.199 -0.0916  0.0565 -0.1112
  790MOL0     C 6529  -0.693   3.696   4.201 -1.1992 -0.0725 -0.3813
  790MOL0     C 6530  -0.659   3.818   4.122  0.4716  0.2265  0.2595
  790MOL0     C 6531  -0.762   3.934   4.135 -0.3711 -0.6497  0.3455
  790MOL0     N 6532  -0.899   3.891   4.130 -0.1155  0.0127  0.4283
  790MOL0     C 6533  -0.970   3.830   4.020 -1.1926 -0.6809 -0.4673
  790MOL0     C 6534  -1.099   3.811   4.068 -0.7196 -0.0329  0.2440
  790MOL0     C 6535  -1.207   3.759   3.983 -1.1390  0.0107  1.1767
  790MOL0     C 6536  -1.211   3.610   4.014  0.4330  0.2524  0.0013
  790MOL0     C 6537  -1.118   3.525   3.922  0.2454 -0.3347 -0.3844
  790MOL0     C 6538  -1.052   3.416   4.007 -0.9671 -0.4110  0.2285
  790MOL0     O 6539  -1.051   3.291   3.936 -0.0685  0.4794  0.6905
  790MOL0     C 6540  -0.932   3.250   3.875  0.5391  0.0974  1.0938
  790MOL0     C 6541  -0.938   3.112   3.838 -0.4863 -0.1407 -0.8237
  790MOL0     C 6542  -0.826   3.043   3.796 -0.5466 -0.2830 -0.2353
  790MOL0     C 6543  -0.832   2.900   3.767 -0.1370 -0.6616  0.4075
  790MOL0     C 6544  -0.704   3.121   3.767  0.3152  0.3316 -0.3544
  790MOL0     C 6545  -0.576   3.052   3.721 -0.2568  0.6642  0.3710
  790MOL0     O 6546  -0.465   3.102   3.785  0.0684  0.6882 -0.2490
  790MOL0     C 6547  -0.342   3.048   3.752 -0.3491  0.0827  0.3820
  790MOL0     C 6548  -0.229   3.136   3.747 -0.7143 -0.5885 -0.6811
  790MOL0     C 6549  -0.102   3.088   3.731 -0.8080  0.0925 -0.3505
  790MOL0     C 6550  -0.069   2.955   3.729 -0.2745 -0.7009  0.0670
  790MOL0     O 6551   0.070   2.930   3.728 -0.3339  0.2951 -0.1681
  790MOL0     C 6552   0.109   2.827   3.816  0.4529 -0.4190 -0.3537
  790MOL0     C 6553   0.258   2.822   3.834  0.2258  0.1917  0.6199
  790MOL0     C 6554   0.284   2.712   3.941 -1.0560  0.1945  0.0948
  790MOL0     C 6555   0.422   2.652   3.920  0.0073  0.5040  0.2363
  790MOL0     C 6556   0.533   2.749   3.908  0.2780  0.2386 -0.0124
  790MOL0     C 6557   0.667   2.676   3.936 -0.0070 -0.0613 -0.3335
  790MOL0     C 6558   0.700   2.592   3.808 -0.2965  0.1133 -0.2629
  790MOL0     C 6559   0.841   2.541   3.802  0.5416  0.4438 -0.3087
  790MOL0    Cl 6560   0.879   2.484   3.637  0.4169  0.0506  0.4789
  790MOL0     C 6561  -0.176   2.866   3.735 -0.4887 -0.0220 -0.1874
  790MOL0     C 6562  -0.311   2.914   3.756  0.5978  0.4939  1.2913
  790MOL0     O 6563  -0.571   2.964   3.635  0.0267 -0.0699  0.2168
  790MOL0     C 6564  -0.709   3.258   3.788 -0.0666 -0.4635  0.3909
  790MOL0     C 6565  -0.815   3.322   3.839 -0.3701  0.7167 -0.1540
  790MOL0     N 6566  -1.112   3.851   4.200 -0.3769  0.5354  0.1326
  790MOL0     N 6567  -0.992   3.895   4.233 -0.3788  0.4785  0.3067
  790MOL0     C 6568   0.111   3.345   4.091  0.5322 -0.6911 -0.6133
  790MOL0     C 6569   0.225   3.266   4.113 -0.4821 -0.3100  0.4710
  790MOL0     C 6570   0.519   3.017   4.316 -0.2757  0.1357  1.0106
  790MOL0     C 6571   0.628   3.051   4.228 -0.5616 -0.0363 -0.6564
  790MOL0     C 6572   0.754   3.019   4.276 -0.3806 -0.6431 -0.2396
  790MOL0     C 6573   0.783   2.960   4.397 -0.5092 -0.0898 -0.1941
  790MOL0     O 6574   0.917   2.921   4.416 -0.2367 -0.4445 -1.0662
  790MOL0     C 6575   0.961   2.913   4.555  0.9332  0.6051  0.6978
  790MOL0     C 6576   1.095   2.843   4.552 -0.4379  0.0112  0.4533
  790MOL0     C 6577   1.085   2.684   4.559 -0.2258  0.0977 -0.1269
  790MOL0     C 6578   1.035   2.630   4.425  0.8877  0.1775 -0.3218
  790MOL0     C 6579   1.022   2.482   4.419 -0.6956  0.2625 -0.0913
  790MOL0     C 6580   1.031   2.362   4.400  0.6015 -0.8323  0.5122
  790MOL0     C 6581   0.680   2.934   4.482  0.0667  0.4327 -0.4128
  790MOL0     C 6582   0.550   2.970   4.445 -0.5579  0.0719  0.0880
  790MOL0     H 6583   0.113   2.962   4.097 -1.9207  0.0734 -2.0082
  790MOL0     H 6584  -0.105   3.087   4.069 -2.2740  4.2116 -0.3147
  790MOL0     H 6585  -0.294   3.275   3.970  1.3232  3.2452 -1.0452
  790MOL0     H 6586  -0.257   3.234   4.143  0.1242  0.1145 -0.5988
  790MOL0     H 6587  -0.346   3.423   4.225 -0.8500  0.3259  0.0273
  790MOL0     H 6588  -0.339   3.510   4.064 -1.6399 -1.7317 -3.5447
  790MOL0     H 6589  -0.514   3.323   3.998 -0.6919  1.1520 -0.2288
  790MOL0     H 6590  -0.539   3.325   4.169 -0.3074  0.2162 -0.1444
  790MOL0     H 6591  -0.546   3.567   3.987  2.0235 -1.0716  0.2881
  790MOL0     H 6592  -0.687   3.481   4.053 -0.3121 -4.1708  1.0242
  790MOL0     H 6593  -0.597   3.510   4.274  3.5919  1.4039  2.0651
  790MOL0     H 6594  -0.492   3.640   4.219  0.2958 -1.0594  1.0706
  790MOL0     H 6595  -0.783   3.650   4.158 -0.6121 -0.5696 -1.1074
  790MOL0     H 6596  -0.720   3.728   4.302 -1.6380  0.2052 -0.5853
  790MOL0     H 6597  -0.559   3.856   4.148  0.8766 -1.6267  1.6049
  790MOL0     H 6598  -0.668   3.789   4.017 -2.9811 -1.6672  0.9738
  790MOL0     H 6599  -0.750   4.002   4.051  0.0108 -0.7511  0.3142
  790MOL0     H 6600  -0.742   3.988   4.228  0.1124 -0.5757  0.1981
  790MOL0     H 6601  -0.927   3.801   3.924 -1.5368 -0.6229 -0.6417
  790MOL0     H 6602  -1.308   3.799   3.994 -0.7296  1.4285 -0.0273
  790MOL0     H 6603  -1.180   3.773   3.878  0.6905 -0.0106  1.6084
  790MOL0     H 6604  -1.311   3.567   4.001  0.7261 -0.0599 -1.3691
  790MOL0     H 6605  -1.197   3.602   4.122 -1.9211 -0.1740  0.3476
  790MOL0     H 6606  -1.040   3.583   3.873  0.5436 -0.5686 -0.1841
  790MOL0     H 6607  -1.185   3.486   3.844 -0.3772  1.2409 -0.6633
  790MOL0     H 6608  -1.101   3.405   4.104 -0.2686  0.6272  0.7178
  790MOL0     H 6609  -0.951   3.451   4.032 -1.7333  0.3457  2.5344
  790MOL0     H 6610  -1.028   3.055   3.863  0.3577  0.4547  4.6577
  790MOL0     H 6611  -0.932   2.868   3.796 -0.6545  0.5447  0.0191
  790MOL0     H 6612  -0.810   2.890   3.660 -0.7102 -1.1659  0.3338
  790MOL0     H 6613  -0.757   2.842   3.822 -0.9564 -2.0885  0.0636
  790MOL0     H 6614  -0.258   3.241   3.746 -0.5099 -0.5349 -0.9804
  790MOL0     H 6615  -0.030   3.160   3.694  0.1202 -1.1905 -1.1114
  790MOL0     H 6616   0.054   2.824   3.911 -1.2808  2.5172 -1.1266
  790MOL0     H 6617   0.074   2.739   3.763 -2.8972  0.3565  0.3541
  790MOL0     H 6618   0.310   2.799   3.740  1.2291 -2.2144  1.6981
  790MOL0     H 6619   0.291   2.916   3.878 -0.7163 -0.3369  2.5419
  790MOL0     H 6620   0.214   2.628   3.939  1.5046 -2.1891  2.0550
  790MOL0     H 6621   0.270   2.761   4.038  0.7470 -0.2519  0.6346
  790MOL0     H 6622   0.440   2.585   4.005  0.2391  0.6665  0.3169
  790MOL0     H 6623   0.436   2.596   3.827  2.1090 -0.1200  0.8521
  790MOL0     H 6624   0.527   2.831   3.980  1.9809 -0.1028  0.5554
  790MOL0     H 6625   0.533   2.792   3.807 -0.9584  1.2776  0.4053
  790MOL0     H 6626   0.743   2.755   3.941  0.0866 -0.1982  0.5485
  790MOL0     H 6627   0.675   2.611   4.024  2.8069  0.0492 -0.4059
  790MOL0     H 6628   0.703   2.654   3.718  0.7706  1.3212  0.5783
  790MOL0     H 6629   0.634   2.505   3.798 -0.6029  0.4600 -1.4997
  790MOL0     H 6630   0.858   2.466   3.880 -0.9899 -1.4510 -1.6824
  790MOL0     H 6631   0.909   2.624   3.821 -0.0418  0.3366  2.7679
  790MOL0     H 6632  -0.140   2.764   3.743  1.9013  0.8358  1.0661
  790MOL0     H 6633  -0.392   2.843   3.769  1.4688 -0.9486 -0.6083
  790MOL0     H 6634  -0.619   3.313   3.766 -0.3945  0.3425  0.9794
  790MOL0     H 6635  -0.802   3.428   3.855  3.1797  0.2205  1.3243
  790MOL0     H 6636   0.126   3.452   4.091 -1.0456 -0.4481 -1.4892
  790MOL0     H 6637   0.318   3.315   4.140 -0.2579 -1.5244  2.0223
  790MOL0     H 6638   0.615   3.065   4.121  1.6498 -1.9223 -1.2470
  790MOL0     H 6639   0.841   3.048   4.218  0.6891 -3.1588 -0.0242
  790MOL0     H 6640   0.963   3.011   4.603 -0.3660  0.5768  0.8351
  790MOL0     H 6641   0.895   2.850   4.615 -1.4858  0.8888 -1.4795
  790MOL0     H 6642   1.152   2.871   4.641  1.7656 -1.7209 -0.3067
  790MOL0     H 6643   1.144   2.872   4.458 -1.7767 -1.9494 -0.9384
  790MOL0     H 6644   1.016   2.642   4.633 -2.7766 -1.1369 -2.9909
  790MOL0     H 6645   1.181   2.638   4.582 -0.9582 -2.0810 -1.1413
  790MOL0     H 6646   1.102   2.664   4.345  0.2310  2.1488 -0.0971
  790MOL0     H 6647   0.936   2.671   4.401  0.2847 -0.7697  0.4536
  790MOL0     H 6648   1.026   2.256   4.385  1.9673 -0.8299 -0.0862
  790MOL0     H 6649   0.701   2.875   4.571  3.6420 -3.3085 -3.2692
  790MOL0     H 6650   0.472   2.935   4.513  1.3541 -0.4150  2.1273
  791MOL0     O 6651   8.945   2.609  11.005  0.4356  0.6744  0.3899
  791MOL0     C 6652   8.988   2.675  10.909  0.6496 -0.9686  0.6260
  791MOL0     O 6653   8.906   2.763  10.831 -0.0930 -0.4952  0.7959
  791MOL0     C 6654   8.772   2.773  10.855  0.5026 -0.2053  0.1616
  791MOL0     C 6655   8.684   2.659  10.882  0.0078  0.4205  0.7673
  791MOL0     C 6656   8.548   2.670  10.896 -0.7451 -0.1573 -0.1260
  791MOL0     C 6657   8.486   2.796  10.866 -0.1137 -0.2811 -0.0858
  791MOL0     O 6658   8.348   2.806  10.872 -0.1732 -0.3260 -0.8341
  791MOL0     C 6659   8.282   2.919  10.825 -0.0522 -0.1738  0.2420
  791MOL0     C 6660   8.134   2.912  10.863 -0.2717 -0.4742 -0.4243
  791MOL0     C 6661   8.100   2.873  11.009 -0.0910 -0.2803  0.8366
  791MOL0     C 6662   7.947   2.876  11.028 -0.1606  0.8297  0.3366
  791MOL0     C 6663   7.898   2.825  11.163  0.0635  0.8095 -0.0791
  791MOL0     C 6664   7.746   2.788  11.160 -0.8858 -0.2595 -0.2744
  791MOL0     C 6665   7.712   2.700  11.281 -0.0625  0.2567  0.6013
  791MOL0     C 6666   7.586   2.619  11.266  0.5794 -0.5028  0.8048
  791MOL0     N 6667   7.460   2.689  11.223  0.2084 -0.2126  1.0036
  791MOL0     C 6668   7.400   2.663  11.101 -1.2760 -0.5603  0.4778
  791MOL0     C 6669   7.278   2.723  11.101 -0.2363  0.4624 -0.3603
  791MOL0     C 6670   7.176   2.694  10.997  0.0375 -1.2089 -0.2577
  791MOL0     C 6671   7.031   2.703  11.047  0.2421  0.3903 -0.2152
  791MOL0     C 6672   6.946   2.672  10.926  0.3478 -0.1187  0.1266
  791MOL0     C 6673   6.799   2.644  10.947  0.8063  0.3407 -0.5471
  791MOL0     O 6674   6.742   2.623  10.819 -0.0833  0.5820 -0.3282
  791MOL0     C 6675   6.622   2.565  10.823 -0.1197 -0.0874  0.5859
  791MOL0     C 6676   6.595   2.471  10.719 -0.1598  0.0704 -0.7262
  791MOL0     C 6677   6.470   2.429  10.692 -0.1923 -0.2064 -0.9163
  791MOL0     C 6678   6.465   2.337  10.568  0.4846  0.3524 -0.1154
  791MOL0     C 6679   6.360   2.485  10.766 -0.6556 -0.1048  0.1687
  791MOL0     C 6680   6.220   2.453  10.731 -0.0121 -0.2757  0.2130
  791MOL0     O 6681   6.194   2.419  10.601  0.0038  0.6508 -0.0603
  791MOL0     C 6682   6.063   2.389  10.554  0.0501  0.1299 -0.0452
  791MOL0     C 6683   5.937   2.412  10.607 -0.5094 -0.0343  0.0766
  791MOL0     C 6684   5.821   2.380  10.551  0.9206  0.7878 -0.4474
  791MOL0     C 6685   5.823   2.338  10.416  0.4949 -0.2906  0.6563
  791MOL0     O 6686   5.697   2.319  10.356 -0.6660 -0.6965  0.3773
  791MOL0     C 6687   5.690   2.238  10.240  0.2901 -0.3231  0.0948
  791MOL0     C 6688   5.552   2.179  10.229 -0.1612 -0.9986 -0.0965
  791MOL0     C 6689   5.457   2.305  10.207 -0.2648  0.5486  0.4316
  791MOL0     C 6690   5.321   2.262  10.153  0.1737 -0.5635  1.1097
  791MOL0     C 6691   5.225   2.376  10.108 -0.3962  0.7738 -0.7134
  791MOL0     C 6692   5.089   2.311  10.143  0.8490 -0.3469 -0.3692
  791MOL0     C 6693   4.978   2.417  10.150  0.5103 -0.5896  0.2332
  791MOL0     C 6694   4.833   2.356  10.155 -0.4111 -1.4700 -1.2062
  791MOL0    Cl 6695   4.703   2.484  10.205  0.5473  0.5187  0.1168
  791MOL0     C 6696   5.944   2.316  10.353  0.5728 -0.0249 -0.1231
  791MOL0     C 6697   6.062   2.334  10.423 -0.1932 -0.4335 -0.6498
  791MOL0     O 6698   6.143   2.434  10.827 -1.1436  0.2493  0.5487
  791MOL0     C 6699   6.392   2.550  10.884  0.6229  0.3001 -0.8618
  791MOL0     C 6700   6.519   2.611  10.901 -0.0745  0.0359  0.2055
  791MOL0     N 6701   7.258   2.772  11.227 -0.1430  0.0456  0.4138
  791MOL0     N 6702   7.374   2.757  11.293 -0.1182 -0.6809 -0.1153
  791MOL0     C 6703   8.568   2.903  10.825  0.8939  0.1591 -0.4156
  791MOL0     C 6704   8.707   2.894  10.826  0.7655 -0.5774  0.2947
  791MOL0     C 6705   9.133   2.671  10.880  0.0413  0.1839 -0.7988
  791MOL0     C 6706   9.226   2.573  10.944 -0.2897 -0.4458 -0.9300
  791MOL0     C 6707   9.366   2.579  10.926  0.1862 -0.1654  0.4907
  791MOL0     C 6708   9.418   2.688  10.851  0.4504 -0.0540  0.6024
  791MOL0     O 6709   9.548   2.706  10.829 -0.5885  0.8433 -0.5799
  791MOL0     C 6710   9.627   2.591  10.789  1.1357 -0.2581 -0.7165
  791MOL0     C 6711   9.760   2.634  10.751  0.1023  0.4303 -0.3450
  791MOL0     C 6712   9.782   2.705  10.612  0.0627  0.5903  1.1865
  791MOL0     C 6713   9.778   2.600  10.498  0.1932 -0.3950 -0.3984
  791MOL0     C 6714   9.834   2.635  10.369  0.7667 -0.5382  0.0649
  791MOL0     C 6715   9.875   2.645  10.252 -0.3063 -1.0271 -0.6023
  791MOL0     C 6716   9.327   2.784  10.786 -0.1271  0.0806  0.0444
  791MOL0     C 6717   9.188   2.766  10.790 -0.9686  0.3793 -0.3192
  791MOL0     H 6718   8.712   2.554  10.891 -1.0062  0.1561  1.0328
  791MOL0     H 6719   8.482   2.584  10.909 -0.9435  0.1106  0.7201
  791MOL0     H 6720   8.316   3.011  10.875 -1.3205 -1.2308  3.2832
  791MOL0     H 6721   8.301   2.914  10.717 -0.5617 -0.7130  0.1775
  791MOL0     H 6722   8.083   3.005  10.838  0.3711  0.1121  0.3982
  791MOL0     H 6723   8.080   2.839  10.802 -1.5894  0.8537 -0.8948
  791MOL0     H 6724   8.131   2.768  11.020 -2.5296 -1.3658 -1.4193
  791MOL0     H 6725   8.152   2.934  11.082  1.3005  0.8285 -0.9882
  791MOL0     H 6726   7.921   2.981  11.010 -0.7875  0.3902 -1.6563
  791MOL0     H 6727   7.899   2.821  10.946  1.5203 -0.8252  0.3880
  791MOL0     H 6728   7.967   2.740  11.174 -0.1948  0.4927 -0.8651
  791MOL0     H 6729   7.926   2.905  11.232  0.8182  0.2097  0.3344
  791MOL0     H 6730   7.687   2.879  11.150  0.5674  0.9674  1.5681
  791MOL0     H 6731   7.731   2.737  11.064  4.4150 -2.1031 -0.4254
  791MOL0     H 6732   7.790   2.628  11.307 -2.1615 -1.5062  2.4691
  791MOL0     H 6733   7.702   2.767  11.367  2.1589  1.7020 -0.1861
  791MOL0     H 6734   7.575   2.562  11.359 -0.9032  0.2914  1.1415
  791MOL0     H 6735   7.609   2.544  11.190  1.8634  1.7628 -1.1617
  791MOL0     H 6736   7.453   2.612  11.021 -2.9080 -3.0763  0.8935
  791MOL0     H 6737   7.199   2.761  10.914  0.1868  0.6322  1.2085
  791MOL0     H 6738   7.196   2.593  10.959 -1.7912 -1.0387 -1.8609
  791MOL0     H 6739   7.020   2.806  11.082 -1.2948  0.4432 -0.7882
  791MOL0     H 6740   7.028   2.630  11.128  1.1982  1.5744  0.9360
  791MOL0     H 6741   6.989   2.583  10.880 -0.9473 -0.3446 -0.6879
  791MOL0     H 6742   6.955   2.757  10.858  4.1241 -0.5259 -0.1186
  791MOL0     H 6743   6.755   2.732  10.992 -3.8629 -0.9826 -1.9814
  791MOL0     H 6744   6.779   2.550  11.000  0.4367 -0.2251 -1.6441
  791MOL0     H 6745   6.679   2.425  10.668  0.5271 -1.0708  1.3141
  791MOL0     H 6746   6.565   2.298  10.545  0.5611 -0.1211  0.9888
  791MOL0     H 6747   6.402   2.250  10.587  1.3161 -0.0012  1.1525
  791MOL0     H 6748   6.425   2.384  10.478 -1.1369 -1.2047 -0.2774
  791MOL0     H 6749   5.937   2.460  10.705  0.5800 -1.7963  0.9956
  791MOL0     H 6750   5.724   2.389  10.599  1.7720  2.2335  1.0755
  791MOL0     H 6751   5.706   2.305  10.155 -2.1611 -0.2438 -0.3866
  791MOL0     H 6752   5.763   2.157  10.234  0.9570  0.3340 -1.2247
  791MOL0     H 6753   5.543   2.125  10.135  0.3457 -0.8258 -0.2442
  791MOL0     H 6754   5.524   2.116  10.314  1.1322  0.6586  1.6481
  791MOL0     H 6755   5.501   2.381  10.142  0.2200 -1.1288 -1.2816
  791MOL0     H 6756   5.446   2.356  10.303  1.1842  0.0215  0.9054
  791MOL0     H 6757   5.327   2.195  10.066  1.0724 -0.0342  0.7456
  791MOL0     H 6758   5.277   2.205  10.235  0.2940 -2.2487  0.0625
  791MOL0     H 6759   5.232   2.402  10.002 -0.2471  1.3511 -0.5657
  791MOL0     H 6760   5.232   2.469  10.166  3.4606  0.4635 -0.4302
  791MOL0     H 6761   5.069   2.225  10.078  0.3477 -1.4295  1.1620
  791MOL0     H 6762   5.089   2.271  10.245 -0.2425 -0.7034 -0.4869
  791MOL0     H 6763   4.983   2.477  10.059  0.3356 -1.6718 -0.5092
  791MOL0     H 6764   4.991   2.479  10.239 -0.7029 -0.1855  0.1530
  791MOL0     H 6765   4.840   2.277  10.231  2.0303  0.0786  0.2859
  791MOL0     H 6766   4.814   2.304  10.060  0.5200 -1.3642 -1.4596
  791MOL0     H 6767   5.942   2.269  10.256  0.6666 -1.9307  0.7526
  791MOL0     H 6768   6.157   2.313  10.376  0.4733 -0.0722  0.4907
  791MOL0     H 6769   6.303   2.568  10.944  1.9237 -0.6173  1.4755
  791MOL0     H 6770   6.522   2.680  10.985  1.7599 -1.3873  1.4019
  791MOL0     H 6771   8.515   2.996  10.804 -0.8188 -0.3689  1.2653
  791MOL0     H 6772   8.763   2.983  10.798 -0.2864  0.0907  0.2332
  791MOL0     H 6773   9.173   2.515  11.019  0.9759 -0.7994 -0.2738
  791MOL0     H 6774   9.432   2.508  10.975  0.4576 -1.4656 -1.6292
  791MOL0     H 6775   9.632   2.513  10.866  1.3454 -1.8991 -2.3279
  791MOL0     H 6776   9.579   2.544  10.703 -0.5805  0.1753 -0.0318
  791MOL0     H 6777   9.826   2.548  10.762  0.3628  0.8113  1.3754
  791MOL0     H 6778   9.790   2.702  10.831 -0.5358  0.8434 -0.4471
  791MOL0     H 6779   9.884   2.745  10.607  0.5149 -0.7077 -1.5098
  791MOL0     H 6780   9.712   2.786  10.587  0.7164  0.7980 -0.0183
  791MOL0     H 6781   9.674   2.570  10.485 -0.6514  2.4422 -0.8825
  791MOL0     H 6782   9.833   2.509  10.523  4.2508  1.4868 -1.5882
  791MOL0     H 6783   9.915   2.660  10.154  2.1877  0.3714  0.5565
  791MOL0     H 6784   9.381   2.858  10.728 -0.6319  1.3627  1.1541
  791MOL0     H 6785   9.121   2.825  10.729 -0.1230 -0.0600 -1.7261
  792MOL0     O 6786   0.089   9.871   6.359  0.0879  0.2178  0.4382
  792MOL0     C 6787   0.091   9.802   6.460 -0.1243 -0.0828  0.3029
  792MOL0     O 6788  -0.012   9.799   6.556  0.1486  0.4919  0.2177
  792MOL0     C 6789  -0.114   9.888   6.536  0.1505  0.8622  0.3374
  792MOL0     C 6790  -0.190   9.900   6.412 -0.2891  0.9705  0.3059
  792MOL0     C 6791  -0.288   9.995   6.404  1.0667  0.0107 -0.1184
  792MOL0     C 6792  -0.325  10.078   6.510 -0.6091  0.1119 -0.5119
  792MOL0     O 6793  -0.414  10.176   6.484 -0.7246  0.5256 -0.4472
  792MOL0     C 6794  -0.440  10.275   6.588 -0.5717  0.3725 -0.1322
  792MOL0     C 6795  -0.545  10.223   6.692 -0.0623  0.4326  0.1734
  792MOL0     C 6796  -0.580  10.339   6.771 -0.0321 -0.7320 -0.2701
  792MOL0     C 6797  -0.692  10.307   6.869  0.0015  0.8059  0.2747
  792MOL0     C 6798  -0.715  10.402   6.994 -0.3915  1.5462 -0.3393
  792MOL0     C 6799  -0.699  10.551   6.973  0.6212 -0.2673  0.6364
  792MOL0     C 6800  -0.628  10.618   7.093  0.1047  0.1999  0.0856
  792MOL0     C 6801  -0.568  10.762   7.061 -0.2050 -0.0329  0.4143
  792MOL0     N 6802  -0.673  10.876   7.072 -0.1211 -0.3168 -0.0046
  792MOL0     C 6803  -0.739  10.915   7.187 -0.3671  0.2573  0.3304
  792MOL0     C 6804  -0.827  11.006   7.151 -0.7866 -0.9705  0.2397
  792MOL0     C 6805  -0.890  11.084   7.259  0.7641 -0.2590  0.6100
  792MOL0     C 6806  -1.009  11.017   7.321  0.5833 -0.3022  0.0065
  792MOL0     C 6807  -1.073  11.110   7.430  0.4574  0.7354 -0.2254
  792MOL0     C 6808  -1.202  11.035   7.487  0.2764 -0.1298 -0.0968
  792MOL0     O 6809  -1.256  11.116   7.589  0.2112 -0.5017 -1.1740
  792MOL0     C 6810  -1.369  11.074   7.654  0.6849 -0.1728 -0.3053
  792MOL0     C 6811  -1.391  10.947   7.702  0.4037 -0.4018  0.2459
  792MOL0     C 6812  -1.519  10.909   7.750 -0.3126 -0.5650 -0.0787
  792MOL0     C 6813  -1.531  10.767   7.796  0.9267  0.4442 -0.2065
  792MOL0     C 6814  -1.621  11.008   7.772  0.1501  0.4797  0.0923
  792MOL0     C 6815  -1.750  10.973   7.838  0.2939 -0.8642 -0.3116
  792MOL0     O 6816  -1.860  10.973   7.760  0.2067 -0.1943  0.1704
  792MOL0     C 6817  -1.980  10.944   7.816  0.7145  0.6510  0.3909
  792MOL0     C 6818  -2.009  10.807   7.840  0.1738  0.0929 -0.2600
  792MOL0     C 6819  -2.133  10.766   7.887  0.3218  0.8157  0.5280
  792MOL0     C 6820  -2.229  10.864   7.913  0.3844  0.4422 -0.0709
  792MOL0     O 6821  -2.348  10.822   7.960 -0.0365  0.3460 -0.0930
  792MOL0     C 6822  -2.420  10.892   8.071 -0.7755  0.0825 -0.1541
  792MOL0     C 6823  -2.525  10.791   8.124 -0.2634  0.1532  0.3176
  792MOL0     C 6824  -2.618  10.840   8.237 -0.5972  0.8027  0.0774
  792MOL0     C 6825  -2.720  10.937   8.185  0.6690 -1.1485 -0.2845
  792MOL0     C 6826  -2.838  10.969   8.276  0.6540 -0.4681  0.3850
  792MOL0     C 6827  -2.930  10.851   8.305  0.6317  0.1728 -0.7999
  792MOL0     C 6828  -3.063  10.881   8.377 -0.2884  0.0302 -0.4637
  792MOL0     C 6829  -3.136  10.763   8.426 -0.1177  0.2022 -0.5879
  792MOL0    Cl 6830  -3.314  10.785   8.460  0.1267  0.0057 -0.3091
  792MOL0     C 6831  -2.203  10.996   7.897 -0.4012 -0.4374  0.2590
  792MOL0     C 6832  -2.082  11.040   7.845 -0.6912  0.0939 -0.0452
  792MOL0     O 6833  -1.746  10.963   7.960  0.2047 -0.1226  0.1090
  792MOL0     C 6834  -1.594  11.140   7.731  0.1334  1.0085  0.4001
  792MOL0     C 6835  -1.471  11.167   7.671 -0.1546  0.2631  0.7371
  792MOL0     N 6836  -0.819  11.030   7.016  0.4042  0.7031 -0.7200
  792MOL0     N 6837  -0.728  10.946   6.970  0.3160  0.4657 -0.6126
  792MOL0     C 6838  -0.267  10.048   6.635  0.0490  0.0939 -0.0982
  792MOL0     C 6839  -0.162   9.962   6.648 -0.4435  0.0938 -0.2413
  792MOL0     C 6840   0.213   9.727   6.492  0.2389 -0.3733  1.2305
  792MOL0     C 6841   0.265   9.713   6.618 -0.7774 -0.1782 -0.3259
  792MOL0     C 6842   0.394   9.654   6.635  0.2705 -0.6268 -0.0335
  792MOL0     C 6843   0.469   9.608   6.533 -0.0358  0.4034  0.7593
  792MOL0     O 6844   0.591   9.552   6.542 -0.4485 -0.1660 -0.5697
  792MOL0     C 6845   0.650   9.523   6.671 -1.0321 -0.5114 -0.2432
  792MOL0     C 6846   0.719   9.640   6.744 -0.1831  0.3938  1.0389
  792MOL0     C 6847   0.834   9.707   6.666  0.3774 -0.5137  0.0920
  792MOL0     C 6848   0.945   9.610   6.617  0.3974  1.1537  0.0952
  792MOL0     C 6849   1.004   9.533   6.727  0.0715 -0.5020  0.2931
  792MOL0     C 6850   1.045   9.470   6.824 -0.9290 -0.2207 -0.0496
  792MOL0     C 6851   0.425   9.624   6.405 -0.1638  0.1007  0.1543
  792MOL0     C 6852   0.296   9.680   6.381 -0.1705 -0.6657  0.8492
  792MOL0     H 6853  -0.156   9.836   6.332  0.5751  2.6347 -0.7324
  792MOL0     H 6854  -0.336  10.020   6.310  2.1648  0.2944 -0.6218
  792MOL0     H 6855  -0.352  10.303   6.646 -1.2882 -0.9626  1.6965
  792MOL0     H 6856  -0.465  10.375   6.553  1.3038  1.7312  2.1435
  792MOL0     H 6857  -0.635  10.182   6.645 -0.3697  0.7737  0.4571
  792MOL0     H 6858  -0.511  10.152   6.769 -2.1905 -0.8629 -0.0125
  792MOL0     H 6859  -0.487  10.385   6.803  0.8469 -0.7495 -2.6005
  792MOL0     H 6860  -0.623  10.422   6.713 -1.7461  0.1982  2.1518
  792MOL0     H 6861  -0.783  10.310   6.808  0.3276  0.4165 -0.2420
  792MOL0     H 6862  -0.682  10.203   6.902  0.0594  1.2792  1.8046
  792MOL0     H 6863  -0.812  10.376   7.037 -1.0877  1.1673 -2.0665
  792MOL0     H 6864  -0.638  10.376   7.067  0.3787  3.1516 -0.5273
  792MOL0     H 6865  -0.637  10.575   6.886 -0.4049 -1.0114 -0.3141
  792MOL0     H 6866  -0.796  10.596   6.950  1.0712 -0.4364 -1.8243
  792MOL0     H 6867  -0.692  10.628   7.181  1.2006 -0.6556  1.0061
  792MOL0     H 6868  -0.539  10.564   7.126  1.3014  1.9372 -0.1068
  792MOL0     H 6869  -0.507  10.769   6.971  3.6547  1.1575  2.8676
  792MOL0     H 6870  -0.493  10.790   7.136  0.1055 -0.7214  0.3580
  792MOL0     H 6871  -0.731  10.865   7.283  0.6023 -0.2910 -0.0215
  792MOL0     H 6872  -0.821  11.109   7.340  2.2543 -2.5994  0.1853
  792MOL0     H 6873  -0.915  11.177   7.209  0.7625 -1.0429 -0.9090
  792MOL0     H 6874  -0.974  10.921   7.362  2.6508  0.5734  0.4201
  792MOL0     H 6875  -1.080  10.997   7.240 -0.3188  0.4764  0.5803
  792MOL0     H 6876  -1.109  11.200   7.380  1.2875  0.7206 -0.8607
  792MOL0     H 6877  -0.998  11.120   7.509 -0.6142  1.9751  0.6812
  792MOL0     H 6878  -1.179  10.934   7.522  0.5859  0.3344  1.0969
  792MOL0     H 6879  -1.273  11.020   7.405 -1.1740  0.6366  0.9664
  792MOL0     H 6880  -1.318  10.866   7.694  0.9264  0.0035  0.8182
  792MOL0     H 6881  -1.465  10.685   7.765  1.2462 -0.1260  1.8355
  792MOL0     H 6882  -1.533  10.774   7.905 -3.8461 -2.4041  0.1833
  792MOL0     H 6883  -1.634  10.739   7.769  0.5641  1.0447  0.5171
  792MOL0     H 6884  -1.929  10.741   7.804  0.4751 -0.6420  1.6419
  792MOL0     H 6885  -2.169  10.664   7.890  2.1641  0.1282  0.9389
  792MOL0     H 6886  -2.358  10.917   8.157  0.3359 -0.1038 -0.8880
  792MOL0     H 6887  -2.471  10.982   8.034  0.2317  0.5988 -0.3189
  792MOL0     H 6888  -2.581  10.774   8.032  0.1911  0.9778 -0.1189
  792MOL0     H 6889  -2.480  10.698   8.160  1.2655  1.3605  1.6985
  792MOL0     H 6890  -2.561  10.891   8.316 -1.5580  1.3911  0.4088
  792MOL0     H 6891  -2.664  10.747   8.272  0.6617 -0.2765 -0.9939
  792MOL0     H 6892  -2.671  11.033   8.166 -0.2858 -0.8024 -1.0688
  792MOL0     H 6893  -2.762  10.899   8.091  1.6810 -0.6551 -0.9628
  792MOL0     H 6894  -2.888  11.055   8.231 -2.1978 -1.6116  1.1558
  792MOL0     H 6895  -2.805  11.015   8.369 -1.5105  1.0094  0.4877
  792MOL0     H 6896  -2.959  10.822   8.204  4.3839 -1.7116 -1.5125
  792MOL0     H 6897  -2.872  10.772   8.355 -0.0237  0.2078  0.0525
  792MOL0     H 6898  -3.133  10.930   8.309 -1.8116 -1.9197 -0.3991
  792MOL0     H 6899  -3.032  10.935   8.467  0.8575 -2.9291  1.0669
  792MOL0     H 6900  -3.099  10.727   8.522 -0.6091  3.0760  0.7974
  792MOL0     H 6901  -3.126  10.685   8.349 -0.2389 -0.6392  0.2355
  792MOL0     H 6902  -2.285  11.062   7.928 -0.5912 -0.4495 -0.2176
  792MOL0     H 6903  -2.065  11.148   7.844  2.6018 -0.3126  0.6118
  792MOL0     H 6904  -1.672  11.212   7.751  1.8201  2.2465  3.0027
  792MOL0     H 6905  -1.459  11.264   7.624  0.0960  0.2144  0.6940
  792MOL0     H 6906  -0.292  10.100   6.727 -4.0296  0.2105 -1.0760
  792MOL0     H 6907  -0.111   9.949   6.743  3.0609 -0.8524 -2.0475
  792MOL0     H 6908   0.220   9.761   6.705  0.9975  1.5655 -0.2771
  792MOL0     H 6909   0.429   9.655   6.737 -0.5041  0.5081  0.2422
  792MOL0     H 6910   0.566   9.496   6.736 -0.7391 -1.3649 -0.2063
  792MOL0     H 6911   0.709   9.431   6.663  0.2533  0.0947  1.5929
  792MOL0     H 6912   0.766   9.608   6.838 -0.2049  3.8810  2.3995
  792MOL0     H 6913   0.645   9.717   6.772 -2.0050 -0.3744 -1.3652
  792MOL0     H 6914   0.871   9.774   6.745 -2.7709 -0.6918  1.8932
  792MOL0     H 6915   0.795   9.765   6.582  0.4431  0.0893  0.4704
  792MOL0     H 6916   1.026   9.669   6.574  0.2637  2.3959  1.4529
  792MOL0     H 6917   0.906   9.546   6.538  0.1003  2.7207 -1.0889
  792MOL0     H 6918   1.080   9.406   6.901 -1.9729 -1.7212 -0.7817
  792MOL0     H 6919   0.495   9.591   6.327  2.0282  2.3533  1.0334
  792MOL0     H 6920   0.275   9.687   6.275  1.0103  1.3368  0.7069
  793MOL0     O 6921   1.138   4.932   3.309 -0.1392 -0.3316  0.3432
  793MOL0     C 6922   1.219   5.024   3.302  0.1284 -0.3548  0.1616
  793MOL0     O 6923   1.196   5.153   3.357  0.2203 -0.1346  0.4474
  793MOL0     C 6924   1.064   5.185   3.394 -0.9773  0.4501  0.5922
  793MOL0     C 6925   1.059   5.282   3.493 -0.1213  0.4540  0.1310
  793MOL0     C 6926   0.935   5.331   3.542 -0.5623 -1.0957  0.2361
  793MOL0     C 6927   0.813   5.295   3.487 -0.2617 -0.7455 -0.5165
  793MOL0     O 6928   0.692   5.346   3.546 -0.9194 -0.4025 -0.3128
  793MOL0     C 6929   0.581   5.364   3.458  0.7133  0.1108  0.4292
  793MOL0     C 6930   0.483   5.451   3.534  0.3973  0.1599  0.1464
  793MOL0     C 6931   0.356   5.471   3.442  0.4626 -0.7613 -0.2041
  793MOL0     C 6932   0.278   5.583   3.505  0.4286 -0.6080 -0.0528
  793MOL0     C 6933   0.136   5.602   3.443 -0.1598  0.3056  0.1582
  793MOL0     C 6934   0.020   5.493   3.481 -0.0161 -0.5374  0.9906
  793MOL0     C 6935  -0.112   5.542   3.422  0.7166  0.3337  0.4110
  793MOL0     C 6936  -0.227   5.437   3.444 -0.2656 -0.3121 -0.2336
  793MOL0     N 6937  -0.353   5.474   3.382 -0.4174 -0.1780 -0.4153
  793MOL0     C 6938  -0.448   5.543   3.444  0.3337 -0.2596  0.4044
  793MOL0     C 6939  -0.539   5.578   3.345  0.0446 -0.1762  0.3540
  793MOL0     C 6940  -0.672   5.642   3.362 -0.2669  0.8853  0.6678
  793MOL0     C 6941  -0.667   5.761   3.458  0.5180  0.0531 -0.0845
  793MOL0     C 6942  -0.801   5.818   3.465  0.1198  0.5317  0.2032
  793MOL0     C 6943  -0.813   5.920   3.574 -0.0201 -0.1080  0.6058
  793MOL0     O 6944  -0.817   5.861   3.701  0.0389 -0.3279  0.2012
  793MOL0     C 6945  -0.938   5.832   3.770  0.2235  0.4694 -0.5622
  793MOL0     C 6946  -0.936   5.805   3.909 -0.5552  0.1646  0.5673
  793MOL0     C 6947  -1.051   5.757   3.980 -0.9651  0.0358 -0.3052
  793MOL0     C 6948  -1.022   5.723   4.123  0.2551  0.1033 -0.0838
  793MOL0     C 6949  -1.167   5.746   3.908  0.1669 -0.4191  0.3847
  793MOL0     C 6950  -1.297   5.716   3.976  0.3080 -0.7513 -0.3265
  793MOL0     O 6951  -1.303   5.731   4.118  0.0161 -0.4880  0.1627
  793MOL0     C 6952  -1.422   5.707   4.173  0.2043  0.3581 -0.8586
  793MOL0     C 6953  -1.478   5.575   4.178  0.5730  0.1973  0.1132
  793MOL0     C 6954  -1.609   5.557   4.228 -0.2184  0.3413  0.1777
  793MOL0     C 6955  -1.690   5.657   4.289 -0.1686 -0.7696  0.7093
  793MOL0     O 6956  -1.818   5.642   4.337  0.4140 -0.3396  0.6529
  793MOL0     C 6957  -1.886   5.513   4.317 -0.8544 -0.4827  0.5472
  793MOL0     C 6958  -2.040   5.529   4.340 -0.4352  0.2309  0.0435
  793MOL0     C 6959  -2.071   5.479   4.476 -0.5854 -0.2066  0.6065
  793MOL0     C 6960  -2.215   5.510   4.512 -1.0736  0.8732  0.3047
  793MOL0     C 6961  -2.255   5.425   4.634 -0.4139  0.1348  1.2182
  793MOL0     C 6962  -2.412   5.418   4.650 -0.1846  0.0040  0.3123
  793MOL0     C 6963  -2.455   5.302   4.749  0.1018 -0.2624  0.2802
  793MOL0     C 6964  -2.605   5.290   4.774  0.5413 -0.7496  0.2636
  793MOL0    Cl 6965  -2.640   5.155   4.882  0.1420  0.1183  0.1689
  793MOL0     C 6966  -1.627   5.784   4.303 -0.8653 -0.7145 -0.5619
  793MOL0     C 6967  -1.494   5.811   4.243 -0.5338 -0.2603  0.8880
  793MOL0     O 6968  -1.388   5.669   3.907 -0.0826  0.2760  0.3123
  793MOL0     C 6969  -1.175   5.780   3.770 -0.8714 -0.3339 -0.3178
  793MOL0     C 6970  -1.057   5.809   3.699  0.2920  0.5620 -0.2668
  793MOL0     N 6971  -0.493   5.529   3.224  0.1086  0.2054  0.6732
  793MOL0     N 6972  -0.388   5.458   3.252 -0.2051 -0.8784 -0.3085
  793MOL0     C 6973   0.822   5.205   3.379  0.4551 -0.0265 -0.1113
  793MOL0     C 6974   0.946   5.146   3.331  0.2099  0.4943  0.3466
  793MOL0     C 6975   1.352   5.010   3.258  0.7693 -0.3236  0.4877
  793MOL0     C 6976   1.456   5.110   3.262  0.2072 -0.1790  0.8245
  793MOL0     C 6977   1.580   5.087   3.210 -0.6553  0.1216 -0.7078
  793MOL0     C 6978   1.625   4.965   3.164  0.2148 -0.1274 -0.2098
  793MOL0     O 6979   1.754   4.943   3.121  0.1856 -0.1423  0.1536
  793MOL0     C 6980   1.858   4.951   3.221 -0.1608 -0.0533 -0.2025
  793MOL0     C 6981   1.985   4.955   3.140  0.5357 -0.1234  0.1966
  793MOL0     C 6982   2.119   4.981   3.219  0.3476 -1.0397 -0.0122
  793MOL0     C 6983   2.239   5.027   3.138 -0.4072  0.5155  0.1218
  793MOL0     C 6984   2.360   5.048   3.213 -0.3874 -0.2997 -0.3075
  793MOL0     C 6985   2.452   5.074   3.285 -1.4896  0.6170  0.3251
  793MOL0     C 6986   1.525   4.868   3.158  0.2066 -1.3472 -0.4074
  793MOL0     C 6987   1.394   4.893   3.213 -0.4321  0.4604  0.4771
  793MOL0     H 6988   1.154   5.305   3.541 -0.3530 -1.1192  1.4218
  793MOL0     H 6989   0.944   5.405   3.621  1.0019 -0.6492 -0.3102
  793MOL0     H 6990   0.610   5.422   3.370 -1.7284 -0.0619 -0.5748
  793MOL0     H 6991   0.546   5.266   3.423 -1.0769  0.7868  0.1820
  793MOL0     H 6992   0.463   5.413   3.634 -1.4881 -1.0722 -0.6408
  793MOL0     H 6993   0.540   5.543   3.549  0.8267 -0.3879  2.1873
  793MOL0     H 6994   0.381   5.489   3.338  0.5935  0.5634  0.0467
  793MOL0     H 6995   0.284   5.388   3.446 -0.1054 -0.2393  0.6923
  793MOL0     H 6996   0.267   5.554   3.610 -1.6623 -3.7112 -0.9754
  793MOL0     H 6997   0.321   5.683   3.506 -1.3063  0.2476  3.2850
  793MOL0     H 6998   0.094   5.697   3.479  0.8047  0.0891  1.9798
  793MOL0     H 6999   0.148   5.616   3.335 -0.1187 -0.4944  0.0576
  793MOL0     H 7000   0.048   5.397   3.437  0.8041  0.4077 -0.6147
  793MOL0     H 7001   0.005   5.484   3.589  1.5095  0.9682  1.3632
  793MOL0     H 7002  -0.130   5.640   3.469  2.3567  1.2722 -0.8468
  793MOL0     H 7003  -0.106   5.553   3.314 -0.2511  0.7971  0.3931
  793MOL0     H 7004  -0.232   5.427   3.553  1.0506  1.7163  0.0690
  793MOL0     H 7005  -0.187   5.343   3.406  0.5749  0.4511 -1.2921
  793MOL0     H 7006  -0.464   5.571   3.547  0.3856  0.8547  0.1227
  793MOL0     H 7007  -0.703   5.674   3.262 -0.2539  0.4843  0.5364
  793MOL0     H 7008  -0.748   5.574   3.399  0.0945  0.7056  1.0841
  793MOL0     H 7009  -0.603   5.841   3.420 -1.7384  1.8296 -0.4089
  793MOL0     H 7010  -0.635   5.737   3.560 -3.6785  3.7331  2.4640
  793MOL0     H 7011  -0.882   5.750   3.491 -2.1086  3.8900  2.9020
  793MOL0     H 7012  -0.820   5.857   3.365 -0.0451 -3.9972 -1.7472
  793MOL0     H 7013  -0.907   5.971   3.553 -1.2207 -2.5950 -0.4604
  793MOL0     H 7014  -0.732   5.994   3.581  1.2007 -1.1510 -1.4154
  793MOL0     H 7015  -0.844   5.828   3.961 -1.0263  0.0270  1.4822
  793MOL0     H 7016  -1.063   5.624   4.143  3.1073 -0.8995  1.3083
  793MOL0     H 7017  -0.915   5.721   4.146  0.5044 -3.4620 -0.9954
  793MOL0     H 7018  -1.076   5.794   4.187  0.9104 -1.2205  2.0412
  793MOL0     H 7019  -1.413   5.492   4.150 -0.0493 -0.1888 -0.2055
  793MOL0     H 7020  -1.653   5.460   4.206 -0.2343  0.5328 -0.6524
  793MOL0     H 7021  -1.870   5.482   4.214  1.8913  2.4819 -0.0816
  793MOL0     H 7022  -1.852   5.432   4.382  1.0077  0.5404  0.9467
  793MOL0     H 7023  -2.078   5.631   4.341 -0.9306  0.0636 -0.7649
  793MOL0     H 7024  -2.092   5.484   4.255  0.6878  0.6472 -0.8996
  793MOL0     H 7025  -2.002   5.516   4.553 -1.0982  0.0664  0.9365
  793MOL0     H 7026  -2.058   5.371   4.482  0.3782 -0.3503 -2.4770
  793MOL0     H 7027  -2.218   5.616   4.539  2.6512  1.6616 -1.5995
  793MOL0     H 7028  -2.288   5.485   4.435  0.4251 -2.1234 -0.3117
  793MOL0     H 7029  -2.199   5.463   4.720  1.6278 -0.1949  0.0870
  793MOL0     H 7030  -2.223   5.322   4.618  0.8825  0.9754 -2.5264
  793MOL0     H 7031  -2.441   5.516   4.690 -0.0227  0.5609 -0.8941
  793MOL0     H 7032  -2.459   5.405   4.552 -0.3878 -0.0716  0.4200
  793MOL0     H 7033  -2.402   5.324   4.842 -1.0793 -1.3289  1.2373
  793MOL0     H 7034  -2.414   5.212   4.703  0.9313  0.5948 -0.7257
  793MOL0     H 7035  -2.656   5.281   4.677  2.3336  0.1157 -0.8161
  793MOL0     H 7036  -2.640   5.384   4.820 -1.8943 -2.1672  1.5206
  793MOL0     H 7037  -1.660   5.863   4.370 -2.0609 -0.8620 -0.9426
  793MOL0     H 7038  -1.453   5.911   4.244  0.1005 -0.3263 -2.9221
  793MOL0     H 7039  -1.268   5.785   3.714 -2.1589 -2.6463  1.4162
  793MOL0     H 7040  -1.068   5.812   3.591 -2.0544 -2.2816 -0.2216
  793MOL0     H 7041   0.729   5.164   3.340  0.5850 -1.2205  0.7768
  793MOL0     H 7042   0.955   5.081   3.245 -1.4549  1.1271 -0.3484
  793MOL0     H 7043   1.439   5.213   3.291  2.9603 -0.0404  2.2163
  793MOL0     H 7044   1.643   5.173   3.191  1.0002 -0.9016 -0.0080
  793MOL0     H 7045   1.847   5.046   3.274 -2.7297 -1.2847  1.7225
  793MOL0     H 7046   1.856   4.868   3.293 -4.1513  0.3683  0.4252
  793MOL0     H 7047   1.976   5.040   3.071  0.7873 -1.3768 -1.4443
  793MOL0     H 7048   1.988   4.865   3.078  0.3900  0.2411 -0.3519
  793MOL0     H 7049   2.140   4.883   3.263  0.0715 -1.4721 -0.8169
  793MOL0     H 7050   2.095   5.061   3.289  3.2632 -0.8338  0.8882
  793MOL0     H 7051   2.215   5.121   3.087  0.8809  1.0777  0.5273
  793MOL0     H 7052   2.265   4.955   3.060 -0.5875 -1.0690  1.4859
  793MOL0     H 7053   2.530   5.092   3.357  0.5980 -0.0704 -1.6597
  793MOL0     H 7054   1.546   4.777   3.103  2.1536  0.0788 -2.1526
  793MOL0     H 7055   1.322   4.812   3.216 -1.7768  1.6251  1.0064
  794MOL0     O 7056   8.208   9.272   4.095 -0.9408  0.4993  0.1460
  794MOL0     C 7057   8.108   9.329   4.046  0.0459 -0.0756 -0.1886
  794MOL0     O 7058   8.108   9.434   3.962  0.0841 -0.9889 -0.1655
  794MOL0     C 7059   8.217   9.516   3.946 -1.6510  0.3529 -1.3487
  794MOL0     C 7060   8.200   9.639   3.881 -0.0883  0.0025 -0.7399
  794MOL0     C 7061   8.295   9.740   3.865 -1.1429  0.3668 -0.5264
  794MOL0     C 7062   8.426   9.726   3.922  0.4686 -0.3578  0.2546
  794MOL0     O 7063   8.507   9.836   3.909  0.4954  0.1313  1.0690
  794MOL0     C 7064   8.645   9.848   3.955 -0.0506 -0.7113 -0.0179
  794MOL0     C 7065   8.691   9.984   3.889  0.8892 -0.2710 -0.0560
  794MOL0     C 7066   8.837  10.013   3.914 -0.3953 -0.0325  0.5636
  794MOL0     C 7067   8.866  10.152   3.849  0.0332 -0.6307 -0.3189
  794MOL0     C 7068   9.005  10.201   3.884  0.2722  0.1477  0.5827
  794MOL0     C 7069   8.996  10.362   3.888  0.7317 -0.9761  0.3607
  794MOL0     C 7070   9.120  10.423   3.945 -0.1889  0.1058 -0.1844
  794MOL0     C 7071   9.247  10.417   3.854  0.8025  0.1816  0.3503
  794MOL0     N 7072   9.369  10.476   3.909  0.4825 -0.1459 -0.0367
  794MOL0     C 7073   9.446  10.425   4.002 -0.2943  0.5670 -0.0485
  794MOL0     C 7074   9.552  10.496   4.014  0.0041  0.4430  0.0433
  794MOL0     C 7075   9.673  10.470   4.098  0.1343  0.6622 -0.2498
  794MOL0     C 7076   9.639  10.521   4.242  0.4693 -0.1264  0.1432
  794MOL0     C 7077   9.669  10.416   4.346 -0.6245 -0.5811  0.0565
  794MOL0     C 7078   9.544  10.352   4.398 -0.0502 -0.1314  0.8330
  794MOL0     O 7079   9.478  10.278   4.287  0.1285 -0.3931  0.4060
  794MOL0     C 7080   9.367  10.212   4.314  0.0610  0.8935 -0.6431
  794MOL0     C 7081   9.342  10.107   4.224 -0.0845  0.1088  0.4741
  794MOL0     C 7082   9.222  10.028   4.241  0.3324  0.0657 -0.1886
  794MOL0     C 7083   9.207   9.923   4.131 -0.0596  0.1891  0.1827
  794MOL0     C 7084   9.143  10.042   4.349  0.1550  0.6453  0.1069
  794MOL0     C 7085   9.011   9.966   4.380  1.3136  0.1284  0.6025
  794MOL0     O 7086   8.947   9.894   4.271 -0.0075  0.1641  0.0360
  794MOL0     C 7087   8.825   9.838   4.296 -0.4257 -0.3512 -0.7865
  794MOL0     C 7088   8.813   9.697   4.306  0.6881 -0.1001  0.3454
  794MOL0     C 7089   8.689   9.636   4.324  0.1367 -0.2010  0.0090
  794MOL0     C 7090   8.575   9.722   4.345  0.4212 -0.6537  0.4017
  794MOL0     O 7091   8.461   9.654   4.385 -0.7141  0.2648 -0.6188
  794MOL0     C 7092   8.340   9.692   4.316 -0.7131 -0.7008  0.6276
  794MOL0     C 7093   8.218   9.691   4.417 -0.1747  0.3829 -0.1243
  794MOL0     C 7094   8.139   9.568   4.389 -0.0022  0.8309  0.0791
  794MOL0     C 7095   8.029   9.539   4.492 -0.0674  0.2441 -0.4146
  794MOL0     C 7096   7.990   9.392   4.492 -0.1319  0.1748 -0.4132
  794MOL0     C 7097   7.899   9.349   4.613 -0.9162  0.4988 -0.6027
  794MOL0     C 7098   7.753   9.394   4.587 -0.2024  0.0703 -0.4314
  794MOL0     C 7099   7.666   9.393   4.711 -0.0952  0.0664 -0.7464
  794MOL0    Cl 7100   7.529   9.512   4.684 -0.0598 -0.3376 -0.2543
  794MOL0     C 7101   8.585   9.861   4.335  0.4008  0.1515  0.3702
  794MOL0     C 7102   8.710   9.916   4.307  0.9937 -0.3015 -0.0025
  794MOL0     O 7103   8.974   9.961   4.492  0.8950 -0.1037  0.2124
  794MOL0     C 7104   9.185  10.138   4.446 -0.0662 -0.4743 -0.4527
  794MOL0     C 7105   9.296  10.226   4.428  0.5872  0.5505 -0.6546
  794MOL0     N 7106   9.539  10.603   3.923 -0.1278  0.1230 -0.6624
  794MOL0     N 7107   9.427  10.585   3.852  0.2779 -0.0538  0.3029
  794MOL0     C 7108   8.447   9.606   3.994 -0.0662 -0.0104  0.6261
  794MOL0     C 7109   8.346   9.504   4.008 -0.1776 -0.0220  0.4858
  794MOL0     C 7110   7.968   9.286   4.077 -0.3992  0.2372  0.3104
  794MOL0     C 7111   7.859   9.369   4.065  0.0268  0.7435  0.1062
  794MOL0     C 7112   7.728   9.317   4.094 -0.0639 -0.5631  0.6113
  794MOL0     C 7113   7.702   9.193   4.145 -0.4410  0.4346  0.5473
  794MOL0     O 7114   7.580   9.123   4.167  0.6372  0.7408 -0.2164
  794MOL0     C 7115   7.464   9.208   4.143 -0.0842 -0.2984 -0.2319
  794MOL0     C 7116   7.339   9.124   4.165  0.1482 -0.4916 -0.3676
  794MOL0     C 7117   7.283   9.116   4.312 -0.6702  0.0199  0.1002
  794MOL0     C 7118   7.394   9.077   4.410  0.0992 -0.5165  0.0211
  794MOL0     C 7119   7.347   9.072   4.548 -0.2664  0.4416  0.6036
  794MOL0     C 7120   7.318   9.083   4.663 -0.2674 -0.1949  0.2539
  794MOL0     C 7121   7.815   9.110   4.155 -0.0749  0.0361 -0.0296
  794MOL0     C 7122   7.945   9.156   4.126 -0.4535 -0.8844 -0.1954
  794MOL0     H 7123   8.104   9.655   3.832  1.0834  2.6069 -2.3837
  794MOL0     H 7124   8.265   9.830   3.812 -2.7937  2.6127  3.7903
  794MOL0     H 7125   8.648   9.853   4.064 -0.7590  0.4544 -0.0379
  794MOL0     H 7126   8.712   9.766   3.926  0.8685 -0.3278  0.9624
  794MOL0     H 7127   8.670   9.982   3.782 -2.2027 -0.3107  0.4422
  794MOL0     H 7128   8.642  10.072   3.932 -1.2365  0.2749 -3.2514
  794MOL0     H 7129   8.860  10.014   4.021 -2.9558  1.7413  1.1935
  794MOL0     H 7130   8.897   9.937   3.864 -2.3613 -1.0818 -0.3183
  794MOL0     H 7131   8.852  10.154   3.741 -1.0983 -1.4468 -0.2068
  794MOL0     H 7132   8.791  10.223   3.886 -1.0974 -2.5098  1.1588
  794MOL0     H 7133   9.043  10.162   3.979  3.2101  0.4782 -0.3593
  794MOL0     H 7134   9.079  10.171   3.809  1.4745  0.8780  1.4578
  794MOL0     H 7135   8.987  10.395   3.784  0.3196  0.1948  0.7459
  794MOL0     H 7136   8.912  10.411   3.939 -0.6275  0.9009 -3.3112
  794MOL0     H 7137   9.098  10.530   3.950  1.4205  0.4294  0.9622
  794MOL0     H 7138   9.146  10.387   4.045 -0.6085 -0.7587 -0.3771
  794MOL0     H 7139   9.228  10.482   3.768  1.6219 -0.7580 -0.5456
  794MOL0     H 7140   9.256  10.311   3.831 -2.7354 -0.8408  2.7513
  794MOL0     H 7141   9.436  10.330   4.054  1.8915  0.7074  0.7527
  794MOL0     H 7142   9.696  10.364   4.108  1.4748  1.0104  0.5412
  794MOL0     H 7143   9.761  10.521   4.056 -0.7418  2.7996  0.3450
  794MOL0     H 7144   9.536  10.558   4.240  1.0153  1.4506 -0.3579
  794MOL0     H 7145   9.694  10.612   4.270  3.0696 -1.0148 -1.7046
  794MOL0     H 7146   9.731  10.464   4.423  0.1489  3.1043 -2.6304
  794MOL0     H 7147   9.738  10.342   4.304  2.9911  2.2791  0.4390
  794MOL0     H 7148   9.472  10.418   4.448 -2.1365 -0.9340 -0.9537
  794MOL0     H 7149   9.577  10.281   4.475  0.7977  1.7832  2.3276
  794MOL0     H 7150   9.408  10.095   4.140 -0.6484 -0.2623  0.0750
  794MOL0     H 7151   9.206   9.821   4.172  0.3691  0.6428  1.3746
  794MOL0     H 7152   9.111   9.947   4.086  1.0996  0.2469 -2.4655
  794MOL0     H 7153   9.287   9.923   4.056  1.0489  1.4937  1.3045
  794MOL0     H 7154   8.901   9.634   4.297  0.0062 -0.9477 -0.5781
  794MOL0     H 7155   8.677   9.528   4.328  2.7951 -0.5295  3.1374
  794MOL0     H 7156   8.340   9.786   4.260  1.1066 -1.5328 -0.8729
  794MOL0     H 7157   8.338   9.614   4.239 -0.3135  0.2185 -0.3326
  794MOL0     H 7158   8.251   9.681   4.521  4.2709 -3.2265 -1.5294
  794MOL0     H 7159   8.164   9.782   4.390  0.2151  0.3857 -0.9129
  794MOL0     H 7160   8.208   9.483   4.388  0.6564  1.2766  2.5107
  794MOL0     H 7161   8.099   9.575   4.287  2.3165 -0.2690 -0.9988
  794MOL0     H 7162   8.059   9.582   4.589 -1.5102 -0.1032  0.2153
  794MOL0     H 7163   7.941   9.599   4.466  1.4037  4.3371  2.7783
  794MOL0     H 7164   8.088   9.344   4.502  0.5602  1.8605  1.6144
  794MOL0     H 7165   7.936   9.379   4.397 -4.3932 -0.6779  1.8666
  794MOL0     H 7166   7.915   9.242   4.626  0.0984  0.9197  2.5018
  794MOL0     H 7167   7.934   9.393   4.707  2.6431  0.1141 -1.5899
  794MOL0     H 7168   7.702   9.335   4.511 -2.4445  0.2189  0.8567
  794MOL0     H 7169   7.746   9.494   4.544 -3.2459 -0.5055 -1.4945
  794MOL0     H 7170   7.721   9.418   4.802 -2.4074  0.0374  0.7465
  794MOL0     H 7171   7.622   9.295   4.729 -0.6953  0.3122 -0.8321
  794MOL0     H 7172   8.495   9.920   4.350 -0.7598 -1.8477  1.6861
  794MOL0     H 7173   8.711  10.024   4.298 -1.7919  0.2540  4.1194
  794MOL0     H 7174   9.121  10.162   4.530 -1.5256  2.5143 -2.2477
  794MOL0     H 7175   9.315  10.302   4.503 -1.1992  1.5607 -1.1780
  794MOL0     H 7176   8.539   9.575   4.043  0.1436 -3.0407 -1.4837
  794MOL0     H 7177   8.386   9.420   4.064 -0.6022  0.1090  0.9930
  794MOL0     H 7178   7.871   9.470   4.026  4.6543 -0.4710 -2.4328
  794MOL0     H 7179   7.642   9.382   4.082 -0.8066 -1.8392 -1.5068
  794MOL0     H 7180   7.464   9.289   4.216  1.6812 -0.4337 -0.0253
  794MOL0     H 7181   7.472   9.263   4.049  2.7331 -1.5579 -0.8474
  794MOL0     H 7182   7.360   9.027   4.119 -0.0766 -0.4377 -0.5839
  794MOL0     H 7183   7.259   9.177   4.113  0.2141 -2.2671 -2.4224
  794MOL0     H 7184   7.205   9.040   4.309 -1.2922  0.5321 -4.9422
  794MOL0     H 7185   7.236   9.209   4.347  1.1506  1.2202 -0.4865
  794MOL0     H 7186   7.474   9.151   4.402 -0.1859  0.0824  2.1616
  794MOL0     H 7187   7.441   8.979   4.394  4.1117  0.9007  1.6861
  794MOL0     H 7188   7.283   9.083   4.765  0.5468  3.6124  0.7070
  794MOL0     H 7189   7.801   9.005   4.181 -0.1537 -0.0153 -0.2837
  794MOL0     H 7190   8.029   9.089   4.143 -0.6836 -1.6734 -1.9005
  795MOL0     O 7191   6.163   7.276   6.964 -0.2062  0.9503 -1.0723
  795MOL0     C 7192   6.262   7.348   6.970 -0.2718 -0.2918 -0.5648
  795MOL0     O 7193   6.266   7.487   6.970 -0.6205  0.5475  0.3069
  795MOL0     C 7194   6.146   7.558   6.975  0.2821  0.0895 -0.0570
  795MOL0     C 7195   6.153   7.683   7.046  0.6134 -0.2866  0.3602
  795MOL0     C 7196   6.042   7.770   7.037  0.6825 -0.7209  0.8723
  795MOL0     C 7197   5.923   7.732   6.984  0.6830  0.1689  0.3545
  795MOL0     O 7198   5.814   7.815   6.973  0.0129 -0.3331  0.5327
  795MOL0     C 7199   5.803   7.914   7.075 -0.4135  0.0783 -0.4947
  795MOL0     C 7200   5.651   7.956   7.056  0.7116 -0.8739 -0.3226
  795MOL0     C 7201   5.625   8.082   7.128  0.4319  0.5519 -0.2643
  795MOL0     C 7202   5.671   8.071   7.276  0.3066  0.5059  0.8323
  795MOL0     C 7203   5.565   8.148   7.361 -0.1566  0.1970  0.1276
  795MOL0     C 7204   5.436   8.065   7.388 -0.5427  0.8806  0.6885
  795MOL0     C 7205   5.384   8.063   7.532  0.6527 -0.4732  0.2368
  795MOL0     C 7206   5.387   8.198   7.616  0.1330 -0.0253  0.6002
  795MOL0     N 7207   5.288   8.287   7.550 -0.8102  0.2833 -0.4849
  795MOL0     C 7208   5.154   8.252   7.530  0.6958 -0.1172 -0.5039
  795MOL0     C 7209   5.100   8.369   7.498 -0.3448 -0.2799 -0.2238
  795MOL0     C 7210   4.949   8.371   7.473  0.5840 -0.8162 -0.5809
  795MOL0     C 7211   4.885   8.398   7.608  0.3426  0.5003 -0.1192
  795MOL0     C 7212   4.734   8.402   7.617  0.2805  0.2036  0.4049
  795MOL0     C 7213   4.700   8.437   7.758  0.4766 -0.8629  0.4460
  795MOL0     O 7214   4.560   8.472   7.773  0.0421 -0.7128  0.5031
  795MOL0     C 7215   4.471   8.384   7.824  0.1260 -0.0178  0.3594
  795MOL0     C 7216   4.492   8.250   7.839  0.6194  0.5646  0.7116
  795MOL0     C 7217   4.387   8.164   7.880  0.3555  0.6383  0.0937
  795MOL0     C 7218   4.406   8.011   7.880  0.3149 -0.4467  0.3860
  795MOL0     C 7219   4.261   8.216   7.924 -0.3691  0.6308 -0.3482
  795MOL0     C 7220   4.139   8.142   7.971 -1.0595  0.3034  0.2728
  795MOL0     O 7221   4.014   8.184   7.920  0.3231 -0.7948  0.2124
  795MOL0     C 7222   3.907   8.110   7.979 -1.2002 -0.5087  0.7880
  795MOL0     C 7223   3.840   8.136   8.099  0.0470  0.0989 -0.3888
  795MOL0     C 7224   3.717   8.066   8.130 -0.8749  0.0903  0.3364
  795MOL0     C 7225   3.670   7.961   8.050 -0.3174  0.3183  1.0517
  795MOL0     O 7226   3.560   7.891   8.086 -0.7356  0.3288 -0.1413
  795MOL0     C 7227   3.557   7.748   8.061  0.6906 -0.6560  0.9846
  795MOL0     C 7228   3.455   7.675   8.137  0.1340  0.5140 -0.5574
  795MOL0     C 7229   3.318   7.720   8.082 -0.1505  0.3048  0.3117
  795MOL0     C 7230   3.205   7.700   8.184  0.2783  0.3619  0.5108
  795MOL0     C 7231   3.075   7.752   8.127  0.3264 -0.1481 -0.9322
  795MOL0     C 7232   2.966   7.743   8.227 -0.4383  0.5447  0.2104
  795MOL0     C 7233   2.834   7.789   8.169  0.0544 -0.3500  0.0185
  795MOL0     C 7234   2.733   7.794   8.277 -0.3996 -0.0344  0.4760
  795MOL0    Cl 7235   2.571   7.817   8.199  0.1601 -0.1613  0.3777
  795MOL0     C 7236   3.741   7.935   7.931  0.5107  0.2359  0.0653
  795MOL0     C 7237   3.855   8.003   7.898 -0.1032  0.2538 -0.2604
  795MOL0     O 7238   4.156   8.042   8.039 -0.1464 -0.8522  0.1006
  795MOL0     C 7239   4.250   8.351   7.916  0.3478  0.8329 -0.3396
  795MOL0     C 7240   4.349   8.432   7.861  0.4329 -0.5518  0.6500
  795MOL0     N 7241   5.189   8.471   7.497  0.0044 -0.7628  0.3249
  795MOL0     N 7242   5.301   8.419   7.524 -0.8872 -0.3995 -0.1872
  795MOL0     C 7243   5.909   7.614   6.922 -0.0486 -0.5408 -1.0713
  795MOL0     C 7244   6.021   7.531   6.914 -0.0879  0.6337 -0.0038
  795MOL0     C 7245   6.396   7.277   6.969 -0.0787  0.1373 -0.5983
  795MOL0     C 7246   6.414   7.138   6.953 -0.2833  0.2985  0.0234
  795MOL0     C 7247   6.541   7.083   6.947  0.0385 -0.1106  0.1750
  795MOL0     C 7248   6.656   7.165   6.952 -0.3379  0.1744  0.1660
  795MOL0     O 7249   6.781   7.107   6.948 -0.1995  0.2458  0.1601
  795MOL0     C 7250   6.833   7.068   7.075  0.0341 -0.3875  0.4165
  795MOL0     C 7251   6.965   6.992   7.056  0.1232  0.0145  0.1844
  795MOL0     C 7252   7.038   6.968   7.190 -0.2240  0.6080  0.3901
  795MOL0     C 7253   7.166   6.883   7.192 -0.2631 -1.0879 -0.2317
  795MOL0     C 7254   7.284   6.953   7.140 -1.4825  1.0009 -0.9628
  795MOL0     C 7255   7.387   7.012   7.113 -0.1369 -0.1375 -0.8515
  795MOL0     C 7256   6.640   7.300   6.969 -0.0259 -0.4817 -0.1885
  795MOL0     C 7257   6.514   7.353   6.979 -0.2239 -0.5124  0.2706
  795MOL0     H 7258   6.253   7.709   7.079  0.0492  2.0229  0.4717
  795MOL0     H 7259   6.066   7.867   7.078  1.3984 -1.2783  1.8376
  795MOL0     H 7260   5.823   7.872   7.174 -0.6355  2.0510  0.4243
  795MOL0     H 7261   5.873   7.995   7.054 -0.4490  0.0735 -0.6354
  795MOL0     H 7262   5.640   7.976   6.948 -2.8055  0.1852  0.1110
  795MOL0     H 7263   5.578   7.878   7.077  1.1604 -0.7411  1.9422
  795MOL0     H 7264   5.675   8.168   7.082 -1.6500  0.8783 -2.0322
  795MOL0     H 7265   5.518   8.101   7.122  0.5406  0.7995 -1.8911
  795MOL0     H 7266   5.665   7.969   7.316  0.5503  0.4665  0.7742
  795MOL0     H 7267   5.772   8.113   7.290 -0.8894  3.7077  0.6965
  795MOL0     H 7268   5.614   8.154   7.459 -0.1487 -0.5325  0.1725
  795MOL0     H 7269   5.549   8.246   7.316 -0.1418  0.1278 -0.0283
  795MOL0     H 7270   5.358   8.108   7.325  0.2354  0.4426 -0.5977
  795MOL0     H 7271   5.442   7.961   7.356 -0.0015  0.2205  2.7532
  795MOL0     H 7272   5.282   8.027   7.546 -0.4567  2.5320  0.6233
  795MOL0     H 7273   5.437   7.989   7.593  0.5801 -0.1367  0.7141
  795MOL0     H 7274   5.487   8.241   7.608 -0.2922  0.9082  0.1745
  795MOL0     H 7275   5.353   8.188   7.720 -2.2867  0.9984 -0.0165
  795MOL0     H 7276   5.112   8.153   7.543  3.5725 -1.4004 -0.2202
  795MOL0     H 7277   4.924   8.449   7.400  2.4903  1.7173  1.2691
  795MOL0     H 7278   4.905   8.276   7.443 -1.8895  0.2971 -0.7730
  795MOL0     H 7279   4.920   8.498   7.633  0.2458  0.4325  0.2950
  795MOL0     H 7280   4.907   8.326   7.687  0.7219 -1.2407 -1.7128
  795MOL0     H 7281   4.691   8.305   7.590  0.7945 -0.5959  2.2968
  795MOL0     H 7282   4.688   8.476   7.552 -1.0465 -1.6187 -0.8414
  795MOL0     H 7283   4.760   8.526   7.778  0.8134 -1.1918  0.9043
  795MOL0     H 7284   4.739   8.362   7.827  1.7508 -0.9272 -0.3135
  795MOL0     H 7285   4.584   8.197   7.818 -0.9393 -2.4324  0.7983
  795MOL0     H 7286   4.352   7.959   7.801 -0.4985 -3.0177  2.5221
  795MOL0     H 7287   4.514   7.994   7.868  0.2740  1.1017 -4.0070
  795MOL0     H 7288   4.372   7.970   7.975 -1.2858 -1.9016 -0.7519
  795MOL0     H 7289   3.866   8.212   8.172 -0.0348 -1.1445  0.9904
  795MOL0     H 7290   3.654   8.096   8.214 -1.6316 -0.3203 -0.0672
  795MOL0     H 7291   3.535   7.739   7.955  2.3419 -0.9159  0.6288
  795MOL0     H 7292   3.655   7.708   8.091  0.8556  1.1434  3.1000
  795MOL0     H 7293   3.470   7.568   8.118 -1.1144  0.4466 -1.2769
  795MOL0     H 7294   3.463   7.702   8.242  0.0760 -1.0132 -0.1422
  795MOL0     H 7295   3.298   7.661   7.992  0.9823  0.8878 -0.3445
  795MOL0     H 7296   3.325   7.826   8.057 -0.5818 -0.3201 -2.8747
  795MOL0     H 7297   3.194   7.596   8.216  0.5698 -0.3827 -1.6264
  795MOL0     H 7298   3.230   7.757   8.274  4.2863  4.0024 -2.4828
  795MOL0     H 7299   3.049   7.682   8.048 -0.9338  0.4919 -1.1062
  795MOL0     H 7300   3.067   7.858   8.099 -2.5582  0.4754  1.7475
  795MOL0     H 7301   2.966   7.639   8.261 -0.5613  0.3392 -0.4075
  795MOL0     H 7302   2.988   7.809   8.312  0.4421  1.4382 -0.6826
  795MOL0     H 7303   2.805   7.716   8.092  0.7007 -1.1299  0.4967
  795MOL0     H 7304   2.851   7.883   8.116  3.1462 -1.8800 -2.0145
  795MOL0     H 7305   2.739   7.874   8.351 -1.6245 -1.0098  1.6841
  795MOL0     H 7306   2.715   7.704   8.337 -4.2227  0.8141  0.8213
  795MOL0     H 7307   3.696   7.858   7.869  2.1423  0.8744 -2.0199
  795MOL0     H 7308   3.899   7.976   7.803 -0.9604 -1.1685 -0.2788
  795MOL0     H 7309   4.165   8.407   7.951 -0.7274 -0.0852 -1.3993
  795MOL0     H 7310   4.340   8.540   7.861  2.6182 -0.2981 -1.5041
  795MOL0     H 7311   5.814   7.577   6.886 -0.5639 -1.3576  0.9627
  795MOL0     H 7312   6.010   7.430   6.875  1.3744  0.4163  0.0994
  795MOL0     H 7313   6.326   7.077   6.935  0.6300 -0.6266 -1.5619
  795MOL0     H 7314   6.547   6.977   6.927  0.4289  0.0125 -0.3763
  795MOL0     H 7315   6.835   7.160   7.135  1.0311  2.9522 -4.1436
  795MOL0     H 7316   6.757   7.011   7.130 -2.3689  2.5798  0.4292
  795MOL0     H 7317   7.018   7.047   6.978 -1.2357 -0.7082 -1.2954
  795MOL0     H 7318   6.942   6.891   7.020  4.2161 -1.8612  2.0713
  795MOL0     H 7319   6.971   6.913   7.257  0.8701 -0.0209  0.9958
  795MOL0     H 7320   7.064   7.065   7.233 -0.5880  0.5262  0.7993
  795MOL0     H 7321   7.155   6.793   7.130  3.6603 -1.9161  0.0231
  795MOL0     H 7322   7.184   6.849   7.295 -0.5452  0.2815  0.2927
  795MOL0     H 7323   7.487   7.043   7.091  1.7611 -3.6289  1.9573
  795MOL0     H 7324   6.729   7.362   6.976 -0.2394 -0.2099  0.1392
  795MOL0     H 7325   6.504   7.460   6.964  0.2863 -0.1863  1.9757
  796MOL0     O 7326  10.285   4.730   8.216 -0.5575  0.0888 -0.1423
  796MOL0     C 7327  10.301   4.610   8.195 -0.2525 -0.6598 -0.3726
  796MOL0     O 7328  10.198   4.527   8.147 -0.5514 -1.1985 -0.1462
  796MOL0     C 7329  10.070   4.580   8.143 -0.2986  0.7909  0.2167
  796MOL0     C 7330  10.034   4.701   8.077  0.1956  0.1835 -0.8349
  796MOL0     C 7331   9.900   4.737   8.071 -0.4124  0.1540 -0.2717
  796MOL0     C 7332   9.799   4.661   8.136  0.2221  0.4495  0.8444
  796MOL0     O 7333   9.661   4.681   8.123 -0.2684 -0.3548 -0.3882
  796MOL0     C 7334   9.611   4.799   8.062 -0.1761 -0.3164 -0.5020
  796MOL0     C 7335   9.459   4.791   8.070 -0.3992  0.0806 -0.2534
  796MOL0     C 7336   9.394   4.927   8.075 -0.4647 -0.4838 -0.3972
  796MOL0     C 7337   9.374   4.990   8.219 -0.4290 -0.1252 -0.5533
  796MOL0     C 7338   9.241   5.047   8.259  0.4194 -0.2091  0.0268
  796MOL0     C 7339   9.111   4.962   8.251 -0.3007 -0.1104  0.0073
  796MOL0     C 7340   9.127   4.827   8.320  0.3558 -0.2532 -0.1330
  796MOL0     C 7341   8.992   4.765   8.330  0.9101  0.2859  0.1495
  796MOL0     N 7342   8.993   4.641   8.410 -0.0759 -0.9495 -0.5118
  796MOL0     C 7343   8.990   4.516   8.362 -0.1058  0.3155 -0.2647
  796MOL0     C 7344   9.017   4.435   8.465 -0.2301 -0.3992 -0.1688
  796MOL0     C 7345   8.995   4.289   8.460  0.1009 -0.0684  1.1332
  796MOL0     C 7346   8.865   4.243   8.395  0.4714 -0.3947 -0.3420
  796MOL0     C 7347   8.841   4.094   8.401 -0.4839 -0.1288  0.3763
  796MOL0     C 7348   8.693   4.058   8.372  1.1041 -0.7108  0.0717
  796MOL0     O 7349   8.656   4.075   8.234 -0.0289 -0.6102 -0.5605
  796MOL0     C 7350   8.528   4.036   8.200  0.5037  0.5389 -0.3137
  796MOL0     C 7351   8.510   4.039   8.062 -0.2756 -0.1595 -0.2398
  796MOL0     C 7352   8.382   4.011   8.005  0.5157  0.8854 -0.1521
  796MOL0     C 7353   8.376   4.035   7.856  0.0727 -0.4577 -0.3381
  796MOL0     C 7354   8.280   3.951   8.090  0.0629 -0.5395  0.6976
  796MOL0     C 7355   8.146   3.895   8.045  0.4238 -0.2725  0.6205
  796MOL0     O 7356   8.116   3.871   7.915 -0.3094 -0.4205 -0.5294
  796MOL0     C 7357   7.986   3.832   7.890  0.5929 -0.1026 -0.6024
  796MOL0     C 7358   7.945   3.705   7.903  0.3151  0.4130  0.4747
  796MOL0     C 7359   7.823   3.669   7.843  0.2762 -1.3995 -0.5202
  796MOL0     C 7360   7.742   3.760   7.784 -0.0658  0.2585  0.0703
  796MOL0     O 7361   7.617   3.729   7.748 -0.3843 -0.3598 -0.3196
  796MOL0     C 7362   7.593   3.618   7.660  0.2455 -0.0787  0.1552
  796MOL0     C 7363   7.438   3.576   7.655  0.8911 -0.5550 -0.0483
  796MOL0     C 7364   7.432   3.430   7.707  0.4099 -0.2245 -0.6566
  796MOL0     C 7365   7.299   3.373   7.689  0.7782  0.2149 -0.1310
  796MOL0     C 7366   7.290   3.225   7.736  0.3958 -0.0577 -0.9165
  796MOL0     C 7367   7.151   3.161   7.703 -0.2553  0.6351 -0.6408
  796MOL0     C 7368   7.146   3.011   7.717  0.4678 -0.0889 -0.1493
  796MOL0     C 7369   7.145   2.972   7.868 -0.9932  0.4523 -0.0694
  796MOL0    Cl 7370   7.311   2.974   7.942  0.2197  0.2357  0.1701
  796MOL0     C 7371   7.779   3.894   7.791 -0.0481  0.6841 -0.3572
  796MOL0     C 7372   7.903   3.925   7.840  0.1138  0.1097 -0.2442
  796MOL0     O 7373   8.074   3.863   8.136  0.3062  0.1947 -0.1314
  796MOL0     C 7374   8.302   3.949   8.233 -0.8454  0.0120 -0.5541
  796MOL0     C 7375   8.424   3.997   8.285  0.1987  0.2423  0.9381
  796MOL0     N 7376   9.039   4.514   8.579  0.0405  0.0495  0.3195
  796MOL0     N 7377   9.020   4.638   8.549 -0.1495  0.1039  0.6188
  796MOL0     C 7378   9.838   4.559   8.212 -0.7192 -0.2674 -0.4892
  796MOL0     C 7379   9.972   4.511   8.217 -0.0940  0.0437  0.2900
  796MOL0     C 7380  10.434   4.545   8.213  0.1395 -0.1740 -0.4020
  796MOL0     C 7381  10.555   4.608   8.256  0.1266 -0.0532  0.8369
  796MOL0     C 7382  10.679   4.552   8.278 -1.1057  0.8599  0.5160
  796MOL0     C 7383  10.686   4.413   8.274  0.2313 -0.9727 -0.1392
  796MOL0     O 7384  10.817   4.359   8.278  0.3836 -0.4689  0.9602
  796MOL0     C 7385  10.836   4.217   8.295 -0.1312 -0.6547 -0.0254
  796MOL0     C 7386  10.979   4.178   8.327 -0.5461 -0.0199 -0.1402
  796MOL0     C 7387  11.040   4.250   8.451 -0.3254 -0.0374 -0.4979
  796MOL0     C 7388  11.178   4.177   8.483 -0.6843 -0.1011 -0.0397
  796MOL0     C 7389  11.281   4.230   8.392  0.3334 -0.6057 -0.2477
  796MOL0     C 7390  11.362   4.266   8.307 -0.3260  0.1977 -0.1342
  796MOL0     C 7391  10.573   4.343   8.232 -0.5369 -0.3305 -0.0125
  796MOL0     C 7392  10.446   4.408   8.209  0.2877  0.4226 -0.3925
  796MOL0     H 7393  10.099   4.768   8.023 -0.6636  0.9042 -0.9896
  796MOL0     H 7394   9.872   4.822   8.010  0.5878  0.0966 -0.8187
  796MOL0     H 7395   9.646   4.883   8.123  2.2100 -2.7656  1.7883
  796MOL0     H 7396   9.645   4.808   7.958 -0.5004 -1.9648 -0.7845
  796MOL0     H 7397   9.426   4.733   7.984 -0.1828 -0.4438  0.0149
  796MOL0     H 7398   9.438   4.747   8.168 -2.3677  2.4089  0.4763
  796MOL0     H 7399   9.460   4.989   8.013 -0.3810 -0.3529 -0.1762
  796MOL0     H 7400   9.299   4.925   8.019  0.0696  1.7542 -1.5252
  796MOL0     H 7401   9.405   4.917   8.295  4.9796  2.8877  0.6148
  796MOL0     H 7402   9.450   5.066   8.237  1.8203 -2.4295  0.3704
  796MOL0     H 7403   9.258   5.091   8.358  1.3068  0.0836 -0.2478
  796MOL0     H 7404   9.227   5.124   8.183 -1.5395 -0.0946  0.4480
  796MOL0     H 7405   9.023   5.008   8.297  0.5065  0.2947  1.2140
  796MOL0     H 7406   9.098   4.953   8.143  0.8421 -0.3705 -0.1234
  796MOL0     H 7407   9.206   4.764   8.277  1.5796  0.8163  0.4753
  796MOL0     H 7408   9.162   4.857   8.419 -2.0497  3.2894 -0.1867
  796MOL0     H 7409   8.943   4.748   8.234 -0.6982  0.1275  0.9590
  796MOL0     H 7410   8.922   4.830   8.382 -0.5250 -3.1545  2.9432
  796MOL0     H 7411   8.961   4.481   8.263  1.5678 -2.3135  0.0852
  796MOL0     H 7412   9.076   4.238   8.407  0.3895 -0.8073  2.2309
  796MOL0     H 7413   9.012   4.252   8.562  0.3375 -1.8861  0.4718
  796MOL0     H 7414   8.853   4.260   8.288 -1.9456  0.9111  0.0556
  796MOL0     H 7415   8.779   4.289   8.444  0.5064 -0.5661 -0.1181
  796MOL0     H 7416   8.860   4.061   8.504 -0.1755 -1.9103 -0.2064
  796MOL0     H 7417   8.906   4.042   8.330 -0.2857  0.9063 -0.2110
  796MOL0     H 7418   8.624   4.110   8.439 -1.2933 -0.2578 -2.5420
  796MOL0     H 7419   8.691   3.952   8.397 -0.1779 -0.2961  1.9549
  796MOL0     H 7420   8.588   4.067   7.992 -1.2472 -1.7584 -2.0626
  796MOL0     H 7421   8.278   4.011   7.814 -0.2093 -5.2295  2.2921
  796MOL0     H 7422   8.396   4.142   7.839  1.3359 -0.6935 -0.4333
  796MOL0     H 7423   8.445   3.979   7.792 -1.3175 -2.8078  0.1159
  796MOL0     H 7424   8.000   3.623   7.948  0.6179  0.8887  0.9790
  796MOL0     H 7425   7.790   3.566   7.856  1.3481 -1.7428 -0.4319
  796MOL0     H 7426   7.621   3.641   7.557 -3.3804 -2.7885 -1.6726
  796MOL0     H 7427   7.647   3.528   7.690 -1.9296 -1.0953  1.3076
  796MOL0     H 7428   7.387   3.654   7.714  0.0731 -0.2130 -1.1786
  796MOL0     H 7429   7.409   3.585   7.550 -0.2583 -1.2195  0.1983
  796MOL0     H 7430   7.459   3.425   7.813 -0.7475  2.1198 -0.2045
  796MOL0     H 7431   7.496   3.369   7.642 -0.1191 -0.5034 -0.9203
  796MOL0     H 7432   7.234   3.430   7.756  1.6935 -1.0917  1.9582
  796MOL0     H 7433   7.268   3.385   7.585 -0.1632 -0.3237  0.0759
  796MOL0     H 7434   7.306   3.229   7.844  3.3923  0.5781 -1.2783
  796MOL0     H 7435   7.373   3.170   7.690 -0.3926 -0.2305 -2.2003
  796MOL0     H 7436   7.083   3.218   7.766 -2.7959  0.5853 -3.1751
  796MOL0     H 7437   7.134   3.173   7.596  1.6466  1.0254 -0.9447
  796MOL0     H 7438   7.230   2.969   7.662  1.3972  1.0742  0.3388
  796MOL0     H 7439   7.048   2.989   7.672  0.3150  0.7317 -0.2402
  796MOL0     H 7440   7.109   2.869   7.874  1.8902 -0.6942 -0.6095
  796MOL0     H 7441   7.091   3.046   7.927  3.2685  2.9946  1.1341
  796MOL0     H 7442   7.702   3.963   7.758 -0.8146 -0.9305 -2.1229
  796MOL0     H 7443   7.945   4.024   7.827  2.4311 -0.7155  0.4425
  796MOL0     H 7444   8.228   3.910   8.302 -3.1827  1.2000 -2.2231
  796MOL0     H 7445   8.438   4.021   8.390  1.2931  1.5802  0.5025
  796MOL0     H 7446   9.748   4.510   8.247  0.1313 -1.1204  0.5503
  796MOL0     H 7447  10.009   4.431   8.280 -2.9615 -0.6999  1.1476
  796MOL0     H 7448  10.544   4.716   8.255  0.1775 -0.0391 -0.8434
  796MOL0     H 7449  10.761   4.623   8.286 -0.3202 -0.1542  1.7658
  796MOL0     H 7450  10.771   4.176   8.373 -2.0715 -0.0330 -1.2592
  796MOL0     H 7451  10.803   4.168   8.203 -1.4556  0.2755 -0.0832
  796MOL0     H 7452  11.030   4.185   8.231 -1.5311 -0.8226 -0.7504
  796MOL0     H 7453  10.961   4.073   8.353  0.0391  0.2416  1.4416
  796MOL0     H 7454  10.972   4.229   8.535 -1.5304 -1.3474 -1.7385
  796MOL0     H 7455  11.054   4.356   8.429 -0.5938 -0.4139 -2.7246
  796MOL0     H 7456  11.168   4.070   8.461 -2.2346 -0.2346  1.1161
  796MOL0     H 7457  11.208   4.187   8.588 -3.7407  0.1638  0.9176
  796MOL0     H 7458  11.439   4.287   8.235 -0.2095  0.0238 -0.0603
  796MOL0     H 7459  10.594   4.238   8.214  1.2200  0.3301 -2.3250
  796MOL0     H 7460  10.363   4.340   8.192  0.1914 -0.3764  2.5718
  797MOL0     O 7461  11.131  10.048  11.157  0.6771 -0.3183 -0.2129
  797MOL0     C 7462  11.086   9.979  11.248 -0.5444 -0.3998 -0.0425
  797MOL0     O 7463  10.957   9.993  11.296  0.5079  0.0547  0.4682
  797MOL0     C 7464  10.873  10.056  11.201  0.0683 -0.2543 -0.4967
  797MOL0     C 7465  10.844  10.193  11.217  0.2629  0.2450 -0.4964
  797MOL0     C 7466  10.751  10.239  11.125 -1.3779 -0.9156 -0.2715
  797MOL0     C 7467  10.707  10.166  11.018  0.2497 -0.1589  1.0437
  797MOL0     O 7468  10.615  10.196  10.916 -0.5747  0.1764  0.6788
  797MOL0     C 7469  10.604  10.332  10.878  0.4350 -0.7505  0.6294
  797MOL0     C 7470  10.529  10.342  10.748 -0.0186 -0.5485 -0.2919
  797MOL0     C 7471  10.427  10.458  10.740  0.0289  0.1046 -0.3927
  797MOL0     C 7472  10.306  10.440  10.831  0.3775  0.2752 -0.1330
  797MOL0     C 7473  10.202  10.336  10.786 -0.1155 -0.5047 -0.0065
  797MOL0     C 7474  10.070  10.335  10.855 -0.1038  0.0672  0.0612
  797MOL0     C 7475   9.978  10.218  10.814  0.7298 -0.4808 -0.1931
  797MOL0     C 7476   9.840  10.220  10.889  0.2330  0.2214  1.2557
  797MOL0     N 7477   9.746  10.114  10.893 -0.5189 -0.5191  0.1891
  797MOL0     C 7478   9.628  10.101  10.823 -0.9866 -0.0681  0.6949
  797MOL0     C 7479   9.580   9.979  10.849  0.0584 -0.2370  0.2182
  797MOL0     C 7480   9.452   9.906  10.805 -0.6257 -0.0543  0.1931
  797MOL0     C 7481   9.368   9.904  10.931  0.4482  0.1645  0.2389
  797MOL0     C 7482   9.223   9.859  10.898 -0.5720 -0.6967 -0.2647
  797MOL0     C 7483   9.205   9.725  10.824 -0.6226 -0.6226 -1.1552
  797MOL0     O 7484   9.196   9.756  10.679 -0.0540 -0.4410 -0.0470
  797MOL0     C 7485   9.068   9.772  10.621  0.1663  0.3948 -0.7596
  797MOL0     C 7486   8.962   9.813  10.702  0.0368  0.5966  0.1792
  797MOL0     C 7487   8.832   9.844  10.642  0.0117 -0.1511  0.1842
  797MOL0     C 7488   8.722   9.872  10.748 -0.4480  1.3707 -0.5769
  797MOL0     C 7489   8.811   9.836  10.503 -0.1518 -0.9975 -0.1535
  797MOL0     C 7490   8.685   9.883  10.438 -0.6158  0.0271 -0.3410
  797MOL0     O 7491   8.656   9.799  10.337  0.5401 -0.2669 -0.0878
  797MOL0     C 7492   8.561   9.842  10.253 -0.3070  0.3737 -0.4240
  797MOL0     C 7493   8.579   9.960  10.187  0.1851 -0.3120 -0.0456
  797MOL0     C 7494   8.462  10.009  10.115 -0.1954  0.6885  0.4311
  797MOL0     C 7495   8.347   9.921  10.101  0.2367 -0.7782 -0.3453
  797MOL0     O 7496   8.231   9.961  10.034 -0.6163 -0.4793  0.3184
  797MOL0     C 7497   8.249  10.007   9.893 -0.1309 -0.0749 -0.0126
  797MOL0     C 7498   8.113  10.033   9.829 -0.6514 -0.0029  0.7564
  797MOL0     C 7499   8.102  10.014   9.678 -0.8987  0.3578 -0.1632
  797MOL0     C 7500   7.959  10.021   9.634  0.0990 -0.5272  0.7920
  797MOL0     C 7501   7.948  10.008   9.486  0.4780  0.8219 -0.1643
  797MOL0     C 7502   7.807  10.057   9.441 -0.8918  0.6764 -0.1916
  797MOL0     C 7503   7.801  10.025   9.300  0.5221  0.6278 -0.3403
  797MOL0     C 7504   7.671  10.081   9.240 -0.7868  0.7047  0.0635
  797MOL0    Cl 7505   7.642  10.260   9.246  0.3038  0.3109 -0.1946
  797MOL0     C 7506   8.346   9.801  10.170  0.4941  1.0093 -0.0259
  797MOL0     C 7507   8.452   9.762  10.247  0.4928 -0.6355  0.0594
  797MOL0     O 7508   8.617   9.979  10.476  0.6899  0.4241  0.1424
  797MOL0     C 7509   8.916   9.790  10.429  0.5139  0.2858  0.0039
  797MOL0     C 7510   9.041   9.761  10.486  0.1430  0.2150  0.4893
  797MOL0     N 7511   9.671   9.920  10.935  0.1170  0.3551  0.3396
  797MOL0     N 7512   9.772  10.002  10.954 -0.4622  0.4243 -0.4452
  797MOL0     C 7513  10.744  10.034  11.004 -0.7521  0.1765 -1.1523
  797MOL0     C 7514  10.828   9.977  11.100  0.1707  0.4349  0.8006
  797MOL0     C 7515  11.167   9.881  11.311  0.1479  0.8328 -1.4355
  797MOL0     C 7516  11.114   9.797  11.410 -0.4676  0.3765 -0.9479
  797MOL0     C 7517  11.198   9.707  11.482  0.1352  0.7894  0.5395
  797MOL0     C 7518  11.336   9.698  11.451 -0.5623 -0.1852  0.0400
  797MOL0     O 7519  11.431   9.625  11.520 -0.7635 -0.3576 -0.4728
  797MOL0     C 7520  11.426   9.631  11.662 -0.1256 -0.6058 -0.1891
  797MOL0     C 7521  11.450   9.776  11.712  0.3129  0.6395  0.3310
  797MOL0     C 7522  11.571   9.848  11.634 -0.3170 -0.1770 -0.8674
  797MOL0     C 7523  11.717   9.807  11.680 -0.1718 -1.2595  0.1632
  797MOL0     C 7524  11.770   9.725  11.576 -0.7649  0.7112 -0.1460
  797MOL0     C 7525  11.819   9.647  11.495  0.1004  0.0485 -0.1868
  797MOL0     C 7526  11.382   9.768  11.337  0.6714 -1.0804 -0.6089
  797MOL0     C 7527  11.297   9.863  11.265  0.0197  0.3054  0.5321
  797MOL0     H 7528  10.885  10.244  11.304  0.1776  0.0390 -0.3347
  797MOL0     H 7529  10.720  10.343  11.133  0.2226 -0.4190 -0.1443
  797MOL0     H 7530  10.546  10.382  10.956  1.2715 -1.1204  1.5144
  797MOL0     H 7531  10.696  10.390  10.865 -1.8117  2.8012 -1.0393
  797MOL0     H 7532  10.602  10.366  10.670  1.9817  1.8399  2.0500
  797MOL0     H 7533  10.474  10.250  10.731 -0.3939 -1.1874  3.4934
  797MOL0     H 7534  10.487  10.549  10.751 -1.5727  1.3278 -1.4188
  797MOL0     H 7535  10.395  10.459  10.636  2.1470 -0.8077 -1.1169
  797MOL0     H 7536  10.336  10.411  10.932 -0.6926 -0.9503 -0.1294
  797MOL0     H 7537  10.245  10.530  10.844 -0.3316  0.0030 -1.4387
  797MOL0     H 7538  10.179  10.344  10.679  1.3212 -1.2250 -0.3970
  797MOL0     H 7539  10.245  10.236  10.794 -1.7115 -1.3939 -1.6529
  797MOL0     H 7540  10.092  10.315  10.961 -0.6757 -2.0607 -0.1877
  797MOL0     H 7541  10.017  10.430  10.842  1.0996  0.6815 -0.4907
  797MOL0     H 7542   9.949  10.237  10.710 -2.1069 -0.7829  0.4657
  797MOL0     H 7543  10.038  10.127  10.823  1.4964  0.1795  1.7000
  797MOL0     H 7544   9.792  10.314  10.861  0.1928  0.3784  1.8253
  797MOL0     H 7545   9.855  10.241  10.996 -2.6809  1.5173  1.5347
  797MOL0     H 7546   9.577  10.171  10.757 -0.2191  0.0380  0.1865
  797MOL0     H 7547   9.407   9.963  10.724  2.1666  3.5867  0.9432
  797MOL0     H 7548   9.478   9.804  10.774  0.7547  0.3555 -0.0899
  797MOL0     H 7549   9.369  10.004  10.974  3.3205  0.0377  0.6516
  797MOL0     H 7550   9.408   9.833  11.004  0.3300 -0.7024 -0.5212
  797MOL0     H 7551   9.182   9.940  10.837 -0.1175  2.2833  3.0646
  797MOL0     H 7552   9.165   9.848  10.989  1.1156 -1.0800  0.8183
  797MOL0     H 7553   9.114   9.671  10.853 -1.9698  1.6627 -0.9235
  797MOL0     H 7554   9.290   9.662  10.852 -1.3051 -1.1943 -0.2879
  797MOL0     H 7555   8.971   9.826  10.810 -3.4263  1.0715  0.5417
  797MOL0     H 7556   8.746   9.841  10.850  0.8906  0.4801 -1.1336
  797MOL0     H 7557   8.700   9.979  10.739  0.3257  1.5364 -0.5398
  797MOL0     H 7558   8.632   9.818  10.717 -0.0283  1.2912 -1.7027
  797MOL0     H 7559   8.662  10.029  10.196 -1.7647  1.9120  2.2053
  797MOL0     H 7560   8.456  10.112  10.080  0.1048 -0.2470 -2.6340
  797MOL0     H 7561   8.312  10.096   9.888 -0.3585  0.1552  0.9780
  797MOL0     H 7562   8.302   9.933   9.832  1.1487  2.8023 -2.6407
  797MOL0     H 7563   8.055   9.956   9.880  1.2525  0.4967  3.9558
  797MOL0     H 7564   8.067  10.127   9.860 -2.9114 -1.1886  1.1581
  797MOL0     H 7565   8.145   9.915   9.657 -0.7676  0.2028  0.8112
  797MOL0     H 7566   8.166  10.090   9.630 -0.8369  0.7971  0.6103
  797MOL0     H 7567   7.912   9.932   9.676 -0.9044  0.3283  1.5411
  797MOL0     H 7568   7.902  10.107   9.670  0.1835 -0.4757  0.8020
  797MOL0     H 7569   7.961   9.904   9.456 -1.7598  1.1501 -2.7017
  797MOL0     H 7570   8.029  10.065   9.440 -0.3482  1.7436 -0.5066
  797MOL0     H 7571   7.720  10.016   9.494 -1.1866 -0.0513 -1.2267
  797MOL0     H 7572   7.812  10.165   9.462  0.8297  0.6926 -0.5672
  797MOL0     H 7573   7.808   9.916   9.304  0.0920  0.4165 -3.0910
  797MOL0     H 7574   7.882  10.074   9.245 -1.2012  3.0087 -0.9211
  797MOL0     H 7575   7.596  10.019   9.291  0.2027 -1.3687 -0.8504
  797MOL0     H 7576   7.665  10.051   9.135  3.3244  3.0247 -1.0450
  797MOL0     H 7577   8.265   9.729  10.170  0.8944  0.5435 -0.4546
  797MOL0     H 7578   8.440   9.666  10.295 -1.3614 -1.7935 -2.4454
  797MOL0     H 7579   8.915   9.794  10.321 -2.5953 -1.4586 -0.1638
  797MOL0     H 7580   9.114   9.737  10.409  0.3817  1.7839  0.1783
  797MOL0     H 7581  10.710   9.980  10.917  0.3080 -2.5135 -0.0232
  797MOL0     H 7582  10.873   9.880  11.082  0.0714  0.6281 -0.6514
  797MOL0     H 7583  11.011   9.810  11.441  0.3373 -3.9232  5.2280
  797MOL0     H 7584  11.157   9.659  11.570 -0.9916 -1.4753 -1.1200
  797MOL0     H 7585  11.327   9.615  11.704  1.0528 -0.3597  2.9803
  797MOL0     H 7586  11.496   9.559  11.706 -3.1981 -2.5288  1.9138
  797MOL0     H 7587  11.475   9.767  11.818 -0.1355 -1.5987  0.2985
  797MOL0     H 7588  11.357   9.833  11.707 -0.7028 -0.8000  1.6758
  797MOL0     H 7589  11.556   9.956  11.640 -0.3012 -0.1857 -0.6489
  797MOL0     H 7590  11.562   9.831  11.526 -0.3906 -1.5969 -0.6604
  797MOL0     H 7591  11.706   9.761  11.778 -2.4113  1.3951  1.2922
  797MOL0     H 7592  11.775   9.899  11.677 -0.4784 -1.0893 -1.5791
  797MOL0     H 7593  11.883   9.589  11.431  1.0412  0.7761  0.0632
  797MOL0     H 7594  11.484   9.756  11.303  0.8460  1.4837 -1.1940
  797MOL0     H 7595  11.348   9.919  11.187  0.6011 -1.6738 -0.5848
  798MOL0     O 7596  10.190   8.158  10.661 -1.0901  0.7379 -0.0576
  798MOL0     C 7597  10.295   8.139  10.600 -0.9424  0.1630  1.1040
  798MOL0     O 7598  10.296   8.071  10.481  0.3473  0.5963 -0.0026
  798MOL0     C 7599  10.183   7.998  10.436  0.0724  0.6268  0.1562
  798MOL0     C 7600  10.211   7.862  10.406 -0.0350  1.0511 -0.6402
  798MOL0     C 7601  10.103   7.787  10.374  0.1037 -0.1590 -0.1941
  798MOL0     C 7602   9.976   7.837  10.361  0.3767  0.1209 -0.4551
  798MOL0     O 7603   9.870   7.741  10.344 -1.1072 -0.9606  1.3446
  798MOL0     C 7604   9.735   7.796  10.318 -0.5301 -0.4077 -0.5609
  798MOL0     C 7605   9.646   7.677  10.312  1.1542 -0.1480 -0.1661
  798MOL0     C 7606   9.507   7.724  10.264 -0.2892 -0.2263  0.0648
  798MOL0     C 7607   9.414   7.605  10.234 -0.1516 -0.3365 -0.0155
  798MOL0     C 7608   9.269   7.660  10.228 -0.0266  0.1390 -0.4143
  798MOL0     C 7609   9.182   7.544  10.168 -0.8927 -0.8211 -0.4145
  798MOL0     C 7610   9.034   7.576  10.189  0.1064 -0.4918  0.5460
  798MOL0     C 7611   8.983   7.522  10.326 -0.2087  0.9265  0.3205
  798MOL0     N 7612   8.846   7.558  10.358  0.9469  0.0091  0.4171
  798MOL0     C 7613   8.799   7.676  10.417  0.1616  0.6517 -0.2604
  798MOL0     C 7614   8.668   7.656  10.433  0.0589 -0.6590 -0.1231
  798MOL0     C 7615   8.585   7.769  10.484 -0.0736  0.0394 -0.0024
  798MOL0     C 7616   8.444   7.777  10.427  0.1835 -0.5729  0.0344
  798MOL0     C 7617   8.447   7.837  10.284  0.8845 -1.2218 -0.4743
  798MOL0     C 7618   8.345   7.955  10.266  0.2960 -0.2286  0.6951
  798MOL0     O 7619   8.199   7.912  10.270 -0.3963  0.4095  0.2285
  798MOL0     C 7620   8.109   7.994  10.215 -0.2171 -0.9104  0.4100
  798MOL0     C 7621   8.133   8.137  10.211  0.2989 -0.6303  0.1914
  798MOL0     C 7622   8.029   8.222  10.153  0.0789 -0.0150  0.0455
  798MOL0     C 7623   8.066   8.366  10.145  0.1473  0.0464 -0.0793
  798MOL0     C 7624   7.914   8.161  10.098 -0.0606 -0.4186  0.6663
  798MOL0     C 7625   7.819   8.237  10.012 -0.2753  0.1456 -0.3108
  798MOL0     O 7626   7.684   8.197  10.029 -0.8006 -0.2624 -0.0977
  798MOL0     C 7627   7.583   8.279   9.984 -0.2435  0.4690 -0.0658
  798MOL0     C 7628   7.591   8.417   9.979  0.6119 -0.1887 -0.9165
  798MOL0     C 7629   7.473   8.487   9.948 -0.3729 -0.7266  0.5575
  798MOL0     C 7630   7.352   8.426   9.913 -0.4199 -0.9030 -0.3789
  798MOL0     O 7631   7.253   8.494   9.858  0.2452 -0.2408  0.0494
  798MOL0     C 7632   7.206   8.614   9.917  0.5807  0.2494  0.1427
  798MOL0     C 7633   7.081   8.654   9.851 -0.4364  0.1045 -0.1779
  798MOL0     C 7634   6.960   8.570   9.893  0.2307  0.8060 -0.6390
  798MOL0     C 7635   6.834   8.655   9.858  0.0896  0.4306 -0.9383
  798MOL0     C 7636   6.712   8.561   9.846 -0.3517 -0.7439 -1.0221
  798MOL0     C 7637   6.688   8.500   9.706  0.6749 -0.2657 -0.8304
  798MOL0     C 7638   6.581   8.391   9.699 -0.8937  0.4458 -0.9452
  798MOL0     C 7639   6.432   8.419   9.720 -0.5918 -0.5955  0.5037
  798MOL0    Cl 7640   6.385   8.523   9.580  0.1473 -0.1764  0.0113
  798MOL0     C 7641   7.353   8.288   9.908 -0.6257 -0.3756 -0.7517
  798MOL0     C 7642   7.464   8.215   9.950  0.6403  0.4497  0.5147
  798MOL0     O 7643   7.864   8.321   9.932 -1.1453 -0.1993 -0.2551
  798MOL0     C 7644   7.896   8.028  10.111 -1.2700 -0.7159  1.4465
  798MOL0     C 7645   7.992   7.943  10.173 -0.0967 -0.0283 -0.2850
  798MOL0     N 7646   8.640   7.521  10.388  0.2562 -0.6018  0.0511
  798MOL0     N 7647   8.751   7.464  10.350 -0.3387 -0.0049  0.2476
  798MOL0     C 7648   9.956   7.975  10.382  0.5555  0.8111 -0.4533
  798MOL0     C 7649  10.063   8.058  10.418  0.7704  0.4114  0.2603
  798MOL0     C 7650  10.415   8.185  10.670  0.2432  0.1188  0.7598
  798MOL0     C 7651  10.541   8.152  10.617 -0.7493  0.3627 -0.2475
  798MOL0     C 7652  10.656   8.206  10.670 -0.9465  0.1133  0.1527
  798MOL0     C 7653  10.650   8.292  10.788 -0.7709 -1.0948  0.1401
  798MOL0     O 7654  10.765   8.342  10.850  0.5613  0.4135 -0.4001
  798MOL0     C 7655  10.899   8.312  10.798  0.2307 -0.2383  0.1759
  798MOL0     C 7656  11.006   8.355  10.895  0.2443  0.2041  0.6908
  798MOL0     C 7657  11.140   8.366  10.823  0.1201 -0.6014 -0.8460
  798MOL0     C 7658  11.236   8.429  10.917  0.1907  0.0450 -0.3207
  798MOL0     C 7659  11.343   8.496  10.849 -0.5902  0.2345 -0.7178
  798MOL0     C 7660  11.428   8.558  10.788 -0.3397  0.6715 -0.0547
  798MOL0     C 7661  10.525   8.318  10.852  0.2633  0.0017  0.2745
  798MOL0     C 7662  10.417   8.266  10.788  0.0472  0.0068  1.0883
  798MOL0     H 7663  10.308   7.813  10.410 -1.5474 -2.0461  1.3059
  798MOL0     H 7664  10.115   7.682  10.349  1.2876  0.2515 -1.4811
  798MOL0     H 7665   9.695   7.862  10.396  0.4671  0.0360 -0.4120
  798MOL0     H 7666   9.735   7.855  10.226 -0.5036  1.7954  0.7844
  798MOL0     H 7667   9.674   7.599  10.241 -0.8750  0.2327 -1.4707
  798MOL0     H 7668   9.635   7.626  10.408 -0.5729  0.3451 -0.0657
  798MOL0     H 7669   9.464   7.796  10.334 -0.2088 -0.5981  0.5088
  798MOL0     H 7670   9.518   7.777  10.169 -1.1127  2.5590  1.4417
  798MOL0     H 7671   9.448   7.568  10.137  3.1232 -0.3404  1.0127
  798MOL0     H 7672   9.430   7.525  10.306  0.7554  2.0327  2.6055
  798MOL0     H 7673   9.232   7.673  10.331 -1.9006 -0.8067 -0.9298
  798MOL0     H 7674   9.261   7.750  10.166  0.2628 -0.3160 -1.1213
  798MOL0     H 7675   9.216   7.540  10.064  2.8784 -1.3982  0.6883
  798MOL0     H 7676   9.212   7.447  10.208  1.8619 -0.3581 -1.1566
  798MOL0     H 7677   9.031   7.686  10.192 -3.1927 -0.4068 -1.2630
  798MOL0     H 7678   8.963   7.538  10.115  2.0920 -1.3382 -0.9886
  798MOL0     H 7679   9.039   7.561  10.411 -0.2060  2.9975 -0.5776
  798MOL0     H 7680   8.993   7.413  10.324 -0.7592  0.7194  3.6098
  798MOL0     H 7681   8.859   7.763  10.439 -1.1758  1.2624  1.1236
  798MOL0     H 7682   8.571   7.757  10.592  0.9411  0.7160  0.2202
  798MOL0     H 7683   8.639   7.863  10.471 -0.1410  0.0708 -0.0491
  798MOL0     H 7684   8.381   7.840  10.491 -1.3807 -1.1621 -0.8671
  798MOL0     H 7685   8.403   7.676  10.434  1.7289 -1.3365 -1.3823
  798MOL0     H 7686   8.429   7.761  10.207 -0.7714 -3.5583  2.0034
  798MOL0     H 7687   8.548   7.870  10.260 -0.0124  1.4068 -1.0070
  798MOL0     H 7688   8.363   8.003  10.169  2.8157 -1.0316  0.7026
  798MOL0     H 7689   8.374   8.019  10.349  1.6440 -2.6024  2.1756
  798MOL0     H 7690   8.230   8.179  10.239  0.0517  0.0540  0.0378
  798MOL0     H 7691   8.150   8.386  10.212  0.8290 -0.5936 -0.7315
  798MOL0     H 7692   8.102   8.397  10.046  1.0676  2.0312  0.8090
  798MOL0     H 7693   7.982   8.429  10.178 -0.5618 -0.7807 -0.2622
  798MOL0     H 7694   7.686   8.467   9.994  1.4199 -2.2139  1.4886
  798MOL0     H 7695   7.491   8.594   9.943  2.4976 -1.1717 -1.3230
  798MOL0     H 7696   7.188   8.584  10.021  0.7927 -2.5289 -0.5557
  798MOL0     H 7697   7.277   8.698   9.924 -0.9403  1.4381  4.2264
  798MOL0     H 7698   7.084   8.759   9.883  1.4323  0.1535 -0.4082
  798MOL0     H 7699   7.078   8.648   9.742 -2.2107  0.5280 -0.1768
  798MOL0     H 7700   6.977   8.550   9.999  4.2470  2.1358 -0.8579
  798MOL0     H 7701   6.950   8.474   9.842  1.4295  1.2869 -1.8436
  798MOL0     H 7702   6.808   8.729   9.935  0.6737 -0.2397 -0.0796
  798MOL0     H 7703   6.851   8.704   9.762 -2.3389  0.1761 -1.5590
  798MOL0     H 7704   6.622   8.620   9.865  0.6185  0.2144  0.8515
  798MOL0     H 7705   6.720   8.480   9.919  0.9967 -0.7435 -1.1490
  798MOL0     H 7706   6.673   8.572   9.625 -0.2718  1.2153  0.5949
  798MOL0     H 7707   6.777   8.446   9.675 -0.5325 -3.1305  0.3908
  798MOL0     H 7708   6.604   8.306   9.765  0.0460  2.6311  1.6958
  798MOL0     H 7709   6.598   8.352   9.598 -0.4071  0.1475 -0.7523
  798MOL0     H 7710   6.417   8.470   9.816 -2.7202 -0.5322  0.1828
  798MOL0     H 7711   6.371   8.329   9.727  0.9973 -1.7235  0.3897
  798MOL0     H 7712   7.254   8.247   9.887 -1.8035  1.3574  1.0409
  798MOL0     H 7713   7.437   8.112   9.973  1.0717 -0.2350 -1.8600
  798MOL0     H 7714   7.811   7.973  10.071 -0.2956 -0.5817 -0.9150
  798MOL0     H 7715   7.982   7.836  10.191 -0.5087 -0.4767 -2.7033
  798MOL0     H 7716   9.859   8.023  10.375 -0.0242 -0.4146 -0.9115
  798MOL0     H 7717  10.060   8.165  10.429  2.2425  0.5908 -0.6616
  798MOL0     H 7718  10.558   8.083  10.535 -1.4789 -1.2560  0.9118
  798MOL0     H 7719  10.752   8.200  10.620  0.1211  0.6324  2.0265
  798MOL0     H 7720  10.911   8.208  10.767  0.6218  0.2586 -1.4838
  798MOL0     H 7721  10.919   8.382  10.715  2.0203 -1.7506 -0.7276
  798MOL0     H 7722  11.003   8.281  10.976 -0.4410 -1.6073 -0.9256
  798MOL0     H 7723  10.973   8.453  10.934 -1.3878  0.1801 -0.5115
  798MOL0     H 7724  11.132   8.420  10.729 -0.0810 -1.9371 -1.6332
  798MOL0     H 7725  11.169   8.261  10.810  1.6834 -0.4374  0.9408
  798MOL0     H 7726  11.285   8.354  10.979  0.2493 -0.7617 -1.3183
  798MOL0     H 7727  11.186   8.510  10.971  0.5237  0.3333 -0.4349
  798MOL0     H 7728  11.503   8.609  10.731 -3.0456  0.7454 -4.0097
  798MOL0     H 7729  10.520   8.377  10.943  5.0679 -1.9911  2.1714
  798MOL0     H 7730  10.321   8.291  10.832 -0.3737  1.3228 -0.4761
  799MOL0     O 7731   0.513   6.482   5.243 -0.2575  0.0522 -0.2217
  799MOL0     C 7732   0.521   6.448   5.125 -0.0253 -0.8393 -0.1380
  799MOL0     O 7733   0.597   6.359   5.072  0.9337  0.3602  0.1288
  799MOL0     C 7734   0.701   6.287   5.132  0.0678 -0.4111 -0.0187
  799MOL0     C 7735   0.788   6.227   5.037  0.5124  0.5467  0.4939
  799MOL0     C 7736   0.898   6.149   5.080  0.0355  0.7660  0.2590
  799MOL0     C 7737   0.927   6.140   5.211 -0.4218  0.4043 -0.2774
  799MOL0     O 7738   1.054   6.082   5.223  0.0572  0.3676 -0.0086
  799MOL0     C 7739   1.132   6.117   5.342  0.3280  1.3527  1.1224
  799MOL0     C 7740   1.160   6.265   5.347  0.2382  0.9555  0.2999
  799MOL0     C 7741   1.208   6.322   5.479 -0.1472  0.5496  0.0117
  799MOL0     C 7742   1.104   6.366   5.574  1.0692  0.0946 -0.4729
  799MOL0     C 7743   1.013   6.486   5.524 -0.8058  0.4801  0.0443
  799MOL0     C 7744   0.874   6.483   5.596 -0.6971 -0.4471 -0.7897
  799MOL0     C 7745   0.795   6.610   5.578  0.6753 -0.5208 -0.0820
  799MOL0     C 7746   0.725   6.620   5.440  0.3842  1.2728  0.5317
  799MOL0     N 7747   0.635   6.728   5.421 -0.6932 -0.0963  0.1036
  799MOL0     C 7748   0.504   6.725   5.462 -0.5317  0.5409 -0.5694
  799MOL0     C 7749   0.455   6.842   5.411 -0.2911 -0.6967  0.0401
  799MOL0     C 7750   0.323   6.901   5.440 -0.8921  0.9402  0.9072
  799MOL0     C 7751   0.195   6.827   5.380 -0.5466 -0.4596 -0.2842
  799MOL0     C 7752   0.062   6.908   5.398 -0.1672 -0.6330  0.5762
  799MOL0     C 7753   0.028   6.981   5.531  0.0795  0.6996  0.0017
  799MOL0     O 7754  -0.062   7.090   5.523  0.5661  0.4425  1.1136
  799MOL0     C 7755  -0.176   7.081   5.446 -0.7271  0.6816 -0.0735
  799MOL0     C 7756  -0.229   7.191   5.383 -0.4804  0.0057 -0.3143
  799MOL0     C 7757  -0.350   7.187   5.311  0.3063  0.2218  0.0743
  799MOL0     C 7758  -0.417   7.318   5.283 -0.7858  0.7219 -0.2576
  799MOL0     C 7759  -0.408   7.056   5.286 -0.7742 -0.6551  0.3925
  799MOL0     C 7760  -0.517   7.029   5.180 -0.3843  0.2942 -0.5457
  799MOL0     O 7761  -0.592   6.917   5.209  0.4357  0.3708 -0.1543
  799MOL0     C 7762  -0.705   6.901   5.125 -0.5439 -0.1984 -0.6404
  799MOL0     C 7763  -0.828   6.908   5.183 -0.2821 -0.0195  0.1178
  799MOL0     C 7764  -0.942   6.885   5.102 -0.8910  0.2422 -0.2305
  799MOL0     C 7765  -0.935   6.884   4.961  0.1628 -0.2680 -0.0397
  799MOL0     O 7766  -1.044   6.877   4.884  0.4817 -0.0853  0.7999
  799MOL0     C 7767  -1.045   6.870   4.742 -0.7119  0.0697 -0.1882
  799MOL0     C 7768  -1.194   6.890   4.706 -0.0407 -0.6689 -0.1188
  799MOL0     C 7769  -1.230   7.040   4.730  1.0839  0.2232  0.4051
  799MOL0     C 7770  -1.380   7.069   4.701 -0.0110 -0.2427  0.8119
  799MOL0     C 7771  -1.420   7.017   4.559 -0.4469 -0.1923 -0.2463
  799MOL0     C 7772  -1.571   7.042   4.529  0.8548  0.0634  0.5591
  799MOL0     C 7773  -1.649   6.927   4.585 -0.3353  0.4206 -0.3626
  799MOL0     C 7774  -1.798   6.949   4.546  0.1388 -0.3498 -0.5857
  799MOL0    Cl 7775  -1.880   6.793   4.582 -0.3743  0.3437 -0.0366
  799MOL0     C 7776  -0.800   6.869   4.906 -0.1277 -0.2589 -0.2662
  799MOL0     C 7777  -0.683   6.875   4.987 -0.2531 -0.0276 -0.1896
  799MOL0     O 7778  -0.539   7.110   5.092 -0.1995 -0.8332  0.9068
  799MOL0     C 7779  -0.362   6.945   5.358 -0.0528  0.5637 -0.3758
  799MOL0     C 7780  -0.244   6.952   5.431  0.1943  0.0241 -0.6671
  799MOL0     N 7781   0.552   6.916   5.351  0.7417  0.6990 -0.4232
  799MOL0     N 7782   0.666   6.850   5.359 -0.7513  0.5321  0.6113
  799MOL0     C 7783   0.838   6.195   5.306  0.3840  1.3600 -0.6417
  799MOL0     C 7784   0.723   6.262   5.265 -0.3675  0.1007 -0.0873
  799MOL0     C 7785   0.425   6.513   5.028 -0.6842 -0.6210 -0.8088
  799MOL0     C 7786   0.390   6.442   4.911  0.1863 -0.4156  0.3674
  799MOL0     C 7787   0.314   6.503   4.817 -0.0310  0.5940 -0.3388
  799MOL0     C 7788   0.246   6.619   4.840 -0.3572 -0.9226 -0.3888
  799MOL0     O 7789   0.169   6.689   4.750 -0.4374 -0.1951  0.2154
  799MOL0     C 7790   0.117   6.632   4.633  0.1109  0.3697  1.0774
  799MOL0     C 7791  -0.018   6.692   4.589 -0.4776  0.6990 -0.5288
  799MOL0     C 7792  -0.011   6.840   4.572 -0.4491 -1.5109  1.2619
  799MOL0     C 7793  -0.139   6.917   4.525  0.9678 -0.0012  0.1153
  799MOL0     C 7794  -0.179   6.858   4.403  0.8784  0.1549 -0.3477
  799MOL0     C 7795  -0.199   6.808   4.295 -0.4166 -1.7888  0.1942
  799MOL0     C 7796   0.258   6.677   4.964 -0.3897 -0.1379  0.7142
  799MOL0     C 7797   0.348   6.625   5.061 -0.6122 -0.2186  0.3310
  799MOL0     H 7798   0.761   6.233   4.932 -1.8825  0.3552  1.0302
  799MOL0     H 7799   0.961   6.101   5.005 -1.4333 -0.4790 -0.2118
  799MOL0     H 7800   1.083   6.082   5.434 -1.3600 -1.6051 -0.7525
  799MOL0     H 7801   1.227   6.062   5.341 -0.1880  0.4418 -0.8020
  799MOL0     H 7802   1.230   6.284   5.265 -0.5232  1.6055 -0.2214
  799MOL0     H 7803   1.068   6.320   5.323  0.2842  1.1888  0.6596
  799MOL0     H 7804   1.262   6.248   5.539 -2.1146 -1.8026 -0.9707
  799MOL0     H 7805   1.269   6.412   5.462 -1.0203  2.1765  4.1833
  799MOL0     H 7806   1.031   6.288   5.598 -0.5474  2.3057  2.5099
  799MOL0     H 7807   1.153   6.394   5.669  1.6998 -0.2785 -0.6803
  799MOL0     H 7808   1.061   6.582   5.548  0.0085  0.2475 -0.6515
  799MOL0     H 7809   1.004   6.497   5.416  1.8582  4.4986  0.0199
  799MOL0     H 7810   0.827   6.395   5.551 -0.3430  0.2713 -2.6405
  799MOL0     H 7811   0.876   6.463   5.703 -1.5622  1.0456 -0.4640
  799MOL0     H 7812   0.718   6.611   5.656 -1.4720 -2.1109 -2.0704
  799MOL0     H 7813   0.862   6.696   5.588  1.5911 -1.4103  2.3127
  799MOL0     H 7814   0.670   6.526   5.430  0.6492  1.2035 -0.3837
  799MOL0     H 7815   0.803   6.620   5.364 -0.2648  0.9105 -0.1426
  799MOL0     H 7816   0.460   6.649   5.526  0.2260  0.8916  0.3919
  799MOL0     H 7817   0.319   6.920   5.547  1.5649  2.2662  0.8301
  799MOL0     H 7818   0.322   7.000   5.394  0.0320 -0.4016 -2.2824
  799MOL0     H 7819   0.196   6.742   5.450  3.2560  0.7078  1.3222
  799MOL0     H 7820   0.216   6.797   5.277  0.2319 -1.4717  0.1526
  799MOL0     H 7821  -0.013   6.830   5.383  0.6163 -1.1886 -0.6512
  799MOL0     H 7822   0.052   6.983   5.319  2.6421 -1.2838 -0.5296
  799MOL0     H 7823   0.121   7.012   5.580  1.0152 -1.6213 -0.1442
  799MOL0     H 7824  -0.021   6.909   5.597  2.3732 -1.4184 -0.4213
  799MOL0     H 7825  -0.174   7.283   5.398 -0.0870 -0.4027  0.8126
  799MOL0     H 7826  -0.473   7.333   5.375 -2.5884  4.1138 -1.7524
  799MOL0     H 7827  -0.335   7.390   5.276  0.4654 -0.7601 -2.2876
  799MOL0     H 7828  -0.484   7.331   5.197 -1.8266  0.7156  0.5385
  799MOL0     H 7829  -0.827   6.905   5.292 -0.2450 -1.1371  0.0961
  799MOL0     H 7830  -1.042   6.898   5.142 -0.1815  1.7988  1.1570
  799MOL0     H 7831  -0.976   6.937   4.692 -0.3804  0.4261  0.7223
  799MOL0     H 7832  -1.012   6.767   4.722  1.4318  0.5745  0.5208
  799MOL0     H 7833  -1.215   6.862   4.603  0.2395 -0.2374 -0.2951
  799MOL0     H 7834  -1.253   6.819   4.764  0.3990  0.5527  1.9314
  799MOL0     H 7835  -1.174   7.097   4.655 -2.5608  2.0791 -1.1345
  799MOL0     H 7836  -1.196   7.068   4.830 -0.0617  0.9240  0.6158
  799MOL0     H 7837  -1.441   7.021   4.778 -0.2693  1.4246  1.6893
  799MOL0     H 7838  -1.390   7.178   4.708 -0.0214 -0.0677 -1.2861
  799MOL0     H 7839  -1.411   6.909   4.545 -2.3453 -0.1377 -2.8204
  799MOL0     H 7840  -1.363   7.066   4.479 -3.5985  2.4681 -1.1072
  799MOL0     H 7841  -1.611   7.135   4.570  0.1493 -0.3228  0.7656
  799MOL0     H 7842  -1.587   7.061   4.422  0.9351 -0.6464  0.4201
  799MOL0     H 7843  -1.642   6.913   4.694  0.1908  0.2416 -0.4169
  799MOL0     H 7844  -1.623   6.836   4.531 -0.2787  2.7559 -4.7064
  799MOL0     H 7845  -1.803   6.961   4.438  1.5039 -2.0849 -0.8777
  799MOL0     H 7846  -1.843   7.035   4.597  0.1209  1.1916 -3.0182
  799MOL0     H 7847  -0.790   6.856   4.799  2.3857 -3.0606  0.2101
  799MOL0     H 7848  -0.581   6.864   4.949 -0.2139  1.1879 -0.4846
  799MOL0     H 7849  -0.407   6.847   5.339 -1.2928  1.1793 -0.7085
  799MOL0     H 7850  -0.211   6.861   5.481 -1.2627 -0.6431 -0.8819
  799MOL0     H 7851   0.865   6.192   5.411 -3.5691  0.2054  0.5350
  799MOL0     H 7852   0.651   6.299   5.338  1.3309  1.6699  0.8644
  799MOL0     H 7853   0.432   6.348   4.878 -3.2462 -0.9378 -3.1295
  799MOL0     H 7854   0.275   6.465   4.723 -4.7767  1.6092  0.9761
  799MOL0     H 7855   0.191   6.653   4.555 -1.8943  2.0772 -0.4660
  799MOL0     H 7856   0.100   6.525   4.642  1.0354  0.0521 -0.5207
  799MOL0     H 7857  -0.092   6.659   4.662 -0.9022  1.7981 -0.4384
  799MOL0     H 7858  -0.039   6.641   4.494 -0.7858 -0.4121  0.1295
  799MOL0     H 7859   0.070   6.860   4.501  0.8491 -2.7086  2.3573
  799MOL0     H 7860   0.021   6.884   4.667 -0.9319 -0.6621  1.0397
  799MOL0     H 7861  -0.124   7.025   4.513 -0.8483  0.4850  1.8056
  799MOL0     H 7862  -0.220   6.904   4.597  0.6046 -0.7247 -0.4112
  799MOL0     H 7863  -0.219   6.773   4.196 -1.7860 -0.5675  0.0142
  799MOL0     H 7864   0.207   6.772   4.975  3.0853  1.7070  2.6667
  799MOL0     H 7865   0.353   6.671   5.159 -1.9775  1.9410 -0.5308
  800MOL0     O 7866   0.572   2.828   5.819  0.6970 -0.3804  0.4052
  800MOL0     C 7867   0.621   2.930   5.776  0.1368 -0.5541  0.0599
  800MOL0     O 7868   0.547   3.036   5.732  0.5289  0.3263 -0.1002
  800MOL0     C 7869   0.414   3.044   5.754  0.4646  0.7186  0.0505
  800MOL0     C 7870   0.335   3.009   5.868 -0.0114 -1.0354  0.0498
  800MOL0     C 7871   0.198   3.036   5.868 -0.4436  0.0158 -0.2804
  800MOL0     C 7872   0.131   3.080   5.759  0.1280 -0.7702 -0.3597
  800MOL0     O 7873  -0.002   3.111   5.761  1.0335  0.2095 -0.2551
  800MOL0     C 7874  -0.058   3.211   5.674 -0.1725 -0.2211  0.6447
  800MOL0     C 7875  -0.212   3.208   5.688 -0.5849  0.4207  1.1698
  800MOL0     C 7876  -0.254   3.220   5.839 -0.8215 -0.3973 -0.2735
  800MOL0     C 7877  -0.404   3.249   5.854 -0.3415 -0.0869 -0.9621
  800MOL0     C 7878  -0.445   3.233   5.999  0.5859 -0.2759  0.2276
  800MOL0     C 7879  -0.597   3.269   6.001 -0.2038 -0.2784 -0.4816
  800MOL0     C 7880  -0.667   3.244   6.135  0.1249  0.8284  0.2773
  800MOL0     C 7881  -0.614   3.337   6.248  0.9409  0.1230 -0.5341
  800MOL0     N 7882  -0.592   3.474   6.211 -0.7658  0.3673  0.0398
  800MOL0     C 7883  -0.691   3.563   6.198  0.7973 -0.9070 -0.1138
  800MOL0     C 7884  -0.639   3.667   6.125  0.2050  0.7182  0.4905
  800MOL0     C 7885  -0.718   3.802   6.104  0.6421  0.6408 -0.4770
  800MOL0     C 7886  -0.793   3.802   5.974 -0.1884  0.5865 -0.3927
  800MOL0     C 7887  -0.885   3.923   5.957 -0.3897 -0.1846 -1.0645
  800MOL0     C 7888  -0.993   3.937   6.059 -0.3854 -0.4851 -0.3785
  800MOL0     O 7889  -1.056   3.805   6.071 -0.0886  0.0731  0.3015
  800MOL0     C 7890  -1.194   3.788   6.051 -0.4448  0.8212 -0.6928
  800MOL0     C 7891  -1.287   3.889   6.065 -0.3466  0.1626 -0.8254
  800MOL0     C 7892  -1.423   3.862   6.056 -0.2975  0.9677 -0.5491
  800MOL0     C 7893  -1.519   3.967   6.106 -0.7832  1.0537  0.1392
  800MOL0     C 7894  -1.468   3.734   6.020 -0.7528  0.0697  0.4169
  800MOL0     C 7895  -1.619   3.700   6.016 -0.7246  0.3322  0.8663
  800MOL0     O 7896  -1.697   3.785   5.949  0.0869 -0.1655  0.3770
  800MOL0     C 7897  -1.828   3.763   5.941 -0.1391 -0.2526  0.7711
  800MOL0     C 7898  -1.887   3.750   5.817 -0.0397  1.2541 -0.5330
  800MOL0     C 7899  -2.018   3.707   5.807 -0.6490 -0.1805  0.1517
  800MOL0     C 7900  -2.105   3.699   5.915 -0.4650  0.0413  0.5013
  800MOL0     O 7901  -2.235   3.674   5.924  0.0887  0.6319 -0.5247
  800MOL0     C 7902  -2.299   3.681   5.793 -0.1337  0.4202  0.5707
  800MOL0     C 7903  -2.450   3.644   5.799  0.0947 -0.0605  0.2245
  800MOL0     C 7904  -2.512   3.655   5.656 -0.0290 -0.6938  0.4164
  800MOL0     C 7905  -2.524   3.524   5.582  0.0283  0.7510 -0.5620
  800MOL0     C 7906  -2.559   3.561   5.441 -0.1969 -0.7014 -0.3994
  800MOL0     C 7907  -2.511   3.461   5.336  0.5257  1.2780  0.3592
  800MOL0     C 7908  -2.574   3.315   5.347 -0.4326 -0.1004  0.8614
  800MOL0     C 7909  -2.562   3.214   5.228 -0.3905  0.4122 -0.0798
  800MOL0    Cl 7910  -2.666   3.273   5.095  0.5809  0.2569 -0.1665
  800MOL0     C 7911  -2.044   3.722   6.042 -0.2714 -0.4116 -0.7745
  800MOL0     C 7912  -1.906   3.752   6.052  0.2957  0.5386 -0.0649
  800MOL0     O 7913  -1.656   3.592   6.067  0.3135  1.0917  0.3426
  800MOL0     C 7914  -1.368   3.635   6.005 -0.4337  0.5092 -0.4162
  800MOL0     C 7915  -1.234   3.657   6.038 -0.2336  0.1661  0.0509
  800MOL0     N 7916  -0.507   3.639   6.114  0.3490 -0.5818 -0.3605
  800MOL0     N 7917  -0.475   3.521   6.157 -0.5515  0.0417 -0.6240
  800MOL0     C 7918   0.213   3.116   5.644  0.1417  0.2962 -0.5310
  800MOL0     C 7919   0.350   3.087   5.640 -0.1621 -0.5414 -0.5095
  800MOL0     C 7920   0.764   2.959   5.789 -0.0526  0.8144 -1.2020
  800MOL0     C 7921   0.822   3.055   5.712  0.5232  0.3311 -0.9419
  800MOL0     C 7922   0.966   3.072   5.709  0.6497  0.0225 -0.5313
  800MOL0     C 7923   1.047   2.989   5.792  0.1224  0.3087  0.5027
  800MOL0     O 7924   1.184   2.985   5.764  0.2792 -0.6484 -0.4934
  800MOL0     C 7925   1.225   2.938   5.637 -0.1386 -1.2289  0.0006
  800MOL0     C 7926   1.355   2.855   5.669  0.7285  0.2013  0.3127
  800MOL0     C 7927   1.383   2.770   5.542 -0.0731 -0.2492 -0.1994
  800MOL0     C 7928   1.492   2.664   5.575 -0.4612 -0.7932  0.2123
  800MOL0     C 7929   1.528   2.606   5.441 -1.0132  0.1548 -0.8511
  800MOL0     C 7930   1.563   2.578   5.333 -0.6978  0.6655  0.4378
  800MOL0     C 7931   0.983   2.891   5.871  0.0079  0.7189 -1.2748
  800MOL0     C 7932   0.842   2.874   5.870  0.1830 -0.6714 -0.0411
  800MOL0     H 7933   0.397   2.971   5.949  0.8820  1.0338  0.4199
  800MOL0     H 7934   0.133   3.016   5.953  0.0748  2.9705  0.9487
  800MOL0     H 7935  -0.020   3.310   5.701  1.2491 -0.1240 -1.4539
  800MOL0     H 7936  -0.033   3.184   5.571  0.9865 -1.6772  1.2765
  800MOL0     H 7937  -0.240   3.292   5.623  2.3284 -0.5615 -1.6695
  800MOL0     H 7938  -0.243   3.107   5.661  4.1848 -0.7911 -1.0359
  800MOL0     H 7939  -0.239   3.128   5.896  0.1429  0.8393  1.5898
  800MOL0     H 7940  -0.200   3.305   5.883  1.6091 -2.0749  0.1440
  800MOL0     H 7941  -0.420   3.354   5.828  1.0468  0.6545  0.9897
  800MOL0     H 7942  -0.465   3.178   5.797 -0.6683  0.3068 -1.1104
  800MOL0     H 7943  -0.436   3.128   6.030 -3.6175 -0.7469  0.4860
  800MOL0     H 7944  -0.385   3.290   6.071 -1.7741  1.1239  1.2164
  800MOL0     H 7945  -0.617   3.373   5.973 -3.0458 -1.1069 -1.9783
  800MOL0     H 7946  -0.636   3.206   5.921  0.5426 -0.7394 -0.4935
  800MOL0     H 7947  -0.771   3.264   6.107  0.0725 -0.8597 -0.8895
  800MOL0     H 7948  -0.649   3.141   6.166 -2.1460  0.2108 -0.2793
  800MOL0     H 7949  -0.518   3.302   6.287  0.3351 -0.8192  0.1726
  800MOL0     H 7950  -0.680   3.335   6.335 -0.1774 -0.6753 -1.3704
  800MOL0     H 7951  -0.789   3.552   6.243  0.5970 -0.3719 -0.4100
  800MOL0     H 7952  -0.784   3.822   6.189  1.9817  1.2405  0.4726
  800MOL0     H 7953  -0.645   3.884   6.101  0.2053  1.1886  1.9325
  800MOL0     H 7954  -0.846   3.710   5.951 -1.7116  2.0952 -3.5358
  800MOL0     H 7955  -0.713   3.807   5.900  0.0586 -2.6881 -0.4918
  800MOL0     H 7956  -0.934   3.905   5.861 -0.3354 -3.8131 -0.5609
  800MOL0     H 7957  -0.820   4.012   5.965 -0.5444 -0.1160 -0.5342
  800MOL0     H 7958  -1.055   4.022   6.032 -0.9824 -0.8844 -0.2747
  800MOL0     H 7959  -0.951   3.965   6.157  2.4962 -3.4251 -0.6027
  800MOL0     H 7960  -1.273   3.991   6.100 -1.9581 -0.6474  2.5026
  800MOL0     H 7961  -1.586   3.926   6.183 -0.4916  1.7687  0.7937
  800MOL0     H 7962  -1.476   4.056   6.152 -1.0232  0.2177  2.0903
  800MOL0     H 7963  -1.582   4.003   6.024  1.2905  0.4985 -1.7762
  800MOL0     H 7964  -1.825   3.772   5.730  1.3365 -3.3138 -0.9695
  800MOL0     H 7965  -2.048   3.693   5.703  0.2304 -2.2230  0.1263
  800MOL0     H 7966  -2.277   3.769   5.732  0.4654 -1.1880 -1.6808
  800MOL0     H 7967  -2.258   3.610   5.720 -1.3838 -0.7373  0.9538
  800MOL0     H 7968  -2.461   3.543   5.839  1.0201 -0.6593 -0.9697
  800MOL0     H 7969  -2.506   3.712   5.864 -0.2960  0.2041 -0.3731
  800MOL0     H 7970  -2.459   3.733   5.599 -2.0779 -0.1496 -0.8393
  800MOL0     H 7971  -2.612   3.698   5.659  0.4587  0.4886  3.0472
  800MOL0     H 7972  -2.429   3.470   5.588 -0.6510 -0.2985  1.8796
  800MOL0     H 7973  -2.599   3.449   5.608 -0.6261  1.0006 -1.6347
  800MOL0     H 7974  -2.514   3.657   5.415 -0.8149  0.0003  1.0685
  800MOL0     H 7975  -2.668   3.559   5.430 -0.4181  4.2798 -1.4399
  800MOL0     H 7976  -2.528   3.505   5.237 -1.7371 -1.1205 -0.4503
  800MOL0     H 7977  -2.403   3.442   5.343  0.1511 -1.6466 -0.2763
  800MOL0     H 7978  -2.681   3.327   5.365 -1.1346 -0.3378 -2.5533
  800MOL0     H 7979  -2.520   3.266   5.429  1.9978  1.1242  0.0873
  800MOL0     H 7980  -2.613   3.123   5.262  0.0511 -0.2622 -1.1998
  800MOL0     H 7981  -2.462   3.186   5.195  0.0112 -0.6082  1.8199
  800MOL0     H 7982  -2.092   3.720   6.139 -1.3304  1.2074 -1.2412
  800MOL0     H 7983  -1.849   3.763   6.143 -2.0358  1.6866  1.3234
  800MOL0     H 7984  -1.397   3.534   5.977  0.9008 -0.6245  1.9332
  800MOL0     H 7985  -1.169   3.571   6.036 -1.9183 -1.2609  2.1543
  800MOL0     H 7986   0.155   3.155   5.561 -2.7114 -3.1473 -0.3827
  800MOL0     H 7987   0.408   3.109   5.551  1.3368  2.6540  1.0614
  800MOL0     H 7988   0.758   3.109   5.644 -1.3105  2.3391  2.1225
  800MOL0     H 7989   1.000   3.151   5.643 -0.9819  0.8251 -0.4514
  800MOL0     H 7990   1.138   2.883   5.601 -1.4127  0.1431  0.8815
  800MOL0     H 7991   1.247   3.022   5.571  1.7010 -3.0517 -1.8818
  800MOL0     H 7992   1.335   2.793   5.757 -0.2927 -1.3519 -0.9531
  800MOL0     H 7993   1.434   2.930   5.684 -0.7346  2.2377 -1.5273
  800MOL0     H 7994   1.414   2.842   5.466  3.1819  0.2173  1.4082
  800MOL0     H 7995   1.297   2.710   5.511 -0.4248  1.0870 -2.0054
  800MOL0     H 7996   1.451   2.594   5.648  1.7790 -0.1360  2.2466
  800MOL0     H 7997   1.587   2.702   5.614  1.2616  1.2257 -5.1470
  800MOL0     H 7998   1.604   2.547   5.239  0.7303  1.0939  0.9036
  800MOL0     H 7999   1.032   2.818   5.935 -0.9415  0.8800 -0.3232
  800MOL0     H 8000   0.796   2.793   5.925  0.1101  0.2165  1.2270
  801MOL0     O 8001  10.191   9.045   3.700  0.2938 -0.7942  0.4935
  801MOL0     C 8002  10.298   8.996   3.679 -0.5306 -0.0658  0.7214
  801MOL0     O 8003  10.315   8.867   3.645  0.0176 -0.2894 -0.5669
  801MOL0     C 8004  10.206   8.785   3.621  0.3360  0.0652 -0.2038
  801MOL0     C 8005  10.088   8.826   3.559 -0.6587 -0.0948  0.1990
  801MOL0     C 8006   9.983   8.740   3.555 -0.1406 -1.0702  0.4564
  801MOL0     C 8007  10.000   8.605   3.598 -0.1791  0.2079  0.1993
  801MOL0     O 8008   9.889   8.522   3.591  0.0757  0.2691 -0.4272
  801MOL0     C 8009   9.845   8.475   3.715  0.8274  0.0163 -0.0350
  801MOL0     C 8010   9.715   8.385   3.695 -0.1481  0.4777 -0.5588
  801MOL0     C 8011   9.657   8.330   3.830 -0.0235 -0.2501 -0.2800
  801MOL0     C 8012   9.507   8.283   3.824 -1.3529 -0.2659 -0.0603
  801MOL0     C 8013   9.490   8.178   3.710  0.8086 -1.1130 -0.6241
  801MOL0     C 8014   9.339   8.129   3.703  0.5855 -0.1060  0.0445
  801MOL0     C 8015   9.287   8.049   3.831 -0.7534 -0.4093  0.5002
  801MOL0     C 8016   9.147   8.001   3.785 -0.5427  0.9245 -0.1729
  801MOL0     N 8017   9.099   7.918   3.894 -0.1205  0.0051 -0.1079
  801MOL0     C 8018   9.064   7.961   4.016 -0.1036 -0.9207 -0.3304
  801MOL0     C 8019   9.022   7.851   4.089 -0.2292 -0.1436 -0.1466
  801MOL0     C 8020   8.985   7.854   4.229 -0.4079 -0.1543 -0.7186
  801MOL0     C 8021   8.834   7.830   4.242 -0.1528  0.2396  0.5204
  801MOL0     C 8022   8.804   7.810   4.389 -0.6823 -0.0709  0.8865
  801MOL0     C 8023   8.652   7.840   4.409 -0.8574 -0.1882 -0.0719
  801MOL0     O 8024   8.564   7.733   4.349 -0.4836  0.1842  0.3026
  801MOL0     C 8025   8.433   7.756   4.339  0.8325 -0.4576  0.9508
  801MOL0     C 8026   8.351   7.664   4.275  0.4844 -0.1985  0.2486
  801MOL0     C 8027   8.218   7.676   4.257  0.4210 -0.0954  0.3811
  801MOL0     C 8028   8.138   7.568   4.194  0.7183  0.1577 -0.2187
  801MOL0     C 8029   8.148   7.792   4.308 -0.4521  0.1781 -0.1661
  801MOL0     C 8030   7.995   7.795   4.291 -0.0155  0.5085  0.4101
  801MOL0     O 8031   7.934   7.813   4.408  0.5001 -0.3508  0.5037
  801MOL0     C 8032   7.804   7.849   4.412 -0.3496 -0.3314 -0.0682
  801MOL0     C 8033   7.706   7.758   4.396  0.5409 -0.6156  0.7468
  801MOL0     C 8034   7.568   7.797   4.403  0.1238  0.4671 -0.0467
  801MOL0     C 8035   7.534   7.931   4.436  0.1985 -0.4031  0.3035
  801MOL0     O 8036   7.402   7.957   4.444  1.0554 -0.7887 -1.2040
  801MOL0     C 8037   7.358   8.088   4.441  0.0087 -0.4411  0.5101
  801MOL0     C 8038   7.202   8.081   4.450 -0.3211 -1.1800 -0.4365
  801MOL0     C 8039   7.136   8.207   4.506 -0.6437 -0.7353 -0.0480
  801MOL0     C 8040   6.990   8.219   4.473  0.0887 -0.3703  0.0688
  801MOL0     C 8041   6.925   8.340   4.538 -0.2359  0.7881 -0.1594
  801MOL0     C 8042   6.776   8.319   4.544 -0.2360 -0.0159 -0.1978
  801MOL0     C 8043   6.713   8.441   4.611 -0.4987  0.1159 -0.3290
  801MOL0     C 8044   6.563   8.429   4.626 -0.0942 -0.8740  0.1162
  801MOL0    Cl 8045   6.490   8.401   4.473  0.5525  0.0718 -0.4580
  801MOL0     C 8046   7.638   8.026   4.453 -0.6348 -0.2693  0.2747
  801MOL0     C 8047   7.772   7.985   4.444  0.2116 -0.1113  0.1713
  801MOL0     O 8048   7.948   7.791   4.179  0.5960 -0.3372  0.0006
  801MOL0     C 8049   8.231   7.888   4.374  0.3952  0.2314  0.6465
  801MOL0     C 8050   8.369   7.869   4.383  0.6169  0.4812 -0.0531
  801MOL0     N 8051   9.042   7.745   4.003  0.1399 -0.6055  0.2436
  801MOL0     N 8052   9.100   7.782   3.891  0.2738 -0.2324 -0.2955
  801MOL0     C 8053  10.122   8.560   3.643 -0.8700 -0.1142 -0.1139
  801MOL0     C 8054  10.231   8.648   3.646  0.3840 -0.3588 -0.1927
  801MOL0     C 8055  10.426   9.063   3.709 -0.4584 -0.4021 -0.0704
  801MOL0     C 8056  10.551   9.002   3.669 -0.0213 -0.7462  0.0068
  801MOL0     C 8057  10.672   9.060   3.689 -0.1595 -0.2880  0.1132
  801MOL0     C 8058  10.677   9.192   3.749  0.3975 -0.3882  0.8041
  801MOL0     O 8059  10.781   9.269   3.779 -0.6217  0.3151  0.0334
  801MOL0     C 8060  10.921   9.223   3.766  0.5285 -0.5449 -0.7354
  801MOL0     C 8061  11.009   9.337   3.809  0.1735 -0.1462 -1.0912
  801MOL0     C 8062  10.989   9.462   3.709 -0.2019  0.4434 -0.3307
  801MOL0     C 8063  11.049   9.589   3.773  0.4330 -0.2973  0.4330
  801MOL0     C 8064  11.198   9.572   3.801  0.0606 -0.0533  0.3084
  801MOL0     C 8065  11.312   9.575   3.847  0.1649  0.0768 -0.0236
  801MOL0     C 8066  10.557   9.256   3.778 -0.0787 -0.6463  0.1595
  801MOL0     C 8067  10.434   9.194   3.758  0.6883  0.9747 -0.4004
  801MOL0     H 8068  10.083   8.930   3.529  4.7782  0.9833  2.0468
  801MOL0     H 8069   9.882   8.773   3.531  0.4974  1.9145  1.4799
  801MOL0     H 8070   9.919   8.415   3.769 -0.2549 -2.6765 -1.3656
  801MOL0     H 8071   9.821   8.566   3.771 -2.0615 -0.1017 -0.9417
  801MOL0     H 8072   9.641   8.439   3.636  2.0416  0.1417 -3.8998
  801MOL0     H 8073   9.750   8.298   3.638 -0.0683  0.2235 -0.1306
  801MOL0     H 8074   9.721   8.249   3.865  0.1267  0.5881  1.5382
  801MOL0     H 8075   9.676   8.413   3.899  3.7624  1.5971 -3.1747
  801MOL0     H 8076   9.471   8.241   3.918 -1.3819 -0.3343 -0.1024
  801MOL0     H 8077   9.437   8.365   3.809  1.1666  1.4218 -4.4518
  801MOL0     H 8078   9.508   8.230   3.615 -0.1984  1.6956  0.6247
  801MOL0     H 8079   9.551   8.087   3.715  0.2571 -1.4840 -0.5868
  801MOL0     H 8080   9.277   8.214   3.674 -3.2780 -2.1096  1.7057
  801MOL0     H 8081   9.327   8.063   3.617  3.7959 -1.6153  0.6001
  801MOL0     H 8082   9.349   7.964   3.860  0.3128 -0.6611 -2.2473
  801MOL0     H 8083   9.299   8.123   3.911  0.0455 -0.7219  0.6798
  801MOL0     H 8084   9.165   7.931   3.703  1.0129  1.0899 -0.0014
  801MOL0     H 8085   9.083   8.086   3.757 -1.4385 -0.1915 -1.6351
  801MOL0     H 8086   9.085   8.062   4.049  0.9474 -0.7919 -1.3324
  801MOL0     H 8087   9.054   7.776   4.264  0.7508 -1.0684 -4.5075
  801MOL0     H 8088   9.009   7.953   4.267 -0.5507  0.1780 -1.4728
  801MOL0     H 8089   8.814   7.736   4.190 -0.5951 -0.1121  1.3053
  801MOL0     H 8090   8.766   7.910   4.212 -1.1863 -1.5035 -2.1530
  801MOL0     H 8091   8.862   7.883   4.447 -1.1327  0.4486  0.6896
  801MOL0     H 8092   8.834   7.707   4.411  1.1202  0.1459 -0.3273
  801MOL0     H 8093   8.617   7.936   4.369 -2.1253 -0.2556  0.8108
  801MOL0     H 8094   8.647   7.846   4.518  4.1285 -0.2517  0.3723
  801MOL0     H 8095   8.401   7.573   4.243 -0.9357 -0.7886 -0.3956
  801MOL0     H 8096   8.062   7.530   4.262  1.2816 -1.5524 -0.4968
  801MOL0     H 8097   8.094   7.606   4.101  1.3630  2.1989  0.2709
  801MOL0     H 8098   8.187   7.471   4.179 -3.4283 -1.7719 -3.8920
  801MOL0     H 8099   7.721   7.653   4.374 -4.0924 -0.8554 -2.8921
  801MOL0     H 8100   7.496   7.717   4.387 -0.2940  0.5793  1.2182
  801MOL0     H 8101   7.397   8.152   4.521  0.4242  1.5763 -1.2100
  801MOL0     H 8102   7.396   8.123   4.345  0.1683  0.2219  0.8073
  801MOL0     H 8103   7.176   8.087   4.344  1.5807  0.0841 -0.8894
  801MOL0     H 8104   7.164   7.987   4.491 -0.1729 -0.6901  0.8505
  801MOL0     H 8105   7.191   8.294   4.469 -0.6103  1.2009  4.0500
  801MOL0     H 8106   7.156   8.218   4.613 -1.4449  2.4535 -0.1341
  801MOL0     H 8107   6.989   8.224   4.364  1.0885  2.0238  0.1109
  801MOL0     H 8108   6.943   8.126   4.506  0.6697 -0.7914 -0.2671
  801MOL0     H 8109   6.936   8.424   4.469 -1.0809  0.9852 -0.0686
  801MOL0     H 8110   6.975   8.353   4.634  2.7852 -1.6860 -1.2328
  801MOL0     H 8111   6.740   8.294   4.443 -1.6670 -4.5787  1.1896
  801MOL0     H 8112   6.750   8.230   4.602  3.7768 -0.1218  1.7144
  801MOL0     H 8113   6.730   8.527   4.546  1.1228 -2.4110 -3.5069
  801MOL0     H 8114   6.752   8.454   4.712 -1.6478  1.4212 -0.0324
  801MOL0     H 8115   6.521   8.522   4.665  0.2592 -1.9560  3.3996
  801MOL0     H 8116   6.540   8.358   4.706 -4.1830  1.9078  1.8076
  801MOL0     H 8117   7.619   8.128   4.487 -0.4498 -1.6533  5.4638
  801MOL0     H 8118   7.854   8.052   4.464  0.3745 -0.0492 -0.6532
  801MOL0     H 8119   8.189   7.979   4.418  0.9849  0.4225  0.8324
  801MOL0     H 8120   8.417   7.944   4.445 -0.6129  0.9736  0.3378
  801MOL0     H 8121  10.131   8.458   3.678 -1.1176 -0.5384 -1.2451
  801MOL0     H 8122  10.327   8.620   3.688 -0.9322 -0.2595  3.1226
  801MOL0     H 8123  10.567   8.897   3.648  0.1816 -0.9725  1.1899
  801MOL0     H 8124  10.754   8.991   3.673 -1.5692 -2.0742  0.3114
  801MOL0     H 8125  10.932   9.137   3.832 -1.9811 -3.7039 -4.0357
  801MOL0     H 8126  10.944   9.190   3.665  2.0807 -0.6900 -0.3588
  801MOL0     H 8127  11.116   9.316   3.805  0.6559  1.4344  1.4997
  801MOL0     H 8128  10.993   9.359   3.915 -0.2578  1.5519 -1.4891
  801MOL0     H 8129  10.881   9.473   3.696 -0.6731 -1.1495  1.7089
  801MOL0     H 8130  11.029   9.434   3.611 -0.4285 -3.3054  0.4800
  801MOL0     H 8131  10.993   9.619   3.862  0.3071 -0.4563  0.4061
  801MOL0     H 8132  11.045   9.670   3.699 -2.2115  1.8447  2.6915
  801MOL0     H 8133  11.406   9.578   3.899 -0.6220  2.5518  1.4414
  801MOL0     H 8134  10.557   9.356   3.821  1.4798  0.5279 -2.3311
  801MOL0     H 8135  10.345   9.242   3.796  1.4420  2.2756 -0.2424
  802MOL0     O 8136   2.346   7.350   0.729  0.0051  0.0985 -1.4954
  802MOL0     C 8137   2.405   7.298   0.825  0.5179  0.1051 -0.6412
  802MOL0     O 8138   2.342   7.228   0.926  0.0725  0.2637  0.7558
  802MOL0     C 8139   2.207   7.232   0.946 -0.3648  0.6355 -0.9007
  802MOL0     C 8140   2.133   7.115   0.965 -0.7277 -0.0806  0.4630
  802MOL0     C 8141   2.001   7.109   1.005  0.8784  0.5413  1.0230
  802MOL0     C 8142   1.931   7.224   1.031  0.0383  0.1233 -0.0158
  802MOL0     O 8143   1.808   7.200   1.068  0.1011 -0.3237  0.3095
  802MOL0     C 8144   1.700   7.280   1.011  0.3075  0.1835  0.3969
  802MOL0     C 8145   1.570   7.197   1.016 -0.2523  0.2036  0.2612
  802MOL0     C 8146   1.497   7.204   1.149  0.8589 -0.2190  0.8793
  802MOL0     C 8147   1.393   7.092   1.149 -0.2032 -0.9350 -0.5468
  802MOL0     C 8148   1.288   7.100   1.263  0.0587 -0.6750 -0.1096
  802MOL0     C 8149   1.189   6.993   1.260 -0.3464  0.5515  0.7180
  802MOL0     C 8150   1.055   7.036   1.211  0.2956  0.1306 -0.0208
  802MOL0     C 8151   1.058   7.069   1.060  0.2632  0.0807  0.4538
  802MOL0     N 8152   0.918   7.080   1.005 -0.0077 -0.4418 -0.4552
  802MOL0     C 8153   0.822   7.156   1.057  0.2316  0.2659 -0.0820
  802MOL0     C 8154   0.727   7.179   0.962  0.2599  0.3781 -0.0329
  802MOL0     C 8155   0.600   7.247   1.002  0.0939  0.9324  0.2110
  802MOL0     C 8156   0.479   7.218   0.904 -0.3014  0.0840 -0.2314
  802MOL0     C 8157   0.360   7.309   0.927 -0.1543 -0.3438  0.0465
  802MOL0     C 8158   0.388   7.456   0.875  0.3243 -1.3516 -0.2709
  802MOL0     O 8159   0.284   7.545   0.920  0.5826  0.3733  0.2214
  802MOL0     C 8160   0.181   7.566   0.834 -0.9584 -0.3333  0.3976
  802MOL0     C 8161   0.195   7.623   0.706  0.8803 -0.2018 -0.8081
  802MOL0     C 8162   0.086   7.630   0.624  0.3278  0.0199  0.4165
  802MOL0     C 8163   0.124   7.675   0.477  0.7961  0.5388  0.2588
  802MOL0     C 8164  -0.042   7.581   0.667  0.0692 -0.4393  0.1902
  802MOL0     C 8165  -0.157   7.575   0.583 -0.4298 -0.1081 -0.4132
  802MOL0     O 8166  -0.162   7.647   0.471 -0.6043 -0.5632 -0.3399
  802MOL0     C 8167  -0.251   7.626   0.371 -0.0415 -0.6799 -0.2412
  802MOL0     C 8168  -0.203   7.614   0.239 -0.0513  0.7655  0.4915
  802MOL0     C 8169  -0.295   7.587   0.141  0.0209  0.2428  0.6050
  802MOL0     C 8170  -0.433   7.587   0.155  0.2072  0.4878  0.8491
  802MOL0     O 8171  -0.513   7.564   0.045  0.4564  0.0350 -0.5023
  802MOL0     C 8172  -0.635   7.641   0.037  0.2348 -0.4407 -0.7239
  802MOL0     C 8173  -0.693   7.664  -0.099  0.3755 -0.3392 -0.6294
  802MOL0     C 8174  -0.820   7.751  -0.090 -0.1217  1.0388 -0.4069
  802MOL0     C 8175  -0.952   7.666  -0.081 -0.3230  0.2800 -0.1611
  802MOL0     C 8176  -1.068   7.753  -0.098 -0.2390 -0.7739  0.4335
  802MOL0     C 8177  -1.209   7.690  -0.124  0.7508 -0.7465  0.6238
  802MOL0     C 8178  -1.301   7.772  -0.212 -1.0212 -0.1703  0.7287
  802MOL0     C 8179  -1.408   7.667  -0.276  0.0461 -0.4667 -0.1087
  802MOL0    Cl 8180  -1.505   7.593  -0.144 -0.2579 -0.4312 -0.2855
  802MOL0     C 8181  -0.479   7.614   0.284  0.0490  0.1291  0.1768
  802MOL0     C 8182  -0.391   7.629   0.386 -0.8021 -0.6093 -1.0112
  802MOL0     O 8183  -0.238   7.486   0.605  0.0680  0.0519 -0.2344
  802MOL0     C 8184  -0.045   7.531   0.798  0.2077  0.1254  0.0523
  802MOL0     C 8185   0.064   7.527   0.880  0.1506  0.2157  0.1823
  802MOL0     N 8186   0.770   7.103   0.851  0.3657 -0.8275 -0.4486
  802MOL0     N 8187   0.887   7.057   0.876 -0.2004  0.1811 -0.3024
  802MOL0     C 8188   2.002   7.348   1.004  0.4462  0.4349  0.2800
  802MOL0     C 8189   2.137   7.354   0.966  0.0185 -0.0931 -0.0740
  802MOL0     C 8190   2.548   7.295   0.804  0.5964  0.5247 -0.2869
  802MOL0     C 8191   2.633   7.239   0.908 -0.0345 -0.5657 -0.4366
  802MOL0     C 8192   2.778   7.242   0.896 -0.1504  0.4053  0.5056
  802MOL0     C 8193   2.827   7.306   0.787 -0.0129 -0.4404 -0.2372
  802MOL0     O 8194   2.956   7.335   0.763  0.1784  0.2686  0.5754
  802MOL0     C 8195   3.051   7.228   0.767 -0.1335  0.2556 -0.1904
  802MOL0     C 8196   3.020   7.119   0.680 -0.3258  0.8017  0.9826
  802MOL0     C 8197   3.000   7.137   0.530  0.9923 -0.0468  0.6017
  802MOL0     C 8198   3.008   7.009   0.442 -0.0246  0.4501  0.3961
  802MOL0     C 8199   3.139   6.968   0.404  0.4925 -0.2591 -0.3669
  802MOL0     C 8200   3.249   6.932   0.369  0.5597 -0.2052  0.0489
  802MOL0     C 8201   2.750   7.355   0.682 -0.4182  0.5442  0.1522
  802MOL0     C 8202   2.609   7.345   0.689  0.1835 -0.0253 -0.7138
  802MOL0     H 8203   2.190   7.024   0.951 -1.1933 -0.4802  1.1471
  802MOL0     H 8204   1.940   7.020   1.005 -0.7880  1.6360  1.2366
  802MOL0     H 8205   1.694   7.369   1.075 -0.4623 -0.6370  1.5028
  802MOL0     H 8206   1.722   7.314   0.910  0.4695  0.0858  0.3984
  802MOL0     H 8207   1.498   7.224   0.938 -1.5491  2.7348  2.1956
  802MOL0     H 8208   1.601   7.093   0.998 -1.4828  0.0467 -1.1803
  802MOL0     H 8209   1.564   7.191   1.235  2.7498  0.2716 -0.4590
  802MOL0     H 8210   1.445   7.300   1.154 -0.1715 -0.7784  1.2982
  802MOL0     H 8211   1.345   7.091   1.051  2.6390  0.0521 -2.0382
  802MOL0     H 8212   1.445   6.996   1.148  0.7027 -0.4420 -0.8093
  802MOL0     H 8213   1.336   7.079   1.360 -1.5683  0.0320  0.8791
  802MOL0     H 8214   1.252   7.202   1.273  0.7083 -0.2094 -2.0413
  802MOL0     H 8215   1.224   6.904   1.207 -0.3989 -0.6111  2.5818
  802MOL0     H 8216   1.173   6.961   1.363  2.2736  1.9708  1.6391
  802MOL0     H 8217   0.990   6.948   1.215  3.5598 -2.5422 -0.6796
  802MOL0     H 8218   1.007   7.119   1.263 -1.1359  0.9249 -2.4729
  802MOL0     H 8219   1.112   6.987   1.012  0.6567  1.2246 -1.1289
  802MOL0     H 8220   1.109   7.164   1.040  0.4471 -0.1412 -0.1534
  802MOL0     H 8221   0.828   7.200   1.156 -1.9675  0.9207 -0.1872
  802MOL0     H 8222   0.581   7.211   1.104 -3.0214  5.1950  1.4360
  802MOL0     H 8223   0.623   7.353   1.011  0.0318  0.9200  0.5302
  802MOL0     H 8224   0.456   7.111   0.903  0.3739 -0.0815 -1.9733
  802MOL0     H 8225   0.522   7.232   0.804  0.7489  0.8603  0.3074
  802MOL0     H 8226   0.335   7.317   1.033  1.6994  0.3125  0.4736
  802MOL0     H 8227   0.272   7.275   0.872 -1.2694  1.7349  0.4383
  802MOL0     H 8228   0.389   7.452   0.765 -0.5906 -0.3496 -0.3320
  802MOL0     H 8229   0.484   7.490   0.915 -0.1611 -2.4108  1.9384
  802MOL0     H 8230   0.281   7.672   0.661  1.5314  1.1644  1.7138
  802MOL0     H 8231   0.216   7.734   0.474 -0.0918  1.9370 -1.3725
  802MOL0     H 8232   0.136   7.585   0.416  1.7848  2.0966 -2.0051
  802MOL0     H 8233   0.043   7.730   0.428  0.4540 -1.8613 -2.1226
  802MOL0     H 8234  -0.095   7.619   0.232  0.4044 -0.6513  4.2664
  802MOL0     H 8235  -0.249   7.568   0.044 -0.4207  0.8485  0.2684
  802MOL0     H 8236  -0.715   7.598   0.098 -0.1079  1.8278  0.5485
  802MOL0     H 8237  -0.621   7.738   0.086 -1.7904 -1.2647  1.6817
  802MOL0     H 8238  -0.622   7.716  -0.165 -0.6766 -0.5289 -1.9671
  802MOL0     H 8239  -0.702   7.568  -0.150  4.8797  0.6847 -4.0180
  802MOL0     H 8240  -0.823   7.821  -0.174 -0.8506  0.5904 -0.7674
  802MOL0     H 8241  -0.820   7.822  -0.006  2.0864  2.2065 -1.3177
  802MOL0     H 8242  -0.943   7.594  -0.162  1.8509 -0.1755  0.4165
  802MOL0     H 8243  -0.964   7.608   0.011 -2.0385  0.1244 -0.4630
  802MOL0     H 8244  -1.040   7.818  -0.181  1.4674 -2.5279 -0.4279
  802MOL0     H 8245  -1.077   7.818  -0.010 -0.3982 -1.2365  0.7587
  802MOL0     H 8246  -1.189   7.595  -0.175  0.0553 -1.2267  1.2246
  802MOL0     H 8247  -1.259   7.669  -0.029 -1.2002 -0.1968 -0.2246
  802MOL0     H 8248  -1.249   7.825  -0.292  1.7753 -1.1561  1.7555
  802MOL0     H 8249  -1.352   7.846  -0.150 -0.1898 -0.5744  1.9227
  802MOL0     H 8250  -1.354   7.584  -0.322  4.5615  0.7046  2.4533
  802MOL0     H 8251  -1.465   7.718  -0.354  1.0376 -1.9234 -1.8658
  802MOL0     H 8252  -0.585   7.603   0.306 -0.5072  0.3935 -2.1107
  802MOL0     H 8253  -0.432   7.645   0.486  1.8013  1.5027 -0.1673
  802MOL0     H 8254  -0.133   7.481   0.837 -0.4572  2.7382  2.1995
  802MOL0     H 8255   0.063   7.484   0.979  0.8505 -0.0905  0.0642
  802MOL0     H 8256   1.958   7.447   1.015  2.3784  1.3709  0.0266
  802MOL0     H 8257   2.190   7.447   0.947 -4.3362  2.3810 -1.3500
  802MOL0     H 8258   2.581   7.195   0.993  1.3354  0.2182  0.8559
  802MOL0     H 8259   2.844   7.194   0.967  0.4546  0.2091 -0.1814
  802MOL0     H 8260   3.153   7.266   0.752 -0.6809  2.7071  1.6332
  802MOL0     H 8261   3.061   7.182   0.866 -1.6759 -1.2232 -0.6706
  802MOL0     H 8262   2.937   7.067   0.728 -1.1926 -0.0332 -1.3054
  802MOL0     H 8263   3.092   7.039   0.696 -1.7927 -1.0410 -1.1157
  802MOL0     H 8264   3.071   7.209   0.490 -0.4872  1.0961 -0.0598
  802MOL0     H 8265   2.898   7.173   0.513  1.3047  3.1129  4.1322
  802MOL0     H 8266   2.943   7.027   0.355  0.1610  2.8641  0.6862
  802MOL0     H 8267   2.966   6.922   0.494 -1.1862  1.0286  0.4813
  802MOL0     H 8268   3.331   6.881   0.321 -0.9405 -1.4116 -1.3423
  802MOL0     H 8269   2.792   7.400   0.593 -1.2241  1.6453  0.3101
  802MOL0     H 8270   2.551   7.396   0.613  2.8175  1.3892 -1.9192
  803MOL0     O 8271   1.845   1.734   1.732  0.4618 -0.2175  0.2141
  803MOL0     C 8272   1.888   1.722   1.618  0.4740 -0.6686  0.2856
  803MOL0     O 8273   1.824   1.645   1.513  0.3987 -0.4389 -0.3308
  803MOL0     C 8274   1.701   1.594   1.534  0.6894 -0.9910 -0.6326
  803MOL0     C 8275   1.653   1.502   1.630  0.3344  0.6623  0.2826
  803MOL0     C 8276   1.519   1.450   1.631  0.0086 -0.6622  0.3630
  803MOL0     C 8277   1.427   1.497   1.537  0.1682 -0.6818  0.4689
  803MOL0     O 8278   1.301   1.434   1.542 -0.6265  0.3735  0.1395
  803MOL0     C 8279   1.237   1.408   1.418 -0.4674 -0.7617  0.0944
  803MOL0     C 8280   1.156   1.281   1.428  0.1073  0.2458  0.4356
  803MOL0     C 8281   1.025   1.292   1.502  0.0042  0.4507 -0.0016
  803MOL0     C 8282   1.042   1.324   1.655 -0.3279  0.1288 -0.1714
  803MOL0     C 8283   0.905   1.306   1.730 -0.2293 -0.4140  0.7885
  803MOL0     C 8284   0.889   1.391   1.854 -0.3231 -0.9012 -0.1314
  803MOL0     C 8285   0.748   1.374   1.909 -0.5114  0.1572  0.0290
  803MOL0     C 8286   0.707   1.466   2.028 -0.1885 -0.7164  0.4335
  803MOL0     N 8287   0.566   1.457   2.055  0.6787 -0.0667  0.2375
  803MOL0     C 8288   0.466   1.498   1.964 -0.0164  0.3131  0.2726
  803MOL0     C 8289   0.350   1.495   2.035 -0.6095 -0.2593  1.0640
  803MOL0     C 8290   0.217   1.532   1.986  0.0667  0.0127  0.2528
  803MOL0     C 8291   0.122   1.412   1.983  0.4720 -0.0475 -0.3911
  803MOL0     C 8292  -0.021   1.448   1.952 -0.0838 -0.4577 -0.4606
  803MOL0     C 8293  -0.124   1.334   1.949 -0.1060 -0.5343  0.0869
  803MOL0     O 8294  -0.166   1.290   2.077 -0.8589 -0.2440  0.7067
  803MOL0     C 8295  -0.268   1.358   2.143 -0.1741 -0.3532  0.6905
  803MOL0     C 8296  -0.258   1.365   2.284  0.2709  0.6111  0.3107
  803MOL0     C 8297  -0.361   1.418   2.361 -0.2368 -0.2896  0.3795
  803MOL0     C 8298  -0.336   1.410   2.512 -0.1439 -0.6642  0.1263
  803MOL0     C 8299  -0.474   1.482   2.301  0.3813 -0.3682  0.0033
  803MOL0     C 8300  -0.583   1.550   2.379  0.1118 -0.5979  0.7188
  803MOL0     O 8301  -0.672   1.617   2.299  0.4769  0.4147 -0.4760
  803MOL0     C 8302  -0.786   1.678   2.345  0.5346 -0.3634 -0.0856
  803MOL0     C 8303  -0.836   1.788   2.265  0.5342  0.5759 -0.4964
  803MOL0     C 8304  -0.967   1.837   2.295  0.1751 -0.6945  0.6896
  803MOL0     C 8305  -1.066   1.777   2.383  0.0586 -0.2602 -0.7527
  803MOL0     O 8306  -1.199   1.828   2.399 -0.3334  0.6855 -0.5451
  803MOL0     C 8307  -1.251   1.916   2.304  0.3557  0.0730  0.0998
  803MOL0     C 8308  -1.402   1.933   2.311 -0.3936  0.3609  0.4225
  803MOL0     C 8309  -1.438   1.973   2.452 -0.0918 -0.1229  0.8043
  803MOL0     C 8310  -1.594   2.022   2.454 -0.5540  0.2525  0.3906
  803MOL0     C 8311  -1.622   2.035   2.600 -0.1617  0.6971 -0.1457
  803MOL0     C 8312  -1.773   2.021   2.636 -0.8275 -0.3578 -0.0731
  803MOL0     C 8313  -1.806   2.104   2.758  0.1554  0.0658  0.2620
  803MOL0     C 8314  -1.958   2.129   2.784 -0.8434 -0.4330 -0.0982
  803MOL0    Cl 8315  -2.050   1.971   2.781  0.2246  0.5072  0.2171
  803MOL0     C 8316  -1.003   1.678   2.465 -0.5618  0.0671  1.1189
  803MOL0     C 8317  -0.869   1.629   2.448  0.9312 -0.5208 -0.5147
  803MOL0     O 8318  -0.579   1.553   2.503  0.3438 -0.6880  0.4552
  803MOL0     C 8319  -0.482   1.472   2.162  0.5082 -0.4832 -0.7736
  803MOL0     C 8320  -0.385   1.407   2.084  0.1965 -0.1969  0.0221
  803MOL0     N 8321   0.383   1.445   2.169  0.7778 -0.0726  1.1016
  803MOL0     N 8322   0.509   1.424   2.178  0.0526 -0.4133 -0.0238
  803MOL0     C 8323   1.466   1.577   1.437 -0.5446 -0.8798  0.6160
  803MOL0     C 8324   1.604   1.620   1.433  0.5949  0.2487  0.3875
  803MOL0     C 8325   2.009   1.798   1.580  0.3266  0.4048 -0.3038
  803MOL0     C 8326   2.047   1.805   1.445 -0.4808 -0.4750 -0.3456
  803MOL0     C 8327   2.172   1.865   1.412  0.0463 -0.2032  0.4900
  803MOL0     C 8328   2.247   1.927   1.510  0.0456 -0.5265  0.4900
  803MOL0     O 8329   2.371   1.982   1.487  0.4883  0.0641  0.4752
  803MOL0     C 8330   2.465   1.908   1.409  0.4383 -0.0905  0.1260
  803MOL0     C 8331   2.532   1.802   1.488 -0.2359 -0.6154 -0.1145
  803MOL0     C 8332   2.601   1.857   1.609  0.0546  0.5902  0.3663
  803MOL0     C 8333   2.694   1.745   1.663 -0.1907 -0.4807  0.1685
  803MOL0     C 8334   2.774   1.780   1.783  0.2523 -1.0100 -0.1029
  803MOL0     C 8335   2.848   1.817   1.871 -0.5657 -0.0419  0.0505
  803MOL0     C 8336   2.192   1.934   1.639  0.3010 -0.3768 -0.1304
  803MOL0     C 8337   2.073   1.877   1.681 -0.2304  0.9483  0.9258
  803MOL0     H 8338   1.718   1.460   1.707 -1.0962 -0.8425  0.7358
  803MOL0     H 8339   1.482   1.377   1.702 -0.0043 -1.6536 -0.6416
  803MOL0     H 8340   1.175   1.490   1.381  0.8558 -0.4278 -1.5025
  803MOL0     H 8341   1.313   1.386   1.342 -0.6470  0.3306 -0.4215
  803MOL0     H 8342   1.138   1.249   1.324 -0.4666 -0.8907  0.8615
  803MOL0     H 8343   1.221   1.209   1.480  1.4995  0.4169 -0.9581
  803MOL0     H 8344   0.970   1.378   1.462  1.4917  2.0857  1.3220
  803MOL0     H 8345   0.962   1.203   1.496  0.9421 -0.3217  1.0735
  803MOL0     H 8346   1.112   1.254   1.701  0.3868  1.0482  0.1714
  803MOL0     H 8347   1.091   1.421   1.668  2.0694 -1.2224  1.7537
  803MOL0     H 8348   0.833   1.328   1.650 -1.5253 -0.3562  1.9412
  803MOL0     H 8349   0.906   1.198   1.741  2.0891 -1.1756 -3.9347
  803MOL0     H 8350   0.959   1.358   1.931 -1.5769  2.4318  2.7291
  803MOL0     H 8351   0.906   1.496   1.829 -0.1564 -1.1515 -1.1354
  803MOL0     H 8352   0.687   1.385   1.819  0.3277 -0.4019 -0.6190
  803MOL0     H 8353   0.737   1.276   1.958 -2.1981  1.1523  1.7693
  803MOL0     H 8354   0.736   1.569   2.006 -3.0139 -0.1032 -0.8260
  803MOL0     H 8355   0.746   1.426   2.122 -3.9038 -0.0642  2.4075
  803MOL0     H 8356   0.482   1.523   1.860 -0.7103 -0.9836 -0.1609
  803MOL0     H 8357   0.183   1.613   2.052  2.5828 -0.0019  1.7363
  803MOL0     H 8358   0.234   1.573   1.886  0.3315  0.8931  0.6436
  803MOL0     H 8359   0.122   1.373   2.085 -0.8850  0.6608 -0.1057
  803MOL0     H 8360   0.163   1.341   1.911 -0.7856  1.1972 -2.4219
  803MOL0     H 8361  -0.015   1.472   1.845  0.3223 -0.2926 -0.4011
  803MOL0     H 8362  -0.070   1.536   1.996  1.4223  0.5614 -0.7467
  803MOL0     H 8363  -0.070   1.251   1.903 -1.0225 -2.1157  1.7343
  803MOL0     H 8364  -0.212   1.356   1.888 -1.9685  1.5810  3.2519
  803MOL0     H 8365  -0.176   1.315   2.336 -0.7602 -1.6416 -0.0975
  803MOL0     H 8366  -0.344   1.515   2.541  1.8179 -0.3264 -0.3981
  803MOL0     H 8367  -0.416   1.356   2.564 -0.6412  0.7949  0.9364
  803MOL0     H 8368  -0.238   1.376   2.546  1.7287  1.6110 -2.5733
  803MOL0     H 8369  -0.776   1.832   2.187 -3.6061  0.8173 -3.8758
  803MOL0     H 8370  -0.996   1.923   2.236  1.1182  0.0559  1.2917
  803MOL0     H 8371  -1.202   2.014   2.308 -0.6747  0.5931  0.5206
  803MOL0     H 8372  -1.230   1.866   2.209  0.8282 -1.2287  0.8579
  803MOL0     H 8373  -1.449   1.997   2.236  0.2564  0.2752 -0.0622
  803MOL0     H 8374  -1.439   1.833   2.285  3.2422 -0.4765 -2.3560
  803MOL0     H 8375  -1.367   2.049   2.487 -1.2232  1.0483  0.6491
  803MOL0     H 8376  -1.438   1.882   2.512 -5.2192 -0.5294  0.6632
  803MOL0     H 8377  -1.593   2.115   2.397  0.5078 -1.2373 -2.2044
  803MOL0     H 8378  -1.655   1.949   2.399  2.6159 -0.7557 -2.0712
  803MOL0     H 8379  -1.581   2.131   2.633  0.2490 -0.4070  2.8819
  803MOL0     H 8380  -1.572   1.963   2.667  0.6214 -0.0859 -1.5291
  803MOL0     H 8381  -1.832   2.063   2.554  0.7701  1.3159 -0.4082
  803MOL0     H 8382  -1.801   1.916   2.649  2.0148 -1.0226  1.3064
  803MOL0     H 8383  -1.749   2.197   2.760  1.1430 -0.5323  0.7888
  803MOL0     H 8384  -1.767   2.048   2.844  0.2022  0.7674  0.7021
  803MOL0     H 8385  -1.997   2.190   2.702  2.5011 -0.1924 -1.6948
  803MOL0     H 8386  -1.961   2.180   2.881  2.0567 -0.0609 -0.1090
  803MOL0     H 8387  -1.064   1.632   2.542 -4.6404  0.1815 -1.7441
  803MOL0     H 8388  -0.810   1.550   2.494  0.5403 -1.2970 -1.3135
  803MOL0     H 8389  -0.566   1.516   2.109 -0.3174 -0.7514  0.2726
  803MOL0     H 8390  -0.403   1.413   1.977  0.7861  1.5035 -0.0059
  803MOL0     H 8391   1.399   1.604   1.355 -0.5549  0.0231  0.9082
  803MOL0     H 8392   1.637   1.671   1.343  4.0448 -0.5804  1.0390
  803MOL0     H 8393   1.996   1.760   1.360  1.0983 -0.0208 -1.5765
  803MOL0     H 8394   2.191   1.880   1.307  1.1087  0.2884  0.7464
  803MOL0     H 8395   2.421   1.862   1.320  3.5542 -0.6349 -1.2360
  803MOL0     H 8396   2.539   1.975   1.366 -0.5009  0.9304  0.0429
  803MOL0     H 8397   2.596   1.753   1.414 -0.8591 -1.8599  0.1372
  803MOL0     H 8398   2.460   1.724   1.515  0.9016 -1.7700 -0.3472
  803MOL0     H 8399   2.528   1.864   1.690 -1.3923 -0.5939 -0.7694
  803MOL0     H 8400   2.662   1.945   1.587  0.6720  0.2411  0.6399
  803MOL0     H 8401   2.757   1.705   1.582  0.6749 -3.1311  2.0218
  803MOL0     H 8402   2.630   1.658   1.678 -1.1750  0.6793  3.6732
  803MOL0     H 8403   2.914   1.845   1.951  0.4757  2.4694 -1.5395
  803MOL0     H 8404   2.250   1.983   1.718 -0.7988 -0.8160  0.9869
  803MOL0     H 8405   2.045   1.862   1.784 -0.8465  1.6721  0.8715
  804MOL0     O 8406   8.604   3.319   4.698  0.1909 -0.8189 -0.4528
  804MOL0     C 8407   8.684   3.402   4.653  0.7243 -0.4615  0.2288
  804MOL0     O 8408   8.692   3.529   4.686  0.3920 -0.0926 -0.4994
  804MOL0     C 8409   8.586   3.586   4.744  0.6909  0.8603 -0.0845
  804MOL0     C 8410   8.449   3.554   4.728 -0.0518 -0.0212  0.1168
  804MOL0     C 8411   8.350   3.622   4.793 -0.0207 -0.5377 -0.0434
  804MOL0     C 8412   8.395   3.726   4.880  0.7587 -0.0521 -0.5038
  804MOL0     O 8413   8.287   3.789   4.948 -0.3921  0.2296 -0.7602
  804MOL0     C 8414   8.278   3.922   4.907  0.5996  0.4093  0.4524
  804MOL0     C 8415   8.162   3.982   4.988 -0.8128 -0.0959  0.2972
  804MOL0     C 8416   8.037   3.905   4.956 -0.4449  0.5773 -0.1366
  804MOL0     C 8417   7.916   3.970   5.027 -1.2278  0.0053  0.4494
  804MOL0     C 8418   7.776   3.912   4.981 -0.2954  0.8289 -0.3134
  804MOL0     C 8419   7.663   3.973   5.069  0.2178  0.9240 -0.1167
  804MOL0     C 8420   7.635   4.110   5.038  0.1027 -0.0050 -0.2875
  804MOL0     C 8421   7.511   4.166   5.118 -0.4231  0.5173 -0.7109
  804MOL0     N 8422   7.498   4.312   5.124  0.6070 -0.2848 -0.3193
  804MOL0     C 8423   7.458   4.385   5.017  1.5629 -0.3790 -0.0768
  804MOL0     C 8424   7.432   4.509   5.064 -0.1757  0.4631  0.8546
  804MOL0     C 8425   7.401   4.628   4.979 -0.3847  0.6766 -0.1138
  804MOL0     C 8426   7.252   4.629   4.926 -0.1005 -0.5716 -0.2656
  804MOL0     C 8427   7.166   4.694   5.040 -0.3128 -0.5321 -0.7313
  804MOL0     C 8428   7.022   4.705   4.993  0.5175 -0.5842  0.0044
  804MOL0     O 8429   7.003   4.775   4.870 -0.5215 -0.0166 -0.5779
  804MOL0     C 8430   6.876   4.809   4.845  0.3012 -0.1045 -0.2105
  804MOL0     C 8431   6.857   4.948   4.830 -0.0412 -1.3146  0.4983
  804MOL0     C 8432   6.732   4.998   4.787 -0.8748  0.3862  0.3740
  804MOL0     C 8433   6.710   5.144   4.757 -0.0987 -0.3543  0.3310
  804MOL0     C 8434   6.630   4.903   4.775 -0.3077 -0.6370 -0.0779
  804MOL0     C 8435   6.483   4.936   4.738  1.1390  0.7911  0.5037
  804MOL0     O 8436   6.390   4.848   4.772  0.2406 -0.1894  0.4159
  804MOL0     C 8437   6.259   4.851   4.723 -0.6793 -0.1787 -0.8061
  804MOL0     C 8438   6.210   4.885   4.591  0.7952  1.0879 -0.0439
  804MOL0     C 8439   6.072   4.878   4.555 -0.2358  0.5319  0.3573
  804MOL0     C 8440   5.981   4.843   4.659  0.4324  0.8156  0.5134
  804MOL0     O 8441   5.850   4.853   4.649  0.6621 -0.0648  0.3111
  804MOL0     C 8442   5.794   4.842   4.519  0.3881 -0.6449  0.4535
  804MOL0     C 8443   5.656   4.786   4.529 -0.4681  0.9219  0.0764
  804MOL0     C 8444   5.682   4.644   4.574 -0.0718  1.1719 -0.7930
  804MOL0     C 8445   5.560   4.552   4.534 -0.0684 -0.2820  1.0033
  804MOL0     C 8446   5.547   4.411   4.598 -0.0648  0.1513 -0.9392
  804MOL0     C 8447   5.670   4.322   4.582 -0.5195  0.3467  0.9103
  804MOL0     C 8448   5.650   4.184   4.659  0.1972  0.2138  0.0334
  804MOL0     C 8449   5.777   4.108   4.659  0.6942  0.0501 -0.4942
  804MOL0    Cl 8450   5.802   4.035   4.501 -0.6939 -0.3212  0.5213
  804MOL0     C 8451   6.033   4.808   4.790 -0.3469  0.4146  0.6660
  804MOL0     C 8452   6.166   4.826   4.827  0.0030 -0.4054  0.2421
  804MOL0     O 8453   6.455   5.043   4.677  0.3753  0.4548 -0.6735
  804MOL0     C 8454   6.649   4.766   4.801 -1.3062  0.3395 -0.2208
  804MOL0     C 8455   6.775   4.716   4.832  0.2121 -0.4901 -0.2987
  804MOL0     N 8456   7.469   4.513   5.201 -0.2477  0.4158  1.5119
  804MOL0     N 8457   7.513   4.397   5.232  0.1375 -0.8543 -0.0855
  804MOL0     C 8458   8.530   3.762   4.902  0.5771  0.2494 -0.4387
  804MOL0     C 8459   8.626   3.696   4.826  0.4125 -0.2912 -1.0317
  804MOL0     C 8460   8.802   3.355   4.582 -0.1237  1.3045 -0.3356
  804MOL0     C 8461   8.883   3.437   4.504  0.9256  0.2738 -0.7430
  804MOL0     C 8462   8.993   3.385   4.438  0.1292 -1.0819  0.8248
  804MOL0     C 8463   9.029   3.247   4.439  0.6366  0.1274 -0.0219
  804MOL0     O 8464   9.146   3.213   4.377 -0.9162  1.1751  0.2781
  804MOL0     C 8465   9.174   3.076   4.352 -0.8268  0.0589  0.0827
  804MOL0     C 8466   9.247   3.004   4.468  1.0314 -0.4680 -0.6028
  804MOL0     C 8467   9.279   2.848   4.439  0.3394  0.6310 -0.2538
  804MOL0     C 8468   9.320   2.786   4.573 -0.1907  0.0287  0.4002
  804MOL0     C 8469   9.381   2.647   4.548 -0.0994 -0.0086  0.2602
  804MOL0     C 8470   9.447   2.547   4.526 -0.7697  0.2998  0.8695
  804MOL0     C 8471   8.953   3.165   4.529  0.8418 -0.0783  0.2168
  804MOL0     C 8472   8.841   3.222   4.604  0.3139  0.9136 -0.1860
  804MOL0     H 8473   8.421   3.472   4.662  0.9952  1.0810 -1.8144
  804MOL0     H 8474   8.248   3.593   4.769  0.9701 -1.2491 -4.1382
  804MOL0     H 8475   8.361   3.977   4.953 -1.3546  1.6894  2.6940
  804MOL0     H 8476   8.275   3.947   4.800  0.5545  3.0692  1.0117
  804MOL0     H 8477   8.181   3.975   5.095  1.4975 -0.2509 -0.0742
  804MOL0     H 8478   8.158   4.090   4.968 -0.6366 -0.2221 -0.4444
  804MOL0     H 8479   8.026   3.920   4.848  1.6456 -0.2441 -0.5013
  804MOL0     H 8480   8.028   3.802   4.991 -0.6940  1.1151  1.4638
  804MOL0     H 8481   7.941   3.975   5.134  1.9713  1.4754 -0.2507
  804MOL0     H 8482   7.915   4.076   5.004 -0.6237 -0.0516  0.1355
  804MOL0     H 8483   7.759   3.938   4.877  0.6282  2.9433  0.0015
  804MOL0     H 8484   7.765   3.805   5.000 -1.2892  0.6448 -1.8227
  804MOL0     H 8485   7.576   3.912   5.040 -1.1168  3.0112 -0.6710
  804MOL0     H 8486   7.679   3.962   5.177 -2.5846  1.3369  0.4044
  804MOL0     H 8487   7.723   4.156   5.085  0.1125 -0.4562  0.1434
  804MOL0     H 8488   7.618   4.136   4.933 -3.5428  1.9549  0.6060
  804MOL0     H 8489   7.523   4.124   5.218  1.0600  1.4128 -0.4762
  804MOL0     H 8490   7.426   4.125   5.063 -0.2428 -0.5569 -0.2049
  804MOL0     H 8491   7.443   4.355   4.914 -2.9931  1.7609 -0.2653
  804MOL0     H 8492   7.423   4.718   5.037  1.6573 -0.5250  1.0930
  804MOL0     H 8493   7.477   4.633   4.900 -0.4957 -0.0781 -0.2836
  804MOL0     H 8494   7.222   4.524   4.916  1.4352 -1.5925  3.8154
  804MOL0     H 8495   7.231   4.687   4.835 -1.9827  1.2206  1.2117
  804MOL0     H 8496   7.209   4.790   5.071 -1.7947 -0.5259  1.5467
  804MOL0     H 8497   7.179   4.632   5.129 -1.3394  1.3999  0.8161
  804MOL0     H 8498   6.966   4.751   5.075  1.5448  1.0311 -0.1597
  804MOL0     H 8499   6.973   4.607   4.984  0.9237 -0.7251 -0.7094
  804MOL0     H 8500   6.943   5.013   4.838 -0.6102 -0.2384 -1.3523
  804MOL0     H 8501   6.797   5.205   4.784 -0.7457  0.2477  1.1076
  804MOL0     H 8502   6.704   5.157   4.648  1.5735 -1.2263  0.1113
  804MOL0     H 8503   6.625   5.186   4.811  0.1927  0.1942  0.3761
  804MOL0     H 8504   6.283   4.908   4.515 -1.3546  2.1899 -1.9144
  804MOL0     H 8505   6.051   4.896   4.450 -2.6389  0.0469  0.6939
  804MOL0     H 8506   5.791   4.942   4.476 -2.6466 -2.0204 -3.0283
  804MOL0     H 8507   5.852   4.780   4.449  0.5579  0.2097 -0.1870
  804MOL0     H 8508   5.594   4.836   4.604  1.3091 -0.3661  2.5321
  804MOL0     H 8509   5.612   4.794   4.429 -2.0066 -1.8748  0.4297
  804MOL0     H 8510   5.680   4.638   4.684 -2.2485  0.1128 -0.8329
  804MOL0     H 8511   5.777   4.599   4.546  0.1860  0.6855  0.7259
  804MOL0     H 8512   5.466   4.607   4.532  0.5971  0.9796 -2.4494
  804MOL0     H 8513   5.572   4.536   4.426 -1.0793  0.7924  0.7229
  804MOL0     H 8514   5.467   4.352   4.552  1.0102 -0.3643 -2.2178
  804MOL0     H 8515   5.540   4.424   4.707  1.2084 -0.2397 -0.7960
  804MOL0     H 8516   5.693   4.310   4.476  1.4397 -2.5849  1.5477
  804MOL0     H 8517   5.760   4.365   4.627 -0.5464 -0.2609  1.5589
  804MOL0     H 8518   5.561   4.123   4.643  0.9043 -0.6471 -0.7940
  804MOL0     H 8519   5.632   4.219   4.761  3.8158  0.4031  0.7542
  804MOL0     H 8520   5.765   4.023   4.728 -0.8271  1.0504  0.5269
  804MOL0     H 8521   5.856   4.178   4.686 -1.0516  1.3035  1.6532
  804MOL0     H 8522   5.972   4.763   4.868  1.8488 -3.3735  0.4586
  804MOL0     H 8523   6.188   4.811   4.932 -2.5523 -1.9968  0.6280
  804MOL0     H 8524   6.569   4.693   4.795 -0.5029 -0.5594 -0.1313
  804MOL0     H 8525   6.786   4.610   4.848  0.7015 -0.5652 -1.0825
  804MOL0     H 8526   8.566   3.839   4.969  2.4153  0.2324 -1.3363
  804MOL0     H 8527   8.729   3.728   4.827 -0.5550  3.2780  0.2161
  804MOL0     H 8528   8.859   3.542   4.490  0.6079  0.2114 -0.6734
  804MOL0     H 8529   9.050   3.458   4.381 -2.0294  0.0243 -0.0331
  804MOL0     H 8530   9.081   3.019   4.343  0.7561 -3.1453  2.2998
  804MOL0     H 8531   9.233   3.063   4.260  0.7218  0.3631  0.9953
  804MOL0     H 8532   9.196   3.026   4.562  0.1268 -0.4466 -1.0924
  804MOL0     H 8533   9.344   3.053   4.485  1.1222 -0.8316 -0.0593
  804MOL0     H 8534   9.366   2.842   4.373  0.3315 -1.3301 -0.1225
  804MOL0     H 8535   9.194   2.794   4.397 -1.8392  2.7135  1.1963
  804MOL0     H 8536   9.231   2.773   4.634 -0.4662 -0.0747 -0.0203
  804MOL0     H 8537   9.389   2.856   4.622  0.4293 -0.0647 -0.3156
  804MOL0     H 8538   9.521   2.473   4.504 -2.1347 -2.3503  4.2062
  804MOL0     H 8539   8.981   3.061   4.544  1.6176  0.1918  0.6608
  804MOL0     H 8540   8.784   3.158   4.671  0.9983  1.0663  0.5536
  805MOL0     O 8541   7.384   9.668   0.814 -0.1089  0.1103 -0.3577
  805MOL0     C 8542   7.467   9.606   0.746 -0.1749  0.7507 -0.6342
  805MOL0     O 8543   7.458   9.475   0.712 -0.1639  0.2350 -0.0507
  805MOL0     C 8544   7.364   9.402   0.773  0.0904 -1.1357 -0.5478
  805MOL0     C 8545   7.399   9.309   0.869  0.1400  0.1684  0.5719
  805MOL0     C 8546   7.300   9.248   0.935  0.4412 -0.3041 -0.5422
  805MOL0     C 8547   7.165   9.266   0.916  0.7303 -0.5477 -0.4339
  805MOL0     O 8548   7.067   9.196   0.982 -0.0159  0.0261 -0.4003
  805MOL0     C 8549   7.084   9.053   0.973 -0.1530 -0.1704 -0.0802
  805MOL0     C 8550   6.957   8.999   0.902 -0.4506 -0.2733 -0.0275
  805MOL0     C 8551   6.838   8.968   0.985 -1.6007  0.0005  0.7181
  805MOL0     C 8552   6.723   8.918   0.899  0.3590 -0.0382  0.9752
  805MOL0     C 8553   6.596   8.891   0.992 -0.9296 -0.0036 -0.1200
  805MOL0     C 8554   6.515   9.012   1.042 -0.0555 -0.6116  0.5849
  805MOL0     C 8555   6.430   9.086   0.927 -0.2141  1.1039 -0.9587
  805MOL0     C 8556   6.275   9.067   0.942  0.2183 -0.1056  0.4112
  805MOL0     N 8557   6.232   8.930   0.947 -0.4960  0.3536  1.0424
  805MOL0     C 8558   6.215   8.843   0.839 -0.8900 -0.3282 -0.2069
  805MOL0     C 8559   6.183   8.729   0.909 -0.2142 -0.1069  0.3931
  805MOL0     C 8560   6.131   8.602   0.847 -0.4938  0.4835  0.6708
  805MOL0     C 8561   5.991   8.622   0.784 -0.7232  0.3903  0.6305
  805MOL0     C 8562   5.929   8.487   0.743  0.7452  0.0912 -0.3090
  805MOL0     C 8563   5.785   8.512   0.714  0.1713 -0.5502  0.8347
  805MOL0     O 8564   5.724   8.387   0.661  0.2253 -0.5586 -0.0969
  805MOL0     C 8565   5.585   8.370   0.677  0.5312  0.3203 -0.7160
  805MOL0     C 8566   5.538   8.241   0.624 -0.9984  0.5980 -0.0107
  805MOL0     C 8567   5.413   8.195   0.651  0.8063 -0.4117  0.1597
  805MOL0     C 8568   5.374   8.062   0.594 -0.5673 -0.8806  0.1091
  805MOL0     C 8569   5.319   8.291   0.726  0.1471  0.6406  0.5978
  805MOL0     C 8570   5.192   8.243   0.769 -0.3397  0.0532 -0.8959
  805MOL0     O 8571   5.109   8.337   0.826 -0.8091  0.5245 -0.7201
  805MOL0     C 8572   4.984   8.298   0.861 -0.3900 -0.9591  0.3002
  805MOL0     C 8573   4.882   8.291   0.760 -0.1184 -0.4454 -0.7443
  805MOL0     C 8574   4.749   8.262   0.784 -0.2849  0.1247 -0.3487
  805MOL0     C 8575   4.721   8.219   0.915  0.7421  0.3985 -1.2477
  805MOL0     O 8576   4.592   8.173   0.953 -0.8362 -0.2186 -0.3879
  805MOL0     C 8577   4.488   8.159   0.859 -0.1917 -0.2925 -0.3521
  805MOL0     C 8578   4.362   8.099   0.916  0.0170 -0.2040  0.2412
  805MOL0     C 8579   4.237   8.105   0.819 -0.0942  0.3453  0.1549
  805MOL0     C 8580   4.140   8.004   0.885 -0.5014 -0.0592  0.1976
  805MOL0     C 8581   4.003   7.973   0.817 -0.7865  0.1078  0.3007
  805MOL0     C 8582   3.922   7.882   0.911  0.0522 -0.6154  1.1484
  805MOL0     C 8583   3.789   7.847   0.834 -1.0808  0.6990  0.3107
  805MOL0     C 8584   3.736   7.712   0.863 -0.2207 -0.2701  0.1802
  805MOL0    Cl 8585   3.602   7.686   0.744 -0.1540 -0.2394 -0.2087
  805MOL0     C 8586   4.811   8.228   1.022 -0.8436 -0.0795 -0.2365
  805MOL0     C 8587   4.942   8.263   0.992 -0.2162  0.8269  0.3197
  805MOL0     O 8588   5.171   8.127   0.766 -0.0452  0.2434 -0.4700
  805MOL0     C 8589   5.366   8.415   0.762 -0.1134 -0.5462  0.0839
  805MOL0     C 8590   5.496   8.453   0.745 -0.7791 -0.5997 -0.2036
  805MOL0     N 8591   6.185   8.740   1.047  0.3266 -0.5642  0.2348
  805MOL0     N 8592   6.209   8.866   1.065  0.4758  0.4979 -0.2335
  805MOL0     C 8593   7.130   9.364   0.821 -0.1793 -0.0653 -0.7514
  805MOL0     C 8594   7.228   9.435   0.752 -0.2033 -0.0314 -0.4682
  805MOL0     C 8595   7.603   9.653   0.715  0.3814 -0.5111 -0.1863
  805MOL0     C 8596   7.656   9.751   0.800 -0.5421 -0.3396  0.4831
  805MOL0     C 8597   7.787   9.804   0.769  0.4946 -0.4001  0.0976
  805MOL0     C 8598   7.855   9.769   0.652 -0.3155 -0.2738 -0.4354
  805MOL0     O 8599   7.972   9.818   0.614  0.0076 -0.2463 -0.3140
  805MOL0     C 8600   7.978   9.964   0.583 -0.0459 -0.4879 -1.0418
  805MOL0     C 8601   7.959   9.987   0.434 -0.3610  0.6149  0.8713
  805MOL0     C 8602   8.084   9.942   0.361 -0.4705 -0.2320 -0.4106
  805MOL0     C 8603   8.068   9.950   0.211 -0.4709  0.3784  0.0018
  805MOL0     C 8604   7.982   9.842   0.161  0.3593 -0.5182  0.0463
  805MOL0     C 8605   7.914   9.751   0.125  0.0596  1.3352  0.3295
  805MOL0     C 8606   7.796   9.678   0.573  0.2524  0.8080  0.1669
  805MOL0     C 8607   7.677   9.611   0.606  0.1021 -0.2423 -0.3066
  805MOL0     H 8608   7.505   9.293   0.888  0.7778  1.2424 -1.7047
  805MOL0     H 8609   7.331   9.184   1.017  0.9069  0.9561  0.3020
  805MOL0     H 8610   7.173   9.027   0.915 -1.0955 -3.9571 -0.1129
  805MOL0     H 8611   7.092   9.014   1.075 -3.9206  1.4874  1.0122
  805MOL0     H 8612   6.940   9.079   0.829 -1.1573  0.6720  1.1461
  805MOL0     H 8613   6.984   8.904   0.855  1.2825 -0.7910  1.8824
  805MOL0     H 8614   6.862   8.879   1.044 -1.7008 -1.0457 -0.7830
  805MOL0     H 8615   6.814   9.063   1.033  0.9605  2.5516 -2.5593
  805MOL0     H 8616   6.696   8.995   0.826 -1.4305  0.9843  2.6015
  805MOL0     H 8617   6.757   8.836   0.836 -3.3030 -0.5409 -0.5895
  805MOL0     H 8618   6.529   8.830   0.931 -1.4394 -0.5983  0.9941
  805MOL0     H 8619   6.618   8.824   1.076  0.4804 -0.9483 -1.1946
  805MOL0     H 8620   6.445   8.998   1.125  0.0056  0.7482  0.8953
  805MOL0     H 8621   6.580   9.086   1.089 -1.9593  0.4962  1.6015
  805MOL0     H 8622   6.454   9.192   0.926  1.0429  0.8343 -0.5103
  805MOL0     H 8623   6.451   9.050   0.826 -1.2243 -0.8145 -0.5328
  805MOL0     H 8624   6.211   9.111   0.865 -1.7129 -1.2974  1.2725
  805MOL0     H 8625   6.243   9.110   1.037  0.9953  0.4444  0.4318
  805MOL0     H 8626   6.220   8.867   0.733  2.0439  1.6571  0.2604
  805MOL0     H 8627   6.199   8.569   0.768  0.6344 -2.2491  2.6206
  805MOL0     H 8628   6.136   8.522   0.921 -1.8738 -0.7026 -0.4687
  805MOL0     H 8629   5.998   8.694   0.702  3.7277 -0.3078  0.1115
  805MOL0     H 8630   5.931   8.666   0.864 -1.0289  0.2805  0.4604
  805MOL0     H 8631   5.938   8.411   0.822  0.4395 -1.1855 -1.4603
  805MOL0     H 8632   5.971   8.443   0.652  0.9973  1.4202 -0.8547
  805MOL0     H 8633   5.781   8.592   0.640 -1.3360  1.1254  2.6131
  805MOL0     H 8634   5.723   8.557   0.793 -0.7436  0.4160 -0.3883
  805MOL0     H 8635   5.619   8.183   0.580 -0.4226  2.1912 -1.1442
  805MOL0     H 8636   5.362   7.985   0.671  0.4732 -0.6493  0.5235
  805MOL0     H 8637   5.290   8.065   0.524  0.1807 -2.7497 -0.9346
  805MOL0     H 8638   5.465   8.033   0.541  1.7107  3.8591  0.8385
  805MOL0     H 8639   4.916   8.320   0.661  1.4396 -1.1817 -0.4514
  805MOL0     H 8640   4.685   8.285   0.699  0.1488 -0.0176 -0.7176
  805MOL0     H 8641   4.467   8.258   0.817 -0.2121  0.3913  1.2101
  805MOL0     H 8642   4.523   8.093   0.780 -1.2138 -1.1959 -0.0659
  805MOL0     H 8643   4.381   7.994   0.937 -1.4803 -0.6252 -0.3877
  805MOL0     H 8644   4.325   8.134   1.013 -6.7778 -3.9289 -0.4348
  805MOL0     H 8645   4.263   8.076   0.717  0.9027  1.8390 -0.0405
  805MOL0     H 8646   4.182   8.199   0.808 -3.2685 -1.4596 -0.5603
  805MOL0     H 8647   4.200   7.913   0.888 -3.5045 -2.2179  0.1729
  805MOL0     H 8648   4.123   8.034   0.989 -1.5979 -1.3790  0.4267
  805MOL0     H 8649   4.006   7.923   0.720 -2.5999  0.4775  0.0263
  805MOL0     H 8650   3.954   8.069   0.804 -0.0223  0.5267  0.4607
  805MOL0     H 8651   3.979   7.789   0.918  2.9315  1.0646  1.5917
  805MOL0     H 8652   3.902   7.926   1.009  3.3374  1.4691  1.0452
  805MOL0     H 8653   3.801   7.854   0.725 -1.9552 -0.1262  0.1458
  805MOL0     H 8654   3.714   7.921   0.864 -0.6882  0.8015  1.0510
  805MOL0     H 8655   3.691   7.703   0.963 -0.7312  0.4423  0.0221
  805MOL0     H 8656   3.804   7.627   0.854 -0.4588 -0.4162 -0.2914
  805MOL0     H 8657   4.774   8.207   1.122 -3.9813 -0.9291 -1.4617
  805MOL0     H 8658   5.011   8.250   1.075 -1.7920 -1.5686  1.3580
  805MOL0     H 8659   5.300   8.485   0.813  1.3335  1.3321 -0.4811
  805MOL0     H 8660   5.515   8.550   0.789  0.5213 -1.0024  0.1445
  805MOL0     H 8661   7.024   9.384   0.807  0.1896  2.7283 -0.1699
  805MOL0     H 8662   7.194   9.510   0.682  1.5366 -0.6203 -2.0413
  805MOL0     H 8663   7.610   9.779   0.895 -0.1301 -1.2135  0.9553
  805MOL0     H 8664   7.829   9.893   0.814 -0.4438 -0.5356  1.2823
  805MOL0     H 8665   7.897  10.018   0.634 -0.0661 -0.2538 -1.3226
  805MOL0     H 8666   8.073  10.003   0.621  0.6669 -1.1090 -2.1565
  805MOL0     H 8667   7.935  10.090   0.403 -0.3172  0.1473 -0.8594
  805MOL0     H 8668   7.874   9.937   0.386  0.4590 -0.2598  0.2890
  805MOL0     H 8669   8.112   9.840   0.392  0.2086  0.2622  0.6808
  805MOL0     H 8670   8.166  10.006   0.394 -0.4482 -1.0984  1.3484
  805MOL0     H 8671   8.169   9.949   0.168 -1.2848 -1.6044 -2.0942
  805MOL0     H 8672   8.038  10.046   0.167  5.2412  2.1156 -0.9688
  805MOL0     H 8673   7.863   9.660   0.100  0.1061  1.2369  0.5830
  805MOL0     H 8674   7.852   9.657   0.482  1.3701  2.4996  0.4228
  805MOL0     H 8675   7.640   9.537   0.536  1.5074 -2.2081  0.9047
  806MOL0     O 8676   7.375   3.849   5.359  0.2700  0.6255  0.4045
  806MOL0     C 8677   7.363   3.759   5.439  0.0584  0.0030  0.1724
  806MOL0     O 8678   7.471   3.691   5.490  0.3844  0.6633 -0.0347
  806MOL0     C 8679   7.597   3.730   5.459 -1.0033  1.0651  0.2618
  806MOL0     C 8680   7.641   3.841   5.518 -0.2905 -0.0425 -0.2086
  806MOL0     C 8681   7.774   3.887   5.497 -0.4405 -0.7817 -0.3539
  806MOL0     C 8682   7.855   3.812   5.423  0.5963 -0.1922 -0.4429
  806MOL0     O 8683   7.986   3.855   5.429  0.5748 -0.5135  0.7676
  806MOL0     C 8684   8.077   3.809   5.327  0.2952  0.9659  0.1925
  806MOL0     C 8685   8.135   3.669   5.363 -0.0646  0.3866 -0.4685
  806MOL0     C 8686   8.263   3.631   5.292 -0.3545 -0.6634  0.1248
  806MOL0     C 8687   8.297   3.487   5.307 -0.5753  0.0492 -0.0361
  806MOL0     C 8688   8.344   3.445   5.442 -0.4028 -0.5753  0.4425
  806MOL0     C 8689   8.348   3.289   5.456  1.0135  1.0380 -0.0314
  806MOL0     C 8690   8.213   3.209   5.441  0.5379  0.4730 -0.1734
  806MOL0     C 8691   8.217   3.058   5.409  0.5576  0.9314  0.6992
  806MOL0     N 8692   8.081   3.005   5.438 -0.4118  0.3118 -0.3278
  806MOL0     C 8693   8.045   2.961   5.561  0.0796  0.3448  0.2414
  806MOL0     C 8694   7.912   2.938   5.555  0.1370 -0.0297  1.3082
  806MOL0     C 8695   7.830   2.880   5.660  1.0458 -1.1223 -0.0873
  806MOL0     C 8696   7.797   2.996   5.758 -0.4850 -0.2480  0.4414
  806MOL0     C 8697   7.711   2.968   5.885  0.1742  0.0665  0.1264
  806MOL0     C 8698   7.590   2.871   5.862 -0.1080  0.3874 -0.0335
  806MOL0     O 8699   7.525   2.861   5.987  0.2913  0.2692 -0.4181
  806MOL0     C 8700   7.385   2.851   5.996 -0.2301 -0.2264  0.1791
  806MOL0     C 8701   7.289   2.854   5.887 -0.6056  0.1841 -0.6182
  806MOL0     C 8702   7.149   2.852   5.907 -0.5990 -0.5647  0.0654
  806MOL0     C 8703   7.061   2.861   5.779 -0.5149  0.2171 -0.4480
  806MOL0     C 8704   7.100   2.857   6.044 -0.1554 -0.6008 -0.7671
  806MOL0     C 8705   6.952   2.849   6.079 -0.3775  0.6045  0.2890
  806MOL0     O 8706   6.858   2.891   5.989  0.2045 -0.6719  0.0617
  806MOL0     C 8707   6.730   2.909   6.032 -0.8429  0.5198  0.2003
  806MOL0     C 8708   6.655   2.819   6.107  0.3855 -0.8297  0.3463
  806MOL0     C 8709   6.518   2.852   6.133  0.0750 -0.2815  0.2407
  806MOL0     C 8710   6.466   2.978   6.104 -0.5121 -0.1364 -0.7693
  806MOL0     O 8711   6.343   3.014   6.144 -0.1843  0.2126 -0.8176
  806MOL0     C 8712   6.281   3.133   6.094 -0.3882 -0.5322  0.5479
  806MOL0     C 8713   6.136   3.136   6.122  0.0507  0.2609 -0.0988
  806MOL0     C 8714   6.113   3.103   6.268 -0.4983 -0.1012 -0.8554
  806MOL0     C 8715   5.965   3.086   6.299  0.1988 -0.2109  0.1125
  806MOL0     C 8716   5.944   3.030   6.443 -0.9793  0.2016 -0.1892
  806MOL0     C 8717   5.797   3.001   6.464  0.2402  0.3361  0.2405
  806MOL0     C 8718   5.766   2.946   6.601 -0.0901  0.3225 -0.0298
  806MOL0     C 8719   5.616   2.951   6.622 -0.1089  0.6804  0.4324
  806MOL0    Cl 8720   5.584   2.828   6.741  0.0031  0.0214  0.0740
  806MOL0     C 8721   6.550   3.068   6.041 -0.3700  0.2938  0.1407
  806MOL0     C 8722   6.681   3.035   6.004 -0.3148  0.6613 -0.5350
  806MOL0     O 8723   6.928   2.813   6.192 -0.5055 -1.0611 -0.4158
  806MOL0     C 8724   7.197   2.852   6.146 -0.3552 -0.2779  0.9198
  806MOL0     C 8725   7.335   2.857   6.123 -0.1049  0.1229 -0.0136
  806MOL0     N 8726   7.870   2.984   5.433 -0.5150  0.4827  0.1770
  806MOL0     N 8727   7.970   3.024   5.360 -0.9539 -0.4193  0.3133
  806MOL0     C 8728   7.807   3.704   5.353  0.5478  0.7421  0.4785
  806MOL0     C 8729   7.675   3.660   5.373 -0.8249  0.6642  0.4160
  806MOL0     C 8730   7.230   3.727   5.491  0.1374  0.0995  0.1993
  806MOL0     C 8731   7.120   3.816   5.480 -1.2733 -0.0687 -0.1465
  806MOL0     C 8732   6.988   3.778   5.517  0.8355 -0.3057  0.4560
  806MOL0     C 8733   6.968   3.648   5.577 -0.0231 -0.4083 -0.0686
  806MOL0     O 8734   6.848   3.606   5.636  0.2452  0.4283  0.7530
  806MOL0     C 8735   6.727   3.670   5.584 -0.1651  0.7944  0.6438
  806MOL0     C 8736   6.672   3.592   5.464 -0.1273 -0.2599 -0.9974
  806MOL0     C 8737   6.640   3.452   5.508 -0.3772 -0.6710 -0.7843
  806MOL0     C 8738   6.566   3.396   5.395  1.0326  0.0798  0.3288
  806MOL0     C 8739   6.500   3.274   5.432  0.3950  0.2442  0.1064
  806MOL0     C 8740   6.464   3.160   5.470  0.2902  0.3458 -0.1060
  806MOL0     C 8741   7.079   3.564   5.574  0.3175  0.5983  0.7375
  806MOL0     C 8742   7.204   3.603   5.540  0.7341  1.1208  1.1305
  806MOL0     H 8743   7.562   3.882   5.581 -2.9132 -0.9766 -2.6672
  806MOL0     H 8744   7.799   3.977   5.553 -5.1298  1.0732 -0.7492
  806MOL0     H 8745   8.027   3.798   5.230  1.4330  0.2703 -0.3377
  806MOL0     H 8746   8.158   3.882   5.318 -0.0588  2.1931  4.5887
  806MOL0     H 8747   8.158   3.679   5.469  0.4755  1.1614 -0.6521
  806MOL0     H 8748   8.060   3.590   5.352  0.7722 -0.5258  0.2231
  806MOL0     H 8749   8.250   3.659   5.187  1.6974  0.9359  0.2458
  806MOL0     H 8750   8.342   3.692   5.335  1.3804 -2.4317 -0.4207
  806MOL0     H 8751   8.204   3.434   5.287  0.5247 -2.3017  0.6800
  806MOL0     H 8752   8.366   3.460   5.226  0.5832 -0.7521  1.1652
  806MOL0     H 8753   8.444   3.476   5.474 -0.1920 -1.7130  0.9509
  806MOL0     H 8754   8.272   3.470   5.521  0.4838  1.6158  0.6074
  806MOL0     H 8755   8.417   3.255   5.379 -0.6713 -0.5428 -0.9195
  806MOL0     H 8756   8.382   3.260   5.556 -0.5155 -0.2005  0.1678
  806MOL0     H 8757   8.161   3.237   5.533  2.0862  1.7585  0.3508
  806MOL0     H 8758   8.152   3.257   5.363 -2.2132 -1.7222  0.4793
  806MOL0     H 8759   8.289   3.001   5.469 -0.5279  1.5833  2.7087
  806MOL0     H 8760   8.244   3.040   5.305  1.1737 -1.7534  1.2244
  806MOL0     H 8761   8.110   2.948   5.647  1.0248  2.7230 -0.0457
  806MOL0     H 8762   7.727   2.860   5.631 -0.6982  3.2913  2.1259
  806MOL0     H 8763   7.871   2.789   5.705  0.5019 -3.1781 -3.4730
  806MOL0     H 8764   7.747   3.082   5.711  0.5751 -0.5489 -1.3068
  806MOL0     H 8765   7.894   3.033   5.794 -0.8240  0.6994  0.4256
  806MOL0     H 8766   7.675   3.068   5.911  1.1909  1.0177 -1.8913
  806MOL0     H 8767   7.775   2.946   5.971 -0.4981 -1.0136  0.3752
  806MOL0     H 8768   7.626   2.774   5.826  0.6881 -0.1423  2.0149
  806MOL0     H 8769   7.523   2.917   5.789 -0.3642 -1.0202 -0.7341
  806MOL0     H 8770   7.336   2.853   5.789  1.3502  0.7951  0.2740
  806MOL0     H 8771   7.127   2.854   5.693  0.9997 -1.4170  0.7752
  806MOL0     H 8772   6.981   2.787   5.781 -1.7120  1.4721  0.1764
  806MOL0     H 8773   7.004   2.954   5.774 -2.3436 -0.9108 -1.4586
  806MOL0     H 8774   6.691   2.719   6.131 -0.7195 -1.3145  0.0334
  806MOL0     H 8775   6.457   2.783   6.191 -3.3614  1.6911 -0.7362
  806MOL0     H 8776   6.334   3.220   6.135 -1.5075  2.3645 -3.5596
  806MOL0     H 8777   6.303   3.139   5.987 -1.9609  0.8875  0.2683
  806MOL0     H 8778   6.097   3.236   6.100  3.5363  2.5965  3.0196
  806MOL0     H 8779   6.094   3.055   6.061  1.3114 -1.2317  0.9401
  806MOL0     H 8780   6.155   3.186   6.326  0.9169 -0.7497 -0.9147
  806MOL0     H 8781   6.168   3.015   6.302 -0.2962  0.3902  0.1167
  806MOL0     H 8782   5.910   3.179   6.281 -0.1512  1.2757  6.4680
  806MOL0     H 8783   5.922   3.018   6.225  4.4371 -0.0432 -2.8653
  806MOL0     H 8784   5.974   3.112   6.509  1.4130 -1.8640  1.4842
  806MOL0     H 8785   6.011   2.948   6.471 -1.4727 -0.1533 -0.0408
  806MOL0     H 8786   5.750   3.100   6.454  2.7583  1.7041  0.8579
  806MOL0     H 8787   5.768   2.934   6.384  0.0014 -0.3938  0.9271
  806MOL0     H 8788   5.821   3.007   6.674 -1.3428  2.4503 -0.7769
  806MOL0     H 8789   5.791   2.840   6.606  1.4053  0.5194 -2.0209
  806MOL0     H 8790   5.569   2.920   6.528  0.7382  1.2964 -0.2180
  806MOL0     H 8791   5.585   3.052   6.652 -1.1779 -0.1170  2.1302
  806MOL0     H 8792   6.524   3.173   6.030  2.0264  0.8121 -1.1804
  806MOL0     H 8793   6.746   3.103   5.950 -0.0217 -1.1523 -2.6392
  806MOL0     H 8794   7.160   2.858   6.247 -1.4111 -0.8118  0.5780
  806MOL0     H 8795   7.392   2.849   6.215 -0.8113 -3.2944  0.2609
  806MOL0     H 8796   7.868   3.647   5.284 -0.3989 -1.2179  1.1767
  806MOL0     H 8797   7.626   3.576   5.323  1.6064 -1.0099  0.6758
  806MOL0     H 8798   7.131   3.911   5.429 -0.7959  0.2450  0.5221
  806MOL0     H 8799   6.912   3.854   5.501 -0.0452 -0.7884  2.1205
  806MOL0     H 8800   6.651   3.643   5.658 -0.4472 -0.7552 -0.1521
  806MOL0     H 8801   6.744   3.775   5.559  1.5045  0.2910 -0.5092
  806MOL0     H 8802   6.736   3.575   5.377 -0.1706  0.9555 -1.2943
  806MOL0     H 8803   6.589   3.649   5.422 -0.6133 -0.1503  0.0704
  806MOL0     H 8804   6.583   3.445   5.601  0.9790 -1.7499  0.0016
  806MOL0     H 8805   6.733   3.400   5.533  0.1258  1.2242  1.7447
  806MOL0     H 8806   6.627   3.371   5.308  1.8709  0.4579  0.7954
  806MOL0     H 8807   6.487   3.467   5.366 -0.4709 -2.4668 -2.3910
  806MOL0     H 8808   6.430   3.068   5.514 -0.0892 -1.3291 -3.5960
  806MOL0     H 8809   7.055   3.462   5.605  0.3693  0.7567  1.3082
  806MOL0     H 8810   7.286   3.532   5.538  1.5733  2.0607  1.3051
  807MOL0     O 8811   5.894   8.827   7.993 -1.0965  0.2395 -0.3122
  807MOL0     C 8812   5.958   8.924   8.025 -0.1007 -0.7062  0.2325
  807MOL0     O 8813   5.929   9.012   8.127 -0.0945 -0.4376  0.1467
  807MOL0     C 8814   5.817   9.005   8.200 -0.0711 -0.5173  0.1959
  807MOL0     C 8815   5.824   8.963   8.333 -0.0607  0.2250 -0.2549
  807MOL0     C 8816   5.710   8.935   8.407 -0.2959 -0.3580  0.5131
  807MOL0     C 8817   5.586   8.970   8.355 -0.0914 -0.8247 -0.0459
  807MOL0     O 8818   5.460   8.957   8.420  0.0353  0.1568  0.1909
  807MOL0     C 8819   5.470   8.924   8.555 -0.5315  0.8516 -1.0093
  807MOL0     C 8820   5.351   8.977   8.636 -0.6275 -0.0795 -0.7810
  807MOL0     C 8821   5.219   8.959   8.577 -0.4029  0.0824  0.2836
  807MOL0     C 8822   5.175   8.818   8.536  0.2512  0.4835  0.4335
  807MOL0     C 8823   5.038   8.800   8.484 -0.8786 -0.1516  0.6579
  807MOL0     C 8824   4.933   8.876   8.566 -0.7689 -0.9251 -0.7135
  807MOL0     C 8825   4.808   8.851   8.497  0.0177 -0.2496  0.1538
  807MOL0     C 8826   4.709   8.928   8.575  0.9684  0.1746  0.0577
  807MOL0     N 8827   4.568   8.910   8.528 -0.1780 -0.3790 -0.1054
  807MOL0     C 8828   4.467   8.997   8.538  0.1402 -0.2621  0.6526
  807MOL0     C 8829   4.368   8.939   8.462  0.3957  0.2552  0.0129
  807MOL0     C 8830   4.227   8.996   8.438  0.5577 -0.7889  0.7112
  807MOL0     C 8831   4.168   9.034   8.574 -0.4199 -0.2142  0.2225
  807MOL0     C 8832   4.154   8.909   8.661 -0.6214 -0.8493 -0.0561
  807MOL0     C 8833   4.077   8.938   8.801  0.1741 -0.7318  0.4411
  807MOL0     O 8834   3.944   8.986   8.770  0.2134  0.0385 -0.3298
  807MOL0     C 8835   3.858   8.898   8.707 -1.2164 -0.5493  0.0894
  807MOL0     C 8836   3.750   8.952   8.633  0.3280 -0.4091 -0.1147
  807MOL0     C 8837   3.660   8.874   8.571  0.1795  0.8794 -0.1802
  807MOL0     C 8838   3.555   8.946   8.502 -0.1832  0.3224  0.0857
  807MOL0     C 8839   3.674   8.726   8.570 -0.3304 -1.2091  0.6065
  807MOL0     C 8840   3.577   8.643   8.505  1.3088 -0.5059 -0.6673
  807MOL0     O 8841   3.513   8.676   8.384 -0.3900 -0.2048  0.1504
  807MOL0     C 8842   3.432   8.591   8.317 -0.1119 -0.3634 -0.6456
  807MOL0     C 8843   3.459   8.455   8.312  0.4522  0.7093  0.2899
  807MOL0     C 8844   3.371   8.366   8.252  0.1795 -0.0690 -0.3183
  807MOL0     C 8845   3.252   8.417   8.194 -0.5697 -0.0991 -0.0429
  807MOL0     O 8846   3.169   8.325   8.138 -0.2987 -0.8395 -0.2474
  807MOL0     C 8847   3.057   8.366   8.059 -0.2101 -0.6204  0.0150
  807MOL0     C 8848   2.961   8.253   8.039  0.4312 -0.3986 -0.6389
  807MOL0     C 8849   2.821   8.315   8.062  0.1400 -0.0264  0.0324
  807MOL0     C 8850   2.711   8.212   8.043 -0.5606  0.0108 -0.5681
  807MOL0     C 8851   2.698   8.158   7.907  0.1771  0.3233  0.2854
  807MOL0     C 8852   2.603   8.038   7.916 -0.7781 -0.9231 -1.1033
  807MOL0     C 8853   2.569   8.001   7.782  0.6561 -0.5891  0.2934
  807MOL0     C 8854   2.483   7.870   7.784  0.6565 -0.0260 -0.4314
  807MOL0    Cl 8855   2.445   7.832   7.611  0.0626  0.2506  0.1845
  807MOL0     C 8856   3.226   8.555   8.200 -0.0547  0.4355 -0.3600
  807MOL0     C 8857   3.316   8.645   8.262  0.3982 -0.2031 -0.5513
  807MOL0     O 8858   3.541   8.549   8.573 -0.4237  0.3852 -0.4905
  807MOL0     C 8859   3.776   8.675   8.652 -0.2073  0.0647  0.8266
  807MOL0     C 8860   3.872   8.763   8.708  0.1556  0.4122 -0.5006
  807MOL0     N 8861   4.417   8.817   8.420  0.7746 -0.3049 -0.7799
  807MOL0     N 8862   4.536   8.799   8.465  0.1955 -0.0584  0.0260
  807MOL0     C 8863   5.580   9.023   8.223  0.1219  0.4368 -0.1708
  807MOL0     C 8864   5.689   9.041   8.146 -0.1468  0.3790  0.0061
  807MOL0     C 8865   6.088   8.929   7.961 -0.3071  0.0039  0.4272
  807MOL0     C 8866   6.186   9.022   7.998 -0.2763 -0.6290  0.7246
  807MOL0     C 8867   6.319   9.025   7.955  1.1478  0.0703 -0.2983
  807MOL0     C 8868   6.357   8.928   7.862  0.4721 -0.2575  0.1297
  807MOL0     O 8869   6.492   8.935   7.822  0.3288  0.2467  0.1352
  807MOL0     C 8870   6.525   8.858   7.708 -0.4961  0.2234 -0.0346
  807MOL0     C 8871   6.656   8.924   7.653  0.3180  0.8604  0.5510
  807MOL0     C 8872   6.771   8.890   7.747  0.0739  0.7161 -0.1186
  807MOL0     C 8873   6.912   8.941   7.683  0.3686  0.0519  0.8061
  807MOL0     C 8874   7.010   8.949   7.784 -0.1731  0.2925  0.0835
  807MOL0     C 8875   7.089   8.957   7.868  0.5044  0.8843 -0.2000
  807MOL0     C 8876   6.272   8.819   7.833 -0.1557 -0.2028 -0.8238
  807MOL0     C 8877   6.138   8.822   7.878  0.2236  0.0097  0.2013
  807MOL0     H 8878   5.923   8.937   8.369 -0.4998 -2.3861 -0.7013
  807MOL0     H 8879   5.712   8.881   8.501  0.7176  0.3445  0.9146
  807MOL0     H 8880   5.467   8.815   8.562 -0.0508  0.7164 -2.5731
  807MOL0     H 8881   5.558   8.968   8.602 -0.6771  2.0326 -1.7886
  807MOL0     H 8882   5.353   8.930   8.735  1.1091 -1.6320 -1.5047
  807MOL0     H 8883   5.371   9.085   8.642 -2.2899  0.2534 -0.7143
  807MOL0     H 8884   5.143   9.005   8.639 -1.8501  0.9990 -2.0458
  807MOL0     H 8885   5.215   9.039   8.502 -1.6569 -1.5937 -1.5443
  807MOL0     H 8886   5.245   8.794   8.454 -0.5543 -1.3886  0.2382
  807MOL0     H 8887   5.183   8.746   8.618 -0.9711 -0.7469 -0.4718
  807MOL0     H 8888   5.036   8.838   8.381  1.0113  1.1004  1.0325
  807MOL0     H 8889   5.019   8.693   8.468 -0.9062  0.0313 -0.6233
  807MOL0     H 8890   4.924   8.834   8.667 -4.1676  0.2083 -0.4267
  807MOL0     H 8891   4.960   8.982   8.559 -1.6782 -0.6437 -0.1462
  807MOL0     H 8892   4.813   8.874   8.390  3.1861 -0.9610  0.0358
  807MOL0     H 8893   4.776   8.748   8.510 -2.2326 -0.5127 -5.0714
  807MOL0     H 8894   4.732   9.034   8.556  1.6969 -0.0592 -0.3782
  807MOL0     H 8895   4.718   8.895   8.678 -4.3153 -0.8475  0.4675
  807MOL0     H 8896   4.469   9.100   8.572 -0.0896  0.8525 -2.3845
  807MOL0     H 8897   4.222   9.078   8.365 -0.0389 -0.8100  0.7185
  807MOL0     H 8898   4.162   8.922   8.391 -0.4443  0.0029  0.7829
  807MOL0     H 8899   4.071   9.080   8.553 -0.6454 -1.1289 -0.8512
  807MOL0     H 8900   4.228   9.108   8.627 -0.6278 -0.9324  1.4997
  807MOL0     H 8901   4.255   8.869   8.679 -0.7975 -1.5299 -0.5445
  807MOL0     H 8902   4.105   8.824   8.613 -0.8499 -1.1189  0.6549
  807MOL0     H 8903   4.119   9.010   8.873 -0.1488 -1.9862  1.9215
  807MOL0     H 8904   4.081   8.849   8.864 -0.9190 -1.0325  0.0966
  807MOL0     H 8905   3.740   9.059   8.639 -0.2915 -0.4188 -0.8585
  807MOL0     H 8906   3.578   8.951   8.395 -2.6193 -2.2315 -0.6775
  807MOL0     H 8907   3.457   8.896   8.508  0.0195 -0.0599  0.2524
  807MOL0     H 8908   3.535   9.045   8.543 -3.7066 -0.6408  1.0779
  807MOL0     H 8909   3.552   8.427   8.360  1.4756 -0.0442 -1.9895
  807MOL0     H 8910   3.380   8.258   8.247 -2.1910 -0.2579 -4.0827
  807MOL0     H 8911   3.006   8.447   8.112  0.7647 -0.2999  0.4870
  807MOL0     H 8912   3.085   8.406   7.962  2.0349  0.3068  0.9573
  807MOL0     H 8913   2.987   8.205   7.945  0.2531  1.1087 -1.4860
  807MOL0     H 8914   2.981   8.169   8.107  2.1201  1.2901  1.0949
  807MOL0     H 8915   2.800   8.406   8.004 -0.4540  2.3793  3.6908
  807MOL0     H 8916   2.815   8.345   8.167  2.4459 -1.8628  0.7828
  807MOL0     H 8917   2.724   8.127   8.110 -0.3129 -0.6209 -1.3990
  807MOL0     H 8918   2.619   8.266   8.067 -0.8445 -0.7166  0.0280
  807MOL0     H 8919   2.789   8.127   7.855  0.4451 -0.1080  1.0004
  807MOL0     H 8920   2.637   8.229   7.851 -2.7177  0.5027  3.3119
  807MOL0     H 8921   2.640   7.957   7.980 -1.1376 -0.2963 -0.0717
  807MOL0     H 8922   2.513   8.081   7.960  0.3978  0.0461  0.4718
  807MOL0     H 8923   2.648   7.983   7.708 -1.8726  1.0816 -3.0777
  807MOL0     H 8924   2.503   8.075   7.737 -0.6938 -2.7950 -1.5703
  807MOL0     H 8925   2.385   7.871   7.834  0.7447 -0.4886 -0.2519
  807MOL0     H 8926   2.544   7.793   7.831 -0.5252 -1.5229 -1.2522
  807MOL0     H 8927   3.129   8.592   8.170 -0.2514  1.3201  1.2639
  807MOL0     H 8928   3.287   8.744   8.296  1.1335 -0.2181  0.1595
  807MOL0     H 8929   3.782   8.569   8.676 -0.2693  0.2749  1.7855
  807MOL0     H 8930   3.958   8.715   8.753  0.2906 -0.0937 -1.2738
  807MOL0     H 8931   5.486   9.051   8.176  1.0120  1.9242 -1.1657
  807MOL0     H 8932   5.688   9.061   8.039  5.1275 -2.9296 -1.0808
  807MOL0     H 8933   6.158   9.103   8.065  0.7287 -0.6415  1.1888
  807MOL0     H 8934   6.386   9.104   7.985 -0.3722  0.5917  2.0082
  807MOL0     H 8935   6.559   8.758   7.736  2.4280  1.0650 -0.2273
  807MOL0     H 8936   6.447   8.848   7.632  2.1394  0.0301 -2.9126
  807MOL0     H 8937   6.636   9.029   7.629 -3.5986 -0.1281 -1.3396
  807MOL0     H 8938   6.665   8.879   7.553 -0.4138  0.1510  0.7950
  807MOL0     H 8939   6.773   8.782   7.763  1.9126  0.8161  0.5560
  807MOL0     H 8940   6.756   8.943   7.841  2.5441  0.9516  0.2170
  807MOL0     H 8941   6.892   9.035   7.631 -0.8186  1.6198  3.8496
  807MOL0     H 8942   6.957   8.872   7.611 -0.6745 -0.5507  0.7111
  807MOL0     H 8943   7.175   8.964   7.931  1.1795 -0.0469 -0.9824
  807MOL0     H 8944   6.307   8.741   7.767  0.5253  0.3804 -1.1786
  807MOL0     H 8945   6.079   8.736   7.848 -0.0752  0.4198 -0.4313
  808MOL0     O 8946   1.633  10.703   0.745 -0.2747 -0.5251  0.6547
  808MOL0     C 8947   1.652  10.606   0.813 -0.1128 -0.5261  0.4169
  808MOL0     O 8948   1.611  10.584   0.942  0.5046  0.6182 -0.7726
  808MOL0     C 8949   1.559  10.685   1.016  0.1471  0.1054 -0.2687
  808MOL0     C 8950   1.425  10.676   1.068 -1.4539 -0.0521  0.8746
  808MOL0     C 8951   1.380  10.778   1.152 -0.2366 -0.5548  0.5410
  808MOL0     C 8952   1.453  10.892   1.161 -0.1874  0.4126 -0.2956
  808MOL0     O 8953   1.410  10.994   1.245  0.4370 -0.2377 -0.4635
  808MOL0     C 8954   1.462  10.981   1.376  0.2395 -0.8115 -0.2447
  808MOL0     C 8955   1.442  11.114   1.446  0.1879  0.2963 -0.3951
  808MOL0     C 8956   1.561  11.212   1.421 -0.7750  0.8309  0.8694
  808MOL0     C 8957   1.666  11.207   1.531 -0.3890  0.4638  0.2388
  808MOL0     C 8958   1.777  11.291   1.479  0.2684 -0.8477  0.2473
  808MOL0     C 8959   1.896  11.274   1.581  0.9299 -0.1874  0.8339
  808MOL0     C 8960   2.009  11.349   1.526 -0.8997 -0.4838 -0.5709
  808MOL0     C 8961   2.100  11.412   1.631 -0.3572  0.5227  0.0511
  808MOL0     N 8962   2.026  11.494   1.734  0.0086  0.2825 -0.4961
  808MOL0     C 8963   1.948  11.606   1.714  0.2164  0.8004 -0.0012
  808MOL0     C 8964   1.871  11.618   1.830  0.8290 -0.4176 -0.3462
  808MOL0     C 8965   1.769  11.729   1.857 -0.8490  0.2007 -0.0067
  808MOL0     C 8966   1.637  11.687   1.794  0.1766  0.3429  0.4330
  808MOL0     C 8967   1.544  11.797   1.846  0.3799 -0.6828  0.3237
  808MOL0     C 8968   1.400  11.782   1.805  0.0399 -0.1091 -0.3920
  808MOL0     O 8969   1.397  11.799   1.659  0.5567 -0.6614 -0.0137
  808MOL0     C 8970   1.269  11.801   1.599  0.3269 -0.0662 -0.1428
  808MOL0     C 8971   1.268  11.851   1.472  0.7747  0.0553  0.2817
  808MOL0     C 8972   1.148  11.853   1.395 -0.0103  0.2362 -0.6106
  808MOL0     C 8973   1.157  11.931   1.259 -0.1670  0.3526  0.4708
  808MOL0     C 8974   1.019  11.819   1.452 -0.5712  1.1160 -0.3574
  808MOL0     C 8975   0.890  11.819   1.392  0.0979  0.6525  0.8714
  808MOL0     O 8976   0.882  11.831   1.257  1.1650  0.1286 -0.0087
  808MOL0     C 8977   0.761  11.823   1.199  0.1594 -0.0808  0.3288
  808MOL0     C 8978   0.721  11.714   1.126  0.2571 -0.2845  0.0999
  808MOL0     C 8979   0.606  11.712   1.052 -0.0430  0.7699 -0.8097
  808MOL0     C 8980   0.511  11.818   1.074  0.1391  0.4124 -0.0232
  808MOL0     O 8981   0.384  11.808   1.017  0.2541 -0.5261 -0.3869
  808MOL0     C 8982   0.313  11.683   1.015  0.5803  0.9168 -0.6637
  808MOL0     C 8983   0.173  11.715   0.987 -0.6196 -0.5545  0.9050
  808MOL0     C 8984   0.088  11.614   1.060 -0.4169  0.1707 -1.2353
  808MOL0     C 8985  -0.065  11.625   1.016 -0.4766 -0.0746 -0.1111
  808MOL0     C 8986  -0.164  11.543   1.106  0.2006  0.1454 -0.6631
  808MOL0     C 8987  -0.309  11.551   1.057 -0.4681 -0.8504 -0.0317
  808MOL0     C 8988  -0.400  11.468   1.135 -0.1561  0.0686 -0.3312
  808MOL0     C 8989  -0.526  11.537   1.180 -0.1964  0.1671  0.3688
  808MOL0    Cl 8990  -0.632  11.580   1.046  0.2159 -0.3460 -0.0932
  808MOL0     C 8991   0.537  11.919   1.159 -0.1973 -0.7325  0.5127
  808MOL0     C 8992   0.666  11.930   1.204  0.1778  0.4468 -0.7246
  808MOL0     O 8993   0.799  11.793   1.465  0.3036 -0.1552 -0.1763
  808MOL0     C 8994   1.032  11.764   1.589  0.4772  0.7018  0.8986
  808MOL0     C 8995   1.150  11.760   1.665 -0.0668 -0.8577 -0.0747
  808MOL0     N 8996   1.899  11.512   1.915 -0.6254 -1.1663 -0.1190
  808MOL0     N 8997   1.990  11.440   1.859  0.6433  1.2761 -0.3515
  808MOL0     C 8998   1.583  10.901   1.107 -0.9936 -0.1378  1.4971
  808MOL0     C 8999   1.634  10.801   1.033 -0.1085 -0.2979  0.4139
  808MOL0     C 9000   1.742  10.497   0.754  0.7030 -0.3153  0.2934
  808MOL0     C 9001   1.771  10.484   0.615  0.3871  0.4379  0.6553
  808MOL0     C 9002   1.852  10.388   0.574  0.0445 -0.5426 -0.9345
  808MOL0     C 9003   1.905  10.294   0.670  0.3606  0.1822  0.0867
  808MOL0     O 9004   1.977  10.181   0.640  0.1607 -0.2983 -0.0121
  808MOL0     C 9005   2.059  10.185   0.525 -0.1889  0.7839  0.7149
  808MOL0     C 9006   2.194  10.258   0.537  0.3678 -0.5952  0.3881
  808MOL0     C 9007   2.262  10.239   0.680  0.2290  0.6328 -1.1327
  808MOL0     C 9008   2.414  10.261   0.659  0.4796  0.6917  0.1480
  808MOL0     C 9009   2.492  10.234   0.779  0.2212 -0.4308  0.0094
  808MOL0     C 9010   2.551  10.195   0.879  0.4424  0.3574 -0.2888
  808MOL0     C 9011   1.867  10.306   0.808 -0.4186  0.3663  0.4895
  808MOL0     C 9012   1.793  10.414   0.846 -0.2682  0.1128  0.1242
  808MOL0     H 9013   1.367  10.587   1.042 -0.0955 -0.1366 -2.3405
  808MOL0     H 9014   1.283  10.775   1.202 -1.8993  1.5501 -2.2922
  808MOL0     H 9015   1.394  10.917   1.434 -0.8664  2.6066  2.6190
  808MOL0     H 9016   1.568  10.954   1.384  0.5877  0.4406 -0.4506
  808MOL0     H 9017   1.344  11.160   1.434 -0.7481 -1.2509  0.7607
  808MOL0     H 9018   1.432  11.085   1.552 -0.6864 -1.8413 -0.9975
  808MOL0     H 9019   1.603  11.175   1.327 -0.6437  0.6499  0.9985
  808MOL0     H 9020   1.516  11.311   1.416 -0.3128  0.9948 -0.3975
  808MOL0     H 9021   1.629  11.242   1.628  2.4373  0.2128  1.5058
  808MOL0     H 9022   1.701  11.104   1.540  2.8064  1.3405 -0.7658
  808MOL0     H 9023   1.799  11.258   1.378  0.5220 -1.1585  0.4014
  808MOL0     H 9024   1.740  11.394   1.472  0.7015 -0.7801 -1.6217
  808MOL0     H 9025   1.854  11.309   1.676  3.3142 -0.7082  2.1481
  808MOL0     H 9026   1.929  11.172   1.597  0.5207 -0.2394  1.3704
  808MOL0     H 9027   2.076  11.286   1.467 -1.9015 -3.2855  1.0945
  808MOL0     H 9028   1.981  11.426   1.453  0.2842 -1.3689 -2.0201
  808MOL0     H 9029   2.173  11.475   1.578  0.5192  0.0875  0.7222
  808MOL0     H 9030   2.154  11.342   1.694 -2.0227 -0.1955  0.7456
  808MOL0     H 9031   1.944  11.677   1.633 -2.1274  3.7848  2.4825
  808MOL0     H 9032   1.762  11.727   1.966  5.7163 -2.2154  0.8198
  808MOL0     H 9033   1.806  11.822   1.813 -1.9438  1.5839  1.8230
  808MOL0     H 9034   1.604  11.587   1.823  2.3001 -0.2949  0.8091
  808MOL0     H 9035   1.642  11.695   1.685 -2.2843  0.9634  0.3119
  808MOL0     H 9036   1.568  11.894   1.802  2.8915 -0.6488  1.5780
  808MOL0     H 9037   1.546  11.804   1.955 -0.8294 -0.4791  0.3421
  808MOL0     H 9038   1.345  11.859   1.861 -1.0209 -1.7713  0.9437
  808MOL0     H 9039   1.363  11.685   1.840 -1.1177  1.1758  2.2016
  808MOL0     H 9040   1.360  11.886   1.428 -0.7283  1.0297 -2.2779
  808MOL0     H 9041   1.095  12.021   1.261 -1.6636 -0.6476  1.1076
  808MOL0     H 9042   1.264  11.950   1.247  0.6449 -3.6766 -0.1196
  808MOL0     H 9043   1.130  11.862   1.179  1.0586 -2.0015  1.9637
  808MOL0     H 9044   0.785  11.630   1.103  1.0386  0.2688  0.1815
  808MOL0     H 9045   0.588  11.627   0.987  0.7657 -1.5369  1.8464
  808MOL0     H 9046   0.353  11.608   0.946 -1.4466  1.9573 -3.1223
  808MOL0     H 9047   0.324  11.645   1.117 -0.0199  1.1660 -0.5034
  808MOL0     H 9048   0.147  11.816   1.021 -0.5404 -0.1969 -0.0582
  808MOL0     H 9049   0.156  11.693   0.881 -5.0294  0.0748  1.3172
  808MOL0     H 9050   0.092  11.651   1.164 -0.4069  0.1457 -1.2274
  808MOL0     H 9051   0.120  11.510   1.065  0.7015  0.4705  4.3069
  808MOL0     H 9052  -0.088  11.732   1.018 -0.7077 -0.1068 -0.8282
  808MOL0     H 9053  -0.085  11.607   0.910 -2.1002 -1.1294  0.3342
  808MOL0     H 9054  -0.153  11.586   1.206 -0.0964  1.4838 -1.1832
  808MOL0     H 9055  -0.148  11.435   1.112 -3.4483 -0.4631  4.0974
  808MOL0     H 9056  -0.343  11.655   1.060 -1.1796 -0.9830 -2.0868
  808MOL0     H 9057  -0.314  11.516   0.954 -1.1571 -1.2871  0.1446
  808MOL0     H 9058  -0.344  11.422   1.217 -1.9067 -1.3103  0.1658
  808MOL0     H 9059  -0.422  11.387   1.065 -0.4998  2.2560 -2.9234
  808MOL0     H 9060  -0.504  11.628   1.237  0.8383  0.3493 -0.2995
  808MOL0     H 9061  -0.588  11.473   1.244  0.7071  0.8244  1.9435
  808MOL0     H 9062   0.465  11.997   1.179  0.6675  0.4313 -0.7278
  808MOL0     H 9063   0.705  12.011   1.266  1.4645 -1.3026  0.8886
  808MOL0     H 9064   0.953  11.712   1.642  0.4092  1.1372  1.2323
  808MOL0     H 9065   1.134  11.728   1.767 -1.4462  2.3928  0.8554
  808MOL0     H 9066   1.629  10.999   1.113 -3.1124  0.8507  2.7862
  808MOL0     H 9067   1.718  10.812   0.964 -0.4033 -2.7877 -0.4570
  808MOL0     H 9068   1.729  10.556   0.545  0.2544 -0.6744 -0.4263
  808MOL0     H 9069   1.869  10.384   0.467 -2.5940  1.1224 -1.5136
  808MOL0     H 9070   2.087  10.084   0.495  0.2364  1.2981 -0.7117
  808MOL0     H 9071   2.002  10.227   0.441 -0.4293  0.0177  0.4846
  808MOL0     H 9072   2.167  10.363   0.526  1.8308 -0.2635 -0.2029
  808MOL0     H 9073   2.265  10.229   0.460 -0.7941 -1.6354 -0.3396
  808MOL0     H 9074   2.239  10.136   0.710  0.8413  1.4771  2.7800
  808MOL0     H 9075   2.216  10.308   0.751  1.4953  0.9879 -0.6287
  808MOL0     H 9076   2.446  10.347   0.599 -0.7558 -0.2355 -1.9578
  808MOL0     H 9077   2.439  10.191   0.578 -1.5991  2.2909 -2.0056
  808MOL0     H 9078   2.605  10.157   0.963 -0.8986 -0.8449  0.0813
  808MOL0     H 9079   1.916  10.245   0.883  3.3716  1.4731 -0.8572
  808MOL0     H 9080   1.771  10.414   0.952 -2.3292 -1.5085 -0.2408
  809MOL0     O 9081   2.305   1.650   5.526 -1.2573  0.4426 -1.0156
  809MOL0     C 9082   2.371   1.561   5.589  0.0379 -0.1612 -0.1905
  809MOL0     O 9083   2.316   1.459   5.665 -0.1143 -0.1539  0.5056
  809MOL0     C 9084   2.192   1.472   5.716  0.8448  0.9322 -0.4284
  809MOL0     C 9085   2.079   1.538   5.654 -0.9991  0.3352  1.1806
  809MOL0     C 9086   1.958   1.550   5.717 -0.3511  0.4293 -0.4130
  809MOL0     C 9087   1.935   1.497   5.842 -0.1804  0.3537  1.1048
  809MOL0     O 9088   1.802   1.504   5.880  0.6541 -0.2929  0.1257
  809MOL0     C 9089   1.752   1.441   5.997 -0.6344 -0.2179  0.0184
  809MOL0     C 9090   1.614   1.494   6.026 -0.3106 -0.7449  0.4715
  809MOL0     C 9091   1.632   1.644   6.061 -0.2313  0.1114 -0.2768
  809MOL0     C 9092   1.502   1.716   6.093 -0.6623 -0.1877 -0.1348
  809MOL0     C 9093   1.400   1.709   5.979  0.1740  0.0967 -0.1656
  809MOL0     C 9094   1.291   1.816   5.999  0.0734  0.3435  0.9009
  809MOL0     C 9095   1.190   1.782   5.894  0.2301  0.0823  0.1867
  809MOL0     C 9096   1.123   1.913   5.842 -0.0317  0.3289 -0.5108
  809MOL0     N 9097   0.997   1.889   5.766 -0.2061  0.2147 -0.0095
  809MOL0     C 9098   0.971   1.970   5.658  0.5487  0.5044  0.6486
  809MOL0     C 9099   0.855   1.913   5.608 -0.1445  1.0499 -0.1483
  809MOL0     C 9100   0.789   1.967   5.490  0.1784  0.6792 -0.0497
  809MOL0     C 9101   0.662   2.059   5.503  0.6786  0.6542 -1.3550
  809MOL0     C 9102   0.562   2.003   5.608  0.5438  0.2247  0.3440
  809MOL0     C 9103   0.423   2.039   5.572  0.3266  0.3697  0.0705
  809MOL0     O 9104   0.339   2.055   5.690  0.0031 -0.1232  0.5006
  809MOL0     C 9105   0.209   2.112   5.678  0.6523 -0.2108 -0.2885
  809MOL0     C 9106   0.136   2.116   5.556 -0.2354 -0.1012  0.0271
  809MOL0     C 9107   0.002   2.172   5.569  0.0738  0.1254  0.6766
  809MOL0     C 9108  -0.065   2.192   5.438  0.3868 -0.4169 -0.5163
  809MOL0     C 9109  -0.047   2.231   5.690 -0.2069  0.8522 -0.2110
  809MOL0     C 9110  -0.181   2.288   5.710 -0.3154 -0.4809 -0.2592
  809MOL0     O 9111  -0.250   2.329   5.600 -0.0371 -0.1478  0.8169
  809MOL0     C 9112  -0.374   2.383   5.596 -0.4133 -0.9518 -0.3228
  809MOL0     C 9113  -0.445   2.366   5.478  0.1351 -0.0820  0.3085
  809MOL0     C 9114  -0.580   2.395   5.463 -0.0584 -0.2092 -0.8647
  809MOL0     C 9115  -0.643   2.460   5.568  0.5523 -0.0017 -0.0132
  809MOL0     O 9116  -0.776   2.485   5.571 -0.6747 -0.0672 -1.3375
  809MOL0     C 9117  -0.843   2.516   5.454  0.1426 -0.4790  0.8145
  809MOL0     C 9118  -0.966   2.600   5.491 -0.4255 -0.7385 -0.6788
  809MOL0     C 9119  -1.093   2.516   5.519  0.4919  0.1867  0.6188
  809MOL0     C 9120  -1.207   2.607   5.562  0.4721 -0.0741  0.7682
  809MOL0     C 9121  -1.313   2.532   5.647  0.0977  0.1990 -0.2229
  809MOL0     C 9122  -1.380   2.415   5.570  0.1661  0.7185  0.1150
  809MOL0     C 9123  -1.458   2.463   5.447 -0.4025  0.1266  0.6093
  809MOL0     C 9124  -1.549   2.573   5.481  0.7471 -0.2161 -0.2002
  809MOL0    Cl 9125  -1.639   2.645   5.329  0.2081  0.3369 -0.0423
  809MOL0     C 9126  -0.578   2.475   5.688  0.0902 -0.1961  0.4622
  809MOL0     C 9127  -0.444   2.441   5.704 -0.3984 -0.1302 -0.1404
  809MOL0     O 9128  -0.219   2.290   5.828 -0.0449  0.1117  0.2346
  809MOL0     C 9129   0.038   2.221   5.802 -0.6657 -0.1367 -0.4305
  809MOL0     C 9130   0.167   2.169   5.798 -0.0765 -0.1968  0.1054
  809MOL0     N 9131   0.801   1.817   5.693  0.2262  0.0819  0.8490
  809MOL0     N 9132   0.898   1.803   5.784  0.7091 -0.1589  0.6901
  809MOL0     C 9133   2.033   1.425   5.900  0.3179  0.1675 -0.1336
  809MOL0     C 9134   2.161   1.408   5.840  0.1352  0.2743 -0.2580
  809MOL0     C 9135   2.517   1.547   5.578  0.3924  0.0812 -0.1501
  809MOL0     C 9136   2.585   1.442   5.626  0.0719  0.5903 -0.3006
  809MOL0     C 9137   2.727   1.445   5.625  0.5280 -0.4019 -0.7518
  809MOL0     C 9138   2.801   1.545   5.566 -0.4528 -0.4261  0.5797
  809MOL0     O 9139   2.940   1.562   5.556 -0.4043  0.1504 -0.2419
  809MOL0     C 9140   3.041   1.457   5.555 -0.2242 -0.1121  0.5430
  809MOL0     C 9141   3.096   1.409   5.688 -0.3740  0.3124 -0.2060
  809MOL0     C 9142   3.198   1.300   5.674  0.4380  0.0447  0.4881
  809MOL0     C 9143   3.331   1.355   5.633 -0.2572  0.2468 -0.2989
  809MOL0     C 9144   3.424   1.413   5.732 -0.4482 -0.3903  0.0673
  809MOL0     C 9145   3.499   1.453   5.815  0.8669 -0.3804 -0.1649
  809MOL0     C 9146   2.722   1.641   5.499 -0.2081  0.3296 -0.3147
  809MOL0     C 9147   2.587   1.652   5.512  0.5034  0.2992 -0.6829
  809MOL0     H 9148   2.072   1.578   5.553 -0.7146 -1.8302  0.2379
  809MOL0     H 9149   1.873   1.607   5.679 -0.2660  1.5418  0.9633
  809MOL0     H 9150   1.742   1.335   5.975  3.3498 -1.0992  1.5548
  809MOL0     H 9151   1.825   1.458   6.077 -0.8928 -0.6477  0.3427
  809MOL0     H 9152   1.550   1.486   5.937 -2.0291  1.0422  1.4806
  809MOL0     H 9153   1.572   1.442   6.113 -3.5597 -1.1358 -1.1764
  809MOL0     H 9154   1.697   1.652   6.149  1.0426 -4.4901 -0.5905
  809MOL0     H 9155   1.680   1.698   5.979  0.5193 -0.2628 -0.0856
  809MOL0     H 9156   1.456   1.667   6.180 -1.5363  0.5263 -0.1788
  809MOL0     H 9157   1.521   1.822   6.114 -1.9088 -0.2123  1.3457
  809MOL0     H 9158   1.448   1.713   5.881  2.0987  0.1014  0.7468
  809MOL0     H 9159   1.349   1.612   5.981  1.5770 -0.6848 -0.8292
  809MOL0     H 9160   1.247   1.822   6.099 -1.3962  1.7708  0.2142
  809MOL0     H 9161   1.329   1.918   5.988 -0.6131  0.5153 -0.0677
  809MOL0     H 9162   1.222   1.728   5.804  0.5283  0.2077  0.2180
  809MOL0     H 9163   1.118   1.713   5.940  0.0313 -1.2755 -1.9883
  809MOL0     H 9164   1.192   1.959   5.771 -1.1941  2.0145 -0.5903
  809MOL0     H 9165   1.094   1.974   5.927 -1.9540 -2.8984  1.3498
  809MOL0     H 9166   1.033   2.049   5.618 -1.4518  0.2769 -3.3340
  809MOL0     H 9167   0.861   2.011   5.421  1.0114  3.7728  2.5298
  809MOL0     H 9168   0.749   1.884   5.432 -1.9958  1.3906  0.2936
  809MOL0     H 9169   0.619   2.067   5.403 -0.9831 -3.2403 -1.1203
  809MOL0     H 9170   0.690   2.161   5.528 -1.5602  1.5995 -2.4133
  809MOL0     H 9171   0.601   2.042   5.703  2.6387 -3.9891  1.4485
  809MOL0     H 9172   0.561   1.897   5.633  1.1295  0.4454  1.3674
  809MOL0     H 9173   0.389   1.953   5.513  1.0700 -0.8603  1.3479
  809MOL0     H 9174   0.429   2.131   5.513  1.9798  2.3731  3.0944
  809MOL0     H 9175   0.189   2.061   5.479 -0.1112 -1.1047  0.8021
  809MOL0     H 9176  -0.095   2.295   5.415 -0.7737 -0.7878 -0.7683
  809MOL0     H 9177   0.009   2.181   5.358 -0.3486  2.6076 -1.7818
  809MOL0     H 9178  -0.151   2.124   5.428 -1.9977  2.5237 -1.6809
  809MOL0     H 9179  -0.395   2.308   5.401 -0.1072  0.8918 -0.6090
  809MOL0     H 9180  -0.623   2.372   5.366 -0.4882 -3.0689 -0.0839
  809MOL0     H 9181  -0.780   2.572   5.385 -2.5458  0.7372 -0.7909
  809MOL0     H 9182  -0.866   2.421   5.406  0.2045  0.1700 -0.5471
  809MOL0     H 9183  -0.945   2.660   5.579 -0.7680 -1.1710 -0.2956
  809MOL0     H 9184  -0.984   2.672   5.410  0.1494  1.3495  0.9632
  809MOL0     H 9185  -1.085   2.450   5.606 -1.6182 -2.8123 -1.2965
  809MOL0     H 9186  -1.118   2.453   5.433  0.9831 -3.3364  2.8571
  809MOL0     H 9187  -1.182   2.690   5.628 -3.4264  0.7209  1.4982
  809MOL0     H 9188  -1.260   2.647   5.475 -1.8901 -2.6755  0.8527
  809MOL0     H 9189  -1.388   2.599   5.691  0.5384 -1.0676  2.6183
  809MOL0     H 9190  -1.267   2.484   5.733 -0.2229  1.1575  0.5047
  809MOL0     H 9191  -1.301   2.344   5.546 -0.5456  0.3361 -1.2122
  809MOL0     H 9192  -1.453   2.369   5.637 -0.9470  1.8221 -0.3007
  809MOL0     H 9193  -1.502   2.374   5.402  0.1832 -0.4435  1.1462
  809MOL0     H 9194  -1.383   2.509   5.382  1.9656 -0.3346  2.8676
  809MOL0     H 9195  -1.491   2.656   5.522  1.3279 -1.0205  0.6447
  809MOL0     H 9196  -1.616   2.524   5.553 -1.1929 -2.3620 -3.2144
  809MOL0     H 9197  -0.648   2.492   5.769 -1.2077 -0.0579 -0.6634
  809MOL0     H 9198  -0.389   2.445   5.797  2.3145 -0.6569 -1.6423
  809MOL0     H 9199   0.000   2.256   5.898  1.9123  1.3493  0.1596
  809MOL0     H 9200   0.237   2.167   5.881  0.3610  0.4819 -0.2368
  809MOL0     H 9201   2.020   1.385   6.000  0.9377  1.2845  0.4135
  809MOL0     H 9202   2.235   1.351   5.896  0.2103  1.2006  0.6083
  809MOL0     H 9203   2.532   1.353   5.659  0.1800 -0.6720 -3.2348
  809MOL0     H 9204   2.777   1.362   5.676 -2.1435 -0.3507  2.2655
  809MOL0     H 9205   2.982   1.369   5.528  1.9108 -1.1819 -0.9505
  809MOL0     H 9206   3.120   1.477   5.482  0.1898  2.3261  1.5632
  809MOL0     H 9207   3.015   1.372   5.752 -0.1021 -3.6318 -1.8704
  809MOL0     H 9208   3.135   1.491   5.749 -2.6437  0.6077  0.9512
  809MOL0     H 9209   3.152   1.236   5.598  0.2087 -0.7921  1.3171
  809MOL0     H 9210   3.210   1.242   5.766 -1.8766 -3.6451 -1.3024
  809MOL0     H 9211   3.322   1.444   5.570 -0.8912  0.7702  0.4876
  809MOL0     H 9212   3.386   1.279   5.578  3.3636  1.1452  1.7684
  809MOL0     H 9213   3.576   1.498   5.874 -0.0222  0.0237  0.7186
  809MOL0     H 9214   2.759   1.714   5.427 -0.1136 -2.0942 -2.9439
  809MOL0     H 9215   2.540   1.735   5.461  0.0062 -1.0455 -2.5053
  810MOL0     O 9216  10.379   1.769   9.367 -0.3465 -0.6078 -0.6043
  810MOL0     C 9217  10.427   1.862   9.292 -0.2266  0.8280  0.2699
  810MOL0     O 9218  10.373   1.904   9.173  0.8048 -0.2453  0.0630
  810MOL0     C 9219  10.246   1.876   9.125  0.1906  0.4991 -0.1977
  810MOL0     C 9220  10.172   1.974   9.054  0.0187  0.4900  0.1068
  810MOL0     C 9221  10.053   1.949   8.995 -0.7606 -0.0855 -0.2853
  810MOL0     C 9222   9.989   1.825   9.013 -0.6554 -0.3812 -0.1791
  810MOL0     O 9223   9.863   1.789   8.966  0.0385 -0.6295  0.1679
  810MOL0     C 9224   9.758   1.890   8.971  0.0062  0.3068  0.0918
  810MOL0     C 9225   9.715   1.922   9.116  0.2883 -0.2103 -0.1034
  810MOL0     C 9226   9.652   1.808   9.198  0.1770 -0.2022 -0.4888
  810MOL0     C 9227   9.497   1.806   9.177  0.3192  0.0620 -0.2966
  810MOL0     C 9228   9.437   1.713   9.289 -0.0222 -0.3371  0.2874
  810MOL0     C 9229   9.289   1.740   9.308 -0.2440 -0.0529 -0.7530
  810MOL0     C 9230   9.262   1.880   9.386  0.3977  0.7869 -0.5162
  810MOL0     C 9231   9.123   1.935   9.377 -0.0221 -0.3017 -0.1688
  810MOL0     N 9232   9.074   2.040   9.480  0.1387  1.0095  0.0907
  810MOL0     C 9233   9.142   2.117   9.568  0.4442 -0.5145  0.7789
  810MOL0     C 9234   9.052   2.162   9.656  1.2290 -0.4414  0.2436
  810MOL0     C 9235   9.070   2.253   9.773 -0.8209  0.0527 -0.6127
  810MOL0     C 9236   8.953   2.263   9.876 -0.2187 -0.0637  0.0095
  810MOL0     C 9237   8.938   2.135   9.964  0.1261  0.0390  0.1501
  810MOL0     C 9238   8.829   2.171  10.062 -1.2538 -0.4100 -0.3764
  810MOL0     O 9239   8.797   2.052  10.136  0.4573 -0.4400 -0.2310
  810MOL0     C 9240   8.664   2.010  10.148 -0.2539  0.4576 -0.2723
  810MOL0     C 9241   8.626   1.894  10.084 -0.1078 -0.1527 -0.0874
  810MOL0     C 9242   8.489   1.841  10.087 -0.0970  0.6491  0.4347
  810MOL0     C 9243   8.452   1.714  10.003  0.4033 -0.6918  0.0961
  810MOL0     C 9244   8.393   1.919  10.157 -0.3037 -0.5219 -0.2128
  810MOL0     C 9245   8.247   1.897  10.164 -0.2653  0.9616  0.5496
  810MOL0     O 9246   8.218   1.767  10.187  0.4803  0.8369 -0.3304
  810MOL0     C 9247   8.088   1.723  10.184 -1.1753 -0.3066  0.2430
  810MOL0     C 9248   8.065   1.592  10.148  0.1350  0.0593 -0.9777
  810MOL0     C 9249   7.930   1.546  10.130 -0.1971 -0.2846 -0.5376
  810MOL0     C 9250   7.810   1.616  10.176 -0.6920  0.0893  0.4422
  810MOL0     O 9251   7.684   1.562  10.183  0.1361  0.1102  0.1171
  810MOL0     C 9252   7.564   1.639  10.160 -0.8014  0.1683  0.3130
  810MOL0     C 9253   7.471   1.561  10.071  0.0928 -0.0259 -0.2428
  810MOL0     C 9254   7.347   1.645  10.049 -0.0746  0.0380 -0.1355
  810MOL0     C 9255   7.268   1.692  10.180  0.0166  0.3326 -0.5841
  810MOL0     C 9256   7.125   1.750  10.137 -0.7559  0.2861 -0.0083
  810MOL0     C 9257   7.021   1.640  10.109 -0.2489  0.3360 -0.1485
  810MOL0     C 9258   6.887   1.709  10.069  0.1092 -0.3545 -0.1970
  810MOL0     C 9259   6.811   1.756  10.193 -0.1309 -0.8222  0.3175
  810MOL0    Cl 9260   6.645   1.770  10.141  0.0643  0.6214  0.3332
  810MOL0     C 9261   7.846   1.742  10.234 -0.4066 -0.4361 -0.1897
  810MOL0     C 9262   7.973   1.794  10.234 -0.3178  0.9959  0.4516
  810MOL0     O 9263   8.163   1.986  10.152 -0.0431  0.5180 -0.2441
  810MOL0     C 9264   8.436   2.039  10.221  0.1791  0.0769  0.0969
  810MOL0     C 9265   8.571   2.082  10.214  0.0790 -0.4905 -0.1145
  810MOL0     N 9266   8.926   2.122   9.617 -0.8837 -0.5693  0.2009
  810MOL0     N 9267   8.941   2.051   9.511 -0.1007 -0.6702  0.3802
  810MOL0     C 9268  10.050   1.733   9.097 -0.2876 -0.1456 -0.8975
  810MOL0     C 9269  10.174   1.755   9.158  0.1917  0.4756  1.5023
  810MOL0     C 9270  10.525   1.948   9.357  0.5774 -0.0501 -0.5828
  810MOL0     C 9271  10.569   2.065   9.292  0.3079 -0.1462  0.5474
  810MOL0     C 9272  10.659   2.152   9.359  0.3781  0.1133 -0.2286
  810MOL0     C 9273  10.712   2.118   9.485  0.0041 -0.4774 -0.3175
  810MOL0     O 9274  10.806   2.204   9.533  0.4452 -0.0174 -0.3006
  810MOL0     C 9275  10.861   2.183   9.668  0.3459  0.1995 -0.1260
  810MOL0     C 9276  10.983   2.088   9.664  0.6100 -0.4496  0.6622
  810MOL0     C 9277  11.063   2.097   9.798  0.0247  0.5978  1.0034
  810MOL0     C 9278  10.991   2.122   9.930  0.1073  0.0058 -0.0951
  810MOL0     C 9279  10.902   2.020   9.966  0.6097  0.8780  1.2122
  810MOL0     C 9280  10.809   1.933   9.988 -0.1947  0.6904 -0.6798
  810MOL0     C 9281  10.667   1.999   9.550 -0.9617 -0.1403 -0.3590
  810MOL0     C 9282  10.581   1.904   9.489 -0.4760  0.2263  0.5280
  810MOL0     H 9283  10.219   2.072   9.054 -0.0640  0.5382  1.0007
  810MOL0     H 9284  10.006   2.028   8.936 -0.1526 -0.8011 -1.7686
  810MOL0     H 9285   9.792   1.971   8.906  0.6201 -1.0323 -1.3118
  810MOL0     H 9286   9.670   1.849   8.920  0.7883 -1.5466  0.1644
  810MOL0     H 9287   9.801   1.947   9.180  1.2023 -1.5811 -0.7350
  810MOL0     H 9288   9.649   2.009   9.114 -0.6985 -0.9599 -1.4232
  810MOL0     H 9289   9.695   1.714   9.163  0.4790 -0.7879  1.3644
  810MOL0     H 9290   9.678   1.808   9.304 -1.5920 -1.0947 -0.0048
  810MOL0     H 9291   9.447   1.902   9.165 -0.3600 -0.2468 -0.0253
  810MOL0     H 9292   9.470   1.758   9.083 -1.3627 -0.0828  0.2165
  810MOL0     H 9293   9.451   1.608   9.263 -0.2672 -0.4610  0.6466
  810MOL0     H 9294   9.489   1.740   9.381 -0.3753 -0.6870  0.5920
  810MOL0     H 9295   9.246   1.740   9.208 -0.4099 -2.0461 -0.7215
  810MOL0     H 9296   9.244   1.653   9.357 -1.3921  0.5650 -0.6648
  810MOL0     H 9297   9.288   1.858   9.490  1.7201  1.1645 -0.7465
  810MOL0     H 9298   9.338   1.951   9.350  3.2574 -3.0035 -2.6695
  810MOL0     H 9299   9.054   1.851   9.372  1.1199 -1.1901 -2.2437
  810MOL0     H 9300   9.115   1.970   9.273  0.1696 -3.8997 -1.5263
  810MOL0     H 9301   9.249   2.139   9.575  0.4017  0.0767 -0.1629
  810MOL0     H 9302   9.160   2.237   9.833 -1.8109 -0.2623  0.8270
  810MOL0     H 9303   9.076   2.348   9.718  0.1225  0.2036 -0.2609
  810MOL0     H 9304   8.857   2.274   9.824 -1.9809 -1.2424  2.8049
  810MOL0     H 9305   8.979   2.350   9.938 -2.5361  1.8508 -1.5009
  810MOL0     H 9306   9.026   2.090  10.013 -0.0332 -1.8340 -1.1763
  810MOL0     H 9307   8.913   2.057   9.892  1.2461  1.3226 -1.7409
  810MOL0     H 9308   8.734   2.212  10.025 -2.3124 -0.2807  2.2209
  810MOL0     H 9309   8.869   2.246  10.131 -0.8529 -1.3385  0.4093
  810MOL0     H 9310   8.702   1.829  10.043  1.7243 -1.3314  4.5400
  810MOL0     H 9311   8.520   1.685   9.922 -2.5058 -3.8093 -1.4910
  810MOL0     H 9312   8.453   1.632  10.074 -0.9337  1.3188  2.6264
  810MOL0     H 9313   8.351   1.719   9.961  0.6126  0.9655 -0.2993
  810MOL0     H 9314   8.146   1.533  10.105  0.1086  0.8419 -2.1516
  810MOL0     H 9315   7.910   1.443  10.103 -4.2407  0.6055 -1.4763
  810MOL0     H 9316   7.530   1.671  10.258  1.7180 -0.0594  1.3333
  810MOL0     H 9317   7.599   1.735  10.119  0.5072 -0.5703 -0.3896
  810MOL0     H 9318   7.525   1.547   9.977 -2.6395  0.0308 -1.9457
  810MOL0     H 9319   7.458   1.463  10.119 -1.9042 -0.0948 -0.8194
  810MOL0     H 9320   7.278   1.601   9.976 -0.6434 -0.1896  0.5310
  810MOL0     H 9321   7.378   1.740  10.005  0.8286 -0.4780 -0.6377
  810MOL0     H 9322   7.244   1.611  10.249 -2.4275  0.7124 -0.8827
  810MOL0     H 9323   7.326   1.762  10.241  0.4603  1.5299 -2.2881
  810MOL0     H 9324   7.155   1.808  10.049  1.2250  0.9262  1.0106
  810MOL0     H 9325   7.078   1.814  10.213 -0.3641  0.2454  0.2760
  810MOL0     H 9326   7.058   1.570  10.033  0.1617 -1.0394  1.2593
  810MOL0     H 9327   7.032   1.573  10.195  0.8411 -2.3325 -2.1937
  810MOL0     H 9328   6.831   1.622  10.032  1.5178 -0.9538 -1.0068
  810MOL0     H 9329   6.917   1.793  10.007  0.4778  0.8813  1.5897
  810MOL0     H 9330   6.855   1.846  10.237  1.2273 -1.5341  0.4944
  810MOL0     H 9331   6.822   1.676  10.267 -0.3991 -1.6145 -0.4840
  810MOL0     H 9332   7.769   1.802  10.283  0.1206  0.7999 -0.8331
  810MOL0     H 9333   7.998   1.881  10.293 -1.6313 -0.3307  3.1532
  810MOL0     H 9334   8.364   2.107  10.264  1.5386  1.2611  0.5934
  810MOL0     H 9335   8.607   2.179  10.248  0.7370 -1.2464  1.4473
  810MOL0     H 9336   9.999   1.641   9.126  1.9748 -0.2335  3.6411
  810MOL0     H 9337  10.225   1.671   9.202  2.0197 -0.0093 -1.2625
  810MOL0     H 9338  10.543   2.083   9.188  0.9202 -0.5340  0.3246
  810MOL0     H 9339  10.707   2.237   9.313  1.2555 -0.1078  0.2619
  810MOL0     H 9340  10.891   2.281   9.707  1.1558  0.0867 -0.4494
  810MOL0     H 9341  10.790   2.136   9.736  0.0191 -2.1410 -1.9343
  810MOL0     H 9342  11.049   2.107   9.579 -1.0001 -0.9214 -0.7416
  810MOL0     H 9343  10.950   1.984   9.653  0.5088 -0.2978 -0.5547
  810MOL0     H 9344  11.143   2.173   9.798  1.4162 -0.7972 -0.1202
  810MOL0     H 9345  11.119   2.004   9.811 -0.0673  0.1342 -1.4870
  810MOL0     H 9346  10.942   2.219   9.926 -2.1249 -1.0931 -1.2605
  810MOL0     H 9347  11.065   2.137  10.009  1.9571  1.5445 -1.9964
  810MOL0     H 9348  10.734   1.865  10.023 -1.8541  2.2433 -1.0412
  810MOL0     H 9349  10.709   1.968   9.645 -1.6494  3.0272  1.1238
  810MOL0     H 9350  10.560   1.814   9.545  2.1253  0.0482  1.3645
  811MOL0     O 9351   8.745   5.371   9.948  0.1850  0.2183  0.7952
  811MOL0     C 9352   8.795   5.470  10.001  0.5693 -0.0627 -0.6046
  811MOL0     O 9353   8.863   5.481  10.119 -0.3545  0.7737 -0.0409
  811MOL0     C 9354   8.907   5.372  10.189  0.2604 -0.6362  0.5866
  811MOL0     C 9355   8.912   5.377  10.328  0.2181 -0.4216  0.4023
  811MOL0     C 9356   8.958   5.277  10.406 -0.0969  0.1690  0.4436
  811MOL0     C 9357   9.003   5.160  10.341 -0.8106  0.5978  0.5603
  811MOL0     O 9358   9.048   5.048  10.410 -0.0248  0.6537 -0.0043
  811MOL0     C 9359   8.963   5.002  10.515 -0.8156  0.3448 -0.2674
  811MOL0     C 9360   9.020   4.882  10.588 -0.0041  0.5364 -0.0727
  811MOL0     C 9361   8.988   4.749  10.514 -0.1998 -0.4855 -0.6863
  811MOL0     C 9362   9.084   4.628  10.521  0.4897 -1.1949  0.1885
  811MOL0     C 9363   9.025   4.492  10.472  0.8280  0.2573 -0.6247
  811MOL0     C 9364   9.097   4.371  10.532  0.4498  0.8578 -0.2137
  811MOL0     C 9365   9.249   4.363  10.487  0.0764 -0.1399 -0.7936
  811MOL0     C 9366   9.326   4.232  10.523  0.2837  0.3221 -0.1908
  811MOL0     N 9367   9.297   4.202  10.665  0.0583 -0.8568  0.1381
  811MOL0     C 9368   9.381   4.240  10.760  0.3478  0.2498  0.1956
  811MOL0     C 9369   9.355   4.166  10.869 -0.3147  0.2804 -0.1433
  811MOL0     C 9370   9.434   4.172  10.999 -0.3997 -0.5261  0.5444
  811MOL0     C 9371   9.441   4.040  11.072  0.4058  0.0546  0.0635
  811MOL0     C 9372   9.314   4.020  11.149  0.9620 -0.2248 -0.3143
  811MOL0     C 9373   9.280   3.878  11.172  0.3580 -0.0427  0.4104
  811MOL0     O 9374   9.144   3.870  11.230  0.9867  0.0183  0.0938
  811MOL0     C 9375   9.026   3.885  11.154  1.0423  0.7746 -0.4866
  811MOL0     C 9376   9.026   3.889  11.015  0.6297  0.9217 -0.6936
  811MOL0     C 9377   8.911   3.875  10.939 -0.9799 -1.0688  0.1886
  811MOL0     C 9378   8.937   3.882  10.790  0.1314  0.0050 -0.5874
  811MOL0     C 9379   8.783   3.868  11.001 -0.2832  0.4389 -1.0701
  811MOL0     C 9380   8.657   3.858  10.929 -1.1534  0.2487  0.9591
  811MOL0     O 9381   8.543   3.874  10.997 -0.1371 -0.7079  0.1213
  811MOL0     C 9382   8.435   3.809  10.952  0.0325  1.4339 -0.6084
  811MOL0     C 9383   8.411   3.676  10.995  0.0574 -0.4649  0.2850
  811MOL0     C 9384   8.293   3.603  10.960  0.3387  0.1586 -0.3427
  811MOL0     C 9385   8.198   3.667  10.879 -0.7830 -0.1262 -0.2740
  811MOL0     O 9386   8.083   3.597  10.857  0.0435  0.4539  0.3621
  811MOL0     C 9387   7.974   3.680  10.813 -0.0826  0.9131 -0.0910
  811MOL0     C 9388   7.847   3.597  10.817  0.2633  0.6634  0.2008
  811MOL0     C 9389   7.726   3.678  10.782 -0.3455  0.7622 -0.1490
  811MOL0     C 9390   7.621   3.660  10.902 -0.4280  0.0720  0.9236
  811MOL0     C 9391   7.473   3.693  10.859 -1.0720 -0.4982  0.0291
  811MOL0     C 9392   7.453   3.851  10.844 -0.3763 -0.1662 -0.2527
  811MOL0     C 9393   7.304   3.880  10.798  1.2574 -0.1480 -0.0854
  811MOL0     C 9394   7.271   4.006  10.713  0.1964 -0.0433  0.1710
  811MOL0    Cl 9395   7.314   3.969  10.546  0.0019 -0.0520  0.0215
  811MOL0     C 9396   8.222   3.807  10.845  0.3279  0.4088  0.3303
  811MOL0     C 9397   8.344   3.870  10.871 -0.4271  0.4242 -0.1672
  811MOL0     O 9398   8.663   3.819  10.810 -0.1723  0.1859 -0.4097
  811MOL0     C 9399   8.788   3.872  11.143  0.5006  0.4862  1.4465
  811MOL0     C 9400   8.901   3.875  11.215  0.1489  0.5012  0.0272
  811MOL0     N 9401   9.256   4.077  10.833  0.4337 -0.4240  0.1439
  811MOL0     N 9402   9.215   4.107  10.711  0.3861  0.3036  0.0373
  811MOL0     C 9403   9.011   5.150  10.204 -0.4457  0.1674 -1.0907
  811MOL0     C 9404   8.963   5.255  10.129 -0.2675  0.3958  0.5519
  811MOL0     C 9405   8.765   5.600   9.945 -0.5293  0.1672  0.4412
  811MOL0     C 9406   8.705   5.613   9.813 -0.7075 -0.0603 -0.1289
  811MOL0     C 9407   8.690   5.737   9.749 -0.2104 -0.2774  0.3027
  811MOL0     C 9408   8.731   5.857   9.804  0.3764 -0.1841 -0.8748
  811MOL0     O 9409   8.692   5.974   9.738 -0.3042  0.5412 -0.2675
  811MOL0     C 9410   8.718   6.106   9.797  0.2300  0.4385 -0.3897
  811MOL0     C 9411   8.868   6.135   9.775 -0.8450 -0.3761 -0.1969
  811MOL0     C 9412   8.885   6.208   9.650  0.4551 -0.7608  0.0090
  811MOL0     C 9413   9.042   6.234   9.619 -1.3268  0.2183  0.2560
  811MOL0     C 9414   9.060   6.342   9.522  0.0303  0.0448 -0.4130
  811MOL0     C 9415   9.074   6.437   9.449  0.7018  0.7119  0.0005
  811MOL0     C 9416   8.788   5.845   9.931 -0.2239 -0.0724 -0.0512
  811MOL0     C 9417   8.805   5.716  10.003  0.5476 -0.1996 -0.1567
  811MOL0     H 9418   8.866   5.464  10.372  3.0446  1.0675  0.6497
  811MOL0     H 9419   8.964   5.277  10.514 -2.1752 -1.4443  0.6082
  811MOL0     H 9420   8.946   5.081  10.589 -2.3771  1.6181 -1.8897
  811MOL0     H 9421   8.866   4.978  10.471  0.0853  0.5007 -2.5057
  811MOL0     H 9422   9.125   4.901  10.608 -0.2574  1.6436  0.2923
  811MOL0     H 9423   8.975   4.888  10.687  1.8137  1.5530  0.7358
  811MOL0     H 9424   8.898   4.714  10.565  1.9659 -0.5051  3.6315
  811MOL0     H 9425   8.972   4.773  10.409  3.8227  2.4697 -0.8759
  811MOL0     H 9426   9.171   4.650  10.459 -0.8248 -2.7496 -2.3519
  811MOL0     H 9427   9.116   4.620  10.626  1.0722 -0.3977  0.0770
  811MOL0     H 9428   8.920   4.491  10.501  1.0458  1.7486  0.3677
  811MOL0     H 9429   9.032   4.499  10.363 -1.9658  1.3041 -0.8274
  811MOL0     H 9430   9.079   4.370  10.640 -1.1766  3.3118 -0.3903
  811MOL0     H 9431   9.056   4.279  10.489  2.5681  0.0189 -0.5841
  811MOL0     H 9432   9.253   4.377  10.379 -0.5538 -2.7264 -1.2353
  811MOL0     H 9433   9.305   4.448  10.527  0.3280 -1.1328  1.0692
  811MOL0     H 9434   9.432   4.239  10.498  0.7985 -0.2992  1.6920
  811MOL0     H 9435   9.278   4.156  10.461  1.0581 -0.9298  0.7015
  811MOL0     H 9436   9.467   4.307  10.753  2.6156 -2.3671  1.2407
  811MOL0     H 9437   9.536   4.206  10.980 -0.6932 -0.3427 -0.7708
  811MOL0     H 9438   9.384   4.237  11.072 -1.8087 -0.2013 -0.6610
  811MOL0     H 9439   9.524   4.017  11.138  1.4904  1.1438 -0.8731
  811MOL0     H 9440   9.452   3.965  10.992  0.7207  0.3371 -0.1618
  811MOL0     H 9441   9.232   4.061  11.089  1.1691 -0.4237 -0.7406
  811MOL0     H 9442   9.306   4.071  11.245  0.5019  2.6179 -1.7569
  811MOL0     H 9443   9.347   3.831  11.245  0.0750 -0.8715  0.1458
  811MOL0     H 9444   9.294   3.827  11.076  3.3057 -0.7077  1.0845
  811MOL0     H 9445   9.120   3.888  10.959  0.0277  0.5335 -1.7285
  811MOL0     H 9446   9.043   3.894  10.764  0.3459 -1.6327 -0.5980
  811MOL0     H 9447   8.906   3.788  10.742 -5.2288  1.5052 -0.7145
  811MOL0     H 9448   8.878   3.957  10.737 -1.1753 -0.7917 -0.3128
  811MOL0     H 9449   8.470   3.619  11.066 -1.7118 -1.5203  0.9734
  811MOL0     H 9450   8.267   3.499  10.976 -4.5728  1.2132  0.0901
  811MOL0     H 9451   7.961   3.768  10.876  1.6372 -0.3276  2.1456
  811MOL0     H 9452   7.992   3.697  10.706 -2.6927 -3.0515 -1.4185
  811MOL0     H 9453   7.872   3.515  10.750 -0.7018 -1.8879  2.7585
  811MOL0     H 9454   7.826   3.560  10.918 -0.4573  1.2459  0.2768
  811MOL0     H 9455   7.684   3.629  10.694 -0.3991 -3.0048  1.7386
  811MOL0     H 9456   7.752   3.780  10.755 -1.5241  1.5233  1.4226
  811MOL0     H 9457   7.626   3.555  10.933  1.8097  0.3342  1.6397
  811MOL0     H 9458   7.657   3.726  10.982 -0.0559 -0.6085  1.3364
  811MOL0     H 9459   7.404   3.648  10.931 -1.8110 -1.2163 -1.1061
  811MOL0     H 9460   7.446   3.660  10.758  0.0912  1.0827 -0.8468
  811MOL0     H 9461   7.467   3.884  10.948 -0.4138 -0.8205 -0.0322
  811MOL0     H 9462   7.527   3.891  10.775 -0.8906  0.4476 -0.4626
  811MOL0     H 9463   7.251   3.906  10.890 -0.0950 -0.7030 -0.6862
  811MOL0     H 9464   7.246   3.793  10.766 -0.3357  0.2435  1.5682
  811MOL0     H 9465   7.324   4.099  10.733 -1.2969  0.9536 -0.2984
  811MOL0     H 9466   7.163   4.013  10.728 -0.3118 -4.2332 -0.0600
  811MOL0     H 9467   8.141   3.867  10.807 -0.3712 -0.7168  0.0078
  811MOL0     H 9468   8.346   3.978  10.859  2.1019  0.3896 -0.8487
  811MOL0     H 9469   8.691   3.874  11.190 -1.1068  0.2104 -1.6262
  811MOL0     H 9470   8.886   3.857  11.321  1.7264 -0.9031  0.0660
  811MOL0     H 9471   9.053   5.063  10.156 -0.2148 -2.3305  3.1534
  811MOL0     H 9472   8.963   5.251  10.020 -0.7914  3.4413  0.3692
  811MOL0     H 9473   8.673   5.526   9.757  0.6490 -0.7525  0.1446
  811MOL0     H 9474   8.643   5.725   9.652  0.4265  2.6943 -0.4675
  811MOL0     H 9475   8.641   6.167   9.749 -2.0709 -2.2221 -0.3350
  811MOL0     H 9476   8.701   6.107   9.905 -0.2919 -1.1376 -0.4349
  811MOL0     H 9477   8.928   6.046   9.796  0.5871  0.7977  0.9977
  811MOL0     H 9478   8.894   6.208   9.853 -0.1276  1.1743 -1.8185
  811MOL0     H 9479   8.837   6.306   9.661  0.9249 -0.3067 -1.7400
  811MOL0     H 9480   8.840   6.162   9.562 -0.4575 -0.2716  0.2121
  811MOL0     H 9481   9.092   6.138   9.599 -3.3346 -0.5678 -1.3865
  811MOL0     H 9482   9.080   6.264   9.717 -1.2759 -1.1589  0.6832
  811MOL0     H 9483   9.088   6.519   9.382  2.5942 -0.7135 -1.4490
  811MOL0     H 9484   8.818   5.937   9.982 -4.7164  2.3158 -1.1133
  811MOL0     H 9485   8.857   5.715  10.098 -1.2905  1.1576  0.9302
  812MOL0     O 9486   5.017  10.535   1.295 -0.4900 -0.5674 -0.3981
  812MOL0     C 9487   5.030  10.609   1.197  0.3439  0.1469  0.4221
  812MOL0     O 9488   4.932  10.676   1.129  0.6225  0.1450 -0.1142
  812MOL0     C 9489   4.807  10.635   1.171 -0.1813  0.2181 -0.0219
  812MOL0     C 9490   4.740  10.526   1.105 -0.2063  0.6837 -0.4219
  812MOL0     C 9491   4.621  10.477   1.157 -0.3897  0.2014 -0.2636
  812MOL0     C 9492   4.560  10.528   1.271  1.0719 -0.6844 -0.1354
  812MOL0     O 9493   4.440  10.479   1.316 -0.0006 -0.5277  0.0042
  812MOL0     C 9494   4.457  10.401   1.433 -0.1775  0.1730  0.1525
  812MOL0     C 9495   4.321  10.347   1.498  0.9871  0.8868 -0.0845
  812MOL0     C 9496   4.203  10.450   1.479 -0.0935 -1.3012  0.1669
  812MOL0     C 9497   4.210  10.567   1.573 -0.1684  0.5250  0.6243
  812MOL0     C 9498   4.095  10.666   1.541  0.4488  0.7929 -0.1166
  812MOL0     C 9499   4.094  10.790   1.625 -1.1294 -0.1246  0.7786
  812MOL0     C 9500   3.947  10.838   1.641 -0.4825  0.0646  0.6082
  812MOL0     C 9501   3.946  10.984   1.676  0.0555  0.0988  0.0822
  812MOL0     N 9502   3.819  11.021   1.727 -0.3804  0.2127 -0.0322
  812MOL0     C 9503   3.701  11.036   1.662 -0.4984 -0.3807 -0.0705
  812MOL0     C 9504   3.624  11.110   1.750 -0.7118 -0.4613  0.1294
  812MOL0     C 9505   3.484  11.150   1.730 -0.0201 -0.7225  0.2195
  812MOL0     C 9506   3.379  11.083   1.822  0.0837  0.5625  0.6204
  812MOL0     C 9507   3.241  11.115   1.775  0.0562  0.3806 -0.1528
  812MOL0     C 9508   3.135  11.029   1.838 -1.2196 -0.1011 -0.2651
  812MOL0     O 9509   3.021  11.052   1.756  0.5823 -0.3402  0.2564
  812MOL0     C 9510   2.915  10.976   1.766 -0.0439 -0.7485  0.1624
  812MOL0     C 9511   2.898  10.874   1.855  0.1936 -0.4854  0.7756
  812MOL0     C 9512   2.781  10.808   1.876 -0.1234 -0.4321 -0.2701
  812MOL0     C 9513   2.781  10.691   1.977  0.3400 -0.3162  0.3575
  812MOL0     C 9514   2.673  10.837   1.788 -0.0520 -0.5630 -0.6392
  812MOL0     C 9515   2.533  10.768   1.800  0.1798 -0.0214  1.4401
  812MOL0     O 9516   2.455  10.783   1.691 -0.3580 -0.4028  0.9196
  812MOL0     C 9517   2.349  10.693   1.678  0.3266  0.0324  0.5182
  812MOL0     C 9518   2.219  10.723   1.697  1.2110  0.6159 -0.4731
  812MOL0     C 9519   2.122  10.636   1.656 -0.2699 -1.1018 -0.0041
  812MOL0     C 9520   2.153  10.508   1.602 -0.4264  0.1720  0.9668
  812MOL0     O 9521   2.044  10.423   1.575  0.7852  0.4956 -0.3752
  812MOL0     C 9522   2.060  10.284   1.623 -0.0987  0.7787 -0.1205
  812MOL0     C 9523   1.925  10.221   1.647 -0.1572 -1.1216  0.1150
  812MOL0     C 9524   1.855  10.276   1.769  0.0098  0.1486 -0.2565
  812MOL0     C 9525   1.716  10.220   1.793  0.0400 -0.6198 -0.0462
  812MOL0     C 9526   1.637  10.329   1.865 -0.2348 -0.3850  0.2235
  812MOL0     C 9527   1.508  10.264   1.919 -0.8341 -0.6799 -0.2266
  812MOL0     C 9528   1.417  10.359   1.989  0.8932 -0.6749 -0.3462
  812MOL0     C 9529   1.270  10.358   1.939 -0.0963 -0.4423  0.0669
  812MOL0    Cl 9530   1.258  10.466   1.804 -0.1831  0.2220  0.2332
  812MOL0     C 9531   2.294  10.471   1.595  0.3806  1.0833  0.2159
  812MOL0     C 9532   2.387  10.565   1.627 -0.5306 -0.3720 -0.7113
  812MOL0     O 9533   2.514  10.692   1.894  0.4608  0.3784 -0.1305
  812MOL0     C 9534   2.692  10.940   1.689 -0.3603  0.5154 -0.1243
  812MOL0     C 9535   2.816  11.001   1.670  0.3294  0.5029  0.2353
  812MOL0     N 9536   3.684  11.121   1.868 -0.1421  0.5846 -0.6111
  812MOL0     N 9537   3.803  11.064   1.856  0.2645  0.2702  0.1908
  812MOL0     C 9538   4.617  10.637   1.332 -0.7645 -0.0662 -0.3803
  812MOL0     C 9539   4.736  10.699   1.276  0.0418  0.1038  0.0362
  812MOL0     C 9540   5.169  10.635   1.154  0.2687  0.4798  0.4644
  812MOL0     C 9541   5.268  10.548   1.190 -0.9460 -0.5684  0.6422
  812MOL0     C 9542   5.391  10.563   1.132  0.0880 -0.2790 -0.2948
  812MOL0     C 9543   5.425  10.664   1.043 -0.6895  0.6261 -0.2447
  812MOL0     O 9544   5.554  10.683   1.002  0.4598  0.6195  0.5275
  812MOL0     C 9545   5.660  10.582   1.002 -0.3769 -0.3150 -0.5660
  812MOL0     C 9546   5.759  10.602   0.891 -0.3757 -0.3754 -0.1669
  812MOL0     C 9547   5.845  10.727   0.901  0.1038 -0.6942 -0.4810
  812MOL0     C 9548   5.769  10.863   0.898 -0.2546 -0.2516  0.0040
  812MOL0     C 9549   5.699  10.887   0.774 -0.3250 -0.6165  1.8318
  812MOL0     C 9550   5.629  10.897   0.674 -0.3460 -0.9317  0.7328
  812MOL0     C 9551   5.325  10.755   1.006 -0.0983  0.1067 -0.6315
  812MOL0     C 9552   5.194  10.732   1.048 -0.2772 -0.7939  0.0727
  812MOL0     H 9553   4.797  10.484   1.023  1.4453 -0.9907  1.4668
  812MOL0     H 9554   4.580  10.389   1.108  0.6994 -1.4947  1.7043
  812MOL0     H 9555   4.516  10.315   1.398 -0.6671 -0.4737  0.8690
  812MOL0     H 9556   4.512  10.456   1.510  1.8677  0.4887 -1.4489
  812MOL0     H 9557   4.294  10.250   1.456 -1.1159  1.4149 -0.0625
  812MOL0     H 9558   4.346  10.327   1.603 -1.7588  1.1981  0.6924
  812MOL0     H 9559   4.204  10.488   1.376  0.8592 -0.7613  0.3699
  812MOL0     H 9560   4.105  10.403   1.496 -0.2887 -0.9741 -0.0370
  812MOL0     H 9561   4.196  10.533   1.676 -2.3092  0.4537  0.3479
  812MOL0     H 9562   4.316  10.594   1.570  0.4998 -1.8767 -0.7210
  812MOL0     H 9563   4.095  10.695   1.436 -0.1400 -1.1583 -0.7151
  812MOL0     H 9564   4.004  10.605   1.549 -1.6214  3.4630 -1.6485
  812MOL0     H 9565   4.150  10.775   1.718 -0.4900  0.7823  0.5511
  812MOL0     H 9566   4.158  10.862   1.574  0.8535 -1.4361  1.2512
  812MOL0     H 9567   3.888  10.818   1.551 -1.4331  1.2808  0.9352
  812MOL0     H 9568   3.902  10.779   1.722 -0.2470 -0.4297  0.3832
  812MOL0     H 9569   3.983  11.049   1.596 -0.3354  0.8798  0.5226
  812MOL0     H 9570   4.020  10.991   1.757 -0.1938  0.5227  0.2759
  812MOL0     H 9571   3.674  10.999   1.564  0.8779 -1.2530 -0.1457
  812MOL0     H 9572   3.470  11.258   1.726  3.3045 -0.1343  1.4449
  812MOL0     H 9573   3.450  11.118   1.631  1.9150 -0.8614 -0.4463
  812MOL0     H 9574   3.396  11.122   1.923 -2.1192 -0.2316  1.3518
  812MOL0     H 9575   3.389  10.974   1.822 -0.8302  0.4492 -1.3242
  812MOL0     H 9576   3.237  11.100   1.667 -1.7162  2.0127 -0.3577
  812MOL0     H 9577   3.218  11.219   1.799 -0.6095  0.1557  0.2171
  812MOL0     H 9578   3.110  11.056   1.941 -2.0703  1.9572 -0.9532
  812MOL0     H 9579   3.159  10.923   1.826  0.5107  0.3074 -0.8093
  812MOL0     H 9580   2.984  10.851   1.917  0.7851 -2.5638 -0.6778
  812MOL0     H 9581   2.694  10.702   2.042 -0.4878  1.6270 -0.9460
  812MOL0     H 9582   2.777  10.597   1.922  3.2881 -0.8556  0.9402
  812MOL0     H 9583   2.879  10.690   2.025  1.2251  2.8941 -1.0823
  812MOL0     H 9584   2.195  10.819   1.741  1.3652  0.7545 -0.6861
  812MOL0     H 9585   2.020  10.672   1.667 -0.1292  0.8534 -3.5316
  812MOL0     H 9586   2.114  10.217   1.555  1.4355  1.0041  0.8277
  812MOL0     H 9587   2.116  10.290   1.717  0.7675 -0.9281 -0.4866
  812MOL0     H 9588   1.863  10.241   1.559 -0.7236  0.6603  0.8693
  812MOL0     H 9589   1.935  10.112   1.651 -1.0863 -1.3603 -2.2537
  812MOL0     H 9590   1.846  10.385   1.771 -1.5318  0.0405  1.6597
  812MOL0     H 9591   1.920  10.236   1.848 -1.4719 -2.4536 -0.2665
  812MOL0     H 9592   1.661  10.195   1.702 -0.7447 -1.7949  0.7400
  812MOL0     H 9593   1.708  10.126   1.848  0.6178 -1.9805 -2.1756
  812MOL0     H 9594   1.611  10.410   1.797 -0.6362 -1.5822 -1.1022
  812MOL0     H 9595   1.691  10.367   1.952  1.5749  0.5941 -1.2585
  812MOL0     H 9596   1.460  10.213   1.835 -3.1321  1.4764 -0.3544
  812MOL0     H 9597   1.538  10.185   1.988  2.1933 -0.7513 -1.4407
  812MOL0     H 9598   1.452  10.462   1.978 -1.1609  0.4017  2.0435
  812MOL0     H 9599   1.430  10.343   2.097  0.8133 -2.8119 -0.5984
  812MOL0     H 9600   1.198  10.401   2.010 -0.0848 -0.4146  0.0618
  812MOL0     H 9601   1.229  10.259   1.916 -4.0088  1.2544 -1.3129
  812MOL0     H 9602   2.329  10.371   1.570 -0.2471  0.3901  1.8845
  812MOL0     H 9603   2.495  10.566   1.614 -0.2732 -0.0915  1.1645
  812MOL0     H 9604   2.617  10.973   1.618  0.4538  3.1741  0.1487
  812MOL0     H 9605   2.837  11.062   1.583 -1.0566  2.1142  0.9647
  812MOL0     H 9606   4.575  10.684   1.421  1.1290  0.8667  0.0625
  812MOL0     H 9607   4.789  10.790   1.301 -0.1007  1.4052 -3.7908
  812MOL0     H 9608   5.249  10.470   1.262  2.8999 -0.7097  1.6918
  812MOL0     H 9609   5.462  10.488   1.166 -0.9366  0.3730  3.7587
  812MOL0     H 9610   5.712  10.582   1.097 -1.4734  1.1395  0.0721
  812MOL0     H 9611   5.615  10.483   0.984 -1.3022 -0.0959  0.4801
  812MOL0     H 9612   5.696  10.599   0.802 -1.2845  1.7723  0.3273
  812MOL0     H 9613   5.828  10.517   0.888 -0.4352 -0.4104 -0.5841
  812MOL0     H 9614   5.911  10.726   0.814  0.5265 -0.7983 -0.1626
  812MOL0     H 9615   5.902  10.729   0.995 -2.1821  1.2292  0.9706
  812MOL0     H 9616   5.840  10.946   0.902 -2.1135  1.4577 -0.9603
  812MOL0     H 9617   5.705  10.880   0.985 -0.2737 -1.8636  0.3370
  812MOL0     H 9618   5.593  10.905   0.573  4.2420 -1.2349 -1.1876
  812MOL0     H 9619   5.358  10.831   0.936  0.2165  2.4173  1.8769
  812MOL0     H 9620   5.111  10.796   1.020 -1.6097 -2.0658  0.9658
  813MOL0     O 9621   2.547   5.540   4.113  0.2638 -0.5933  0.3848
  813MOL0     C 9622   2.633   5.457   4.137 -0.1914 -0.6309 -0.4825
  813MOL0     O 9623   2.608   5.346   4.203  0.1345 -0.0267  0.8168
  813MOL0     C 9624   2.485   5.313   4.264  0.2351 -0.5214  0.5717
  813MOL0     C 9625   2.425   5.408   4.340 -0.0271  0.8654 -0.9145
  813MOL0     C 9626   2.293   5.374   4.396 -0.7988 -0.6054 -0.2334
  813MOL0     C 9627   2.228   5.259   4.375  0.3116  1.0232 -0.1466
  813MOL0     O 9628   2.104   5.249   4.438  0.6375 -0.1119  0.3265
  813MOL0     C 9629   2.049   5.126   4.462 -0.0246  0.1568 -0.3384
  813MOL0     C 9630   1.904   5.136   4.507  0.3567  0.0370 -0.5475
  813MOL0     C 9631   1.831   5.004   4.550 -0.7593  0.0820  0.5221
  813MOL0     C 9632   1.686   5.023   4.583  0.4776 -0.8666  0.1875
  813MOL0     C 9633   1.607   4.892   4.614 -1.5747  0.1290 -0.1386
  813MOL0     C 9634   1.613   4.781   4.505 -0.1020  0.1078 -0.8636
  813MOL0     C 9635   1.485   4.699   4.513 -0.3132 -0.2532 -0.2526
  813MOL0     C 9636   1.492   4.588   4.412 -0.8456  0.0854 -0.1304
  813MOL0     N 9637   1.360   4.517   4.401  0.7810  0.0398 -0.1223
  813MOL0     C 9638   1.251   4.549   4.324  0.1618  0.1490 -0.3009
  813MOL0     C 9639   1.154   4.453   4.345 -0.4914  0.1177  0.5557
  813MOL0     C 9640   1.022   4.458   4.278 -0.2003 -0.6123  0.5247
  813MOL0     C 9641   0.973   4.587   4.217  0.0385 -0.6588 -0.7594
  813MOL0     C 9642   0.826   4.581   4.169  0.2534 -0.9262 -0.3481
  813MOL0     C 9643   0.786   4.719   4.127 -0.4406  0.4202 -0.4678
  813MOL0     O 9644   0.645   4.693   4.100 -0.1205 -0.6386  0.1162
  813MOL0     C 9645   0.546   4.728   4.184  0.4235  0.7642  1.2304
  813MOL0     C 9646   0.555   4.702   4.322  0.5104  0.5536 -0.0109
  813MOL0     C 9647   0.436   4.733   4.399  0.3061 -0.2185 -0.0789
  813MOL0     C 9648   0.452   4.710   4.542 -0.0898  0.0487 -0.7970
  813MOL0     C 9649   0.319   4.801   4.339  0.1150 -0.0813 -0.3377
  813MOL0     C 9650   0.191   4.835   4.412 -0.8082  0.0913 -0.4084
  813MOL0     O 9651   0.122   4.940   4.348 -1.0554 -0.3872 -0.1438
  813MOL0     C 9652   0.011   4.987   4.416  0.0075 -0.5854  1.0655
  813MOL0     C 9653   0.001   5.009   4.555 -0.4340  0.1026  0.3015
  813MOL0     C 9654  -0.115   5.060   4.613 -0.5422 -0.4265  0.2043
  813MOL0     C 9655  -0.228   5.065   4.534  0.0540  0.0375 -0.3342
  813MOL0     O 9656  -0.343   5.095   4.591  0.1540 -0.0674  0.4018
  813MOL0     C 9657  -0.391   5.222   4.551  0.1230  0.1129  0.9023
  813MOL0     C 9658  -0.522   5.256   4.621  0.4612  0.8135  0.1256
  813MOL0     C 9659  -0.494   5.235   4.770 -0.8487  0.2518 -0.8505
  813MOL0     C 9660  -0.606   5.291   4.862  0.9004  0.2714 -0.0546
  813MOL0     C 9661  -0.727   5.189   4.865  0.1536  0.8969 -0.2858
  813MOL0     C 9662  -0.842   5.234   4.957 -0.5380  0.7683  0.0551
  813MOL0     C 9663  -0.960   5.143   4.966  0.5349 -0.1922 -0.8896
  813MOL0     C 9664  -1.076   5.201   5.047 -0.0949 -0.6708 -0.0185
  813MOL0    Cl 9665  -1.200   5.074   5.080  0.2457 -0.2079  0.3468
  813MOL0     C 9666  -0.216   5.053   4.393  1.1670  1.4347 -0.5764
  813MOL0     C 9667  -0.099   5.023   4.338 -0.2368 -0.4453  0.6121
  813MOL0     O 9668   0.158   4.767   4.511 -0.1703 -0.1870  0.1245
  813MOL0     C 9669   0.323   4.834   4.207 -0.1140  0.0722 -0.1403
  813MOL0     C 9670   0.437   4.799   4.129  0.2612 -0.1326  0.1756
  813MOL0     N 9671   1.206   4.359   4.430  0.7565  0.6412  0.5250
  813MOL0     N 9672   1.326   4.404   4.466 -0.3109  0.0985 -0.7129
  813MOL0     C 9673   2.299   5.166   4.295 -0.0588  0.6920 -0.0277
  813MOL0     C 9674   2.425   5.188   4.234  0.3463 -0.8682 -0.3589
  813MOL0     C 9675   2.777   5.484   4.090  0.2640  0.0229  0.1443
  813MOL0     C 9676   2.804   5.585   3.993 -0.3518  0.4451 -0.3795
  813MOL0     C 9677   2.938   5.613   3.959  0.2589 -0.2592 -0.1678
  813MOL0     C 9678   3.043   5.536   4.012 -0.0611 -0.0642  0.5292
  813MOL0     O 9679   3.163   5.579   3.969  0.4351 -0.3952  0.3179
  813MOL0     C 9680   3.271   5.490   3.997  0.9343 -0.5055  0.1404
  813MOL0     C 9681   3.304   5.390   3.888  0.2940 -0.4311  0.1894
  813MOL0     C 9682   3.335   5.456   3.760 -0.1920 -0.3389 -0.4089
  813MOL0     C 9683   3.385   5.341   3.673 -0.9099  0.2428 -0.0404
  813MOL0     C 9684   3.523   5.294   3.699  0.5963 -0.2320 -0.3408
  813MOL0     C 9685   3.640   5.261   3.715  0.5334  0.0130 -0.7661
  813MOL0     C 9686   3.010   5.432   4.106 -0.1459  0.2254 -0.2558
  813MOL0     C 9687   2.882   5.409   4.144  0.6489  0.5937 -0.1672
  813MOL0     H 9688   2.493   5.485   4.376 -0.2303  1.4019 -1.6512
  813MOL0     H 9689   2.243   5.449   4.456  1.1105  0.8377 -0.3446
  813MOL0     H 9690   2.040   5.077   4.364 -2.0943  0.4099 -0.3231
  813MOL0     H 9691   2.101   5.076   4.544  0.7818  2.6518  0.7513
  813MOL0     H 9692   1.894   5.220   4.577  1.8813  1.7923 -2.3110
  813MOL0     H 9693   1.844   5.166   4.421 -3.2392 -2.1082  0.9758
  813MOL0     H 9694   1.836   4.928   4.471  0.4425 -2.0055  2.4767
  813MOL0     H 9695   1.875   4.962   4.641 -0.3588  0.8763  0.7051
  813MOL0     H 9696   1.690   5.072   4.681  1.9904 -2.9437  1.2210
  813MOL0     H 9697   1.638   5.079   4.502  0.2419 -1.8617 -0.3695
  813MOL0     H 9698   1.652   4.845   4.702  1.1890  1.4793 -0.7016
  813MOL0     H 9699   1.502   4.908   4.638 -2.5886 -1.2109 -3.1454
  813MOL0     H 9700   1.625   4.820   4.404 -1.4692 -0.8210 -1.4167
  813MOL0     H 9701   1.693   4.709   4.524 -2.6796 -2.5400  1.1183
  813MOL0     H 9702   1.468   4.646   4.607  0.9287 -1.4901 -0.6938
  813MOL0     H 9703   1.395   4.756   4.485  0.3844  1.6298  1.1635
  813MOL0     H 9704   1.560   4.506   4.439 -2.2679 -1.5559 -1.2817
  813MOL0     H 9705   1.512   4.633   4.314 -1.4594 -2.1908 -1.3896
  813MOL0     H 9706   1.237   4.627   4.250  1.6717 -1.8315 -2.8098
  813MOL0     H 9707   1.027   4.382   4.199  2.4119  0.0141 -0.0331
  813MOL0     H 9708   0.949   4.420   4.349 -1.7717 -0.8882 -1.1514
  813MOL0     H 9709   1.025   4.611   4.123  1.5239 -1.0516 -0.0702
  813MOL0     H 9710   0.983   4.661   4.297 -0.6262 -2.5828  1.1885
  813MOL0     H 9711   0.757   4.538   4.242 -1.0664 -0.4990 -1.2922
  813MOL0     H 9712   0.820   4.515   4.082 -2.3711 -1.7126  0.3588
  813MOL0     H 9713   0.832   4.749   4.032 -1.4960  0.8257 -0.8591
  813MOL0     H 9714   0.811   4.795   4.202 -0.8202  0.3582 -0.2781
  813MOL0     H 9715   0.641   4.657   4.369  2.2903  2.3132 -1.3911
  813MOL0     H 9716   0.410   4.617   4.580 -0.7814  0.4415 -0.5889
  813MOL0     H 9717   0.558   4.714   4.570 -0.3381  3.0767  0.1656
  813MOL0     H 9718   0.407   4.790   4.602  0.7934 -0.1222  0.1359
  813MOL0     H 9719   0.090   4.988   4.613  0.1168 -0.4100 -0.6978
  813MOL0     H 9720  -0.113   5.077   4.720  1.9985 -0.4895  0.2391
  813MOL0     H 9721  -0.319   5.299   4.581  3.2420 -2.2124  0.0132
  813MOL0     H 9722  -0.410   5.227   4.444 -0.3331 -2.2794  0.8176
  813MOL0     H 9723  -0.553   5.359   4.602  2.7557  1.2769 -1.4945
  813MOL0     H 9724  -0.597   5.183   4.588  1.3815 -0.2889  0.3849
  813MOL0     H 9725  -0.400   5.282   4.801 -1.5905 -0.9146  3.9542
  813MOL0     H 9726  -0.485   5.127   4.781  2.8726  0.5679  0.6117
  813MOL0     H 9727  -0.584   5.305   4.968 -1.1464  2.8269  0.1650
  813MOL0     H 9728  -0.635   5.388   4.820 -1.3578 -0.2384  0.1796
  813MOL0     H 9729  -0.697   5.088   4.895 -2.1730  0.3170  0.2686
  813MOL0     H 9730  -0.768   5.182   4.764  0.7674 -0.7218 -0.4534
  813MOL0     H 9731  -0.806   5.253   5.059  0.2915  2.6665 -0.5542
  813MOL0     H 9732  -0.879   5.329   4.919 -3.0721 -0.2442 -0.2096
  813MOL0     H 9733  -0.925   5.053   5.019  2.3706  1.9000  1.7787
  813MOL0     H 9734  -0.990   5.120   4.864  1.0580 -2.0251 -0.6716
  813MOL0     H 9735  -1.128   5.285   5.001  1.6742  0.4333 -0.1129
  813MOL0     H 9736  -1.045   5.237   5.146 -0.0944  2.4574 -1.0523
  813MOL0     H 9737  -0.307   5.056   4.334  2.0534 -0.0957 -2.1243
  813MOL0     H 9738  -0.093   5.012   4.231 -0.5431 -1.0769  0.6577
  813MOL0     H 9739   0.235   4.871   4.155 -0.1745 -0.6531 -0.5684
  813MOL0     H 9740   0.447   4.825   4.024 -1.4528  1.1071  0.2775
  813MOL0     H 9741   2.260   5.065   4.283 -1.9107  1.5053 -1.3202
  813MOL0     H 9742   2.478   5.120   4.168  2.1054  0.6863 -0.6315
  813MOL0     H 9743   2.729   5.650   3.950 -0.8549 -0.5891 -1.1268
  813MOL0     H 9744   2.949   5.694   3.888 -4.1928  1.7178  1.0177
  813MOL0     H 9745   3.361   5.549   4.015  1.4150 -1.2724  0.2445
  813MOL0     H 9746   3.263   5.429   4.088  0.2085  1.1494  1.2432
  813MOL0     H 9747   3.223   5.316   3.882  1.3470 -1.9839  3.1429
  813MOL0     H 9748   3.388   5.331   3.926  0.8018  0.1557 -0.0156
  813MOL0     H 9749   3.412   5.533   3.771  0.6973 -1.2739 -0.0161
  813MOL0     H 9750   3.246   5.503   3.717 -0.2114 -0.5695 -0.6228
  813MOL0     H 9751   3.387   5.377   3.569 -0.4327 -1.4304 -0.6515
  813MOL0     H 9752   3.320   5.254   3.682 -1.4216  0.3985 -1.8001
  813MOL0     H 9753   3.742   5.230   3.725  0.1662 -0.5948  1.8816
  813MOL0     H 9754   3.088   5.364   4.139  0.5979 -0.9112 -3.9234
  813MOL0     H 9755   2.858   5.334   4.219 -1.1061  1.7879  0.5180
  814MOL0     O 9756   3.455   0.340   3.973 -0.3730  0.3716  0.1950
  814MOL0     C 9757   3.375   0.266   3.914 -1.2813 -0.1606 -1.4998
  814MOL0     O 9758   3.264   0.308   3.849  0.0687  0.4877  0.1212
  814MOL0     C 9759   3.215   0.432   3.860 -0.7236  0.1245 -0.5609
  814MOL0     C 9760   3.081   0.437   3.903  0.2246 -0.9950  0.0373
  814MOL0     C 9761   3.006   0.565   3.910  0.6038 -0.4257  0.0066
  814MOL0     C 9762   3.083   0.680   3.887 -0.3493 -0.3260 -0.1255
  814MOL0     O 9763   3.046   0.812   3.914 -0.0226 -0.1313 -0.5839
  814MOL0     C 9764   2.936   0.823   4.004  0.2796  0.0374 -0.1939
  814MOL0     C 9765   2.946   0.967   4.074  0.3561 -0.1558  0.1235
  814MOL0     C 9766   2.855   0.993   4.194  0.0970  0.2504 -1.5098
  814MOL0     C 9767   2.711   0.951   4.144  0.8996  0.3525  0.0589
  814MOL0     C 9768   2.601   1.021   4.220 -0.1000  0.5571  0.0526
  814MOL0     C 9769   2.513   1.116   4.140 -0.7471 -0.1499  0.3525
  814MOL0     C 9770   2.435   1.039   4.035 -0.2993  0.6765 -0.2414
  814MOL0     C 9771   2.365   1.141   3.947 -1.3954  0.1887 -0.3942
  814MOL0     N 9772   2.290   1.072   3.847  0.3003 -0.8546  0.7992
  814MOL0     C 9773   2.334   1.037   3.724 -0.2660 -0.1939  0.2898
  814MOL0     C 9774   2.226   0.983   3.662  0.2771  0.0498 -0.0226
  814MOL0     C 9775   2.225   0.929   3.524  1.0136  0.2352 -0.8294
  814MOL0     C 9776   2.260   1.038   3.416  0.5824  0.1568 -0.3600
  814MOL0     C 9777   2.273   0.986   3.275 -0.0059 -0.4514  0.5200
  814MOL0     C 9778   2.387   0.889   3.256 -0.1833  0.6699 -0.2192
  814MOL0     O 9779   2.506   0.927   3.334 -0.7078 -0.5573 -0.6936
  814MOL0     C 9780   2.629   0.854   3.323  0.1984 -0.1625 -0.3979
  814MOL0     C 9781   2.723   0.877   3.429  0.6657  0.8088  0.4530
  814MOL0     C 9782   2.847   0.806   3.429 -1.0867 -0.6987 -0.8311
  814MOL0     C 9783   2.928   0.813   3.557  0.0772 -0.3884  0.4408
  814MOL0     C 9784   2.873   0.729   3.314 -0.6304  0.5683  0.2027
  814MOL0     C 9785   3.000   0.651   3.309 -0.3351 -0.2142 -0.3315
  814MOL0     O 9786   2.990   0.523   3.265 -0.2802  0.1069 -0.3664
  814MOL0     C 9787   3.073   0.428   3.312 -0.5628 -0.3886  0.2301
  814MOL0     C 9788   3.139   0.345   3.227  0.7759  0.2677  0.5211
  814MOL0     C 9789   3.224   0.244   3.268 -0.3566  1.0305 -0.3490
  814MOL0     C 9790   3.251   0.223   3.403  0.3521 -0.8594  0.3934
  814MOL0     O 9791   3.334   0.135   3.460  0.0221 -0.0408 -0.0080
  814MOL0     C 9792   3.416   0.052   3.373 -0.0379 -0.3173  0.5154
  814MOL0     C 9793   3.513  -0.010   3.466  0.9700 -0.4718  0.0383
  814MOL0     C 9794   3.645  -0.059   3.404 -0.7708  0.2714 -0.1364
  814MOL0     C 9795   3.711  -0.170   3.486  0.4687  0.1072  1.1677
  814MOL0     C 9796   3.842  -0.218   3.423 -0.1861  0.1991 -0.2033
  814MOL0     C 9797   3.884  -0.348   3.481  0.2413 -0.5024  0.9099
  814MOL0     C 9798   4.016  -0.398   3.421 -0.7938  0.6571 -0.0914
  814MOL0     C 9799   4.129  -0.282   3.418  0.8945  1.0071  0.2828
  814MOL0    Cl 9800   4.269  -0.345   3.337  0.3238 -0.0408  0.3048
  814MOL0     C 9801   3.184   0.306   3.496 -0.3044  0.1765  0.3375
  814MOL0     C 9802   3.092   0.406   3.447 -0.5554 -0.1282 -0.2223
  814MOL0     O 9803   3.102   0.693   3.359 -0.2155  0.1588  0.1214
  814MOL0     C 9804   2.789   0.711   3.208 -0.2500  1.2290  0.2147
  814MOL0     C 9805   2.660   0.766   3.218  1.0543 -0.5138  0.0413
  814MOL0     N 9806   2.123   0.988   3.753 -0.3557 -0.0402  0.5766
  814MOL0     N 9807   2.161   1.041   3.862  0.6559 -0.3704  0.5520
  814MOL0     C 9808   3.217   0.672   3.840 -0.2660  1.5024  0.2285
  814MOL0     C 9809   3.282   0.547   3.821 -0.2833  0.0125 -0.2631
  814MOL0     C 9810   3.420   0.124   3.886 -0.1669  0.0658 -0.6891
  814MOL0     C 9811   3.544   0.063   3.927 -0.1307 -0.3990 -0.0049
  814MOL0     C 9812   3.572  -0.071   3.917  0.1427 -0.1974 -0.2715
  814MOL0     C 9813   3.476  -0.156   3.854 -0.8413 -0.1213 -0.4070
  814MOL0     O 9814   3.480  -0.296   3.836 -0.1163  0.0971  0.0506
  814MOL0     C 9815   3.588  -0.378   3.881  0.0576 -0.3996 -0.4871
  814MOL0     C 9816   3.548  -0.489   3.985  0.1617 -0.3089  0.7256
  814MOL0     C 9817   3.475  -0.436   4.112  0.5582 -0.4210  0.1864
  814MOL0     C 9818   3.492  -0.532   4.232  0.2259  0.0356  0.2057
  814MOL0     C 9819   3.397  -0.648   4.214  0.3234  0.5901 -0.3250
  814MOL0     C 9820   3.335  -0.751   4.188  0.7754  0.3707  0.1112
  814MOL0     C 9821   3.361  -0.104   3.798  0.1403  0.0698  0.7780
  814MOL0     C 9822   3.342   0.036   3.811  0.6827 -0.4328  0.5791
  814MOL0     H 9823   3.031   0.347   3.937 -4.0570  0.8415 -0.6770
  814MOL0     H 9824   2.908   0.561   3.956  0.1719 -2.4857 -0.9402
  814MOL0     H 9825   2.838   0.806   3.960  0.0952 -0.3023  0.3323
  814MOL0     H 9826   2.949   0.747   4.082  3.6024  1.0731  0.4079
  814MOL0     H 9827   3.051   0.980   4.101 -0.1575  1.8958  1.2628
  814MOL0     H 9828   2.938   1.044   3.996  3.5034 -0.2533 -0.4483
  814MOL0     H 9829   2.910   0.932   4.266  0.4077 -0.2182 -2.1363
  814MOL0     H 9830   2.842   1.098   4.220 -3.7944 -0.3186 -0.5250
  814MOL0     H 9831   2.705   0.970   4.037 -0.5285 -2.7786 -0.5273
  814MOL0     H 9832   2.704   0.842   4.154 -0.3741 -0.0333 -3.7264
  814MOL0     H 9833   2.549   0.937   4.266  2.4210 -1.5356 -0.6673
  814MOL0     H 9834   2.643   1.070   4.309 -0.3526  1.0203 -0.0795
  814MOL0     H 9835   2.448   1.174   4.207 -0.3351 -0.3063  0.8944
  814MOL0     H 9836   2.587   1.177   4.087 -0.9015 -1.6125 -1.6760
  814MOL0     H 9837   2.495   0.959   3.990 -1.5257 -0.2101 -0.3263
  814MOL0     H 9838   2.357   0.981   4.083  0.5075  0.5358  0.9453
  814MOL0     H 9839   2.431   1.219   3.907 -3.6233  1.8119 -1.0960
  814MOL0     H 9840   2.304   1.208   4.008 -2.4178  0.7594 -1.9855
  814MOL0     H 9841   2.433   1.046   3.682 -0.1978  0.5428  0.5814
  814MOL0     H 9842   2.291   0.841   3.519  1.6385  0.7304 -1.4508
  814MOL0     H 9843   2.124   0.890   3.507  2.3209 -2.6098 -3.0312
  814MOL0     H 9844   2.359   1.080   3.441  1.1147 -2.6231  2.9700
  814MOL0     H 9845   2.179   1.112   3.413 -1.9669 -2.5180 -1.7830
  814MOL0     H 9846   2.296   1.070   3.209 -3.8352  0.3067 -0.0764
  814MOL0     H 9847   2.175   0.954   3.238  0.1804  0.1813 -0.5716
  814MOL0     H 9848   2.412   0.894   3.150 -0.2433  0.4090 -0.2449
  814MOL0     H 9849   2.359   0.791   3.296 -1.2916  1.2417  0.4527
  814MOL0     H 9850   2.697   0.926   3.522 -1.7083 -3.6470  2.4664
  814MOL0     H 9851   3.009   0.885   3.545  0.6985 -0.6519  2.7085
  814MOL0     H 9852   2.867   0.841   3.643  0.6524  1.4017  0.3044
  814MOL0     H 9853   2.980   0.718   3.570  2.4824  0.4115 -2.2201
  814MOL0     H 9854   3.112   0.358   3.122  1.5353  0.6500  0.3710
  814MOL0     H 9855   3.274   0.187   3.189 -1.0474 -0.0464 -0.0255
  814MOL0     H 9856   3.362  -0.028   3.322  0.0941  0.0801 -0.2495
  814MOL0     H 9857   3.467   0.120   3.305  0.0777 -1.0921 -0.1746
  814MOL0     H 9858   3.548   0.068   3.535  1.9517 -2.9216  2.5173
  814MOL0     H 9859   3.464  -0.086   3.528 -0.3437  0.7636  0.5960
  814MOL0     H 9860   3.699   0.037   3.402 -1.7006  0.8064  0.0034
  814MOL0     H 9861   3.620  -0.090   3.302 -2.1703  2.5112 -0.5491
  814MOL0     H 9862   3.720  -0.138   3.590 -2.3864  2.1054  0.9117
  814MOL0     H 9863   3.637  -0.251   3.483 -0.5401  1.0141 -0.9671
  814MOL0     H 9864   3.914  -0.137   3.434  0.2663 -0.2311  0.0578
  814MOL0     H 9865   3.827  -0.236   3.316 -2.1780 -0.0744  0.0709
  814MOL0     H 9866   3.900  -0.332   3.588  1.2582 -0.3462  0.7423
  814MOL0     H 9867   3.808  -0.426   3.476 -1.9191  1.3088  3.0538
  814MOL0     H 9868   3.989  -0.440   3.324 -0.6566  1.3015 -0.4143
  814MOL0     H 9869   4.050  -0.476   3.490 -0.1419  2.0815  1.2656
  814MOL0     H 9870   4.153  -0.241   3.517  1.2985 -1.0130  1.0792
  814MOL0     H 9871   4.090  -0.208   3.348 -0.7048 -1.3698 -1.4861
  814MOL0     H 9872   3.212   0.282   3.598  3.0824 -2.5284 -1.0110
  814MOL0     H 9873   3.038   0.472   3.513 -1.8909  0.0188 -1.4157
  814MOL0     H 9874   2.829   0.652   3.127 -0.6959 -1.3859  1.7832
  814MOL0     H 9875   2.587   0.736   3.143 -1.1870  0.2832  1.7761
  814MOL0     H 9876   3.266   0.766   3.817  0.6082  0.8253 -0.8230
  814MOL0     H 9877   3.387   0.556   3.794 -0.2421  1.4967  0.3030
  814MOL0     H 9878   3.608   0.134   3.979 -0.2684  1.4526 -2.1785
  814MOL0     H 9879   3.665  -0.110   3.959  1.8872  4.4154  0.8077
  814MOL0     H 9880   3.643  -0.428   3.801  2.8991  0.1138  1.0317
  814MOL0     H 9881   3.664  -0.315   3.927 -3.5835  2.4457  2.3112
  814MOL0     H 9882   3.639  -0.548   4.003  0.0353 -0.5677  0.5147
  814MOL0     H 9883   3.489  -0.567   3.937 -1.0286  0.3366  1.1200
  814MOL0     H 9884   3.369  -0.432   4.086  0.0976  1.4488  2.0063
  814MOL0     H 9885   3.513  -0.335   4.129  0.4767 -0.4097  0.3087
  814MOL0     H 9886   3.463  -0.483   4.326  0.8100  2.3598 -0.7540
  814MOL0     H 9887   3.594  -0.572   4.224 -0.1678 -0.7044 -1.4917
  814MOL0     H 9888   3.278  -0.841   4.180 -2.4805  1.9731  2.9531
  814MOL0     H 9889   3.283  -0.161   3.749 -1.0000  2.0055  0.2223
  814MOL0     H 9890   3.252   0.082   3.771  0.2531 -0.3795  1.5708
  815MOL0     O 9891  11.190   3.077   4.355  0.6013  0.0456 -0.1036
  815MOL0     C 9892  11.148   2.968   4.398 -0.7605 -0.6335  0.6644
  815MOL0     O 9893  11.032   2.935   4.450  0.6465 -0.0268 -1.2077
  815MOL0     C 9894  10.956   3.028   4.516 -0.6318 -0.3626  0.1897
  815MOL0     C 9895  10.907   2.983   4.643  0.8213  0.2399  0.0394
  815MOL0     C 9896  10.826   3.067   4.716  0.4758  0.4412  0.0410
  815MOL0     C 9897  10.785   3.188   4.677  0.1835  0.3072  0.5312
  815MOL0     O 9898  10.692   3.264   4.740 -0.2313  0.3627  0.5846
  815MOL0     C 9899  10.629   3.214   4.856  0.5975  0.0301 -0.7817
  815MOL0     C 9900  10.561   3.337   4.932  0.0853  0.0917  0.4097
  815MOL0     C 9901  10.516   3.283   5.067  0.0999  0.3022 -0.1806
  815MOL0     C 9902  10.499   3.397   5.163 -0.6702 -0.9895 -0.2112
  815MOL0     C 9903  10.425   3.362   5.287  0.1573 -0.2289  0.6656
  815MOL0     C 9904  10.269   3.381   5.273 -1.4315 -0.0999  0.0461
  815MOL0     C 9905  10.209   3.405   5.408  0.5473 -0.1449  0.3702
  815MOL0     C 9906  10.059   3.438   5.387  0.2930 -0.0287  0.1724
  815MOL0     N 9907   9.980   3.444   5.515 -0.3618 -0.4218 -0.6244
  815MOL0     C 9908   9.843   3.464   5.526  0.0723  0.7899  0.4948
  815MOL0     C 9909   9.819   3.451   5.655  0.6831  0.6633 -1.1220
  815MOL0     C 9910   9.674   3.464   5.700  0.2364  0.4906  0.7349
  815MOL0     C 9911   9.619   3.326   5.745 -0.1453 -0.0892 -0.0069
  815MOL0     C 9912   9.474   3.325   5.798 -0.6909 -0.1570  0.4523
  815MOL0     C 9913   9.373   3.371   5.691  0.1507  0.2842 -0.4005
  815MOL0     O 9914   9.338   3.255   5.618 -0.3146  0.4850  0.7273
  815MOL0     C 9915   9.211   3.200   5.632 -0.7088 -0.6032 -0.2077
  815MOL0     C 9916   9.154   3.179   5.758  0.0674  0.4026  0.3263
  815MOL0     C 9917   9.024   3.133   5.776  0.2742  0.0599 -0.4390
  815MOL0     C 9918   8.981   3.118   5.915  0.1289  0.6077 -0.3126
  815MOL0     C 9919   8.945   3.117   5.659  0.7254  0.2166  0.4109
  815MOL0     C 9920   8.800   3.085   5.663  0.3789 -0.0865 -1.3712
  815MOL0     O 9921   8.736   3.122   5.780  0.7445  0.8107 -0.6235
  815MOL0     C 9922   8.606   3.125   5.782  0.2004  0.0077  1.0774
  815MOL0     C 9923   8.521   3.014   5.763 -0.1239 -0.6844  1.1605
  815MOL0     C 9924   8.378   3.019   5.792 -1.0552  0.3699  0.0023
  815MOL0     C 9925   8.321   3.145   5.819 -0.2648 -0.1498  0.3554
  815MOL0     O 9926   8.181   3.157   5.833 -0.2561 -0.2018 -0.4995
  815MOL0     C 9927   8.128   3.258   5.925 -0.4586  0.5718 -0.6094
  815MOL0     C 9928   7.982   3.246   5.958  0.4599  0.6763  0.8396
  815MOL0     C 9929   7.923   3.362   6.038  0.0534  0.5075 -0.1122
  815MOL0     C 9930   7.779   3.336   6.076  0.1402 -0.8173  0.1575
  815MOL0     C 9931   7.727   3.457   6.162  0.5791  0.3136  0.7006
  815MOL0     C 9932   7.798   3.498   6.285 -0.4366  0.0444 -0.2497
  815MOL0     C 9933   7.715   3.591   6.375  0.3890  1.8007  0.5300
  815MOL0     C 9934   7.794   3.624   6.504  0.2479 -0.3826  0.1632
  815MOL0    Cl 9935   7.948   3.707   6.455  0.3648 -0.3397 -0.1941
  815MOL0     C 9936   8.405   3.253   5.821  0.7924  0.3261 -0.5951
  815MOL0     C 9937   8.541   3.246   5.803  0.5406  0.1235  0.0851
  815MOL0     O 9938   8.745   3.032   5.569 -0.7779 -0.2583  0.4665
  815MOL0     C 9939   9.010   3.117   5.533  0.3862 -0.0736  1.4484
  815MOL0     C 9940   9.140   3.159   5.523 -0.6925  0.3905  0.0153
  815MOL0     N 9941   9.930   3.421   5.729  0.3140 -0.4493 -0.5263
  815MOL0     N 9942  10.030   3.415   5.642  0.5593  0.3056 -0.4855
  815MOL0     C 9943  10.839   3.231   4.558 -0.6871  0.3766  0.5052
  815MOL0     C 9944  10.929   3.159   4.483 -0.1586 -0.3318  0.0125
  815MOL0     C 9945  11.242   2.852   4.372 -0.0898  0.7292  1.0273
  815MOL0     C 9946  11.382   2.877   4.351 -0.1821 -0.4958 -1.0839
  815MOL0     C 9947  11.469   2.771   4.341 -0.5059  0.3617 -0.1748
  815MOL0     C 9948  11.428   2.640   4.328  0.6462 -0.1289 -0.6245
  815MOL0     O 9949  11.502   2.522   4.319  0.0971 -0.3005  0.0985
  815MOL0     C 9950  11.620   2.525   4.254 -0.2968 -0.1118  0.5762
  815MOL0     C 9951  11.726   2.543   4.365  0.1315  0.0130  0.2415
  815MOL0     C 9952  11.866   2.544   4.308 -0.4695  0.4073  0.3317
  815MOL0     C 9953  11.922   2.399   4.300  0.1747  0.2734  0.8471
  815MOL0     C 9954  12.048   2.411   4.228  0.7013  0.0329  0.7485
  815MOL0     C 9955  12.150   2.418   4.158  0.3431 -0.5140  0.3359
  815MOL0     C 9956  11.296   2.619   4.355 -0.3264  0.5209 -0.6415
  815MOL0     C 9957  11.199   2.723   4.389  0.3056 -0.1036  0.1292
  815MOL0     H 9958  10.930   2.891   4.695  2.2179  0.6138  0.1362
  815MOL0     H 9959  10.792   3.020   4.808 -0.8657 -2.1742 -1.6561
  815MOL0     H 9960  10.549   3.148   4.822  0.0289  0.7024 -0.7597
  815MOL0     H 9961  10.697   3.160   4.923 -0.4022 -0.1567  0.1179
  815MOL0     H 9962  10.637   3.415   4.936  1.7728 -1.4594  0.0289
  815MOL0     H 9963  10.480   3.385   4.876  0.4174 -0.2440 -0.3723
  815MOL0     H 9964  10.422   3.227   5.056  0.5780 -0.2401 -1.7691
  815MOL0     H 9965  10.585   3.219   5.123 -1.1522  2.0223  3.7134
  815MOL0     H 9966  10.598   3.429   5.195 -0.2946 -3.2988  1.1670
  815MOL0     H 9967  10.451   3.484   5.118 -1.3637 -1.1493  0.2000
  815MOL0     H 9968  10.454   3.263   5.325  0.4156 -0.6445 -0.5702
  815MOL0     H 9969  10.448   3.442   5.358 -0.5324  0.8357 -0.2835
  815MOL0     H 9970  10.251   3.476   5.223  0.5276  0.8038  0.9479
  815MOL0     H 9971  10.228   3.293   5.223 -1.6487 -0.0462  0.1290
  815MOL0     H 9972  10.224   3.311   5.461  0.7278  1.0785  2.6201
  815MOL0     H 9973  10.257   3.491   5.455  1.3657 -0.9691  1.0697
  815MOL0     H 9974  10.010   3.357   5.332  1.1157 -1.3159  1.2509
  815MOL0     H 9975  10.042   3.531   5.333 -2.5484 -0.1290  0.7250
  815MOL0     H 9976   9.774   3.492   5.447  1.5563  0.0301 -1.1310
  815MOL0     H 9977   9.672   3.527   5.790  3.3901 -0.5770  1.7170
  815MOL0     H 9978   9.606   3.509   5.628  0.8826  1.4602  0.7068
  815MOL0     H 9979   9.674   3.289   5.832 -1.4550 -0.0037  0.8747
  815MOL0     H 9980   9.638   3.250   5.668 -1.2322 -1.2545  0.8402
  815MOL0     H 9981   9.461   3.399   5.878 -0.4447 -1.6932  1.9689
  815MOL0     H 9982   9.448   3.224   5.832 -1.7800 -0.7759 -2.0138
  815MOL0     H 9983   9.404   3.461   5.636 -2.6943  1.2005 -0.6792
  815MOL0     H 9984   9.286   3.402   5.748  0.5326  0.1440  0.2695
  815MOL0     H 9985   9.218   3.200   5.844  1.2039  2.3815 -0.9165
  815MOL0     H 9986   8.906   3.195   5.936  1.3095  1.9870 -1.0206
  815MOL0     H 9987   8.930   3.021   5.922 -1.9806  1.7651  1.9613
  815MOL0     H 9988   9.053   3.122   5.996 -1.6842  1.4255  1.3490
  815MOL0     H 9989   8.569   2.922   5.731  3.9596  1.3542  0.8616
  815MOL0     H 9990   8.304   2.940   5.790 -4.3703  3.0910  2.7139
  815MOL0     H 9991   8.182   3.240   6.018 -0.4091 -0.0263 -0.7501
  815MOL0     H 9992   8.144   3.359   5.884 -0.8918  0.7659 -0.3018
  815MOL0     H 9993   7.933   3.229   5.862 -0.7003  2.9388  0.9562
  815MOL0     H 9994   7.960   3.157   6.018 -2.4670  0.1194 -0.8708
  815MOL0     H 9995   7.926   3.455   5.980 -0.7180  1.6265  1.5377
  815MOL0     H 9996   7.978   3.386   6.130 -1.5519  0.8496  0.7982
  815MOL0     H 9997   7.718   3.309   5.989 -1.4169 -1.7707  1.5033
  815MOL0     H 9998   7.787   3.256   6.150  1.2691 -0.0681  0.8722
  815MOL0     H 9999   7.626   3.425   6.188 -1.5871  2.7115 -3.6771
  815MOL0     H10000   7.718   3.540   6.091 -1.9643  1.7505  2.5381
  815MOL0     H10001   7.827   3.411   6.345  2.8475  0.7122 -0.7144
  815MOL0     H10002   7.895   3.540   6.256  0.1716 -0.3666  1.1051
  815MOL0     H10003   7.622   3.534   6.389  2.8732 -3.4088 -1.6351
  815MOL0     H10004   7.683   3.678   6.317  0.6285  2.1017  0.8492
  815MOL0     H10005   7.830   3.537   6.559 -1.5723 -2.0069 -1.0757
  815MOL0     H10006   7.740   3.700   6.560 -1.1772 -0.7560 -0.6523
  815MOL0     H10007   8.370   3.353   5.847  0.9812  0.2380  0.0215
  815MOL0     H10008   8.595   3.340   5.814  0.6023  0.2213 -0.9544
  815MOL0     H10009   8.954   3.088   5.444  2.0187 -4.7529  1.6713
  815MOL0     H10010   9.188   3.176   5.427 -2.3862  0.5872 -0.8365
  815MOL0     H10011  10.817   3.330   4.518  0.8853  0.5295 -0.0359
  815MOL0     H10012  10.969   3.202   4.392 -1.4771 -0.5085 -0.6714
  815MOL0     H10013  11.422   2.978   4.355 -0.5964 -0.3543  0.3369
  815MOL0     H10014  11.573   2.800   4.354 -1.3495  3.0612  1.5994
  815MOL0     H10015  11.621   2.440   4.186 -2.5022  1.0211 -0.9760
  815MOL0     H10016  11.626   2.609   4.184 -1.6666  0.7426  1.4295
  815MOL0     H10017  11.721   2.466   4.442  2.7990 -0.4285  0.0382
  815MOL0     H10018  11.712   2.641   4.413 -0.5242  0.9739 -1.7976
  815MOL0     H10019  11.935   2.601   4.371  0.4758  1.9655 -1.9896
  815MOL0     H10020  11.866   2.594   4.211  2.4844  2.2238  1.1495
  815MOL0     H10021  11.853   2.336   4.243 -1.8202  0.9875  2.3769
  815MOL0     H10022  11.935   2.357   4.400  1.1636 -1.9924 -0.1478
  815MOL0     H10023  12.238   2.419   4.098 -0.2301 -4.2099 -0.8268
  815MOL0     H10024  11.271   2.514   4.357  1.8798 -0.1782 -3.6172
  815MOL0     H10025  11.095   2.693   4.394  1.1128 -4.5642 -3.5103
  816MOL0     O10026   3.341   6.341   4.873 -0.0129  0.3882 -0.0043
  816MOL0     C10027   3.415   6.427   4.816 -0.2473 -0.0852  0.4024
  816MOL0     O10028   3.376   6.555   4.762  0.2411  0.4347 -0.6902
  816MOL0     C10029   3.246   6.606   4.788  0.1992 -0.0682  0.5907
  816MOL0     C10030   3.176   6.599   4.906  0.1032  0.8637 -0.1710
  816MOL0     C10031   3.045   6.636   4.913  0.0488 -0.2438  0.6181
  816MOL0     C10032   2.980   6.691   4.802 -0.5046 -0.4619 -0.2893
  816MOL0     O10033   2.855   6.736   4.816  0.6951  0.2124 -0.3886
  816MOL0     C10034   2.815   6.840   4.718  0.2769  0.5151 -0.6323
  816MOL0     C10035   2.725   6.781   4.604  0.2057  0.5159 -0.0200
  816MOL0     C10036   2.698   6.877   4.487  0.0115 -0.8998 -0.6005
  816MOL0     C10037   2.638   6.795   4.382  0.3207 -0.1363  0.3599
  816MOL0     C10038   2.574   6.877   4.268 -0.1605 -0.3620  0.2394
  816MOL0     C10039   2.532   6.784   4.154  0.0300  0.0816 -0.6695
  816MOL0     C10040   2.484   6.868   4.038  0.4750 -0.2052  0.0625
  816MOL0     C10041   2.347   6.940   4.069 -0.0116  0.1246 -0.9416
  816MOL0     N10042   2.232   6.872   3.996 -0.2669 -0.9827  0.0825
  816MOL0     C10043   2.213   6.892   3.858 -0.4069  0.4795  0.0360
  816MOL0     C10044   2.121   6.797   3.821  0.8428  0.2308 -0.4724
  816MOL0     C10045   2.048   6.740   3.691  0.2675  0.0730 -0.5919
  816MOL0     C10046   2.078   6.598   3.667 -0.5965  1.1561  0.3272
  816MOL0     C10047   2.035   6.543   3.530  0.4646 -0.3513 -0.4363
  816MOL0     C10048   1.885   6.539   3.501 -0.5107  0.1793 -1.0418
  816MOL0     O10049   1.822   6.456   3.597  0.6398 -0.1670 -0.4833
  816MOL0     C10050   1.683   6.441   3.583 -0.7626 -0.2097 -0.5306
  816MOL0     C10051   1.622   6.423   3.459 -0.0891 -0.4013  0.0098
  816MOL0     C10052   1.490   6.400   3.439  0.0229  0.1277  0.5395
  816MOL0     C10053   1.448   6.418   3.297  0.6004 -0.2254  0.3072
  816MOL0     C10054   1.407   6.376   3.546 -0.0276  0.6493 -0.1027
  816MOL0     C10055   1.252   6.362   3.536 -0.2723 -0.1485  0.1435
  816MOL0     O10056   1.193   6.305   3.642 -0.2891 -0.4315 -0.3482
  816MOL0     C10057   1.061   6.329   3.664  0.1436  0.4369  0.0633
  816MOL0     C10058   1.015   6.447   3.719  0.5472 -0.4231  0.5551
  816MOL0     C10059   0.879   6.457   3.750  0.4863 -0.2486  0.7815
  816MOL0     C10060   0.794   6.355   3.723  0.8965  0.0860 -0.6198
  816MOL0     O10061   0.653   6.381   3.732  0.6598  0.6791 -0.1424
  816MOL0     C10062   0.600   6.396   3.862 -0.5096  0.3671  0.7145
  816MOL0     C10063   0.536   6.547   3.882 -0.2965  0.3626  1.1516
  816MOL0     C10064   0.561   6.592   4.031  0.2190  0.2595 -0.1544
  816MOL0     C10065   0.477   6.506   4.135 -0.2864 -1.1455 -0.3194
  816MOL0     C10066   0.466   6.568   4.277 -0.9723 -0.2476 -0.6961
  816MOL0     C10067   0.592   6.574   4.368 -0.2931 -1.1884  0.9939
  816MOL0     C10068   0.657   6.438   4.376 -0.9593  0.1482 -0.0647
  816MOL0     C10069   0.774   6.442   4.479 -0.8536  0.4067  0.3239
  816MOL0    Cl10070   0.817   6.263   4.488  0.2075  0.3558  0.1014
  816MOL0     C10071   0.837   6.237   3.668  0.7979  0.2249 -1.0964
  816MOL0     C10072   0.973   6.217   3.642  0.3285 -0.6069  0.2352
  816MOL0     O10073   1.201   6.404   3.431 -0.1013 -1.4022  0.1315
  816MOL0     C10074   1.466   6.391   3.673 -0.4818 -0.5468 -0.4517
  816MOL0     C10075   1.603   6.422   3.694  0.9336 -0.0394  0.1612
  816MOL0     N10076   2.089   6.728   3.940 -0.4601 -0.8031 -0.1151
  816MOL0     N10077   2.154   6.774   4.043 -0.3671  0.1167 -0.0984
  816MOL0     C10078   3.052   6.694   4.676 -0.2796 -0.0976 -0.5293
  816MOL0     C10079   3.180   6.656   4.671  0.2262  0.0470 -0.3138
  816MOL0     C10080   3.551   6.398   4.805  0.0154 -0.4695  0.3833
  816MOL0     C10081   3.640   6.509   4.782  0.0320  0.6009  0.3488
  816MOL0     C10082   3.779   6.485   4.771 -0.3631  0.1292 -0.1865
  816MOL0     C10083   3.832   6.359   4.795  0.2133 -0.2056 -0.2220
  816MOL0     O10084   3.964   6.326   4.771 -0.6228  0.2814 -0.0068
  816MOL0     C10085   4.061   6.399   4.851 -0.0770 -0.1464  0.4169
  816MOL0     C10086   4.152   6.313   4.937 -0.4107 -0.6097 -0.2560
  816MOL0     C10087   4.071   6.237   5.048  0.4788 -0.3991  0.4637
  816MOL0     C10088   4.145   6.113   5.102  0.3430 -0.1410  1.0376
  816MOL0     C10089   4.060   6.046   5.197  0.0789  0.2541  0.7682
  816MOL0     C10090   3.996   5.974   5.271 -0.0939  0.7881 -0.2771
  816MOL0     C10091   3.751   6.254   4.826  0.2275 -1.0019 -0.3293
  816MOL0     C10092   3.611   6.280   4.845 -0.1357 -0.5350 -0.0592
  816MOL0     H10093   3.235   6.567   4.991  2.4211 -2.5264 -2.7518
  816MOL0     H10094   3.004   6.635   5.014 -3.1366 -1.3466 -0.5499
  816MOL0     H10095   2.751   6.912   4.771 -1.4372  0.3525 -2.3959
  816MOL0     H10096   2.906   6.894   4.688 -0.1418  0.4427 -2.0737
  816MOL0     H10097   2.799   6.706   4.574  0.0053 -0.2335  1.2874
  816MOL0     H10098   2.637   6.733   4.647  0.8334 -0.2133  0.4849
  816MOL0     H10099   2.626   6.954   4.518  1.0958  0.2445 -0.8541
  816MOL0     H10100   2.792   6.919   4.451  0.3303 -0.6194  0.5212
  816MOL0     H10101   2.714   6.728   4.343 -1.9583 -1.4320 -2.1679
  816MOL0     H10102   2.563   6.731   4.430 -2.5446  1.7384 -1.2883
  816MOL0     H10103   2.490   6.934   4.309  0.6597  3.0621 -2.3536
  816MOL0     H10104   2.656   6.947   4.252  0.6151 -0.9069  1.6663
  816MOL0     H10105   2.615   6.727   4.112  0.6993 -0.0622  0.7678
  816MOL0     H10106   2.460   6.711   4.192 -0.6201  0.6531 -0.7869
  816MOL0     H10107   2.557   6.944   4.008 -0.7024  1.2138  0.6703
  816MOL0     H10108   2.483   6.796   3.955  1.1483 -3.4828  2.7043
  816MOL0     H10109   2.360   7.045   4.039 -1.9057  1.3025  1.9145
  816MOL0     H10110   2.326   6.941   4.176 -2.6518  1.0348 -1.3893
  816MOL0     H10111   2.279   6.948   3.793  1.6944 -2.7289 -0.8155
  816MOL0     H10112   1.940   6.754   3.697  0.1494 -0.4793 -1.2895
  816MOL0     H10113   2.082   6.792   3.601 -1.5851  1.0330 -0.7818
  816MOL0     H10114   2.035   6.523   3.734  1.3411  0.2051  0.5750
  816MOL0     H10115   2.187   6.589   3.677 -0.3322  3.8713  0.6814
  816MOL0     H10116   2.073   6.444   3.504 -0.2228 -1.2551  1.8439
  816MOL0     H10117   2.083   6.615   3.462 -2.7901  3.3027  0.7434
  816MOL0     H10118   1.866   6.499   3.401 -1.2443  1.8664 -1.6087
  816MOL0     H10119   1.840   6.638   3.514 -0.4512  0.3046 -1.7595
  816MOL0     H10120   1.685   6.429   3.370  0.3061  1.4608  0.3763
  816MOL0     H10121   1.528   6.441   3.226 -0.7918  1.1021 -0.8967
  816MOL0     H10122   1.397   6.329   3.258  3.3663 -2.3386  1.1555
  816MOL0     H10123   1.379   6.502   3.292 -0.3644 -1.0601 -1.1059
  816MOL0     H10124   1.084   6.529   3.739  0.3265  0.3094 -1.4616
  816MOL0     H10125   0.846   6.549   3.797 -0.5581 -0.6633  0.8803
  816MOL0     H10126   0.522   6.321   3.883  0.7194 -1.2844 -0.3182
  816MOL0     H10127   0.684   6.378   3.929  2.9018 -0.1449 -3.3090
  816MOL0     H10128   0.588   6.618   3.818 -1.3647  0.9732  0.9268
  816MOL0     H10129   0.435   6.532   3.841  0.1053 -1.4830  0.7351
  816MOL0     H10130   0.533   6.697   4.038 -2.1766 -0.3692  0.6725
  816MOL0     H10131   0.666   6.582   4.061 -0.1114 -2.5320  0.3236
  816MOL0     H10132   0.378   6.507   4.089  0.0936 -2.8234 -1.2764
  816MOL0     H10133   0.517   6.405   4.140  2.5380 -0.0619  3.4611
  816MOL0     H10134   0.385   6.512   4.325 -0.3594  0.6870  1.5551
  816MOL0     H10135   0.442   6.675   4.271  0.0813 -0.0115 -0.7895
  816MOL0     H10136   0.672   6.642   4.335  1.3304 -2.6565  1.7053
  816MOL0     H10137   0.561   6.608   4.467 -1.5247 -0.8855  0.5151
  816MOL0     H10138   0.703   6.404   4.283  1.3042  2.2926  0.1558
  816MOL0     H10139   0.585   6.361   4.405 -0.0555 -0.4421  0.6918
  816MOL0     H10140   0.741   6.478   4.577 -0.7464  1.4318  0.0005
  816MOL0     H10141   0.860   6.502   4.448 -1.1532  1.6884  1.8790
  816MOL0     H10142   0.767   6.155   3.660  0.9132  0.0378 -0.2606
  816MOL0     H10143   1.010   6.126   3.597 -2.9658 -1.4343 -1.0147
  816MOL0     H10144   1.399   6.373   3.757 -1.4082  0.6784 -0.8934
  816MOL0     H10145   1.638   6.428   3.796 -0.0677 -3.8708  0.8812
  816MOL0     H10146   3.011   6.727   4.581 -0.4067 -1.2356 -0.8761
  816MOL0     H10147   3.224   6.645   4.572 -2.9992 -0.7346 -1.8073
  816MOL0     H10148   3.604   6.609   4.758 -0.8419  0.0387 -0.7149
  816MOL0     H10149   3.844   6.568   4.748  1.4725 -1.1254  0.2674
  816MOL0     H10150   4.124   6.465   4.790 -0.7884  0.1578  0.0002
  816MOL0     H10151   4.018   6.462   4.930  0.0376  2.1516 -1.2560
  816MOL0     H10152   4.235   6.365   4.984  1.0606 -0.3828 -2.8953
  816MOL0     H10153   4.193   6.248   4.859  0.2005 -1.7067  0.9371
  816MOL0     H10154   3.972   6.209   5.011  0.2004  1.4437 -0.2825
  816MOL0     H10155   4.067   6.304   5.135 -0.0246 -0.6343  0.6289
  816MOL0     H10156   4.239   6.142   5.150 -0.3258 -0.5003  2.6220
  816MOL0     H10157   4.178   6.055   5.016 -1.0902  1.0123 -0.3717
  816MOL0     H10158   3.937   5.907   5.330 -0.2255  0.5168 -0.7037
  816MOL0     H10159   3.787   6.151   4.831 -1.8019 -1.8420 -1.5854
  816MOL0     H10160   3.542   6.200   4.869 -1.5617  0.1750 -1.6106
  817MOL0     O10161   5.132   8.398   9.361  0.4319 -0.5024 -0.3299
  817MOL0     C10162   5.175   8.402   9.247 -0.1935 -0.0815 -1.3822
  817MOL0     O10163   5.105   8.411   9.126  0.0803  0.2691 -0.0687
  817MOL0     C10164   4.977   8.364   9.124  0.1021 -0.1178 -0.1734
  817MOL0     C10165   4.870   8.455   9.116  0.2494  0.2382  0.6571
  817MOL0     C10166   4.742   8.401   9.102 -0.6521 -0.2708 -0.3126
  817MOL0     C10167   4.717   8.268   9.112  0.2147  0.6680 -1.1818
  817MOL0     O10168   4.590   8.221   9.115  0.5409 -1.2544  0.4489
  817MOL0     C10169   4.543   8.082   9.119 -0.1563 -0.6009 -0.9523
  817MOL0     C10170   4.395   8.076   9.151  0.1086  0.2502 -0.2401
  817MOL0     C10171   4.381   8.093   9.298  0.0242  0.1447  0.2260
  817MOL0     C10172   4.229   8.097   9.336 -0.0942  0.1461 -0.0050
  817MOL0     C10173   4.215   8.143   9.477  0.2241  0.4472 -0.1374
  817MOL0     C10174   4.247   8.034   9.578  0.2803 -0.0348 -0.4761
  817MOL0     C10175   4.387   8.038   9.640 -0.7489  0.0144  0.2218
  817MOL0     C10176   4.422   7.898   9.699 -0.1056 -0.1880  0.2579
  817MOL0     N10177   4.339   7.842   9.808 -0.7162  0.3141  0.0790
  817MOL0     C10178   4.258   7.904   9.898  0.0362  0.1144  0.6577
  817MOL0     C10179   4.187   7.807   9.956 -0.1552  0.0160 -0.2509
  817MOL0     C10180   4.077   7.824  10.059 -0.4809 -0.0789 -0.0818
  817MOL0     C10181   3.947   7.762  10.033 -0.0606  0.0604  1.4258
  817MOL0     C10182   3.888   7.818   9.906 -0.2803 -0.5437 -0.2354
  817MOL0     C10183   3.750   7.755   9.888 -0.4852  0.2166 -0.5650
  817MOL0     O10184   3.690   7.829   9.780 -0.5964  0.7591 -0.5546
  817MOL0     C10185   3.568   7.890   9.804  0.2083 -0.3664 -0.2062
  817MOL0     C10186   3.555   8.034   9.809  0.4066 -0.1848 -0.2263
  817MOL0     C10187   3.436   8.092   9.841  0.3725  0.0434 -0.7969
  817MOL0     C10188   3.439   8.241   9.856  0.3972 -0.1269  0.6585
  817MOL0     C10189   3.320   8.014   9.859  0.5016 -0.0437  1.2890
  817MOL0     C10190   3.185   8.060   9.890  0.1781 -0.5946  0.5815
  817MOL0     O10191   3.074   7.979   9.876  0.0199 -0.3663 -0.7067
  817MOL0     C10192   2.950   8.036   9.874  0.4257  0.5838  0.3340
  817MOL0     C10193   2.870   8.024   9.988  0.8285 -0.5641 -0.7653
  817MOL0     C10194   2.753   8.096  10.004 -0.2918  0.2511  0.5434
  817MOL0     C10195   2.703   8.172   9.897  0.0451 -0.0985 -0.3110
  817MOL0     O10196   2.586   8.239   9.920  0.7398  0.5402  0.1317
  817MOL0     C10197   2.517   8.317   9.822 -0.6392  0.4959  0.2875
  817MOL0     C10198   2.375   8.341   9.879 -0.2391  0.1632 -0.8943
  817MOL0     C10199   2.281   8.212   9.904  0.0273  0.2390  0.1087
  817MOL0     C10200   2.159   8.256   9.974  0.7030  0.2610 -0.3079
  817MOL0     C10201   2.054   8.140   9.988 -0.3833 -0.1963 -0.2774
  817MOL0     C10202   1.928   8.174  10.065  0.5987 -0.8788 -0.3490
  817MOL0     C10203   1.869   8.072  10.161  0.0253 -0.4436 -0.0281
  817MOL0     C10204   1.724   8.099  10.195  0.0430 -0.1948  0.3037
  817MOL0    Cl10205   1.616   8.059  10.054  0.4681  0.0514  0.1370
  817MOL0     C10206   2.783   8.185   9.778 -0.1466  0.8579  0.4711
  817MOL0     C10207   2.901   8.116   9.771 -1.3295  0.3904  0.2091
  817MOL0     O10208   3.172   8.181   9.927 -0.2553 -0.2726  0.0414
  817MOL0     C10209   3.333   7.871   9.849  1.0536 -0.4404 -0.4272
  817MOL0     C10210   3.458   7.813   9.828 -0.4125  0.2014 -0.9219
  817MOL0     N10211   4.235   7.689   9.908 -0.2334 -0.1607 -0.6810
  817MOL0     N10212   4.305   7.710   9.806  0.3252 -0.3494 -0.0208
  817MOL0     C10213   4.825   8.182   9.114 -0.3865 -0.1432  0.5305
  817MOL0     C10214   4.957   8.229   9.129 -0.0687 -1.0824  0.1185
  817MOL0     C10215   5.321   8.408   9.232 -0.0713 -0.2512  0.8456
  817MOL0     C10216   5.391   8.364   9.118 -0.1902 -0.3642  0.3336
  817MOL0     C10217   5.533   8.377   9.110 -0.2441  0.0884 -0.4887
  817MOL0     C10218   5.608   8.446   9.205 -0.7263  0.5634 -0.2932
  817MOL0     O10219   5.742   8.451   9.203  0.2575  0.3740  0.3953
  817MOL0     C10220   5.815   8.378   9.108  0.4314 -0.9726 -0.0319
  817MOL0     C10221   5.957   8.422   9.130  0.6112  0.0028 -0.5154
  817MOL0     C10222   6.003   8.395   9.275  0.1049  0.4792 -0.9613
  817MOL0     C10223   6.053   8.252   9.288  0.6394  0.6816  0.3981
  817MOL0     C10224   6.184   8.237   9.353  0.7027  0.1067 -0.5285
  817MOL0     C10225   6.296   8.233   9.410 -0.4934  0.5134  0.5213
  817MOL0     C10226   5.544   8.489   9.312 -0.0159  0.2964 -0.4634
  817MOL0     C10227   5.407   8.459   9.333  0.0064 -0.8002  0.1846
  817MOL0     H10228   4.893   8.561   9.107  0.1105  0.2712  0.6843
  817MOL0     H10229   4.662   8.475   9.103 -1.0970 -0.6266  3.5386
  817MOL0     H10230   4.550   8.053   9.014 -0.1722  0.7384 -1.3431
  817MOL0     H10231   4.602   8.018   9.185 -0.3262 -0.8176 -1.0116
  817MOL0     H10232   4.341   8.148   9.089  1.3460  0.8783 -0.6154
  817MOL0     H10233   4.341   7.982   9.136 -1.6588  0.7949  2.1280
  817MOL0     H10234   4.439   8.014   9.347  2.2769  1.0777 -0.7490
  817MOL0     H10235   4.422   8.191   9.326 -2.8207  0.9210  2.0237
  817MOL0     H10236   4.180   8.158   9.260  1.2371 -0.1002 -1.1071
  817MOL0     H10237   4.186   7.997   9.319 -1.8494  0.5204  1.8028
  817MOL0     H10238   4.273   8.233   9.497  0.6985  0.0830  0.1725
  817MOL0     H10239   4.110   8.171   9.476 -0.1706 -0.7572  1.6782
  817MOL0     H10240   4.179   8.049   9.662  0.3886  0.1121 -0.4146
  817MOL0     H10241   4.219   7.935   9.540 -1.2679  0.3700 -0.4580
  817MOL0     H10242   4.470   8.040   9.568  1.0969 -2.3848  2.0951
  817MOL0     H10243   4.408   8.114   9.715 -0.5119 -0.7291  0.9241
  817MOL0     H10244   4.527   7.886   9.727 -0.2155  1.3029  1.4575
  817MOL0     H10245   4.413   7.822   9.621 -0.8993 -1.7369  1.8021
  817MOL0     H10246   4.239   8.009   9.917  2.0852  0.8013 -0.8492
  817MOL0     H10247   4.111   7.785  10.156  0.9423  1.7661  0.2188
  817MOL0     H10248   4.071   7.933  10.069 -1.1071  0.1190 -2.2138
  817MOL0     H10249   3.879   7.784  10.116 -1.1226  0.1816  0.5573
  817MOL0     H10250   3.966   7.656  10.014  0.2204  0.4210 -0.5457
  817MOL0     H10251   3.944   7.785   9.817 -1.2160 -0.9305 -0.6894
  817MOL0     H10252   3.885   7.927   9.916  3.0419 -0.3257 -0.2471
  817MOL0     H10253   3.696   7.759   9.983  0.6137 -0.9476  0.1335
  817MOL0     H10254   3.752   7.655   9.842  0.8580 -0.3668  0.7071
  817MOL0     H10255   3.641   8.096   9.788  0.2193  0.0899 -0.1799
  817MOL0     H10256   3.425   8.257   9.963  1.1696 -0.0933  0.7590
  817MOL0     H10257   3.531   8.281   9.813  1.0184 -1.8395  0.3022
  817MOL0     H10258   3.362   8.297   9.801  1.4021  0.3850 -0.2835
  817MOL0     H10259   2.898   7.963  10.073  0.8538 -2.4500 -2.0733
  817MOL0     H10260   2.687   8.070  10.086  1.3580 -1.9551  1.2885
  817MOL0     H10261   2.586   8.401   9.808  0.3592 -0.7651 -3.6299
  817MOL0     H10262   2.516   8.256   9.732 -0.7292  2.6124 -1.2133
  817MOL0     H10263   2.401   8.371   9.981 -0.1603  0.7159 -1.0767
  817MOL0     H10264   2.325   8.420   9.823  2.9805  2.5583 -0.6558
  817MOL0     H10265   2.338   8.146   9.969  1.6098  1.3714 -0.0769
  817MOL0     H10266   2.257   8.157   9.812 -1.1430 -0.6293  0.8945
  817MOL0     H10267   2.191   8.293  10.071 -0.0277  0.8353 -0.2754
  817MOL0     H10268   2.122   8.339   9.913  0.3561 -1.0329 -1.9311
  817MOL0     H10269   2.119   8.075  10.048  0.5472  0.6249 -0.3632
  817MOL0     H10270   2.021   8.095   9.894 -1.0365  1.0845 -0.6693
  817MOL0     H10271   1.944   8.262  10.127 -0.8684  1.5052 -3.1096
  817MOL0     H10272   1.850   8.211   9.998  1.8482 -1.2477 -2.0877
  817MOL0     H10273   1.927   8.074  10.254 -2.0206 -1.7301  1.3423
  817MOL0     H10274   1.880   7.973  10.117 -1.6260 -1.0422  0.8237
  817MOL0     H10275   1.719   8.208  10.207 -1.2655 -0.0054 -1.5196
  817MOL0     H10276   1.696   8.048  10.288 -2.2243 -1.1958 -0.8477
  817MOL0     H10277   2.755   8.243   9.691  1.0595  1.4558  0.4630
  817MOL0     H10278   2.961   8.131   9.682  0.2679 -0.1756  1.1332
  817MOL0     H10279   3.244   7.813   9.871 -0.5989  1.2121 -2.3375
  817MOL0     H10280   3.468   7.706   9.843 -1.5328  0.4100  1.8083
  817MOL0     H10281   4.807   8.075   9.108  4.3127 -1.1449  0.1461
  817MOL0     H10282   5.036   8.154   9.135  1.8152  0.8832  1.6122
  817MOL0     H10283   5.333   8.325   9.035  2.6959  1.3647 -2.6962
  817MOL0     H10284   5.583   8.338   9.021 -1.1796 -0.6031 -0.7281
  817MOL0     H10285   5.799   8.270   9.112 -0.3859 -1.0349 -2.7165
  817MOL0     H10286   5.788   8.415   9.009 -1.4670 -0.3884  0.6679
  817MOL0     H10287   5.967   8.528   9.106 -0.0425 -0.1862 -1.6852
  817MOL0     H10288   6.020   8.378   9.052  0.2872 -2.0242  0.2894
  817MOL0     H10289   5.927   8.418   9.350  2.3271  3.5313  0.5809
  817MOL0     H10290   6.090   8.456   9.299  0.1288 -0.4925  1.7338
  817MOL0     H10291   6.076   8.210   9.189  0.5284 -0.7404  0.9470
  817MOL0     H10292   5.989   8.178   9.337  1.9848 -0.9021 -0.1471
  817MOL0     H10293   6.391   8.231   9.460 -0.1998  0.5447 -0.0349
  817MOL0     H10294   5.597   8.541   9.391  0.9287 -0.4571 -0.5857
  817MOL0     H10295   5.365   8.496   9.426 -0.4776  1.1787 -0.7578
  818MOL0     O10296   3.491   0.213   2.226  0.1736 -0.2499  0.4677
  818MOL0     C10297   3.555   0.141   2.151 -0.1306  1.3350 -0.3768
  818MOL0     O10298   3.500   0.040   2.081  1.0814 -0.7049  0.4821
  818MOL0     C10299   3.365   0.042   2.056 -0.1645 -0.3187  0.4527
  818MOL0     C10300   3.314   0.106   1.939  0.4285 -0.8841 -0.2176
  818MOL0     C10301   3.175   0.106   1.918 -0.4098 -0.0232  0.3368
  818MOL0     C10302   3.088   0.056   2.007  0.5611  0.5391  1.1694
  818MOL0     O10303   2.957   0.082   1.993  0.7993  0.0009 -0.0378
  818MOL0     C10304   2.896  -0.016   1.898  0.1214  0.5783  0.7404
  818MOL0     C10305   2.777   0.047   1.830 -0.0519  0.5321 -0.2856
  818MOL0     C10306   2.662   0.081   1.926 -0.2087  1.0028  0.3348
  818MOL0     C10307   2.574   0.188   1.856  0.0615 -0.1184 -0.3015
  818MOL0     C10308   2.457   0.227   1.948  0.5380  0.0481  0.6872
  818MOL0     C10309   2.363   0.336   1.889 -0.2635 -0.7592  0.1934
  818MOL0     C10310   2.224   0.346   1.954  0.2135 -0.2777  0.3662
  818MOL0     C10311   2.211   0.472   2.042 -1.2713 -0.9127  0.7188
  818MOL0     N10312   2.106   0.467   2.136 -0.2405 -0.2631 -0.0244
  818MOL0     C10313   2.025   0.355   2.172 -0.1664 -0.0959 -0.5607
  818MOL0     C10314   1.939   0.407   2.267  0.4897  0.5365  0.4535
  818MOL0     C10315   1.842   0.324   2.350  0.4720 -0.5087 -0.5795
  818MOL0     C10316   1.739   0.274   2.255  0.0774 -0.3838  0.1458
  818MOL0     C10317   1.637   0.178   2.325 -0.5214 -0.5985  0.1035
  818MOL0     C10318   1.544   0.123   2.232 -0.6087 -0.2404  0.2349
  818MOL0     O10319   1.464   0.239   2.198 -0.9665  0.2304 -0.5726
  818MOL0     C10320   1.341   0.200   2.152 -0.3233  0.3450  1.0155
  818MOL0     C10321   1.322   0.128   2.034  0.2355  0.6362  0.4158
  818MOL0     C10322   1.206   0.064   1.996  0.4301 -0.2321  0.2128
  818MOL0     C10323   1.196  -0.023   1.876 -0.7910  0.4311  0.2566
  818MOL0     C10324   1.090   0.091   2.081  0.4021  0.8791  0.9495
  818MOL0     C10325   0.953   0.040   2.049 -0.1491 -0.6992  0.4275
  818MOL0     O10326   0.851   0.110   2.101  0.1281  0.7401 -0.4088
  818MOL0     C10327   0.724   0.068   2.080  0.3003  0.8746  0.8248
  818MOL0     C10328   0.649   0.162   2.009 -0.5532 -0.0915  0.5039
  818MOL0     C10329   0.518   0.142   1.975 -0.5211 -0.5002 -0.0959
  818MOL0     C10330   0.465   0.017   2.007 -0.8592  0.3910  0.1790
  818MOL0     O10331   0.351  -0.024   1.946  0.3024 -0.0210 -0.6949
  818MOL0     C10332   0.299   0.051   1.838 -0.7890  0.5413  0.2226
  818MOL0     C10333   0.177  -0.027   1.772 -0.0320  0.1107  0.0487
  818MOL0     C10334   0.053  -0.030   1.861 -0.1726 -0.4712  0.3654
  818MOL0     C10335  -0.072  -0.043   1.778  0.6824 -0.5552  0.1251
  818MOL0     C10336  -0.205  -0.008   1.851 -0.4762  0.4832 -0.0045
  818MOL0     C10337  -0.189   0.122   1.927  0.7349 -0.6399 -1.1975
  818MOL0     C10338  -0.330   0.175   1.962 -1.2376 -0.3098  0.8572
  818MOL0     C10339  -0.318   0.306   2.032  0.1877 -0.3404 -0.1804
  818MOL0    Cl10340  -0.487   0.378   2.048 -0.1901  0.1397  0.6261
  818MOL0     C10341   0.541  -0.080   2.077 -0.3909 -0.6757 -0.0772
  818MOL0     C10342   0.673  -0.052   2.118  0.4453 -0.4913 -0.8068
  818MOL0     O10343   0.945  -0.071   1.997  0.0326 -0.1717  0.0204
  818MOL0     C10344   1.100   0.167   2.199 -0.1875 -0.3998  0.5008
  818MOL0     C10345   1.226   0.220   2.229 -0.4023  0.0733 -0.3445
  818MOL0     N10346   1.974   0.543   2.286  1.2700  0.9215 -1.8378
  818MOL0     N10347   2.068   0.575   2.207  0.0365  0.1717 -0.5755
  818MOL0     C10348   3.138  -0.015   2.122 -0.0103 -0.6052  1.1598
  818MOL0     C10349   3.279  -0.021   2.140  0.9281  0.3193 -0.7786
  818MOL0     C10350   3.697   0.132   2.175 -0.1336 -0.0901  0.3701
  818MOL0     C10351   3.767   0.224   2.262 -0.1459 -0.0710  0.7295
  818MOL0     C10352   3.901   0.200   2.287  0.2595 -0.5374 -0.1090
  818MOL0     C10353   3.975   0.095   2.231 -0.1285  0.4121  0.5449
  818MOL0     O10354   4.103   0.066   2.265  0.4434 -0.0237  0.7859
  818MOL0     C10355   4.160   0.121   2.382 -0.4139  0.4577  0.1206
  818MOL0     C10356   4.299   0.071   2.404  0.1256 -0.2351 -0.6845
  818MOL0     C10357   4.376   0.091   2.274 -0.5384  1.1090  0.5273
  818MOL0     C10358   4.515   0.031   2.267  0.5327  0.4708  0.6490
  818MOL0     C10359   4.615   0.104   2.343 -0.5302  0.0741 -1.7009
  818MOL0     C10360   4.715   0.160   2.390 -0.2059 -0.8379 -0.0441
  818MOL0     C10361   3.904   0.013   2.143  0.6181 -0.0499 -0.0911
  818MOL0     C10362   3.773   0.030   2.120  1.3019  0.0704  0.7007
  818MOL0     H10363   3.379   0.156   1.867  0.5282 -1.1667 -0.3265
  818MOL0     H10364   3.142   0.171   1.838 -1.2871  1.3126  1.7409
  818MOL0     H10365   2.962  -0.056   1.821  0.4777 -2.2306  2.3316
  818MOL0     H10366   2.854  -0.108   1.940 -1.1951  0.5264 -0.6404
  818MOL0     H10367   2.816   0.135   1.777  0.9011 -0.2133 -0.8648
  818MOL0     H10368   2.740  -0.014   1.747 -0.2424  0.0011  0.1890
  818MOL0     H10369   2.595  -0.002   1.954  0.3849 -0.6030 -2.5939
  818MOL0     H10370   2.712   0.114   2.017 -0.0650 -0.5408  0.8425
  818MOL0     H10371   2.638   0.273   1.830  3.2027 -2.1380  0.2685
  818MOL0     H10372   2.526   0.156   1.763 -1.0774  1.1875 -0.1923
  818MOL0     H10373   2.401   0.137   1.975  1.3373 -0.4308  0.7741
  818MOL0     H10374   2.500   0.258   2.044 -0.5387  1.9327  0.6203
  818MOL0     H10375   2.406   0.436   1.898 -0.0867 -1.0550  3.8936
  818MOL0     H10376   2.356   0.313   1.782  2.7236  0.1686 -0.2753
  818MOL0     H10377   2.148   0.357   1.876 -0.0472 -1.1415  0.4825
  818MOL0     H10378   2.206   0.254   2.009 -0.8060  1.2582  2.7425
  818MOL0     H10379   2.200   0.553   1.970 -1.1759 -1.9444 -0.5084
  818MOL0     H10380   2.303   0.471   2.101  0.0208 -2.1936 -1.1928
  818MOL0     H10381   2.041   0.252   2.141  0.4743  0.1735 -1.1409
  818MOL0     H10382   1.904   0.249   2.402  0.4473 -1.0174 -1.2715
  818MOL0     H10383   1.800   0.379   2.435  0.1591  2.5438 -2.5785
  818MOL0     H10384   1.781   0.215   2.174  1.1244  1.2687 -0.5721
  818MOL0     H10385   1.685   0.363   2.222 -0.1828 -0.2767  0.8429
  818MOL0     H10386   1.578   0.221   2.406 -2.5187 -2.1308 -0.4632
  818MOL0     H10387   1.691   0.095   2.371 -0.1111 -1.0906 -1.2052
  818MOL0     H10388   1.490   0.037   2.274 -0.6398  0.1885  1.1029
  818MOL0     H10389   1.585   0.080   2.140 -0.1218 -2.3869  1.3818
  818MOL0     H10390   1.411   0.106   1.975 -1.2769 -3.6522 -0.6297
  818MOL0     H10391   1.102  -0.011   1.822  0.1103 -1.7622 -2.0211
  818MOL0     H10392   1.280  -0.005   1.809 -0.0186 -0.6395  0.9049
  818MOL0     H10393   1.203  -0.132   1.885 -3.0649  0.2097  0.0642
  818MOL0     H10394   0.706   0.251   1.984 -1.1166  0.0835 -0.1834
  818MOL0     H10395   0.464   0.216   1.917  0.7217  1.6622  1.3660
  818MOL0     H10396   0.265   0.146   1.881  1.5329  0.0119  3.6687
  818MOL0     H10397   0.374   0.067   1.760  0.1491 -2.7267  0.3115
  818MOL0     H10398   0.150   0.029   1.682  0.8939 -1.4898 -1.2774
  818MOL0     H10399   0.197  -0.129   1.739 -0.9512  0.3086 -1.1867
  818MOL0     H10400   0.055   0.062   1.919 -1.1496 -0.2568  0.0633
  818MOL0     H10401   0.067  -0.105   1.940  1.7859 -0.1677  0.3756
  818MOL0     H10402  -0.072   0.010   1.683  0.3215 -0.2365  0.2984
  818MOL0     H10403  -0.073  -0.151   1.761  2.1537 -0.7280  0.9877
  818MOL0     H10404  -0.210  -0.095   1.917  1.1480 -0.9789 -1.6732
  818MOL0     H10405  -0.294  -0.002   1.788  2.5057 -0.5145 -4.8489
  818MOL0     H10406  -0.136   0.102   2.021 -2.4674  3.0873  1.7597
  818MOL0     H10407  -0.140   0.193   1.860 -1.7200  1.5853 -0.8204
  818MOL0     H10408  -0.389   0.099   2.014 -0.7215 -0.2009  1.6200
  818MOL0     H10409  -0.390   0.195   1.873  3.2571 -0.5345 -2.6304
  818MOL0     H10410  -0.251   0.368   1.972  0.2285  0.3258  0.5345
  818MOL0     H10411  -0.278   0.295   2.134  0.4757 -1.7018 -0.4213
  818MOL0     H10412   0.496  -0.179   2.083 -0.7966 -0.3849  2.4697
  818MOL0     H10413   0.730  -0.125   2.174  0.3054 -1.0431 -1.3728
  818MOL0     H10414   1.020   0.197   2.267 -1.5784 -0.9962 -0.8177
  818MOL0     H10415   1.236   0.268   2.326 -3.0145  1.5284 -0.6723
  818MOL0     H10416   3.065  -0.067   2.184  0.6837 -0.6971  1.9242
  818MOL0     H10417   3.311  -0.090   2.218 -1.9083 -0.3053 -0.0389
  818MOL0     H10418   3.727   0.315   2.307  1.8836  0.9063  0.6585
  818MOL0     H10419   3.959   0.273   2.343 -0.2963 -0.2048  0.0389
  818MOL0     H10420   4.186   0.223   2.352  1.1315 -0.3645 -1.5638
  818MOL0     H10421   4.102   0.100   2.473  1.0966 -4.3939  0.2506
  818MOL0     H10422   4.297  -0.035   2.433  0.2490 -0.8379 -2.7183
  818MOL0     H10423   4.351   0.122   2.485  0.6529 -4.5370  2.0467
  818MOL0     H10424   4.393   0.196   2.247  1.1643  0.7333 -0.0132
  818MOL0     H10425   4.313   0.051   2.194 -0.8956 -1.5830  2.0488
  818MOL0     H10426   4.546   0.035   2.162 -2.7733  0.2790 -0.4547
  818MOL0     H10427   4.504  -0.073   2.301  1.9583 -1.0016 -2.8531
  818MOL0     H10428   4.808   0.202   2.422 -0.4191 -2.5666  3.2569
  818MOL0     H10429   3.957  -0.063   2.086 -0.0953  0.0914 -0.9637
  818MOL0     H10430   3.731  -0.044   2.052 -1.1968  1.1688  0.9357
  819MOL0     O10431   8.271   7.873   2.941  0.2330  0.4351 -0.0924
  819MOL0     C10432   8.306   7.980   2.972  0.3990 -0.1812 -0.6931
  819MOL0     O10433   8.421   8.009   3.031 -0.2818 -0.5047  0.2566
  819MOL0     C10434   8.514   7.915   3.029 -0.7034 -0.5958  0.0435
  819MOL0     C10435   8.509   7.781   3.077  0.5409 -0.5445  0.4912
  819MOL0     C10436   8.624   7.696   3.082 -0.3199 -0.2822  0.3981
  819MOL0     C10437   8.746   7.752   3.034 -0.2670 -0.7201  0.6624
  819MOL0     O10438   8.851   7.664   3.051 -0.5710  0.1378  0.2580
  819MOL0     C10439   8.982   7.705   3.020  0.1675 -0.2628 -0.2137
  819MOL0     C10440   9.075   7.592   3.072  0.3052 -0.1128 -0.1181
  819MOL0     C10441   9.225   7.613   3.044  0.5264  0.4334  0.6803
  819MOL0     C10442   9.250   7.573   2.894 -0.5321  0.2061 -1.3547
  819MOL0     C10443   9.403   7.556   2.871 -0.7120 -0.4249  0.1978
  819MOL0     C10444   9.442   7.509   2.733  0.2578 -0.2700 -0.2586
  819MOL0     C10445   9.591   7.469   2.722  0.5330  0.2338  0.1519
  819MOL0     C10446   9.641   7.427   2.585  0.2439 -0.5603  0.3937
  819MOL0     N10447   9.654   7.285   2.564  0.3921 -0.0933 -0.2652
  819MOL0     C10448   9.769   7.213   2.543 -0.4071  0.0908  0.3315
  819MOL0     C10449   9.739   7.093   2.503  0.6561 -0.2091 -0.7700
  819MOL0     C10450   9.849   6.990   2.455  0.4707 -0.2891 -0.5090
  819MOL0     C10451   9.769   6.855   2.423 -0.1136  0.2534 -0.1392
  819MOL0     C10452   9.863   6.761   2.350 -0.3043  0.2983 -1.0243
  819MOL0     C10453   9.783   6.641   2.285 -1.0665 -0.1424  0.4666
  819MOL0     O10454   9.825   6.619   2.145 -0.3444  0.7927  0.1895
  819MOL0     C10455   9.953   6.598   2.110  0.3692 -0.1182 -1.0570
  819MOL0     C10456   9.989   6.634   1.981  0.7191 -0.1487 -0.3479
  819MOL0     C10457  10.116   6.604   1.930  0.6646 -0.2759 -0.7761
  819MOL0     C10458  10.155   6.650   1.795 -0.0743 -0.2993 -0.6633
  819MOL0     C10459  10.208   6.542   2.021  0.4025 -0.4112  0.2708
  819MOL0     C10460  10.350   6.495   1.985 -0.5455 -0.1340  0.3702
  819MOL0     O10461  10.373   6.439   1.854  0.4585 -0.3537  0.2309
  819MOL0     C10462  10.498   6.379   1.820  0.5718  1.0605  0.4685
  819MOL0     C10463  10.622   6.435   1.855 -0.2487 -0.5856 -0.5366
  819MOL0     C10464  10.740   6.361   1.818 -0.0757 -0.7411 -0.1355
  819MOL0     C10465  10.746   6.245   1.744  0.4413 -0.2384 -0.2107
  819MOL0     O10466  10.867   6.182   1.723 -0.1784 -0.4987  0.6721
  819MOL0     C10467  10.872   6.041   1.733 -0.8744 -0.3933  0.6139
  819MOL0     C10468  11.016   5.989   1.730  0.1371 -0.9676  0.0322
  819MOL0     C10469  11.108   6.048   1.842 -0.0791 -1.1560  0.3351
  819MOL0     C10470  11.245   5.993   1.854  0.0544  0.4895  0.3166
  819MOL0     C10471  11.307   6.041   1.986  0.0677  0.4848 -0.2302
  819MOL0     C10472  11.415   5.950   2.049  0.4708  0.0418 -0.0190
  819MOL0     C10473  11.465   6.017   2.182 -0.9114  0.6397  0.2969
  819MOL0     C10474  11.539   5.914   2.261  0.1914  0.3588 -0.1308
  819MOL0    Cl10475  11.683   5.873   2.175  0.2877  0.2901  0.0642
  819MOL0     C10476  10.622   6.191   1.731 -0.1208 -0.0627  0.9506
  819MOL0     C10477  10.503   6.259   1.754 -0.3940  1.0551  0.7066
  819MOL0     O10478  10.447   6.514   2.059 -0.6635 -0.2590 -0.2465
  819MOL0     C10479  10.175   6.518   2.154  0.1099  0.2307  0.0389
  819MOL0     C10480  10.048   6.553   2.198 -0.2963 -0.6816  0.1021
  819MOL0     N10481   9.597   7.095   2.484  0.2920 -0.0132  0.0561
  819MOL0     N10482   9.549   7.200   2.537 -0.2894 -0.4604 -0.2322
  819MOL0     C10483   8.748   7.882   2.978 -0.2713  0.5165  0.5952
  819MOL0     C10484   8.637   7.959   2.972  0.2523 -0.8426 -0.2570
  819MOL0     C10485   8.202   8.088   2.955 -0.6765 -0.2040 -1.1282
  819MOL0     C10486   8.232   8.217   3.002 -0.5857 -0.2397 -0.0828
  819MOL0     C10487   8.141   8.321   2.976  0.6423  0.4472 -1.6201
  819MOL0     C10488   8.024   8.315   2.894 -0.3770  0.4738  1.0842
  819MOL0     O10489   7.935   8.409   2.869  0.5936  0.1501 -0.0120
  819MOL0     C10490   7.951   8.520   2.952  0.3169 -0.2078  0.4425
  819MOL0     C10491   7.844   8.629   2.938 -0.2603  0.4886 -0.5159
  819MOL0     C10492   7.707   8.570   2.975  0.0323 -0.2820 -0.3986
  819MOL0     C10493   7.610   8.692   3.001 -0.2440 -0.5285 -0.2681
  819MOL0     C10494   7.478   8.651   3.063 -0.5524  0.1373  0.1190
  819MOL0     C10495   7.376   8.616   3.125 -0.3488  0.2076  0.2976
  819MOL0     C10496   8.002   8.185   2.848  0.9948 -0.1177 -0.3941
  819MOL0     C10497   8.087   8.078   2.879 -0.2449  0.0516 -0.1401
  819MOL0     H10498   8.410   7.746   3.104 -0.1263 -0.0753 -1.2026
  819MOL0     H10499   8.627   7.600   3.134  1.0956 -0.1735  0.5718
  819MOL0     H10500   8.998   7.714   2.912 -0.3201  0.0960 -0.2621
  819MOL0     H10501   9.011   7.802   3.063 -1.9921  0.4913 -0.3252
  819MOL0     H10502   9.061   7.580   3.179 -2.6398 -0.4493 -0.4557
  819MOL0     H10503   9.037   7.502   3.023  0.0130 -0.1915  0.2480
  819MOL0     H10504   9.267   7.711   3.066  2.1754 -0.1694  0.3825
  819MOL0     H10505   9.264   7.543   3.120  1.9335 -0.5413 -0.8671
  819MOL0     H10506   9.201   7.476   2.888 -2.5004  0.9158  1.4617
  819MOL0     H10507   9.201   7.640   2.822 -1.7139 -0.2367 -0.9934
  819MOL0     H10508   9.460   7.640   2.911  0.4135 -2.2561  2.7454
  819MOL0     H10509   9.437   7.485   2.946  2.7643 -1.1026 -1.7875
  819MOL0     H10510   9.373   7.428   2.707 -0.2781 -0.2587  1.0421
  819MOL0     H10511   9.428   7.597   2.670  1.3352  0.7509  0.8659
  819MOL0     H10512   9.641   7.557   2.762 -0.8822  1.2831 -0.3156
  819MOL0     H10513   9.601   7.383   2.789 -0.4706  1.6454  2.1975
  819MOL0     H10514   9.736   7.475   2.558  0.8149 -0.8742  1.7616
  819MOL0     H10515   9.567   7.471   2.517  0.3603  0.2271  0.7672
  819MOL0     H10516   9.867   7.258   2.552 -1.5094  2.7830  0.1421
  819MOL0     H10517   9.913   7.031   2.376  0.3853 -2.7110 -1.9073
  819MOL0     H10518   9.910   6.962   2.541 -1.2519 -0.2119  0.7927
  819MOL0     H10519   9.683   6.875   2.359  0.1682  2.1040 -0.0014
  819MOL0     H10520   9.730   6.807   2.513 -1.0503 -0.5520 -0.9499
  819MOL0     H10521   9.935   6.717   2.419 -2.2709  2.1093  2.4119
  819MOL0     H10522   9.914   6.820   2.273  2.8089 -3.3406 -2.0352
  819MOL0     H10523   9.676   6.661   2.279 -0.5671  2.4083 -2.5346
  819MOL0     H10524   9.800   6.548   2.339  1.0014 -0.9353 -1.3895
  819MOL0     H10525   9.917   6.665   1.906 -2.2100 -2.9412  1.0583
  819MOL0     H10526  10.139   6.575   1.717  0.5475 -2.5216  1.2404
  819MOL0     H10527  10.096   6.739   1.771 -1.4947 -0.8988  0.4669
  819MOL0     H10528  10.262   6.674   1.797 -0.9181  4.4078  0.0087
  819MOL0     H10529  10.645   6.525   1.912 -0.4046 -0.7026 -0.2885
  819MOL0     H10530  10.843   6.383   1.840 -0.1500 -0.7693  0.2508
  819MOL0     H10531  10.827   6.016   1.829 -3.7770  2.4219  0.1461
  819MOL0     H10532  10.822   5.987   1.651  0.7482 -0.4651 -0.3919
  819MOL0     H10533  11.015   5.880   1.738 -0.9650 -0.8533  2.6423
  819MOL0     H10534  11.058   6.021   1.635 -0.8968 -1.8640 -0.7409
  819MOL0     H10535  11.049   6.031   1.932 -2.5395 -5.8397 -1.8086
  819MOL0     H10536  11.111   6.154   1.816 -0.9112 -1.1703  0.1686
  819MOL0     H10537  11.242   5.884   1.861 -0.0797  0.5262  0.8530
  819MOL0     H10538  11.309   6.026   1.771 -0.6474  2.0632  0.3680
  819MOL0     H10539  11.226   6.045   2.058 -0.4384  0.3215 -0.7794
  819MOL0     H10540  11.344   6.144   1.983 -1.2892  0.9935 -0.4330
  819MOL0     H10541  11.371   5.852   2.074 -0.6082  0.8718  1.4877
  819MOL0     H10542  11.493   5.926   1.976 -0.8713  2.8964 -2.5848
  819MOL0     H10543  11.383   6.051   2.247  0.0963  2.1025  0.8695
  819MOL0     H10544  11.536   6.095   2.154 -0.7770  0.6047  0.5361
  819MOL0     H10545  11.485   5.819   2.268  1.6028 -0.4555  0.1406
  819MOL0     H10546  11.544   5.951   2.364  1.9641 -0.1699  0.0058
  819MOL0     H10547  10.622   6.089   1.694  1.5367  0.4703 -0.6655
  819MOL0     H10548  10.413   6.198   1.753 -0.8587  1.6707  2.1276
  819MOL0     H10549  10.234   6.471   2.231 -1.0980 -0.6408  0.4657
  819MOL0     H10550  10.028   6.533   2.302 -0.2914  0.1918  0.2834
  819MOL0     H10551   8.846   7.915   2.944  1.2373 -2.1398  1.9876
  819MOL0     H10552   8.648   8.058   2.929  0.5010  0.6192  2.8855
  819MOL0     H10553   8.322   8.242   3.058 -1.2368 -1.6311  1.6783
  819MOL0     H10554   8.182   8.409   3.024  1.9571 -0.8938 -0.1792
  819MOL0     H10555   7.971   8.482   3.053 -0.4340 -3.8084 -0.6073
  819MOL0     H10556   8.038   8.571   2.910 -1.9199  0.9296 -3.3538
  819MOL0     H10557   7.831   8.670   2.837 -2.0668 -0.6093 -0.7640
  819MOL0     H10558   7.878   8.707   3.007  3.1339 -1.1819 -0.0479
  819MOL0     H10559   7.722   8.518   3.071  0.6483  0.7213  0.0707
  819MOL0     H10560   7.681   8.487   2.909 -1.7406 -0.5934  0.6290
  819MOL0     H10561   7.574   8.736   2.908 -0.4371  1.1807  0.5798
  819MOL0     H10562   7.659   8.766   3.064  0.0751 -0.3524 -0.7184
  819MOL0     H10563   7.299   8.582   3.191 -0.1832 -1.5871 -0.3703
  819MOL0     H10564   7.920   8.169   2.778 -0.3617  1.5822  0.7394
  819MOL0     H10565   8.070   7.979   2.837  0.4690  1.0386 -2.9158
  820MOL0     O10566   7.778  10.829   8.155  0.2480  0.0809 -0.5322
  820MOL0     C10567   7.838  10.843   8.054  0.2956  0.5401  0.0886
  820MOL0     O10568   7.784  10.926   7.954 -0.2796 -0.7067  1.1939
  820MOL0     C10569   7.664  10.985   7.970 -2.0074 -1.0014 -0.4222
  820MOL0     C10570   7.558  10.909   8.001  0.3893  0.2431  0.5771
  820MOL0     C10571   7.439  10.969   7.978  0.6217 -0.2844 -0.5152
  820MOL0     C10572   7.417  11.105   7.966  0.2752 -0.6751  0.1817
  820MOL0     O10573   7.295  11.172   7.943  0.1859  0.0577  0.3742
  820MOL0     C10574   7.180  11.130   8.017 -0.3141  0.2589  0.4283
  820MOL0     C10575   7.057  11.211   7.978 -0.1581  0.0396  1.3944
  820MOL0     C10576   7.001  11.206   7.831  0.5811  0.1961  0.1288
  820MOL0     C10577   7.092  11.297   7.742  0.3291  0.0041 -0.0419
  820MOL0     C10578   7.040  11.327   7.600 -0.7749  0.1765 -0.1569
  820MOL0     C10579   6.993  11.200   7.523  0.5150 -0.0735 -0.1986
  820MOL0     C10580   7.091  11.086   7.507  1.0665 -0.0235  0.2445
  820MOL0     C10581   7.224  11.140   7.452 -0.7549  0.2030  1.1810
  820MOL0     N10582   7.313  11.027   7.428 -0.3614  0.8845 -0.4104
  820MOL0     C10583   7.430  11.015   7.497 -0.1792 -0.5483  0.6072
  820MOL0     C10584   7.470  10.890   7.460  0.2180 -0.5279 -0.6709
  820MOL0     C10585   7.601  10.837   7.510  0.5277  1.0228  0.3544
  820MOL0     C10586   7.588  10.810   7.664 -0.7855  0.6532 -0.8080
  820MOL0     C10587   7.537  10.664   7.673  0.3052 -0.0893  0.0737
  820MOL0     C10588   7.629  10.548   7.631  1.0520  0.5536 -0.3360
  820MOL0     O10589   7.751  10.571   7.715 -0.1158  0.4463 -0.2719
  820MOL0     C10590   7.844  10.473   7.722  0.2755  0.4106  0.3412
  820MOL0     C10591   7.819  10.342   7.670  0.1584 -0.0008 -0.5612
  820MOL0     C10592   7.918  10.240   7.678  0.1864  0.0515  0.6935
  820MOL0     C10593   7.883  10.110   7.610 -0.6068 -0.1873 -0.0116
  820MOL0     C10594   8.041  10.272   7.739  0.1504 -0.1625  1.5519
  820MOL0     C10595   8.156  10.187   7.752 -0.0634  0.3689 -0.4875
  820MOL0     O10596   8.241  10.209   7.855  0.1037 -0.2688  0.2067
  820MOL0     C10597   8.348  10.136   7.870  0.0505 -0.8445 -0.6710
  820MOL0     C10598   8.385  10.116   7.995  0.2820 -1.0547  1.0858
  820MOL0     C10599   8.504  10.042   8.022  0.0064 -0.0061 -0.0725
  820MOL0     C10600   8.593   9.999   7.924  0.7242  0.1500 -0.6463
  820MOL0     O10601   8.699   9.924   7.936 -1.0958  0.4462 -0.4090
  820MOL0     C10602   8.711   9.857   8.068  0.2459  0.1821  0.1701
  820MOL0     C10603   8.844   9.782   8.076  0.4972 -0.5559  0.4819
  820MOL0     C10604   8.951   9.885   8.051  0.3096  0.0931 -0.4131
  820MOL0     C10605   9.084   9.827   8.093 -0.9933 -0.7582  0.4027
  820MOL0     C10606   9.194   9.913   8.026  0.5733  0.3689  0.2736
  820MOL0     C10607   9.347   9.880   8.037  0.7671  0.2053  0.1577
  820MOL0     C10608   9.434  10.004   8.000  0.7952  0.2973 -0.9057
  820MOL0     C10609   9.571   9.979   8.033 -0.1628  0.1520 -0.2964
  820MOL0    Cl10610   9.662  10.137   8.027  0.3684  0.7730  0.2894
  820MOL0     C10611   8.564  10.037   7.795 -0.4273 -0.5174  0.4941
  820MOL0     C10612   8.444  10.101   7.769  0.7563 -0.3143 -0.0826
  820MOL0     O10613   8.179  10.109   7.663 -0.1678  0.4139 -0.4283
  820MOL0     C10614   8.066  10.402   7.785 -0.2017  0.1052  0.5612
  820MOL0     C10615   7.967  10.502   7.774 -0.7492  0.5811 -0.4933
  820MOL0     N10616   7.371  10.831   7.387 -0.4687 -0.8885 -0.5011
  820MOL0     N10617   7.273  10.914   7.373  0.1747  0.2865 -0.0349
  820MOL0     C10618   7.533  11.180   7.942 -0.2595  0.3343 -0.2563
  820MOL0     C10619   7.660  11.123   7.932  0.0255  0.9386 -0.0558
  820MOL0     C10620   7.973  10.786   8.025  0.2842 -0.2563  0.3812
  820MOL0     C10621   8.023  10.662   8.073 -0.3348  0.2914 -0.1833
  820MOL0     C10622   8.153  10.628   8.044 -0.2983 -0.5157  0.5538
  820MOL0     C10623   8.232  10.702   7.955 -0.5832  0.1851 -0.3860
  820MOL0     O10624   8.362  10.661   7.942  0.0160  0.2814  0.0093
  820MOL0     C10625   8.444  10.694   7.829  0.1502  0.0488 -0.0881
  820MOL0     C10626   8.579  10.618   7.843  0.1632 -0.2862  1.0124
  820MOL0     C10627   8.553  10.464   7.839  0.1274 -0.2650  0.0476
  820MOL0     C10628   8.679  10.376   7.853  0.0921 -0.0395  0.6547
  820MOL0     C10629   8.752  10.354   7.719  0.7016 -1.1241 -0.0481
  820MOL0     C10630   8.803  10.359   7.606 -0.4522  0.1813 -0.0480
  820MOL0     C10631   8.181  10.824   7.905 -0.0285  0.7851 -0.5896
  820MOL0     C10632   8.049  10.863   7.935  0.0562  0.1886  0.4959
  820MOL0     H10633   7.551  10.802   8.020 -0.6846  0.4168  1.2636
  820MOL0     H10634   7.351  10.906   7.984  0.6579 -0.2847  0.0495
  820MOL0     H10635   7.153  11.032   7.977  0.0051  1.5718 -3.4521
  820MOL0     H10636   7.186  11.132   8.126 -1.9773  0.5176  0.5358
  820MOL0     H10637   6.981  11.193   8.055 -1.3865  1.1365  0.4799
  820MOL0     H10638   7.097  11.313   7.987  4.7153 -1.5488  0.5211
  820MOL0     H10639   6.987  11.101   7.803 -3.1609 -0.0290  2.0977
  820MOL0     H10640   6.899  11.244   7.843  0.8215  0.6516  0.8393
  820MOL0     H10641   7.115  11.396   7.783 -0.6422  0.8085 -1.3232
  820MOL0     H10642   7.183  11.238   7.733 -0.6558 -1.4580 -1.0407
  820MOL0     H10643   6.959  11.399   7.613 -1.4063 -0.5587  0.0685
  820MOL0     H10644   7.124  11.375   7.548  0.6347 -0.8152  1.1167
  820MOL0     H10645   6.912  11.161   7.586 -1.7128 -0.0264 -2.8669
  820MOL0     H10646   6.945  11.226   7.428 -1.1596 -1.9790  0.0486
  820MOL0     H10647   7.116  11.031   7.598 -0.5590 -2.0806 -0.4415
  820MOL0     H10648   7.047  11.011   7.440  0.8604  1.2689 -1.1153
  820MOL0     H10649   7.273  11.204   7.525 -1.8303  0.0964  2.0228
  820MOL0     H10650   7.206  11.203   7.364  1.3845 -1.0852 -0.2713
  820MOL0     H10651   7.490  11.088   7.550  2.9661 -3.9360  2.0860
  820MOL0     H10652   7.638  10.750   7.456  2.2639  2.5983 -1.1178
  820MOL0     H10653   7.678  10.914   7.503 -0.3348  1.7610 -3.8590
  820MOL0     H10654   7.524  10.884   7.712 -0.1360  2.3557 -2.4659
  820MOL0     H10655   7.689  10.812   7.705  0.2035 -0.7948 -2.9859
  820MOL0     H10656   7.436  10.652   7.633  0.7193  0.0760 -1.0558
  820MOL0     H10657   7.516  10.659   7.781  0.8774 -1.8452  0.1449
  820MOL0     H10658   7.657  10.558   7.526  0.4517  0.4742 -0.5084
  820MOL0     H10659   7.582  10.452   7.655  0.6491  0.6872 -0.5883
  820MOL0     H10660   7.727  10.313   7.619 -0.3110  1.7084 -0.7512
  820MOL0     H10661   7.926  10.027   7.667  0.0635  0.5665  0.6010
  820MOL0     H10662   7.776  10.101   7.586 -0.3136 -0.6410 -1.2490
  820MOL0     H10663   7.937  10.118   7.515  0.6160 -4.8867  0.0307
  820MOL0     H10664   8.307  10.145   8.065 -0.3165  0.1483 -0.0447
  820MOL0     H10665   8.518  10.016   8.126  0.3935  0.3781 -0.0217
  820MOL0     H10666   8.708   9.925   8.153  0.7390 -0.5552  0.7854
  820MOL0     H10667   8.618   9.800   8.066 -1.4092  2.7002  0.0699
  820MOL0     H10668   8.856   9.738   8.176  1.9786  2.1489  1.6181
  820MOL0     H10669   8.838   9.696   8.009  0.3159  0.1173 -0.3784
  820MOL0     H10670   8.931   9.978   8.106  2.0149  2.1360 -2.9460
  820MOL0     H10671   8.951   9.899   7.942 -1.8293  0.6296 -0.3822
  820MOL0     H10672   9.083   9.819   8.202  2.9295 -2.2191  0.4724
  820MOL0     H10673   9.100   9.726   8.055  5.7561  0.3740 -1.0397
  820MOL0     H10674   9.182  10.019   8.051 -0.9344  0.7219 -1.6921
  820MOL0     H10675   9.178   9.902   7.919 -1.0380 -2.2666  0.6872
  820MOL0     H10676   9.364   9.859   8.143 -2.6667  1.4752  1.0899
  820MOL0     H10677   9.369   9.789   7.981  2.4351 -0.2294  1.4328
  820MOL0     H10678   9.396  10.093   8.052 -0.9260 -0.3074 -1.0355
  820MOL0     H10679   9.425  10.037   7.896  0.0995  2.7800 -0.1389
  820MOL0     H10680   9.614   9.899   7.972 -1.1812 -1.9199  1.5810
  820MOL0     H10681   9.581   9.939   8.134 -0.1957  1.8971  0.4358
  820MOL0     H10682   8.622  10.003   7.710  2.0166  1.3577  1.2611
  820MOL0     H10683   8.412  10.131   7.670 -1.2137  0.7029  0.8107
  820MOL0     H10684   8.163  10.425   7.828  0.0051 -0.1213  0.2321
  820MOL0     H10685   7.983  10.604   7.805 -1.2298  0.2740  0.8449
  820MOL0     H10686   7.544  11.288   7.930  0.0163  0.0138 -3.6805
  820MOL0     H10687   7.750  11.184   7.933  1.0094 -0.4879  0.1727
  820MOL0     H10688   7.962  10.598   8.136  0.4683  2.0158  2.5320
  820MOL0     H10689   8.185  10.527   8.069  0.4082 -0.3895  0.1974
  820MOL0     H10690   8.396  10.678   7.732  0.8243  1.3673 -0.6710
  820MOL0     H10691   8.458  10.802   7.835 -2.4751  0.8754 -4.3953
  820MOL0     H10692   8.629  10.633   7.939 -0.3564  0.3305  1.1945
  820MOL0     H10693   8.642  10.642   7.758 -1.0341 -0.0022  0.1830
  820MOL0     H10694   8.497  10.440   7.748  1.9905  0.2389 -1.2965
  820MOL0     H10695   8.489  10.444   7.924  0.2599 -1.5879 -0.1366
  820MOL0     H10696   8.638  10.285   7.897 -1.2883  0.0876 -0.3125
  820MOL0     H10697   8.753  10.424   7.918  1.8122  1.5461 -2.2261
  820MOL0     H10698   8.861  10.379   7.518 -1.4021  0.7602 -0.5636
  820MOL0     H10699   8.238  10.884   7.835 -1.4943  2.4363 -0.4594
  820MOL0     H10700   8.011  10.961   7.908  1.3951  0.8501  0.9359
  821MOL0     O10701   5.195   9.287   8.888  0.6653 -0.1780 -0.5108
  821MOL0     C10702   5.155   9.184   8.939 -0.2756  0.1327 -0.0687
  821MOL0     O10703   5.020   9.139   8.946  0.2709  0.4922  0.0600
  821MOL0     C10704   4.914   9.204   8.882 -0.0654 -0.0272 -0.2345
  821MOL0     C10705   4.779   9.179   8.917  0.3596  0.7542  0.2861
  821MOL0     C10706   4.665   9.222   8.846  0.5280  1.1559  0.4631
  821MOL0     C10707   4.687   9.296   8.731 -0.4305 -0.8842 -0.5682
  821MOL0     O10708   4.580   9.337   8.659  0.7098  0.3128 -0.3832
  821MOL0     C10709   4.604   9.425   8.553 -0.3497  0.3098 -0.0630
  821MOL0     C10710   4.483   9.470   8.474 -0.6920  0.2607 -0.4693
  821MOL0     C10711   4.382   9.551   8.558  0.2893 -0.6962 -0.3373
  821MOL0     C10712   4.315   9.493   8.681 -0.3275  0.1099 -0.0451
  821MOL0     C10713   4.164   9.515   8.691 -0.1543 -1.2364  0.2643
  821MOL0     C10714   4.105   9.454   8.821  0.1166 -0.2122 -0.3235
  821MOL0     C10715   3.951   9.460   8.832 -0.2073  0.4288 -0.1983
  821MOL0     C10716   3.875   9.380   8.717  0.0632  0.4141  0.3504
  821MOL0     N10717   3.729   9.382   8.735 -0.2536 -0.0144  0.7282
  821MOL0     C10718   3.663   9.473   8.818  0.2350 -0.3821 -0.0878
  821MOL0     C10719   3.538   9.430   8.805 -0.2192  0.5088 -0.2321
  821MOL0     C10720   3.409   9.483   8.874 -0.4013  0.4746  0.6435
  821MOL0     C10721   3.364   9.618   8.810  0.2693 -0.7273  0.2219
  821MOL0     C10722   3.280   9.701   8.904 -0.8180 -0.6620 -0.0217
  821MOL0     C10723   3.216   9.822   8.823  0.2631  0.2597 -0.7776
  821MOL0     O10724   3.121   9.898   8.907 -0.7858  0.3018 -0.9443
  821MOL0     C10725   3.069  10.009   8.852  0.0355  0.0598  0.0703
  821MOL0     C10726   3.135  10.096   8.767 -0.2722  0.6432  1.0357
  821MOL0     C10727   3.060  10.197   8.690  0.0632  0.3038  0.8208
  821MOL0     C10728   3.133  10.274   8.582  0.0035  0.5486 -1.0101
  821MOL0     C10729   2.926  10.209   8.721 -0.1328 -1.0072  0.5599
  821MOL0     C10730   2.828  10.302   8.657 -0.2930 -0.4889  0.4772
  821MOL0     O10731   2.694  10.273   8.666 -0.1478 -1.0222  0.0327
  821MOL0     C10732   2.601  10.377   8.648 -0.0572  0.3644 -0.6303
  821MOL0     C10733   2.581  10.483   8.732  0.1417 -0.3129 -0.2160
  821MOL0     C10734   2.474  10.576   8.712  0.3176  0.3167 -0.1509
  821MOL0     C10735   2.386  10.560   8.612  0.3534  0.1209 -0.3264
  821MOL0     O10736   2.278  10.650   8.601 -0.2199  0.2637 -0.4881
  821MOL0     C10737   2.159  10.596   8.660  0.5024  0.3304 -0.5624
  821MOL0     C10738   2.062  10.521   8.568 -0.3475 -0.3443  0.1969
  821MOL0     C10739   1.981  10.620   8.474 -0.0993 -0.3174 -0.4335
  821MOL0     C10740   1.912  10.545   8.354 -1.0608  0.1217 -0.3185
  821MOL0     C10741   1.815  10.642   8.300 -0.0028  0.2447 -0.0114
  821MOL0     C10742   1.707  10.571   8.212  0.8188 -0.6817 -0.1288
  821MOL0     C10743   1.628  10.677   8.139 -1.0696 -0.2336 -1.0317
  821MOL0     C10744   1.508  10.624   8.048 -0.2114  0.1007 -0.3078
  821MOL0    Cl10745   1.441  10.769   7.972 -0.4444  0.2164 -0.1142
  821MOL0     C10746   2.408  10.457   8.523  0.6474  0.8715 -0.1180
  821MOL0     C10747   2.509  10.361   8.544  0.4599  0.2852 -0.1901
  821MOL0     O10748   2.874  10.406   8.603  0.2684  0.4313 -0.2722
  821MOL0     C10749   2.870  10.138   8.825 -0.4921  0.0857  0.0621
  821MOL0     C10750   2.940  10.040   8.895 -0.0299 -0.2036  0.0793
  821MOL0     N10751   3.518   9.342   8.698  0.3161  0.5087 -0.0841
  821MOL0     N10752   3.637   9.306   8.659  0.1817  0.2053  0.1320
  821MOL0     C10753   4.815   9.333   8.698  0.0042  0.3276  0.5244
  821MOL0     C10754   4.930   9.283   8.771  0.1479  0.2620  0.0294
  821MOL0     C10755   5.262   9.113   9.011 -0.3153 -0.0071  0.1146
  821MOL0     C10756   5.235   9.004   9.083  0.1124  0.2212 -0.5385
  821MOL0     C10757   5.340   8.929   9.139  0.4621  0.1876  0.6656
  821MOL0     C10758   5.474   8.973   9.133  0.2100 -0.8640 -0.4110
  821MOL0     O10759   5.565   8.898   9.207 -0.3158 -0.0604 -0.6043
  821MOL0     C10760   5.706   8.919   9.200 -0.3435  0.6301 -0.3917
  821MOL0     C10761   5.778   8.798   9.272 -1.3360  0.1617 -0.0996
  821MOL0     C10762   5.784   8.814   9.424  0.3365  0.4472  1.1030
  821MOL0     C10763   5.903   8.879   9.492 -0.1603  0.1272  0.2544
  821MOL0     C10764   5.918   9.020   9.468  0.4880 -0.2606 -0.7811
  821MOL0     C10765   5.937   9.138   9.459 -0.2426  1.0774 -0.6705
  821MOL0     C10766   5.503   9.088   9.063  0.5241 -1.2152  0.4065
  821MOL0     C10767   5.401   9.158   9.005 -0.9412 -0.2730 -0.6708
  821MOL0     H10768   4.766   9.130   9.013  1.0622 -0.4991 -0.2340
  821MOL0     H10769   4.567   9.188   8.878  0.6471 -0.8980 -1.1109
  821MOL0     H10770   4.656   9.514   8.589  0.3944  1.1311 -2.8676
  821MOL0     H10771   4.667   9.381   8.474 -0.3385  0.9854 -0.4382
  821MOL0     H10772   4.517   9.514   8.380  0.0345  0.4587 -0.1165
  821MOL0     H10773   4.432   9.380   8.440  0.8987 -0.3041 -1.4342
  821MOL0     H10774   4.430   9.642   8.595 -0.5567 -0.9032  1.3250
  821MOL0     H10775   4.307   9.580   8.484  2.5832  0.3375 -2.4354
  821MOL0     H10776   4.339   9.386   8.687  0.3332  0.3148  1.6884
  821MOL0     H10777   4.365   9.545   8.763 -1.0387  1.0459 -0.1923
  821MOL0     H10778   4.139   9.621   8.695  5.7121  0.6389 -2.2149
  821MOL0     H10779   4.118   9.468   8.603  0.9858 -0.1319 -0.9579
  821MOL0     H10780   4.143   9.351   8.829  1.3937  0.1978 -0.8927
  821MOL0     H10781   4.140   9.509   8.908  3.2498 -6.5166  3.1177
  821MOL0     H10782   3.918   9.426   8.930  0.5387 -2.1406 -0.7596
  821MOL0     H10783   3.929   9.567   8.831  3.5056  1.3405  0.9334
  821MOL0     H10784   3.915   9.278   8.710  0.9948  0.6983  1.2554
  821MOL0     H10785   3.889   9.428   8.619 -0.5906  2.2971  1.1271
  821MOL0     H10786   3.696   9.550   8.886 -1.8884  0.9143 -0.4345
  821MOL0     H10787   3.325   9.414   8.870  1.2268 -1.6313  1.2000
  821MOL0     H10788   3.434   9.497   8.980 -0.5724 -0.9514  0.8845
  821MOL0     H10789   3.311   9.600   8.716 -4.8067  1.6817  2.2492
  821MOL0     H10790   3.453   9.675   8.783 -0.3374  0.2634  0.2653
  821MOL0     H10791   3.333   9.737   8.993  2.9707 -0.8197 -2.0017
  821MOL0     H10792   3.201   9.633   8.940 -0.1336 -1.4244  0.0777
  821MOL0     H10793   3.169   9.787   8.730  1.3362  0.5433 -1.4436
  821MOL0     H10794   3.298   9.879   8.780  1.5302 -1.8812 -1.3575
  821MOL0     H10795   3.242  10.099   8.751 -0.1451 -0.4673  1.5966
  821MOL0     H10796   3.228  10.227   8.557  1.8259  2.0538  2.4120
  821MOL0     H10797   3.065  10.270   8.496 -0.6113  1.2802 -0.5793
  821MOL0     H10798   3.151  10.376   8.617 -1.0048  0.3564  0.1895
  821MOL0     H10799   2.638  10.498   8.823 -2.3970  0.5131  1.3430
  821MOL0     H10800   2.451  10.643   8.795 -0.9891 -0.8878  0.5167
  821MOL0     H10801   2.183  10.524   8.739  1.5077 -0.1242 -1.2590
  821MOL0     H10802   2.103  10.678   8.705 -0.8296  0.6581 -2.7342
  821MOL0     H10803   2.117  10.455   8.500  1.9938  1.0330  0.6450
  821MOL0     H10804   1.985  10.477   8.632 -0.8460 -1.9615 -1.4420
  821MOL0     H10805   2.041  10.702   8.434 -2.4297  0.2184 -3.0968
  821MOL0     H10806   1.901  10.657   8.539 -0.3467  0.3433 -1.0983
  821MOL0     H10807   1.994  10.527   8.283 -2.3655  0.7497 -2.0518
  821MOL0     H10808   1.867  10.452   8.391 -0.9341  1.1310  2.5596
  821MOL0     H10809   1.857  10.729   8.249  1.3023  0.1926  0.9398
  821MOL0     H10810   1.753  10.681   8.382 -1.5147 -3.2622  0.7026
  821MOL0     H10811   1.759  10.511   8.136 -0.1397  0.8606 -2.1096
  821MOL0     H10812   1.635  10.515   8.272  0.9232 -2.0001 -1.1711
  821MOL0     H10813   1.691  10.731   8.067 -0.1561  1.5935  1.0103
  821MOL0     H10814   1.583  10.748   8.209 -2.5792 -0.6879 -1.5132
  821MOL0     H10815   1.425  10.589   8.111  0.6221  2.7975  2.5601
  821MOL0     H10816   1.536  10.548   7.975  2.6702 -1.3213  2.0318
  821MOL0     H10817   2.336  10.443   8.443  0.4345 -1.4967  0.3977
  821MOL0     H10818   2.501  10.279   8.474 -2.4483 -2.0285  2.5514
  821MOL0     H10819   2.772  10.162   8.865  0.2606 -0.1958  2.2450
  821MOL0     H10820   2.896   9.973   8.969 -0.6359 -2.5329 -2.2097
  821MOL0     H10821   4.846   9.385   8.608  0.6783 -0.3788  0.3380
  821MOL0     H10822   5.027   9.312   8.732  0.1227 -1.1509 -1.1928
  821MOL0     H10823   5.136   8.960   9.097  1.4020 -2.4107  1.1416
  821MOL0     H10824   5.322   8.832   9.186  1.6600  0.1823  1.1378
  821MOL0     H10825   5.729   8.931   9.094  3.4390  0.5263  0.2717
  821MOL0     H10826   5.748   9.010   9.245  2.2716 -0.5495 -0.2842
  821MOL0     H10827   5.878   8.786   9.230 -2.3519  1.7583 -3.3095
  821MOL0     H10828   5.734   8.700   9.247  1.2006 -0.8349 -1.0178
  821MOL0     H10829   5.784   8.712   9.464  0.2618 -1.2102 -2.7163
  821MOL0     H10830   5.689   8.858   9.457 -0.1603 -0.3628  0.8018
  821MOL0     H10831   5.987   8.821   9.454 -0.5025 -0.6548  0.6634
  821MOL0     H10832   5.902   8.865   9.600  1.3615  0.0340  0.2699
  821MOL0     H10833   5.933   9.245   9.446 -0.2392  1.0711 -0.7224
  821MOL0     H10834   5.606   9.123   9.066  0.5622 -1.3735  2.1396
  821MOL0     H10835   5.431   9.256   8.969  2.4650 -0.4876  1.0906
  822MOL0     O10836   6.200   5.477   8.128  0.5726 -0.4627 -0.3338
  822MOL0     C10837   6.234   5.377   8.188  0.4877 -0.3555  0.5626
  822MOL0     O10838   6.162   5.323   8.290 -0.8949  0.1061 -0.6466
  822MOL0     C10839   6.046   5.390   8.336 -0.4901 -0.5768  0.2410
  822MOL0     C10840   6.059   5.506   8.416  0.3404  0.2553 -0.7279
  822MOL0     C10841   5.942   5.569   8.462  0.4732 -1.2976 -0.3784
  822MOL0     C10842   5.812   5.515   8.443  0.6642 -0.8357 -0.8206
  822MOL0     O10843   5.691   5.563   8.487 -0.2000 -0.0979 -0.8424
  822MOL0     C10844   5.697   5.663   8.595 -0.9015  0.6530 -0.3828
  822MOL0     C10845   5.568   5.695   8.659  0.0574 -1.1583 -0.5791
  822MOL0     C10846   5.470   5.772   8.572 -0.1741 -0.0839  0.2538
  822MOL0     C10847   5.329   5.786   8.640 -0.7832  0.2225  1.0635
  822MOL0     C10848   5.255   5.905   8.559  0.8332 -0.2523 -0.5840
  822MOL0     C10849   5.146   5.991   8.623  1.1247 -0.0687 -0.5663
  822MOL0     C10850   5.082   6.085   8.527 -0.2164 -0.0353  0.2487
  822MOL0     C10851   5.039   6.029   8.378 -0.8216  0.4832 -0.2475
  822MOL0     N10852   4.932   6.113   8.318  0.0478 -0.0878  0.4040
  822MOL0     C10853   4.926   6.251   8.316  0.0886 -0.0452  0.1655
  822MOL0     C10854   4.841   6.281   8.216  1.0514  0.4295  0.6457
  822MOL0     C10855   4.816   6.428   8.185 -0.4888 -0.2531  0.3458
  822MOL0     C10856   4.722   6.502   8.282 -0.1638  0.0961 -0.0082
  822MOL0     C10857   4.597   6.438   8.274  0.7517  0.1292  0.6482
  822MOL0     C10858   4.486   6.514   8.353  0.5107  0.7630  0.3606
  822MOL0     O10859   4.504   6.504   8.493 -0.4498  0.4536  0.3398
  822MOL0     C10860   4.395   6.546   8.569  0.7237  0.3071  0.6992
  822MOL0     C10861   4.420   6.576   8.703 -0.0539 -0.5194 -0.2957
  822MOL0     C10862   4.329   6.615   8.799  0.1676  0.2874 -0.0895
  822MOL0     C10863   4.381   6.654   8.939  0.0781  1.4505 -0.0868
  822MOL0     C10864   4.193   6.611   8.762  0.8658 -0.3132  0.1171
  822MOL0     C10865   4.083   6.662   8.845  0.1690 -0.0330  0.6923
  822MOL0     O10866   4.120   6.768   8.921 -0.3125  0.4828  0.2276
  822MOL0     C10867   4.043   6.822   9.022 -0.2604  1.8744 -0.3471
  822MOL0     C10868   3.908   6.875   9.003 -0.0472  0.0750 -0.2651
  822MOL0     C10869   3.846   6.952   9.090 -0.1228  0.1932 -0.2870
  822MOL0     C10870   3.892   6.966   9.220 -0.2070 -0.2527 -0.0151
  822MOL0     O10871   3.825   7.035   9.320 -0.7319  0.6218  0.2277
  822MOL0     C10872   3.675   7.045   9.303 -0.6027  0.6878 -0.1922
  822MOL0     C10873   3.632   7.182   9.250 -0.1720 -0.0871  0.0442
  822MOL0     C10874   3.487   7.185   9.225  0.9178 -0.3240  0.1923
  822MOL0     C10875   3.431   7.308   9.152  0.3874  0.5030 -0.0228
  822MOL0     C10876   3.286   7.291   9.129 -0.2161  0.3180  0.0608
  822MOL0     C10877   3.223   7.434   9.102 -0.2797  0.4913  0.3429
  822MOL0     C10878   3.071   7.404   9.088  0.8487 -0.2213 -0.0132
  822MOL0     C10879   2.989   7.525   9.046  0.2238  0.2145 -0.1299
  822MOL0    Cl10880   2.815   7.486   9.080 -0.0437  0.2271  0.2292
  822MOL0     C10881   4.022   6.919   9.243  0.0462  1.2192 -0.6326
  822MOL0     C10882   4.098   6.846   9.151 -0.0382  0.7512  0.2160
  822MOL0     O10883   3.971   6.612   8.839  0.6378  0.3814  0.2292
  822MOL0     C10884   4.161   6.560   8.628  0.3688  0.2459 -1.2267
  822MOL0     C10885   4.261   6.528   8.535 -0.3340 -0.9634 -0.1143
  822MOL0     N10886   4.799   6.161   8.155 -0.4312  0.4226  0.4483
  822MOL0     N10887   4.852   6.061   8.221  0.5738  0.3432 -0.1375
  822MOL0     C10888   5.803   5.400   8.360  0.9029  0.4326  0.0308
  822MOL0     C10889   5.920   5.341   8.305  0.5792  0.5566  0.4460
  822MOL0     C10890   6.362   5.316   8.143 -0.3403  0.0259  0.0099
  822MOL0     C10891   6.403   5.192   8.188 -0.0565 -0.0165  0.4149
  822MOL0     C10892   6.522   5.133   8.160 -0.5400  0.0311 -0.2542
  822MOL0     C10893   6.618   5.204   8.090  0.3279  0.3425  0.1408
  822MOL0     O10894   6.741   5.153   8.064  0.3549 -0.1459  0.3928
  822MOL0     C10895   6.843   5.232   8.004  0.9724 -0.1792 -0.0160
  822MOL0     C10896   6.890   5.337   8.103  0.8305  0.0715 -0.3499
  822MOL0     C10897   6.982   5.444   8.039 -0.2552  0.3022  0.3306
  822MOL0     C10898   7.123   5.388   8.001 -0.0562  0.0678 -0.4592
  822MOL0     C10899   7.218   5.479   7.930  0.8937 -0.1946  0.1874
  822MOL0     C10900   7.293   5.549   7.863  1.3953 -0.0303  0.7082
  822MOL0     C10901   6.578   5.332   8.042 -0.2738  0.3059  0.3066
  822MOL0     C10902   6.456   5.380   8.066  0.7097 -0.1774  0.4284
  822MOL0     H10903   6.160   5.538   8.440  0.3461 -2.3928  3.8786
  822MOL0     H10904   5.952   5.665   8.511 -0.7590 -2.4758  2.3540
  822MOL0     H10905   5.764   5.627   8.674 -0.3955 -0.9276 -1.4817
  822MOL0     H10906   5.742   5.747   8.541  2.2215 -0.7291 -0.1986
  822MOL0     H10907   5.524   5.595   8.667 -1.3027 -0.8958 -3.3895
  822MOL0     H10908   5.577   5.736   8.760 -2.7529  1.3084 -1.1805
  822MOL0     H10909   5.515   5.871   8.569  0.2622 -0.3131 -1.3141
  822MOL0     H10910   5.463   5.728   8.472  1.9828  3.0942 -1.4725
  822MOL0     H10911   5.275   5.691   8.643 -1.1475  0.4549  2.7293
  822MOL0     H10912   5.342   5.808   8.746  0.6315  0.3009  0.8929
  822MOL0     H10913   5.326   5.966   8.502 -1.9884  1.1480 -2.8616
  822MOL0     H10914   5.210   5.856   8.473  2.6733  1.2281 -2.5024
  822MOL0     H10915   5.069   5.937   8.678 -2.3002  1.8642 -3.0776
  822MOL0     H10916   5.176   6.063   8.700 -3.1414 -1.0845  2.4174
  822MOL0     H10917   4.989   6.122   8.572  0.7473 -0.0803  2.3673
  822MOL0     H10918   5.156   6.162   8.508  2.7429 -2.6711  0.2227
  822MOL0     H10919   4.992   5.931   8.387 -1.2738  0.6483 -0.7673
  822MOL0     H10920   5.125   6.020   8.311 -0.2328 -0.4297  0.5975
  822MOL0     H10921   4.981   6.316   8.384  0.4079  0.1853 -0.3021
  822MOL0     H10922   4.913   6.478   8.185 -1.1757  1.1691  1.6613
  822MOL0     H10923   4.788   6.435   8.080 -0.1876 -0.1406  0.2709
  822MOL0     H10924   4.707   6.607   8.256  0.6915  0.3326  0.4181
  822MOL0     H10925   4.773   6.505   8.379  2.5142  0.2164 -1.3401
  822MOL0     H10926   4.594   6.336   8.311 -2.2788 -0.2242 -0.3381
  822MOL0     H10927   4.559   6.433   8.172 -0.6218 -4.1382  1.1994
  822MOL0     H10928   4.397   6.468   8.310  1.9038 -0.7950 -0.9592
  822MOL0     H10929   4.481   6.622   8.337  0.9738  0.6894 -0.2955
  822MOL0     H10930   4.526   6.568   8.727 -0.2825 -0.8844  0.6193
  822MOL0     H10931   4.390   6.763   8.937 -2.6246  1.7213 -0.6059
  822MOL0     H10932   4.315   6.625   9.021 -1.4240  1.4570 -1.2574
  822MOL0     H10933   4.475   6.604   8.964 -0.4234  1.0939  1.1608
  822MOL0     H10934   3.867   6.851   8.906 -0.4990 -1.1839  0.2160
  822MOL0     H10935   3.751   6.997   9.063 -1.7999 -0.6205  3.5145
  822MOL0     H10936   3.628   6.972   9.237  2.3977  0.2906 -2.1074
  822MOL0     H10937   3.644   7.017   9.405  1.7864 -1.8383 -0.0178
  822MOL0     H10938   3.659   7.255   9.326  2.4695 -0.6969 -0.2157
  822MOL0     H10939   3.693   7.206   9.162 -1.7285 -3.5259 -2.1998
  822MOL0     H10940   3.431   7.153   9.313 -1.0385  1.4334 -0.3221
  822MOL0     H10941   3.468   7.101   9.158  0.7543 -1.0121  1.0913
  822MOL0     H10942   3.459   7.394   9.214  0.2646 -0.3493  1.2504
  822MOL0     H10943   3.473   7.307   9.051 -0.1559 -2.0711 -0.2893
  822MOL0     H10944   3.235   7.233   9.207  0.9056  0.9830  1.3240
  822MOL0     H10945   3.277   7.219   9.047  0.9977 -2.0031  1.8246
  822MOL0     H10946   3.243   7.488   9.195 -1.4825 -1.2646  1.7141
  822MOL0     H10947   3.236   7.487   9.008 -0.1773  0.1673  0.1728
  822MOL0     H10948   3.038   7.368   9.186 -1.4794 -0.0929 -0.6895
  822MOL0     H10949   3.066   7.332   9.006 -2.0275  2.0604 -2.0357
  822MOL0     H10950   3.005   7.550   8.941 -1.6889  1.3505 -0.1852
  822MOL0     H10951   3.011   7.608   9.113 -0.4727 -1.0687  1.8036
  822MOL0     H10952   4.062   6.931   9.344 -0.4952 -3.2154  0.3179
  822MOL0     H10953   4.197   6.803   9.163  0.2910  1.3560 -0.2440
  822MOL0     H10954   4.057   6.560   8.596  0.6368  2.5141 -2.3075
  822MOL0     H10955   4.228   6.504   8.434 -0.9918  0.7838 -0.3390
  822MOL0     H10956   5.709   5.353   8.334  1.3219 -0.2507 -0.2680
  822MOL0     H10957   5.914   5.247   8.250 -0.9351  0.9121 -0.0397
  822MOL0     H10958   6.320   5.135   8.229 -1.0430 -0.9928 -2.6561
  822MOL0     H10959   6.551   5.033   8.191  3.7219  1.1729  0.0275
  822MOL0     H10960   6.935   5.174   7.990  1.1932 -0.1519  1.1689
  822MOL0     H10961   6.805   5.266   7.907 -2.3192 -3.3328 -0.0703
  822MOL0     H10962   6.942   5.287   8.185  0.7619 -0.1624 -0.4469
  822MOL0     H10963   6.806   5.392   8.147  1.3680 -0.5691  1.5706
  822MOL0     H10964   6.987   5.529   8.108 -0.9653  1.3380 -0.8572
  822MOL0     H10965   6.931   5.479   7.949  0.1586  0.8333  0.3005
  822MOL0     H10966   7.108   5.297   7.943 -0.6562  0.2533 -0.6005
  822MOL0     H10967   7.178   5.376   8.095 -0.8829  0.1536  0.0524
  822MOL0     H10968   7.355   5.611   7.801  1.0446 -1.2536 -0.9554
  822MOL0     H10969   6.635   5.395   7.974  0.2737  0.6056  1.0302
  822MOL0     H10970   6.440   5.470   8.008  1.7279  0.4233  1.0470
  823MOL0     O10971   1.582  10.291   7.055 -0.2739  0.3176  0.3455
  823MOL0     C10972   1.588  10.360   6.956  0.3146  0.0031 -0.1654
  823MOL0     O10973   1.490  10.374   6.862 -0.8809 -0.1245 -0.2009
  823MOL0     C10974   1.367  10.346   6.904 -0.4322  0.1217  0.2289
  823MOL0     C10975   1.302  10.222   6.901 -0.2252 -0.2185  0.6678
  823MOL0     C10976   1.171  10.210   6.946  0.1346 -0.0690  0.0006
  823MOL0     C10977   1.099  10.321   6.996 -0.0360  0.1700  0.2720
  823MOL0     O10978   0.980  10.294   7.062 -0.0212  0.6662  0.1688
  823MOL0     C10979   0.902  10.402   7.128 -0.0956  0.0599  0.2349
  823MOL0     C10980   0.763  10.352   7.152 -0.1476  0.1248 -0.4523
  823MOL0     C10981   0.675  10.323   7.033  0.2118  0.4333  0.3385
  823MOL0     C10982   0.522  10.316   7.073  0.4922 -0.1339  0.4330
  823MOL0     C10983   0.438  10.261   6.957  0.5774  0.1593 -0.4625
  823MOL0     C10984   0.296  10.249   7.000 -0.2037 -0.3864  0.2957
  823MOL0     C10985   0.206  10.189   6.903  0.3265 -1.0013  1.1106
  823MOL0     C10986   0.060  10.180   6.948  0.3009 -0.3373 -0.8887
  823MOL0     N10987   0.027  10.098   7.068 -0.3999 -0.3786  0.4489
  823MOL0     C10988   0.020  10.132   7.195 -0.5666 -0.0231  0.0379
  823MOL0     C10989  -0.009  10.016   7.270  0.4098 -0.2721  0.6838
  823MOL0     C10990  -0.034   9.996   7.417  0.5773  0.1534 -0.9510
  823MOL0     C10991  -0.016  10.113   7.518  0.3618  0.2567  0.7837
  823MOL0     C10992  -0.105  10.239   7.498  0.9133  0.6123 -0.3206
  823MOL0     C10993  -0.260  10.221   7.470  0.4571 -0.4308 -0.5167
  823MOL0     O10994  -0.312  10.342   7.410 -0.5502 -0.3716 -0.2020
  823MOL0     C10995  -0.449  10.359   7.412 -0.2351  0.3575 -0.1463
  823MOL0     C10996  -0.543  10.257   7.399  0.3742  0.0385 -0.1998
  823MOL0     C10997  -0.681  10.286   7.408  0.5422 -0.6348 -0.7076
  823MOL0     C10998  -0.770  10.165   7.391  0.0378  0.2136 -0.0774
  823MOL0     C10999  -0.730  10.416   7.426  0.6919 -0.0082  0.1934
  823MOL0     C11000  -0.880  10.465   7.420 -0.5368 -1.4080 -0.1304
  823MOL0     O11001  -0.910  10.594   7.391  0.1677  0.2260  0.1006
  823MOL0     C11002  -1.043  10.618   7.397 -0.2329 -0.9575  0.1754
  823MOL0     C11003  -1.129  10.601   7.507  0.8566  1.1590  0.0194
  823MOL0     C11004  -1.269  10.641   7.502 -0.9045  0.1447  0.0299
  823MOL0     C11005  -1.315  10.714   7.390 -0.1137 -0.8605 -0.1478
  823MOL0     O11006  -1.445  10.745   7.352 -0.9892  0.6180 -0.3731
  823MOL0     C11007  -1.555  10.666   7.395 -0.2190  0.3216 -0.6074
  823MOL0     C11008  -1.680  10.698   7.314 -0.5488 -0.9304 -0.7005
  823MOL0     C11009  -1.729  10.844   7.335  0.6929  0.2161 -0.8262
  823MOL0     C11010  -1.876  10.845   7.391  0.3206 -0.6509 -0.0370
  823MOL0     C11011  -1.922  10.985   7.420  0.1784  0.7561 -0.6642
  823MOL0     C11012  -2.071  11.004   7.458  0.1858  1.0380  0.4104
  823MOL0     C11013  -2.097  11.150   7.476 -0.6435  0.1843  0.2761
  823MOL0     C11014  -2.230  11.193   7.538 -0.2403  0.1487 -0.3456
  823MOL0    Cl11015  -2.353  11.160   7.412 -0.4191  0.0946 -0.4603
  823MOL0     C11016  -1.225  10.749   7.286 -0.3192  0.0220  0.4171
  823MOL0     C11017  -1.097  10.697   7.282  0.2217  1.1623 -0.5679
  823MOL0     O11018  -0.955  10.376   7.442  0.2231 -0.0899  0.0247
  823MOL0     C11019  -0.630  10.521   7.435  0.1439  0.0912  0.3839
  823MOL0     C11020  -0.495  10.488   7.438 -0.1126 -0.2061  0.1209
  823MOL0     N11021  -0.016   9.911   7.176  0.0288 -0.7419 -0.1973
  823MOL0     N11022   0.013   9.959   7.060  0.4943 -0.4516 -0.8491
  823MOL0     C11023   1.163  10.446   7.005 -0.3403  0.1714  0.6416
  823MOL0     C11024   1.297  10.458   6.964 -0.9062  0.5393 -0.1384
  823MOL0     C11025   1.724  10.408   6.914 -0.0211 -0.1226  0.4033
  823MOL0     C11026   1.728  10.505   6.810 -0.3823 -0.0137  0.1955
  823MOL0     C11027   1.853  10.549   6.769 -0.9194 -0.5363 -0.2189
  823MOL0     C11028   1.975  10.506   6.828 -0.4349 -0.0743  0.2316
  823MOL0     O11029   2.085  10.550   6.759 -0.3987  0.2164  0.2456
  823MOL0     C11030   2.205  10.539   6.834 -1.2365  0.9001 -0.1105
  823MOL0     C11031   2.316  10.635   6.776  0.4845  0.4751 -0.0727
  823MOL0     C11032   2.398  10.574   6.653  0.6455  0.2051 -0.0974
  823MOL0     C11033   2.508  10.670   6.611  0.6805  0.5576  0.6584
  823MOL0     C11034   2.610  10.593   6.534 -0.0668 -0.5233  0.0487
  823MOL0     C11035   2.708  10.542   6.472 -0.1575  0.7137 -0.3363
  823MOL0     C11036   1.967  10.428   6.940 -0.4114 -0.7848  0.5539
  823MOL0     C11037   1.841  10.386   6.997  0.1458  0.4081  0.2264
  823MOL0     H11038   1.368  10.140   6.872  0.7755  1.3115 -1.6104
  823MOL0     H11039   1.116  10.118   6.965  1.5869 -0.8427  0.6112
  823MOL0     H11040   0.943  10.439   7.222 -0.3852 -0.0821  0.4159
  823MOL0     H11041   0.902  10.487   7.059  0.1101 -0.6659 -0.6824
  823MOL0     H11042   0.771  10.258   7.209  1.3342  0.4982  0.0167
  823MOL0     H11043   0.714  10.428   7.213  0.1145 -0.6564  0.7883
  823MOL0     H11044   0.684  10.399   6.955 -3.5066  1.2155  0.4665
  823MOL0     H11045   0.700  10.232   6.978 -1.4351  0.4921 -0.5777
  823MOL0     H11046   0.515  10.263   7.169  0.1130 -1.0531 -0.0822
  823MOL0     H11047   0.499  10.422   7.083  0.1969 -0.0352 -1.0517
  823MOL0     H11048   0.435  10.329   6.871 -0.4636 -1.0690 -1.4304
  823MOL0     H11049   0.468  10.163   6.919  2.0462  0.0255  0.9246
  823MOL0     H11050   0.285  10.192   7.093  0.9321 -0.8386  0.1642
  823MOL0     H11051   0.256  10.348   7.025  0.5867  0.4628 -1.6246
  823MOL0     H11052   0.214  10.246   6.810  3.0365 -0.4533  1.6063
  823MOL0     H11053   0.243  10.087   6.888 -0.5094 -1.5125  2.3716
  823MOL0     H11054  -0.005  10.165   6.861  0.4161  3.5534 -1.8021
  823MOL0     H11055   0.025  10.278   6.980 -2.6823 -2.1051  1.9176
  823MOL0     H11056   0.030  10.235   7.230 -1.7790  0.4572 -0.9337
  823MOL0     H11057  -0.139   9.968   7.418  0.1355  1.6094 -2.2544
  823MOL0     H11058   0.036   9.917   7.448 -1.0237 -0.1683  2.2886
  823MOL0     H11059   0.089  10.142   7.521  0.4072  0.0084  3.7599
  823MOL0     H11060  -0.042  10.078   7.618  3.1329  2.6559  2.4937
  823MOL0     H11061  -0.069  10.307   7.420 -2.3648  2.0891 -0.6942
  823MOL0     H11062  -0.091  10.297   7.590 -0.1779 -0.1550  0.3499
  823MOL0     H11063  -0.317  10.208   7.563  0.0890  0.9845 -0.5259
  823MOL0     H11064  -0.286  10.139   7.402 -0.4511  1.4495 -2.5790
  823MOL0     H11065  -0.516  10.154   7.374 -2.2790 -0.6152 -0.7144
  823MOL0     H11066  -0.857  10.161   7.457 -1.3002  1.6602 -1.6957
  823MOL0     H11067  -0.798  10.169   7.285  2.0132  3.8228 -0.6023
  823MOL0     H11068  -0.707  10.079   7.416  1.6237  1.5907  0.8289
  823MOL0     H11069  -1.102  10.571   7.608 -0.0352 -1.0453 -0.3496
  823MOL0     H11070  -1.333  10.627   7.588  1.8362  2.5950  2.7330
  823MOL0     H11071  -1.525  10.564   7.371  3.8455  0.7382  1.8261
  823MOL0     H11072  -1.569  10.681   7.503 -1.7374 -1.0135 -0.5722
  823MOL0     H11073  -1.670  10.666   7.210 -0.5630  2.3265 -1.8333
  823MOL0     H11074  -1.759  10.637   7.359 -0.7690 -1.4637 -1.7886
  823MOL0     H11075  -1.728  10.892   7.237 -2.1183  1.4874 -0.3362
  823MOL0     H11076  -1.651  10.891   7.395  2.4787 -0.0741 -2.8006
  823MOL0     H11077  -1.941  10.803   7.313  0.9804  0.3779 -1.1837
  823MOL0     H11078  -1.882  10.788   7.484  1.7506  2.8565  2.3894
  823MOL0     H11079  -1.900  11.042   7.329  0.9183  0.5049 -0.6464
  823MOL0     H11080  -1.857  11.028   7.496 -1.2944  0.2520  0.9466
  823MOL0     H11081  -2.133  10.960   7.380  0.7572 -0.6234  0.8534
  823MOL0     H11082  -2.092  10.952   7.552 -1.4025 -0.0455 -0.4910
  823MOL0     H11083  -2.081  11.195   7.377  1.2116  0.5336  0.6931
  823MOL0     H11084  -2.016  11.195   7.535  1.0738 -2.7173  0.2843
  823MOL0     H11085  -2.231  11.298   7.568 -2.2208 -0.2981  1.3525
  823MOL0     H11086  -2.255  11.136   7.628 -1.4254  0.4158 -0.4999
  823MOL0     H11087  -1.252  10.811   7.201  0.4766 -1.1857 -0.7500
  823MOL0     H11088  -1.038  10.721   7.193 -2.5114  1.5543 -2.3952
  823MOL0     H11089  -0.663  10.624   7.441 -3.4370 -0.9162  0.2312
  823MOL0     H11090  -0.421  10.567   7.442 -0.1361  0.1183 -3.1637
  823MOL0     H11091   1.119  10.534   7.051 -1.1066  0.1320  0.0069
  823MOL0     H11092   1.337  10.557   6.980  1.0758 -0.1597 -0.4659
  823MOL0     H11093   1.639  10.541   6.760  0.2513  0.0302 -0.9479
  823MOL0     H11094   1.848  10.620   6.688 -2.0504  0.3849  0.6235
  823MOL0     H11095   2.179  10.562   6.937 -3.4456  0.9160 -0.6344
  823MOL0     H11096   2.244  10.437   6.829 -1.0719  0.9717 -0.3674
  823MOL0     H11097   2.389  10.648   6.857 -1.8891 -1.8977  2.6635
  823MOL0     H11098   2.259  10.726   6.756 -3.0185 -1.3121  1.0134
  823MOL0     H11099   2.340  10.569   6.561  4.7576 -1.2178 -2.8753
  823MOL0     H11100   2.429  10.471   6.675  1.1791 -0.4291 -3.3314
  823MOL0     H11101   2.557  10.714   6.698 -3.3868  1.1392  2.8990
  823MOL0     H11102   2.482  10.756   6.547  3.2307  1.0414  0.1635
  823MOL0     H11103   2.791  10.499   6.421  0.8475 -0.1863  1.9426
  823MOL0     H11104   2.057  10.394   6.990 -0.4766  0.1322  1.3263
  823MOL0     H11105   1.829  10.337   7.093 -2.9708 -0.6572 -0.5680
  824MOL0     O11106   3.589   4.968   4.797  0.3961 -0.1655  0.4723
  824MOL0     C11107   3.618   4.852   4.826  0.1290 -0.7082  0.1750
  824MOL0     O11108   3.529   4.749   4.875 -0.7546  0.4461  0.3444
  824MOL0     C11109   3.395   4.777   4.881  0.3990 -0.2006  0.3760
  824MOL0     C11110   3.332   4.747   5.004 -0.3567  0.7719  0.9872
  824MOL0     C11111   3.194   4.767   5.015  0.6197  0.0013 -0.3036
  824MOL0     C11112   3.126   4.823   4.899  0.3390  0.5072 -0.2635
  824MOL0     O11113   2.991   4.857   4.904  0.2714 -0.0252  1.0671
  824MOL0     C11114   2.921   4.841   5.028 -0.9881 -0.8404  0.1859
  824MOL0     C11115   2.797   4.925   5.009  0.4356 -0.2907  0.1532
  824MOL0     C11116   2.719   4.924   5.141 -0.1483 -0.8857 -0.0412
  824MOL0     C11117   2.593   5.013   5.119 -0.7534  0.3521  0.5957
  824MOL0     C11118   2.510   5.003   5.235 -0.1023  0.6011  0.5153
  824MOL0     C11119   2.365   5.050   5.215 -0.0794 -0.2858  0.4753
  824MOL0     C11120   2.303   5.067   5.345  0.2470 -0.7765  0.2934
  824MOL0     C11121   2.162   5.131   5.337  1.0695  0.1034 -0.4346
  824MOL0     N11122   2.113   5.162   5.470  0.0006 -0.2145  0.3506
  824MOL0     C11123   2.140   5.285   5.536  0.8728 -0.2189 -0.0660
  824MOL0     C11124   2.104   5.259   5.670 -0.3229 -0.3952 -0.6858
  824MOL0     C11125   2.089   5.363   5.774 -0.1236 -0.7446  0.2401
  824MOL0     C11126   1.965   5.450   5.744  0.1826  1.1453  0.1679
  824MOL0     C11127   1.934   5.567   5.838 -0.2694 -0.1279  0.1527
  824MOL0     C11128   1.816   5.651   5.777 -0.6670  0.5080  0.1073
  824MOL0     O11129   1.797   5.769   5.857 -0.0764 -0.3466  0.5031
  824MOL0     C11130   1.683   5.841   5.847 -1.1164  0.2116 -0.3365
  824MOL0     C11131   1.691   5.980   5.865  0.0367  0.4545  0.5167
  824MOL0     C11132   1.578   6.069   5.854 -0.8933 -0.2215  0.0449
  824MOL0     C11133   1.610   6.222   5.863  0.2720 -0.1112 -0.9034
  824MOL0     C11134   1.454   6.007   5.843  0.3952  0.1372  0.1258
  824MOL0     C11135   1.330   6.084   5.825  0.2221  0.2616  0.3862
  824MOL0     O11136   1.217   6.001   5.833 -1.1134 -0.2922  0.7336
  824MOL0     C11137   1.091   6.048   5.809 -0.8690 -0.1380 -0.6354
  824MOL0     C11138   1.022   5.992   5.703  0.5888 -0.2927  0.9102
  824MOL0     C11139   0.885   6.037   5.661 -0.5213 -0.4355  0.0773
  824MOL0     C11140   0.822   6.130   5.739  0.0194 -0.6494 -0.3363
  824MOL0     O11141   0.691   6.163   5.708  0.2425  0.5945  0.4333
  824MOL0     C11142   0.625   6.260   5.792  0.2838 -0.5959 -0.4503
  824MOL0     C11143   0.481   6.258   5.755  0.3335  0.9844  0.6318
  824MOL0     C11144   0.475   6.320   5.613  0.3992  0.7900 -1.1806
  824MOL0     C11145   0.367   6.269   5.521  0.6469 -0.2570  0.1702
  824MOL0     C11146   0.422   6.146   5.453 -0.6598  0.3926  1.1899
  824MOL0     C11147   0.326   6.084   5.345 -0.4166 -0.0163 -0.2946
  824MOL0     C11148   0.353   5.940   5.301  0.3625 -0.5258 -0.6751
  824MOL0     C11149   0.452   5.928   5.191 -0.1520 -1.0385  0.1762
  824MOL0    Cl11150   0.389   6.020   5.052 -0.1851 -0.1529 -0.0927
  824MOL0     C11151   0.894   6.189   5.845 -1.4216  0.3057  0.3471
  824MOL0     C11152   1.025   6.154   5.880  0.6351  0.7811 -0.2705
  824MOL0     O11153   1.323   6.209   5.816 -1.0316  0.3505 -0.0582
  824MOL0     C11154   1.453   5.865   5.843  0.0011  0.5269 -0.1884
  824MOL0     C11155   1.559   5.784   5.832 -0.3407  0.6271 -0.2362
  824MOL0     N11156   2.062   5.132   5.675 -0.0582  0.6620  0.1717
  824MOL0     N11157   2.072   5.069   5.561  0.7280  0.5449  0.4357
  824MOL0     C11158   3.188   4.847   4.781  0.0318  0.6140  0.0713
  824MOL0     C11159   3.327   4.826   4.764 -0.9099 -0.6544 -0.1633
  824MOL0     C11160   3.757   4.823   4.821 -0.1932 -0.1811  1.0906
  824MOL0     C11161   3.844   4.909   4.764 -0.3185  0.4050  0.5382
  824MOL0     C11162   3.987   4.882   4.766  1.0697  0.1180 -0.1462
  824MOL0     C11163   4.033   4.760   4.812 -0.0665 -0.0589 -0.0633
  824MOL0     O11164   4.164   4.718   4.804  0.5856 -0.4238 -0.3075
  824MOL0     C11165   4.254   4.766   4.702 -0.3535  0.2695  1.0493
  824MOL0     C11166   4.362   4.851   4.761 -0.9942  1.0141  0.0849
  824MOL0     C11167   4.496   4.838   4.677  0.4144  0.9600 -0.5806
  824MOL0     C11168   4.617   4.917   4.735  0.1025 -0.8401 -0.0340
  824MOL0     C11169   4.600   5.054   4.688  0.3990  0.1322  0.2131
  824MOL0     C11170   4.591   5.176   4.656 -0.9665  0.1807 -0.6034
  824MOL0     C11171   3.946   4.681   4.874 -0.4105 -0.1477  0.3234
  824MOL0     C11172   3.805   4.708   4.884 -0.0198  0.0673  0.1060
  824MOL0     H11173   3.396   4.708   5.083  0.7246  0.4107 -0.0390
  824MOL0     H11174   3.152   4.747   5.113  1.4736  1.2157  0.3392
  824MOL0     H11175   2.895   4.736   5.041  1.1758 -1.6289 -1.3555
  824MOL0     H11176   2.981   4.871   5.114  0.1035 -1.9399 -0.1698
  824MOL0     H11177   2.814   5.029   4.979 -1.3875  0.7054  2.2887
  824MOL0     H11178   2.740   4.875   4.930 -0.6502  1.2623 -0.1058
  824MOL0     H11179   2.680   4.824   5.163 -0.9382 -0.2515  1.5350
  824MOL0     H11180   2.770   4.967   5.228 -0.5314  0.3065 -0.3841
  824MOL0     H11181   2.630   5.112   5.093 -0.5073 -0.1877 -1.2780
  824MOL0     H11182   2.545   4.966   5.032  1.4416 -0.3979 -0.2976
  824MOL0     H11183   2.507   4.904   5.281  1.2988  1.0885  1.7473
  824MOL0     H11184   2.560   5.060   5.314  0.2872 -0.0070  0.7088
  824MOL0     H11185   2.370   5.136   5.148  2.6158 -1.0285 -0.4153
  824MOL0     H11186   2.310   4.973   5.160  0.4823  0.7933 -1.7291
  824MOL0     H11187   2.296   4.973   5.400 -2.7140 -1.9545 -1.8190
  824MOL0     H11188   2.364   5.139   5.401 -1.7792 -0.3345  2.1119
  824MOL0     H11189   2.090   5.055   5.305  0.9502 -0.3278  0.8090
  824MOL0     H11190   2.161   5.218   5.271 -1.4452  1.2981  1.0533
  824MOL0     H11191   2.175   5.380   5.495  2.8912  0.6557  3.3075
  824MOL0     H11192   2.080   5.324   5.876  2.9290  0.8656  1.2438
  824MOL0     H11193   2.178   5.425   5.765 -0.0969 -0.8000  0.1246
  824MOL0     H11194   1.881   5.380   5.746  1.6818 -0.8890 -2.3951
  824MOL0     H11195   1.976   5.485   5.641  2.3883  2.0098  0.6480
  824MOL0     H11196   2.021   5.634   5.846  0.7355 -1.3475 -0.2067
  824MOL0     H11197   1.918   5.542   5.943 -1.2374 -1.3301 -0.2561
  824MOL0     H11198   1.722   5.598   5.759 -0.8018  0.7052  0.2243
  824MOL0     H11199   1.847   5.682   5.677 -3.0652 -1.0312 -1.2258
  824MOL0     H11200   1.784   6.035   5.874  0.1439  0.5033 -0.7370
  824MOL0     H11201   1.559   6.259   5.951  1.7003  0.8144 -0.4296
  824MOL0     H11202   1.715   6.232   5.892 -0.5264  0.8128  1.9847
  824MOL0     H11203   1.577   6.278   5.775 -2.0353 -1.8855 -1.2603
  824MOL0     H11204   1.069   5.907   5.655  0.9847  0.2277  0.3577
  824MOL0     H11205   0.824   6.000   5.579  0.5677  3.2629 -2.6983
  824MOL0     H11206   0.627   6.247   5.901 -1.9555 -3.1999 -0.6001
  824MOL0     H11207   0.667   6.355   5.759  2.7731 -1.1819  0.7825
  824MOL0     H11208   0.456   6.151   5.758  1.4838  0.5243 -2.3841
  824MOL0     H11209   0.419   6.311   5.828 -1.5847  2.2575 -1.7791
  824MOL0     H11210   0.563   6.347   5.556 -0.6263  0.5636 -2.9329
  824MOL0     H11211   0.438   6.418   5.645  0.0483  0.6951 -1.2936
  824MOL0     H11212   0.268   6.255   5.565  0.0483 -0.4164 -1.1773
  824MOL0     H11213   0.352   6.354   5.453  1.3709  0.1747  0.5336
  824MOL0     H11214   0.440   6.069   5.529 -1.4422  0.1039  1.0869
  824MOL0     H11215   0.510   6.173   5.393 -0.3391 -1.9210  0.5174
  824MOL0     H11216   0.232   6.087   5.402  1.6804 -0.2404  3.5014
  824MOL0     H11217   0.298   6.146   5.260 -1.3903  1.8202  1.2646
  824MOL0     H11218   0.264   5.880   5.279 -0.5561  0.4403  0.2841
  824MOL0     H11219   0.399   5.891   5.387  0.3508  0.8024  0.1139
  824MOL0     H11220   0.456   5.823   5.162  0.6933 -1.2146  0.8729
  824MOL0     H11221   0.550   5.971   5.216 -0.9818  0.5700  0.8505
  824MOL0     H11222   0.853   6.271   5.903 -1.8320 -0.1979  0.7790
  824MOL0     H11223   1.078   6.214   5.953 -1.9765 -0.1262  2.5711
  824MOL0     H11224   1.359   5.818   5.816  0.8035  1.1887 -5.1760
  824MOL0     H11225   1.548   5.678   5.813 -0.7951  0.7864 -0.8876
  824MOL0     H11226   3.129   4.901   4.707  1.8571 -0.4969 -2.3153
  824MOL0     H11227   3.387   4.841   4.675 -1.1324  1.9457  0.0394
  824MOL0     H11228   3.815   5.010   4.738  1.2384  0.8914  0.5665
  824MOL0     H11229   4.054   4.957   4.725  1.1623 -0.2492 -0.6713
  824MOL0     H11230   4.302   4.681   4.653  0.8302  1.5841 -0.1782
  824MOL0     H11231   4.197   4.815   4.623  0.3433 -1.2818 -0.4656
  824MOL0     H11232   4.369   4.808   4.862 -0.6972  0.1615 -0.2865
  824MOL0     H11233   4.324   4.953   4.766 -0.5427  1.4960 -3.7902
  824MOL0     H11234   4.484   4.864   4.572 -0.1698  1.7123 -0.3442
  824MOL0     H11235   4.529   4.734   4.678 -0.0416  0.8014 -1.3415
  824MOL0     H11236   4.716   4.884   4.699 -0.7428 -1.0309 -2.3671
  824MOL0     H11237   4.610   4.921   4.844 -1.0188 -1.9764 -0.0405
  824MOL0     H11238   4.614   5.275   4.623  0.9388  0.0829  0.2782
  824MOL0     H11239   3.970   4.590   4.928 -0.2101  0.1889  0.8061
  824MOL0     H11240   3.735   4.639   4.929  1.8134 -0.3341  2.5917
  825MOL0     O11241   9.230   1.033   3.462 -0.1810  0.5450 -0.7265
  825MOL0     C11242   9.321   0.990   3.531  0.2069  0.2568 -0.7672
  825MOL0     O11243   9.307   0.951   3.654  1.0698  0.0144 -0.5107
  825MOL0     C11244   9.185   0.943   3.715 -0.4882  1.1308 -0.8523
  825MOL0     C11245   9.151   0.836   3.801 -0.6977  0.1631  0.4129
  825MOL0     C11246   9.027   0.830   3.868  0.1583 -0.3355 -0.6768
  825MOL0     C11247   8.938   0.931   3.866 -0.2547 -0.2918  0.4183
  825MOL0     O11248   8.814   0.940   3.928  0.3124 -0.9040 -0.1478
  825MOL0     C11249   8.716   0.839   3.913 -0.0509 -0.2126  0.0295
  825MOL0     C11250   8.577   0.906   3.942 -0.5720 -0.2358 -0.2290
  825MOL0     C11251   8.466   0.799   3.920 -0.5476 -0.9341 -0.0671
  825MOL0     C11252   8.453   0.755   3.775 -0.0245 -0.4873 -0.0920
  825MOL0     C11253   8.321   0.699   3.734 -0.4694  0.8175  0.1492
  825MOL0     C11254   8.219   0.808   3.712  0.5548  0.0101 -0.3757
  825MOL0     C11255   8.085   0.756   3.651 -0.9072 -0.5510  0.3367
  825MOL0     C11256   8.014   0.632   3.718  0.5397  0.1118 -0.2781
  825MOL0     N11257   7.878   0.619   3.662  0.1555  0.0832 -0.6542
  825MOL0     C11258   7.758   0.661   3.716  0.3712 -0.2590 -0.0575
  825MOL0     C11259   7.656   0.589   3.656 -0.0044  0.0894  0.3304
  825MOL0     C11260   7.513   0.589   3.686  0.6724  0.1758 -0.4755
  825MOL0     C11261   7.459   0.451   3.739 -0.5669  0.3049  0.2481
  825MOL0     C11262   7.542   0.392   3.852  0.6180 -0.7532 -0.0746
  825MOL0     C11263   7.482   0.269   3.921  0.3382 -0.5696 -0.2704
  825MOL0     O11264   7.401   0.314   4.033  0.2906 -0.6489  0.0170
  825MOL0     C11265   7.318   0.233   4.096  0.3136  0.2864  0.1488
  825MOL0     C11266   7.302   0.092   4.073 -0.1239  0.0973  0.7236
  825MOL0     C11267   7.200   0.017   4.133 -0.2696  0.1480 -0.0410
  825MOL0     C11268   7.190  -0.138   4.101 -0.7362 -1.1537  0.2499
  825MOL0     C11269   7.107   0.083   4.219 -0.1123  0.0404 -0.5040
  825MOL0     C11270   6.991   0.017   4.291  0.6511 -0.1140 -0.1446
  825MOL0     O11271   6.981  -0.119   4.289 -0.3443 -0.7398 -0.6498
  825MOL0     C11272   6.869  -0.178   4.337  1.1970 -0.2499 -0.1580
  825MOL0     C11273   6.803  -0.154   4.459  0.5811 -0.1681  0.3428
  825MOL0     C11274   6.686  -0.230   4.499 -0.3494 -0.0975  0.1996
  825MOL0     C11275   6.647  -0.342   4.420  0.1714 -0.2200  0.3174
  825MOL0     O11276   6.551  -0.434   4.456 -0.3552  0.3053  0.1875
  825MOL0     C11277   6.457  -0.385   4.551  0.1349 -0.7369  0.0262
  825MOL0     C11278   6.328  -0.459   4.518  0.3207 -0.1144  0.6865
  825MOL0     C11279   6.223  -0.407   4.619  0.6312  0.4277 -0.5411
  825MOL0     C11280   6.079  -0.477   4.618  0.5102 -0.1758 -0.9010
  825MOL0     C11281   5.978  -0.430   4.737  1.1460 -0.2626  0.4065
  825MOL0     C11282   5.830  -0.467   4.715  0.4770 -0.5936 -0.0281
  825MOL0     C11283   5.777  -0.438   4.575  0.4476 -0.4401  0.2151
  825MOL0     C11284   5.632  -0.404   4.577  0.3519  0.0959  0.4092
  825MOL0    Cl11285   5.570  -0.393   4.414  0.2257  0.2805  0.0943
  825MOL0     C11286   6.720  -0.374   4.309  0.3467 -0.8200  0.5605
  825MOL0     C11287   6.825  -0.286   4.266  0.0985 -0.3118 -0.6024
  825MOL0     O11288   6.910   0.092   4.345  0.5635 -0.0915 -0.0189
  825MOL0     C11289   7.142   0.218   4.258  0.0570  0.5723 -0.3494
  825MOL0     C11290   7.239   0.293   4.192  0.5080  0.3360  0.0498
  825MOL0     N11291   7.712   0.502   3.563  0.5134  0.2156  0.1852
  825MOL0     N11292   7.844   0.515   3.576 -0.3497 -0.1641 -0.1343
  825MOL0     C11293   8.969   1.042   3.782 -0.4041  0.0731 -0.7820
  825MOL0     C11294   9.094   1.046   3.714  0.3352  0.7562 -0.1753
  825MOL0     C11295   9.455   0.969   3.470 -0.1501 -0.0295 -0.9800
  825MOL0     C11296   9.467   0.978   3.332 -0.2207  0.5550 -0.3061
  825MOL0     C11297   9.595   0.967   3.278 -0.9938  0.4534 -0.5848
  825MOL0     C11298   9.713   0.948   3.358  0.1548  0.3609 -0.2215
  825MOL0     O11299   9.838   0.958   3.304  0.1242  0.1134 -0.4264
  825MOL0     C11300   9.860   0.970   3.164  0.2288 -0.1222  0.4178
  825MOL0     C11301  10.005   0.928   3.129 -0.1791 -0.7725 -0.4437
  825MOL0     C11302  10.041   0.966   2.981 -0.2272  0.5586 -0.4913
  825MOL0     C11303  10.189   0.937   2.958 -0.5326  0.3736  0.2325
  825MOL0     C11304  10.273   1.003   3.053  0.2038  0.3082  0.4664
  825MOL0     C11305  10.357   1.050   3.126  0.2473  0.0940  0.3625
  825MOL0     C11306   9.697   0.940   3.494 -0.4851 -1.0731  0.3712
  825MOL0     C11307   9.572   0.933   3.550 -0.7561 -0.0863  0.3634
  825MOL0     H11308   9.211   0.746   3.807  0.5021  0.9197  0.0788
  825MOL0     H11309   9.010   0.738   3.923 -2.2694  0.1568 -0.5129
  825MOL0     H11310   8.721   0.800   3.811  4.3171 -0.7890  0.2658
  825MOL0     H11311   8.737   0.761   3.987  0.4404  0.7458  0.9145
  825MOL0     H11312   8.575   0.923   4.050 -0.2188 -0.1571 -0.2367
  825MOL0     H11313   8.578   1.000   3.886 -1.0030 -1.0237 -1.5826
  825MOL0     H11314   8.491   0.717   3.989  1.4309  1.2304  2.0105
  825MOL0     H11315   8.371   0.843   3.951  1.0209  1.1480  2.1955
  825MOL0     H11316   8.483   0.837   3.710  0.1970 -0.4524  0.0543
  825MOL0     H11317   8.532   0.679   3.762  0.3393  0.1450 -1.8050
  825MOL0     H11318   8.341   0.655   3.636  3.5948  4.8083 -1.1403
  825MOL0     H11319   8.273   0.629   3.804  1.5673  0.3837  1.1864
  825MOL0     H11320   8.197   0.850   3.810  0.2409 -2.4858  0.7138
  825MOL0     H11321   8.263   0.885   3.648 -1.1160  0.8338 -0.5830
  825MOL0     H11322   8.020   0.844   3.653 -1.5303 -0.9612 -0.7334
  825MOL0     H11323   8.102   0.727   3.546  0.5929 -1.5393  0.8145
  825MOL0     H11324   8.012   0.643   3.826  1.6587 -2.2987  0.0540
  825MOL0     H11325   8.072   0.542   3.695  1.4991  1.3033 -3.0193
  825MOL0     H11326   7.768   0.747   3.782 -1.7688  0.1524 -0.2003
  825MOL0     H11327   7.485   0.658   3.766 -4.1404 -1.1076 -0.7594
  825MOL0     H11328   7.466   0.624   3.593  2.9078 -0.1077 -1.7878
  825MOL0     H11329   7.456   0.376   3.659 -1.2919 -1.7437  2.0968
  825MOL0     H11330   7.356   0.475   3.768  0.2161  3.9358  0.4303
  825MOL0     H11331   7.557   0.463   3.934  0.2804  1.3319 -1.7532
  825MOL0     H11332   7.643   0.369   3.817  1.7340  1.5668  1.3836
  825MOL0     H11333   7.557   0.197   3.954 -2.4572 -2.7160  1.9587
  825MOL0     H11334   7.413   0.218   3.853  0.4613 -1.9856  0.6214
  825MOL0     H11335   7.373   0.049   4.004  1.1922 -0.4529  2.3687
  825MOL0     H11336   7.090  -0.166   4.065 -0.3474 -1.0786 -0.9216
  825MOL0     H11337   7.257  -0.151   4.016  0.9903 -0.2433  1.4202
  825MOL0     H11338   7.217  -0.192   4.192  0.8105  1.0239  1.1748
  825MOL0     H11339   6.839  -0.071   4.518 -2.2652  0.6697  1.0177
  825MOL0     H11340   6.634  -0.200   4.590 -2.3198 -1.4244 -0.4207
  825MOL0     H11341   6.491  -0.402   4.653 -1.3042 -0.3114  0.6091
  825MOL0     H11342   6.443  -0.277   4.547  1.7537 -0.3988  2.0961
  825MOL0     H11343   6.296  -0.433   4.417  1.7394  3.0294  0.9214
  825MOL0     H11344   6.335  -0.568   4.510  0.3666  0.0466 -2.5322
  825MOL0     H11345   6.208  -0.306   4.581 -2.2639 -1.1126 -4.0419
  825MOL0     H11346   6.253  -0.418   4.724 -1.4792 -0.2182  0.0394
  825MOL0     H11347   6.021  -0.460   4.528 -2.0073  0.9358  0.8334
  825MOL0     H11348   6.102  -0.584   4.625 -0.6305 -0.3329  2.9265
  825MOL0     H11349   5.977  -0.321   4.742  1.4219  0.0549 -3.4540
  825MOL0     H11350   6.006  -0.470   4.834  0.2855 -0.6074  0.5207
  825MOL0     H11351   5.820  -0.573   4.740 -0.0077 -1.5049 -3.5103
  825MOL0     H11352   5.770  -0.408   4.784 -2.3679 -2.2902 -0.8795
  825MOL0     H11353   5.789  -0.536   4.528  0.7267 -0.6174  0.6446
  825MOL0     H11354   5.835  -0.356   4.530 -0.4203 -0.1723 -0.4452
  825MOL0     H11355   5.618  -0.305   4.621 -1.9927  1.3517 -2.8693
  825MOL0     H11356   5.587  -0.483   4.639  1.1300 -0.3644  0.4091
  825MOL0     H11357   6.690  -0.463   4.253  1.2862  0.9663 -3.1075
  825MOL0     H11358   6.873  -0.298   4.170 -1.2727 -0.3092 -1.3108
  825MOL0     H11359   7.081   0.267   4.333  2.1024  3.5458 -0.4443
  825MOL0     H11360   7.255   0.398   4.215  1.8359  0.3626 -0.9097
  825MOL0     H11361   8.900   1.124   3.764  1.9301  2.2852 -0.1726
  825MOL0     H11362   9.105   1.135   3.653 -3.1849 -0.2148 -2.5084
  825MOL0     H11363   9.386   0.993   3.261  0.9199  1.0849 -1.5219
  825MOL0     H11364   9.605   0.978   3.171  2.3593  1.9117 -0.2465
  825MOL0     H11365   9.788   0.916   3.102  0.2443  2.7559 -2.3695
  825MOL0     H11366   9.848   1.078   3.146  0.2901 -0.3888 -1.4077
  825MOL0     H11367  10.019   0.820   3.143 -0.0303 -0.9373 -1.7167
  825MOL0     H11368  10.072   0.980   3.198  0.2188 -4.3709  2.1923
  825MOL0     H11369  10.015   1.072   2.970 -0.0052  0.3941 -3.1254
  825MOL0     H11370   9.995   0.896   2.911  1.4806 -0.8019 -0.3199
  825MOL0     H11371  10.229   0.959   2.858 -1.9143  1.7475 -0.0609
  825MOL0     H11372  10.206   0.829   2.967 -1.0786  0.2191 -0.4925
  825MOL0     H11373  10.431   1.085   3.195  1.2148 -0.9015 -0.1382
  825MOL0     H11374   9.775   0.929   3.569  0.3769  0.7927 -0.2051
  825MOL0     H11375   9.559   0.918   3.656  0.4397 -0.2031  0.5026
  826MOL0     O11376   2.662   0.813   8.442  0.1109 -0.1336 -0.9209
  826MOL0     C11377   2.744   0.878   8.508  0.3268 -0.3562 -0.2781
  826MOL0     O11378   2.718   1.007   8.562  0.5701  0.4020  0.1979
  826MOL0     C11379   2.591   1.054   8.559  0.7414 -0.2551  0.0542
  826MOL0     C11380   2.491   1.049   8.661  0.3211 -0.0756 -0.4870
  826MOL0     C11381   2.369   1.103   8.635 -0.3230  0.0168  0.2240
  826MOL0     C11382   2.344   1.175   8.519 -0.6843  0.8074 -0.1854
  826MOL0     O11383   2.219   1.229   8.494  0.1005 -0.4862  0.4671
  826MOL0     C11384   2.106   1.204   8.577  0.3383  0.3005 -0.0504
  826MOL0     C11385   1.973   1.268   8.515  0.2611  0.1236  0.1558
  826MOL0     C11386   1.862   1.224   8.610  0.1198 -0.8551  0.4825
  826MOL0     C11387   1.725   1.267   8.553 -0.2229 -0.0970 -0.1176
  826MOL0     C11388   1.681   1.187   8.426  0.4033  0.3369  0.1732
  826MOL0     C11389   1.548   1.214   8.364 -0.6213  0.0715  0.4777
  826MOL0     C11390   1.486   1.344   8.410 -0.0111 -0.5202 -0.0339
  826MOL0     C11391   1.366   1.378   8.313  0.0790 -0.1212 -0.5126
  826MOL0     N11392   1.227   1.347   8.347 -0.0795  0.2001 -0.7224
  826MOL0     C11393   1.165   1.222   8.361  0.2365  0.2596 -0.3422
  826MOL0     C11394   1.035   1.236   8.416 -0.1737 -0.0499  1.2547
  826MOL0     C11395   0.934   1.135   8.448  0.1625 -0.0243  0.0392
  826MOL0     C11396   0.963   1.085   8.589 -0.1805 -0.0268  0.6444
  826MOL0     C11397   0.909   0.953   8.617  0.5873  1.3080 -0.2152
  826MOL0     C11398   0.751   0.937   8.606  0.2058 -0.5262  0.0154
  826MOL0     O11399   0.712   0.807   8.653 -0.5136  0.2450  0.7164
  826MOL0     C11400   0.584   0.756   8.620  0.1471  0.7361 -0.2002
  826MOL0     C11401   0.476   0.853   8.612 -0.0736 -0.4748  0.5787
  826MOL0     C11402   0.347   0.810   8.570  0.1571  0.6506 -0.0916
  826MOL0     C11403   0.241   0.914   8.568  0.3639  0.3687  0.3737
  826MOL0     C11404   0.326   0.671   8.533 -0.0092 -0.4167 -0.5694
  826MOL0     C11405   0.196   0.619   8.487  0.5516  1.2548 -0.2671
  826MOL0     O11406   0.082   0.690   8.518  0.1333  0.0755  0.3166
  826MOL0     C11407  -0.035   0.640   8.464  0.0414 -0.0070  0.8930
  826MOL0     C11408  -0.096   0.527   8.508 -0.3232  0.3450 -0.8829
  826MOL0     C11409  -0.224   0.483   8.466 -1.0034  0.0898  0.4516
  826MOL0     C11410  -0.285   0.554   8.363  0.1738  0.2347 -0.4811
  826MOL0     O11411  -0.408   0.524   8.313 -0.2550  0.6371  0.4908
  826MOL0     C11412  -0.501   0.428   8.371 -1.1443 -0.0761 -0.5204
  826MOL0     C11413  -0.645   0.439   8.324 -0.5650  0.7139  0.1931
  826MOL0     C11414  -0.692   0.578   8.303 -0.1202 -0.6660  0.2040
  826MOL0     C11415  -0.848   0.572   8.276 -0.5266  0.3971 -0.3629
  826MOL0     C11416  -0.903   0.697   8.202 -0.1704  0.0213  0.7089
  826MOL0     C11417  -1.029   0.659   8.117 -0.2521 -0.0240 -0.3638
  826MOL0     C11418  -1.140   0.632   8.221  0.1465 -0.7426 -0.1040
  826MOL0     C11419  -1.275   0.608   8.135 -0.2624 -0.5799  0.2615
  826MOL0    Cl11420  -1.352   0.766   8.069 -0.4173  0.4406 -0.9315
  826MOL0     C11421  -0.209   0.653   8.299 -0.3515 -0.4814 -0.3428
  826MOL0     C11422  -0.095   0.701   8.354 -0.8855  0.2269 -0.4087
  826MOL0     O11423   0.194   0.506   8.435 -1.1980  0.1970 -0.1891
  826MOL0     C11424   0.439   0.587   8.532  0.4090 -0.7701 -0.4982
  826MOL0     C11425   0.565   0.627   8.573 -0.2287 -0.5229 -0.3512
  826MOL0     N11426   1.036   1.368   8.457  0.9269 -0.2427 -0.3227
  826MOL0     N11427   1.150   1.426   8.419  0.5831  0.0293 -0.6920
  826MOL0     C11428   2.447   1.203   8.434  0.1180  0.1649 -1.2274
  826MOL0     C11429   2.571   1.139   8.451  0.0686  0.1344 -0.5518
  826MOL0     C11430   2.886   0.824   8.522 -0.6912  0.1400 -0.6845
  826MOL0     C11431   2.908   0.686   8.510  1.0716 -0.1433  0.5825
  826MOL0     C11432   3.030   0.626   8.547 -0.1200 -0.6534 -0.1840
  826MOL0     C11433   3.142   0.711   8.578  0.7803 -0.5982 -0.4569
  826MOL0     O11434   3.267   0.659   8.586 -0.3425 -0.0093  0.2205
  826MOL0     C11435   3.378   0.752   8.604 -1.2794  0.3207  0.4069
  826MOL0     C11436   3.518   0.679   8.610  0.4518 -0.4708 -0.1860
  826MOL0     C11437   3.520   0.559   8.700 -0.2487 -0.6097 -0.0065
  826MOL0     C11438   3.491   0.600   8.846 -0.0372 -0.1229  0.6149
  826MOL0     C11439   3.579   0.690   8.915 -0.4877 -0.2671 -0.3544
  826MOL0     C11440   3.644   0.785   8.964  0.1702 -0.4595  0.1486
  826MOL0     C11441   3.115   0.847   8.588  0.8884 -0.2681 -0.7298
  826MOL0     C11442   2.993   0.908   8.558  0.6986  0.3075 -0.2233
  826MOL0     H11443   2.508   0.995   8.753 -0.2212  2.4565  1.2015
  826MOL0     H11444   2.296   1.085   8.714  0.2974 -0.7142  0.6472
  826MOL0     H11445   2.091   1.096   8.579  0.6087  0.2391 -0.9153
  826MOL0     H11446   2.139   1.245   8.673  2.4727  1.0988 -1.0554
  826MOL0     H11447   1.971   1.375   8.491  0.0625  0.2012  0.5037
  826MOL0     H11448   1.948   1.211   8.425  1.0252 -1.9046  1.1658
  826MOL0     H11449   1.866   1.117   8.631  2.3996 -0.8367  0.3172
  826MOL0     H11450   1.885   1.282   8.700  0.4656  1.1477 -0.8308
  826MOL0     H11451   1.645   1.249   8.625  0.7097 -2.5586  0.4316
  826MOL0     H11452   1.730   1.371   8.520  1.5414  0.0346  0.4450
  826MOL0     H11453   1.755   1.220   8.353  0.1594  2.2443  0.7367
  826MOL0     H11454   1.693   1.079   8.441 -0.4133  0.3525  0.9704
  826MOL0     H11455   1.561   1.216   8.255  1.8356 -2.8703  0.5677
  826MOL0     H11456   1.480   1.132   8.389  2.4526 -2.5627  0.8977
  826MOL0     H11457   1.470   1.363   8.516  1.1476  3.7558 -0.4391
  826MOL0     H11458   1.560   1.420   8.383 -0.5385  0.3638  0.9413
  826MOL0     H11459   1.378   1.330   8.215  0.6388 -1.0966  0.0245
  826MOL0     H11460   1.374   1.482   8.281 -0.1620 -0.6106 -2.3078
  826MOL0     H11461   1.212   1.126   8.346 -0.8469 -0.1879 -1.0237
  826MOL0     H11462   0.829   1.166   8.448  0.0021 -0.3507  2.6177
  826MOL0     H11463   0.927   1.053   8.375 -3.5262  0.6638 -0.6063
  826MOL0     H11464   0.922   1.159   8.658  1.2669  0.3477  1.1315
  826MOL0     H11465   1.069   1.074   8.612  0.1225  3.2313  1.2197
  826MOL0     H11466   0.946   0.912   8.712  3.5702  1.6499 -1.1304
  826MOL0     H11467   0.949   0.884   8.542  1.4964  1.5029  0.0798
  826MOL0     H11468   0.702   0.962   8.512  0.4561  0.0853  0.0405
  826MOL0     H11469   0.709   1.009   8.677  2.1208  1.9732 -1.1734
  826MOL0     H11470   0.482   0.961   8.623  1.7305 -0.1041 -2.9213
  826MOL0     H11471   0.175   0.918   8.655 -3.6762  1.2409 -2.4129
  826MOL0     H11472   0.273   1.017   8.550  0.8771  0.1961  0.2814
  826MOL0     H11473   0.174   0.888   8.485  1.1323 -1.5535  0.2924
  826MOL0     H11474  -0.044   0.471   8.585  0.5491 -2.6560 -3.4443
  826MOL0     H11475  -0.277   0.406   8.521  0.0378 -0.7214  0.3573
  826MOL0     H11476  -0.467   0.329   8.341  1.3540  0.9803 -1.5021
  826MOL0     H11477  -0.504   0.435   8.480 -2.9263 -1.1505 -0.4589
  826MOL0     H11478  -0.651   0.380   8.232  3.1231  0.1710  0.1398
  826MOL0     H11479  -0.710   0.387   8.396  3.8801 -2.2426  2.5894
  826MOL0     H11480  -0.641   0.615   8.213  0.4980 -2.7855 -0.3798
  826MOL0     H11481  -0.683   0.647   8.387  0.8183 -0.8022  0.2204
  826MOL0     H11482  -0.867   0.480   8.221 -1.7042 -0.8322  1.9580
  826MOL0     H11483  -0.908   0.560   8.368 -0.4508  2.1945 -0.0333
  826MOL0     H11484  -0.827   0.743   8.138  0.9324 -1.1107  1.1584
  826MOL0     H11485  -0.923   0.779   8.271  0.4314  1.4586 -0.7541
  826MOL0     H11486  -1.064   0.743   8.057 -2.4732  0.7269  1.7993
  826MOL0     H11487  -1.014   0.577   8.047 -0.6192  0.4656 -1.0220
  826MOL0     H11488  -1.145   0.720   8.285 -1.3685  0.6641 -2.0484
  826MOL0     H11489  -1.126   0.546   8.288 -0.3649 -0.2380  0.6657
  826MOL0     H11490  -1.340   0.567   8.213  2.0129 -2.8546  1.0796
  826MOL0     H11491  -1.269   0.535   8.054  0.1990  0.4024 -0.6095
  826MOL0     H11492  -0.266   0.690   8.214 -3.4629  0.3951  1.9223
  826MOL0     H11493  -0.035   0.788   8.328 -1.1393  1.7639  3.5127
  826MOL0     H11494   0.422   0.482   8.510  2.9892 -1.3961  0.1271
  826MOL0     H11495   0.648   0.557   8.569 -0.0181 -0.3679  0.8357
  826MOL0     H11496   2.415   1.279   8.364 -0.2923  1.5651  0.4326
  826MOL0     H11497   2.652   1.148   8.379  0.5358 -1.5144 -0.2795
  826MOL0     H11498   2.829   0.619   8.477  0.8191  0.7608 -0.7107
  826MOL0     H11499   3.041   0.519   8.534 -2.7217 -1.2149  1.4634
  826MOL0     H11500   3.390   0.817   8.516  1.1818 -2.8927 -1.8600
  826MOL0     H11501   3.364   0.810   8.696 -0.7266 -1.5791  1.7359
  826MOL0     H11502   3.591   0.751   8.648 -1.2613  0.7148  0.9864
  826MOL0     H11503   3.548   0.650   8.509 -2.1718 -0.3070 -1.1029
  826MOL0     H11504   3.622   0.519   8.695  1.3970  3.1890 -0.3288
  826MOL0     H11505   3.445   0.483   8.678  0.9104 -2.1995  1.2706
  826MOL0     H11506   3.492   0.512   8.911  2.3350 -1.3145 -0.9086
  826MOL0     H11507   3.389   0.640   8.851 -0.5139 -1.0735 -0.6828
  826MOL0     H11508   3.708   0.861   9.004 -0.7900 -0.8461  2.6152
  826MOL0     H11509   3.191   0.915   8.624 -2.0422  3.0635 -0.3538
  826MOL0     H11510   2.980   1.014   8.579 -2.9908 -0.1463  0.4748
  827MOL0     O11511   1.446   4.067  10.383  0.3436 -0.0130 -0.6512
  827MOL0     C11512   1.417   4.034  10.268  0.3060 -0.1784  0.3883
  827MOL0     O11513   1.502   4.004  10.166 -0.5994  0.6517 -0.1775
  827MOL0     C11514   1.624   4.055  10.192  0.5040 -0.5585 -0.3284
  827MOL0     C11515   1.649   4.192  10.210  0.3788 -0.5359 -0.7469
  827MOL0     C11516   1.776   4.234  10.251 -0.7997  0.2410 -0.0593
  827MOL0     C11517   1.884   4.147  10.274 -0.2477  0.0773 -0.4033
  827MOL0     O11518   2.012   4.191  10.312 -0.1068 -0.0036  0.3735
  827MOL0     C11519   2.091   4.107  10.395 -0.3363  0.1119 -0.3612
  827MOL0     C11520   2.227   4.169  10.435  0.7571  0.5263 -0.1398
  827MOL0     C11521   2.224   4.294  10.520 -0.4651  0.5525  0.5007
  827MOL0     C11522   2.361   4.355  10.552 -0.8792 -0.0334  0.5284
  827MOL0     C11523   2.357   4.476  10.638  0.2571 -0.2522 -0.3572
  827MOL0     C11524   2.320   4.445  10.784 -0.6730 -0.3554 -0.1159
  827MOL0     C11525   2.329   4.573  10.872 -0.6404  0.8998  0.3357
  827MOL0     C11526   2.194   4.639  10.876  0.0428  0.3792  0.7425
  827MOL0     N11527   2.177   4.752  10.961 -0.0606 -0.2122  0.1916
  827MOL0     C11528   2.086   4.741  11.068  0.2243  0.2883 -0.3029
  827MOL0     C11529   2.063   4.873  11.119  0.5340  0.9901  0.5929
  827MOL0     C11530   1.946   4.899  11.214 -0.5666  0.6040  0.4188
  827MOL0     C11531   1.809   4.849  11.158 -0.4649  0.1802 -0.2144
  827MOL0     C11532   1.700   4.881  11.261 -1.2456  0.0129  0.9476
  827MOL0     C11533   1.572   4.820  11.207 -0.1818  0.0064  0.4523
  827MOL0     O11534   1.571   4.682  11.232  0.5781  0.1671  0.1148
  827MOL0     C11535   1.471   4.607  11.177 -0.2167 -0.4462 -0.2119
  827MOL0     C11536   1.508   4.473  11.151  0.4756  0.0019  0.5258
  827MOL0     C11537   1.419   4.383  11.077 -0.0250 -0.1387  0.0331
  827MOL0     C11538   1.466   4.236  11.064 -0.0085  0.6060  0.1475
  827MOL0     C11539   1.297   4.434  11.021  0.2421 -0.5627  0.3168
  827MOL0     C11540   1.210   4.355  10.933 -0.0729 -0.0487  0.3532
  827MOL0     O11541   1.075   4.347  10.964 -0.4678 -0.0508  0.1685
  827MOL0     C11542   0.991   4.257  10.896 -0.1759 -0.2973 -0.8317
  827MOL0     C11543   1.018   4.123  10.911  0.7068  0.1548  0.1309
  827MOL0     C11544   0.924   4.029  10.851 -1.4109  1.3230  0.1746
  827MOL0     C11545   0.810   4.083  10.779  0.2385 -0.2115  0.7505
  827MOL0     O11546   0.707   3.997  10.750 -0.4830 -0.1854  0.2174
  827MOL0     C11547   0.684   3.984  10.607 -0.7052  0.2023 -0.3690
  827MOL0     C11548   0.556   3.900  10.600 -0.1337 -0.0793 -0.0022
  827MOL0     C11549   0.429   3.990  10.638  0.3520  0.4841  0.3526
  827MOL0     C11550   0.334   3.926  10.733  0.0706 -0.2144 -0.4408
  827MOL0     C11551   0.237   4.029  10.801 -0.2620  0.0558  0.2006
  827MOL0     C11552   0.143   3.968  10.895  0.0854 -0.2716  0.1897
  827MOL0     C11553   0.074   4.058  10.994  0.2896  0.0256  0.3273
  827MOL0     C11554   0.013   3.964  11.100 -0.5656 -0.3545  0.0150
  827MOL0    Cl11555  -0.025   4.064  11.239 -0.1835  0.0782  0.1858
  827MOL0     C11556   0.789   4.219  10.771 -0.1709 -0.3753  0.3214
  827MOL0     C11557   0.884   4.307  10.827 -0.1828  0.0226  0.2821
  827MOL0     O11558   1.260   4.323  10.832 -0.1923  0.1450  0.9753
  827MOL0     C11559   1.255   4.563  11.066 -0.1160 -0.1710  0.2825
  827MOL0     C11560   1.344   4.651  11.142 -0.6685 -0.7392 -0.0571
  827MOL0     N11561   2.142   4.955  11.041  0.1905  0.5816  0.2317
  827MOL0     N11562   2.206   4.882  10.953  0.1779  0.6018  0.1503
  827MOL0     C11563   1.851   4.018  10.248  0.4663 -0.5016  0.4920
  827MOL0     C11564   1.733   3.971  10.211  0.3967 -0.4361  0.3403
  827MOL0     C11565   1.270   4.008  10.247 -0.3783  0.3601  0.0264
  827MOL0     C11566   1.169   4.002  10.352  0.4300  0.6306 -0.4615
  827MOL0     C11567   1.038   3.978  10.320  0.8698 -0.5425  0.0796
  827MOL0     C11568   1.002   3.966  10.187  1.0502  0.4037  0.0084
  827MOL0     O11569   0.864   3.947  10.158 -0.2126  0.6852  0.1971
  827MOL0     C11570   0.812   3.955  10.028  0.5131 -0.9739 -0.0776
  827MOL0     C11571   0.659   3.942  10.027 -0.7317  0.4018 -0.3043
  827MOL0     C11572   0.587   3.995  10.158  0.4088  0.5406  0.3968
  827MOL0     C11573   0.434   3.986  10.133  0.4849  0.5805 -0.2435
  827MOL0     C11574   0.369   4.056  10.249  0.8229 -0.3459  0.7233
  827MOL0     C11575   0.303   4.118  10.331  0.3130  0.6515 -0.1145
  827MOL0     C11576   1.096   3.985  10.082  0.6093  1.1432 -0.7049
  827MOL0     C11577   1.231   4.005  10.113 -0.2927  0.1828 -0.7191
  827MOL0     H11578   1.565   4.259  10.197  0.4662  0.0519  1.3278
  827MOL0     H11579   1.790   4.339  10.274 -1.1983  0.2000  0.3943
  827MOL0     H11580   2.045   4.087  10.492 -0.2392  1.1319 -0.0979
  827MOL0     H11581   2.117   4.017  10.339 -0.9022 -0.8635  0.9026
  827MOL0     H11582   2.289   4.091  10.480  0.4874 -1.0683 -2.3262
  827MOL0     H11583   2.284   4.206  10.350  0.4890  0.5052 -0.3311
  827MOL0     H11584   2.161   4.373  10.481 -2.1447  0.4682  2.8173
  827MOL0     H11585   2.178   4.259  10.613 -0.8622  1.2337  0.5589
  827MOL0     H11586   2.423   4.274  10.593 -0.4421 -0.0093 -0.0666
  827MOL0     H11587   2.408   4.387  10.459  0.6241  1.4494  1.7354
  827MOL0     H11588   2.459   4.514  10.638 -0.1998  0.9975 -0.6816
  827MOL0     H11589   2.282   4.545  10.600 -0.1797  0.7216  2.0489
  827MOL0     H11590   2.224   4.393  10.789 -0.6259 -0.4545 -0.2377
  827MOL0     H11591   2.401   4.380  10.817  0.9903  1.2012 -0.9057
  827MOL0     H11592   2.365   4.544  10.971 -2.3367  1.3722  1.1087
  827MOL0     H11593   2.411   4.637  10.835  1.8403 -2.2702 -0.1370
  827MOL0     H11594   2.117   4.564  10.891  0.0574  0.6361  2.2695
  827MOL0     H11595   2.165   4.672  10.776 -2.0783 -2.6490  0.2465
  827MOL0     H11596   2.027   4.651  11.077  0.0485  0.0982 -2.7335
  827MOL0     H11597   1.977   4.858  11.310 -0.8342 -1.6575 -0.3952
  827MOL0     H11598   1.939   5.008  11.222 -1.6876  0.4827  1.2505
  827MOL0     H11599   1.808   4.740  11.148  0.1792  0.3947 -3.8313
  827MOL0     H11600   1.788   4.890  11.059 -0.7457  0.8308  0.1121
  827MOL0     H11601   1.692   4.989  11.278 -3.7372 -0.4425  3.4885
  827MOL0     H11602   1.716   4.835  11.359  3.8041 -1.5470 -0.3197
  827MOL0     H11603   1.561   4.839  11.100 -2.8605  2.2760  0.9933
  827MOL0     H11604   1.485   4.872  11.249 -0.3480  2.2842 -2.3736
  827MOL0     H11605   1.603   4.426  11.174  0.8148 -0.0587 -0.8763
  827MOL0     H11606   1.525   4.228  10.973 -0.6072  2.6957 -0.4726
  827MOL0     H11607   1.536   4.216  11.146  0.7938  1.5277 -0.2851
  827MOL0     H11608   1.382   4.166  11.064  1.2103 -0.9614  1.7843
  827MOL0     H11609   1.111   4.088  10.954  1.1989  0.4152 -0.6888
  827MOL0     H11610   0.946   3.924  10.866  0.6413  1.8234  0.9272
  827MOL0     H11611   0.682   4.084  10.562  1.7328  0.3251 -0.3429
  827MOL0     H11612   0.770   3.930  10.565  0.6931  0.4593  1.9554
  827MOL0     H11613   0.544   3.862  10.498 -0.6315 -2.0369  0.7291
  827MOL0     H11614   0.555   3.820  10.675  1.2128  0.5399  0.7051
  827MOL0     H11615   0.372   4.027  10.553  2.0476  1.4342 -0.4278
  827MOL0     H11616   0.468   4.078  10.690  0.4947  0.5181  0.1912
  827MOL0     H11617   0.289   3.840  10.682  2.8530 -3.1093  1.5682
  827MOL0     H11618   0.397   3.896  10.817  2.8008 -1.3227 -2.7087
  827MOL0     H11619   0.188   4.081  10.718 -0.9520 -0.8293  0.0409
  827MOL0     H11620   0.298   4.096  10.862  0.7576 -1.3565  0.8033
  827MOL0     H11621   0.072   3.923  10.825  1.8162 -0.1726 -1.7225
  827MOL0     H11622   0.190   3.884  10.948  1.2718 -1.6669 -2.8545
  827MOL0     H11623  -0.007   4.117  10.951 -0.7740 -2.8838 -2.0863
  827MOL0     H11624   0.152   4.119  11.040 -0.0421  1.4486 -0.9139
  827MOL0     H11625   0.096   3.897  11.126  1.6518  0.0621 -4.9358
  827MOL0     H11626  -0.081   3.916  11.072 -1.6692  0.0730  2.7430
  827MOL0     H11627   0.688   4.255  10.752 -1.0295 -2.1779  1.2812
  827MOL0     H11628   0.876   4.415  10.839 -0.8002 -0.0486  0.5305
  827MOL0     H11629   1.158   4.599  11.036 -1.1872 -1.1655  2.3181
  827MOL0     H11630   1.318   4.754  11.161  1.3454 -0.5700  2.2435
  827MOL0     H11631   1.932   3.947  10.250  0.2469 -0.7459  1.0437
  827MOL0     H11632   1.720   3.868  10.181  0.9395 -0.7047  1.0016
  827MOL0     H11633   1.201   3.997  10.456  0.8270 -0.1117 -0.6219
  827MOL0     H11634   0.970   3.982  10.404 -1.1663  0.5889 -1.5191
  827MOL0     H11635   0.830   4.057   9.992 -0.8023  0.1241  2.1872
  827MOL0     H11636   0.859   3.889   9.954 -0.5484 -0.8761 -0.8633
  827MOL0     H11637   0.620   3.839  10.020  0.9520 -0.5249  2.2597
  827MOL0     H11638   0.619   3.988   9.937  0.1171  1.6667 -0.0540
  827MOL0     H11639   0.605   4.100  10.182 -2.3870  0.9591  1.0143
  827MOL0     H11640   0.614   3.936  10.245 -2.7478 -1.1116  0.3975
  827MOL0     H11641   0.399   3.883  10.126 -2.1096  1.3084  0.9255
  827MOL0     H11642   0.406   4.042  10.043 -0.6629 -2.0121 -1.5827
  827MOL0     H11643   0.253   4.182  10.402  1.4052  1.5346 -0.1246
  827MOL0     H11644   1.059   3.984   9.980 -3.2111 -0.6186  0.5109
  827MOL0     H11645   1.302   4.016  10.032  0.5190 -1.5406 -0.2910
  828MOL0     O11646   7.520   2.865   7.600  1.1823  0.5364  0.9477
  828MOL0     C11647   7.637   2.878   7.568 -0.9048 -0.5092 -0.0451
  828MOL0     O11648   7.695   2.806   7.466 -0.0681 -0.2352 -0.2788
  828MOL0     C11649   7.652   2.676   7.456  0.2203  0.1471  0.2459
  828MOL0     C11650   7.527   2.643   7.398 -0.0524 -0.3000 -0.6726
  828MOL0     C11651   7.485   2.517   7.395  0.2677  0.7749  0.2246
  828MOL0     C11652   7.561   2.401   7.425  0.8106  0.4556  0.0132
  828MOL0     O11653   7.540   2.266   7.420  0.0904  0.3946  0.2423
  828MOL0     C11654   7.402   2.225   7.406 -0.3336 -0.8508 -0.4685
  828MOL0     C11655   7.416   2.093   7.343 -0.4543 -0.3554 -0.0237
  828MOL0     C11656   7.279   2.037   7.334 -1.1613  0.6493 -0.4458
  828MOL0     C11657   7.299   1.904   7.262  0.6956  0.1234 -0.4469
  828MOL0     C11658   7.181   1.822   7.281  0.2493  0.7778  0.7903
  828MOL0     C11659   7.157   1.748   7.415 -0.2829  0.1096  0.5293
  828MOL0     C11660   7.031   1.658   7.418  0.0965 -0.2171  0.6877
  828MOL0     C11661   6.993   1.619   7.560  0.0818 -0.1774  0.4862
  828MOL0     N11662   6.888   1.519   7.576 -0.4104  0.6743 -0.0094
  828MOL0     C11663   6.772   1.515   7.514 -0.3295  1.0145  0.1349
  828MOL0     C11664   6.714   1.395   7.553 -0.3397  0.0120 -0.5199
  828MOL0     C11665   6.582   1.339   7.506  0.1565 -0.1774  0.1742
  828MOL0     C11666   6.475   1.329   7.619  0.1602 -0.1226  0.4735
  828MOL0     C11667   6.348   1.290   7.537 -0.1843 -0.3348 -0.9196
  828MOL0     C11668   6.229   1.274   7.636  0.0283  0.8823  0.3285
  828MOL0     O11669   6.197   1.412   7.676  0.7158  0.3692 -0.5202
  828MOL0     C11670   6.057   1.443   7.678  0.1871  0.2712  0.5057
  828MOL0     C11671   6.018   1.579   7.677 -0.4330 -0.2074  0.3168
  828MOL0     C11672   5.887   1.625   7.669  0.4807  0.8218 -0.2240
  828MOL0     C11673   5.860   1.778   7.669 -0.5534  0.7208 -0.9763
  828MOL0     C11674   5.786   1.525   7.646  0.0587  0.3198 -0.2775
  828MOL0     C11675   5.646   1.556   7.651 -0.2991  0.5007 -0.0473
  828MOL0     O11676   5.607   1.620   7.770 -0.7112 -0.2926  0.0992
  828MOL0     C11677   5.475   1.671   7.781  0.7505  0.5988 -0.4862
  828MOL0     C11678   5.441   1.795   7.732 -0.4258  0.3951  0.2573
  828MOL0     C11679   5.309   1.847   7.743 -0.1434  0.4010 -0.4858
  828MOL0     C11680   5.213   1.766   7.803 -0.7418  0.0269 -0.3059
  828MOL0     O11681   5.083   1.808   7.840  0.0633  0.5382  0.2084
  828MOL0     C11682   5.041   1.938   7.799  0.6639 -0.1289 -0.8911
  828MOL0     C11683   4.896   1.984   7.836 -0.9364  1.0092 -0.3452
  828MOL0     C11684   4.839   1.971   7.983 -0.4900  0.3529  0.5761
  828MOL0     C11685   4.691   1.979   7.995  0.3425  1.2094  0.0200
  828MOL0     C11686   4.626   2.097   7.921  0.7003  0.0785  0.1067
  828MOL0     C11687   4.480   2.106   7.959 -0.0601  0.4126  0.6030
  828MOL0     C11688   4.391   1.998   7.902 -0.0840 -0.1108 -0.4141
  828MOL0     C11689   4.247   2.019   7.936  0.7183  0.0637 -0.1974
  828MOL0    Cl11690   4.170   2.136   7.826 -0.1878 -0.2439  0.3927
  828MOL0     C11691   5.244   1.638   7.845 -0.6478  0.3679  0.4796
  828MOL0     C11692   5.370   1.595   7.842 -0.5462 -0.3815 -0.1844
  828MOL0     O11693   5.567   1.529   7.560 -0.3940  0.0070  0.3012
  828MOL0     C11694   5.823   1.390   7.636 -0.0253 -0.8316 -0.4086
  828MOL0     C11695   5.953   1.350   7.651 -0.2632  0.5705  0.0297
  828MOL0     N11696   6.803   1.319   7.635  0.8405  0.8434  0.0255
  828MOL0     N11697   6.899   1.404   7.645  0.1027 -0.6831 -0.1688
  828MOL0     C11698   7.686   2.434   7.476 -0.0872  0.5588 -0.2370
  828MOL0     C11699   7.735   2.568   7.500  0.2343  0.1601  0.5024
  828MOL0     C11700   7.721   2.996   7.621 -1.0034 -0.0379 -0.3514
  828MOL0     C11701   7.678   3.057   7.739  0.2508  0.0156 -0.6293
  828MOL0     C11702   7.754   3.153   7.801  0.5247  0.3471 -0.3576
  828MOL0     C11703   7.872   3.199   7.735  0.7106 -0.1634 -0.0524
  828MOL0     O11704   7.951   3.285   7.814  0.1736 -0.3516  0.5451
  828MOL0     C11705   8.083   3.287   7.774 -0.4460 -0.0964  0.1292
  828MOL0     C11706   8.168   3.379   7.858  0.4421  0.1794  0.0159
  828MOL0     C11707   8.308   3.347   7.816  0.6034 -0.1796  0.1934
  828MOL0     C11708   8.406   3.457   7.861  0.2812 -0.1944 -1.3116
  828MOL0     C11709   8.378   3.588   7.807 -0.3877  0.4021  1.1263
  828MOL0     C11710   8.326   3.680   7.750  1.2019 -0.9836  0.4863
  828MOL0     C11711   7.911   3.147   7.611 -0.0481  0.2564  0.2104
  828MOL0     C11712   7.838   3.033   7.553 -0.3323 -1.1680  0.7418
  828MOL0     H11713   7.459   2.722   7.368  0.0916 -0.8235 -2.4906
  828MOL0     H11714   7.395   2.503   7.335  0.7889 -2.6216  0.0112
  828MOL0     H11715   7.358   2.209   7.505 -3.1058 -0.5663 -1.5559
  828MOL0     H11716   7.347   2.296   7.342 -1.2366  1.0875  2.2781
  828MOL0     H11717   7.466   2.102   7.246 -1.8718 -1.3714 -0.8844
  828MOL0     H11718   7.475   2.038   7.417  0.6142 -0.0473 -0.6223
  828MOL0     H11719   7.231   2.034   7.432 -0.4914  0.1502 -0.1270
  828MOL0     H11720   7.217   2.092   7.263 -1.1620  0.5446 -0.5274
  828MOL0     H11721   7.316   1.919   7.155  1.8668  2.6717  0.0140
  828MOL0     H11722   7.393   1.859   7.296 -0.0534  0.5956  2.5977
  828MOL0     H11723   7.085   1.875   7.271  0.5297  1.0993 -0.3390
  828MOL0     H11724   7.180   1.754   7.195  2.7904  2.9295 -1.1139
  828MOL0     H11725   7.248   1.691   7.437 -1.1858 -0.8853  1.8478
  828MOL0     H11726   7.153   1.831   7.486 -2.0473  0.2095  0.3583
  828MOL0     H11727   6.943   1.712   7.382  0.8380 -0.5003 -1.7383
  828MOL0     H11728   7.053   1.571   7.356  4.6750 -0.6401  2.5112
  828MOL0     H11729   6.977   1.717   7.608  0.5940  1.0281 -1.6929
  828MOL0     H11730   7.085   1.579   7.605  0.3153  0.0606  0.2257
  828MOL0     H11731   6.729   1.589   7.447 -0.2328  1.1430  0.2131
  828MOL0     H11732   6.559   1.404   7.421 -0.9684  1.1298  1.4036
  828MOL0     H11733   6.589   1.234   7.478 -5.4137 -1.1688  1.2013
  828MOL0     H11734   6.460   1.425   7.670  0.6707 -0.4037  1.1580
  828MOL0     H11735   6.499   1.241   7.681 -2.3361 -1.5599 -0.4406
  828MOL0     H11736   6.374   1.189   7.502 -0.7496 -0.3343 -1.3360
  828MOL0     H11737   6.318   1.373   7.473  0.5495  4.0054  3.7034
  828MOL0     H11738   6.261   1.207   7.716  0.7972 -1.1430 -1.5426
  828MOL0     H11739   6.152   1.218   7.581  1.5368 -0.7640 -0.1909
  828MOL0     H11740   6.094   1.657   7.681 -1.2479  0.6155 -0.0102
  828MOL0     H11741   5.761   1.807   7.706 -0.4220 -1.2622  1.2225
  828MOL0     H11742   5.938   1.820   7.733 -1.4468 -1.7366  2.0022
  828MOL0     H11743   5.867   1.823   7.570 -0.9857  1.0081 -0.8762
  828MOL0     H11744   5.525   1.849   7.690  1.3036 -2.1377  0.2549
  828MOL0     H11745   5.291   1.948   7.707 -3.0505  0.0016 -0.3563
  828MOL0     H11746   5.111   2.001   7.854  1.7867 -2.1234  0.0640
  828MOL0     H11747   5.058   1.949   7.691  2.9017  0.5024 -0.5175
  828MOL0     H11748   4.903   2.092   7.822  0.3155  0.7114 -2.3580
  828MOL0     H11749   4.812   1.953   7.774 -0.6537  0.5285 -0.4979
  828MOL0     H11750   4.894   2.044   8.042  0.9621  0.7430 -1.1745
  828MOL0     H11751   4.874   1.872   8.013  0.2269  0.1339 -0.9009
  828MOL0     H11752   4.641   1.885   7.969  1.7535  0.7233 -1.0618
  828MOL0     H11753   4.663   1.974   8.100 -3.7553 -1.9687 -0.9545
  828MOL0     H11754   4.643   2.094   7.813  3.2435 -0.8314  0.4752
  828MOL0     H11755   4.677   2.191   7.944  2.2552  0.1095 -2.8693
  828MOL0     H11756   4.475   2.107   8.068  0.9865 -0.8570  0.6964
  828MOL0     H11757   4.447   2.206   7.930  2.4546  0.8732 -0.9659
  828MOL0     H11758   4.430   1.908   7.952  1.6592  0.3942 -0.7947
  828MOL0     H11759   4.411   1.978   7.796 -0.2377  0.8164 -0.6280
  828MOL0     H11760   4.234   2.061   8.036 -1.1591 -1.8865  0.4587
  828MOL0     H11761   4.195   1.923   7.929 -0.1060  0.5841 -1.6804
  828MOL0     H11762   5.174   1.568   7.889 -2.1327  1.5245  0.0384
  828MOL0     H11763   5.393   1.493   7.871  0.7198  0.1236  0.6969
  828MOL0     H11764   5.750   1.310   7.627 -0.8600 -0.2423  0.8135
  828MOL0     H11765   5.965   1.242   7.650  0.0879  0.5576  1.8849
  828MOL0     H11766   7.753   2.362   7.522 -3.9186 -3.4358 -0.2843
  828MOL0     H11767   7.829   2.598   7.547  0.5042  1.4402 -0.7851
  828MOL0     H11768   7.585   3.020   7.782  1.2412 -1.9195 -0.0373
  828MOL0     H11769   7.727   3.188   7.900 -2.8585 -2.2600 -0.1698
  828MOL0     H11770   8.119   3.183   7.776  0.5952  0.2531  2.3564
  828MOL0     H11771   8.096   3.318   7.670  1.3413  2.2606  0.9564
  828MOL0     H11772   8.164   3.363   7.966  1.7467  1.1651  0.2431
  828MOL0     H11773   8.136   3.482   7.837 -0.9640  0.9218  4.6040
  828MOL0     H11774   8.303   3.338   7.707  0.6212 -0.5281  0.2205
  828MOL0     H11775   8.330   3.246   7.851 -0.8092  0.6795  4.0229
  828MOL0     H11776   8.509   3.445   7.827  2.1596  3.7285  2.1482
  828MOL0     H11777   8.422   3.459   7.969  1.6847  0.0543 -1.5131
  828MOL0     H11778   8.282   3.772   7.715  4.5785  1.2121  1.4924
  828MOL0     H11779   8.008   3.163   7.565  0.1449  0.6185  0.7412
  828MOL0     H11780   7.876   2.977   7.468  1.3430 -0.4960  1.0145
  829MOL0     O11781   7.642   1.557  10.930 -0.6036 -0.0264 -0.3127
  829MOL0     C11782   7.636   1.461  10.860  0.0224 -0.3369 -0.9225
  829MOL0     O11783   7.701   1.451  10.739 -0.4134 -1.0232 -0.3107
  829MOL0     C11784   7.820   1.513  10.717 -0.3603 -0.5138 -0.1725
  829MOL0     C11785   7.841   1.572  10.588  0.0703  0.4316 -0.3223
  829MOL0     C11786   7.958   1.640  10.564 -0.4000  0.4920  0.4229
  829MOL0     C11787   8.061   1.654  10.661  0.7769  0.3091  0.5171
  829MOL0     O11788   8.181   1.714  10.652  0.1276  0.1907 -0.1274
  829MOL0     C11789   8.196   1.801  10.536  0.3580  0.7813 -0.6117
  829MOL0     C11790   8.322   1.879  10.529 -0.0569 -0.3656  0.7281
  829MOL0     C11791   8.433   1.775  10.487 -0.6065 -0.6456  0.0271
  829MOL0     C11792   8.564   1.845  10.479  0.1140 -0.2758 -0.1524
  829MOL0     C11793   8.661   1.758  10.396 -0.6800 -0.0305  0.3411
  829MOL0     C11794   8.808   1.810  10.399 -1.4536  0.5879 -0.8111
  829MOL0     C11795   8.901   1.721  10.316  0.1143  0.0650  0.0073
  829MOL0     C11796   9.053   1.761  10.339  0.1938  0.1352 -0.6315
  829MOL0     N11797   9.089   1.909  10.341  0.2888 -1.0442 -0.5765
  829MOL0     C11798   9.170   1.974  10.252 -0.3162  0.1906 -0.3557
  829MOL0     C11799   9.181   2.102  10.292 -0.4978 -0.6676 -0.3682
  829MOL0     C11800   9.231   2.220  10.216 -0.4244  0.2676 -0.6361
  829MOL0     C11801   9.317   2.164  10.093  0.5329  0.4802 -0.6755
  829MOL0     C11802   9.386   2.279  10.023 -0.1467 -0.4776  0.7373
  829MOL0     C11803   9.450   2.239   9.884  0.0087 -0.5630  0.0394
  829MOL0     O11804   9.492   2.361   9.812  0.1149 -0.1006 -0.3909
  829MOL0     C11805   9.454   2.341   9.687 -0.6310  0.3667 -0.0073
  829MOL0     C11806   9.534   2.266   9.602 -0.4037 -0.2548  0.3319
  829MOL0     C11807   9.501   2.248   9.470  0.5539 -0.0581 -0.4689
  829MOL0     C11808   9.600   2.165   9.397 -0.0098 -0.1427 -0.1765
  829MOL0     C11809   9.383   2.300   9.423  0.4549  0.7291 -0.2880
  829MOL0     C11810   9.342   2.287   9.277 -0.6997  0.0306  0.1042
  829MOL0     O11811   9.210   2.324   9.252 -0.4158  0.2410  0.0489
  829MOL0     C11812   9.150   2.340   9.131 -0.4159  0.3276  0.6077
  829MOL0     C11813   9.210   2.439   9.051 -1.0921  0.4297 -0.6820
  829MOL0     C11814   9.178   2.451   8.919  0.5748  0.4115  0.2951
  829MOL0     C11815   9.071   2.373   8.863  0.9771 -0.2930 -0.4142
  829MOL0     O11816   9.011   2.392   8.749  0.2329  0.5411 -0.3587
  829MOL0     C11817   9.060   2.494   8.655 -0.5510  0.3044 -0.0662
  829MOL0     C11818   8.973   2.625   8.675 -0.1289 -0.3252 -0.3050
  829MOL0     C11819   8.824   2.605   8.682  0.6590  0.7861 -0.9386
  829MOL0     C11820   8.760   2.565   8.550 -0.1965  0.5342 -0.0239
  829MOL0     C11821   8.641   2.468   8.569 -0.8959  0.1223 -0.3832
  829MOL0     C11822   8.569   2.444   8.440 -0.5463 -0.0089  0.5145
  829MOL0     C11823   8.487   2.311   8.445 -0.2764 -0.5494 -0.6273
  829MOL0     C11824   8.363   2.331   8.533  0.6886  0.5124  0.0283
  829MOL0    Cl11825   8.261   2.472   8.498 -0.0747  0.2745  0.2686
  829MOL0     C11826   9.015   2.271   8.944 -0.3696 -0.7109  0.1903
  829MOL0     C11827   9.050   2.255   9.079 -1.1522  0.5070 -0.4322
  829MOL0     O11828   9.410   2.232   9.193 -0.1450 -0.0621 -0.5321
  829MOL0     C11829   9.304   2.385   9.508 -0.0402  0.1470  0.3003
  829MOL0     C11830   9.337   2.401   9.641  0.1563  1.0172  0.0379
  829MOL0     N11831   9.129   2.112  10.421  0.0752 -1.0255 -0.3364
  829MOL0     N11832   9.065   2.003  10.448  0.2943 -0.6297  0.3990
  829MOL0     C11833   8.037   1.596  10.781 -0.7789  0.5841  0.6304
  829MOL0     C11834   7.915   1.524  10.809  1.3094 -0.7249 -0.2294
  829MOL0     C11835   7.525   1.359  10.893  0.4386 -0.8518 -0.1129
  829MOL0     C11836   7.529   1.236  10.839 -0.5071  0.0748  0.4416
  829MOL0     C11837   7.437   1.140  10.866 -0.0740 -0.9289  0.3006
  829MOL0     C11838   7.317   1.174  10.932 -0.6076 -0.2807  0.5776
  829MOL0     O11839   7.215   1.085  10.930  0.1517  0.5683  0.1703
  829MOL0     C11840   7.084   1.126  10.975 -0.5657  0.2054 -0.1018
  829MOL0     C11841   6.965   1.053  10.892  0.5918 -0.5748 -0.5746
  829MOL0     C11842   6.980   0.902  10.878  0.6421  0.2472 -0.0746
  829MOL0     C11843   6.914   0.836  11.002 -0.7366  0.5844  0.8539
  829MOL0     C11844   6.981   0.706  11.009  1.1958  0.0821 -0.5076
  829MOL0     C11845   7.049   0.608  11.029  0.2737 -1.0724 -0.1763
  829MOL0     C11846   7.311   1.301  10.988  0.1307  0.6117  0.6120
  829MOL0     C11847   7.410   1.388  10.974 -0.4206 -0.4199  0.0118
  829MOL0     H11848   7.757   1.572  10.520 -0.2907  3.2645  0.0212
  829MOL0     H11849   7.981   1.692  10.471  2.4542 -2.4334 -0.6701
  829MOL0     H11850   8.191   1.750  10.440  1.5018  1.3439 -0.9901
  829MOL0     H11851   8.117   1.876  10.545 -0.4311 -0.2398  1.9123
  829MOL0     H11852   8.299   1.955  10.454  0.0925  0.5212  1.5588
  829MOL0     H11853   8.335   1.934  10.623 -0.8178 -0.1532  0.7122
  829MOL0     H11854   8.449   1.687  10.549  3.0339 -0.5345 -0.5514
  829MOL0     H11855   8.413   1.734  10.388 -0.4711 -2.7260  0.8239
  829MOL0     H11856   8.554   1.947  10.440  3.2492  0.2578  0.1537
  829MOL0     H11857   8.594   1.860  10.583  1.9367  1.7533 -0.9018
  829MOL0     H11858   8.666   1.659  10.443  0.2067 -0.2063 -0.1060
  829MOL0     H11859   8.617   1.743  10.297 -1.6147 -4.6799  1.2294
  829MOL0     H11860   8.813   1.917  10.375 -2.3789  1.6400  2.9432
  829MOL0     H11861   8.841   1.810  10.503 -1.5992  1.1319 -0.7602
  829MOL0     H11862   8.884   1.618  10.350  1.3207 -0.7171 -1.5853
  829MOL0     H11863   8.873   1.734  10.211  0.3364  4.3147  0.3166
  829MOL0     H11864   9.102   1.726  10.248 -0.6328  0.4757 -1.2128
  829MOL0     H11865   9.081   1.714  10.434 -0.9818 -0.0080 -0.3455
  829MOL0     H11866   9.207   1.925  10.163 -0.1535  0.0347 -0.2011
  829MOL0     H11867   9.141   2.266  10.173 -0.1616  1.8962  0.4415
  829MOL0     H11868   9.274   2.295  10.283 -2.2189 -1.0157  2.1633
  829MOL0     H11869   9.256   2.113  10.018  0.7804  1.3187 -1.4738
  829MOL0     H11870   9.393   2.095  10.130  0.2985  0.6188  0.0861
  829MOL0     H11871   9.461   2.335  10.081 -0.0406  0.7699 -0.5397
  829MOL0     H11872   9.317   2.362  10.007  0.2149 -0.0276  1.4184
  829MOL0     H11873   9.397   2.170   9.818  0.1214 -0.6844  0.0739
  829MOL0     H11874   9.540   2.185   9.915 -0.1052  0.4899  2.4288
  829MOL0     H11875   9.626   2.229   9.645  2.2334  3.2403 -1.7423
  829MOL0     H11876   9.550   2.074   9.363 -1.1900  0.5306 -0.3028
  829MOL0     H11877   9.639   2.218   9.310  0.8118  2.9915  1.9319
  829MOL0     H11878   9.696   2.144   9.445  0.1371 -0.4630 -0.6103
  829MOL0     H11879   9.286   2.500   9.097 -1.6823  0.9847 -0.4346
  829MOL0     H11880   9.230   2.529   8.864  1.3716  0.4191  1.0450
  829MOL0     H11881   9.167   2.511   8.662 -0.3165 -1.4670  1.5424
  829MOL0     H11882   9.041   2.459   8.554  1.4390  1.0184 -0.7346
  829MOL0     H11883   9.003   2.667   8.772 -0.4927 -2.8125  0.9851
  829MOL0     H11884   9.001   2.688   8.590 -1.8159 -1.9905 -2.1924
  829MOL0     H11885   8.775   2.700   8.706 -2.2480 -0.7267 -0.4303
  829MOL0     H11886   8.799   2.531   8.759 -3.3633 -1.3440 -3.9482
  829MOL0     H11887   8.728   2.658   8.502  0.0060 -0.0248 -1.2980
  829MOL0     H11888   8.836   2.517   8.487  2.8608  2.5124  1.9224
  829MOL0     H11889   8.566   2.506   8.639 -0.9234  0.8546 -0.8044
  829MOL0     H11890   8.671   2.370   8.609  0.6505  0.9151  0.5034
  829MOL0     H11891   8.500   2.524   8.411 -0.5991 -0.7259 -1.5427
  829MOL0     H11892   8.641   2.442   8.358 -0.7653 -2.7800  0.3119
  829MOL0     H11893   8.553   2.229   8.474  0.7796  0.0395 -1.2770
  829MOL0     H11894   8.451   2.285   8.346 -0.4994 -2.7307 -0.0177
  829MOL0     H11895   8.404   2.331   8.635  1.9526 -2.3836 -0.3756
  829MOL0     H11896   8.307   2.237   8.532  0.7813  0.4563 -0.9375
  829MOL0     H11897   8.929   2.221   8.901 -2.2110  2.1753  0.3115
  829MOL0     H11898   8.991   2.182   9.132 -1.3480 -0.2554 -1.6498
  829MOL0     H11899   9.217   2.440   9.472 -0.4980 -0.1388  0.9479
  829MOL0     H11900   9.264   2.458   9.697 -0.4456  1.1909 -0.8963
  829MOL0     H11901   8.117   1.595  10.853  1.0347 -0.7213 -1.2667
  829MOL0     H11902   7.893   1.488  10.908 -0.2386 -0.0342 -0.2970
  829MOL0     H11903   7.607   1.211  10.768 -2.0528 -0.7973 -1.0227
  829MOL0     H11904   7.458   1.045  10.818 -1.1635 -0.1934 -1.7435
  829MOL0     H11905   7.067   1.118  11.083 -2.0967 -0.8922 -0.3849
  829MOL0     H11906   7.075   1.231  10.945  2.1477  0.0337 -1.9113
  829MOL0     H11907   6.967   1.093  10.791  0.9307  1.6451  0.2539
  829MOL0     H11908   6.868   1.086  10.929  0.4543 -1.8908  0.3360
  829MOL0     H11909   7.084   0.875  10.857  1.3724 -1.1400  4.2865
  829MOL0     H11910   6.920   0.868  10.793  0.9085  2.1443 -1.0797
  829MOL0     H11911   6.805   0.833  10.993 -0.6277  1.0840 -0.9899
  829MOL0     H11912   6.945   0.898  11.087 -0.6604  2.8427 -0.7231
  829MOL0     H11913   7.111   0.520  11.031 -1.5594 -2.4857 -1.3698
  829MOL0     H11914   7.225   1.330  11.046  0.2750  0.9743  0.6493
  829MOL0     H11915   7.380   1.483  11.018 -2.2249  0.1154 -2.2090
  830MOL0     O11916   1.527   0.483   8.266  0.6017 -0.0759 -0.2049
  830MOL0     C11917   1.641   0.484   8.224  0.2707  0.4916  0.1093
  830MOL0     O11918   1.684   0.571   8.131  0.4020 -0.8300  0.4304
  830MOL0     C11919   1.602   0.671   8.088  0.0188  0.1924 -0.2323
  830MOL0     C11920   1.581   0.770   8.179 -0.3199  0.5088 -0.0544
  830MOL0     C11921   1.504   0.885   8.154  0.1013  0.8235  0.1148
  830MOL0     C11922   1.428   0.884   8.039 -0.3945 -0.3305  0.6312
  830MOL0     O11923   1.351   0.994   8.010 -0.3449  0.2828  0.6381
  830MOL0     C11924   1.223   0.965   7.958 -0.1883 -0.3367 -0.5733
  830MOL0     C11925   1.141   1.092   8.009 -0.6681 -0.5408  0.2050
  830MOL0     C11926   1.180   1.216   7.923  0.4710 -0.1472  0.2105
  830MOL0     C11927   1.088   1.331   7.945 -0.3177 -0.2201  0.3177
  830MOL0     C11928   1.140   1.460   7.886 -0.5544  1.0225  1.2535
  830MOL0     C11929   1.035   1.578   7.895 -0.3204 -0.3647 -1.0546
  830MOL0     C11930   1.057   1.671   8.018  0.2262 -0.2346  0.0718
  830MOL0     C11931   0.947   1.783   8.032 -0.5057  0.2918  0.1616
  830MOL0     N11932   0.978   1.880   8.141 -0.2814  0.5607 -0.1089
  830MOL0     C11933   0.906   1.914   8.256  0.6122 -0.1393 -0.0668
  830MOL0     C11934   0.979   2.004   8.331 -0.2319  0.1506  0.0459
  830MOL0     C11935   0.947   2.050   8.474  0.1743 -0.1228 -0.2191
  830MOL0     C11936   0.824   2.139   8.462 -0.9695  1.3314  0.6242
  830MOL0     C11937   0.741   2.145   8.590  0.2376  0.0566  0.0012
  830MOL0     C11938   0.652   2.023   8.622 -0.2598  0.7043 -0.5576
  830MOL0     O11939   0.572   1.986   8.514  0.6029 -0.2352  0.4532
  830MOL0     C11940   0.442   1.947   8.542  0.6334 -0.9133 -0.4573
  830MOL0     C11941   0.403   1.846   8.628 -0.5090  0.3566 -0.1705
  830MOL0     C11942   0.281   1.795   8.620  0.4610  0.0775 -0.3606
  830MOL0     C11943   0.262   1.669   8.703 -0.1712 -0.0237 -0.5770
  830MOL0     C11944   0.173   1.861   8.549 -0.7449 -0.1584 -0.3401
  830MOL0     C11945   0.040   1.799   8.533  0.7986 -0.7564  0.7364
  830MOL0     O11946  -0.039   1.849   8.429 -0.6310 -0.2163 -0.0468
  830MOL0     C11947  -0.161   1.784   8.404 -0.0598  0.0373  0.1213
  830MOL0     C11948  -0.271   1.864   8.365 -0.7837  0.2093 -0.2991
  830MOL0     C11949  -0.390   1.797   8.321 -0.2752 -0.5076 -0.6117
  830MOL0     C11950  -0.408   1.663   8.315 -0.1848 -0.0714  0.0491
  830MOL0     O11951  -0.518   1.588   8.287  0.2548  0.9975  0.3014
  830MOL0     C11952  -0.631   1.657   8.234 -0.1703  0.1076  0.7312
  830MOL0     C11953  -0.746   1.563   8.246 -0.6713 -0.0199  0.6713
  830MOL0     C11954  -0.884   1.623   8.213  0.7766 -0.0231  0.7550
  830MOL0     C11955  -0.940   1.594   8.073  0.8440 -0.2166  0.0526
  830MOL0     C11956  -1.068   1.675   8.040 -0.8112  0.2094 -0.4239
  830MOL0     C11957  -1.188   1.634   8.135 -0.5338 -0.1536 -0.1683
  830MOL0     C11958  -1.325   1.704   8.104  0.0092 -0.3956 -0.3467
  830MOL0     C11959  -1.423   1.686   8.214  0.8009 -0.1325 -0.2622
  830MOL0    Cl11960  -1.580   1.737   8.155 -0.6788 -0.2383 -0.2677
  830MOL0     C11961  -0.307   1.580   8.365 -0.3391 -0.2952  0.0745
  830MOL0     C11962  -0.188   1.644   8.406 -0.0307 -0.2740 -0.2645
  830MOL0     O11963  -0.010   1.720   8.621 -0.5129  0.4255 -0.0218
  830MOL0     C11964   0.205   1.981   8.478 -0.4162 -0.5428  0.1265
  830MOL0     C11965   0.348   2.012   8.464  0.2593 -0.4367 -0.4326
  830MOL0     N11966   1.084   2.038   8.244  0.3760 -0.1646 -0.4577
  830MOL0     N11967   1.090   1.966   8.142 -0.6307  0.5030 -0.2195
  830MOL0     C11968   1.445   0.777   7.944 -0.6951 -0.4430  0.3374
  830MOL0     C11969   1.543   0.679   7.966  0.4654  0.1996 -0.2314
  830MOL0     C11970   1.735   0.389   8.283 -0.3094  0.1201  0.9404
  830MOL0     C11971   1.865   0.386   8.230  0.4112 -0.5119 -0.4447
  830MOL0     C11972   1.973   0.330   8.300 -0.2827  1.2806 -0.1657
  830MOL0     C11973   1.944   0.275   8.425  0.2858  0.4147  0.0747
  830MOL0     O11974   2.052   0.214   8.493  0.2430  0.1931  0.5549
  830MOL0     C11975   2.031   0.163   8.619  0.7636  0.1897 -0.5024
  830MOL0     C11976   2.169   0.119   8.679  0.7036  0.1452 -0.2387
  830MOL0     C11977   2.160   0.120   8.835 -0.6632  0.2845 -0.2181
  830MOL0     C11978   2.257   0.021   8.904  0.0849  0.1469 -0.2513
  830MOL0     C11979   2.398   0.081   8.890 -0.3195  0.6474  0.2837
  830MOL0     C11980   2.511   0.113   8.853 -0.2681 -0.3017  0.3671
  830MOL0     C11981   1.815   0.282   8.482  0.3309 -0.2458 -0.1622
  830MOL0     C11982   1.714   0.343   8.413  0.8208 -0.6119 -0.8678
  830MOL0     H11983   1.622   0.753   8.278  2.2861  1.5112 -0.8531
  830MOL0     H11984   1.495   0.959   8.232 -1.0026  1.2474 -0.3920
  830MOL0     H11985   1.219   0.956   7.849  3.0171  3.1693 -1.1774
  830MOL0     H11986   1.180   0.876   8.005 -0.4047 -0.2790 -0.6628
  830MOL0     H11987   1.033   1.079   8.001 -0.5682 -0.6310 -1.1243
  830MOL0     H11988   1.159   1.107   8.116 -0.0766 -1.4821  0.2499
  830MOL0     H11989   1.279   1.246   7.959 -0.4405  2.4000  0.8127
  830MOL0     H11990   1.173   1.193   7.816  2.6223 -0.4359  0.0925
  830MOL0     H11991   0.994   1.307   7.895  1.3034 -0.0289 -3.1319
  830MOL0     H11992   1.091   1.345   8.054 -0.3621 -2.0039  0.5705
  830MOL0     H11993   1.235   1.486   7.934 -1.0433  0.3000  2.6665
  830MOL0     H11994   1.169   1.453   7.781  1.3246 -0.2356  1.8228
  830MOL0     H11995   1.025   1.637   7.804 -1.0288 -2.2409 -2.2663
  830MOL0     H11996   0.940   1.523   7.901  0.0094 -1.0428 -1.9491
  830MOL0     H11997   1.059   1.625   8.118 -0.8764  0.1804  0.3041
  830MOL0     H11998   1.152   1.723   8.002 -0.0425  0.1189 -0.3924
  830MOL0     H11999   0.851   1.743   8.065 -0.2101 -0.4187  0.1790
  830MOL0     H12000   0.947   1.837   7.937 -2.7212  1.8719  0.9809
  830MOL0     H12001   0.813   1.865   8.283  0.0842 -0.3882 -2.1563
  830MOL0     H12002   0.916   1.960   8.529 -0.6615  0.6530  0.6071
  830MOL0     H12003   1.034   2.097   8.520 -0.1949 -0.4140  0.8029
  830MOL0     H12004   0.768   2.103   8.375 -0.2064 -0.2269  0.7362
  830MOL0     H12005   0.854   2.244   8.456  1.8823  0.5436 -0.5437
  830MOL0     H12006   0.674   2.231   8.585  0.1625  0.0147  0.2838
  830MOL0     H12007   0.822   2.154   8.663  2.5263  0.2470 -2.4059
  830MOL0     H12008   0.590   2.021   8.712  1.5216  2.8733  0.8210
  830MOL0     H12009   0.728   1.947   8.642 -0.8502 -0.3293 -2.0618
  830MOL0     H12010   0.467   1.777   8.682 -1.3516 -2.5250 -2.6079
  830MOL0     H12011   0.219   1.585   8.648  0.8491 -0.6695 -0.4141
  830MOL0     H12012   0.349   1.633   8.758 -1.3152 -0.7715  0.8012
  830MOL0     H12013   0.193   1.701   8.782  2.7185  3.5563  0.7736
  830MOL0     H12014  -0.245   1.969   8.358  0.3622  0.2006  2.5253
  830MOL0     H12015  -0.470   1.862   8.288 -1.5237 -1.9169 -0.4428
  830MOL0     H12016  -0.654   1.747   8.291 -1.2103 -0.0677  0.6208
  830MOL0     H12017  -0.617   1.688   8.130  0.5304  2.3516  1.4212
  830MOL0     H12018  -0.742   1.475   8.181 -3.2343 -0.7576  1.3721
  830MOL0     H12019  -0.744   1.529   8.350 -1.0363 -0.8304  0.4179
  830MOL0     H12020  -0.874   1.729   8.237 -1.5445 -0.1173  2.4388
  830MOL0     H12021  -0.957   1.590   8.287  0.4660  1.5070  1.1655
  830MOL0     H12022  -0.858   1.618   8.004 -0.6728 -1.2245 -2.2304
  830MOL0     H12023  -0.956   1.487   8.061  3.2620 -1.1401  3.4406
  830MOL0     H12024  -1.100   1.647   7.939  0.1209 -2.5224 -0.0460
  830MOL0     H12025  -1.034   1.778   8.054  0.3429 -0.4062  1.6963
  830MOL0     H12026  -1.195   1.525   8.139  2.7154 -0.4146  1.0597
  830MOL0     H12027  -1.162   1.654   8.239  1.0501 -0.0065 -0.5663
  830MOL0     H12028  -1.360   1.666   8.007  1.6148  0.8773 -1.4772
  830MOL0     H12029  -1.317   1.812   8.089  0.5318 -0.1141  1.6440
  830MOL0     H12030  -1.392   1.746   8.300 -1.4082 -3.0499  2.8106
  830MOL0     H12031  -1.429   1.582   8.245  3.9839 -0.3628 -0.1156
  830MOL0     H12032  -0.313   1.472   8.374 -1.0074 -0.1190  2.2441
  830MOL0     H12033  -0.112   1.574   8.439  1.3613  0.7951 -1.1061
  830MOL0     H12034   0.132   2.032   8.417 -1.6003 -2.1113  0.1971
  830MOL0     H12035   0.383   2.095   8.403  0.9674  1.0580  1.8713
  830MOL0     H12036   1.386   0.764   7.853  0.0978  0.7224 -0.3707
  830MOL0     H12037   1.570   0.600   7.897 -0.9568 -0.7489  0.2617
  830MOL0     H12038   1.889   0.428   8.132  0.0949 -1.9550 -1.1718
  830MOL0     H12039   2.072   0.346   8.259  0.1678  0.7493  0.6829
  830MOL0     H12040   1.979   0.234   8.684 -2.4000 -2.7249  0.4482
  830MOL0     H12041   1.962   0.078   8.613  0.7438  0.2719 -1.6661
  830MOL0     H12042   2.240   0.200   8.659 -0.2146  0.3460 -3.0137
  830MOL0     H12043   2.207   0.025   8.639 -0.0078  1.1038 -3.4353
  830MOL0     H12044   2.055   0.091   8.836 -0.2622 -1.3009  0.1064
  830MOL0     H12045   2.170   0.222   8.873  1.5243 -0.4556  1.4066
  830MOL0     H12046   2.243  -0.076   8.854 -1.2766  0.5467 -0.6789
  830MOL0     H12047   2.237   0.010   9.011 -1.5916 -2.8616 -0.7479
  830MOL0     H12048   2.609   0.144   8.821 -0.2809 -0.2668  0.3619
  830MOL0     H12049   1.790   0.247   8.582 -2.4964 -2.5077 -1.5301
  830MOL0     H12050   1.626   0.373   8.469  1.0009 -1.4488 -0.1035
  831MOL0     O12051   6.973   7.369   8.395 -0.3325 -0.8113 -0.5599
  831MOL0     C12052   6.940   7.467   8.463 -0.3782 -0.0003  0.4950
  831MOL0     O12053   6.831   7.468   8.545 -0.0644  0.1656  0.0664
  831MOL0     C12054   6.764   7.353   8.586  0.6189 -1.8730  0.1646
  831MOL0     C12055   6.811   7.224   8.611 -0.2436 -0.8220  1.0488
  831MOL0     C12056   6.726   7.130   8.662  0.4991 -0.4223 -0.4740
  831MOL0     C12057   6.594   7.160   8.698  0.4428 -0.4106  0.1456
  831MOL0     O12058   6.525   7.065   8.761  0.2663 -0.0651  0.3602
  831MOL0     C12059   6.399   7.100   8.825 -0.3688 -0.1462  0.4171
  831MOL0     C12060   6.382   6.992   8.929 -0.0126 -0.1898  0.3124
  831MOL0     C12061   6.247   7.010   9.007  0.5204  0.7570 -0.3969
  831MOL0     C12062   6.189   6.880   9.082  0.2934  0.4983  0.5973
  831MOL0     C12063   6.093   6.911   9.196  0.2942  0.0038  0.5349
  831MOL0     C12064   6.038   6.777   9.260  0.1938 -0.0796  0.3004
  831MOL0     C12065   5.966   6.795   9.397 -0.1391 -0.3147  0.3065
  831MOL0     C12066   5.880   6.666   9.427 -0.4602 -0.0058  0.9169
  831MOL0     N12067   5.759   6.703   9.509 -0.3136 -0.5008  0.4656
  831MOL0     C12068   5.761   6.796   9.608  0.3239 -0.7467 -0.3785
  831MOL0     C12069   5.652   6.777   9.680 -0.6137 -0.1641  0.7379
  831MOL0     C12070   5.595   6.856   9.798  0.5220 -0.4074  0.5092
  831MOL0     C12071   5.451   6.891   9.768 -0.3352 -0.3960  0.5080
  831MOL0     C12072   5.448   6.995   9.658  0.4268 -0.0632 -0.6767
  831MOL0     C12073   5.310   7.065   9.631  0.3384  0.2701 -0.2104
  831MOL0     O12074   5.333   7.157   9.526  0.7416 -0.1858  1.3670
  831MOL0     C12075   5.224   7.214   9.469 -0.5036  0.6737 -0.8874
  831MOL0     C12076   5.098   7.199   9.528  0.7303  0.1220 -0.1812
  831MOL0     C12077   4.982   7.265   9.476  0.3193  0.2667 -0.2658
  831MOL0     C12078   4.854   7.241   9.551  0.3281 -0.2046  0.1095
  831MOL0     C12079   4.993   7.344   9.361 -0.2332  0.3653  0.2386
  831MOL0     C12080   4.886   7.415   9.285  0.5316  0.4105  0.6681
  831MOL0     O12081   4.895   7.430   9.150  0.8034  0.0890  0.1910
  831MOL0     C12082   4.797   7.504   9.090  1.6860  0.0048  0.2244
  831MOL0     C12083   4.753   7.626   9.131  0.1425  0.3645  0.6505
  831MOL0     C12084   4.639   7.686   9.075  0.8206  0.3968  0.0040
  831MOL0     C12085   4.582   7.638   8.954 -0.1315 -0.2881  0.0013
  831MOL0     O12086   4.484   7.707   8.896 -0.0396 -0.2888 -0.6805
  831MOL0     C12087   4.383   7.772   8.970  0.6925 -0.2002  0.4302
  831MOL0     C12088   4.241   7.713   8.930  0.4113  0.2230  0.5639
  831MOL0     C12089   4.139   7.791   9.004 -0.7346 -0.6256 -0.5063
  831MOL0     C12090   4.001   7.722   8.984 -0.4377 -0.7657  0.2591
  831MOL0     C12091   3.892   7.807   9.030  0.4992  0.6366 -0.3544
  831MOL0     C12092   3.755   7.734   9.018 -0.5394  0.0908 -0.6645
  831MOL0     C12093   3.639   7.814   9.083  0.1810  0.3325  0.2632
  831MOL0     C12094   3.508   7.727   9.093 -0.6888 -0.6429 -0.3797
  831MOL0    Cl12095   3.445   7.700   8.924  0.2899 -0.5875  0.3110
  831MOL0     C12096   4.629   7.520   8.908 -0.6169  0.6462 -0.5343
  831MOL0     C12097   4.735   7.447   8.970  0.6707  0.0473 -0.2887
  831MOL0     O12098   4.782   7.434   9.352 -0.5397  0.3839  0.3839
  831MOL0     C12099   5.120   7.352   9.304 -0.3884 -0.4190 -0.2067
  831MOL0     C12100   5.231   7.288   9.356 -0.0239 -0.7757  0.0871
  831MOL0     N12101   5.571   6.682   9.618 -0.4331 -0.1539 -0.8045
  831MOL0     N12102   5.636   6.638   9.519  0.2857 -0.7720 -0.4126
  831MOL0     C12103   6.542   7.283   8.667 -0.7018  0.2331  0.4295
  831MOL0     C12104   6.630   7.379   8.611  1.6544  0.4812  0.5590
  831MOL0     C12105   7.007   7.593   8.442 -0.4454  0.2438 -0.9853
  831MOL0     C12106   6.994   7.697   8.535  0.5763 -0.1235  0.3582
  831MOL0     C12107   7.068   7.813   8.530 -0.0815  0.6932 -0.6047
  831MOL0     C12108   7.152   7.834   8.423 -0.2431 -0.3763  0.1397
  831MOL0     O12109   7.234   7.945   8.418 -0.3113 -0.5125  0.5468
  831MOL0     C12110   7.307   7.989   8.299  0.5132  0.3621 -0.6120
  831MOL0     C12111   7.446   7.937   8.284  0.3433 -0.5115  0.0936
  831MOL0     C12112   7.534   7.988   8.396  0.0975  0.4338  0.0718
  831MOL0     C12113   7.664   7.912   8.398  0.5714  0.4352  0.2934
  831MOL0     C12114   7.756   7.955   8.499  0.0776 -0.2687  0.1303
  831MOL0     C12115   7.830   7.970   8.596  0.3637 -0.6229 -0.3069
  831MOL0     C12116   7.169   7.730   8.333 -0.2447 -0.3118  0.2929
  831MOL0     C12117   7.095   7.610   8.336  0.2918 -0.5111  0.0287
  831MOL0     H12118   6.911   7.190   8.585 -0.3133  0.4172 -1.0534
  831MOL0     H12119   6.760   7.027   8.674 -0.3950 -0.5525  1.2757
  831MOL0     H12120   6.400   7.198   8.874  1.0530 -1.5789  3.5594
  831MOL0     H12121   6.312   7.092   8.760 -0.7237  2.7612  0.3858
  831MOL0     H12122   6.396   6.892   8.887  2.4620 -0.5431  1.7782
  831MOL0     H12123   6.456   7.011   9.007  0.1099  2.4297 -0.3689
  831MOL0     H12124   6.254   7.089   9.083  0.3528 -1.7369  2.3829
  831MOL0     H12125   6.181   7.051   8.930  0.5848  2.2743  0.3047
  831MOL0     H12126   6.147   6.825   8.998 -0.2756  2.8433 -0.7209
  831MOL0     H12127   6.271   6.822   9.127 -0.1458 -2.8688 -2.4622
  831MOL0     H12128   6.138   6.970   9.276 -0.5581  2.3159 -0.5923
  831MOL0     H12129   6.002   6.960   9.158  2.2987  2.3340 -1.6138
  831MOL0     H12130   5.980   6.728   9.181  2.0050 -1.1243 -0.4431
  831MOL0     H12131   6.133   6.730   9.283  1.0349  1.6215  0.4775
  831MOL0     H12132   6.046   6.796   9.472 -0.1654  0.5494  0.3273
  831MOL0     H12133   5.908   6.887   9.402  1.0026  0.8441 -3.6792
  831MOL0     H12134   5.936   6.586   9.476 -1.6287 -0.5391  1.4236
  831MOL0     H12135   5.832   6.625   9.338 -2.3145  1.5746  1.1231
  831MOL0     H12136   5.843   6.866   9.623  0.4020 -0.4284 -2.0452
  831MOL0     H12137   5.620   6.793   9.883 -1.9198 -1.5232  0.4843
  831MOL0     H12138   5.659   6.943   9.816  1.1506 -0.9165  0.7627
  831MOL0     H12139   5.410   6.939   9.858  1.8401  0.7000  0.9695
  831MOL0     H12140   5.378   6.810   9.764 -1.9800  0.8248  2.8441
  831MOL0     H12141   5.472   6.950   9.561  6.5151  1.2982 -0.2081
  831MOL0     H12142   5.525   7.068   9.682  0.9420 -0.4479 -1.1308
  831MOL0     H12143   5.283   7.115   9.724  1.9021 -0.6687  0.7966
  831MOL0     H12144   5.244   6.981   9.605  0.5981 -0.7895  2.2395
  831MOL0     H12145   5.081   7.140   9.617 -1.2120  0.9361  0.0354
  831MOL0     H12146   4.853   7.176   9.638 -0.9355  1.9588  1.7977
  831MOL0     H12147   4.811   7.332   9.594 -0.3723 -1.1206  1.3986
  831MOL0     H12148   4.777   7.197   9.488 -0.4808  0.4726  0.6086
  831MOL0     H12149   4.787   7.673   9.223  2.0954  0.7624 -0.2259
  831MOL0     H12150   4.600   7.779   9.117  2.1045  1.0923 -0.3015
  831MOL0     H12151   4.395   7.765   9.078  2.4828  0.0799  0.2814
  831MOL0     H12152   4.387   7.872   8.925 -0.8240 -0.1565  0.3302
  831MOL0     H12153   4.215   7.704   8.825  2.5401 -2.1699  0.1469
  831MOL0     H12154   4.239   7.606   8.953 -1.7978  0.1740  0.3129
  831MOL0     H12155   4.148   7.894   8.966  0.8431 -1.0075 -1.2668
  831MOL0     H12156   4.154   7.795   9.112 -0.4779 -0.0760 -0.5552
  831MOL0     H12157   3.981   7.706   8.878  1.2432 -2.6065  0.1612
  831MOL0     H12158   4.003   7.625   9.035  1.7171  0.0271  1.8341
  831MOL0     H12159   3.881   7.896   8.968 -1.7609 -0.7161 -2.1208
  831MOL0     H12160   3.914   7.829   9.135 -0.4637  1.0479 -0.2313
  831MOL0     H12161   3.740   7.726   8.910 -1.1016 -1.1498 -0.5166
  831MOL0     H12162   3.756   7.635   9.064 -3.0267  0.5783  0.6642
  831MOL0     H12163   3.613   7.898   9.018  1.5245  0.3547 -0.2873
  831MOL0     H12164   3.667   7.858   9.179 -2.2407  0.2787  1.0665
  831MOL0     H12165   3.437   7.780   9.158  2.0364  2.0504  0.6510
  831MOL0     H12166   3.534   7.627   9.130  0.4503 -0.6123 -1.0546
  831MOL0     H12167   4.576   7.477   8.824 -2.7822 -0.6453  1.3514
  831MOL0     H12168   4.755   7.353   8.918  1.0589 -0.5968  0.9920
  831MOL0     H12169   5.135   7.412   9.215  0.1109  0.4653  0.4645
  831MOL0     H12170   5.318   7.333   9.308 -1.7473  1.6603 -1.0134
  831MOL0     H12171   6.441   7.320   8.681 -0.7249 -0.8503  4.2995
  831MOL0     H12172   6.592   7.477   8.584 -0.3434 -0.7018 -1.2740
  831MOL0     H12173   6.931   7.675   8.621 -2.0906  1.0351 -1.1551
  831MOL0     H12174   7.059   7.890   8.607  1.0549 -1.1951  1.5635
  831MOL0     H12175   7.257   7.946   8.211 -0.7842 -0.6920  0.6023
  831MOL0     H12176   7.307   8.097   8.283 -2.4653  0.2140 -2.3873
  831MOL0     H12177   7.484   7.974   8.188 -1.8219 -2.2260 -1.5594
  831MOL0     H12178   7.446   7.827   8.280 -1.2086 -0.5753  1.0306
  831MOL0     H12179   7.487   7.957   8.489 -0.5593  0.7276 -0.1585
  831MOL0     H12180   7.553   8.096   8.395  0.5930  0.3520 -0.6419
  831MOL0     H12181   7.727   7.937   8.312  0.2827 -1.9724 -0.6983
  831MOL0     H12182   7.646   7.805   8.410 -0.2781  0.4080 -0.9935
  831MOL0     H12183   7.881   7.986   8.688 -0.0952  0.5306 -0.2336
  831MOL0     H12184   7.228   7.741   8.243 -2.8878 -2.2076 -1.8646
  831MOL0     H12185   7.130   7.536   8.264 -0.9679 -1.0540 -0.0512
  832MOL0     O12186   4.486   8.742   6.772 -0.2546 -0.3617 -0.3417
  832MOL0     C12187   4.553   8.718   6.670 -1.0493  0.2120 -0.4649
  832MOL0     O12188   4.497   8.716   6.545 -1.1335  0.0640 -0.4588
  832MOL0     C12189   4.361   8.733   6.519  0.5360 -0.9678 -0.2425
  832MOL0     C12190   4.310   8.655   6.421  0.0726 -1.0176 -0.2551
  832MOL0     C12191   4.183   8.685   6.380  0.6695 -0.3434  1.1223
  832MOL0     C12192   4.114   8.805   6.415 -0.0815 -0.8551  0.9773
  832MOL0     O12193   3.988   8.818   6.357  0.2907  0.3663 -0.5219
  832MOL0     C12194   3.958   8.950   6.315  0.2872 -0.3430  0.5703
  832MOL0     C12195   3.811   8.945   6.290 -0.3817 -0.4126 -0.3976
  832MOL0     C12196   3.720   8.960   6.420 -0.1941  0.1606 -0.1612
  832MOL0     C12197   3.569   8.949   6.396 -0.0809 -0.0576  0.3626
  832MOL0     C12198   3.486   8.972   6.519 -0.0098 -0.0743  0.3726
  832MOL0     C12199   3.351   9.015   6.474 -0.4803 -0.4542 -1.0256
  832MOL0     C12200   3.275   8.924   6.381 -0.2903 -0.3457  0.0751
  832MOL0     C12201   3.130   8.967   6.333 -0.8175 -0.4146  0.6124
  832MOL0     N12202   3.023   8.915   6.421 -0.0110  0.5077 -0.7207
  832MOL0     C12203   3.022   8.910   6.556  0.7623  0.0951  0.5305
  832MOL0     C12204   2.897   8.852   6.591  0.0665  0.0424 -0.6182
  832MOL0     C12205   2.858   8.824   6.742 -0.6207 -0.3420 -0.4710
  832MOL0     C12206   2.710   8.864   6.772 -0.7962  0.1891 -0.0330
  832MOL0     C12207   2.625   8.747   6.760  0.1614  0.9063  0.3624
  832MOL0     C12208   2.485   8.783   6.808 -0.7932  0.3414  0.0247
  832MOL0     O12209   2.399   8.670   6.794  0.5007 -0.1141  0.1772
  832MOL0     C12210   2.260   8.681   6.796  0.4253  0.0040 -0.5650
  832MOL0     C12211   2.184   8.580   6.751 -0.3847  0.8514  0.7246
  832MOL0     C12212   2.040   8.578   6.760 -0.3974  0.6885 -0.5633
  832MOL0     C12213   1.973   8.467   6.679 -0.8340 -0.2101 -0.6366
  832MOL0     C12214   1.978   8.676   6.831  0.0470 -0.0547  0.4297
  832MOL0     C12215   1.827   8.685   6.856  0.3181  0.6572  0.0909
  832MOL0     O12216   1.746   8.589   6.807 -0.1869 -0.6252 -0.0323
  832MOL0     C12217   1.613   8.586   6.839  0.5559 -0.6958 -0.8383
  832MOL0     C12218   1.568   8.487   6.930  1.1370 -0.0763 -0.0463
  832MOL0     C12219   1.430   8.479   6.968  0.7337 -0.1833 -0.0207
  832MOL0     C12220   1.337   8.559   6.903  0.2078  0.4545 -0.9270
  832MOL0     O12221   1.200   8.544   6.925 -0.4132 -0.5522 -0.5925
  832MOL0     C12222   1.146   8.448   7.011  0.4866 -0.2544  0.5109
  832MOL0     C12223   0.991   8.470   7.022  0.8620 -0.0209 -0.4990
  832MOL0     C12224   0.910   8.444   6.892  0.3579  0.5650 -0.3542
  832MOL0     C12225   0.765   8.416   6.919 -0.6436 -0.6924 -0.7361
  832MOL0     C12226   0.715   8.295   6.827 -0.7414  0.3366 -0.4205
  832MOL0     C12227   0.562   8.277   6.830  0.3050 -1.1752  0.0928
  832MOL0     C12228   0.490   8.385   6.757 -0.4928 -0.3754  0.4564
  832MOL0     C12229   0.353   8.346   6.723  0.2443  0.0552 -0.7282
  832MOL0    Cl12230   0.355   8.248   6.578 -0.4151  0.1832  0.0140
  832MOL0     C12231   1.379   8.642   6.804 -0.2730  0.0990  0.3001
  832MOL0     C12232   1.513   8.660   6.769  0.1925  0.1740 -1.0268
  832MOL0     O12233   1.782   8.782   6.914 -0.6231 -0.4190  0.5411
  832MOL0     C12234   2.062   8.778   6.885  0.3455 -0.1029 -0.4731
  832MOL0     C12235   2.196   8.785   6.866 -0.1292  0.5194  0.0874
  832MOL0     N12236   2.822   8.825   6.477 -0.0721 -0.0838 -0.0161
  832MOL0     N12237   2.904   8.861   6.382  0.2294  0.0442  0.2864
  832MOL0     C12238   4.165   8.876   6.523  0.2945 -0.4876 -0.0959
  832MOL0     C12239   4.289   8.837   6.579  0.0253  0.3115  0.4025
  832MOL0     C12240   4.698   8.689   6.683 -0.1877  0.7137  0.3618
  832MOL0     C12241   4.776   8.672   6.571  0.7694 -0.4276  0.6362
  832MOL0     C12242   4.918   8.652   6.594  0.1684  0.5346 -0.7756
  832MOL0     C12243   4.979   8.654   6.724 -0.8720 -0.2778 -0.3504
  832MOL0     O12244   5.113   8.630   6.747  0.5477  0.5162 -0.7046
  832MOL0     C12245   5.200   8.613   6.633  0.4153 -0.5870 -0.8680
  832MOL0     C12246   5.354   8.635   6.670  0.0861  0.5521 -0.5791
  832MOL0     C12247   5.381   8.771   6.735  0.1376 -0.0702 -0.6283
  832MOL0     C12248   5.510   8.770   6.829 -0.4571 -0.0723  0.5983
  832MOL0     C12249   5.610   8.664   6.797 -0.2734  0.0249 -0.2864
  832MOL0     C12250   5.705   8.596   6.783  0.7486  0.3964  0.4711
  832MOL0     C12251   4.890   8.689   6.827 -0.6056 -0.1861 -1.2929
  832MOL0     C12252   4.756   8.694   6.810  0.2181  0.7510 -0.2266
  832MOL0     H12253   4.368   8.585   6.362  0.5892  0.3158 -1.3861
  832MOL0     H12254   4.136   8.623   6.304  1.5859 -0.1667  0.3969
  832MOL0     H12255   3.989   9.021   6.393  1.7842 -0.9243  0.5430
  832MOL0     H12256   4.005   8.981   6.221  3.5702  0.8547  2.4230
  832MOL0     H12257   3.772   9.032   6.236 -3.5821 -1.0472  0.6369
  832MOL0     H12258   3.788   8.854   6.234  0.0292 -1.7635  1.5075
  832MOL0     H12259   3.755   8.886   6.492 -0.6180 -1.9916 -2.0509
  832MOL0     H12260   3.738   9.059   6.462  1.4392 -0.9039  1.8286
  832MOL0     H12261   3.552   9.025   6.320 -1.0891 -1.8963 -1.3607
  832MOL0     H12262   3.534   8.860   6.343  1.4277 -0.8472  0.6290
  832MOL0     H12263   3.487   8.886   6.586  1.8158 -0.0363  0.4476
  832MOL0     H12264   3.536   9.052   6.574 -1.2012  0.2688  0.9691
  832MOL0     H12265   3.293   9.034   6.565  2.6853  1.0285  0.8613
  832MOL0     H12266   3.375   9.114   6.433 -0.7808  0.2895  0.4954
  832MOL0     H12267   3.329   8.920   6.286 -2.7748 -1.5690 -1.4022
  832MOL0     H12268   3.263   8.824   6.426 -2.4551 -0.9223 -1.6115
  832MOL0     H12269   3.122   8.908   6.241  0.1891  0.0999  0.1732
  832MOL0     H12270   3.118   9.071   6.301 -1.9009 -0.8611 -0.5203
  832MOL0     H12271   3.095   8.945   6.629 -0.9416  0.7098  2.0050
  832MOL0     H12272   2.888   8.725   6.777 -0.6390 -0.3673 -0.5273
  832MOL0     H12273   2.919   8.889   6.805  0.1239  1.2734 -2.7340
  832MOL0     H12274   2.671   8.941   6.706 -1.7532  0.6596  1.0352
  832MOL0     H12275   2.710   8.900   6.876 -2.4202 -0.9870  0.4214
  832MOL0     H12276   2.663   8.667   6.824  1.8822  0.1201 -1.5245
  832MOL0     H12277   2.628   8.703   6.660 -0.4337  1.4616  0.0970
  832MOL0     H12278   2.445   8.869   6.753 -0.0342  1.9296  1.8574
  832MOL0     H12279   2.489   8.808   6.914 -0.3197  0.0022  0.0916
  832MOL0     H12280   2.238   8.503   6.698 -1.2491  0.9991 -0.4131
  832MOL0     H12281   2.052   8.415   6.624 -2.3571 -3.4331 -0.0075
  832MOL0     H12282   1.928   8.398   6.751  0.8953  1.0084  1.7515
  832MOL0     H12283   1.896   8.507   6.612  0.6154  1.1478 -1.5758
  832MOL0     H12284   1.645   8.432   6.983 -1.0156 -1.4434  1.8381
  832MOL0     H12285   1.401   8.409   7.045  0.8561 -0.7088 -0.4463
  832MOL0     H12286   1.168   8.353   6.962  0.8188  0.3574 -0.5607
  832MOL0     H12287   1.197   8.454   7.108 -0.1708  0.9479  0.8049
  832MOL0     H12288   0.955   8.399   7.098 -1.2469  1.0517 -0.4359
  832MOL0     H12289   0.990   8.574   7.055  3.3625 -0.6188  1.8617
  832MOL0     H12290   0.955   8.372   6.823 -1.3712  0.0595 -1.0056
  832MOL0     H12291   0.923   8.535   6.833  2.2311  0.4890 -0.1272
  832MOL0     H12292   0.750   8.384   7.022  2.3000 -0.5150 -0.1698
  832MOL0     H12293   0.715   8.511   6.900  1.7246  0.5810 -1.0460
  832MOL0     H12294   0.762   8.200   6.855 -0.4570  0.8643  0.9535
  832MOL0     H12295   0.751   8.320   6.727  2.5772  1.5374  0.9376
  832MOL0     H12296   0.544   8.174   6.796 -2.5558 -1.5925  2.4049
  832MOL0     H12297   0.523   8.283   6.933  3.0844  1.0344  1.1312
  832MOL0     H12298   0.539   8.430   6.670  0.9545 -3.2255 -0.2949
  832MOL0     H12299   0.489   8.468   6.829 -0.5227 -1.4145  1.6737
  832MOL0     H12300   0.284   8.430   6.718 -0.6653 -0.6749 -0.7957
  832MOL0     H12301   0.308   8.294   6.808  1.5796 -0.9703 -0.6141
  832MOL0     H12302   1.309   8.708   6.753  2.1330  2.2130 -0.4982
  832MOL0     H12303   1.540   8.737   6.698 -0.6033  1.6242  0.1909
  832MOL0     H12304   2.007   8.852   6.944  1.2280  1.8542 -1.9865
  832MOL0     H12305   2.260   8.853   6.921  2.3232 -2.2296  0.9071
  832MOL0     H12306   4.112   8.957   6.570 -0.6226 -1.6266  0.9025
  832MOL0     H12307   4.315   8.900   6.663 -0.7484  2.5173 -0.9400
  832MOL0     H12308   4.740   8.665   6.468 -0.8593 -2.1184  1.2602
  832MOL0     H12309   4.975   8.629   6.504  1.1263 -0.0233 -0.0374
  832MOL0     H12310   5.196   8.510   6.596  1.4786 -0.1297 -2.3240
  832MOL0     H12311   5.183   8.702   6.572 -0.6893  2.3274  3.2695
  832MOL0     H12312   5.419   8.615   6.585  0.0428 -1.7378 -0.1405
  832MOL0     H12313   5.365   8.549   6.738 -0.1414  0.3871 -0.7492
  832MOL0     H12314   5.289   8.802   6.787 -2.1791 -1.9815 -3.2375
  832MOL0     H12315   5.394   8.846   6.656  0.9137 -0.2012 -0.6250
  832MOL0     H12316   5.471   8.737   6.926 -1.0136  0.6847  0.6362
  832MOL0     H12317   5.559   8.865   6.853 -0.5050  0.5081 -1.4342
  832MOL0     H12318   5.771   8.514   6.767  0.2946 -0.1119  1.1358
  832MOL0     H12319   4.920   8.697   6.931 -2.8225  0.8973 -0.6587
  832MOL0     H12320   4.698   8.705   6.901  0.3145  1.0312 -0.1944
  833MOL0     O12321   8.273   5.352   3.166  0.2624 -0.2727 -0.2416
  833MOL0     C12322   8.294   5.452   3.093 -0.9785  0.1924 -0.2560
  833MOL0     O12323   8.204   5.529   3.021  0.4235  0.2064 -1.0242
  833MOL0     C12324   8.076   5.542   3.067 -0.8541 -1.3318 -0.3408
  833MOL0     C12325   7.979   5.456   3.029  0.0995  0.3508 -0.6586
  833MOL0     C12326   7.845   5.484   3.057 -0.5132  0.5956  0.4957
  833MOL0     C12327   7.813   5.606   3.122 -0.0720 -0.0973 -0.3958
  833MOL0     O12328   7.686   5.654   3.124  0.5186  0.1025  0.0681
  833MOL0     C12329   7.578   5.561   3.150 -0.1252  0.6463  0.1391
  833MOL0     C12330   7.444   5.640   3.175  0.0649  0.1783  0.2805
  833MOL0     C12331   7.423   5.736   3.053 -0.2117  0.3950  0.2927
  833MOL0     C12332   7.290   5.817   3.059  0.6680  0.5440 -0.2592
  833MOL0     C12333   7.242   5.884   2.938  0.7431 -0.6260 -0.5272
  833MOL0     C12334   7.093   5.920   2.948 -0.1593 -0.2211  0.5976
  833MOL0     C12335   7.045   5.995   2.820 -0.3069 -0.5557  0.5235
  833MOL0     C12336   6.893   6.016   2.840 -0.5088  0.3829  0.0505
  833MOL0     N12337   6.808   6.087   2.739 -0.3033  0.6644 -0.4235
  833MOL0     C12338   6.772   6.224   2.744  0.4572  0.2548  0.9035
  833MOL0     C12339   6.720   6.250   2.619 -0.0470 -0.1380  0.0908
  833MOL0     C12340   6.678   6.388   2.567  1.0160 -0.4899  0.1120
  833MOL0     C12341   6.588   6.406   2.444  0.0603 -0.3489  0.0511
  833MOL0     C12342   6.575   6.562   2.409  0.0205  0.0436 -0.1443
  833MOL0     C12343   6.439   6.605   2.344 -0.8491  0.7318  0.2018
  833MOL0     O12344   6.408   6.553   2.222  0.4435 -0.6307 -0.4930
  833MOL0     C12345   6.280   6.547   2.186 -0.4476 -1.2755 -0.3149
  833MOL0     C12346   6.233   6.428   2.134 -0.0786  0.9051 -0.6364
  833MOL0     C12347   6.097   6.414   2.105  0.5267  1.1407 -0.1932
  833MOL0     C12348   6.071   6.290   2.023 -0.6063 -0.2351  0.2656
  833MOL0     C12349   6.003   6.512   2.125  0.4553 -0.3321 -0.2919
  833MOL0     C12350   5.853   6.498   2.110 -0.8221  0.3490  0.0401
  833MOL0     O12351   5.807   6.371   2.076  0.6755 -0.0489  0.1073
  833MOL0     C12352   5.671   6.341   2.085  0.1895  0.1592 -0.4280
  833MOL0     C12353   5.591   6.371   2.193  0.0787  0.3169  0.5331
  833MOL0     C12354   5.458   6.324   2.187 -0.2419  0.1031 -0.1130
  833MOL0     C12355   5.408   6.255   2.075 -0.2180 -0.2166 -0.9525
  833MOL0     O12356   5.277   6.230   2.076  0.3611 -0.0130  0.1305
  833MOL0     C12357   5.219   6.165   1.965 -0.7232 -0.0618 -0.3514
  833MOL0     C12358   5.060   6.159   1.976 -0.4640  0.6234 -0.1518
  833MOL0     C12359   4.993   6.298   1.998 -0.2914 -0.1132  0.5536
  833MOL0     C12360   4.850   6.271   2.015 -0.5221 -0.6077  0.3643
  833MOL0     C12361   4.758   6.374   1.942  0.5351 -0.9795 -0.2913
  833MOL0     C12362   4.757   6.382   1.785  0.0139 -0.1690  0.1215
  833MOL0     C12363   4.633   6.456   1.732 -0.7276  0.2884  0.7498
  833MOL0     C12364   4.509   6.364   1.747 -0.1931 -0.2722 -0.1311
  833MOL0    Cl12365   4.386   6.407   1.627 -0.5941  0.0836 -0.6489
  833MOL0     C12366   5.497   6.222   1.974  0.9400  0.0677 -0.5291
  833MOL0     C12367   5.627   6.272   1.976  0.0845  1.3829 -0.1322
  833MOL0     O12368   5.780   6.589   2.146 -0.7115  0.0208  0.9958
  833MOL0     C12369   6.052   6.639   2.169 -1.4624 -0.1492  0.0887
  833MOL0     C12370   6.189   6.653   2.201  0.2155 -0.0935 -0.4643
  833MOL0     N12371   6.724   6.133   2.549  0.4828  0.0521 -0.2412
  833MOL0     N12372   6.759   6.029   2.628  0.3874  0.9468 -0.9813
  833MOL0     C12373   7.918   5.687   3.164  0.2351 -0.1491  0.4603
  833MOL0     C12374   8.051   5.656   3.146  0.6092  0.5249 -0.1460
  833MOL0     C12375   8.439   5.483   3.066 -0.7466  0.3199 -0.2911
  833MOL0     C12376   8.478   5.603   3.005  0.1844 -0.9409 -0.3026
  833MOL0     C12377   8.613   5.646   3.005  0.5874 -0.1955 -1.5501
  833MOL0     C12378   8.705   5.578   3.089 -1.3811 -0.8846 -0.9690
  833MOL0     O12379   8.832   5.629   3.095  0.0486 -0.1430  0.4478
  833MOL0     C12380   8.930   5.562   3.171 -0.1200  0.7640  0.1294
  833MOL0     C12381   9.065   5.642   3.184 -0.0114 -0.1326  0.1743
  833MOL0     C12382   9.118   5.676   3.042 -0.6949  0.3719  0.5576
  833MOL0     C12383   9.261   5.732   3.045  1.0152  0.4023 -0.1898
  833MOL0     C12384   9.294   5.798   2.921  0.2771 -0.6670  0.3697
  833MOL0     C12385   9.330   5.854   2.818  0.3751 -0.4501  0.3333
  833MOL0     C12386   8.669   5.455   3.129 -0.4020 -0.4869 -0.4049
  833MOL0     C12387   8.543   5.409   3.126  0.8066 -1.1440 -0.3489
  833MOL0     H12388   7.999   5.359   2.986  1.8498  0.3401  0.0888
  833MOL0     H12389   7.767   5.420   3.016 -0.7859  1.2600 -0.0397
  833MOL0     H12390   7.566   5.509   3.055  4.6498  0.4313 -0.5681
  833MOL0     H12391   7.586   5.481   3.224 -3.4465 -0.2276 -0.2425
  833MOL0     H12392   7.363   5.567   3.185  0.0199  0.4049  1.7159
  833MOL0     H12393   7.446   5.682   3.276  1.2999 -1.9650  1.2136
  833MOL0     H12394   7.503   5.810   3.043 -0.1493  0.0431 -3.7459
  833MOL0     H12395   7.425   5.680   2.959 -0.3378  0.5993  0.1673
  833MOL0     H12396   7.212   5.744   3.081  0.0089  1.6453  1.2613
  833MOL0     H12397   7.294   5.896   3.135  0.5593  1.3063 -1.0273
  833MOL0     H12398   7.305   5.973   2.928 -0.2062  0.0828 -0.3837
  833MOL0     H12399   7.263   5.825   2.848 -1.5101 -1.0679 -0.8199
  833MOL0     H12400   7.032   5.831   2.967  0.3732 -0.9719 -1.0722
  833MOL0     H12401   7.082   5.980   3.038  0.6279  0.0019  0.5542
  833MOL0     H12402   7.101   6.089   2.817  3.0250 -2.4162 -1.1268
  833MOL0     H12403   7.068   5.938   2.730 -0.6613 -1.2624  0.8741
  833MOL0     H12404   6.868   6.064   2.935  0.5290  1.0509  0.0089
  833MOL0     H12405   6.847   5.917   2.848 -2.4069  1.1447 -0.7102
  833MOL0     H12406   6.772   6.285   2.834  0.2700 -1.9880  2.5286
  833MOL0     H12407   6.629   6.439   2.651 -2.8736 -2.8074 -0.5250
  833MOL0     H12408   6.777   6.432   2.553  0.3138  1.5657  1.2251
  833MOL0     H12409   6.490   6.366   2.468 -0.3767  0.3129 -0.6045
  833MOL0     H12410   6.629   6.334   2.372  1.5743 -2.4686  2.8382
  833MOL0     H12411   6.652   6.595   2.339 -1.3026  2.4740 -0.5838
  833MOL0     H12412   6.589   6.614   2.505  3.2469  0.4656 -0.7395
  833MOL0     H12413   6.447   6.714   2.333  0.7339  0.5316 -1.1300
  833MOL0     H12414   6.361   6.582   2.416 -0.9707 -2.7399 -0.8534
  833MOL0     H12415   6.298   6.342   2.125  0.8040  1.4890 -0.0224
  833MOL0     H12416   6.157   6.225   2.002 -0.5771  0.4965 -2.2128
  833MOL0     H12417   6.017   6.216   2.083  1.8747 -2.8891 -0.5142
  833MOL0     H12418   6.019   6.302   1.928  1.9452 -1.0650 -1.3514
  833MOL0     H12419   5.633   6.423   2.279  1.6422  0.3909 -0.2342
  833MOL0     H12420   5.399   6.360   2.270  0.7294  0.9819  0.2221
  833MOL0     H12421   5.244   6.220   1.874  1.2754 -0.5144 -0.1233
  833MOL0     H12422   5.256   6.063   1.953  1.5039  0.6322  0.1508
  833MOL0     H12423   5.022   6.123   1.880 -0.4610  1.6191 -0.5412
  833MOL0     H12424   5.041   6.086   2.055  2.8897  1.1445  1.3112
  833MOL0     H12425   5.007   6.370   1.917 -0.8161  0.3963  0.9049
  833MOL0     H12426   5.024   6.344   2.092 -0.5289 -1.9916  1.6013
  833MOL0     H12427   4.828   6.175   1.969  1.8589 -0.9168 -0.2511
  833MOL0     H12428   4.840   6.264   2.123  1.5852  1.2675  0.7467
  833MOL0     H12429   4.786   6.475   1.975 -1.2597  0.1257 -1.8848
  833MOL0     H12430   4.654   6.351   1.968  0.7762 -1.7192  0.0205
  833MOL0     H12431   4.848   6.436   1.757  0.8395 -0.3330  2.3383
  833MOL0     H12432   4.761   6.278   1.751 -2.2446 -0.3857  0.3666
  833MOL0     H12433   4.647   6.468   1.624 -4.7418 -0.3862 -0.0399
  833MOL0     H12434   4.628   6.554   1.780 -0.8117  0.2003  0.9225
  833MOL0     H12435   4.480   6.368   1.852  0.6572 -1.1187  0.1488
  833MOL0     H12436   4.548   6.265   1.724  2.7606  0.8375 -0.3786
  833MOL0     H12437   5.467   6.163   1.888  0.1845  0.3304 -0.4471
  833MOL0     H12438   5.694   6.262   1.892 -3.2932 -1.6167 -2.7531
  833MOL0     H12439   6.004   6.734   2.149  1.4920  1.3687 -0.4397
  833MOL0     H12440   6.235   6.752   2.209  0.8040 -0.3470 -0.6344
  833MOL0     H12441   7.888   5.781   3.210 -3.0934  0.3053 -2.2548
  833MOL0     H12442   8.136   5.705   3.191  1.0894 -1.2485  0.9833
  833MOL0     H12443   8.409   5.681   2.974  0.0855  0.2939  2.6835
  833MOL0     H12444   8.642   5.738   2.955 -1.0401  1.6397  0.6575
  833MOL0     H12445   8.881   5.548   3.268  0.1674  0.8137  0.2839
  833MOL0     H12446   8.935   5.455   3.152 -3.5727 -0.7161  5.4162
  833MOL0     H12447   9.134   5.578   3.240  0.1105 -2.1936 -2.1075
  833MOL0     H12448   9.054   5.732   3.245  1.2075 -0.9330  1.6430
  833MOL0     H12449   9.057   5.746   2.984  1.6248  2.0248 -0.0071
  833MOL0     H12450   9.119   5.580   2.991 -3.0742 -0.4833  1.9597
  833MOL0     H12451   9.326   5.644   3.052  1.9370  1.1857  2.9285
  833MOL0     H12452   9.284   5.795   3.132  1.9028  0.1597 -0.2372
  833MOL0     H12453   9.354   5.910   2.730 -0.4355  1.8567  1.5019
  833MOL0     H12454   8.734   5.382   3.176  0.2105  1.6430  2.3000
  833MOL0     H12455   8.526   5.311   3.170 -0.8377 -0.7395 -0.0267
  834MOL0     O12456   4.888   0.436   4.864 -0.1607  0.1828  0.8160
  834MOL0     C12457   4.932   0.418   4.750  0.0398 -0.1412  0.7293
  834MOL0     O12458   4.854   0.407   4.636 -0.6005  0.4681  0.0337
  834MOL0     C12459   4.726   0.454   4.641  0.4229 -0.6107  0.4439
  834MOL0     C12460   4.697   0.572   4.718  0.2640  0.3696 -0.3042
  834MOL0     C12461   4.559   0.625   4.714 -0.9211  0.0251  0.6246
  834MOL0     C12462   4.461   0.565   4.632  0.5228  0.0951  1.3716
  834MOL0     O12463   4.325   0.606   4.642 -0.4830  0.1957 -0.0877
  834MOL0     C12464   4.214   0.526   4.586 -0.7997 -0.6485  0.0608
  834MOL0     C12465   4.076   0.595   4.610  0.3261  0.8268  0.4576
  834MOL0     C12466   4.062   0.707   4.509  0.1558 -0.5248  0.7864
  834MOL0     C12467   3.924   0.723   4.462  0.2486  0.9922 -0.7846
  834MOL0     C12468   3.909   0.842   4.367 -0.0705 -0.5959 -0.0123
  834MOL0     C12469   3.776   0.917   4.373 -0.0664  1.0831 -0.5011
  834MOL0     C12470   3.775   1.058   4.307  0.1340  0.4433 -0.6581
  834MOL0     C12471   3.810   1.036   4.161 -0.3714 -0.1277 -0.0689
  834MOL0     N12472   3.836   1.168   4.099 -0.3018  0.0507 -0.0955
  834MOL0     C12473   3.745   1.273   4.094 -0.4507 -1.0865  0.9242
  834MOL0     C12474   3.807   1.374   4.022 -0.0181 -0.1240  0.2380
  834MOL0     C12475   3.755   1.506   3.986  0.3776  0.2939 -0.0283
  834MOL0     C12476   3.610   1.492   3.913 -0.6618  0.3636 -0.7370
  834MOL0     C12477   3.543   1.633   3.912  0.0969  0.1794 -0.5081
  834MOL0     C12478   3.406   1.622   3.844 -0.1523 -0.2371  0.0757
  834MOL0     O12479   3.342   1.752   3.832 -0.1676  0.1597 -0.5566
  834MOL0     C12480   3.219   1.762   3.767 -0.3705  0.7935 -0.2915
  834MOL0     C12481   3.164   1.884   3.741 -0.3786 -0.1291 -0.5206
  834MOL0     C12482   3.045   1.902   3.678 -0.9651 -0.2451  0.6175
  834MOL0     C12483   3.023   2.038   3.631  0.6152 -0.5910  0.3828
  834MOL0     C12484   2.957   1.789   3.662 -0.8104  0.0576  1.0709
  834MOL0     C12485   2.814   1.795   3.630 -0.1524 -0.1683  0.3439
  834MOL0     O12486   2.758   1.917   3.651 -0.5069  0.0764  1.0693
  834MOL0     C12487   2.652   1.960   3.572 -0.3127 -0.0407 -0.1462
  834MOL0     C12488   2.642   1.962   3.439 -0.3981 -1.0809 -0.3161
  834MOL0     C12489   2.545   2.018   3.378  0.2016  0.3318  0.4382
  834MOL0     C12490   2.441   2.089   3.446 -0.0416 -0.9663 -0.8796
  834MOL0     O12491   2.340   2.151   3.371 -0.1624  0.0410  0.7255
  834MOL0     C12492   2.240   2.074   3.317 -1.0051  0.9521  0.1457
  834MOL0     C12493   2.106   2.143   3.292  0.1594  0.8100 -0.1955
  834MOL0     C12494   2.116   2.255   3.198  0.0172  1.2646  0.8501
  834MOL0     C12495   1.980   2.325   3.163 -1.0123 -0.3249  0.7235
  834MOL0     C12496   1.989   2.421   3.052 -0.2922  0.3517 -0.3732
  834MOL0     C12497   1.873   2.518   3.048  0.1871  0.3123 -0.6977
  834MOL0     C12498   1.874   2.604   2.929  0.3141  1.2074  0.2774
  834MOL0     C12499   1.747   2.687   2.916  0.2220 -0.6125 -0.2751
  834MOL0    Cl12500   1.596   2.585   2.921  0.0860 -0.1917  0.0787
  834MOL0     C12501   2.451   2.088   3.587  0.1489 -0.5087 -0.0747
  834MOL0     C12502   2.559   2.032   3.649 -0.9627  0.2312 -1.3730
  834MOL0     O12503   2.754   1.700   3.594  0.0185  0.3284  0.5485
  834MOL0     C12504   3.015   1.658   3.682 -0.0023  0.8114  0.9020
  834MOL0     C12505   3.138   1.647   3.738 -0.2654  0.7765 -0.8192
  834MOL0     N12506   3.929   1.317   3.980  0.3330  0.2573 -0.6733
  834MOL0     N12507   3.950   1.204   4.039  0.4596  0.1662 -0.0255
  834MOL0     C12508   4.501   0.464   4.542 -0.5567  0.0432  0.1631
  834MOL0     C12509   4.632   0.408   4.549 -0.3730 -0.2653  0.7915
  834MOL0     C12510   5.072   0.375   4.729 -0.2929 -0.3319 -0.2913
  834MOL0     C12511   5.138   0.414   4.608 -0.7338  0.6389  0.4059
  834MOL0     C12512   5.278   0.402   4.605 -0.5804  0.4616  0.3505
  834MOL0     C12513   5.359   0.357   4.707  0.5591 -0.3078  0.6257
  834MOL0     O12514   5.498   0.373   4.702 -0.7909  0.3223 -0.8672
  834MOL0     C12515   5.570   0.423   4.584 -0.1210  0.7164 -0.5097
  834MOL0     C12516   5.722   0.429   4.615 -0.5568 -0.4423  0.1347
  834MOL0     C12517   5.779   0.303   4.691  0.3016 -0.4959 -0.3097
  834MOL0     C12518   5.934   0.312   4.700  0.3821  0.0836 -0.1729
  834MOL0     C12519   5.990   0.280   4.574  0.6240 -0.1473 -0.0773
  834MOL0     C12520   6.044   0.249   4.471 -0.1642 -0.3304 -0.3195
  834MOL0     C12521   5.291   0.308   4.822  0.4649 -0.2708 -0.4991
  834MOL0     C12522   5.150   0.317   4.831  0.5698 -0.2329  0.1860
  834MOL0     H12523   4.780   0.623   4.765  0.1605  0.1874  0.0807
  834MOL0     H12524   4.545   0.713   4.776  0.7031  0.2784  0.6843
  834MOL0     H12525   4.233   0.517   4.479  1.0161 -0.9192  0.3737
  834MOL0     H12526   4.199   0.427   4.630 -1.8197 -0.4979  0.0678
  834MOL0     H12527   3.998   0.520   4.593  0.8964  0.7890 -2.5005
  834MOL0     H12528   4.061   0.625   4.714 -0.3114  1.9304  0.0556
  834MOL0     H12529   4.098   0.799   4.556 -0.3202  0.2768 -0.3742
  834MOL0     H12530   4.127   0.692   4.422  1.5397 -0.6691  1.8086
  834MOL0     H12531   3.880   0.638   4.409 -0.4408  0.4202  0.6654
  834MOL0     H12532   3.878   0.741   4.559  0.6566  2.2950 -0.8098
  834MOL0     H12533   3.983   0.915   4.403  0.6993 -1.1288 -0.4621
  834MOL0     H12534   3.928   0.806   4.265  2.0243 -3.2302  1.1709
  834MOL0     H12535   3.704   0.859   4.315  1.3940  0.1887 -1.5069
  834MOL0     H12536   3.747   0.914   4.478  2.1267 -0.4290  0.1353
  834MOL0     H12537   3.678   1.106   4.321  1.1753  2.7300 -0.7290
  834MOL0     H12538   3.843   1.128   4.357 -1.2063  0.5260  1.1265
  834MOL0     H12539   3.725   0.987   4.111  0.9116 -2.0590 -0.4850
  834MOL0     H12540   3.896   0.970   4.146 -0.2115  0.4280 -1.9051
  834MOL0     H12541   3.648   1.277   4.142 -0.2741  0.0084  1.2177
  834MOL0     H12542   3.751   1.558   4.082  0.3202 -0.2095  0.2432
  834MOL0     H12543   3.827   1.556   3.920  2.0577  0.9831  2.2243
  834MOL0     H12544   3.550   1.432   3.982  0.5852  0.8506  0.8486
  834MOL0     H12545   3.617   1.462   3.808  0.6061  2.0563 -1.1835
  834MOL0     H12546   3.611   1.709   3.870 -0.7278  1.3231  0.1591
  834MOL0     H12547   3.526   1.663   4.016  1.7070 -3.1796  0.8864
  834MOL0     H12548   3.340   1.564   3.910 -0.7600 -1.0492 -1.2118
  834MOL0     H12549   3.418   1.579   3.745  0.4033  0.2138 -0.0572
  834MOL0     H12550   3.235   1.965   3.756  0.2616 -0.4475 -1.6542
  834MOL0     H12551   2.938   2.039   3.561 -0.6213  2.9343  1.7035
  834MOL0     H12552   2.994   2.103   3.713 -0.7227  0.7615 -1.0790
  834MOL0     H12553   3.107   2.075   3.572  0.3303  0.2743  0.5033
  834MOL0     H12554   2.718   1.923   3.371  0.1282  0.5878 -0.7331
  834MOL0     H12555   2.544   2.009   3.270 -0.9626  0.3764  0.4317
  834MOL0     H12556   2.257   2.031   3.218  0.2967  2.8480 -0.5068
  834MOL0     H12557   2.236   1.990   3.386  0.8957  0.6161 -0.1141
  834MOL0     H12558   2.025   2.080   3.254  0.9406 -0.0530 -0.4717
  834MOL0     H12559   2.069   2.174   3.391  1.8986 -1.8986  1.4427
  834MOL0     H12560   2.153   2.221   3.101 -1.3258  2.5851 -0.1805
  834MOL0     H12561   2.179   2.331   3.244  2.3335  1.5844 -2.4975
  834MOL0     H12562   1.901   2.252   3.140 -3.7391  2.8254 -0.6637
  834MOL0     H12563   1.952   2.386   3.250 -0.0316 -1.9645  2.2799
  834MOL0     H12564   2.011   2.363   2.962 -2.3294 -1.0446 -0.0302
  834MOL0     H12565   2.081   2.480   3.066  0.4243 -1.0251  0.9772
  834MOL0     H12566   1.779   2.463   3.058  0.3360 -0.0729 -1.3671
  834MOL0     H12567   1.877   2.579   3.139 -2.2076 -1.1386  0.4746
  834MOL0     H12568   1.881   2.534   2.845  0.6357 -0.5312  1.6898
  834MOL0     H12569   1.966   2.663   2.921  0.6803  0.4255 -2.8282
  834MOL0     H12570   1.756   2.749   2.826 -1.9114  1.5100  0.8371
  834MOL0     H12571   1.749   2.758   2.999  1.9774 -2.3046  1.2252
  834MOL0     H12572   2.385   2.148   3.650  0.9939  0.4020 -0.0433
  834MOL0     H12573   2.571   2.046   3.756 -0.2428  0.0699 -1.4275
  834MOL0     H12574   2.965   1.563   3.665  2.3848 -0.4806  0.7202
  834MOL0     H12575   3.175   1.546   3.751  0.5124  1.3294  1.7459
  834MOL0     H12576   4.422   0.415   4.485 -1.2913  0.3697  0.8686
  834MOL0     H12577   4.664   0.327   4.484 -0.4599  1.5924 -1.7083
  834MOL0     H12578   5.091   0.463   4.523 -0.3584  0.0612 -0.1380
  834MOL0     H12579   5.327   0.415   4.508  0.8945 -0.8033  0.8887
  834MOL0     H12580   5.564   0.352   4.501  1.4358 -0.9127  0.6882
  834MOL0     H12581   5.529   0.516   4.545 -0.5884  0.2582 -1.1243
  834MOL0     H12582   5.746   0.518   4.673 -0.7296 -0.0018 -0.4517
  834MOL0     H12583   5.778   0.427   4.521  0.0763 -1.9933  0.5134
  834MOL0     H12584   5.749   0.205   4.653  0.5496 -0.8369  0.3578
  834MOL0     H12585   5.745   0.322   4.793  2.9451 -1.8325  0.9254
  834MOL0     H12586   5.965   0.242   4.779  0.4379 -0.3011 -0.5306
  834MOL0     H12587   5.971   0.411   4.726  0.2841  0.2124 -0.5253
  834MOL0     H12588   6.094   0.231   4.378  3.5897 -1.5896  1.7201
  834MOL0     H12589   5.357   0.280   4.903 -0.2210  1.0538  0.5644
  834MOL0     H12590   5.118   0.288   4.931  0.0620 -0.4966 -0.0485
  835MOL0     O12591   3.840   2.586   8.446 -0.0230  0.3513  0.0463
  835MOL0     C12592   3.857   2.623   8.562  0.2217 -0.0438 -0.1410
  835MOL0     O12593   3.761   2.634   8.657 -0.0685 -0.4017  0.2440
  835MOL0     C12594   3.640   2.580   8.631 -0.1255 -0.2769 -0.1568
  835MOL0     C12595   3.632   2.442   8.605  0.5121 -0.2951 -0.4233
  835MOL0     C12596   3.509   2.377   8.633 -0.0966  0.7546 -0.0563
  835MOL0     C12597   3.398   2.447   8.657 -0.1674 -1.1173 -0.7247
  835MOL0     O12598   3.276   2.385   8.671 -0.3428 -0.8238  0.2280
  835MOL0     C12599   3.230   2.264   8.598 -0.1947  0.3358  0.9277
  835MOL0     C12600   3.080   2.244   8.615  0.6730  0.1895  0.9730
  835MOL0     C12601   2.980   2.339   8.547  0.5969 -0.3851 -0.3103
  835MOL0     C12602   2.832   2.333   8.576 -0.0333 -0.0510 -0.5412
  835MOL0     C12603   2.754   2.433   8.493 -0.0980 -0.4377  0.2871
  835MOL0     C12604   2.610   2.444   8.536  0.2789  0.0522  0.2116
  835MOL0     C12605   2.521   2.510   8.431  0.3496  0.1351 -0.0167
  835MOL0     C12606   2.387   2.565   8.490 -0.3200  0.5521 -0.2637
  835MOL0     N12607   2.304   2.458   8.533  0.4572 -0.3741  0.2887
  835MOL0     C12608   2.311   2.385   8.644  0.5072  0.0091  0.1753
  835MOL0     C12609   2.214   2.291   8.642 -0.2414  0.1925  1.1125
  835MOL0     C12610   2.169   2.214   8.754 -0.3833  0.1414 -0.4048
  835MOL0     C12611   2.015   2.203   8.755 -0.0052  0.5497 -0.4439
  835MOL0     C12612   1.954   2.068   8.696 -0.5258 -0.6215  0.2787
  835MOL0     C12613   1.808   2.093   8.680 -0.0622  0.4968  0.6654
  835MOL0     O12614   1.735   2.123   8.797  0.1832 -0.0655 -0.2855
  835MOL0     C12615   1.602   2.147   8.791 -0.8773  0.0587  0.1175
  835MOL0     C12616   1.532   2.150   8.671  0.2257  0.4563  0.0596
  835MOL0     C12617   1.393   2.184   8.666  0.1854 -0.0836  0.0997
  835MOL0     C12618   1.322   2.186   8.531 -1.4682  1.6767  0.8696
  835MOL0     C12619   1.324   2.198   8.791  0.0993  0.1001 -0.5806
  835MOL0     C12620   1.188   2.251   8.800 -0.1080 -0.0860 -0.2390
  835MOL0     O12621   1.157   2.318   8.916 -0.4248  0.3025  0.3558
  835MOL0     C12622   1.024   2.335   8.954  0.0159 -0.5897  0.9786
  835MOL0     C12623   0.915   2.360   8.864 -0.5216  0.8999 -0.4614
  835MOL0     C12624   0.785   2.382   8.909 -0.7720  0.6207  0.0496
  835MOL0     C12625   0.768   2.377   9.051  0.0550 -0.0467 -0.1067
  835MOL0     O12626   0.642   2.408   9.102 -0.0643  0.5023 -0.1083
  835MOL0     C12627   0.625   2.423   9.241 -0.8099 -0.8272  0.5837
  835MOL0     C12628   0.484   2.466   9.268 -0.4302  0.0635  0.1871
  835MOL0     C12629   0.459   2.625   9.251  0.1825  0.3318 -0.6079
  835MOL0     C12630   0.324   2.652   9.318 -0.2018 -0.0872  0.2509
  835MOL0     C12631   0.264   2.787   9.286  0.3673 -0.5500 -0.0647
  835MOL0     C12632   0.153   2.829   9.376 -0.2574 -0.7297 -0.0441
  835MOL0     C12633   0.029   2.758   9.325  0.6537 -1.1182 -0.9104
  835MOL0     C12634  -0.092   2.785   9.405 -1.0976 -0.9468 -0.0455
  835MOL0    Cl12635  -0.220   2.724   9.305  0.0468  0.1100 -0.7128
  835MOL0     C12636   0.879   2.350   9.139  0.2084 -0.1464 -0.0927
  835MOL0     C12637   1.004   2.333   9.090  0.4725  0.3973  1.1002
  835MOL0     O12638   1.107   2.217   8.712 -0.0035  0.4828 -0.2567
  835MOL0     C12639   1.400   2.194   8.915  0.7513  0.3708  0.3458
  835MOL0     C12640   1.532   2.164   8.902 -0.3856  0.1446 -0.0625
  835MOL0     N12641   2.149   2.307   8.514 -0.4814  0.3059 -0.4657
  835MOL0     N12642   2.212   2.399   8.453  0.6169  0.6342  0.0078
  835MOL0     C12643   3.406   2.587   8.684 -0.5295  0.9561 -0.9978
  835MOL0     C12644   3.528   2.658   8.671 -0.2447 -0.3060 -0.4821
  835MOL0     C12645   3.985   2.683   8.601 -0.4191 -0.3552 -0.1984
  835MOL0     C12646   4.037   2.688   8.730 -0.2272  0.0439  0.3670
  835MOL0     C12647   4.165   2.718   8.747  0.6209  0.6983 -0.5031
  835MOL0     C12648   4.248   2.749   8.643 -0.2074  0.0963 -0.3537
  835MOL0     O12649   4.390   2.775   8.658  0.7539  0.2440 -0.7466
  835MOL0     C12650   4.458   2.670   8.733  0.5734  0.1518  0.8836
  835MOL0     C12651   4.599   2.724   8.730  0.3572 -0.8003 -0.3207
  835MOL0     C12652   4.634   2.826   8.842  2.0784 -0.7303 -0.0468
  835MOL0     C12653   4.553   2.955   8.856  0.2497 -0.5954  0.6775
  835MOL0     C12654   4.606   3.037   8.965 -0.0662  0.0418 -0.1848
  835MOL0     C12655   4.664   3.082   9.061 -0.5344  0.6717  1.0989
  835MOL0     C12656   4.209   2.738   8.508 -0.1336  0.2615 -0.2552
  835MOL0     C12657   4.078   2.698   8.486  0.0762 -0.6497  0.2479
  835MOL0     H12658   3.732   2.403   8.592  1.0056  0.5736  0.6171
  835MOL0     H12659   3.508   2.269   8.625  3.0508  0.7344 -2.1996
  835MOL0     H12660   3.258   2.266   8.492  2.0440  1.4664  1.4845
  835MOL0     H12661   3.278   2.175   8.638  0.5257 -0.1107 -0.8274
  835MOL0     H12662   3.051   2.141   8.593 -0.0589  0.6536 -0.3336
  835MOL0     H12663   3.058   2.255   8.722  0.7416 -0.8006  1.0965
  835MOL0     H12664   3.015   2.436   8.584  1.2605 -1.1265  1.0723
  835MOL0     H12665   2.989   2.338   8.438 -0.7797 -0.1130 -0.4373
  835MOL0     H12666   2.808   2.230   8.548 -0.7988  1.2994 -6.1423
  835MOL0     H12667   2.811   2.348   8.682 -0.0997 -1.5369 -0.3172
  835MOL0     H12668   2.807   2.529   8.503 -1.6249  0.2422  2.6521
  835MOL0     H12669   2.754   2.417   8.385  2.3527  0.0068  0.1435
  835MOL0     H12670   2.574   2.342   8.552  0.5981 -0.4886 -2.2003
  835MOL0     H12671   2.620   2.504   8.627 -0.8821 -1.5523  1.4799
  835MOL0     H12672   2.572   2.605   8.415 -1.4310  1.4626  1.5907
  835MOL0     H12673   2.511   2.446   8.343  0.1293 -1.3107  1.0158
  835MOL0     H12674   2.332   2.623   8.416 -0.5342  0.8232  0.1035
  835MOL0     H12675   2.400   2.631   8.577  3.5857 -0.9777  0.5309
  835MOL0     H12676   2.380   2.392   8.727  1.1265 -2.4550 -0.0540
  835MOL0     H12677   2.213   2.114   8.761  0.5165  0.6332  1.5315
  835MOL0     H12678   2.196   2.268   8.846 -0.1731  0.3090 -0.5613
  835MOL0     H12679   1.970   2.295   8.718  0.6927  1.4305  0.8242
  835MOL0     H12680   1.976   2.206   8.857 -0.5595  2.7668 -0.6781
  835MOL0     H12681   1.975   1.984   8.763  1.2860 -0.0455  0.5089
  835MOL0     H12682   1.994   2.053   8.595  0.8482  0.6516  0.5968
  835MOL0     H12683   1.757   2.003   8.643 -0.3847  1.0507 -0.2897
  835MOL0     H12684   1.790   2.169   8.603  0.6876  1.5210  1.4800
  835MOL0     H12685   1.578   2.138   8.574  1.0441 -0.5050  0.5391
  835MOL0     H12686   1.274   2.279   8.502 -1.4238  1.1140 -1.1647
  835MOL0     H12687   1.397   2.177   8.452  1.6972  2.0980  3.5619
  835MOL0     H12688   1.247   2.107   8.537 -1.4062  1.0745 -3.4366
  835MOL0     H12689   0.943   2.353   8.760  0.2942  0.5695 -0.2246
  835MOL0     H12690   0.703   2.397   8.840 -0.0994 -0.7004 -1.0809
  835MOL0     H12691   0.626   2.322   9.283  3.8946 -1.0437  0.4621
  835MOL0     H12692   0.697   2.489   9.290 -0.0034 -0.2674 -1.2653
  835MOL0     H12693   0.419   2.410   9.200  0.1009  0.0074 -0.2850
  835MOL0     H12694   0.466   2.433   9.371  1.8228 -1.2550  0.2366
  835MOL0     H12695   0.466   2.650   9.145  1.9742  0.7241 -0.4264
  835MOL0     H12696   0.533   2.686   9.303 -1.2499 -0.2181  2.2739
  835MOL0     H12697   0.257   2.574   9.282 -0.6950  1.0514 -1.4562
  835MOL0     H12698   0.332   2.635   9.426 -1.0492  1.1382  0.5318
  835MOL0     H12699   0.229   2.789   9.182  0.0194  2.7161  0.0114
  835MOL0     H12700   0.336   2.867   9.304  0.1692 -0.6403  1.1971
  835MOL0     H12701   0.179   2.803   9.479  1.7157  1.8176  0.1957
  835MOL0     H12702   0.134   2.937   9.369 -0.1382 -0.6998  0.0870
  835MOL0     H12703   0.050   2.652   9.306 -0.5113 -1.5400  0.0804
  835MOL0     H12704   0.009   2.801   9.226  1.5057  0.8254 -0.2788
  835MOL0     H12705  -0.095   2.893   9.421  4.0932  0.0505 -3.3290
  835MOL0     H12706  -0.080   2.731   9.499  1.9615  2.2962  1.6246
  835MOL0     H12707   0.877   2.326   9.245  1.0589 -0.3750 -0.1196
  835MOL0     H12708   1.079   2.316   9.167  0.7733  0.9028  0.9238
  835MOL0     H12709   1.354   2.220   9.010 -2.5325 -1.0623 -0.6932
  835MOL0     H12710   1.583   2.179   8.997 -2.9057  1.5781  1.1605
  835MOL0     H12711   3.310   2.634   8.703 -2.0077 -1.5226 -1.8125
  835MOL0     H12712   3.540   2.755   8.718 -1.5536 -1.1323  1.7423
  835MOL0     H12713   3.975   2.657   8.814 -0.8332  0.3656  0.0439
  835MOL0     H12714   4.193   2.711   8.852  0.0996  3.7345 -0.0887
  835MOL0     H12715   4.419   2.651   8.833  1.1030  1.8708  1.4479
  835MOL0     H12716   4.449   2.578   8.674  1.8238  0.6968 -0.2123
  835MOL0     H12717   4.626   2.769   8.635  2.4151  1.0262  1.0371
  835MOL0     H12718   4.672   2.643   8.739 -1.3588 -2.4372 -0.5207
  835MOL0     H12719   4.740   2.854   8.834  1.2177  2.3487 -2.5336
  835MOL0     H12720   4.619   2.770   8.935 -1.8419  1.1701  0.6245
  835MOL0     H12721   4.451   2.919   8.876  0.3509 -1.7658 -0.7441
  835MOL0     H12722   4.566   3.021   8.770  0.9698 -0.6449  0.7463
  835MOL0     H12723   4.709   3.134   9.143  0.4380  1.3589  0.1457
  835MOL0     H12724   4.285   2.755   8.432 -2.1882 -1.1605 -2.7700
  835MOL0     H12725   4.049   2.688   8.382 -1.0430  1.6989  0.2620
  836MOL0     O12726   9.902   9.838   0.763  0.3539  0.0040  0.3596
  836MOL0     C12727   9.849   9.931   0.827 -0.1050 -0.8569 -0.3534
  836MOL0     O12728   9.713   9.961   0.826  0.4794 -0.2654  0.3971
  836MOL0     C12729   9.628   9.902   0.720 -0.2656 -0.1868 -0.5106
  836MOL0     C12730   9.662   9.855   0.594 -0.0870 -0.7264  0.0064
  836MOL0     C12731   9.578   9.818   0.497  0.0177  1.0137  0.4164
  836MOL0     C12732   9.442   9.818   0.521  0.1732  0.0501  0.8773
  836MOL0     O12733   9.364   9.767   0.421  0.4400 -0.1406  0.6163
  836MOL0     C12734   9.221   9.743   0.441  0.8356  0.9035  0.2340
  836MOL0     C12735   9.159   9.655   0.331 -0.1931  0.8480 -0.0709
  836MOL0     C12736   9.006   9.649   0.335 -0.3176  0.7995 -0.1370
  836MOL0     C12737   8.962   9.529   0.246 -0.4231 -0.4058  0.0405
  836MOL0     C12738   8.807   9.517   0.246  0.6768  0.1943  0.4805
  836MOL0     C12739   8.756   9.398   0.170 -0.2072 -0.2353 -0.4623
  836MOL0     C12740   8.812   9.268   0.229 -1.0837 -0.7021 -0.0075
  836MOL0     C12741   8.738   9.148   0.169  0.6537  0.1014  0.8808
  836MOL0     N12742   8.777   9.021   0.235  0.9339  0.2050  0.2204
  836MOL0     C12743   8.681   8.928   0.283 -0.1335  0.9500  0.3267
  836MOL0     C12744   8.751   8.826   0.340  0.2092 -0.6142  0.0200
  836MOL0     C12745   8.691   8.709   0.416 -0.4113 -0.1573  0.6797
  836MOL0     C12746   8.771   8.654   0.535 -0.2060  0.7097 -0.0748
  836MOL0     C12747   8.859   8.528   0.504  0.6854  0.0719 -0.8401
  836MOL0     C12748   8.877   8.457   0.635 -0.2597  0.3241 -0.1088
  836MOL0     O12749   8.764   8.393   0.698  0.5116  0.2092 -0.1755
  836MOL0     C12750   8.710   8.290   0.624  0.9325  0.1979  0.2437
  836MOL0     C12751   8.783   8.190   0.565  1.3549  0.5877  0.3361
  836MOL0     C12752   8.729   8.080   0.505 -0.4033  0.2175  0.1259
  836MOL0     C12753   8.824   7.992   0.427 -0.1389  0.6782 -0.2218
  836MOL0     C12754   8.590   8.052   0.520  0.1786 -0.0369  0.4470
  836MOL0     C12755   8.523   7.936   0.452  0.0737  1.0503  0.7167
  836MOL0     O12756   8.386   7.943   0.425 -0.0410  0.7331 -0.1374
  836MOL0     C12757   8.314   7.850   0.365 -0.5162  0.6751 -0.2214
  836MOL0     C12758   8.178   7.887   0.367  0.6242  0.1918 -0.2764
  836MOL0     C12759   8.082   7.797   0.320 -0.3381 -0.4221 -0.4820
  836MOL0     C12760   8.115   7.666   0.285  0.2097 -0.8342 -0.7973
  836MOL0     O12761   8.026   7.568   0.266  0.0822 -0.0765 -0.3542
  836MOL0     C12762   7.892   7.578   0.319  0.7574 -0.1587 -0.0151
  836MOL0     C12763   7.797   7.652   0.237  0.1993 -0.6516 -1.0897
  836MOL0     C12764   7.656   7.613   0.261  1.5192  0.3131 -0.3369
  836MOL0     C12765   7.561   7.707   0.181  0.7114 -0.1993  0.8352
  836MOL0     C12766   7.404   7.691   0.196 -0.2204 -0.3078  0.2167
  836MOL0     C12767   7.334   7.812   0.152 -0.4952 -0.1101 -0.1254
  836MOL0     C12768   7.355   7.846   0.002 -0.2408 -0.2762 -0.1511
  836MOL0     C12769   7.235   7.945  -0.038 -0.2754  0.3608 -0.9159
  836MOL0    Cl12770   7.076   7.848  -0.041 -0.5417  0.1957  0.0960
  836MOL0     C12771   8.249   7.628   0.276 -0.3913 -0.2328 -0.5533
  836MOL0     C12772   8.345   7.719   0.320 -0.2322 -0.6137  0.2191
  836MOL0     O12773   8.594   7.844   0.425  0.7307  0.7687  0.2147
  836MOL0     C12774   8.513   8.154   0.575  0.4774 -0.6122  0.0809
  836MOL0     C12775   8.571   8.267   0.623 -0.3249 -0.2982  0.0703
  836MOL0     N12776   8.888   8.859   0.328 -0.2715  0.0775 -0.4227
  836MOL0     N12777   8.900   8.969   0.260 -0.8419  0.5614  0.1608
  836MOL0     C12778   9.400   9.859   0.646 -0.7461  0.6831 -0.7187
  836MOL0     C12779   9.493   9.912   0.738  0.2508  0.1067  0.8883
  836MOL0     C12780   9.949  10.010   0.908  0.8009 -0.4439 -0.0538
  836MOL0     C12781  10.083  10.035   0.863 -0.4512 -0.2232 -1.0925
  836MOL0     C12782  10.175  10.116   0.936  0.7853  0.4684  0.3168
  836MOL0     C12783  10.133  10.147   1.067  0.0145  0.5165  0.1070
  836MOL0     O12784  10.210  10.217   1.150  0.0544 -0.4900 -0.0094
  836MOL0     C12785  10.348  10.255   1.130 -0.4449 -0.5881 -0.2033
  836MOL0     C12786  10.394  10.335   1.254 -0.6214 -0.1108  0.6749
  836MOL0     C12787  10.549  10.361   1.254  0.1508 -0.0526 -0.4057
  836MOL0     C12788  10.631  10.279   1.349  0.1170 -0.7550  0.1539
  836MOL0     C12789  10.612  10.136   1.333  1.4679 -0.2050  0.0253
  836MOL0     C12790  10.607  10.017   1.338 -0.5941 -0.1106  0.1968
  836MOL0     C12791  10.003  10.111   1.113 -0.4978 -0.0001  0.0103
  836MOL0     C12792   9.908  10.049   1.035  0.2657  0.4364 -0.5465
  836MOL0     H12793   9.761   9.855   0.551  0.6026  0.3122  1.5010
  836MOL0     H12794   9.628   9.782   0.407 -0.1901  2.5569 -0.3596
  836MOL0     H12795   9.203   9.689   0.534  0.5262  1.8202  0.7174
  836MOL0     H12796   9.162   9.836   0.444  0.7862  1.1017 -2.9196
  836MOL0     H12797   9.180   9.702   0.235 -1.3729  0.0137 -0.7749
  836MOL0     H12798   9.205   9.556   0.330 -0.2135  0.8295  0.7052
  836MOL0     H12799   8.981   9.620   0.437  0.5699 -0.5495 -0.2781
  836MOL0     H12800   8.971   9.748   0.305  1.1064  1.5703  0.6016
  836MOL0     H12801   9.000   9.542   0.145  2.4155 -0.3915  1.0197
  836MOL0     H12802   9.017   9.439   0.276  0.2236  0.1558  0.5538
  836MOL0     H12803   8.768   9.517   0.348 -2.3780  2.1448 -0.5095
  836MOL0     H12804   8.755   9.598   0.193 -1.8963 -0.6147  1.5850
  836MOL0     H12805   8.647   9.394   0.172 -0.3178  2.0516  0.9304
  836MOL0     H12806   8.796   9.396   0.068  0.8269 -0.9828 -0.0628
  836MOL0     H12807   8.920   9.256   0.215 -0.9922 -0.6322  0.6386
  836MOL0     H12808   8.800   9.264   0.337  0.0049  0.1662  0.1607
  836MOL0     H12809   8.762   9.134   0.063  1.6002 -2.4151  1.3466
  836MOL0     H12810   8.630   9.161   0.172  0.5089 -0.2929 -1.1331
  836MOL0     H12811   8.574   8.934   0.268  0.1220  0.0671 -2.3814
  836MOL0     H12812   8.601   8.754   0.459 -1.6759 -0.8502 -1.1301
  836MOL0     H12813   8.667   8.625   0.349 -0.3411 -1.1801  1.8949
  836MOL0     H12814   8.691   8.613   0.598  0.8071 -3.5641 -1.2237
  836MOL0     H12815   8.828   8.729   0.591 -0.1282  0.4879  0.1456
  836MOL0     H12816   8.953   8.574   0.473  0.4852  5.4964  4.7324
  836MOL0     H12817   8.814   8.455   0.436 -0.6273  0.5227 -0.4883
  836MOL0     H12818   8.905   8.535   0.706 -0.1730  1.8694 -1.7747
  836MOL0     H12819   8.965   8.392   0.626  2.0518  3.5412 -3.8745
  836MOL0     H12820   8.890   8.208   0.569  1.6035 -1.0206  3.0213
  836MOL0     H12821   8.920   8.044   0.433  0.6311 -0.7254  0.0570
  836MOL0     H12822   8.833   7.900   0.486  1.3556  1.9263  1.6217
  836MOL0     H12823   8.791   7.975   0.324 -1.2101  1.5607 -0.0416
  836MOL0     H12824   8.159   7.991   0.391 -0.8282 -0.4181  1.4542
  836MOL0     H12825   7.981   7.836   0.327  0.1729  1.0142 -0.7260
  836MOL0     H12826   7.866   7.472   0.323  2.4003 -0.6318 -0.8999
  836MOL0     H12827   7.903   7.623   0.418  0.0524 -1.6141  0.7555
  836MOL0     H12828   7.806   7.758   0.261  1.7662  0.0969 -4.4012
  836MOL0     H12829   7.817   7.647   0.130 -1.2375  4.4889 -1.8337
  836MOL0     H12830   7.630   7.646   0.362  0.6356  0.0806 -0.4818
  836MOL0     H12831   7.639   7.508   0.234  0.4200  0.1469  0.9143
  836MOL0     H12832   7.575   7.807   0.225 -2.6080  1.2323 -0.9603
  836MOL0     H12833   7.591   7.711   0.076  0.8213 -2.3563  0.7513
  836MOL0     H12834   7.371   7.686   0.300  0.9630 -2.5804  0.5431
  836MOL0     H12835   7.366   7.599   0.150  0.7570 -1.4992  1.7076
  836MOL0     H12836   7.227   7.797   0.168 -0.9012 -2.4756 -3.7373
  836MOL0     H12837   7.362   7.902   0.206  1.3695  0.0761 -1.3196
  836MOL0     H12838   7.360   7.750  -0.051  2.0409 -0.8311  0.9804
  836MOL0     H12839   7.452   7.895  -0.009 -0.4547 -0.3399 -3.7110
  836MOL0     H12840   7.250   8.001  -0.131  0.2888  0.2905 -0.8707
  836MOL0     H12841   7.229   8.023   0.039  2.1687  2.5689 -2.7714
  836MOL0     H12842   8.289   7.533   0.244 -0.9389 -1.3358  1.8173
  836MOL0     H12843   8.442   7.673   0.338 -0.0687  0.2390  1.6797
  836MOL0     H12844   8.405   8.147   0.586  0.5278 -1.0879  0.3233
  836MOL0     H12845   8.516   8.344   0.677 -0.5469  1.0439 -1.9510
  836MOL0     H12846   9.293   9.852   0.661 -0.8476  0.7196 -1.3868
  836MOL0     H12847   9.455   9.960   0.828 -1.2546  2.1124 -0.7323
  836MOL0     H12848  10.100  10.019   0.757 -1.7572 -3.6421 -0.9284
  836MOL0     H12849  10.272  10.145   0.897  0.8534 -0.5137 -0.2848
  836MOL0     H12850  10.405  10.161   1.131  1.2997  0.3986 -1.4570
  836MOL0     H12851  10.369  10.309   1.037  1.6658 -3.7829 -1.7361
  836MOL0     H12852  10.375  10.278   1.345 -2.7736 -0.3876  0.1101
  836MOL0     H12853  10.352  10.435   1.267  3.3827  2.0546 -1.1062
  836MOL0     H12854  10.572  10.466   1.275 -1.7400  0.3264 -0.0255
  836MOL0     H12855  10.595  10.336   1.158  0.8568  0.1496 -0.1284
  836MOL0     H12856  10.619  10.294   1.457 -3.6240 -3.0786  0.2249
  836MOL0     H12857  10.728  10.293   1.302 -0.5128 -0.2752 -1.0487
  836MOL0     H12858  10.601   9.910   1.339  0.1942 -0.1951  3.1212
  836MOL0     H12859   9.982  10.145   1.214 -0.6949 -3.3239  1.2225
  836MOL0     H12860   9.808  10.025   1.070 -0.3768  2.0911 -1.1674
  837MOL0     O12861   3.312   7.869   4.316  0.0718  0.0026  0.4168
  837MOL0     C12862   3.308   7.770   4.383 -0.8433 -0.4851  0.8546
  837MOL0     O12863   3.195   7.721   4.442 -0.0660 -0.2874 -0.7389
  837MOL0     C12864   3.064   7.773   4.434 -0.5392 -0.0770  0.2293
  837MOL0     C12865   3.016   7.870   4.349  0.4313  0.5303 -0.6774
  837MOL0     C12866   2.877   7.884   4.344  0.5093  0.0199  0.1826
  837MOL0     C12867   2.787   7.825   4.438  0.6437 -0.2775  0.9468
  837MOL0     O12868   2.652   7.839   4.446 -0.0730 -0.8545  0.0930
  837MOL0     C12869   2.593   7.940   4.360 -0.2110 -0.8217  0.0465
  837MOL0     C12870   2.440   7.968   4.372  0.0876 -0.7726 -0.1846
  837MOL0     C12871   2.401   8.095   4.287 -0.1400 -0.0617 -0.4094
  837MOL0     C12872   2.362   8.217   4.367 -0.2016 -0.2061 -0.3853
  837MOL0     C12873   2.211   8.211   4.408  0.5808  0.0948 -0.5081
  837MOL0     C12874   2.164   8.088   4.492  1.2417 -0.2875 -0.5814
  837MOL0     C12875   2.021   8.124   4.545  0.0133  0.0813  0.4339
  837MOL0     C12876   1.915   8.102   4.431  0.0132 -0.2676 -0.0513
  837MOL0     N12877   1.776   8.119   4.485  0.0128 -0.0477 -0.0371
  837MOL0     C12878   1.726   8.243   4.532  0.1719 -0.0679  0.5378
  837MOL0     C12879   1.595   8.227   4.568 -0.2429 -0.4003 -0.0649
  837MOL0     C12880   1.503   8.333   4.611  0.2378 -1.1315 -0.4565
  837MOL0     C12881   1.530   8.374   4.755 -1.4586 -0.7247 -0.4021
  837MOL0     C12882   1.412   8.449   4.819  0.3880  1.7066 -0.5051
  837MOL0     C12883   1.412   8.600   4.785 -0.2187  0.6988 -0.4756
  837MOL0     O12884   1.297   8.663   4.849  0.3922 -0.1479  0.0785
  837MOL0     C12885   1.256   8.787   4.785  0.5340  1.3244  0.4393
  837MOL0     C12886   1.337   8.886   4.727  0.7540  0.4494  1.2786
  837MOL0     C12887   1.288   9.005   4.661  0.7672  0.6083  0.0859
  837MOL0     C12888   1.373   9.108   4.608 -1.3837 -0.0079  0.5098
  837MOL0     C12889   1.150   9.024   4.669 -0.3345 -0.1392 -0.2593
  837MOL0     C12890   1.074   9.138   4.615  0.6515  0.4779 -0.3418
  837MOL0     O12891   1.108   9.174   4.497 -0.2079 -0.6126  0.3244
  837MOL0     C12892   1.057   9.294   4.464  0.1213  0.9147  0.2024
  837MOL0     C12893   0.952   9.306   4.372 -0.3914  0.7307 -0.0444
  837MOL0     C12894   0.918   9.426   4.315 -0.2965 -0.2549 -0.7133
  837MOL0     C12895   0.985   9.541   4.357 -0.2333 -0.6743 -0.3108
  837MOL0     O12896   0.941   9.663   4.310 -0.5683 -0.1811 -0.0983
  837MOL0     C12897   0.859   9.744   4.394 -0.1739 -0.3738  0.5047
  837MOL0     C12898   0.865   9.889   4.350 -0.0794  0.2853 -0.1311
  837MOL0     C12899   0.732   9.969   4.384 -0.0029 -0.2989 -0.1254
  837MOL0     C12900   0.705   9.959   4.540 -0.0409 -0.3811  0.2552
  837MOL0     C12901   0.597  10.066   4.579  0.8165 -0.2724  0.0465
  837MOL0     C12902   0.521  10.024   4.712  0.3979  0.5224  0.1448
  837MOL0     C12903   0.450  10.134   4.787  0.1233  0.4668 -0.4208
  837MOL0     C12904   0.321  10.174   4.722  1.2244 -0.2870  0.2480
  837MOL0    Cl12905   0.213  10.274   4.820  0.0764  0.5920 -0.0948
  837MOL0     C12906   1.090   9.537   4.439 -0.0201 -0.0768  0.4414
  837MOL0     C12907   1.130   9.416   4.497 -0.1466  0.2128  0.0372
  837MOL0     O12908   0.986   9.188   4.684  0.2432  0.0395  1.1338
  837MOL0     C12909   1.063   8.936   4.733 -0.0170  0.1059  0.4712
  837MOL0     C12910   1.115   8.814   4.775 -0.1116  0.1066 -0.1976
  837MOL0     N12911   1.567   8.092   4.547 -0.3283 -0.0699  0.3591
  837MOL0     N12912   1.673   8.028   4.502 -0.0009 -0.5071 -0.2761
  837MOL0     C12913   2.842   7.735   4.523 -0.2337 -0.2340  0.0878
  837MOL0     C12914   2.978   7.707   4.515  0.2069  0.4032 -0.3784
  837MOL0     C12915   3.439   7.704   4.399  0.5211  0.5748  0.5673
  837MOL0     C12916   3.559   7.739   4.327  0.0399 -0.0818  0.1274
  837MOL0     C12917   3.673   7.659   4.350  0.2678  0.1460 -0.0287
  837MOL0     C12918   3.676   7.557   4.446  0.3589  0.8361  0.0678
  837MOL0     O12919   3.786   7.488   4.481  0.1937 -0.0357 -0.6019
  837MOL0     C12920   3.911   7.520   4.416 -0.1891 -0.8810 -0.2073
  837MOL0     C12921   4.014   7.419   4.465 -0.6652 -0.1421 -0.5800
  837MOL0     C12922   4.148   7.480   4.423  0.0518 -0.3841  0.0647
  837MOL0     C12923   4.266   7.395   4.479  0.2406 -1.3874 -0.5430
  837MOL0     C12924   4.399   7.446   4.444 -0.2238 -0.7142  0.3801
  837MOL0     C12925   4.500   7.499   4.407 -0.6934  0.0432  0.3635
  837MOL0     C12926   3.561   7.515   4.505  0.4988  0.2721  0.1121
  837MOL0     C12927   3.440   7.585   4.483 -0.1126  0.3300 -0.2564
  837MOL0     H12928   3.075   7.916   4.271  0.3640  0.0949 -0.9904
  837MOL0     H12929   2.839   7.958   4.275  2.0679  0.5879 -0.1023
  837MOL0     H12930   2.650   8.029   4.386  2.5669 -1.7338 -2.3543
  837MOL0     H12931   2.616   7.917   4.256 -1.6383 -1.0744 -0.2267
  837MOL0     H12932   2.382   7.881   4.340 -2.6354  0.8616 -0.0076
  837MOL0     H12933   2.420   7.985   4.478  1.9382 -0.8761  0.2181
  837MOL0     H12934   2.473   8.116   4.208 -2.0137 -0.6738 -2.3685
  837MOL0     H12935   2.311   8.063   4.235 -0.2071  2.7886 -2.2793
  837MOL0     H12936   2.432   8.226   4.451  1.5262  6.3097 -1.9265
  837MOL0     H12937   2.384   8.301   4.301  2.7099 -1.3752 -1.0691
  837MOL0     H12938   2.190   8.291   4.479  0.4713 -0.9012  0.6211
  837MOL0     H12939   2.141   8.218   4.324 -2.6446 -0.9915  1.8894
  837MOL0     H12940   2.152   7.995   4.436  0.7324 -0.3839 -0.3084
  837MOL0     H12941   2.234   8.073   4.575 -0.1792  0.2720  0.7533
  837MOL0     H12942   1.996   8.065   4.634 -0.3798  4.4113  3.5214
  837MOL0     H12943   2.028   8.227   4.581 -2.1016 -0.6339  3.2293
  837MOL0     H12944   1.918   7.997   4.400  0.6326 -0.7702  1.6222
  837MOL0     H12945   1.936   8.173   4.350 -0.1819 -0.2098 -0.0507
  837MOL0     H12946   1.781   8.337   4.537  0.5349 -0.2101 -0.5429
  837MOL0     H12947   1.520   8.417   4.544 -0.4611 -1.5897 -1.2296
  837MOL0     H12948   1.401   8.294   4.595 -2.5943  3.5234  3.4762
  837MOL0     H12949   1.611   8.447   4.757 -2.7544  0.8254 -1.6167
  837MOL0     H12950   1.555   8.279   4.803 -0.0526 -2.2351 -3.8183
  837MOL0     H12951   1.399   8.419   4.923  0.0852 -0.3632 -1.0902
  837MOL0     H12952   1.316   8.420   4.775 -0.1651  1.9098  0.5435
  837MOL0     H12953   1.411   8.625   4.679 -0.1029  0.2825 -0.5780
  837MOL0     H12954   1.506   8.643   4.820  0.2570 -1.5454  1.2429
  837MOL0     H12955   1.442   8.873   4.751  0.1918 -3.1596  2.3469
  837MOL0     H12956   1.353   9.098   4.501  2.0948 -0.0227 -0.2251
  837MOL0     H12957   1.347   9.202   4.659  1.7620 -0.9749  4.3881
  837MOL0     H12958   1.480   9.092   4.619 -1.4624 -0.0786  1.2400
  837MOL0     H12959   0.889   9.224   4.341 -0.4836 -0.0294  1.9779
  837MOL0     H12960   0.852   9.439   4.229 -0.1134  1.1699 -0.6643
  837MOL0     H12961   0.755   9.714   4.381 -0.1156 -0.1349 -0.6262
  837MOL0     H12962   0.886   9.731   4.499  3.3854  2.5819  0.1626
  837MOL0     H12963   0.954   9.942   4.387  0.3416 -0.8367  0.5397
  837MOL0     H12964   0.867   9.886   4.241 -2.5311 -0.1723 -0.2111
  837MOL0     H12965   0.649   9.922   4.329 -1.6273  2.3571 -0.0895
  837MOL0     H12966   0.753  10.072   4.355  1.3389 -1.3952 -3.6777
  837MOL0     H12967   0.685   9.854   4.566 -0.8488  0.0578  1.5600
  837MOL0     H12968   0.792   9.986   4.600  0.0214  3.4453 -1.3152
  837MOL0     H12969   0.522  10.083   4.502 -0.0835  1.8160  1.2966
  837MOL0     H12970   0.651  10.160   4.594  2.6903 -1.3146  0.0933
  837MOL0     H12971   0.450   9.944   4.692  0.4955  0.1861  1.0749
  837MOL0     H12972   0.588   9.974   4.784  0.2795 -3.5506 -2.2500
  837MOL0     H12973   0.515  10.221   4.805 -2.9226  2.5798  1.2969
  837MOL0     H12974   0.426  10.091   4.885  0.0386  1.3355 -0.0493
  837MOL0     H12975   0.261  10.085   4.700  1.4672 -1.3828  3.4645
  837MOL0     H12976   0.339  10.220   4.624 -4.9967 -0.8576 -1.6116
  837MOL0     H12977   1.144   9.630   4.456 -0.2415 -0.0283  0.9127
  837MOL0     H12978   1.212   9.429   4.566 -0.9766  0.5292  0.9968
  837MOL0     H12979   0.955   8.946   4.733  0.0334  0.7492  0.8974
  837MOL0     H12980   1.044   8.738   4.803 -1.0610  1.5262  1.4525
  837MOL0     H12981   2.771   7.679   4.582  0.1187 -0.9032 -0.1104
  837MOL0     H12982   3.021   7.637   4.585 -1.1469  2.2745  2.5629
  837MOL0     H12983   3.567   7.820   4.256 -0.7381  0.2827  0.4403
  837MOL0     H12984   3.763   7.698   4.304  0.2960 -0.0675 -0.1547
  837MOL0     H12985   3.901   7.516   4.307  2.5725  0.4646 -0.5894
  837MOL0     H12986   3.943   7.620   4.447 -0.4638 -0.0214 -2.5080
  837MOL0     H12987   4.007   7.317   4.426  1.2520 -0.8462  0.7426
  837MOL0     H12988   4.010   7.421   4.574 -1.4003 -1.0891 -0.5836
  837MOL0     H12989   4.150   7.581   4.466  1.0007 -0.1922 -0.4077
  837MOL0     H12990   4.160   7.490   4.315  1.3008  1.3639  0.3168
  837MOL0     H12991   4.241   7.295   4.442 -2.7611 -0.8226 -0.3057
  837MOL0     H12992   4.259   7.391   4.588  1.7162 -0.1981 -0.3716
  837MOL0     H12993   4.586   7.537   4.357  1.3321 -3.0737  1.2474
  837MOL0     H12994   3.560   7.445   4.588  1.6351  2.0989  1.7587
  837MOL0     H12995   3.349   7.553   4.533 -0.1187 -1.7125 -1.4920
  838MOL0     O12996   1.697  10.857  10.494  0.5302 -0.7772 -0.2848
  838MOL0     C12997   1.737  10.863  10.611 -0.0123 -0.8470  0.0012
  838MOL0     O12998   1.666  10.895  10.722  0.1827  0.7582 -0.1614
  838MOL0     C12999   1.529  10.921  10.709 -0.0379 -0.1899  0.1207
  838MOL0     C13000   1.480  11.045  10.726  0.2497 -0.2712  0.0607
  838MOL0     C13001   1.344  11.076  10.708 -1.0044 -0.7416  0.5014
  838MOL0     C13002   1.249  10.965  10.681 -0.4023 -0.0332  0.2629
  838MOL0     O13003   1.121  11.002  10.666  0.3996  0.0605  0.0571
  838MOL0     C13004   1.027  10.913  10.605  0.8612 -0.4442  0.1547
  838MOL0     C13005   1.034  10.892  10.455 -0.1493  0.7094  0.5139
  838MOL0     C13006   0.912  10.825  10.388 -0.2587 -0.7523 -0.0090
  838MOL0     C13007   0.785  10.895  10.447 -0.4926  0.5799 -0.3298
  838MOL0     C13008   0.664  10.865  10.352 -0.3105 -0.3894  0.4441
  838MOL0     C13009   0.608  10.724  10.370 -0.5761  0.3673  0.0082
  838MOL0     C13010   0.460  10.701  10.333 -0.1918  0.6379  0.7811
  838MOL0     C13011   0.423  10.720  10.192  0.4629  0.4880 -0.0237
  838MOL0     N13012   0.280  10.726  10.176  0.1529  0.8653  0.2465
  838MOL0     C13013   0.197  10.837  10.177 -0.0096 -0.3031 -0.6998
  838MOL0     C13014   0.083  10.779  10.140 -0.8116 -0.5772  0.7206
  838MOL0     C13015  -0.048  10.854  10.133 -0.4853  0.1266 -0.5451
  838MOL0     C13016  -0.162  10.762  10.191 -0.5370 -0.1596  0.1818
  838MOL0     C13017  -0.305  10.824  10.181  0.8726  1.3888  1.4063
  838MOL0     C13018  -0.408  10.741  10.253  0.2974  0.3037  0.1886
  838MOL0     O13019  -0.530  10.821  10.248 -0.5853  0.9843  0.3044
  838MOL0     C13020  -0.650  10.767  10.277  0.6972  0.0503  0.0241
  838MOL0     C13021  -0.771  10.833  10.250  0.4373 -0.2953 -0.1057
  838MOL0     C13022  -0.898  10.786  10.296 -0.5923  0.6257 -0.3425
  838MOL0     C13023  -1.027  10.869  10.261 -0.1984  0.3103 -0.4754
  838MOL0     C13024  -0.903  10.662  10.360 -0.4179  0.2442 -0.4926
  838MOL0     C13025  -1.027  10.614  10.424 -0.9433  0.2919  0.1734
  838MOL0     O13026  -1.101  10.707  10.493  0.3081  0.9707  0.1761
  838MOL0     C13027  -1.206  10.663  10.561  0.2223 -0.3124  0.0654
  838MOL0     C13028  -1.295  10.562  10.512 -0.2064  0.3391  0.2207
  838MOL0     C13029  -1.418  10.538  10.567  0.1198 -0.7606 -0.4102
  838MOL0     C13030  -1.457  10.604  10.681 -0.2164  0.1604 -0.9250
  838MOL0     O13031  -1.577  10.574  10.746 -0.2617  0.2555 -0.0662
  838MOL0     C13032  -1.587  10.581  10.892  0.1569  0.1924  0.2404
  838MOL0     C13033  -1.679  10.692  10.942  0.5728  0.7699  0.0605
  838MOL0     C13034  -1.703  10.679  11.095 -0.5166 -0.1242  0.7888
  838MOL0     C13035  -1.793  10.792  11.138 -0.0935 -0.7889  0.0844
  838MOL0     C13036  -1.824  10.774  11.287  0.8640  0.3777  0.5749
  838MOL0     C13037  -1.911  10.885  11.328 -0.4126 -0.9211 -0.0037
  838MOL0     C13038  -1.920  10.877  11.479 -0.2734 -0.9406  0.1572
  838MOL0     C13039  -2.008  10.993  11.536 -0.1093  0.6337  0.5872
  838MOL0    Cl13040  -2.015  10.992  11.717  0.0825 -0.0560  0.5315
  838MOL0     C13041  -1.369  10.700  10.736  0.0361  0.3889 -1.2301
  838MOL0     C13042  -1.246  10.733  10.671 -0.2771  0.0441 -0.2394
  838MOL0     O13043  -1.033  10.492  10.427  0.3871 -0.1567 -0.2479
  838MOL0     C13044  -0.786  10.586  10.375  0.7399 -0.1082  0.3143
  838MOL0     C13045  -0.667  10.641  10.338 -0.4388 -0.8014 -0.0216
  838MOL0     N13046   0.094  10.650  10.109  0.5613  0.4502 -0.4933
  838MOL0     N13047   0.216  10.615  10.135  0.6622  0.1615  0.7316
  838MOL0     C13048   1.305  10.838  10.655  0.0224 -0.1130 -0.0754
  838MOL0     C13049   1.447  10.820  10.669 -0.0780  1.0142 -0.0978
  838MOL0     C13050   1.885  10.851  10.625  0.2538  0.1315  0.8010
  838MOL0     C13051   1.934  10.806  10.746 -0.3094  0.3151 -0.6016
  838MOL0     C13052   2.071  10.812  10.766  0.5583 -0.3857 -0.1375
  838MOL0     C13053   2.155  10.846  10.666 -0.7874 -0.3083  0.4967
  838MOL0     O13054   2.291  10.834  10.699  0.3488 -1.1234 -0.6678
  838MOL0     C13055   2.365  10.719  10.649 -0.0226 -0.6952 -0.5636
  838MOL0     C13056   2.518  10.719  10.671  0.2699 -0.3544  0.2391
  838MOL0     C13057   2.587  10.841  10.603  0.3917  0.9705 -0.2840
  838MOL0     C13058   2.669  10.796  10.482 -0.3266  0.4724 -0.5113
  838MOL0     C13059   2.799  10.741  10.516 -1.2417  0.7251 -0.6142
  838MOL0     C13060   2.914  10.688  10.534 -0.2203  0.6014  0.4541
  838MOL0     C13061   2.109  10.883  10.539  0.4958 -0.9596 -1.2291
  838MOL0     C13062   1.974  10.896  10.519  0.4977  0.3677  0.2847
  838MOL0     H13063   1.546  11.129  10.744  0.3774 -0.6857  1.6071
  838MOL0     H13064   1.317  11.181  10.702 -0.2207 -0.3788  2.4235
  838MOL0     H13065   1.025  10.813  10.650 -0.0800 -0.8344 -0.7388
  838MOL0     H13066   0.930  10.955  10.632  0.4266  0.5490 -2.6429
  838MOL0     H13067   1.048  10.998  10.432  1.8218  0.5484  0.7697
  838MOL0     H13068   1.117  10.826  10.426 -1.0639 -1.4112  2.4980
  838MOL0     H13069   0.918  10.825  10.279  1.0824 -3.2444 -0.0043
  838MOL0     H13070   0.911  10.718  10.406 -3.6022 -1.1159 -1.5984
  838MOL0     H13071   0.761  10.858  10.547  3.6033  0.2841  0.7178
  838MOL0     H13072   0.793  11.004  10.449 -0.4919  0.5736  0.4360
  838MOL0     H13073   0.591  10.940  10.385  1.5402  1.2150  1.0599
  838MOL0     H13074   0.677  10.887  10.245 -4.8120  1.3005  0.0083
  838MOL0     H13075   0.674  10.655  10.316  2.4124  0.7923  2.7789
  838MOL0     H13076   0.628  10.693  10.473  1.9755 -0.7683 -0.7382
  838MOL0     H13077   0.452  10.596  10.362  1.8645  0.5718  1.2900
  838MOL0     H13078   0.397  10.760  10.400  1.0609  0.2945  2.3103
  838MOL0     H13079   0.471  10.644  10.129  1.9694 -1.1607  2.8868
  838MOL0     H13080   0.472  10.813  10.161  2.2278 -0.5202 -0.4228
  838MOL0     H13081   0.211  10.943  10.196 -2.2781  0.1672 -1.4455
  838MOL0     H13082  -0.047  10.943  10.196  1.4039  0.1971 -0.6144
  838MOL0     H13083  -0.073  10.866  10.027  0.9993 -2.7681 -1.3358
  838MOL0     H13084  -0.137  10.735  10.294 -2.1910  0.0474  0.6741
  838MOL0     H13085  -0.166  10.665  10.140 -1.3465 -0.7521  1.3098
  838MOL0     H13086  -0.335  10.839  10.076 -1.8715  0.2021  1.9359
  838MOL0     H13087  -0.294  10.917  10.238 -0.7206  1.6005  1.4308
  838MOL0     H13088  -0.384  10.714  10.357 -1.1821 -2.3664 -0.0869
  838MOL0     H13089  -0.421  10.644  10.204 -2.4630  1.0193 -0.6985
  838MOL0     H13090  -0.758  10.930  10.203 -0.2077 -1.0499 -1.9252
  838MOL0     H13091  -0.990  10.970  10.239 -0.7105  0.8766  1.0639
  838MOL0     H13092  -1.098  10.835  10.185 -1.3847 -1.2277  1.2259
  838MOL0     H13093  -1.093  10.894  10.345 -0.0264 -0.7856 -0.0087
  838MOL0     H13094  -1.277  10.492  10.431 -0.2035 -0.2282  0.6996
  838MOL0     H13095  -1.498  10.473  10.534 -0.5639  1.0821 -2.7808
  838MOL0     H13096  -1.632  10.487  10.924  2.4582 -0.9083  0.4634
  838MOL0     H13097  -1.493  10.589  10.947 -0.0230  1.2388  0.4237
  838MOL0     H13098  -1.619  10.779  10.913  0.6848 -0.4970 -4.0385
  838MOL0     H13099  -1.773  10.697  10.886  0.7470  0.4042 -0.2621
  838MOL0     H13100  -1.606  10.681  11.145  0.5291 -1.6100 -1.0544
  838MOL0     H13101  -1.748  10.581  11.111  0.3480 -1.4687 -3.6769
  838MOL0     H13102  -1.735  10.883  11.124 -1.0514  0.6767  4.2063
  838MOL0     H13103  -1.886  10.807  11.082  0.3248  3.8585  0.2539
  838MOL0     H13104  -1.727  10.774  11.336  0.6728  0.9173  0.9535
  838MOL0     H13105  -1.877  10.678  11.296 -0.9290  1.3523  0.8722
  838MOL0     H13106  -1.869  10.978  11.289  0.8424 -1.9746 -1.2989
  838MOL0     H13107  -2.009  10.879  11.281  0.1396 -2.3887 -1.0624
  838MOL0     H13108  -1.821  10.886  11.525 -0.2940  0.0455  0.0324
  838MOL0     H13109  -1.959  10.779  11.507  0.6940 -1.5017 -0.4091
  838MOL0     H13110  -2.111  10.983  11.501 -0.0862  0.0773  0.6722
  838MOL0     H13111  -1.968  11.092  11.510  1.1980  0.6034  2.3141
  838MOL0     H13112  -1.400  10.749  10.828 -1.8410  0.0297 -1.6324
  838MOL0     H13113  -1.177  10.795  10.728  2.3009 -2.6205 -0.2141
  838MOL0     H13114  -0.769  10.494  10.430  3.8200  0.6260  0.8150
  838MOL0     H13115  -0.573  10.588  10.352 -0.9022 -1.7094 -0.2837
  838MOL0     H13116   1.245  10.758  10.614 -0.3004 -1.0295  2.0753
  838MOL0     H13117   1.494  10.726  10.641  3.0045  1.7052  2.2316
  838MOL0     H13118   1.872  10.764  10.824 -0.3514 -0.4832 -1.0589
  838MOL0     H13119   2.117  10.778  10.859  0.1022  1.3826  0.7839
  838MOL0     H13120   2.321  10.628  10.692 -1.9167  0.6285  0.4599
  838MOL0     H13121   2.342  10.723  10.542 -0.7785  1.9341 -0.3632
  838MOL0     H13122   2.562  10.630  10.625 -1.1150  1.2028 -4.6861
  838MOL0     H13123   2.531  10.724  10.780 -0.0597  2.2210  0.2273
  838MOL0     H13124   2.646  10.898  10.675  0.7184  0.0786  0.1680
  838MOL0     H13125   2.508  10.904  10.559  1.8019  1.5294 -2.1336
  838MOL0     H13126   2.698  10.880  10.417  2.3850  0.2677  0.2891
  838MOL0     H13127   2.602  10.733  10.423  0.7532 -2.9419  1.6519
  838MOL0     H13128   3.006  10.646  10.567  0.1805  1.5806  0.6236
  838MOL0     H13129   2.178  10.899  10.457  0.5286  1.5090 -0.7997
  838MOL0     H13130   1.955  10.920  10.415  2.4958 -1.1876 -0.5058
  839MOL0     O13131   7.173   6.618   1.131  0.0363  0.6342  0.5922
  839MOL0     C13132   7.219   6.727   1.165 -0.3503 -0.6054 -0.2039
  839MOL0     O13133   7.181   6.852   1.115  0.3101  0.4891  0.3006
  839MOL0     C13134   7.065   6.857   1.042 -0.8146 -0.2582 -0.1828
  839MOL0     C13135   7.076   6.815   0.906 -0.0533  0.1310  0.2588
  839MOL0     C13136   6.967   6.816   0.824  0.2106 -0.4166 -0.0995
  839MOL0     C13137   6.844   6.876   0.875 -0.8114 -0.2479 -0.2693
  839MOL0     O13138   6.728   6.901   0.803 -0.1306  0.1608 -0.8473
  839MOL0     C13139   6.693   6.825   0.691  0.4613  0.4319  0.0706
  839MOL0     C13140   6.543   6.806   0.690  0.4270  1.4970 -0.3103
  839MOL0     C13141   6.500   6.721   0.581  0.5318 -0.3698 -0.3372
  839MOL0     C13142   6.569   6.737   0.449  0.3087 -0.2743  0.1649
  839MOL0     C13143   6.493   6.662   0.341 -0.4885 -0.4981  0.8714
  839MOL0     C13144   6.537   6.711   0.198  0.1028 -0.1993 -0.1396
  839MOL0     C13145   6.468   6.617   0.096  0.1812  0.2049 -0.3334
  839MOL0     C13146   6.504   6.638  -0.057 -0.0307  0.2959  0.1850
  839MOL0     N13147   6.434   6.548  -0.141  0.0970 -0.4394 -0.0761
  839MOL0     C13148   6.315   6.594  -0.206 -0.4482  0.1635 -0.6869
  839MOL0     C13149   6.286   6.511  -0.304  0.5515 -0.6659 -0.9084
  839MOL0     C13150   6.178   6.542  -0.416 -0.3022 -0.7173  0.4542
  839MOL0     C13151   6.131   6.417  -0.492 -0.4333  0.2392 -0.2602
  839MOL0     C13152   6.032   6.448  -0.604 -0.0548 -0.0284  0.5989
  839MOL0     C13153   5.896   6.473  -0.549  0.2496  0.0678  0.3178
  839MOL0     O13154   5.864   6.382  -0.441 -0.6870  0.7461  0.3963
  839MOL0     C13155   5.730   6.366  -0.403  0.9387 -0.3025 -0.2793
  839MOL0     C13156   5.697   6.257  -0.323 -0.5380  0.4804  0.7410
  839MOL0     C13157   5.566   6.221  -0.289 -0.0443 -0.2730  0.6454
  839MOL0     C13158   5.542   6.088  -0.213 -0.6519 -0.2786 -0.1571
  839MOL0     C13159   5.459   6.305  -0.328 -0.0511 -0.5851  0.5738
  839MOL0     C13160   5.319   6.281  -0.304 -0.7249 -0.0251 -0.1192
  839MOL0     O13161   5.239   6.392  -0.284  0.0260 -0.1846 -0.7992
  839MOL0     C13162   5.109   6.375  -0.234 -0.8821  0.0109  0.4658
  839MOL0     C13163   5.061   6.270  -0.150 -0.1598  0.8194 -0.3180
  839MOL0     C13164   4.932   6.267  -0.104  0.6910 -0.1620  0.0637
  839MOL0     C13165   4.837   6.361  -0.148 -0.4670  0.6679  0.1264
  839MOL0     O13166   4.712   6.345  -0.097 -0.2916 -0.3321 -0.3201
  839MOL0     C13167   4.609   6.432  -0.132  0.7764  0.5615  0.0850
  839MOL0     C13168   4.483   6.429  -0.039  0.6812  0.4867 -0.0400
  839MOL0     C13169   4.397   6.301  -0.037 -0.6002 -0.7353 -0.3281
  839MOL0     C13170   4.277   6.318   0.059  0.5239  0.6531 -0.0079
  839MOL0     C13171   4.159   6.228   0.035  0.8279  1.4018 -0.0355
  839MOL0     C13172   4.198   6.077   0.027  0.2656 -0.4012  0.9418
  839MOL0     C13173   4.087   5.999  -0.044  0.4926 -0.0693 -0.5898
  839MOL0     C13174   4.111   5.850  -0.046 -0.1577  0.3666 -0.6384
  839MOL0    Cl13175   4.214   5.815  -0.188  0.0881 -0.1886 -0.3238
  839MOL0     C13176   4.882   6.451  -0.241  0.1610 -0.3588  1.1474
  839MOL0     C13177   5.009   6.465  -0.285 -0.1034 -0.1826 -0.3836
  839MOL0     O13178   5.280   6.168  -0.316  0.9115 -0.0130 -0.3322
  839MOL0     C13179   5.490   6.426  -0.406 -0.6466  0.7236  0.5821
  839MOL0     C13180   5.623   6.453  -0.436 -0.4523  0.0843  0.6202
  839MOL0     N13181   6.391   6.421  -0.313 -0.8044  0.2993 -0.0357
  839MOL0     N13182   6.482   6.441  -0.211 -0.1970  0.2855  0.7696
  839MOL0     C13183   6.840   6.924   1.007 -0.1275  0.0473  0.0038
  839MOL0     C13184   6.953   6.912   1.095  0.6062 -0.0982 -0.4366
  839MOL0     C13185   7.329   6.731   1.258  0.2197  0.2901  0.0907
  839MOL0     C13186   7.395   6.853   1.290 -0.0694 -0.2677 -0.1482
  839MOL0     C13187   7.501   6.854   1.379  0.5251 -0.5072 -0.0563
  839MOL0     C13188   7.537   6.741   1.452 -1.6307 -0.4849 -0.1823
  839MOL0     O13189   7.646   6.721   1.535  0.6941  0.5103  0.1506
  839MOL0     C13190   7.721   6.827   1.592  0.1360  0.4542  0.5369
  839MOL0     C13191   7.839   6.878   1.503 -0.2927  0.0668  0.1545
  839MOL0     C13192   7.974   6.868   1.575 -0.0900 -0.2489 -0.1125
  839MOL0     C13193   8.075   6.945   1.488  0.2058  1.1766  0.6416
  839MOL0     C13194   8.209   6.936   1.533 -0.0144  0.4695 -0.4929
  839MOL0     C13195   8.331   6.951   1.551 -0.5683 -0.1929  0.1801
  839MOL0     C13196   7.463   6.621   1.433  0.5340 -1.3545 -0.5539
  839MOL0     C13197   7.362   6.621   1.332 -0.5254  0.2607  0.1490
  839MOL0     H13198   7.159   6.766   0.856 -0.5983 -1.2380  0.6329
  839MOL0     H13199   6.983   6.787   0.721  1.8322  3.6869 -1.2092
  839MOL0     H13200   6.723   6.881   0.602  0.3147 -0.9138 -0.8565
  839MOL0     H13201   6.741   6.727   0.692  0.4057  0.3210 -2.5330
  839MOL0     H13202   6.518   6.742   0.775 -1.5579 -0.8746 -2.4970
  839MOL0     H13203   6.483   6.897   0.689 -1.0262  0.6438 -3.1120
  839MOL0     H13204   6.522   6.616   0.606 -0.1990 -0.2445  0.8796
  839MOL0     H13205   6.391   6.720   0.569  0.3469  0.3999  1.0950
  839MOL0     H13206   6.566   6.843   0.423 -1.3222  0.5781  3.3290
  839MOL0     H13207   6.673   6.706   0.464 -0.1693 -0.6040  3.3709
  839MOL0     H13208   6.520   6.556   0.355 -0.1261 -0.4021  0.9008
  839MOL0     H13209   6.385   6.675   0.348 -0.9568 -3.8740  1.9745
  839MOL0     H13210   6.499   6.813   0.184 -2.8730 -1.3046 -1.0071
  839MOL0     H13211   6.646   6.701   0.200 -0.0919 -2.6319  1.1628
  839MOL0     H13212   6.485   6.512   0.118  1.7002  0.4454 -0.2552
  839MOL0     H13213   6.360   6.622   0.113 -0.3625  1.2960 -3.4223
  839MOL0     H13214   6.608   6.610  -0.074 -0.5131 -0.0454 -2.4777
  839MOL0     H13215   6.500   6.745  -0.078  2.2113  0.9645  2.6019
  839MOL0     H13216   6.250   6.676  -0.178 -0.3774  0.1353 -0.4310
  839MOL0     H13217   6.091   6.583  -0.365 -1.0975 -0.7762 -0.8082
  839MOL0     H13218   6.219   6.616  -0.486  2.7117 -1.0211  1.7607
  839MOL0     H13219   6.094   6.342  -0.421 -0.5930  1.3972  0.9122
  839MOL0     H13220   6.225   6.385  -0.539  0.5245  2.0686  0.3132
  839MOL0     H13221   6.031   6.363  -0.674  2.3972  0.9618 -0.7945
  839MOL0     H13222   6.075   6.528  -0.665  1.4955 -1.6707 -0.5775
  839MOL0     H13223   5.822   6.464  -0.629 -0.4793 -2.6346  1.1845
  839MOL0     H13224   5.884   6.575  -0.512 -1.3605 -0.4650  1.3645
  839MOL0     H13225   5.785   6.196  -0.303 -0.2574  0.9674  0.9936
  839MOL0     H13226   5.633   6.073  -0.154 -1.4879 -3.1404  0.5445
  839MOL0     H13227   5.454   6.098  -0.150 -0.3039 -1.2766  0.5202
  839MOL0     H13228   5.527   6.000  -0.277  1.8539 -2.8157  2.4093
  839MOL0     H13229   5.130   6.195  -0.112 -2.4697 -0.1888  2.2137
  839MOL0     H13230   4.901   6.190  -0.035  2.0380  0.2337  1.1526
  839MOL0     H13231   4.646   6.535  -0.124  1.8579  0.3790 -2.0664
  839MOL0     H13232   4.576   6.407  -0.233 -0.3052  1.4228  0.2019
  839MOL0     H13233   4.516   6.437   0.065 -0.1149 -0.0788  0.2630
  839MOL0     H13234   4.420   6.518  -0.050 -0.8771 -0.6578 -0.5767
  839MOL0     H13235   4.463   6.221   0.000  2.8000  1.6341 -0.7604
  839MOL0     H13236   4.357   6.278  -0.135 -1.4548 -1.1894  0.1217
  839MOL0     H13237   4.305   6.298   0.163 -2.5857  0.3226  0.8580
  839MOL0     H13238   4.230   6.417   0.050  1.1725  0.9147 -0.6044
  839MOL0     H13239   4.100   6.253  -0.053 -0.9151 -1.0182  0.3322
  839MOL0     H13240   4.083   6.230   0.114 -0.8169 -2.1707 -1.3219
  839MOL0     H13241   4.292   6.069  -0.028  0.2283 -3.1712  1.1770
  839MOL0     H13242   4.215   6.043   0.129  3.9412 -0.6136  0.3636
  839MOL0     H13243   4.066   6.033  -0.146 -2.6007  1.0376  0.2958
  839MOL0     H13244   3.990   6.019   0.004 -1.3538 -1.5622 -3.4368
  839MOL0     H13245   4.013   5.802  -0.047  0.4019 -0.8185 -1.6454
  839MOL0     H13246   4.157   5.822   0.050 -0.5470  0.2588 -0.4826
  839MOL0     H13247   4.818   6.521  -0.295  1.2307 -0.8482 -0.8597
  839MOL0     H13248   5.048   6.548  -0.344 -1.2574  0.2534 -0.5563
  839MOL0     H13249   5.415   6.494  -0.446 -1.7548 -0.3180  0.8378
  839MOL0     H13250   5.653   6.540  -0.494  3.2313 -1.8531 -0.6948
  839MOL0     H13251   6.750   6.969   1.048  0.7940 -0.2987  2.6482
  839MOL0     H13252   6.951   6.967   1.188 -3.1781  1.2991 -1.1469
  839MOL0     H13253   7.362   6.946   1.244  0.2990 -0.1184 -0.1052
  839MOL0     H13254   7.557   6.947   1.386 -1.5707  0.8827 -0.8042
  839MOL0     H13255   7.651   6.909   1.613 -1.4248 -1.0548  1.5116
  839MOL0     H13256   7.761   6.788   1.686  0.1576  1.5767  1.0058
  839MOL0     H13257   7.817   6.983   1.482  1.2931  0.9147  2.3721
  839MOL0     H13258   7.849   6.841   1.401  0.2230 -1.4561  0.7296
  839MOL0     H13259   8.002   6.763   1.593  0.8980  0.0536  0.1768
  839MOL0     H13260   7.970   6.919   1.671 -0.8887  1.2368 -0.9095
  839MOL0     H13261   8.047   7.051   1.481  0.1846  1.1334  0.0697
  839MOL0     H13262   8.067   6.904   1.387  0.6263  1.5551  0.4479
  839MOL0     H13263   8.435   6.974   1.563 -0.4714  0.0966 -1.0829
  839MOL0     H13264   7.486   6.537   1.498  3.1690  1.4044  2.4688
  839MOL0     H13265   7.313   6.526   1.310  0.7908 -0.3451 -0.2469
  840MOL0     O13266   1.097   5.584   2.362  0.0094  0.5559 -0.2464
  840MOL0     C13267   1.014   5.512   2.418 -0.3693 -0.2657  0.5699
  840MOL0     O13268   0.891   5.551   2.460 -0.4837 -0.0464 -0.4588
  840MOL0     C13269   0.853   5.681   2.426  0.5723 -0.4066 -0.1576
  840MOL0     C13270   0.926   5.794   2.463  0.3496 -0.9448 -1.1053
  840MOL0     C13271   0.881   5.921   2.423  0.1134 -0.5664 -0.7203
  840MOL0     C13272   0.757   5.934   2.360  0.4466 -0.4257  0.1809
  840MOL0     O13273   0.719   6.065   2.333 -0.5278  0.1984  0.8020
  840MOL0     C13274   0.583   6.083   2.309  0.1200 -0.3629 -0.9172
  840MOL0     C13275   0.558   6.237   2.311 -0.3824  0.4223  0.3634
  840MOL0     C13276   0.411   6.251   2.333  0.0473 -0.3126 -0.0723
  840MOL0     C13277   0.361   6.387   2.361  0.4205  0.1358 -0.5548
  840MOL0     C13278   0.402   6.439   2.496 -0.5287 -1.2782  0.3107
  840MOL0     C13279   0.345   6.582   2.504 -0.3379  0.4466 -0.0202
  840MOL0     C13280   0.409   6.655   2.626 -0.2243 -0.2318  0.0394
  840MOL0     C13281   0.343   6.791   2.654 -0.1251 -0.0133  0.4349
  840MOL0     N13282   0.215   6.772   2.725 -0.6846  0.0744  0.4332
  840MOL0     C13283   0.093   6.780   2.657 -0.7579 -1.3487  0.9205
  840MOL0     C13284   0.000   6.748   2.753  0.3651  0.3563  0.5985
  840MOL0     C13285  -0.152   6.744   2.738 -0.0303 -0.2042 -0.0643
  840MOL0     C13286  -0.212   6.844   2.638  1.1960 -0.2075  0.5179
  840MOL0     C13287  -0.358   6.800   2.593  0.4053 -0.2852  0.1897
  840MOL0     C13288  -0.401   6.885   2.469 -0.0111  0.3387  0.1358
  840MOL0     O13289  -0.422   7.027   2.500 -0.4230  0.3479 -0.3680
  840MOL0     C13290  -0.510   7.055   2.600 -0.0754  0.5063  0.4445
  840MOL0     C13291  -0.630   6.984   2.621 -0.1535  0.7223 -0.0199
  840MOL0     C13292  -0.714   7.015   2.731 -0.3321  0.3060 -0.0423
  840MOL0     C13293  -0.849   6.954   2.727  1.1179  0.0365  0.2666
  840MOL0     C13294  -0.674   7.116   2.824 -0.3520 -0.6254  0.0650
  840MOL0     C13295  -0.764   7.165   2.937 -0.3688  0.2470 -0.9596
  840MOL0     O13296  -0.730   7.277   3.009  0.3316  0.1998  0.5586
  840MOL0     C13297  -0.819   7.341   3.090 -0.1247  0.0900  0.1313
  840MOL0     C13298  -0.952   7.369   3.049  0.2020  0.5970 -0.2064
  840MOL0     C13299  -1.046   7.435   3.139 -0.6069  0.3337 -0.1708
  840MOL0     C13300  -0.995   7.481   3.262  0.0015 -0.3222 -0.3348
  840MOL0     O13301  -1.055   7.556   3.355  0.6370  0.5550 -0.4692
  840MOL0     C13302  -1.076   7.692   3.309 -0.8854 -0.0738 -0.2291
  840MOL0     C13303  -1.161   7.760   3.415 -0.6991  0.5869 -0.0070
  840MOL0     C13304  -1.088   7.773   3.546 -0.0245 -0.5815  0.0288
  840MOL0     C13305  -1.085   7.908   3.619  0.3233 -0.5223 -0.5213
  840MOL0     C13306  -1.219   7.955   3.661 -0.6347  0.1341  0.7071
  840MOL0     C13307  -1.228   8.095   3.733 -0.1611  0.0638 -0.0649
  840MOL0     C13308  -1.156   8.085   3.865 -1.0708 -0.0107 -0.0815
  840MOL0     C13309  -1.223   8.167   3.975  0.6136  0.4661  0.1148
  840MOL0    Cl13310  -1.212   8.342   3.966  0.0792  0.3564  0.2280
  840MOL0     C13311  -0.862   7.455   3.296  0.5860  0.6825  0.0055
  840MOL0     C13312  -0.773   7.385   3.213  0.5798 -0.2565  0.1367
  840MOL0     O13313  -0.847   7.079   2.974 -0.0769  0.2433  0.0926
  840MOL0     C13314  -0.550   7.187   2.797 -0.0529 -0.5686 -1.0866
  840MOL0     C13315  -0.474   7.154   2.682 -0.2121 -0.4245 -0.2642
  840MOL0     N13316   0.071   6.723   2.869 -0.8948 -0.2854 -0.3076
  840MOL0     N13317   0.194   6.741   2.856 -0.1098 -0.7878  0.1884
  840MOL0     C13318   0.677   5.821   2.344 -0.2602 -0.0634  0.4640
  840MOL0     C13319   0.725   5.698   2.373 -0.0663  0.1872 -0.9877
  840MOL0     C13320   1.040   5.371   2.455 -0.8093 -0.2596 -0.8175
  840MOL0     C13321   1.164   5.311   2.410 -0.6326 -0.5911  0.2271
  840MOL0     C13322   1.187   5.172   2.429  0.8862  0.4366  0.6703
  840MOL0     C13323   1.093   5.092   2.499 -0.1686  1.0684 -0.5032
  840MOL0     O13324   1.103   4.955   2.518 -0.3320 -0.2477  0.3763
  840MOL0     C13325   1.214   4.919   2.594 -1.2353 -0.0307 -0.0022
  840MOL0     C13326   1.176   4.930   2.745 -0.2981  0.0257  0.0197
  840MOL0     C13327   1.163   5.064   2.803 -0.1402  0.7283 -0.5360
  840MOL0     C13328   1.240   5.061   2.940 -0.6855  0.1036  0.8084
  840MOL0     C13329   1.222   5.195   3.004  0.1673 -0.0258 -0.0066
  840MOL0     C13330   1.211   5.299   3.051 -1.2419 -0.2072  0.2377
  840MOL0     C13331   0.977   5.148   2.545  0.4153 -0.2775  0.0978
  840MOL0     C13332   0.947   5.286   2.514  1.3447 -0.6111  0.6798
  840MOL0     H13333   1.021   5.785   2.515 -0.7836 -2.9562  0.7757
  840MOL0     H13334   0.943   6.009   2.438  1.0017 -1.0005 -1.7106
  840MOL0     H13335   0.559   6.046   2.209 -0.4515 -2.1942 -0.1389
  840MOL0     H13336   0.530   6.028   2.388 -2.6404  1.0374 -1.6892
  840MOL0     H13337   0.614   6.279   2.395 -1.3013  0.2691  1.0683
  840MOL0     H13338   0.588   6.286   2.218 -2.8088  0.4295 -0.4804
  840MOL0     H13339   0.363   6.196   2.252  0.5270 -1.3595  0.3277
  840MOL0     H13340   0.403   6.203   2.432  0.2187  2.8732  1.6121
  840MOL0     H13341   0.384   6.461   2.284  0.1430  1.1906  0.3376
  840MOL0     H13342   0.252   6.379   2.363  0.4515 -0.7871 -1.6712
  840MOL0     H13343   0.368   6.367   2.571  0.5798  0.1463  2.2744
  840MOL0     H13344   0.511   6.441   2.505 -0.3000 -2.6258 -1.4286
  840MOL0     H13345   0.376   6.638   2.415  0.0179 -1.4074 -1.1216
  840MOL0     H13346   0.236   6.583   2.506 -0.3326  0.6909  0.2040
  840MOL0     H13347   0.409   6.585   2.710  0.6434 -0.7611 -0.3831
  840MOL0     H13348   0.515   6.675   2.605 -0.1432  1.6238  1.9109
  840MOL0     H13349   0.312   6.836   2.559 -2.4823 -2.0378  0.1597
  840MOL0     H13350   0.409   6.859   2.709  0.6214  3.1919 -3.9005
  840MOL0     H13351   0.066   6.815   2.558  0.2769  1.8318  1.6312
  840MOL0     H13352  -0.180   6.646   2.701  1.3392 -0.5859 -0.1637
  840MOL0     H13353  -0.195   6.769   2.835 -0.8766  3.0613 -1.1522
  840MOL0     H13354  -0.145   6.847   2.552  2.2041 -0.5783  1.2648
  840MOL0     H13355  -0.225   6.940   2.690 -1.6154 -1.5979  2.7212
  840MOL0     H13356  -0.421   6.812   2.681  0.7798  0.4131  0.3723
  840MOL0     H13357  -0.361   6.695   2.564 -1.2218 -0.2696  0.2063
  840MOL0     H13358  -0.489   6.838   2.424 -1.4350  1.7393  1.3622
  840MOL0     H13359  -0.321   6.889   2.394  0.4619  1.3545  0.6732
  840MOL0     H13360  -0.661   6.916   2.542  1.0997  0.4538 -0.3048
  840MOL0     H13361  -0.850   6.866   2.792  0.2328 -0.0192  0.1944
  840MOL0     H13362  -0.916   7.038   2.749  2.5298  1.7273 -1.5358
  840MOL0     H13363  -0.872   6.920   2.626  1.5186 -1.4061  0.6517
  840MOL0     H13364  -0.993   7.317   2.963 -1.5195  2.4349 -0.5675
  840MOL0     H13365  -1.151   7.434   3.111 -0.3702 -1.1767 -1.1690
  840MOL0     H13366  -0.977   7.738   3.309  0.3421 -2.5257 -1.5201
  840MOL0     H13367  -1.112   7.710   3.207  0.1740 -1.9249 -0.9856
  840MOL0     H13368  -1.170   7.866   3.390  0.6588  0.5883 -0.5884
  840MOL0     H13369  -1.257   7.708   3.422 -1.0489  0.2924 -4.3007
  840MOL0     H13370  -0.983   7.744   3.536  0.2041  0.8127 -2.2295
  840MOL0     H13371  -1.126   7.695   3.612  0.8350 -1.7895 -0.8692
  840MOL0     H13372  -1.023   7.896   3.709 -1.3621 -1.8862  0.5306
  840MOL0     H13373  -1.037   7.992   3.570  0.2245  1.0976  1.9737
  840MOL0     H13374  -1.261   7.876   3.724 -0.9386  0.1805  0.5669
  840MOL0     H13375  -1.277   7.950   3.568  0.8429 -4.1245 -0.1720
  840MOL0     H13376  -1.190   8.166   3.658 -1.8037 -1.4567 -2.4595
  840MOL0     H13377  -1.325   8.136   3.762 -0.6781  0.8780 -2.6730
  840MOL0     H13378  -1.050   8.107   3.848 -0.8911 -2.2666 -2.3545
  840MOL0     H13379  -1.162   7.983   3.904  0.0238  0.8495  2.5820
  840MOL0     H13380  -1.166   8.138   4.064  1.5103 -1.1554 -0.9405
  840MOL0     H13381  -1.327   8.133   3.978  0.6426  0.0330 -2.0624
  840MOL0     H13382  -0.830   7.492   3.393  2.5384  0.6775 -0.6011
  840MOL0     H13383  -0.672   7.372   3.250  0.1730 -1.6933  0.8080
  840MOL0     H13384  -0.527   7.267   2.865 -0.6203  0.1237 -1.6923
  840MOL0     H13385  -0.387   7.219   2.683 -0.8506  0.4994  2.0769
  840MOL0     H13386   0.583   5.824   2.289  0.3924 -1.6018 -0.8386
  840MOL0     H13387   0.675   5.602   2.363  3.0775 -1.7930  0.6503
  840MOL0     H13388   1.235   5.371   2.355 -3.2833  2.4645 -0.1668
  840MOL0     H13389   1.278   5.120   2.401 -0.0443 -0.7767 -0.2245
  840MOL0     H13390   1.242   4.818   2.562  0.8645  0.5150 -0.0143
  840MOL0     H13391   1.299   4.984   2.573 -0.0983 -1.5788 -0.3799
  840MOL0     H13392   1.255   4.869   2.788 -1.3848 -2.1701 -0.9501
  840MOL0     H13393   1.081   4.882   2.771 -0.8014  0.6922 -0.5298
  840MOL0     H13394   1.058   5.089   2.814 -0.2100  0.1245  0.2872
  840MOL0     H13395   1.214   5.137   2.739  0.9957  2.8000  2.4838
  840MOL0     H13396   1.341   5.019   2.936 -1.7276 -2.4765  0.1436
  840MOL0     H13397   1.189   4.995   3.010 -1.1720  2.5461  2.9428
  840MOL0     H13398   1.203   5.401   3.084  3.9231  0.4631  0.3832
  840MOL0     H13399   0.912   5.098   2.615  0.0840  1.9560  1.4984
  840MOL0     H13400   0.850   5.319   2.550  0.4368 -2.8775  0.4439
  841MOL0     O13401   9.644  10.341   8.607  0.5118 -0.3359  0.3952
  841MOL0     C13402   9.722  10.268   8.535  0.6677 -1.0061 -0.0258
  841MOL0     O13403   9.688  10.154   8.473 -0.0449 -0.1835 -0.7948
  841MOL0     C13404   9.563  10.107   8.452  0.5087 -0.1217  0.0665
  841MOL0     C13405   9.506  10.017   8.539 -0.5180 -0.1464 -0.6797
  841MOL0     C13406   9.372   9.977   8.525  0.6067 -0.5437  0.8421
  841MOL0     C13407   9.299  10.041   8.419  0.7857  0.0416  1.1020
  841MOL0     O13408   9.165  10.008   8.397 -1.3739 -0.2839 -0.4759
  841MOL0     C13409   9.078  10.127   8.404 -0.1992  0.6240  0.0194
  841MOL0     C13410   8.939  10.069   8.445  1.1061 -0.0342 -0.3713
  841MOL0     C13411   8.930  10.022   8.595 -0.0731  0.3423 -0.1269
  841MOL0     C13412   8.926  10.137   8.692 -0.5807  0.2427  0.1674
  841MOL0     C13413   8.802  10.223   8.688 -0.6169 -0.4737  0.8932
  841MOL0     C13414   8.673  10.169   8.734  0.5726 -0.0136  0.4041
  841MOL0     C13415   8.556  10.270   8.729  0.4414 -0.2613 -0.2478
  841MOL0     C13416   8.550  10.339   8.868 -0.1856 -0.3645  0.0983
  841MOL0     N13417   8.463  10.454   8.874  0.0792 -0.2470  0.6839
  841MOL0     C13418   8.334  10.448   8.827 -0.4618  0.1718 -0.5782
  841MOL0     C13419   8.287  10.577   8.832 -0.2525  0.5507 -0.1939
  841MOL0     C13420   8.161  10.622   8.769 -0.0996 -0.7477 -0.9171
  841MOL0     C13421   8.058  10.657   8.870  0.2485 -0.1627  0.2834
  841MOL0     C13422   7.976  10.528   8.914 -0.7300 -0.5862  0.0338
  841MOL0     C13423   7.886  10.550   9.041 -1.1233 -0.1701  0.1713
  841MOL0     O13424   7.788  10.649   9.005 -0.4897  0.5201 -0.2322
  841MOL0     C13425   7.678  10.617   8.933  0.2589 -0.1395  0.9392
  841MOL0     C13426   7.597  10.717   8.891 -0.1775 -0.0807 -0.3578
  841MOL0     C13427   7.472  10.704   8.834 -0.3757  0.2603 -0.0865
  841MOL0     C13428   7.390  10.824   8.809  1.0923  0.6243  0.3936
  841MOL0     C13429   7.427  10.567   8.805  0.2880  0.2641 -0.8165
  841MOL0     C13430   7.292  10.532   8.758  0.4159 -0.5857 -0.1289
  841MOL0     O13431   7.192  10.619   8.774 -0.3506  0.2790 -0.0575
  841MOL0     C13432   7.054  10.587   8.783 -0.1548 -0.1612 -0.3889
  841MOL0     C13433   6.970  10.698   8.778  0.4473 -0.0544  0.1376
  841MOL0     C13434   6.830  10.693   8.781 -0.0399  0.1116 -0.2855
  841MOL0     C13435   6.771  10.564   8.797 -0.3044 -1.0142 -0.6982
  841MOL0     O13436   6.638  10.579   8.800  0.5235 -0.6159  0.5069
  841MOL0     C13437   6.565  10.460   8.808  0.5574 -0.1144 -0.5411
  841MOL0     C13438   6.424  10.484   8.762 -0.0946 -0.2996 -0.1967
  841MOL0     C13439   6.342  10.577   8.863  0.1107 -0.1775  0.6785
  841MOL0     C13440   6.320  10.516   9.003 -0.8042 -0.1228  0.7813
  841MOL0     C13441   6.227  10.611   9.078 -0.6238 -0.2051  0.9139
  841MOL0     C13442   6.085  10.549   9.085 -0.2844  0.9338  0.3898
  841MOL0     C13443   5.990  10.598   9.196 -0.2387 -0.2298 -0.9344
  841MOL0     C13444   5.868  10.517   9.217 -0.1214  0.1021  0.1947
  841MOL0    Cl13445   5.748  10.531   9.085 -0.0498 -0.6198 -0.0005
  841MOL0     C13446   6.858  10.453   8.822  0.7779 -0.1809 -0.8272
  841MOL0     C13447   6.996  10.468   8.813 -0.5323 -1.0134  0.1175
  841MOL0     O13448   7.285  10.424   8.700 -0.2916 -0.6688 -0.6310
  841MOL0     C13449   7.511  10.460   8.846 -0.2646 -0.4967 -0.5069
  841MOL0     C13450   7.638  10.483   8.909  0.0430  0.8119 -0.4278
  841MOL0     N13451   8.375  10.648   8.905  0.4121 -0.0697  0.1040
  841MOL0     N13452   8.478  10.579   8.923  0.2384 -0.1775  0.7972
  841MOL0     C13453   9.363  10.132   8.332  0.6910  0.0788 -1.0906
  841MOL0     C13454   9.495  10.161   8.342  0.5710 -0.2310  0.7876
  841MOL0     C13455   9.857  10.320   8.494 -0.8438  0.2991 -0.9574
  841MOL0     C13456   9.941  10.229   8.433 -0.1943  0.0253 -0.4242
  841MOL0     C13457  10.071  10.267   8.398 -0.4018 -0.3577 -1.0724
  841MOL0     C13458  10.114  10.392   8.432  0.1488 -0.2866  0.6348
  841MOL0     O13459  10.252  10.421   8.408 -0.2542  0.4824 -0.1486
  841MOL0     C13460  10.303  10.556   8.415 -0.0587 -0.0623  0.8634
  841MOL0     C13461  10.353  10.610   8.547 -0.5774  0.4543  0.0187
  841MOL0     C13462  10.479  10.533   8.596  0.3631  0.3795 -0.0797
  841MOL0     C13463  10.553  10.554   8.724  0.7275 -0.7763 -0.5945
  841MOL0     C13464  10.595  10.690   8.734 -0.2308  0.3152 -0.0625
  841MOL0     C13465  10.627  10.809   8.741 -0.3797  0.7973  0.7286
  841MOL0     C13466  10.030  10.484   8.501  0.5617  0.0536  0.6925
  841MOL0     C13467   9.895  10.448   8.513  1.0815 -0.9060 -0.1180
  841MOL0     H13468   9.569   9.974   8.616 -0.5682 -1.6628 -1.4430
  841MOL0     H13469   9.307   9.922   8.592 -4.1546 -0.0968 -2.9014
  841MOL0     H13470   9.106  10.200   8.480 -0.0278 -0.7820  1.3368
  841MOL0     H13471   9.067  10.171   8.304 -0.0892 -0.8166 -0.6524
  841MOL0     H13472   8.872  10.152   8.422 -0.5503 -1.4964 -1.0861
  841MOL0     H13473   8.913   9.991   8.372  0.8176  0.2489 -0.5756
  841MOL0     H13474   8.847   9.955   8.618 -1.7433  2.8838  1.6204
  841MOL0     H13475   9.016   9.962   8.627  1.5178  2.7559  0.3866
  841MOL0     H13476   8.933  10.087   8.789 -0.2889 -3.3568 -1.5693
  841MOL0     H13477   9.018  10.196   8.690 -0.3111 -0.1459  0.8546
  841MOL0     H13478   8.812  10.322   8.733  1.1588 -0.5728  0.7524
  841MOL0     H13479   8.783  10.242   8.582 -0.5656 -1.1068  0.7640
  841MOL0     H13480   8.642  10.087   8.669 -0.0898  1.8079 -1.7079
  841MOL0     H13481   8.692  10.133   8.836  2.3925  2.4000  1.0306
  841MOL0     H13482   8.570  10.342   8.648 -3.1665  1.1497  0.1803
  841MOL0     H13483   8.466  10.210   8.711  1.7531 -2.9853  1.4927
  841MOL0     H13484   8.653  10.366   8.894  0.1129  4.5603 -4.4054
  841MOL0     H13485   8.500  10.273   8.939 -1.7248  0.6896  0.0458
  841MOL0     H13486   8.295  10.363   8.772  2.2086 -0.6789 -1.3071
  841MOL0     H13487   8.192  10.716   8.722  0.7144 -1.0137 -0.9307
  841MOL0     H13488   8.125  10.557   8.688 -3.6903  0.8432 -0.8053
  841MOL0     H13489   7.994  10.728   8.818  1.6510  1.0566  0.1589
  841MOL0     H13490   8.101  10.710   8.956  1.2439 -0.1325 -0.2100
  841MOL0     H13491   8.041  10.441   8.927 -2.3370 -1.7144  0.9472
  841MOL0     H13492   7.921  10.501   8.823 -1.4163  0.3248  0.1614
  841MOL0     H13493   7.940  10.598   9.123 -1.0094  1.7764 -0.9705
  841MOL0     H13494   7.839  10.461   9.084  0.3818  0.2699  2.9804
  841MOL0     H13495   7.619  10.820   8.917 -0.3379 -0.2090  0.3030
  841MOL0     H13496   7.444  10.918   8.818 -0.1247  1.4340 -0.4567
  841MOL0     H13497   7.346  10.820   8.708  0.2470 -0.2257  0.7796
  841MOL0     H13498   7.304  10.829   8.877  0.2366 -0.3942 -0.5592
  841MOL0     H13499   7.025  10.792   8.775 -1.1844  0.9809 -3.9128
  841MOL0     H13500   6.775  10.787   8.781 -1.9792 -0.9228  1.9489
  841MOL0     H13501   6.618  10.385   8.749 -0.7391 -1.2233 -0.3490
  841MOL0     H13502   6.559  10.432   8.914 -0.1519  0.9845 -0.2762
  841MOL0     H13503   6.435  10.526   8.662  1.1209  0.0168  0.0537
  841MOL0     H13504   6.371  10.388   8.757  1.2498 -1.2233  1.8594
  841MOL0     H13505   6.246  10.598   8.815 -0.7975 -1.5762  1.8037
  841MOL0     H13506   6.395  10.671   8.881  0.8116 -0.4078 -0.1152
  841MOL0     H13507   6.280  10.414   8.998  0.1896 -0.5016 -3.2784
  841MOL0     H13508   6.418  10.522   9.051 -0.0018 -2.9181 -0.3221
  841MOL0     H13509   6.229  10.710   9.032  0.1607 -0.8644 -0.5188
  841MOL0     H13510   6.256  10.635   9.181 -0.0681  3.9589 -0.0452
  841MOL0     H13511   6.038  10.583   8.992 -2.2484 -0.2104  0.9002
  841MOL0     H13512   6.095  10.440   9.089  0.5831  0.9406 -0.9308
  841MOL0     H13513   5.958  10.701   9.176  2.8576  1.0999  0.2937
  841MOL0     H13514   6.038  10.597   9.294  1.0588 -0.8806 -1.5550
  841MOL0     H13515   5.816  10.561   9.303  1.8667  1.7019  0.6348
  841MOL0     H13516   5.886  10.412   9.242 -1.7570 -1.2654 -3.6295
  841MOL0     H13517   6.828  10.354   8.855  0.4915  0.4223  0.8177
  841MOL0     H13518   7.063  10.385   8.829 -0.8771 -1.3823 -0.3147
  841MOL0     H13519   7.471  10.360   8.839  1.6799 -1.2359 -1.9145
  841MOL0     H13520   7.702  10.401   8.941  0.3606  0.2300 -2.4624
  841MOL0     H13521   9.294  10.179   8.263 -0.8613  2.3903  1.7740
  841MOL0     H13522   9.546  10.228   8.274  3.7016 -0.8649  2.3652
  841MOL0     H13523   9.909  10.128   8.410 -0.7526  0.5150 -1.8818
  841MOL0     H13524  10.151  10.215   8.346  0.0798 -0.1619 -0.5324
  841MOL0     H13525  10.382  10.564   8.340 -0.3129  1.7815  0.7229
  841MOL0     H13526  10.219  10.618   8.381  0.7249  0.5035 -0.0903
  841MOL0     H13527  10.274  10.613   8.623 -2.4949  2.4144 -1.9054
  841MOL0     H13528  10.377  10.715   8.527  0.5243  0.3713  0.7563
  841MOL0     H13529  10.564  10.523   8.527 -0.2615 -2.0037 -0.6004
  841MOL0     H13530  10.444  10.430   8.591 -0.8832  0.6556  1.9647
  841MOL0     H13531  10.640  10.487   8.729  0.7312 -0.7435 -0.1792
  841MOL0     H13532  10.489  10.537   8.811 -1.4232 -2.1288 -2.3367
  841MOL0     H13533  10.643  10.914   8.729 -2.6052  1.3284  1.8519
  841MOL0     H13534  10.068  10.576   8.545  2.4842 -0.5184  0.3285
  841MOL0     H13535   9.838  10.530   8.557  1.1893 -1.3273  0.8479
  842MOL0     O13536   3.666   9.759   8.525  0.2385 -0.1346 -0.3833
  842MOL0     C13537   3.679   9.793   8.409  0.7940  1.0074  0.1743
  842MOL0     O13538   3.573   9.823   8.321  0.3367 -0.4654 -0.7619
  842MOL0     C13539   3.445   9.806   8.365  0.9466 -0.6608 -0.8698
  842MOL0     C13540   3.392   9.684   8.393 -0.0847 -0.5688  0.8282
  842MOL0     C13541   3.260   9.668   8.437 -0.2419  0.1681 -0.7769
  842MOL0     C13542   3.172   9.775   8.451 -0.0114 -0.7184  0.3938
  842MOL0     O13543   3.044   9.763   8.492 -0.1438  0.6771  0.8420
  842MOL0     C13544   2.945   9.867   8.464 -0.8376  0.3329  0.2131
  842MOL0     C13545   2.813   9.815   8.510  0.4132 -0.2048 -0.0783
  842MOL0     C13546   2.714   9.930   8.532 -0.3079  0.5772 -0.4275
  842MOL0     C13547   2.650   9.992   8.412 -0.9092 -0.0209 -0.0085
  842MOL0     C13548   2.533   9.904   8.347 -0.6246  0.2652  0.0920
  842MOL0     C13549   2.411   9.911   8.441 -0.1264  0.0892  0.3379
  842MOL0     C13550   2.289   9.817   8.429 -0.8285 -0.2126  0.4394
  842MOL0     C13551   2.200   9.857   8.307  0.3084 -0.9825  0.3081
  842MOL0     N13552   2.081   9.766   8.293 -0.5018 -0.1494  0.5997
  842MOL0     C13553   1.992   9.761   8.185  0.5778  0.3372 -0.5434
  842MOL0     C13554   1.906   9.660   8.224 -0.2819  0.0507  0.6481
  842MOL0     C13555   1.792   9.617   8.146  0.0167  0.1809 -0.1367
  842MOL0     C13556   1.827   9.519   8.027  0.0860  1.1711 -0.6695
  842MOL0     C13557   1.864   9.374   8.086  0.5008  0.5351  0.9016
  842MOL0     C13558   1.978   9.322   8.002  0.4659  0.6162 -0.6451
  842MOL0     O13559   1.932   9.343   7.868 -0.8409  0.2160  0.2307
  842MOL0     C13560   2.029   9.320   7.776 -0.6444  1.0460 -1.2761
  842MOL0     C13561   2.060   9.191   7.753  0.3265 -0.5053  1.0236
  842MOL0     C13562   2.169   9.165   7.663  0.0014 -0.1186  0.7492
  842MOL0     C13563   2.186   9.025   7.627  0.1673  0.8904  0.7255
  842MOL0     C13564   2.249   9.265   7.609  0.4726 -0.7149  0.6859
  842MOL0     C13565   2.361   9.243   7.513 -0.3486  0.0009  1.3171
  842MOL0     O13566   2.415   9.359   7.452 -0.0942 -0.2438  0.5279
  842MOL0     C13567   2.527   9.356   7.380  0.2906  0.6006  0.6676
  842MOL0     C13568   2.521   9.423   7.257  0.2364 -0.0314  0.1725
  842MOL0     C13569   2.635   9.454   7.188  0.1845 -0.1645 -0.2295
  842MOL0     C13570   2.762   9.416   7.226  0.4172  0.4711 -0.6052
  842MOL0     O13571   2.860   9.437   7.129 -1.1038  0.6436 -0.0831
  842MOL0     C13572   3.004   9.438   7.172 -1.4746 -0.3088 -1.3634
  842MOL0     C13573   3.049   9.288   7.173 -0.3888 -0.3403  0.4787
  842MOL0     C13574   3.199   9.285   7.202  0.0744 -0.5054 -0.2262
  842MOL0     C13575   3.241   9.363   7.331 -0.2089  0.6045 -0.6860
  842MOL0     C13576   3.362   9.315   7.391  0.1844  0.4006 -0.9357
  842MOL0     C13577   3.481   9.328   7.288  0.2851 -0.0719  0.1415
  842MOL0     C13578   3.615   9.337   7.356  0.4091 -0.2115  0.4244
  842MOL0     C13579   3.737   9.322   7.258  0.7954  0.9892 -0.1864
  842MOL0    Cl13580   3.884   9.337   7.352 -0.2738  0.3772  0.1848
  842MOL0     C13581   2.771   9.342   7.346 -0.4378  0.0229 -0.4956
  842MOL0     C13582   2.650   9.316   7.425  0.8745  0.3684  0.4827
  842MOL0     O13583   2.412   9.127   7.499 -0.0704  0.0436 -0.3076
  842MOL0     C13584   2.211   9.397   7.645 -0.6708 -0.5828 -0.2951
  842MOL0     C13585   2.094   9.427   7.721  0.5999  0.1384 -0.1293
  842MOL0     N13586   1.949   9.610   8.349 -0.0277  0.0773 -0.0897
  842MOL0     N13587   2.054   9.670   8.387  0.3943  0.8552  0.5964
  842MOL0     C13588   3.233   9.897   8.418 -0.3421 -0.8354 -0.1124
  842MOL0     C13589   3.361   9.915   8.369  0.9061  0.3845 -0.1425
  842MOL0     C13590   3.815   9.805   8.353  0.6747  0.1966  0.1486
  842MOL0     C13591   3.917   9.723   8.393  0.5370  0.4344 -0.2500
  842MOL0     C13592   4.048   9.735   8.341 -0.0074 -0.1557  0.1048
  842MOL0     C13593   4.082   9.842   8.252  0.1486 -0.2109 -0.3306
  842MOL0     O13594   4.207   9.869   8.220  0.0944 -0.1344  0.6716
  842MOL0     C13595   4.311   9.773   8.222  0.6797  0.3241 -0.1489
  842MOL0     C13596   4.307   9.690   8.090  0.6866  0.6676 -0.4602
  842MOL0     C13597   4.443   9.623   8.057  1.3202 -0.0703  0.3551
  842MOL0     C13598   4.459   9.577   7.909 -0.0984  0.0026  1.0106
  842MOL0     C13599   4.582   9.509   7.898 -0.6321  0.1426 -0.2614
  842MOL0     C13600   4.694   9.452   7.892 -0.4825  0.0477 -0.7953
  842MOL0     C13601   3.970   9.926   8.206  0.0762 -0.6017  0.4118
  842MOL0     C13602   3.843   9.910   8.263  0.8128  0.0028  0.2742
  842MOL0     H13603   3.443   9.589   8.393 -0.8212 -0.9852 -0.3183
  842MOL0     H13604   3.221   9.570   8.461 -0.2939 -0.9224 -4.6777
  842MOL0     H13605   2.979   9.954   8.521  1.3182  1.8344 -3.0789
  842MOL0     H13606   2.924   9.888   8.359 -0.5101 -4.5460 -1.0752
  842MOL0     H13607   2.762   9.743   8.446 -1.2481 -0.8099  1.8478
  842MOL0     H13608   2.831   9.766   8.606 -1.0325  0.4851  0.5701
  842MOL0     H13609   2.644   9.895   8.608  0.5260 -3.5305 -1.3278
  842MOL0     H13610   2.770  10.012   8.579 -1.6617  0.9445  0.6163
  842MOL0     H13611   2.607  10.087   8.445 -1.2746  0.4161 -1.6207
  842MOL0     H13612   2.727  10.003   8.335  0.4587 -0.9945  1.1886
  842MOL0     H13613   2.511   9.950   8.250 -0.5638  0.9714  0.4054
  842MOL0     H13614   2.570   9.802   8.338 -0.1747  0.4619 -0.3355
  842MOL0     H13615   2.453   9.892   8.540  1.9849 -0.8223 -0.6772
  842MOL0     H13616   2.371  10.012   8.451 -0.1913  0.1254 -0.2309
  842MOL0     H13617   2.315   9.711   8.423 -2.1988 -0.5337 -0.2966
  842MOL0     H13618   2.238   9.835   8.524  0.5225  0.5465  1.0583
  842MOL0     H13619   2.250   9.857   8.210 -1.0472  0.9576 -0.4615
  842MOL0     H13620   2.156   9.957   8.310 -1.5678 -1.6719 -1.6412
  842MOL0     H13621   1.992   9.811   8.089  3.2290  1.9552  0.1849
  842MOL0     H13622   1.699   9.578   8.190 -0.1365  1.7312  0.9927
  842MOL0     H13623   1.761   9.709   8.096  3.0861  0.9132 -0.8814
  842MOL0     H13624   1.903   9.561   7.960  0.5987 -0.2014 -0.9883
  842MOL0     H13625   1.734   9.497   7.974  2.1748 -2.2984 -3.3254
  842MOL0     H13626   1.773   9.312   8.083 -1.0221  2.6626 -1.1848
  842MOL0     H13627   1.886   9.381   8.193 -1.6992  1.9600  1.3361
  842MOL0     H13628   1.994   9.215   8.018 -1.0074  0.6594  1.5057
  842MOL0     H13629   2.071   9.375   8.025  1.4739 -1.5387  0.5827
  842MOL0     H13630   2.002   9.108   7.792 -3.0329 -0.4098 -3.0867
  842MOL0     H13631   2.204   9.012   7.520 -1.0590  2.9472  0.2030
  842MOL0     H13632   2.271   8.979   7.677  0.9632  0.5974 -0.8279
  842MOL0     H13633   2.092   8.974   7.651  0.8711 -1.7314 -1.5392
  842MOL0     H13634   2.426   9.469   7.233  0.4409  1.0452  1.2649
  842MOL0     H13635   2.627   9.509   7.094 -3.1171  3.6265  1.9894
  842MOL0     H13636   3.076   9.494   7.111  2.5493 -2.9264  0.5705
  842MOL0     H13637   3.014   9.484   7.271 -0.5611 -0.7216 -1.2510
  842MOL0     H13638   3.000   9.232   7.254  0.3966  1.3697  2.2352
  842MOL0     H13639   3.037   9.252   7.071  0.8334  1.1872 -0.2506
  842MOL0     H13640   3.252   9.349   7.130  1.4894  1.6265  2.4939
  842MOL0     H13641   3.240   9.184   7.192  0.1689 -0.4745 -0.1637
  842MOL0     H13642   3.241   9.471   7.316  0.1765  0.4168 -2.2245
  842MOL0     H13643   3.155   9.352   7.398 -0.2938  1.0136 -0.7276
  842MOL0     H13644   3.346   9.209   7.411  2.2934  0.0007 -1.1395
  842MOL0     H13645   3.387   9.360   7.487  1.1718  2.7349 -2.1824
  842MOL0     H13646   3.502   9.244   7.222 -0.2907 -0.5899  0.6131
  842MOL0     H13647   3.466   9.421   7.233  0.1566  2.8027  4.4694
  842MOL0     H13648   3.613   9.270   7.443 -4.2387  0.7882  1.3650
  842MOL0     H13649   3.627   9.434   7.405  1.0269 -0.4619  0.7786
  842MOL0     H13650   3.721   9.409   7.193 -1.9697  0.2306 -0.6737
  842MOL0     H13651   3.737   9.237   7.189 -0.7256 -0.3690  1.4021
  842MOL0     H13652   2.866   9.299   7.376 -0.0764  0.7696 -0.5502
  842MOL0     H13653   2.666   9.263   7.519 -0.6698 -0.4924  0.2846
  842MOL0     H13654   2.271   9.476   7.602  2.1453 -2.2128  0.4124
  842MOL0     H13655   2.065   9.525   7.756  3.0434 -0.2881  3.6012
  842MOL0     H13656   3.177   9.989   8.429 -2.1813 -1.9647  0.3326
  842MOL0     H13657   3.389  10.014   8.335  1.0374  0.4801  0.2404
  842MOL0     H13658   3.900   9.651   8.472  3.9695  0.1084  0.3229
  842MOL0     H13659   4.132   9.673   8.371  2.0069  1.1347 -2.5086
  842MOL0     H13660   4.407   9.824   8.219 -0.0594  1.8029  0.4167
  842MOL0     H13661   4.311   9.707   8.310 -0.5455  2.1717  1.3047
  842MOL0     H13662   4.275   9.757   8.009 -0.6543  0.3994 -0.1784
  842MOL0     H13663   4.232   9.611   8.096  1.1153  0.2166 -0.9343
  842MOL0     H13664   4.468   9.548   8.134 -0.8987  0.0428  1.2564
  842MOL0     H13665   4.518   9.702   8.066  0.7502  0.5685 -0.4153
  842MOL0     H13666   4.463   9.654   7.832 -1.7853 -0.2758  0.6192
  842MOL0     H13667   4.381   9.508   7.875  2.1948 -2.8876  1.1194
  842MOL0     H13668   4.788   9.402   7.881  0.4329  1.0428  1.7223
  842MOL0     H13669   3.992  10.001   8.131 -1.8987 -1.5196 -1.1935
  842MOL0     H13670   3.765   9.978   8.231  0.6077 -0.7073 -0.7589
  843MOL0     O13671   1.488   7.670   3.407  0.1032 -0.4712 -0.1858
  843MOL0     C13672   1.576   7.722   3.473 -0.2076  0.6631 -0.5336
  843MOL0     O13673   1.572   7.853   3.525 -0.6589 -0.5818 -0.5426
  843MOL0     C13674   1.461   7.929   3.489 -0.5121 -0.4972 -0.0176
  843MOL0     C13675   1.443   8.002   3.372 -0.1411  0.6111  0.6154
  843MOL0     C13676   1.334   8.091   3.358  0.3937  0.7644  1.2092
  843MOL0     C13677   1.239   8.104   3.453 -0.2408  0.2048  0.1400
  843MOL0     O13678   1.141   8.202   3.444 -0.6183  0.8380  0.1431
  843MOL0     C13679   1.178   8.324   3.378 -0.3527 -0.3941 -0.2310
  843MOL0     C13680   1.082   8.443   3.413  0.6408 -0.3120  1.3484
  843MOL0     C13681   0.934   8.404   3.390  0.0631 -0.7787 -0.7545
  843MOL0     C13682   0.849   8.529   3.408 -0.5619  0.2520 -0.3382
  843MOL0     C13683   0.863   8.593   3.542  0.1034  0.2591 -0.0121
  843MOL0     C13684   0.752   8.699   3.547  0.1244 -0.6728 -0.5237
  843MOL0     C13685   0.769   8.790   3.660  0.5346 -1.3598 -0.7889
  843MOL0     C13686   0.744   8.730   3.804  0.2093  1.5109 -0.3194
  843MOL0     N13687   0.733   8.825   3.917  0.7081  0.0184  0.1159
  843MOL0     C13688   0.794   8.825   4.038  0.0618  0.0768 -0.0672
  843MOL0     C13689   0.751   8.933   4.101  0.2269  0.4503 -0.6878
  843MOL0     C13690   0.796   8.958   4.245  0.7552 -0.3534  0.4742
  843MOL0     C13691   0.814   8.833   4.327  0.3672 -1.0974 -0.0340
  843MOL0     C13692   0.836   8.868   4.484 -0.0033  0.5115 -0.5148
  843MOL0     C13693   0.715   8.935   4.546  0.1169 -0.1246 -0.6963
  843MOL0     O13694   0.714   9.075   4.531  0.3543 -0.4059  0.5834
  843MOL0     C13695   0.620   9.149   4.597 -0.0502 -0.1070 -0.0329
  843MOL0     C13696   0.505   9.091   4.650  0.6261  0.5111  0.8448
  843MOL0     C13697   0.409   9.168   4.710  0.5917 -0.9179  0.3219
  843MOL0     C13698   0.282   9.100   4.754 -0.0590  0.3688 -0.6940
  843MOL0     C13699   0.434   9.308   4.733 -0.9296  0.0344 -0.6484
  843MOL0     C13700   0.330   9.400   4.797 -0.0760 -0.3804  0.2484
  843MOL0     O13701   0.196   9.379   4.800 -0.1405  0.5256  0.3760
  843MOL0     C13702   0.112   9.452   4.879 -0.5699 -0.2900 -0.8051
  843MOL0     C13703   0.009   9.523   4.819  0.1904 -0.0380 -0.2770
  843MOL0     C13704  -0.079   9.597   4.900 -0.6424  0.4865  0.6295
  843MOL0     C13705  -0.070   9.607   5.033  0.5262 -0.5539 -0.0851
  843MOL0     O13706  -0.160   9.667   5.119  0.3299 -1.1273 -0.0046
  843MOL0     C13707  -0.293   9.635   5.084 -0.3134  0.9094  0.1906
  843MOL0     C13708  -0.380   9.648   5.215  0.2170 -0.3444 -0.0497
  843MOL0     C13709  -0.523   9.620   5.186 -0.5421  0.1359  0.0945
  843MOL0     C13710  -0.594   9.577   5.308  0.4795 -0.1725 -0.1759
  843MOL0     C13711  -0.741   9.583   5.256 -0.9734 -0.6965 -0.3077
  843MOL0     C13712  -0.843   9.534   5.353  0.2626 -0.4614  1.0049
  843MOL0     C13713  -0.988   9.582   5.321 -0.6168  0.3937  1.0350
  843MOL0     C13714  -1.030   9.541   5.176 -0.7693 -0.3893  0.1485
  843MOL0    Cl13715  -1.200   9.611   5.152  0.0906  0.1496 -0.0576
  843MOL0     C13716   0.041   9.544   5.094 -0.2422 -0.3283  0.5647
  843MOL0     C13717   0.128   9.460   5.019  0.3430  0.3399  0.6422
  843MOL0     O13718   0.382   9.499   4.847 -0.3328  0.3428 -0.8624
  843MOL0     C13719   0.558   9.363   4.695  0.0730 -0.0563  0.7726
  843MOL0     C13720   0.647   9.281   4.623  0.5302 -0.8947  0.3012
  843MOL0     N13721   0.670   8.999   4.018 -0.2158 -0.5620  0.8335
  843MOL0     N13722   0.658   8.935   3.909  0.5084 -0.1896 -0.0672
  843MOL0     C13723   1.240   8.019   3.560 -0.0578 -0.0909 -0.3913
  843MOL0     C13724   1.355   7.938   3.581  0.4031  0.4489 -0.4088
  843MOL0     C13725   1.689   7.644   3.526  0.4920 -0.2875  0.3502
  843MOL0     C13726   1.763   7.680   3.638  0.8434  0.3251  0.1099
  843MOL0     C13727   1.886   7.614   3.670 -0.3507  0.4627  0.3813
  843MOL0     C13728   1.928   7.492   3.612  0.1960  0.2608 -1.4166
  843MOL0     O13729   2.030   7.406   3.650 -0.2494  0.3379 -0.2559
  843MOL0     C13730   2.089   7.419   3.784 -0.4976 -0.4515  0.6049
  843MOL0     C13731   2.203   7.520   3.759 -0.3830 -0.5145 -0.4765
  843MOL0     C13732   2.287   7.530   3.889  0.1380  0.9209  0.2065
  843MOL0     C13733   2.236   7.629   3.992  0.5102 -1.2960 -0.0941
  843MOL0     C13734   2.271   7.774   3.961  0.7696 -0.5923  0.2958
  843MOL0     C13735   2.298   7.892   3.944  0.2256  0.6191  0.0290
  843MOL0     C13736   1.855   7.459   3.495  0.0782 -0.2927  0.3988
  843MOL0     C13737   1.746   7.539   3.450 -0.1650  0.2492  0.1546
  843MOL0     H13738   1.523   8.007   3.298  1.1125 -0.1173  1.8799
  843MOL0     H13739   1.339   8.163   3.277 -0.0573  0.1659  0.6462
  843MOL0     H13740   1.279   8.361   3.399 -0.8110  0.5592  0.3617
  843MOL0     H13741   1.172   8.300   3.272  2.4718 -0.4398 -0.4747
  843MOL0     H13742   1.106   8.465   3.517 -0.2917  0.6535  1.3744
  843MOL0     H13743   1.111   8.536   3.364 -0.3812  0.6532  2.5105
  843MOL0     H13744   0.922   8.361   3.290 -1.4353 -1.4557 -0.3110
  843MOL0     H13745   0.900   8.334   3.467 -2.1185  0.6626 -0.3365
  843MOL0     H13746   0.874   8.593   3.324  1.1862  1.0689  0.7453
  843MOL0     H13747   0.748   8.485   3.405  0.0791 -1.4439  1.0435
  843MOL0     H13748   0.866   8.535   3.634  2.2506  1.3002  0.6430
  843MOL0     H13749   0.954   8.652   3.527 -0.5380  0.9707 -1.2564
  843MOL0     H13750   0.766   8.754   3.454 -1.7645  1.0174  0.1154
  843MOL0     H13751   0.648   8.664   3.537 -0.0372 -0.1761 -0.5973
  843MOL0     H13752   0.863   8.846   3.657  0.4202 -1.0798  0.2768
  843MOL0     H13753   0.698   8.872   3.642  0.7299 -1.1166 -0.4729
  843MOL0     H13754   0.819   8.656   3.832 -1.4645 -0.3228 -0.4515
  843MOL0     H13755   0.649   8.674   3.803  0.7689  0.1872  3.6749
  843MOL0     H13756   0.856   8.744   4.074  1.1569  1.3848  1.1277
  843MOL0     H13757   0.892   9.010   4.247 -0.0588  1.1818  2.3212
  843MOL0     H13758   0.722   9.023   4.292  2.7136 -0.6813  4.4610
  843MOL0     H13759   0.901   8.784   4.282 -0.2883 -2.4143  0.0861
  843MOL0     H13760   0.734   8.759   4.317 -0.2106 -0.6451  1.0208
  843MOL0     H13761   0.935   8.913   4.491 -0.1253  0.8883 -1.1499
  843MOL0     H13762   0.851   8.774   4.536 -0.9463  0.3472 -0.5138
  843MOL0     H13763   0.717   8.911   4.653 -2.1419 -1.2770 -0.8438
  843MOL0     H13764   0.625   8.893   4.500  0.0071 -2.7579  1.6442
  843MOL0     H13765   0.478   8.988   4.632 -2.7572  1.2511  0.8449
  843MOL0     H13766   0.199   9.113   4.684  0.4183 -3.3819 -2.1559
  843MOL0     H13767   0.311   8.995   4.760  0.7795  0.6297  0.1128
  843MOL0     H13768   0.250   9.145   4.849  0.8637  0.9501 -0.6442
  843MOL0     H13769  -0.003   9.523   4.711  0.2543 -0.5887 -0.2852
  843MOL0     H13770  -0.152   9.663   4.854 -0.8817  1.7662  2.6879
  843MOL0     H13771  -0.337   9.700   5.007  0.4795 -0.1520 -1.2086
  843MOL0     H13772  -0.310   9.538   5.036 -2.4807  0.6934  1.2652
  843MOL0     H13773  -0.338   9.578   5.288  1.1025 -1.0446 -1.2025
  843MOL0     H13774  -0.370   9.751   5.250 -1.3742  0.0069 -0.5434
  843MOL0     H13775  -0.526   9.541   5.110  0.5976  0.7719 -0.6379
  843MOL0     H13776  -0.563   9.710   5.139  0.7436  0.1868 -0.9558
  843MOL0     H13777  -0.567   9.482   5.353 -2.7382 -0.4740  1.4019
  843MOL0     H13778  -0.594   9.644   5.395  0.2710 -1.5850  0.9355
  843MOL0     H13779  -0.745   9.535   5.158 -1.3479  1.8919 -1.6413
  843MOL0     H13780  -0.766   9.689   5.250 -0.8188 -0.6439 -0.0657
  843MOL0     H13781  -0.841   9.425   5.368 -1.5256 -0.5788  0.6683
  843MOL0     H13782  -0.825   9.581   5.450  0.5326  2.1303 -0.2298
  843MOL0     H13783  -0.993   9.691   5.332 -0.1497  0.3561  1.6742
  843MOL0     H13784  -1.070   9.561   5.389 -0.5926  2.4875  1.7900
  843MOL0     H13785  -1.035   9.433   5.163 -2.1332 -0.2220 -0.9434
  843MOL0     H13786  -0.966   9.578   5.096 -0.9703  0.1165  0.2121
  843MOL0     H13787   0.053   9.555   5.202  1.1022  1.1967  0.2823
  843MOL0     H13788   0.208   9.398   5.059 -0.9131 -1.5750  0.3554
  843MOL0     H13789   0.597   9.462   4.718  1.7419 -0.3524 -0.5961
  843MOL0     H13790   0.740   9.324   4.587  0.9290  0.2397  2.5059
  843MOL0     H13791   1.167   8.045   3.636  0.3652  2.4022 -0.7449
  843MOL0     H13792   1.364   7.884   3.674  1.6692  1.5359  0.1232
  843MOL0     H13793   1.732   7.765   3.699 -0.8153  0.3876 -0.7629
  843MOL0     H13794   1.944   7.662   3.748  1.6393 -1.0542 -0.0725
  843MOL0     H13795   2.016   7.464   3.853 -0.1815  1.1870 -0.0681
  843MOL0     H13796   2.121   7.317   3.803  1.2513  0.1597  1.0928
  843MOL0     H13797   2.166   7.618   3.727  2.2377  0.7629  0.1492
  843MOL0     H13798   2.272   7.488   3.680  1.9666  2.2234  0.3218
  843MOL0     H13799   2.381   7.564   3.845 -0.3556 -0.2068 -1.9011
  843MOL0     H13800   2.290   7.434   3.940 -3.6948  1.3528  1.6136
  843MOL0     H13801   2.276   7.590   4.087 -2.7603 -0.4262  1.7961
  843MOL0     H13802   2.126   7.629   3.997  0.4132  0.4084 -1.5689
  843MOL0     H13803   2.315   7.997   3.936 -1.3575  0.9559  0.7274
  843MOL0     H13804   1.895   7.382   3.431 -3.0124 -1.1372 -0.7211
  843MOL0     H13805   1.693   7.516   3.359  0.4374  0.0235 -0.1396
  844MOL0     O13806   1.031   3.068   5.395 -0.1773 -0.3732  0.0615
  844MOL0     C13807   1.041   3.125   5.291  0.3457  0.2406  0.8711
  844MOL0     O13808   0.981   3.238   5.264  0.0148  0.3409  0.4216
  844MOL0     C13809   0.888   3.294   5.348  0.1522  0.2164  0.4124
  844MOL0     C13810   0.753   3.247   5.350 -0.3623 -0.7485 -0.4275
  844MOL0     C13811   0.656   3.296   5.434 -0.3807  0.4879 -1.0786
  844MOL0     C13812   0.694   3.409   5.515 -0.0251  0.7081 -0.0870
  844MOL0     O13813   0.611   3.473   5.612  0.1433  0.1259 -0.9635
  844MOL0     C13814   0.473   3.467   5.574 -0.6763  0.1670  0.4596
  844MOL0     C13815   0.404   3.567   5.665 -0.1522 -0.1607 -0.2149
  844MOL0     C13816   0.320   3.515   5.786 -0.0985  0.9693 -0.3010
  844MOL0     C13817   0.410   3.430   5.881  0.2726 -1.2977 -0.5088
  844MOL0     C13818   0.338   3.372   5.999  0.1337 -0.0256  0.4077
  844MOL0     C13819   0.376   3.426   6.135 -0.0534 -0.1537  1.2193
  844MOL0     C13820   0.305   3.354   6.249  0.3129 -0.3358  0.0802
  844MOL0     C13821   0.345   3.405   6.392  0.2161  0.2469  0.2660
  844MOL0     N13822   0.304   3.549   6.430 -0.0011  1.0441  0.1843
  844MOL0     C13823   0.218   3.628   6.357  0.1438  0.2504 -0.0133
  844MOL0     C13824   0.222   3.744   6.423 -0.1145  0.4862 -0.3232
  844MOL0     C13825   0.143   3.875   6.391 -0.7302 -1.2359 -0.0355
  844MOL0     C13826   0.024   3.917   6.468  0.2638 -0.2227  0.7165
  844MOL0     C13827  -0.001   4.076   6.463  0.1797  0.8128  0.4167
  844MOL0     C13828  -0.135   4.099   6.537  0.2276  0.0546 -0.8733
  844MOL0     O13829  -0.156   4.241   6.556 -0.5383  0.5167 -0.3990
  844MOL0     C13830  -0.263   4.273   6.636 -0.7350 -0.5292  0.4385
  844MOL0     C13831  -0.254   4.272   6.775 -0.4101  0.2699  0.5114
  844MOL0     C13832  -0.356   4.321   6.858  0.3433 -0.9490  0.2888
  844MOL0     C13833  -0.315   4.308   7.004 -0.5909 -0.9640 -0.7132
  844MOL0     C13834  -0.480   4.361   6.793  0.3930  0.2574  0.2897
  844MOL0     C13835  -0.593   4.420   6.864  0.2550  0.4495  0.1674
  844MOL0     O13836  -0.688   4.485   6.786 -0.0548 -0.9275 -0.2963
  844MOL0     C13837  -0.812   4.519   6.849 -0.4848 -0.7822 -0.4161
  844MOL0     C13838  -0.923   4.446   6.811 -1.1295 -0.4281  0.1127
  844MOL0     C13839  -1.047   4.484   6.850 -0.2510 -0.0658 -0.6138
  844MOL0     C13840  -1.074   4.588   6.943  0.0277  0.3213 -0.0073
  844MOL0     O13841  -1.201   4.629   6.983  0.2233  0.1542 -0.9178
  844MOL0     C13842  -1.300   4.625   6.875  0.2354 -0.4235  0.6207
  844MOL0     C13843  -1.433   4.672   6.932 -0.3727  0.1731 -0.1083
  844MOL0     C13844  -1.435   4.816   6.981 -0.3878 -0.0666 -0.3988
  844MOL0     C13845  -1.565   4.828   7.054 -0.2743 -0.3278 -0.0533
  844MOL0     C13846  -1.579   4.979   7.105 -0.2074  0.1134  1.1608
  844MOL0     C13847  -1.721   5.008   7.166  0.5790 -0.1411 -0.5473
  844MOL0     C13848  -1.747   5.143   7.232  0.8631 -0.0356 -0.4044
  844MOL0     C13849  -1.892   5.148   7.267  1.0216  0.3132 -0.0579
  844MOL0    Cl13850  -1.906   5.271   7.404 -0.3393 -0.4478  0.2734
  844MOL0     C13851  -0.959   4.661   6.977  0.0303 -0.1223 -0.1842
  844MOL0     C13852  -0.837   4.631   6.935 -0.2247  0.0230  0.2427
  844MOL0     O13853  -0.597   4.418   6.989 -0.4539  0.7665  0.7773
  844MOL0     C13854  -0.481   4.356   6.652 -0.3527  0.5621  0.0381
  844MOL0     C13855  -0.377   4.326   6.575 -0.0581  0.3264 -0.3226
  844MOL0     N13856   0.309   3.729   6.532 -0.0341  0.2308 -0.1445
  844MOL0     N13857   0.354   3.611   6.536 -0.4844 -0.5033 -0.1603
  844MOL0     C13858   0.821   3.461   5.516  0.4330  0.5703 -0.5855
  844MOL0     C13859   0.916   3.407   5.430  0.0667 -0.3077 -0.6254
  844MOL0     C13860   1.152   3.090   5.190 -0.4468  0.0128  0.1875
  844MOL0     C13861   1.252   2.993   5.217 -0.1979 -0.4273 -0.3231
  844MOL0     C13862   1.356   2.958   5.127 -0.6703 -0.1403 -1.4174
  844MOL0     C13863   1.374   3.044   5.018  0.9015  0.9764  1.3212
  844MOL0     O13864   1.492   3.043   4.941  0.5205  0.1692  0.1108
  844MOL0     C13865   1.581   2.935   4.957  0.0311  1.0224 -0.5447
  844MOL0     C13866   1.704   2.958   4.862  0.4227  0.4596 -0.3018
  844MOL0     C13867   1.808   2.850   4.900 -0.3307  0.2612  0.2923
  844MOL0     C13868   1.928   2.858   4.807 -0.0622  0.3499  0.4780
  844MOL0     C13869   2.066   2.841   4.860 -1.0807 -0.4275  0.7305
  844MOL0     C13870   2.169   2.844   4.922  0.9293 -1.2203 -0.5385
  844MOL0     C13871   1.273   3.132   4.983 -0.2491  0.4457  0.8217
  844MOL0     C13872   1.162   3.157   5.068 -0.7435 -0.2297 -0.3324
  844MOL0     H13873   0.724   3.170   5.279  0.1037 -0.7120 -0.6649
  844MOL0     H13874   0.563   3.240   5.428 -1.8705  2.8067 -0.6301
  844MOL0     H13875   0.476   3.505   5.471  1.7449 -1.1535 -0.0510
  844MOL0     H13876   0.435   3.365   5.582  0.0621 -0.1692 -0.1052
  844MOL0     H13877   0.469   3.639   5.715 -1.7509 -0.6316  2.7542
  844MOL0     H13878   0.324   3.621   5.614 -1.6355  0.0012  2.1071
  844MOL0     H13879   0.285   3.598   5.847  1.1858  0.3405  1.3784
  844MOL0     H13880   0.237   3.458   5.744  2.0314 -1.5380 -1.4349
  844MOL0     H13881   0.459   3.346   5.831 -1.9830 -3.5895  0.9006
  844MOL0     H13882   0.487   3.494   5.926  0.5738 -0.6888 -1.8453
  844MOL0     H13883   0.229   3.380   5.992 -0.0090  1.5876  3.2629
  844MOL0     H13884   0.365   3.266   5.991 -1.3352 -0.3019 -2.0602
  844MOL0     H13885   0.485   3.412   6.143  0.1024  0.1268 -0.1719
  844MOL0     H13886   0.344   3.531   6.137 -2.7991 -0.7894 -1.7533
  844MOL0     H13887   0.197   3.362   6.230 -0.0404  1.4306  2.4585
  844MOL0     H13888   0.318   3.246   6.242  0.5614 -0.5222  2.6642
  844MOL0     H13889   0.453   3.391   6.404  0.2885 -0.9999 -1.4059
  844MOL0     H13890   0.292   3.338   6.461 -0.9254 -1.2879 -1.9538
  844MOL0     H13891   0.160   3.591   6.273  1.5145 -3.5761  0.5336
  844MOL0     H13892   0.211   3.960   6.403 -3.5735  1.1760  0.4307
  844MOL0     H13893   0.124   3.887   6.284 -0.1407  0.4760  0.0150
  844MOL0     H13894   0.049   3.894   6.572 -0.2922  0.1424  0.9346
  844MOL0     H13895  -0.055   3.856   6.424  2.1807 -0.7729 -2.2657
  844MOL0     H13896  -0.008   4.109   6.359 -3.2691 -0.8337 -0.0384
  844MOL0     H13897   0.080   4.128   6.515 -0.9731  0.4274  2.7413
  844MOL0     H13898  -0.121   4.062   6.639  0.9626 -0.7457 -1.2552
  844MOL0     H13899  -0.226   4.056   6.494 -0.0717  1.7990 -2.1153
  844MOL0     H13900  -0.162   4.225   6.807  0.1426  0.4114 -0.8337
  844MOL0     H13901  -0.208   4.289   7.013 -0.1138  1.9172  1.2771
  844MOL0     H13902  -0.352   4.402   7.047 -3.7604 -0.3330 -4.2213
  844MOL0     H13903  -0.375   4.226   7.043  0.3459 -1.0174  0.7065
  844MOL0     H13904  -0.920   4.365   6.739 -2.3504 -2.0405  1.7837
  844MOL0     H13905  -1.128   4.437   6.796  0.7746 -1.1675 -1.2567
  844MOL0     H13906  -1.265   4.689   6.793  1.1594 -2.6081 -0.7678
  844MOL0     H13907  -1.312   4.521   6.845 -0.4130 -1.3779  3.7620
  844MOL0     H13908  -1.508   4.671   6.852 -1.3342 -0.1396  0.7703
  844MOL0     H13909  -1.467   4.606   7.013 -6.5456  2.7736 -0.0132
  844MOL0     H13910  -1.427   4.885   6.897 -3.2879 -0.5722 -1.2096
  844MOL0     H13911  -1.353   4.827   7.053 -0.9480 -1.4997  0.5070
  844MOL0     H13912  -1.644   4.804   6.982 -0.5945  3.7193 -1.3089
  844MOL0     H13913  -1.570   4.768   7.145 -2.2491  0.7410  0.5838
  844MOL0     H13914  -1.568   5.042   7.016 -1.7962 -3.1533 -1.5588
  844MOL0     H13915  -1.505   4.998   7.183  0.1260 -0.8954  1.0992
  844MOL0     H13916  -1.788   4.989   7.082  0.7775 -3.1591 -0.1295
  844MOL0     H13917  -1.738   4.926   7.237  1.3767  0.7519  0.7011
  844MOL0     H13918  -1.729   5.221   7.157  2.1392 -0.6584 -0.7812
  844MOL0     H13919  -1.682   5.167   7.316  2.3190  1.9412 -1.9935
  844MOL0     H13920  -1.946   5.060   7.303  0.8049 -0.0789 -1.2819
  844MOL0     H13921  -1.943   5.177   7.175  1.1785  1.4933  0.2149
  844MOL0     H13922  -0.979   4.750   7.034 -1.7055 -0.0860 -0.7903
  844MOL0     H13923  -0.759   4.700   6.965 -1.7389  1.5033  0.9855
  844MOL0     H13924  -0.564   4.409   6.606 -0.8077  0.9622  1.2645
  844MOL0     H13925  -0.376   4.334   6.467 -0.7815 -3.4194 -0.7273
  844MOL0     H13926   0.845   3.542   5.585 -4.3376 -0.5861  3.0203
  844MOL0     H13927   1.017   3.448   5.425 -0.0976  0.5653  1.9404
  844MOL0     H13928   1.245   2.939   5.311  1.9150  0.9739  0.7070
  844MOL0     H13929   1.418   2.876   5.161 -1.3707 -0.5389 -1.0572
  844MOL0     H13930   1.617   2.940   5.060 -2.5826  1.8026  0.4159
  844MOL0     H13931   1.534   2.837   4.946  1.9217 -0.0033  0.1619
  844MOL0     H13932   1.743   3.057   4.887 -0.9283  1.0571 -0.4768
  844MOL0     H13933   1.664   2.944   4.761 -1.5499  2.8521  0.0578
  844MOL0     H13934   1.774   2.746   4.902  2.6288 -0.7891  1.9611
  844MOL0     H13935   1.852   2.872   4.997  1.4330  1.9486 -0.8311
  844MOL0     H13936   1.920   2.954   4.754 -1.0866 -1.0585 -2.1397
  844MOL0     H13937   1.912   2.780   4.731  1.9618 -1.8879  2.2086
  844MOL0     H13938   2.259   2.865   4.978  1.7093  0.7351 -2.3944
  844MOL0     H13939   1.278   3.180   4.886 -1.2481 -0.9030  0.0588
  844MOL0     H13940   1.088   3.229   5.036 -2.0488 -0.1518  2.5604
  845MOL0     O13941   9.807   3.804   5.667  0.6570  0.5447  0.0765
  845MOL0     C13942   9.880   3.880   5.611  0.6792  0.5863  0.2666
  845MOL0     O13943   9.840   3.984   5.530  0.2915 -0.1096 -0.2124
  845MOL0     C13944   9.737   4.062   5.575  0.8579  0.1198 -0.0041
  845MOL0     C13945   9.692   4.077   5.717  0.0674 -0.0135  0.1369
  845MOL0     C13946   9.604   4.177   5.750  0.7832  0.1312 -0.4200
  845MOL0     C13947   9.545   4.263   5.657  0.4993 -0.8785 -0.3591
  845MOL0     O13948   9.451   4.358   5.695 -0.9945  0.1443  0.4794
  845MOL0     C13949   9.392   4.446   5.598 -0.1738 -0.9848  0.1947
  845MOL0     C13950   9.305   4.548   5.668  0.3259  0.4275  0.6871
  845MOL0     C13951   9.173   4.495   5.731 -0.6881 -0.3328  0.3171
  845MOL0     C13952   9.085   4.605   5.781  0.7229  0.3812 -0.3954
  845MOL0     C13953   8.950   4.550   5.831  0.2687 -0.2230  0.2971
  845MOL0     C13954   8.861   4.656   5.892  0.2372  0.1445 -0.3036
  845MOL0     C13955   8.711   4.619   5.895 -0.6331 -0.0739 -1.3817
  845MOL0     C13956   8.691   4.480   5.964  0.0332 -0.2560  0.1720
  845MOL0     N13957   8.556   4.464   6.010  0.1294 -0.3714 -0.4109
  845MOL0     C13958   8.444   4.456   5.933 -0.4446  0.0496  0.7694
  845MOL0     C13959   8.348   4.435   6.027  0.2365 -0.2898 -1.0029
  845MOL0     C13960   8.203   4.423   5.999 -0.2615  0.5659  0.5411
  845MOL0     C13961   8.133   4.557   5.970  0.0218 -0.3589  1.0931
  845MOL0     C13962   7.987   4.546   5.916 -0.1312  0.3610 -0.2661
  845MOL0     C13963   7.928   4.688   5.910  0.5427 -0.4000  0.2562
  845MOL0     O13964   7.975   4.782   6.008  0.0697  0.6198 -0.5745
  845MOL0     C13965   7.916   4.909   6.023  0.1885 -0.0711 -0.6266
  845MOL0     C13966   7.809   4.962   5.945 -0.3013  0.7782  0.8222
  845MOL0     C13967   7.746   5.078   5.989  0.1955  0.5178  0.1491
  845MOL0     C13968   7.642   5.124   5.888  0.4676  0.1335  0.4334
  845MOL0     C13969   7.780   5.142   6.113  0.0836  0.4253  0.1300
  845MOL0     C13970   7.710   5.258   6.169 -0.6116  0.0181  0.4996
  845MOL0     O13971   7.595   5.292   6.104 -0.6037 -0.6402  0.1716
  845MOL0     C13972   7.504   5.386   6.153  0.8506  0.1921 -0.2591
  845MOL0     C13973   7.383   5.388   6.078 -0.9424  0.7411  0.7103
  845MOL0     C13974   7.285   5.479   6.109 -0.4389  0.5719 -0.7210
  845MOL0     C13975   7.293   5.575   6.211  0.4315 -0.1996 -0.4276
  845MOL0     O13976   7.173   5.649   6.230 -0.9247  1.1929 -0.0336
  845MOL0     C13977   7.181   5.766   6.316 -0.5624  0.0180 -0.1961
  845MOL0     C13978   7.045   5.785   6.369 -0.6973 -1.1942  0.1752
  845MOL0     C13979   6.951   5.840   6.262 -0.3819  1.1083 -0.4067
  845MOL0     C13980   6.810   5.838   6.330 -0.0536 -0.7566  0.1939
  845MOL0     C13981   6.694   5.893   6.243  0.0741 -0.6434 -0.3463
  845MOL0     C13982   6.555   5.900   6.322 -0.1106 -0.6435 -0.8230
  845MOL0     C13983   6.469   5.985   6.225 -0.3590 -0.2039 -0.1645
  845MOL0     C13984   6.325   5.970   6.250 -0.6187  0.1843  0.8296
  845MOL0    Cl13985   6.235   6.068   6.114 -0.0508  0.4118 -0.1834
  845MOL0     C13986   7.413   5.572   6.288  0.8020 -0.9466  0.5229
  845MOL0     C13987   7.519   5.479   6.261 -0.1680 -0.0375 -0.2839
  845MOL0     O13988   7.746   5.292   6.279  0.0177 -0.5638  0.0233
  845MOL0     C13989   7.888   5.086   6.184 -0.1781 -0.4366  0.3035
  845MOL0     C13990   7.957   4.973   6.136  0.2443 -0.6318  0.0264
  845MOL0     N13991   8.402   4.425   6.156  0.2046  0.3066  0.1999
  845MOL0     N13992   8.525   4.443   6.141  0.3259 -0.0122  0.5089
  845MOL0     C13993   9.575   4.238   5.519  0.0319  0.2591  0.8282
  845MOL0     C13994   9.675   4.148   5.479  0.3660  0.4238  0.5476
  845MOL0     C13995  10.021   3.853   5.599 -0.5065  0.6367 -0.1569
  845MOL0     C13996  10.113   3.930   5.534 -0.2378 -0.3346  0.4032
  845MOL0     C13997  10.252   3.908   5.538  0.4343  0.0365  0.4128
  845MOL0     C13998  10.299   3.809   5.616  0.0088  1.1330 -0.6550
  845MOL0     O13999  10.436   3.785   5.612  0.0148 -0.4428  0.0935
  845MOL0     C14000  10.499   3.656   5.636 -0.0421 -0.3910  0.0824
  845MOL0     C14001  10.645   3.682   5.623 -0.1238  0.6912 -0.0211
  845MOL0     C14002  10.734   3.594   5.711 -0.6305 -0.2718 -0.3766
  845MOL0     C14003  10.882   3.626   5.717 -0.1369  0.4994 -0.3630
  845MOL0     C14004  10.949   3.642   5.590  0.1152 -0.6703 -0.0956
  845MOL0     C14005  11.005   3.651   5.478  0.3752 -0.2165 -0.1750
  845MOL0     C14006  10.216   3.720   5.684 -0.1073 -1.1578 -0.3794
  845MOL0     C14007  10.078   3.741   5.674 -0.2614 -0.4050 -1.1300
  845MOL0     H14008   9.728   4.018   5.801 -3.2134  0.3821  2.0039
  845MOL0     H14009   9.561   4.195   5.847  1.9960 -1.0499  0.3738
  845MOL0     H14010   9.470   4.509   5.555 -2.4177  1.7134 -0.2797
  845MOL0     H14011   9.340   4.385   5.524 -1.4065  1.4834 -1.1049
  845MOL0     H14012   9.370   4.585   5.747  3.1150 -2.5674  0.0063
  845MOL0     H14013   9.283   4.630   5.599 -0.8424  2.2146  3.0194
  845MOL0     H14014   9.119   4.429   5.662 -2.1082 -1.0547  2.0567
  845MOL0     H14015   9.197   4.419   5.807 -1.7382 -1.9234 -0.8739
  845MOL0     H14016   9.139   4.659   5.861  0.8422 -2.2227  1.4148
  845MOL0     H14017   9.058   4.663   5.693  0.1894 -1.1873 -1.3041
  845MOL0     H14018   8.897   4.529   5.738 -0.2943 -1.5223  0.8935
  845MOL0     H14019   8.965   4.464   5.896  1.1337  0.3376  0.8559
  845MOL0     H14020   8.905   4.665   5.992  1.7370 -1.9972 -0.7052
  845MOL0     H14021   8.867   4.749   5.835  0.6964 -0.8769 -1.9757
  845MOL0     H14022   8.663   4.701   5.951 -1.7843  0.8608 -3.6122
  845MOL0     H14023   8.667   4.620   5.795 -1.0111  0.9556 -1.2206
  845MOL0     H14024   8.753   4.482   6.055  0.2992  1.0959 -0.0192
  845MOL0     H14025   8.721   4.398   5.898  3.2588  3.0600 -2.9217
  845MOL0     H14026   8.435   4.463   5.825 -1.1476  0.6535  0.8578
  845MOL0     H14027   8.204   4.353   5.915 -2.3075 -0.0039  0.9465
  845MOL0     H14028   8.156   4.364   6.078 -1.4917 -1.4429 -1.5681
  845MOL0     H14029   8.200   4.602   5.896  0.3808 -2.1453  0.2756
  845MOL0     H14030   8.141   4.607   6.067 -0.3189 -0.5662  1.2265
  845MOL0     H14031   7.925   4.489   5.986  1.6514 -0.0710  1.0281
  845MOL0     H14032   7.983   4.503   5.816 -1.2490  1.3668 -0.6822
  845MOL0     H14033   7.820   4.686   5.894  0.6474  1.4366 -1.1015
  845MOL0     H14034   7.954   4.740   5.817  2.2871  1.4589  1.6957
  845MOL0     H14035   7.782   4.902   5.860  0.0518 -0.4792  1.5688
  845MOL0     H14036   7.545   5.117   5.938 -0.4487  0.8652 -1.1476
  845MOL0     H14037   7.649   5.225   5.846 -1.4352  0.8453  1.7014
  845MOL0     H14038   7.645   5.057   5.802  0.3315  2.2217 -1.2664
  845MOL0     H14039   7.369   5.323   5.993  3.4808 -0.6351  0.7522
  845MOL0     H14040   7.199   5.475   6.043  0.6282  3.7596 -2.5372
  845MOL0     H14041   7.259   5.785   6.391 -0.2038  0.0045 -0.5591
  845MOL0     H14042   7.209   5.846   6.246  2.0240 -0.9985 -0.4252
  845MOL0     H14043   7.010   5.690   6.409  1.2162 -0.9562  2.6565
  845MOL0     H14044   7.055   5.853   6.454  0.9174 -2.6619  1.2185
  845MOL0     H14045   6.958   5.772   6.177 -1.5187 -2.6779  2.2679
  845MOL0     H14046   6.975   5.946   6.249 -1.3379  1.9069  3.2087
  845MOL0     H14047   6.794   5.735   6.364  2.7135 -0.5663  2.4855
  845MOL0     H14048   6.817   5.905   6.416  0.6790  1.7610 -1.6831
  845MOL0     H14049   6.678   5.832   6.154 -2.0708 -3.8701  2.0299
  845MOL0     H14050   6.724   5.992   6.207  0.0638 -1.4783 -2.8022
  845MOL0     H14051   6.525   5.795   6.335  0.4544 -0.6383  0.7302
  845MOL0     H14052   6.560   5.946   6.421 -0.9841 -1.9773 -0.1267
  845MOL0     H14053   6.484   5.961   6.120  0.8602  0.6940 -0.2256
  845MOL0     H14054   6.490   6.091   6.243 -3.8215  0.5236  0.1180
  845MOL0     H14055   6.313   6.013   6.349 -2.3762 -0.6606  1.0074
  845MOL0     H14056   6.291   5.867   6.262 -1.4175  0.6310  2.7300
  845MOL0     H14057   7.431   5.655   6.356 -2.1698  0.5551 -0.3501
  845MOL0     H14058   7.620   5.484   6.303 -0.3088 -0.1861  0.0798
  845MOL0     H14059   7.922   5.129   6.278 -0.2401  1.7340 -0.6006
  845MOL0     H14060   8.038   4.928   6.194  0.9110 -0.7905 -0.9996
  845MOL0     H14061   9.544   4.312   5.447  1.3998 -1.2340 -1.4203
  845MOL0     H14062   9.705   4.142   5.375  2.0393  3.3310  0.7479
  845MOL0     H14063  10.076   4.015   5.477 -0.3238  0.7389  1.9979
  845MOL0     H14064  10.314   3.971   5.475 -3.7925  5.2164  0.7659
  845MOL0     H14065  10.480   3.632   5.740  0.9997  2.2094  0.9595
  845MOL0     H14066  10.468   3.567   5.580  3.9215 -1.5865 -0.5811
  845MOL0     H14067  10.681   3.783   5.647 -0.6304  1.2313 -1.4163
  845MOL0     H14068  10.669   3.665   5.518  1.2587  0.0154  0.3743
  845MOL0     H14069  10.718   3.487   5.697 -0.1255 -0.6596  1.6437
  845MOL0     H14070  10.697   3.602   5.814 -0.8202 -2.2745 -0.2620
  845MOL0     H14071  10.930   3.542   5.769 -4.5656 -0.3048  3.1348
  845MOL0     H14072  10.914   3.711   5.778  1.9002 -0.3080 -0.2327
  845MOL0     H14073  11.038   3.659   5.376 -2.2803 -2.7494 -1.3710
  845MOL0     H14074  10.254   3.642   5.750 -0.9470 -0.4768  0.9475
  845MOL0     H14075  10.014   3.671   5.726 -1.9338  0.5967 -1.7266
  846MOL0     O14076   9.421   2.779   1.544 -0.3372 -0.1004  0.2416
  846MOL0     C14077   9.510   2.856   1.577  0.6077  0.2376  1.0261
  846MOL0     O14078   9.495   2.961   1.655 -0.1567 -0.4118 -0.2036
  846MOL0     C14079   9.381   3.002   1.725 -0.5717 -0.2124  0.0484
  846MOL0     C14080   9.270   2.917   1.745 -0.4709  0.0587  0.3078
  846MOL0     C14081   9.159   2.972   1.799 -0.1688 -0.5111  0.6374
  846MOL0     C14082   9.159   3.106   1.850  0.4568 -0.4961  0.1563
  846MOL0     O14083   9.054   3.172   1.909  0.2406 -1.1427 -0.0738
  846MOL0     C14084   8.943   3.094   1.960 -0.1956 -0.2571  0.5740
  846MOL0     C14085   8.850   3.080   1.837 -0.6960  0.7466  0.0128
  846MOL0     C14086   8.710   3.032   1.884 -0.2379 -0.4049  0.0655
  846MOL0     C14087   8.602   3.006   1.781 -0.1562 -0.3131  0.8039
  846MOL0     C14088   8.539   3.134   1.744  0.2086 -0.7390 -0.3583
  846MOL0     C14089   8.452   3.111   1.624 -0.1690 -0.1831 -0.0485
  846MOL0     C14090   8.361   3.241   1.590 -0.6946 -0.8975  0.2844
  846MOL0     C14091   8.366   3.269   1.443  0.2026  0.4370 -0.1777
  846MOL0     N14092   8.269   3.184   1.375 -0.7852 -0.0648 -0.2096
  846MOL0     C14093   8.130   3.207   1.357 -0.8397 -0.0407  0.5056
  846MOL0     C14094   8.091   3.099   1.288 -0.2655  0.8684 -0.5194
  846MOL0     C14095   7.952   3.088   1.233 -0.0757 -0.0916 -0.1165
  846MOL0     C14096   7.904   2.943   1.242 -0.0658  0.0858  0.0916
  846MOL0     C14097   7.752   2.937   1.210 -0.3902  0.5500 -0.0619
  846MOL0     C14098   7.668   2.940   1.334  0.0413  0.7088  0.9456
  846MOL0     O14099   7.683   2.815   1.400 -0.2007 -0.7117  0.6497
  846MOL0     C14100   7.588   2.757   1.473  0.4089  0.0527 -0.3979
  846MOL0     C14101   7.602   2.624   1.510 -0.0800  0.1975  0.5516
  846MOL0     C14102   7.499   2.545   1.564  0.6809  0.4311 -0.8661
  846MOL0     C14103   7.534   2.405   1.602  0.7832 -0.0824  0.0213
  846MOL0     C14104   7.372   2.599   1.585  0.9390 -0.4915 -0.4399
  846MOL0     C14105   7.258   2.526   1.645 -0.2380  0.0869 -0.0849
  846MOL0     O14106   7.278   2.409   1.718 -0.6801  0.2208  0.9272
  846MOL0     C14107   7.171   2.326   1.730  0.4817  0.1583  0.1342
  846MOL0     C14108   7.110   2.282   1.617 -0.0692 -0.7199 -0.8073
  846MOL0     C14109   7.000   2.200   1.618  0.3552 -0.4214  0.6597
  846MOL0     C14110   6.942   2.165   1.732  0.4324  0.1379  1.5233
  846MOL0     O14111   6.837   2.080   1.740  0.3310 -0.1798  0.0202
  846MOL0     C14112   6.834   1.967   1.657 -0.6492  0.8131  0.7604
  846MOL0     C14113   6.694   1.935   1.604 -0.5710 -0.1103 -0.1628
  846MOL0     C14114   6.676   1.804   1.526 -0.0800  0.0860  0.2556
  846MOL0     C14115   6.537   1.803   1.471 -0.1171 -0.7717  0.3008
  846MOL0     C14116   6.514   1.682   1.387 -0.4512  0.6040 -0.4417
  846MOL0     C14117   6.367   1.684   1.339 -0.8003 -0.2517  0.6736
  846MOL0     C14118   6.268   1.631   1.450  0.3308 -0.2283  0.5146
  846MOL0     C14119   6.118   1.661   1.423  0.7138 -0.0109  0.1541
  846MOL0    Cl14120   6.067   1.559   1.286 -0.0102  0.1241 -0.2280
  846MOL0     C14121   7.010   2.201   1.857  0.6222 -0.2514 -0.2446
  846MOL0     C14122   7.126   2.285   1.858  0.6596  0.0210  0.4866
  846MOL0     O14123   7.146   2.583   1.632  0.3523  1.2626  0.3861
  846MOL0     C14124   7.356   2.734   1.556 -0.1533  0.5068 -0.1431
  846MOL0     C14125   7.458   2.807   1.502  0.7422  0.2582 -0.0610
  846MOL0     N14126   8.196   3.015   1.265  0.0263  0.4185 -0.0909
  846MOL0     N14127   8.307   3.065   1.313  0.8150 -0.6975  0.5083
  846MOL0     C14128   9.272   3.183   1.830 -0.0057 -0.2675 -0.4603
  846MOL0     C14129   9.387   3.134   1.769 -0.2123 -1.1092  0.0085
  846MOL0     C14130   9.644   2.838   1.514  0.0264  0.6925  0.0246
  846MOL0     C14131   9.754   2.921   1.551 -0.6901  0.2018 -0.1147
  846MOL0     C14132   9.881   2.895   1.488 -0.0601  0.5174 -0.1608
  846MOL0     C14133   9.899   2.798   1.391 -0.5235 -0.0600  0.5628
  846MOL0     O14134  10.031   2.785   1.347  0.5661 -0.0914 -0.2433
  846MOL0     C14135  10.063   2.708   1.233 -0.0854  0.0192 -0.5717
  846MOL0     C14136  10.210   2.710   1.192 -0.2125  0.6189 -0.4491
  846MOL0     C14137  10.250   2.825   1.096  0.7792  0.2476 -0.2698
  846MOL0     C14138  10.397   2.810   1.063  0.1985  1.0713 -0.0429
  846MOL0     C14139  10.450   2.940   1.023  0.7355 -0.1943  0.2178
  846MOL0     C14140  10.479   3.047   0.967  0.5028 -0.4967  0.1666
  846MOL0     C14141   9.792   2.721   1.344  0.7988 -0.2161  0.0743
  846MOL0     C14142   9.665   2.739   1.415  0.8368  0.6238  0.2672
  846MOL0     H14143   9.261   2.811   1.722  0.7245 -0.4037  1.7695
  846MOL0     H14144   9.079   2.903   1.820  0.2731 -1.4046 -0.4954
  846MOL0     H14145   8.972   3.000   2.008  3.8329  1.0224  0.9960
  846MOL0     H14146   8.890   3.151   2.038 -0.2810 -0.2371  0.5017
  846MOL0     H14147   8.847   3.180   1.794 -0.0578 -0.5317 -3.2565
  846MOL0     H14148   8.879   3.017   1.753 -1.7750  1.4168 -0.8972
  846MOL0     H14149   8.728   2.937   1.936 -0.1371 -0.3049  0.2152
  846MOL0     H14150   8.671   3.099   1.962 -0.0884 -1.3269  0.9600
  846MOL0     H14151   8.648   2.949   1.700  0.3087 -0.8703  1.4513
  846MOL0     H14152   8.521   2.943   1.819 -0.5925 -0.7706 -0.8287
  846MOL0     H14153   8.482   3.180   1.825 -1.4184 -1.0823 -1.2645
  846MOL0     H14154   8.614   3.208   1.714 -0.4170 -0.2632 -0.7655
  846MOL0     H14155   8.528   3.087   1.548  0.2699  1.7949 -0.2698
  846MOL0     H14156   8.392   3.020   1.631  0.6599 -1.0828 -3.0121
  846MOL0     H14157   8.259   3.229   1.626  0.0830  1.9425  4.1110
  846MOL0     H14158   8.396   3.328   1.646  0.8752 -2.3876  1.7608
  846MOL0     H14159   8.464   3.244   1.400 -0.8032 -1.7311 -1.3900
  846MOL0     H14160   8.353   3.375   1.420  0.8182  0.2904 -1.2898
  846MOL0     H14161   8.064   3.287   1.390 -0.1940 -0.9244  4.4588
  846MOL0     H14162   7.888   3.158   1.286  0.5208 -0.1542  0.7157
  846MOL0     H14163   7.944   3.105   1.125 -2.0280  3.2096  0.4165
  846MOL0     H14164   7.930   2.893   1.336 -0.0862 -1.2194 -0.5661
  846MOL0     H14165   7.943   2.883   1.159 -0.2791  1.2866 -0.8981
  846MOL0     H14166   7.737   2.848   1.148  4.7122 -1.6127  1.2591
  846MOL0     H14167   7.727   3.017   1.139 -0.1035  1.2233  0.5817
  846MOL0     H14168   7.566   2.969   1.308  0.4620  2.0260  0.6779
  846MOL0     H14169   7.714   3.021   1.392  3.3938  0.0424 -0.5506
  846MOL0     H14170   7.704   2.585   1.507  0.3323  1.1640 -2.6808
  846MOL0     H14171   7.639   2.375   1.592  0.7756 -0.3194  0.5900
  846MOL0     H14172   7.526   2.397   1.711  1.6981 -3.7337 -0.0526
  846MOL0     H14173   7.472   2.334   1.546  1.8219  0.2066 -1.5483
  846MOL0     H14174   7.150   2.294   1.517  0.8091 -2.3397 -0.6897
  846MOL0     H14175   6.953   2.166   1.526 -2.2391  0.2597  1.6543
  846MOL0     H14176   6.897   1.975   1.568 -1.3934  1.6294  0.2988
  846MOL0     H14177   6.871   1.878   1.709 -1.4587 -0.6072 -0.9891
  846MOL0     H14178   6.619   1.949   1.683  0.7294  0.9980  0.9338
  846MOL0     H14179   6.663   2.022   1.545  0.3699 -1.3332 -2.5692
  846MOL0     H14180   6.666   1.716   1.589 -2.2426 -0.1959 -0.3970
  846MOL0     H14181   6.753   1.780   1.452  0.7055 -1.7896  1.5982
  846MOL0     H14182   6.465   1.810   1.553 -0.5429 -2.7198  0.1208
  846MOL0     H14183   6.529   1.893   1.409 -0.4517 -0.6931  0.4551
  846MOL0     H14184   6.531   1.596   1.453  0.5274 -0.1889 -1.6668
  846MOL0     H14185   6.580   1.668   1.301 -0.8992 -2.1467 -0.4504
  846MOL0     H14186   6.329   1.784   1.315 -3.6402 -1.2380  0.7783
  846MOL0     H14187   6.356   1.630   1.245 -1.4890  1.9274 -0.5747
  846MOL0     H14188   6.298   1.681   1.543  0.0177 -2.0952  1.6724
  846MOL0     H14189   6.285   1.523   1.459  2.5762 -0.1788 -2.0425
  846MOL0     H14190   6.089   1.765   1.406 -0.5934 -0.0296  1.9156
  846MOL0     H14191   6.071   1.635   1.518 -1.8244  1.5435 -0.5857
  846MOL0     H14192   6.956   2.166   1.944  0.0723  0.9483 -0.0873
  846MOL0     H14193   7.163   2.322   1.953 -1.1689  1.1056  0.8291
  846MOL0     H14194   7.262   2.787   1.565 -2.8788 -3.7367 -1.1072
  846MOL0     H14195   7.426   2.905   1.467 -1.1128 -0.1823  0.2900
  846MOL0     H14196   9.270   3.290   1.850 -0.3195 -0.2323 -0.6712
  846MOL0     H14197   9.467   3.206   1.755 -0.4428 -0.4488  1.8560
  846MOL0     H14198   9.740   3.003   1.620 -0.5114 -0.7584  1.0994
  846MOL0     H14199   9.969   2.951   1.518 -1.1989  0.3806  3.9503
  846MOL0     H14200  10.036   2.605   1.256  0.6548  0.6235  4.0022
  846MOL0     H14201   9.994   2.739   1.154  0.4193  0.6401 -0.7803
  846MOL0     H14202  10.227   2.611   1.148 -0.2414 -0.6858  2.2132
  846MOL0     H14203  10.269   2.725   1.284 -1.0537  2.8327 -0.2122
  846MOL0     H14204  10.221   2.918   1.146  1.3248 -0.6277  1.7599
  846MOL0     H14205  10.190   2.811   1.005 -0.1653  0.7314  0.2610
  846MOL0     H14206  10.408   2.731   0.988 -1.2865  0.0146  0.8047
  846MOL0     H14207  10.444   2.784   1.159 -2.2112  0.0705  0.9470
  846MOL0     H14208  10.488   3.129   0.899  1.5689  0.2294  1.1378
  846MOL0     H14209   9.800   2.644   1.267  0.1982  1.4310 -1.7139
  846MOL0     H14210   9.586   2.670   1.388  1.6785 -0.2054 -0.1409
  847MOL0     O14211   9.580  10.213   3.012  0.1573  0.4946  0.0222
  847MOL0     C14212   9.585  10.330   3.048  0.1401 -1.2133  0.0538
  847MOL0     O14213   9.510  10.434   3.004 -0.3063 -0.0685 -0.1071
  847MOL0     C14214   9.403  10.432   2.915  0.1572  0.3869  0.1746
  847MOL0     C14215   9.281  10.500   2.950 -0.1206  0.0153 -0.0856
  847MOL0     C14216   9.174  10.504   2.858  0.6319  0.6689  0.9756
  847MOL0     C14217   9.179  10.429   2.745  0.0287  0.6855 -0.4336
  847MOL0     O14218   9.074  10.431   2.658  0.1054 -0.0953  0.4092
  847MOL0     C14219   8.999  10.314   2.619  0.2453 -0.3019  0.1149
  847MOL0     C14220   8.879  10.344   2.546 -0.4798 -0.7657  0.1345
  847MOL0     C14221   8.771  10.400   2.639 -1.0864  0.4197  0.1141
  847MOL0     C14222   8.634  10.399   2.572 -0.0789 -0.2115 -0.1745
  847MOL0     C14223   8.545  10.522   2.596  0.0682 -0.4799 -0.3162
  847MOL0     C14224   8.402  10.502   2.528 -0.8050  0.3298 -0.3642
  847MOL0     C14225   8.304  10.600   2.568 -0.5462 -0.6221 -0.6937
  847MOL0     C14226   8.279  10.711   2.458  0.5148 -0.3592  0.1308
  847MOL0     N14227   8.195  10.832   2.499  0.2021  0.0396 -0.0367
  847MOL0     C14228   8.196  10.894   2.623  0.1104  0.1887  0.2340
  847MOL0     C14229   8.066  10.945   2.636  0.4455  0.0076 -0.5609
  847MOL0     C14230   8.009  11.025   2.748 -0.4721  0.3142 -0.2873
  847MOL0     C14231   7.872  10.959   2.787 -0.5564 -0.0524 -0.3262
  847MOL0     C14232   7.812  11.030   2.908 -0.3102  0.3377 -0.5312
  847MOL0     C14233   7.676  10.948   2.945  0.6210  0.1640 -0.3576
  847MOL0     O14234   7.705  10.807   2.966  0.3068 -0.0073 -0.3512
  847MOL0     C14235   7.604  10.745   3.037 -0.4372  0.2854  1.3822
  847MOL0     C14236   7.471  10.755   2.996 -0.0745  0.2307 -0.7845
  847MOL0     C14237   7.377  10.687   3.071 -0.3228 -0.0499  0.2689
  847MOL0     C14238   7.236  10.723   3.037  0.7748  0.3551  0.8189
  847MOL0     C14239   7.408  10.620   3.190  0.6403  0.0534  0.3204
  847MOL0     C14240   7.307  10.544   3.274 -0.2065  0.2669  1.0489
  847MOL0     O14241   7.349  10.506   3.399 -0.1421  0.1894 -0.5427
  847MOL0     C14242   7.258  10.496   3.503  0.0253 -0.0411 -0.3102
  847MOL0     C14243   7.291  10.410   3.599  0.4055 -0.0841  0.3948
  847MOL0     C14244   7.207  10.385   3.701 -0.3738 -0.4019 -0.2806
  847MOL0     C14245   7.079  10.439   3.700  0.3954  0.3080 -0.2362
  847MOL0     O14246   6.978  10.426   3.800  0.1005  0.6933  0.4062
  847MOL0     C14247   7.029  10.368   3.917  0.4785 -0.3478 -0.9623
  847MOL0     C14248   6.920  10.359   4.023  0.0555 -0.1464  0.4319
  847MOL0     C14249   6.784  10.303   3.983 -0.5013  0.5157 -0.2807
  847MOL0     C14250   6.798  10.158   3.930 -0.0365 -0.5578  0.3901
  847MOL0     C14251   6.860  10.054   4.023  0.9778 -0.6382  0.0886
  847MOL0     C14252   6.792  10.049   4.161 -0.5382  0.2071  0.6577
  847MOL0     C14253   6.637  10.030   4.151  0.4926 -0.1206 -0.2382
  847MOL0     C14254   6.593  10.005   4.295 -0.2397 -0.5049  0.7142
  847MOL0    Cl14255   6.410  10.003   4.292 -0.3360 -0.2445  0.1360
  847MOL0     C14256   7.037  10.526   3.597 -0.5622  0.1138  0.7312
  847MOL0     C14257   7.123  10.550   3.496 -0.7857 -0.4710  0.6948
  847MOL0     O14258   7.197  10.520   3.228  0.1602 -0.3122 -0.1185
  847MOL0     C14259   7.543  10.624   3.235 -0.9173  0.4589  0.0823
  847MOL0     C14260   7.640  10.682   3.151 -0.2133  0.5637  0.7735
  847MOL0     N14261   8.012  10.940   2.508  0.5095 -0.0982  0.0852
  847MOL0     N14262   8.083  10.869   2.430  0.4592  0.5026  0.1533
  847MOL0     C14263   9.287  10.349   2.709  0.1062 -0.2061 -0.2626
  847MOL0     C14264   9.407  10.357   2.793  0.8698  0.2442  0.3431
  847MOL0     C14265   9.689  10.373   3.150 -0.3775  0.8848  0.4467
  847MOL0     C14266   9.774  10.278   3.214 -0.6202 -0.2830  0.0159
  847MOL0     C14267   9.869  10.309   3.308  0.1370 -1.0791  0.0594
  847MOL0     C14268   9.896  10.440   3.330 -0.1927  0.4260  0.5305
  847MOL0     O14269   9.988  10.481   3.423  0.5929 -0.0498 -0.0634
  847MOL0     C14270  10.081  10.396   3.478 -0.7850  0.1246 -1.1279
  847MOL0     C14271  10.172  10.357   3.365  0.2102 -0.2692 -0.4126
  847MOL0     C14272  10.268  10.245   3.398  0.6879  0.2724  0.3886
  847MOL0     C14273  10.358  10.278   3.517 -0.4517 -0.5751 -0.2772
  847MOL0     C14274  10.454  10.383   3.474  0.1009  0.0317 -0.8644
  847MOL0     C14275  10.533  10.466   3.430 -0.2887  0.1237 -0.1934
  847MOL0     C14276   9.813  10.543   3.278  0.4072 -0.3204 -0.6450
  847MOL0     C14277   9.709  10.510   3.186  0.3819 -0.5030  0.1437
  847MOL0     H14278   9.276  10.560   3.041 -0.9293  0.1308 -0.1972
  847MOL0     H14279   9.081  10.558   2.874 -0.0810 -1.2403  4.3712
  847MOL0     H14280   9.067  10.267   2.548 -0.5627 -2.3784  0.6528
  847MOL0     H14281   8.970  10.250   2.703  0.4089 -0.0985  0.3311
  847MOL0     H14282   8.887  10.411   2.460  0.6743  0.4794  1.1679
  847MOL0     H14283   8.840  10.253   2.500 -3.5174  0.8545 -0.7497
  847MOL0     H14284   8.766  10.349   2.736  0.4733  1.7553  0.9461
  847MOL0     H14285   8.793  10.502   2.671 -0.4192 -0.3316  2.2208
  847MOL0     H14286   8.666  10.392   2.468  2.0325 -0.4257  0.4423
  847MOL0     H14287   8.579  10.308   2.599  1.4089 -1.8043 -2.2295
  847MOL0     H14288   8.535  10.533   2.705 -2.3192 -2.1708 -0.2867
  847MOL0     H14289   8.589  10.616   2.560 -1.4526  0.6703  0.6660
  847MOL0     H14290   8.421  10.504   2.420  0.4457 -0.6033 -0.1933
  847MOL0     H14291   8.361  10.407   2.564 -0.0413  0.3855  0.6818
  847MOL0     H14292   8.210  10.545   2.582  0.2393 -1.5113  1.5623
  847MOL0     H14293   8.324  10.650   2.663  0.9877  1.6428 -2.1067
  847MOL0     H14294   8.234  10.670   2.368  1.0668  0.2989 -0.4562
  847MOL0     H14295   8.372  10.755   2.421  0.6104 -0.0538  0.7217
  847MOL0     H14296   8.274  10.888   2.697  0.8909 -1.8001 -0.6725
  847MOL0     H14297   8.083  11.021   2.827 -0.9801 -0.7642  0.1576
  847MOL0     H14298   7.994  11.131   2.725  0.0673  0.2078 -1.1765
  847MOL0     H14299   7.903  10.855   2.802  4.3985  1.2500  0.0972
  847MOL0     H14300   7.798  10.955   2.706 -0.9741 -0.4937  0.0688
  847MOL0     H14301   7.791  11.135   2.883 -2.7259  0.0685  0.1284
  847MOL0     H14302   7.889  11.022   2.985  0.1069  1.3329 -0.8193
  847MOL0     H14303   7.608  10.947   2.859 -1.1037 -2.5275  0.9231
  847MOL0     H14304   7.630  10.984   3.037  0.6481 -0.3078 -0.1590
  847MOL0     H14305   7.449  10.809   2.905 -0.0950 -1.6570 -1.9420
  847MOL0     H14306   7.170  10.751   3.119  0.7425  1.4399  0.4429
  847MOL0     H14307   7.243  10.810   2.971 -1.2722  0.0664  0.1709
  847MOL0     H14308   7.186  10.645   2.979  2.6508  3.6557 -6.2893
  847MOL0     H14309   7.383  10.355   3.581 -0.1325 -0.8754  0.0202
  847MOL0     H14310   7.234  10.318   3.783 -0.4635 -1.3357 -0.9912
  847MOL0     H14311   7.064  10.267   3.894  2.8602  0.2966 -0.4027
  847MOL0     H14312   7.120  10.422   3.944 -1.6654  3.1267 -0.0624
  847MOL0     H14313   6.962  10.298   4.103 -0.5356 -0.7753  0.2731
  847MOL0     H14314   6.909  10.464   4.053 -0.1236 -0.1310  0.3170
  847MOL0     H14315   6.748  10.368   3.902 -1.9855  1.3571  0.9972
  847MOL0     H14316   6.721  10.311   4.072  1.4155 -0.1253  1.1826
  847MOL0     H14317   6.699  10.119   3.904 -0.6544  1.4284 -0.3921
  847MOL0     H14318   6.848  10.167   3.833 -0.3270  0.6391  0.3306
  847MOL0     H14319   6.967  10.072   4.037  1.5899 -0.6182 -3.6064
  847MOL0     H14320   6.851   9.954   3.979 -1.5786 -0.1067 -0.7524
  847MOL0     H14321   6.833   9.959   4.209 -0.6861  1.0005  2.3146
  847MOL0     H14322   6.823  10.136   4.220  2.7163 -0.8809  0.7591
  847MOL0     H14323   6.598   9.938   4.106  1.9130 -2.7433  3.3613
  847MOL0     H14324   6.584  10.119   4.116  0.0667  0.2622  1.3304
  847MOL0     H14325   6.622  10.092   4.356 -1.0532  2.1071 -2.3860
  847MOL0     H14326   6.634   9.914   4.341 -1.7688 -1.5083  0.1558
  847MOL0     H14327   6.941  10.575   3.602 -0.6752 -0.0736  0.4103
  847MOL0     H14328   7.090  10.613   3.414 -0.3010 -1.0327  0.0473
  847MOL0     H14329   7.580  10.579   3.327  3.9970  0.1588 -1.7366
  847MOL0     H14330   7.745  10.683   3.181 -0.7013  3.0167  2.7370
  847MOL0     H14331   9.293  10.307   2.609  2.4372 -0.8132  0.0952
  847MOL0     H14332   9.498  10.310   2.757  0.3052 -1.1615  0.6613
  847MOL0     H14333   9.770  10.170   3.201  1.2318 -0.3441 -0.3045
  847MOL0     H14334   9.915  10.225   3.360  2.1422 -1.4927 -2.2188
  847MOL0     H14335  10.131  10.438   3.566 -0.2145  0.5840 -1.6615
  847MOL0     H14336  10.035  10.304   3.514 -1.7052  0.5594 -1.1639
  847MOL0     H14337  10.222  10.445   3.326 -1.3217  1.2564  0.9116
  847MOL0     H14338  10.115  10.323   3.278  1.4456  0.8397 -1.6875
  847MOL0     H14339  10.328  10.237   3.308  1.6199 -0.5993  1.0590
  847MOL0     H14340  10.215  10.150   3.409  0.1077  0.5262 -0.1851
  847MOL0     H14341  10.412  10.184   3.532  0.3771 -0.9393 -4.4417
  847MOL0     H14342  10.307  10.313   3.608 -0.2764 -0.2019 -0.3215
  847MOL0     H14343  10.598  10.532   3.376  0.2313 -1.5535 -1.6998
  847MOL0     H14344   9.847  10.645   3.294  0.8103 -0.3810 -1.1076
  847MOL0     H14345   9.648  10.584   3.136  0.6924 -2.6832 -3.8557
  848MOL0     O14346   1.970   4.991   0.185  0.1336  0.1053  0.5462
  848MOL0     C14347   2.054   5.034   0.262  0.5931  0.7056  0.2502
  848MOL0     O14348   2.089   4.978   0.376  0.2651 -0.0283 -0.2751
  848MOL0     C14349   1.990   4.895   0.425  0.7664 -0.3158  0.5348
  848MOL0     C14350   1.895   4.953   0.516  0.0157  0.2933  0.1772
  848MOL0     C14351   1.801   4.867   0.584 -0.3874  0.1710 -0.5729
  848MOL0     C14352   1.798   4.732   0.563 -0.8999  0.0812 -0.2540
  848MOL0     O14353   1.713   4.646   0.623 -0.7715  0.1531 -0.6394
  848MOL0     C14354   1.668   4.678   0.750 -0.3404 -0.7523 -0.8279
  848MOL0     C14355   1.580   4.568   0.795 -0.0996  0.0469 -0.5412
  848MOL0     C14356   1.510   4.591   0.933 -0.7768  0.8247 -0.4567
  848MOL0     C14357   1.368   4.525   0.952 -0.1740 -0.3147 -0.5509
  848MOL0     C14358   1.302   4.574   1.074  0.8292  0.1449 -0.7205
  848MOL0     C14359   1.162   4.519   1.090 -0.1129 -0.3400 -0.4390
  848MOL0     C14360   1.104   4.558   1.225 -0.2671 -0.6189  0.0481
  848MOL0     C14361   1.073   4.708   1.234  0.6113  0.3434 -0.3283
  848MOL0     N14362   1.175   4.813   1.268  0.1788 -0.1319  0.4893
  848MOL0     C14363   1.280   4.788   1.355 -0.7864 -0.2189  0.5766
  848MOL0     C14364   1.331   4.909   1.389  0.4795  0.4493 -0.8150
  848MOL0     C14365   1.448   4.930   1.476 -0.4859 -0.0643  0.5903
  848MOL0     C14366   1.579   4.957   1.389 -1.1199 -0.2651  0.6676
  848MOL0     C14367   1.690   4.983   1.491 -0.3671  0.3795 -0.7542
  848MOL0     C14368   1.830   5.024   1.424  0.0967 -0.0089 -0.4598
  848MOL0     O14369   1.820   5.137   1.336 -0.1726  1.0488 -0.2186
  848MOL0     C14370   1.939   5.182   1.287 -0.3140  0.4946  0.2090
  848MOL0     C14371   1.932   5.274   1.177  0.6862  0.8516 -0.0635
  848MOL0     C14372   2.048   5.310   1.107 -0.2471  0.4300 -0.5212
  848MOL0     C14373   2.027   5.404   0.993 -0.4752  0.0870  0.3223
  848MOL0     C14374   2.180   5.273   1.154  0.6695 -0.3667  0.2837
  848MOL0     C14375   2.308   5.338   1.112 -0.0440 -0.3903 -0.6484
  848MOL0     O14376   2.411   5.312   1.199 -0.8685 -1.0853  0.1129
  848MOL0     C14377   2.538   5.364   1.168  0.7388  0.8917  0.1500
  848MOL0     C14378   2.570   5.495   1.196  0.0700  0.8349 -1.4602
  848MOL0     C14379   2.693   5.551   1.165 -0.6567  0.4866  0.4679
  848MOL0     C14380   2.793   5.484   1.088 -0.1694 -0.0681  0.1409
  848MOL0     O14381   2.922   5.514   1.066 -0.4059 -0.4301  0.4543
  848MOL0     C14382   2.992   5.579   1.176  0.3493  0.0572  1.0196
  848MOL0     C14383   3.070   5.482   1.268 -0.3673 -0.1947 -0.2918
  848MOL0     C14384   3.162   5.381   1.205 -0.4988  0.1015  1.2046
  848MOL0     C14385   3.293   5.437   1.143 -0.8628  0.4567  0.0684
  848MOL0     C14386   3.398   5.319   1.119 -0.5327  0.3600  0.1081
  848MOL0     C14387   3.530   5.377   1.075 -0.2474  0.4553 -0.2330
  848MOL0     C14388   3.593   5.475   1.185 -0.3560 -0.0413  0.6626
  848MOL0     C14389   3.641   5.388   1.308 -0.5214 -0.3600 -0.7858
  848MOL0    Cl14390   3.508   5.395   1.431 -0.0859 -0.1123  0.4960
  848MOL0     C14391   2.748   5.358   1.048  0.0607  0.8273 -0.3798
  848MOL0     C14392   2.627   5.300   1.093  0.2942  0.9134  0.0279
  848MOL0     O14393   2.312   5.392   1.002  0.0787 -0.5550 -0.5398
  848MOL0     C14394   2.185   5.194   1.266 -0.3167  0.2577  0.0158
  848MOL0     C14395   2.067   5.141   1.333 -0.8001 -0.5288  0.1577
  848MOL0     N14396   1.256   5.004   1.328 -0.6442  0.2789  0.0506
  848MOL0     N14397   1.158   4.947   1.262 -0.1294 -0.4120 -0.2478
  848MOL0     C14398   1.890   4.678   0.470  0.5491  0.1384 -0.1846
  848MOL0     C14399   1.976   4.760   0.407 -0.4002 -0.3141  0.0806
  848MOL0     C14400   2.116   5.152   0.204 -0.1753  0.2802 -0.3171
  848MOL0     C14401   2.070   5.233   0.099 -0.4791 -0.1931  0.4133
  848MOL0     C14402   2.137   5.350   0.065 -0.7262 -0.2430 -0.1488
  848MOL0     C14403   2.257   5.396   0.124 -0.4020 -0.0196  0.3713
  848MOL0     O14404   2.332   5.514   0.107  0.3949 -0.1463 -0.3545
  848MOL0     C14405   2.256   5.627   0.040 -0.3102 -0.9459  0.2333
  848MOL0     C14406   2.359   5.716  -0.029 -0.6398  0.3940  0.0320
  848MOL0     C14407   2.481   5.765   0.051  0.2250 -0.1807 -0.3037
  848MOL0     C14408   2.563   5.873  -0.022  0.2244 -0.9750  0.1604
  848MOL0     C14409   2.628   5.811  -0.143 -0.1688 -0.9167  0.4690
  848MOL0     C14410   2.678   5.758  -0.239  0.1932  0.2212  0.7362
  848MOL0     C14411   2.312   5.312   0.226  0.2498 -0.1682  0.3421
  848MOL0     C14412   2.241   5.196   0.260 -0.3463  0.2852  0.4990
  848MOL0     H14413   1.901   5.061   0.528  0.7540  0.1968  0.7502
  848MOL0     H14414   1.745   4.912   0.666  0.3175 -2.1434  1.2814
  848MOL0     H14415   1.756   4.688   0.815 -0.0807  0.3967 -1.3421
  848MOL0     H14416   1.615   4.773   0.742 -2.9566 -2.1944 -2.0822
  848MOL0     H14417   1.500   4.554   0.722  0.5133  2.3197 -1.7251
  848MOL0     H14418   1.628   4.470   0.806 -1.9931 -1.0335 -1.2549
  848MOL0     H14419   1.562   4.550   1.020 -2.4961  1.4073  0.9047
  848MOL0     H14420   1.496   4.695   0.963  0.4385  1.4214 -1.8446
  848MOL0     H14421   1.301   4.539   0.867 -0.1390 -1.1910 -0.7322
  848MOL0     H14422   1.370   4.416   0.949 -2.7046 -0.4129 -1.4071
  848MOL0     H14423   1.358   4.531   1.156 -0.1644 -0.8112 -0.5148
  848MOL0     H14424   1.295   4.683   1.075 -0.7241  0.0773  0.2612
  848MOL0     H14425   1.093   4.556   1.014 -1.1348 -1.1193  0.0875
  848MOL0     H14426   1.160   4.409   1.084  1.6729 -0.3819 -0.6898
  848MOL0     H14427   1.008   4.506   1.221  0.4711 -1.9666 -1.1306
  848MOL0     H14428   1.159   4.524   1.314 -1.1861 -1.3230  0.3733
  848MOL0     H14429   1.014   4.720   1.325  1.8136  0.1075  0.4912
  848MOL0     H14430   1.013   4.737   1.147  0.9263  0.2932 -0.5628
  848MOL0     H14431   1.314   4.695   1.397 -0.1481  1.4363  4.1077
  848MOL0     H14432   1.414   5.021   1.526 -2.8005  0.2395 -1.3751
  848MOL0     H14433   1.459   4.844   1.543 -0.6803 -0.0300  0.6676
  848MOL0     H14434   1.564   5.044   1.325  0.5613 -0.6526 -0.3014
  848MOL0     H14435   1.601   4.878   1.317  2.8928  1.2930 -0.0869
  848MOL0     H14436   1.723   4.890   1.538  3.7875  1.0821 -1.8514
  848MOL0     H14437   1.663   5.061   1.562  0.6108 -1.6753  2.0324
  848MOL0     H14438   1.880   4.941   1.373  0.9075  0.5924 -0.6739
  848MOL0     H14439   1.897   5.054   1.505 -2.2362 -0.4071  1.7228
  848MOL0     H14440   1.830   5.292   1.144 -0.8722 -1.9701  2.6779
  848MOL0     H14441   2.031   5.506   1.033 -1.5659  0.1271  0.3599
  848MOL0     H14442   2.100   5.399   0.911 -0.5919 -0.5595  0.2564
  848MOL0     H14443   1.930   5.387   0.944 -0.0241  0.1662 -0.6357
  848MOL0     H14444   2.494   5.557   1.242  0.3212 -1.0082  1.7539
  848MOL0     H14445   2.712   5.654   1.193 -1.8462  1.1863 -1.1427
  848MOL0     H14446   3.060   5.646   1.122 -2.7756  3.7741  1.2118
  848MOL0     H14447   2.924   5.643   1.234 -0.2530  3.7445 -3.1909
  848MOL0     H14448   3.129   5.534   1.344 -0.7587 -3.6707  2.6770
  848MOL0     H14449   2.999   5.428   1.331 -0.9262 -0.4230 -1.0979
  848MOL0     H14450   3.117   5.318   1.128  0.4003 -0.1512  0.8835
  848MOL0     H14451   3.208   5.320   1.284  3.9285 -0.1590 -1.2732
  848MOL0     H14452   3.275   5.477   1.042 -1.4749  2.4041  0.9056
  848MOL0     H14453   3.328   5.525   1.197  2.6578  1.0283 -2.7490
  848MOL0     H14454   3.356   5.247   1.048 -1.4151  0.7909  0.1785
  848MOL0     H14455   3.408   5.262   1.212  0.6326  1.1334  0.4679
  848MOL0     H14456   3.607   5.304   1.051  2.1840  2.1154  1.8536
  848MOL0     H14457   3.508   5.427   0.980 -2.1631 -0.3193 -0.2506
  848MOL0     H14458   3.534   5.562   1.216  0.3555  0.7553 -0.1454
  848MOL0     H14459   3.676   5.529   1.139  1.3979 -1.3580  2.1677
  848MOL0     H14460   3.732   5.431   1.351  1.3238 -3.9658 -0.6833
  848MOL0     H14461   3.660   5.282   1.285 -1.9413 -0.6912 -0.5027
  848MOL0     H14462   2.817   5.303   0.985  1.6919  1.1119  1.1004
  848MOL0     H14463   2.592   5.200   1.072  1.6520  0.3266  0.3963
  848MOL0     H14464   2.278   5.159   1.309  0.4112  1.2461 -0.7198
  848MOL0     H14465   2.083   5.078   1.419 -3.2880 -1.9069 -0.2824
  848MOL0     H14466   1.895   4.572   0.447 -0.9839  0.0958 -0.3827
  848MOL0     H14467   2.046   4.715   0.337  0.9997  1.2311  0.4063
  848MOL0     H14468   1.980   5.204   0.045  0.5219 -0.9707 -0.9074
  848MOL0     H14469   2.100   5.411  -0.017 -2.8867 -1.3727 -0.0973
  848MOL0     H14470   2.194   5.590  -0.042  1.0020  1.4860 -2.0126
  848MOL0     H14471   2.188   5.667   0.115  2.0932  0.5521  1.7551
  848MOL0     H14472   2.312   5.810  -0.059 -0.5399  0.9374  1.4549
  848MOL0     H14473   2.399   5.664  -0.117 -1.3523  1.3700 -0.8818
  848MOL0     H14474   2.538   5.672   0.063  1.6770  0.8183  0.7293
  848MOL0     H14475   2.453   5.809   0.148  0.5336  0.2880 -0.4269
  848MOL0     H14476   2.640   5.924   0.037 -1.3867  2.9053 -0.7827
  848MOL0     H14477   2.487   5.943  -0.060 -2.0498 -2.7820  1.1194
  848MOL0     H14478   2.725   5.712  -0.324 -2.8266  0.7619 -1.3541
  848MOL0     H14479   2.406   5.333   0.276  1.2244  2.7695 -2.3237
  848MOL0     H14480   2.284   5.133   0.336  1.8929  3.1136  1.7668
  849MOL0     O14481   3.864   4.121   9.357  0.0906 -0.1673 -0.3770
  849MOL0     C14482   3.903   4.121   9.241  0.1305  0.1972 -0.7663
  849MOL0     O14483   4.035   4.081   9.208  0.0903  0.0046  0.7472
  849MOL0     C14484   4.120   4.054   9.314 -0.2358  0.1008  1.0664
  849MOL0     C14485   4.227   4.137   9.347  0.2620 -1.0122  0.7782
  849MOL0     C14486   4.335   4.094   9.432 -0.1590 -0.2507 -1.5196
  849MOL0     C14487   4.332   3.968   9.501  0.3531  0.0216  0.1991
  849MOL0     O14488   4.439   3.934   9.575  0.5012  0.2985 -0.3111
  849MOL0     C14489   4.445   3.806   9.639 -0.4743 -0.0629  0.0636
  849MOL0     C14490   4.583   3.751   9.604 -0.0764 -1.0565  1.5307
  849MOL0     C14491   4.698   3.819   9.666 -1.1125  0.2079 -0.0503
  849MOL0     C14492   4.830   3.737   9.661 -0.2866  0.0415  0.1523
  849MOL0     C14493   4.960   3.781   9.738 -0.1653 -0.3870 -0.5690
  849MOL0     C14494   5.010   3.930   9.728  0.0054 -0.2099 -0.3038
  849MOL0     C14495   5.106   3.974   9.831  0.3456 -0.5557  0.2432
  849MOL0     C14496   5.253   3.946   9.797 -0.6033  0.0741 -0.5130
  849MOL0     N14497   5.288   3.803   9.799  0.4126  0.8786 -0.0712
  849MOL0     C14498   5.274   3.712   9.904  0.2532  0.3575  0.1836
  849MOL0     C14499   5.317   3.590   9.861 -0.8012  0.0229 -0.0873
  849MOL0     C14500   5.305   3.454   9.935 -0.1809  0.5550 -0.4415
  849MOL0     C14501   5.178   3.379   9.894 -0.2291 -0.3641  0.3737
  849MOL0     C14502   5.050   3.428   9.950  1.1211 -0.1317  0.0158
  849MOL0     C14503   4.925   3.340   9.924  1.1803 -0.3923 -0.1619
  849MOL0     O14504   4.806   3.418   9.946 -0.5928 -0.3216  0.3020
  849MOL0     C14505   4.683   3.368   9.928 -0.0219 -0.4707 -0.4200
  849MOL0     C14506   4.586   3.462   9.909 -0.1327 -0.3614 -0.3139
  849MOL0     C14507   4.450   3.436   9.921  1.4715 -0.5776  0.0035
  849MOL0     C14508   4.356   3.546   9.887  0.5509 -0.1831  0.3549
  849MOL0     C14509   4.404   3.306   9.942 -0.0123 -0.6680 -0.5300
  849MOL0     C14510   4.264   3.253   9.942  0.4621 -0.1635 -0.7536
  849MOL0     O14511   4.243   3.141  10.017 -1.1156 -0.0177 -0.4222
  849MOL0     C14512   4.115   3.098  10.038  0.9875 -0.3778 -0.0445
  849MOL0     C14513   4.052   3.023   9.941  0.2289  0.5440  0.1089
  849MOL0     C14514   3.913   2.992   9.957  0.7888  0.4890  0.1213
  849MOL0     C14515   3.837   3.033  10.073 -0.0508 -0.3268  0.7137
  849MOL0     O14516   3.706   2.993  10.086 -0.4514  0.5218 -0.0836
  849MOL0     C14517   3.679   2.925  10.212  0.3509  0.2749 -0.2200
  849MOL0     C14518   3.536   2.867  10.206 -0.4413  0.1695  0.8607
  849MOL0     C14519   3.518   2.759  10.092 -0.4036  0.5939  0.4920
  849MOL0     C14520   3.384   2.679  10.109  0.2322  0.5264 -0.4747
  849MOL0     C14521   3.274   2.767  10.045  0.5663  0.5804  0.9782
  849MOL0     C14522   3.141   2.699  10.063  0.9376  0.0762 -0.5336
  849MOL0     C14523   3.021   2.800  10.056  1.1101 -0.1913 -1.2357
  849MOL0     C14524   2.883   2.744  10.063  0.1262 -0.1238 -0.1354
  849MOL0    Cl14525   2.854   2.685  10.231 -0.2226  0.0617  0.3953
  849MOL0     C14526   3.908   3.110  10.171 -0.7020 -0.4955 -0.6682
  849MOL0     C14527   4.036   3.144  10.146 -0.3425 -0.2530  0.1244
  849MOL0     O14528   4.178   3.320   9.889  0.1717  0.1992 -0.3422
  849MOL0     C14529   4.510   3.213   9.970  0.2743 -0.2579 -0.0232
  849MOL0     C14530   4.645   3.242   9.959  0.6415  0.4939 -0.3369
  849MOL0     N14531   5.357   3.606   9.723 -0.6186  0.5023 -0.5386
  849MOL0     N14532   5.338   3.733   9.696  0.2373  0.7036  0.3415
  849MOL0     C14533   4.212   3.893   9.475  0.3773 -0.0776 -0.6677
  849MOL0     C14534   4.109   3.933   9.389 -0.9238  0.1111 -0.5327
  849MOL0     C14535   3.810   4.142   9.126 -0.2782  0.1846  0.6529
  849MOL0     C14536   3.858   4.162   8.998  0.5527 -0.8115 -0.9834
  849MOL0     C14537   3.773   4.172   8.886  1.0086 -0.0292  1.2006
  849MOL0     C14538   3.636   4.176   8.888  0.5710  1.0596  0.1515
  849MOL0     O14539   3.547   4.204   8.784  0.5396 -0.3768  0.4675
  849MOL0     C14540   3.615   4.274   8.679  0.6953  0.3189 -0.3956
  849MOL0     C14541   3.512   4.333   8.574 -0.7625 -0.7796 -0.4962
  849MOL0     C14542   3.467   4.476   8.611 -0.1543  0.3001 -0.7944
  849MOL0     C14543   3.366   4.476   8.733  0.1928  0.3516 -0.1561
  849MOL0     C14544   3.232   4.422   8.698  0.4618 -0.2434  0.4965
  849MOL0     C14545   3.119   4.380   8.674  0.1881  0.0511  0.4355
  849MOL0     C14546   3.580   4.150   9.030  0.5016 -0.2511 -0.0447
  849MOL0     C14547   3.670   4.132   9.138 -0.0701 -0.5378 -0.0390
  849MOL0     H14548   4.227   4.231   9.292 -0.5540 -0.8425  1.0578
  849MOL0     H14549   4.412   4.170   9.434 -2.7025  2.5067  1.7582
  849MOL0     H14550   4.449   3.833   9.744  1.0354  0.5830 -0.1332
  849MOL0     H14551   4.376   3.726   9.612 -1.8790  0.6606  1.3853
  849MOL0     H14552   4.590   3.650   9.646  2.3044 -0.7823  1.9342
  849MOL0     H14553   4.603   3.749   9.497 -1.7212  0.3677  1.1464
  849MOL0     H14554   4.734   3.910   9.617  2.6550 -1.5103 -0.8095
  849MOL0     H14555   4.670   3.838   9.770  0.8571  0.9463  0.3879
  849MOL0     H14556   4.802   3.636   9.693  1.5530 -0.4162  0.4420
  849MOL0     H14557   4.853   3.720   9.555 -0.0713 -1.6136  0.4427
  849MOL0     H14558   4.952   3.751   9.842 -0.3886 -2.4752 -1.1460
  849MOL0     H14559   5.043   3.714   9.714  1.2570  0.8597  0.6844
  849MOL0     H14560   5.049   3.948   9.628 -2.5513 -0.9184 -1.4938
  849MOL0     H14561   4.923   3.996   9.734 -1.0113 -1.3485 -1.7796
  849MOL0     H14562   5.093   4.082   9.840 -1.3325 -0.8130  1.2226
  849MOL0     H14563   5.082   3.938   9.931 -0.1128  0.8387  0.6454
  849MOL0     H14564   5.315   3.993   9.874 -1.2323  1.1676 -0.6574
  849MOL0     H14565   5.273   3.978   9.694 -0.4217  0.6503 -0.2974
  849MOL0     H14566   5.237   3.745  10.000 -1.3288 -0.6206 -0.0568
  849MOL0     H14567   5.394   3.391   9.946 -1.8010 -2.1557 -1.8977
  849MOL0     H14568   5.302   3.480  10.042  1.0044 -0.7285 -0.0686
  849MOL0     H14569   5.184   3.272   9.914 -2.1908 -0.5400  0.2157
  849MOL0     H14570   5.182   3.403   9.787 -0.3552  3.3726  1.0723
  849MOL0     H14571   5.027   3.525   9.905  0.1339 -0.5903 -0.5078
  849MOL0     H14572   5.061   3.449  10.057  0.1897  2.0970 -0.2705
  849MOL0     H14573   4.929   3.251   9.987 -0.4812  0.0963  0.6887
  849MOL0     H14574   4.931   3.308   9.819 -0.9583  0.5190 -0.6149
  849MOL0     H14575   4.622   3.563   9.896 -0.9590  0.0179  0.2834
  849MOL0     H14576   4.279   3.569   9.962 -2.6574 -1.6583 -2.2437
  849MOL0     H14577   4.417   3.636   9.873 -0.1338 -0.0115 -1.8337
  849MOL0     H14578   4.312   3.530   9.789  1.2003  4.0501 -0.8155
  849MOL0     H14579   4.107   2.987   9.855  2.6323 -3.9826  3.0988
  849MOL0     H14580   3.867   2.926   9.884 -2.1028 -1.3598  3.3067
  849MOL0     H14581   3.754   2.851  10.238  0.2329  0.6872  1.4202
  849MOL0     H14582   3.680   2.997  10.295  0.4869 -1.3731  1.2583
  849MOL0     H14583   3.537   2.800  10.293  1.7707  0.3056  0.9736
  849MOL0     H14584   3.464   2.949  10.199 -1.1562 -0.5947 -3.0082
  849MOL0     H14585   3.603   2.692  10.103 -0.3803  0.5049 -0.2002
  849MOL0     H14586   3.532   2.795   9.989  0.3160 -2.9851 -0.8052
  849MOL0     H14587   3.373   2.580  10.064  0.0290  0.4448 -0.2444
  849MOL0     H14588   3.364   2.665  10.216  3.5931  1.8068  0.4776
  849MOL0     H14589   3.300   2.783   9.940  2.0419  1.0772  1.3821
  849MOL0     H14590   3.272   2.860  10.102  0.0812 -0.3589  2.5626
  849MOL0     H14591   3.138   2.626   9.981 -1.1353  1.0315 -1.3620
  849MOL0     H14592   3.141   2.646  10.159  2.7104  2.4991  0.9109
  849MOL0     H14593   3.032   2.857   9.963 -1.1940  1.2316 -0.6976
  849MOL0     H14594   3.031   2.868  10.141  0.5117 -0.9143 -0.5790
  849MOL0     H14595   2.867   2.663   9.991 -0.6224  1.5590 -1.9573
  849MOL0     H14596   2.807   2.819  10.043  1.3390  1.3495  0.5934
  849MOL0     H14597   3.861   3.144  10.262  0.2887 -1.0755  0.0695
  849MOL0     H14598   4.085   3.211  10.216  2.0503 -1.2600 -0.5056
  849MOL0     H14599   4.477   3.112   9.991  1.4473 -0.7799 -0.6230
  849MOL0     H14600   4.716   3.162   9.979  0.4400  0.0175 -1.4471
  849MOL0     H14601   4.190   3.798   9.522  2.7503 -0.8709 -1.0098
  849MOL0     H14602   4.022   3.870   9.371 -1.6411  1.5602 -2.4723
  849MOL0     H14603   3.964   4.151   8.978  0.6535  1.5219 -1.9652
  849MOL0     H14604   3.825   4.174   8.791 -1.3935  0.1115 -0.1723
  849MOL0     H14605   3.679   4.350   8.725  0.9405 -1.6693  2.8592
  849MOL0     H14606   3.675   4.198   8.629  0.1301 -0.3598 -0.0559
  849MOL0     H14607   3.429   4.262   8.578 -0.9056 -0.5683  0.4615
  849MOL0     H14608   3.561   4.332   8.476  2.6571 -0.6121  1.0357
  849MOL0     H14609   3.409   4.528   8.535 -2.8797 -0.6181  0.5245
  849MOL0     H14610   3.558   4.529   8.640 -1.7786  1.5321  2.5213
  849MOL0     H14611   3.366   4.576   8.777  2.1779  0.4000 -0.1751
  849MOL0     H14612   3.423   4.422   8.808  1.9001 -0.2015 -1.7675
  849MOL0     H14613   3.028   4.325   8.662  0.6932 -0.6046 -0.6521
  849MOL0     H14614   3.471   4.146   9.037  0.1177  5.2787  3.1289
  849MOL0     H14615   3.623   4.129   9.235  0.6818 -0.8518  0.3223
  850MOL0     O14616   6.944   1.233   6.580  0.4054 -0.6291 -0.1961
  850MOL0     C14617   7.024   1.166   6.526 -0.1669 -0.0134 -1.2666
  850MOL0     O14618   7.010   1.086   6.413  0.4724 -0.8291 -0.2901
  850MOL0     C14619   6.880   1.046   6.381  0.7478  0.2596 -0.1515
  850MOL0     C14620   6.844   1.068   6.251  1.2607 -0.5007 -0.6996
  850MOL0     C14621   6.712   1.050   6.214 -0.7516 -0.3048 -0.5903
  850MOL0     C14622   6.610   1.009   6.305 -0.4753  0.6538 -0.1855
  850MOL0     O14623   6.479   1.006   6.266 -0.0948 -0.7769 -0.0209
  850MOL0     C14624   6.371   1.027   6.360 -0.3870 -1.2886  1.1276
  850MOL0     C14625   6.245   1.060   6.282  0.0487 -0.8396  1.2488
  850MOL0     C14626   6.126   1.102   6.367  0.0679 -0.2911  1.0632
  850MOL0     C14627   6.027   1.146   6.261  0.2748  0.1691 -0.2744
  850MOL0     C14628   5.892   1.177   6.309  0.0479 -0.0212 -0.2795
  850MOL0     C14629   5.881   1.310   6.395 -0.2470 -0.6693  0.5422
  850MOL0     C14630   5.740   1.368   6.383  0.4748  0.8605 -0.3281
  850MOL0     C14631   5.627   1.267   6.415 -0.7481 -1.0513 -0.1520
  850MOL0     N14632   5.494   1.337   6.405 -0.2737 -0.2356 -0.3762
  850MOL0     C14633   5.476   1.468   6.391  0.4551 -0.7105  0.2359
  850MOL0     C14634   5.339   1.484   6.400 -0.6675  0.0501 -0.4004
  850MOL0     C14635   5.270   1.618   6.377 -0.3164  0.1368  0.1794
  850MOL0     C14636   5.120   1.613   6.350 -1.0258 -0.7136  0.7456
  850MOL0     C14637   5.053   1.572   6.473  0.3157  0.3082 -0.1912
  850MOL0     C14638   4.899   1.571   6.456 -0.0405 -0.1848  0.7973
  850MOL0     O14639   4.850   1.690   6.513 -0.9852  0.3992 -0.1653
  850MOL0     C14640   4.714   1.712   6.496  1.0502 -0.8465 -0.0321
  850MOL0     C14641   4.678   1.843   6.534  0.0401 -0.3449  0.0349
  850MOL0     C14642   4.549   1.897   6.529 -0.3915  0.6582 -0.6861
  850MOL0     C14643   4.532   2.042   6.563  0.0829  0.0436  0.8233
  850MOL0     C14644   4.443   1.802   6.495  0.7419 -0.0697 -0.1085
  850MOL0     C14645   4.301   1.851   6.495 -0.3777  0.2869  0.5411
  850MOL0     O14646   4.272   1.939   6.593  0.0611  0.3450 -0.0709
  850MOL0     C14647   4.149   1.978   6.617  0.2655  0.0341 -0.5196
  850MOL0     C14648   4.086   2.084   6.551 -0.4117 -0.6071  0.0242
  850MOL0     C14649   3.959   2.131   6.575 -0.7890 -1.0882  0.6163
  850MOL0     C14650   3.872   2.054   6.643  0.4454 -0.3305 -0.1936
  850MOL0     O14651   3.733   2.081   6.669  0.5344  0.3644 -0.1691
  850MOL0     C14652   3.698   2.212   6.716 -0.3783  0.3097  0.3824
  850MOL0     C14653   3.552   2.220   6.711  0.0947  0.4234  0.1710
  850MOL0     C14654   3.509   2.360   6.752  0.2468  0.7428 -0.1011
  850MOL0     C14655   3.375   2.406   6.680 -0.3904  1.0113  0.0263
  850MOL0     C14656   3.314   2.525   6.741  1.1258 -1.0763 -0.5837
  850MOL0     C14657   3.188   2.576   6.659 -0.6590  0.1713  0.5598
  850MOL0     C14658   3.065   2.478   6.668 -0.0968 -0.6271 -0.0890
  850MOL0     C14659   2.949   2.541   6.591  0.0866  0.5849  0.2220
  850MOL0    Cl14660   2.852   2.662   6.677  0.0820 -0.0968 -0.0500
  850MOL0     C14661   3.924   1.942   6.707  0.6083 -0.3618  0.0251
  850MOL0     C14662   4.065   1.907   6.702  1.0458  0.0199 -0.4149
  850MOL0     O14663   4.233   1.804   6.406  0.2311  0.2813  0.8499
  850MOL0     C14664   4.477   1.675   6.451  0.2500 -0.0869  0.1644
  850MOL0     C14665   4.612   1.625   6.452  0.3464 -0.1772  0.0121
  850MOL0     N14666   5.282   1.357   6.414 -1.1902  0.1876  0.7386
  850MOL0     N14667   5.377   1.267   6.410  0.5889 -0.3465 -0.1711
  850MOL0     C14668   6.659   0.969   6.427 -0.2959  0.2976 -0.5218
  850MOL0     C14669   6.791   0.985   6.468  0.6472  0.1210  0.7160
  850MOL0     C14670   7.162   1.173   6.584  0.3834 -0.4541 -0.6405
  850MOL0     C14671   7.258   1.092   6.540 -0.1074 -0.0029 -0.2750
  850MOL0     C14672   7.389   1.087   6.589 -0.0855 -0.4991 -0.3951
  850MOL0     C14673   7.419   1.180   6.693  0.8110  0.0503  0.4201
  850MOL0     O14674   7.546   1.202   6.737 -0.0404  0.0990 -0.2452
  850MOL0     C14675   7.628   1.090   6.732 -0.3286 -0.0494  0.5947
  850MOL0     C14676   7.753   1.094   6.825 -0.3799 -0.1910 -0.4643
  850MOL0     C14677   7.848   1.212   6.801 -0.1053 -0.1322 -0.4101
  850MOL0     C14678   7.965   1.215   6.893 -0.1625 -0.1783  0.4945
  850MOL0     C14679   8.069   1.314   6.848 -0.4541  1.0966  0.2557
  850MOL0     C14680   8.164   1.394   6.826 -0.2096 -0.1966 -0.0455
  850MOL0     C14681   7.316   1.258   6.747 -0.5262 -0.2886 -0.3426
  850MOL0     C14682   7.189   1.255   6.690 -0.1412 -0.4167  0.2570
  850MOL0     H14683   6.919   1.126   6.197  1.8244  1.3340  1.8284
  850MOL0     H14684   6.692   1.081   6.112 -0.6098 -1.0995 -0.8708
  850MOL0     H14685   6.358   0.928   6.405 -3.3384 -2.9389 -2.7370
  850MOL0     H14686   6.399   1.103   6.433  2.3166 -1.8258  0.7631
  850MOL0     H14687   6.263   1.145   6.216 -0.1389 -3.6020 -2.7446
  850MOL0     H14688   6.222   0.975   6.217 -0.8293  0.4558 -0.1820
  850MOL0     H14689   6.080   1.020   6.423 -0.9766 -1.1400 -0.9509
  850MOL0     H14690   6.158   1.183   6.433 -1.4727  0.4990  0.8805
  850MOL0     H14691   6.064   1.241   6.220 -0.3543  0.9343  0.8748
  850MOL0     H14692   6.023   1.069   6.184 -0.0349 -0.0611 -0.0301
  850MOL0     H14693   5.822   1.185   6.225  2.1999 -0.6100 -2.2440
  850MOL0     H14694   5.862   1.090   6.368  0.0772  0.0975 -0.0883
  850MOL0     H14695   5.912   1.281   6.495  1.3470  1.9365  0.8870
  850MOL0     H14696   5.950   1.391   6.371 -1.6196  0.1295 -0.8880
  850MOL0     H14697   5.733   1.454   6.449  0.4324 -0.0592  0.9085
  850MOL0     H14698   5.726   1.405   6.281  2.0785  4.1624  0.5116
  850MOL0     H14699   5.637   1.256   6.523 -2.7508  1.0520  0.3352
  850MOL0     H14700   5.631   1.174   6.358  0.1016 -0.6600 -0.7724
  850MOL0     H14701   5.546   1.549   6.374  0.7501 -0.2411  3.1172
  850MOL0     H14702   5.298   1.683   6.461  0.2114  3.1060 -2.1456
  850MOL0     H14703   5.313   1.659   6.286  0.0355  2.6705  1.3886
  850MOL0     H14704   5.101   1.543   6.268 -0.1412  2.0380 -2.0611
  850MOL0     H14705   5.099   1.711   6.305  1.8996 -0.3957 -0.1577
  850MOL0     H14706   5.076   1.639   6.557  0.4927 -0.1329  0.1175
  850MOL0     H14707   5.079   1.470   6.501 -2.3955  0.4447  3.7846
  850MOL0     H14708   4.854   1.489   6.512 -0.7195  1.8962  3.5495
  850MOL0     H14709   4.872   1.564   6.350 -2.7524 -1.5189  1.4910
  850MOL0     H14710   4.764   1.906   6.557  0.2930  0.4164 -2.6419
  850MOL0     H14711   4.487   2.093   6.477 -1.1302 -2.5578 -0.1920
  850MOL0     H14712   4.476   2.065   6.654 -1.8332  3.8414 -1.0362
  850MOL0     H14713   4.626   2.094   6.584 -0.6635  1.0331  1.8847
  850MOL0     H14714   4.149   2.137   6.481  0.2245 -1.1842  0.1368
  850MOL0     H14715   3.941   2.222   6.520  3.5633 -0.4441 -0.0823
  850MOL0     H14716   3.747   2.241   6.809 -0.0667 -0.8516  0.5900
  850MOL0     H14717   3.741   2.280   6.642  1.3210 -0.0771  0.9883
  850MOL0     H14718   3.516   2.212   6.608 -2.8406 -1.6131  1.2166
  850MOL0     H14719   3.496   2.142   6.764 -0.4709  1.0014  0.4364
  850MOL0     H14720   3.589   2.432   6.733  0.2620  1.3845  2.1050
  850MOL0     H14721   3.494   2.363   6.860  1.2366 -2.2322  0.2289
  850MOL0     H14722   3.400   2.423   6.575 -0.5436  3.7326  0.3563
  850MOL0     H14723   3.297   2.330   6.678 -0.5891  1.1864  0.7099
  850MOL0     H14724   3.394   2.598   6.750 -0.7401  0.9843  0.1249
  850MOL0     H14725   3.279   2.497   6.840 -3.0781  0.7450 -1.3363
  850MOL0     H14726   3.173   2.674   6.706  3.8598  1.5989 -0.4110
  850MOL0     H14727   3.221   2.599   6.557  0.7296 -2.5663  0.3042
  850MOL0     H14728   3.043   2.449   6.771  0.9208  0.1158  0.3547
  850MOL0     H14729   3.088   2.383   6.619 -1.1981 -0.4554 -0.9791
  850MOL0     H14730   2.889   2.451   6.580  0.1384  0.0014  3.4994
  850MOL0     H14731   2.981   2.585   6.496  0.9757  1.4724  0.9051
  850MOL0     H14732   3.855   1.882   6.766  0.7323 -0.8262 -0.2983
  850MOL0     H14733   4.109   1.822   6.752 -0.4043  0.3812  1.5997
  850MOL0     H14734   4.397   1.607   6.424 -0.1256  0.5160 -0.2495
  850MOL0     H14735   4.648   1.526   6.426  1.7377 -0.4109  2.5013
  850MOL0     H14736   6.597   0.922   6.503  2.2599 -0.2172  1.3749
  850MOL0     H14737   6.807   0.966   6.573 -2.5537 -0.1184  1.2404
  850MOL0     H14738   7.228   1.020   6.464 -0.4759 -0.4712  0.3019
  850MOL0     H14739   7.468   1.034   6.537  2.2395  1.8221  0.5292
  850MOL0     H14740   7.573   1.000   6.761 -0.0603 -0.5968 -0.5620
  850MOL0     H14741   7.678   1.080   6.635  1.2778  0.1163  1.3625
  850MOL0     H14742   7.810   1.001   6.827 -2.7566 -1.7321  1.6063
  850MOL0     H14743   7.714   1.109   6.926 -1.4898 -4.4724 -0.0511
  850MOL0     H14744   7.786   1.301   6.811 -0.7239 -0.1430 -3.2936
  850MOL0     H14745   7.887   1.213   6.699  1.3088 -0.7083  0.0926
  850MOL0     H14746   8.008   1.116   6.905 -0.8910 -0.4077  1.3240
  850MOL0     H14747   7.932   1.255   6.989  0.6078  0.4383  0.5141
  850MOL0     H14748   8.249   1.459   6.825 -2.4755  2.9867  0.2898
  850MOL0     H14749   7.333   1.330   6.827 -2.8033  0.9592 -0.8877
  850MOL0     H14750   7.128   1.340   6.720  1.1745  0.3376  0.8656
  851MOL0     O14751   3.709   1.417   1.374  0.1144 -0.4369 -0.0591
  851MOL0     C14752   3.780   1.385   1.278  0.8650 -0.9611 -0.2117
  851MOL0     O14753   3.730   1.354   1.159 -0.1132  0.4418 -0.0570
  851MOL0     C14754   3.596   1.358   1.136  0.3817  0.0019 -0.2436
  851MOL0     C14755   3.523   1.246   1.132  0.1138  0.0186  0.2532
  851MOL0     C14756   3.396   1.255   1.084  0.2725  0.4888  0.6842
  851MOL0     C14757   3.335   1.368   1.042 -0.8599  0.7093  0.7952
  851MOL0     O14758   3.214   1.376   0.991 -0.2686  0.0163 -0.8235
  851MOL0     C14759   3.196   1.394   0.852  0.9532 -0.2108  0.3479
  851MOL0     C14760   3.096   1.287   0.800 -0.5230 -0.0262 -0.2071
  851MOL0     C14761   3.000   1.344   0.699 -0.6638 -0.5977  0.0856
  851MOL0     C14762   2.863   1.269   0.679  0.0798 -1.3616  0.7346
  851MOL0     C14763   2.803   1.313   0.545  0.9799 -0.1135 -0.5816
  851MOL0     C14764   2.697   1.213   0.500  0.4110 -0.1695 -0.1782
  851MOL0     C14765   2.697   1.206   0.346 -0.2261 -0.0621 -0.0860
  851MOL0     C14766   2.584   1.107   0.302  1.2229 -0.3674 -0.1913
  851MOL0     N14767   2.606   0.967   0.341  0.7490  0.0011  0.0415
  851MOL0     C14768   2.731   0.901   0.347 -0.8862 -0.1366 -0.0067
  851MOL0     C14769   2.703   0.777   0.384  0.7699 -0.0750  0.0162
  851MOL0     C14770   2.802   0.660   0.407  0.7031 -0.6912  0.0110
  851MOL0     C14771   2.901   0.727   0.504  0.6959 -0.6494 -0.8431
  851MOL0     C14772   2.999   0.625   0.573 -0.2556 -0.5657 -0.0688
  851MOL0     C14773   3.101   0.696   0.669  0.8917 -0.1037 -0.2430
  851MOL0     O14774   3.192   0.600   0.719 -0.2693 -0.1892 -0.0068
  851MOL0     C14775   3.321   0.612   0.670  0.5475  0.3662 -0.4055
  851MOL0     C14776   3.351   0.659   0.542 -0.9846  0.5893 -0.2109
  851MOL0     C14777   3.488   0.662   0.505  0.6709 -0.7821 -0.8740
  851MOL0     C14778   3.525   0.707   0.362 -0.4739 -0.4965 -0.2407
  851MOL0     C14779   3.583   0.620   0.602 -0.5576 -0.5938 -0.5876
  851MOL0     C14780   3.729   0.604   0.569  0.7877 -0.8173 -0.6203
  851MOL0     O14781   3.778   0.483   0.549 -0.5847 -0.0750  0.1335
  851MOL0     C14782   3.913   0.489   0.552 -0.5228  0.5476 -0.5311
  851MOL0     C14783   3.986   0.513   0.672  1.6553  0.5240 -0.1091
  851MOL0     C14784   4.117   0.463   0.680 -0.4762  0.6149 -0.3859
  851MOL0     C14785   4.190   0.427   0.566 -0.0488  0.0259  0.6220
  851MOL0     O14786   4.329   0.422   0.581 -0.1555  0.2339 -0.2415
  851MOL0     C14787   4.405   0.455   0.461  0.6818 -0.5442  1.4962
  851MOL0     C14788   4.539   0.515   0.508  0.0128 -0.5231  0.0502
  851MOL0     C14789   4.630   0.437   0.602  1.4967  0.6315  0.1770
  851MOL0     C14790   4.774   0.492   0.604  0.9392  0.6859 -0.9778
  851MOL0     C14791   4.873   0.404   0.682 -1.5103 -0.0619 -0.3455
  851MOL0     C14792   4.837   0.408   0.831 -0.0644 -0.2658  0.0320
  851MOL0     C14793   4.934   0.373   0.934 -1.2072  0.4642 -0.2269
  851MOL0     C14794   4.964   0.225   0.960 -0.5010  0.2947  0.7405
  851MOL0    Cl14795   4.832   0.145   1.059  0.3242 -0.3208 -0.3770
  851MOL0     C14796   4.124   0.429   0.436  0.5439 -0.7263 -0.2640
  851MOL0     C14797   3.985   0.451   0.440  0.2230 -0.2227 -1.1441
  851MOL0     O14798   3.792   0.711   0.567  0.5692 -0.2651 -0.7464
  851MOL0     C14799   3.549   0.581   0.731 -0.0773 -0.6674  0.2345
  851MOL0     C14800   3.414   0.566   0.764 -0.0565 -0.5997  0.4551
  851MOL0     N14801   2.559   0.766   0.381 -0.2216 -0.1316  0.0162
  851MOL0     N14802   2.512   0.882   0.378  0.4034  0.0243  0.2613
  851MOL0     C14803   3.412   1.482   1.051 -0.4796 -0.9183 -0.1939
  851MOL0     C14804   3.538   1.479   1.105 -0.5502  0.4071 -0.4954
  851MOL0     C14805   3.922   1.361   1.299 -0.8501  0.9218 -0.3582
  851MOL0     C14806   3.997   1.416   1.401 -0.1892  0.3257 -0.3918
  851MOL0     C14807   4.138   1.409   1.399 -0.3490  0.3376  0.0889
  851MOL0     C14808   4.207   1.337   1.302  0.2403 -0.0606 -0.1509
  851MOL0     O14809   4.342   1.330   1.276  0.3462  0.4181 -0.7137
  851MOL0     C14810   4.426   1.373   1.381 -0.6454 -0.4957 -0.0939
  851MOL0     C14811   4.565   1.420   1.339  0.4219  0.5440 -0.0467
  851MOL0     C14812   4.645   1.489   1.447 -0.2433 -0.4528  0.4571
  851MOL0     C14813   4.794   1.528   1.417 -0.1974  0.2861 -0.4177
  851MOL0     C14814   4.888   1.414   1.400  0.4269  0.2794 -0.1668
  851MOL0     C14815   4.954   1.313   1.380  0.6880  1.0288  0.0948
  851MOL0     C14816   4.132   1.281   1.203 -0.3379  0.0066 -0.0470
  851MOL0     C14817   3.994   1.289   1.206 -0.2776 -0.0348  0.0119
  851MOL0     H14818   3.556   1.153   1.176  0.6983  0.8867  1.6964
  851MOL0     H14819   3.338   1.164   1.066 -0.3328  1.3078 -1.9935
  851MOL0     H14820   3.149   1.492   0.839 -0.8145 -1.0819 -0.1806
  851MOL0     H14821   3.285   1.379   0.790 -1.2636 -3.0071 -2.5502
  851MOL0     H14822   3.155   1.204   0.759  1.8864  1.0996  0.7673
  851MOL0     H14823   3.046   1.247   0.889 -2.8930 -0.0951 -1.5036
  851MOL0     H14824   2.969   1.443   0.733  1.9674  1.1157 -2.0910
  851MOL0     H14825   3.060   1.350   0.608  1.6762  2.6720  1.6301
  851MOL0     H14826   2.899   1.166   0.676  1.9891 -0.7328 -2.1639
  851MOL0     H14827   2.793   1.286   0.761 -0.5445  1.4188 -0.2791
  851MOL0     H14828   2.749   1.408   0.540 -2.2657 -1.8858 -3.9249
  851MOL0     H14829   2.876   1.318   0.463  2.8417 -0.5291  0.9685
  851MOL0     H14830   2.721   1.117   0.547  0.1886  0.6726  1.7421
  851MOL0     H14831   2.598   1.242   0.537  1.2060  0.8046  1.3184
  851MOL0     H14832   2.687   1.300   0.291  1.0708  0.2487  0.1680
  851MOL0     H14833   2.791   1.166   0.306 -0.1539  2.4699 -2.8066
  851MOL0     H14834   2.572   1.105   0.194 -2.8591 -0.4560  0.1077
  851MOL0     H14835   2.487   1.144   0.336  1.5373 -1.7588  2.4961
  851MOL0     H14836   2.828   0.941   0.319 -2.6795  3.4647 -1.7750
  851MOL0     H14837   2.759   0.563   0.433 -0.6999  0.0958  0.7396
  851MOL0     H14838   2.854   0.653   0.311 -0.3891  2.4389 -0.9240
  851MOL0     H14839   2.856   0.770   0.594  3.3469 -3.4563  2.0862
  851MOL0     H14840   2.959   0.799   0.447 -0.9920  3.5962  2.2881
  851MOL0     H14841   3.058   0.570   0.499 -0.2804  0.9719 -1.3041
  851MOL0     H14842   2.937   0.555   0.629 -1.4243 -0.8305 -1.6276
  851MOL0     H14843   3.044   0.728   0.756  0.8315  2.0995 -1.0217
  851MOL0     H14844   3.136   0.787   0.620 -0.6914  1.2482  1.0553
  851MOL0     H14845   3.277   0.685   0.468 -1.4382 -3.4892 -1.4630
  851MOL0     H14846   3.556   0.811   0.346 -1.6050 -0.6234 -4.5423
  851MOL0     H14847   3.604   0.643   0.321  0.1085 -0.0118  0.1133
  851MOL0     H14848   3.446   0.689   0.288  0.1341 -0.7640 -0.8407
  851MOL0     H14849   3.935   0.551   0.760  2.0674  0.8904 -0.0194
  851MOL0     H14850   4.170   0.469   0.775 -1.7657 -0.5263  0.4622
  851MOL0     H14851   4.434   0.362   0.411 -1.1248 -0.2909 -0.1213
  851MOL0     H14852   4.350   0.512   0.387  2.0772 -1.3852 -0.2520
  851MOL0     H14853   4.601   0.530   0.420  0.2243 -2.0656 -0.0798
  851MOL0     H14854   4.521   0.619   0.537  0.2021 -0.5291  0.1960
  851MOL0     H14855   4.640   0.333   0.569 -1.6403  0.1483  0.4727
  851MOL0     H14856   4.581   0.438   0.699 -1.9948 -0.1183 -1.4058
  851MOL0     H14857   4.805   0.493   0.499  0.1568 -0.5400 -1.2322
  851MOL0     H14858   4.774   0.594   0.644  1.8333  0.6954 -0.9696
  851MOL0     H14859   4.969   0.454   0.667 -2.0647  0.5920 -1.9074
  851MOL0     H14860   4.880   0.302   0.645 -0.0729 -0.9218  2.0695
  851MOL0     H14861   4.817   0.513   0.854  0.6694 -0.3527  1.1008
  851MOL0     H14862   4.746   0.351   0.850 -0.7192 -0.0638 -2.1546
  851MOL0     H14863   4.908   0.426   1.026 -2.0428  0.6636 -0.5708
  851MOL0     H14864   5.031   0.417   0.908 -0.0406  1.2006  4.4908
  851MOL0     H14865   5.059   0.215   1.013  0.2892  0.3580 -0.6191
  851MOL0     H14866   4.980   0.167   0.869  1.6129  0.1886  1.1298
  851MOL0     H14867   4.182   0.417   0.345  2.5512 -2.6296  1.1721
  851MOL0     H14868   3.928   0.437   0.349  1.8927 -0.0792 -2.2430
  851MOL0     H14869   3.619   0.561   0.811  0.0173 -2.1065 -0.1711
  851MOL0     H14870   3.371   0.548   0.862 -0.1203  0.3898  0.6218
  851MOL0     H14871   3.393   1.587   1.030 -0.7544 -0.1356  3.3327
  851MOL0     H14872   3.599   1.569   1.097 -2.3570  1.7207 -0.1743
  851MOL0     H14873   3.949   1.469   1.483 -0.4003  0.9655 -0.9216
  851MOL0     H14874   4.183   1.468   1.478  0.0444  1.0705 -0.6556
  851MOL0     H14875   4.380   1.463   1.424  0.9980  0.5496 -0.4085
  851MOL0     H14876   4.437   1.301   1.462 -1.3321 -0.7544 -0.2221
  851MOL0     H14877   4.550   1.491   1.258 -2.4004  1.2337  0.9854
  851MOL0     H14878   4.614   1.327   1.307  1.4248  1.0693 -0.0919
  851MOL0     H14879   4.636   1.437   1.543  0.2392  0.0634  0.7924
  851MOL0     H14880   4.592   1.583   1.466  2.0323  0.4177  3.3488
  851MOL0     H14881   4.834   1.586   1.500 -1.7317 -0.7853  1.1309
  851MOL0     H14882   4.791   1.597   1.332 -3.0799  0.4987 -0.2331
  851MOL0     H14883   5.031   1.246   1.348  0.4006  1.1420 -0.8445
  851MOL0     H14884   4.182   1.237   1.118 -0.1730 -0.6387  0.3716
  851MOL0     H14885   3.941   1.244   1.122  2.3451  0.4916 -2.0462
  852MOL0     O14886   8.280   2.255  10.405  0.2293 -0.2590  0.5565
  852MOL0     C14887   8.227   2.226  10.511  0.9592  0.5503 -0.6939
  852MOL0     O14888   8.302   2.219  10.633  0.0517 -0.7749  0.0880
  852MOL0     C14889   8.429   2.257  10.650  0.8226 -0.1191  0.2829
  852MOL0     C14890   8.470   2.383  10.606  0.3947  0.2056 -0.1815
  852MOL0     C14891   8.602   2.424  10.617 -0.2156 -0.2106 -0.4158
  852MOL0     C14892   8.704   2.336  10.651  0.8542 -0.4758 -0.0631
  852MOL0     O14893   8.840   2.372  10.654  1.0190 -0.7950  0.8065
  852MOL0     C14894   8.915   2.304  10.551  0.1218  0.3679  0.0455
  852MOL0     C14895   8.901   2.395  10.431 -0.6913  0.3047 -0.4651
  852MOL0     C14896   8.906   2.550  10.450 -0.0900  0.3666 -0.5660
  852MOL0     C14897   9.014   2.607  10.539 -0.4382 -0.1298  0.3722
  852MOL0     C14898   9.150   2.558  10.494  0.0002  0.5108  0.2782
  852MOL0     C14899   9.212   2.605  10.368 -0.1748 -0.3473  0.4563
  852MOL0     C14900   9.363   2.577  10.359  0.4020  0.7904  0.1724
  852MOL0     C14901   9.447   2.690  10.305 -1.2739  0.5638  0.3028
  852MOL0     N14902   9.414   2.712  10.170  0.5450 -0.2993  0.9914
  852MOL0     C14903   9.369   2.836  10.127  0.0860 -0.8097  0.5923
  852MOL0     C14904   9.349   2.829   9.990  0.3399  0.6989 -0.6708
  852MOL0     C14905   9.301   2.933   9.900 -0.0016  0.6675  0.3672
  852MOL0     C14906   9.163   2.975   9.937  0.1825 -0.1292 -0.3264
  852MOL0     C14907   9.109   3.067   9.824  0.1234 -0.8191  0.7780
  852MOL0     C14908   8.964   3.100   9.837  0.5058  0.4600 -0.2181
  852MOL0     O14909   8.912   3.125   9.966  0.1520  0.2559  0.6466
  852MOL0     C14910   8.792   3.182   9.978 -0.6300 -0.6494 -0.4497
  852MOL0     C14911   8.745   3.202  10.104  0.6053 -0.5564 -0.2338
  852MOL0     C14912   8.619   3.262  10.128 -0.1183 -0.1501  0.1944
  852MOL0     C14913   8.585   3.293  10.270  0.7653  0.0262  0.7645
  852MOL0     C14914   8.533   3.287  10.025  0.6557 -0.7875  0.7746
  852MOL0     C14915   8.392   3.348  10.046 -0.4778  0.5598 -0.2588
  852MOL0     O14916   8.346   3.430   9.949 -0.0745  0.5802 -0.0644
  852MOL0     C14917   8.213   3.471   9.957 -0.2464  0.5067  0.0582
  852MOL0     C14918   8.127   3.418   9.866  0.5169 -0.4007 -0.5056
  852MOL0     C14919   7.992   3.456   9.857 -0.7617 -0.1173  0.7334
  852MOL0     C14920   7.945   3.566   9.931  0.4521  1.1507 -0.7743
  852MOL0     O14921   7.817   3.612   9.940  0.7771 -0.2222 -0.0751
  852MOL0     C14922   7.713   3.536   9.878 -0.6873  0.3914  0.1157
  852MOL0     C14923   7.579   3.578   9.933 -0.8840  1.2856  0.8169
  852MOL0     C14924   7.474   3.504   9.845 -0.5608  0.0140 -0.2601
  852MOL0     C14925   7.340   3.571   9.842  0.2391 -0.4657  0.0800
  852MOL0     C14926   7.240   3.487   9.770  0.3481  0.2386  0.4289
  852MOL0     C14927   7.108   3.558   9.711  0.3221  0.3306 -0.7887
  852MOL0     C14928   7.060   3.680   9.794 -1.1034 -0.3873 -1.1713
  852MOL0     C14929   6.930   3.738   9.738  0.0313 -0.4218  0.9592
  852MOL0    Cl14930   6.814   3.602   9.752 -0.1329  0.0245  0.1849
  852MOL0     C14931   8.032   3.624  10.027 -0.2994 -0.4764  0.7248
  852MOL0     C14932   8.164   3.574  10.037 -0.4271  0.0427 -0.2387
  852MOL0     O14933   8.322   3.307  10.138 -0.0991 -0.5187 -0.3805
  852MOL0     C14934   8.581   3.266   9.894 -1.2006 -0.8833  0.7458
  852MOL0     C14935   8.710   3.218   9.869  0.5017 -0.0863 -0.6285
  852MOL0     N14936   9.373   2.692   9.958  0.2154  0.0173  0.9297
  852MOL0     N14937   9.403   2.625  10.066 -0.5102 -0.7728 -0.2632
  852MOL0     C14938   8.660   2.204  10.691 -0.8951  0.7255  0.4890
  852MOL0     C14939   8.528   2.167  10.690  0.2084  0.1973  0.2756
  852MOL0     C14940   8.090   2.178  10.508 -0.3839 -0.4112 -0.5931
  852MOL0     C14941   8.024   2.179  10.392  0.4706 -0.5370 -0.3432
  852MOL0     C14942   7.892   2.127  10.385 -0.7149 -0.5510  1.0923
  852MOL0     C14943   7.829   2.063  10.485  0.0705 -0.1341 -0.2932
  852MOL0     O14944   7.700   2.021  10.470  0.6536 -0.5658 -0.5682
  852MOL0     C14945   7.642   1.947  10.575  0.3324  0.2878  0.2576
  852MOL0     C14946   7.543   1.840  10.535  0.1409 -0.2017  0.0265
  852MOL0     C14947   7.494   1.782  10.666  0.6876 -0.1413 -0.1231
  852MOL0     C14948   7.426   1.644  10.646  0.2561 -0.2948 -0.3014
  852MOL0     C14949   7.288   1.663  10.595 -0.1621  0.2278  0.5041
  852MOL0     C14950   7.179   1.681  10.541 -0.4224 -1.0277 -0.1928
  852MOL0     C14951   7.897   2.064  10.607  0.1249 -0.3127  0.8659
  852MOL0     C14952   8.032   2.114  10.618 -0.5335  0.6164 -0.1653
  852MOL0     H14953   8.387   2.449  10.582  0.1401 -0.8396 -2.4688
  852MOL0     H14954   8.626   2.526  10.589 -0.3875  0.5734  2.0439
  852MOL0     H14955   9.020   2.300  10.580  0.3034  1.9206 -0.2848
  852MOL0     H14956   8.867   2.208  10.530 -1.5158  1.8239 -3.5853
  852MOL0     H14957   8.983   2.366  10.366  0.4469 -0.0569  1.0841
  852MOL0     H14958   8.805   2.368  10.385 -2.9447  0.9579  3.3250
  852MOL0     H14959   8.902   2.598  10.351 -1.4706  0.7539 -0.3338
  852MOL0     H14960   8.818   2.584  10.505 -0.8211 -0.5161 -1.1520
  852MOL0     H14961   9.012   2.716  10.537 -0.2832 -0.0923  1.8354
  852MOL0     H14962   8.992   2.582  10.643 -2.0796 -0.4539 -0.0211
  852MOL0     H14963   9.218   2.587  10.575 -0.4548  1.6867  0.2606
  852MOL0     H14964   9.161   2.450  10.483 -0.5611  0.5667 -1.1468
  852MOL0     H14965   9.157   2.540  10.300  3.3589 -1.7259 -1.3341
  852MOL0     H14966   9.193   2.713  10.367  0.4773 -0.2204  0.8432
  852MOL0     H14967   9.398   2.558  10.461  1.2790  1.3796 -0.0030
  852MOL0     H14968   9.378   2.487  10.299 -1.1975  1.3849 -1.1985
  852MOL0     H14969   9.553   2.663  10.312 -1.1310  1.0817  0.1982
  852MOL0     H14970   9.435   2.779  10.367 -0.6036  0.2601  0.8866
  852MOL0     H14971   9.364   2.931  10.179  1.4442 -0.6177  0.4147
  852MOL0     H14972   9.370   3.018   9.905  1.1424 -0.2870  1.8985
  852MOL0     H14973   9.295   2.877   9.806  2.0473  2.5314 -0.9615
  852MOL0     H14974   9.174   3.030  10.030 -0.9323  0.2713 -0.4127
  852MOL0     H14975   9.088   2.896   9.944  0.9285 -0.6810  3.4380
  852MOL0     H14976   9.130   3.023   9.726  1.1260  0.3073  0.4607
  852MOL0     H14977   9.162   3.163   9.827 -1.4548  0.0999  0.8625
  852MOL0     H14978   8.901   3.023   9.792 -0.5042  2.3759 -2.2805
  852MOL0     H14979   8.952   3.194   9.783 -0.7872 -0.0131 -0.7879
  852MOL0     H14980   8.815   3.198  10.187 -0.5817  0.4382  0.8652
  852MOL0     H14981   8.492   3.238  10.284  0.0377  0.7647 -0.8138
  852MOL0     H14982   8.662   3.258  10.338  0.4408 -1.0685  0.5921
  852MOL0     H14983   8.573   3.399  10.296  1.3355  0.6191 -1.1636
  852MOL0     H14984   8.174   3.349   9.797  2.1965 -0.6110  0.7577
  852MOL0     H14985   7.935   3.395   9.787  2.7474 -2.4184 -0.3901
  852MOL0     H14986   7.728   3.547   9.770 -0.3952  2.0032  0.3034
  852MOL0     H14987   7.725   3.435   9.919 -1.7877 -0.0125 -0.4922
  852MOL0     H14988   7.568   3.566  10.041  0.6948  2.4028  1.1286
  852MOL0     H14989   7.570   3.685   9.916  0.8017  1.2744 -0.3620
  852MOL0     H14990   7.458   3.410   9.898 -1.4298  0.3249  0.0506
  852MOL0     H14991   7.502   3.497   9.739 -1.1375 -0.0780 -0.4130
  852MOL0     H14992   7.311   3.614   9.938 -0.1837 -1.2928  0.3237
  852MOL0     H14993   7.359   3.651   9.770  0.4737 -1.0074 -0.4707
  852MOL0     H14994   7.222   3.397   9.830 -1.3482  1.2122  1.4696
  852MOL0     H14995   7.284   3.446   9.679 -1.8116 -1.0760 -0.0891
  852MOL0     H14996   7.129   3.602   9.613 -3.4430  2.3407 -0.8787
  852MOL0     H14997   7.035   3.478   9.695  2.0026 -1.0608 -1.8034
  852MOL0     H14998   7.138   3.756   9.782  1.6544 -3.2289 -2.9203
  852MOL0     H14999   7.036   3.656   9.898 -1.0700 -0.9794 -1.2964
  852MOL0     H15000   6.947   3.764   9.633 -4.3833 -1.2535 -0.1301
  852MOL0     H15001   6.892   3.825   9.793 -0.9147 -0.3709  0.2448
  852MOL0     H15002   8.005   3.713  10.083  2.0157 -0.9264  2.7220
  852MOL0     H15003   8.248   3.620  10.089 -1.3311  1.1004  0.3348
  852MOL0     H15004   8.510   3.288   9.815 -0.0004 -0.8506 -0.3706
  852MOL0     H15005   8.750   3.192   9.772 -0.4516 -0.7186 -0.8730
  852MOL0     H15006   8.726   2.122  10.719 -1.7845 -0.3079 -0.3666
  852MOL0     H15007   8.503   2.063  10.708 -2.4292  0.9228  1.3108
  852MOL0     H15008   8.051   2.231  10.300 -2.2765  2.0584  0.1158
  852MOL0     H15009   7.844   2.145  10.290  0.4372  0.5062  0.6798
  852MOL0     H15010   7.711   1.902  10.647 -0.7370  0.2812  1.3142
  852MOL0     H15011   7.594   2.026  10.634  0.2175 -0.7633  1.6138
  852MOL0     H15012   7.596   1.764  10.477  0.0520 -0.8424  0.7787
  852MOL0     H15013   7.455   1.880  10.485 -0.9123  1.1719  2.7998
  852MOL0     H15014   7.434   1.856  10.720  1.4128 -1.8126  3.2616
  852MOL0     H15015   7.580   1.771  10.733  0.9065  1.9532  0.0234
  852MOL0     H15016   7.417   1.590  10.741  0.6216 -1.9441 -1.1670
  852MOL0     H15017   7.480   1.584  10.572 -1.6536 -0.2504 -1.8166
  852MOL0     H15018   7.097   1.712  10.480  1.2118  1.2124 -1.4052
  852MOL0     H15019   7.860   2.013  10.695  1.4928 -0.4732  1.3737
  852MOL0     H15020   8.087   2.095  10.709 -0.0149  0.5349 -0.4900
  853MOL0     O15021   5.858   5.761   1.601  0.1792  0.2366 -0.4507
  853MOL0     C15022   5.865   5.879   1.604 -0.4476 -0.1958  0.4329
  853MOL0     O15023   5.772   5.964   1.605 -0.3308 -0.0321 -0.4371
  853MOL0     C15024   5.651   5.948   1.548  0.2854  0.0576 -0.0946
  853MOL0     C15025   5.585   6.071   1.537 -0.4012  0.8311  0.3408
  853MOL0     C15026   5.470   6.087   1.457  0.0645  0.9633  0.8039
  853MOL0     C15027   5.407   5.972   1.407  0.6426 -0.8574  0.5927
  853MOL0     O15028   5.283   5.972   1.348 -0.1763 -0.6054  0.6883
  853MOL0     C15029   5.223   6.094   1.301 -0.2547  0.1691 -0.3133
  853MOL0     C15030   5.082   6.075   1.274  0.8794  0.4270 -0.5971
  853MOL0     C15031   4.999   6.076   1.409  0.4195 -0.4752  0.1033
  853MOL0     C15032   4.852   6.046   1.385 -0.1910  0.4414  0.1040
  853MOL0     C15033   4.774   6.049   1.520 -0.3699  0.2922 -0.3221
  853MOL0     C15034   4.622   6.042   1.509  0.3470  0.0692 -0.5909
  853MOL0     C15035   4.560   5.919   1.427 -0.4556  0.8547  0.1524
  853MOL0     C15036   4.415   5.899   1.453 -0.5097  0.2455  0.4095
  853MOL0     N15037   4.331   6.024   1.445  0.1225 -0.2966 -0.6477
  853MOL0     C15038   4.315   6.089   1.323 -0.2984  0.0783  0.6474
  853MOL0     C15039   4.213   6.177   1.331  0.4137  1.1731 -0.8554
  853MOL0     C15040   4.153   6.262   1.224 -0.4532  0.3307  0.2484
  853MOL0     C15041   4.203   6.408   1.232  0.4095  0.2295 -0.4685
  853MOL0     C15042   4.348   6.422   1.171 -0.0704 -0.0738  0.1210
  853MOL0     C15043   4.395   6.565   1.194 -0.3004  0.6349  0.1524
  853MOL0     O15044   4.518   6.597   1.134  0.4029 -0.3149  0.4943
  853MOL0     C15045   4.642   6.552   1.171 -0.1663  1.1174 -0.2058
  853MOL0     C15046   4.754   6.588   1.088 -0.3685 -0.4020  1.1578
  853MOL0     C15047   4.890   6.542   1.112  1.0173  0.3751  0.0485
  853MOL0     C15048   5.003   6.575   1.015  0.5083 -0.2129 -0.4675
  853MOL0     C15049   4.910   6.465   1.234 -0.9263 -0.0282 -0.2743
  853MOL0     C15050   5.050   6.429   1.280  0.0830 -0.4827  0.3125
  853MOL0     O15051   5.068   6.437   1.417 -0.8836  0.0527 -0.0394
  853MOL0     C15052   5.195   6.459   1.467  0.2856  0.2499 -0.4206
  853MOL0     C15053   5.225   6.414   1.591  0.2811 -0.0698 -0.7275
  853MOL0     C15054   5.358   6.422   1.640  0.8094  0.4277 -0.0586
  853MOL0     C15055   5.463   6.484   1.571  0.3237  0.5810  0.0349
  853MOL0     O15056   5.597   6.477   1.612  0.0044  0.0517 -0.2751
  853MOL0     C15057   5.660   6.608   1.624  0.2698  0.1073 -0.5564
  853MOL0     C15058   5.640   6.671   1.755 -0.1014 -0.2301  0.5912
  853MOL0     C15059   5.675   6.823   1.762  0.1333 -0.3035 -0.1530
  853MOL0     C15060   5.541   6.909   1.738  0.0951  0.8233 -0.2270
  853MOL0     C15061   5.556   7.064   1.724 -0.1702 -0.2984 -0.6070
  853MOL0     C15062   5.421   7.126   1.748  0.2565  1.1492  1.5170
  853MOL0     C15063   5.399   7.282   1.729 -0.1777  0.0934  0.0009
  853MOL0     C15064   5.455   7.357   1.858  0.7232  0.5878  0.2941
  853MOL0    Cl15065   5.618   7.406   1.821 -0.4825 -0.2055  0.2794
  853MOL0     C15066   5.431   6.537   1.448  0.8197  0.7353 -0.4213
  853MOL0     C15067   5.298   6.526   1.396 -0.1019 -0.4147 -0.0151
  853MOL0     O15068   5.130   6.390   1.197 -1.1029  0.2322  0.2187
  853MOL0     C15069   4.800   6.426   1.316  0.8757 -0.8992  0.3772
  853MOL0     C15070   4.667   6.464   1.282 -0.0358  0.1746 -0.0401
  853MOL0     N15071   4.155   6.155   1.465 -0.0994 -0.4614 -0.2269
  853MOL0     N15072   4.233   6.074   1.527 -0.5606  0.3551  0.1105
  853MOL0     C15073   5.466   5.844   1.421  0.5734 -0.0825  0.4033
  853MOL0     C15074   5.586   5.836   1.490  0.2769  0.0568  0.6584
  853MOL0     C15075   6.002   5.935   1.628 -0.7928 -0.6837  0.1136
  853MOL0     C15076   6.018   6.072   1.662  0.2950  0.1909 -0.6821
  853MOL0     C15077   6.149   6.132   1.670 -1.5731  0.0847  0.4859
  853MOL0     C15078   6.261   6.046   1.670  0.4935 -0.2844  1.0075
  853MOL0     O15079   6.386   6.106   1.685  0.4094 -0.1343  0.0141
  853MOL0     C15080   6.497   6.019   1.716 -0.2757 -1.0031 -0.5313
  853MOL0     C15081   6.617   6.110   1.760 -0.4345 -0.3042 -0.3628
  853MOL0     C15082   6.596   6.184   1.898  0.2590  0.5044 -0.8233
  853MOL0     C15083   6.712   6.270   1.926  0.6375  0.2442 -0.3313
  853MOL0     C15084   6.732   6.380   1.826  0.7741 -1.2609 -0.2831
  853MOL0     C15085   6.767   6.465   1.747  0.6295  0.0132  1.3566
  853MOL0     C15086   6.244   5.914   1.648  0.0930  0.9956 -0.1372
  853MOL0     C15087   6.118   5.853   1.626 -1.0894 -0.1436  0.2740
  853MOL0     H15088   5.623   6.160   1.586 -1.0964 -0.0890  2.7152
  853MOL0     H15089   5.427   6.187   1.453  2.4521  2.0190 -1.0555
  853MOL0     H15090   5.226   6.176   1.374  1.2261 -1.5284  1.6515
  853MOL0     H15091   5.272   6.121   1.207 -1.0544 -0.2712 -0.8773
  853MOL0     H15092   5.050   6.159   1.211  1.5559  1.9757  1.0288
  853MOL0     H15093   5.069   5.972   1.239  3.5308 -1.2559  2.7681
  853MOL0     H15094   5.033   5.999   1.480  0.5031 -0.7321 -0.2098
  853MOL0     H15095   5.005   6.172   1.460 -1.5350 -1.1284  1.7147
  853MOL0     H15096   4.803   6.120   1.321 -1.1907  0.5787  0.9970
  853MOL0     H15097   4.838   5.946   1.344 -1.5279 -1.2216  4.0907
  853MOL0     H15098   4.805   5.958   1.572 -0.0748  0.2275 -0.6085
  853MOL0     H15099   4.793   6.126   1.596 -0.0283 -0.7233  0.6459
  853MOL0     H15100   4.584   6.031   1.611 -3.6387  0.0883 -1.8857
  853MOL0     H15101   4.580   6.137   1.473 -3.0240 -0.7566  0.7528
  853MOL0     H15102   4.569   5.936   1.320 -0.2064 -0.5646 -0.0712
  853MOL0     H15103   4.610   5.822   1.441 -0.8408  0.3069 -1.9943
  853MOL0     H15104   4.402   5.849   1.549 -1.3930 -0.2765  0.0290
  853MOL0     H15105   4.378   5.827   1.380  1.5639 -2.5654  1.9309
  853MOL0     H15106   4.368   6.084   1.229 -1.0825  1.3290  0.1117
  853MOL0     H15107   4.168   6.213   1.128 -0.2507  1.6018 -0.3833
  853MOL0     H15108   4.046   6.259   1.247 -0.4283 -0.2301  0.3067
  853MOL0     H15109   4.199   6.436   1.338 -2.0359  2.2398 -1.0084
  853MOL0     H15110   4.129   6.459   1.171 -0.0245 -0.6465 -0.6876
  853MOL0     H15111   4.340   6.393   1.066 -1.4074 -1.2956  0.5289
  853MOL0     H15112   4.427   6.362   1.216  0.8832 -0.3962 -1.8788
  853MOL0     H15113   4.394   6.568   1.303 -0.1491  1.4261  0.1374
  853MOL0     H15114   4.316   6.636   1.164  0.1263  1.7008  1.4409
  853MOL0     H15115   4.737   6.651   1.001  0.0792  1.4179  2.3264
  853MOL0     H15116   5.028   6.482   0.962  2.1907  0.4645 -0.9236
  853MOL0     H15117   4.983   6.662   0.951  1.9380  0.4783 -0.0062
  853MOL0     H15118   5.090   6.609   1.071 -0.0036  2.1379 -0.9810
  853MOL0     H15119   5.150   6.365   1.654  1.5619  2.2777  2.9654
  853MOL0     H15120   5.385   6.389   1.740 -0.8896 -0.4151  0.1597
  853MOL0     H15121   5.768   6.592   1.624  0.5094  1.0125  2.7379
  853MOL0     H15122   5.637   6.681   1.546 -1.2439  1.4177  1.0433
  853MOL0     H15123   5.536   6.654   1.782 -0.7235 -0.5022 -1.7455
  853MOL0     H15124   5.703   6.626   1.833  0.0757 -0.7613  0.1525
  853MOL0     H15125   5.755   6.846   1.691 -0.1899 -2.2870 -1.2335
  853MOL0     H15126   5.709   6.848   1.863 -0.7590  0.7225 -0.0901
  853MOL0     H15127   5.489   6.872   1.650 -0.4549 -0.4590  0.6024
  853MOL0     H15128   5.484   6.893   1.830  1.6442  1.7680  0.9520
  853MOL0     H15129   5.596   7.098   1.628 -1.2350  1.0448 -0.6128
  853MOL0     H15130   5.621   7.105   1.802  0.0290 -1.0562 -0.3713
  853MOL0     H15131   5.344   7.069   1.694  1.4493  0.8956  0.0300
  853MOL0     H15132   5.382   7.114   1.850 -0.9809  1.6746  1.1304
  853MOL0     H15133   5.291   7.298   1.722 -0.3896 -1.4864 -0.8151
  853MOL0     H15134   5.434   7.315   1.631 -1.7273 -0.6845 -0.8482
  853MOL0     H15135   5.451   7.304   1.954 -2.0982 -0.5078 -0.3361
  853MOL0     H15136   5.382   7.437   1.868  1.3402  1.2862 -0.5724
  853MOL0     H15137   5.497   6.585   1.376 -0.2320  0.6976 -1.4391
  853MOL0     H15138   5.274   6.558   1.295 -1.0660 -0.8206  0.0746
  853MOL0     H15139   4.821   6.369   1.406  0.0813 -1.0462  0.4840
  853MOL0     H15140   4.586   6.432   1.347  0.7967 -2.0692 -0.0416
  853MOL0     H15141   5.413   5.759   1.379  1.4064 -0.3657 -0.0981
  853MOL0     H15142   5.629   5.736   1.496  0.4121 -0.1727 -2.4372
  853MOL0     H15143   5.931   6.133   1.684  0.4016 -0.0512  0.5099
  853MOL0     H15144   6.166   6.238   1.686  0.8240 -0.4616  2.1151
  853MOL0     H15145   6.470   5.964   1.807  3.2815 -0.5031  0.9721
  853MOL0     H15146   6.527   5.954   1.634 -0.1758 -1.8351  0.1433
  853MOL0     H15147   6.631   6.186   1.683  0.2682 -0.5422 -0.4778
  853MOL0     H15148   6.706   6.047   1.771 -0.5629 -0.5935 -0.9544
  853MOL0     H15149   6.586   6.111   1.979  2.6846 -0.2343 -1.0969
  853MOL0     H15150   6.505   6.245   1.902 -1.2289 -1.6697 -0.0242
  853MOL0     H15151   6.803   6.209   1.928 -1.4972 -3.1606  0.6500
  853MOL0     H15152   6.702   6.311   2.027  1.1483 -0.2193 -0.0836
  853MOL0     H15153   6.789   6.542   1.676  0.6344 -0.6217  0.6559
  853MOL0     H15154   6.329   5.846   1.641 -0.1363  0.7928 -1.1601
  853MOL0     H15155   6.103   5.747   1.610 -0.9569 -0.3181  1.2214
  854MOL0     O15156   9.172   3.120   9.124 -0.2507 -0.3560  0.6568
  854MOL0     C15157   9.241   3.081   9.030  0.0231  0.8105 -0.1445
  854MOL0     O15158   9.193   3.060   8.905  0.0943 -0.2948  0.4507
  854MOL0     C15159   9.066   3.094   8.872  0.5917 -0.1310 -0.1784
  854MOL0     C15160   8.962   2.998   8.862 -0.1696 -0.2319  0.1827
  854MOL0     C15161   8.833   3.041   8.826 -0.3868 -0.1772 -1.2049
  854MOL0     C15162   8.800   3.176   8.801 -0.1198  0.1188 -0.9269
  854MOL0     O15163   8.667   3.218   8.773 -0.0601 -0.3536 -0.3742
  854MOL0     C15164   8.559   3.122   8.771  0.2706 -0.3267 -0.3173
  854MOL0     C15165   8.508   3.093   8.915 -0.1291 -0.0880  0.1552
  854MOL0     C15166   8.386   3.011   8.916  0.5653 -0.4477  0.8613
  854MOL0     C15167   8.269   3.089   8.847  0.9369  0.7728 -0.9322
  854MOL0     C15168   8.141   3.004   8.825 -0.3707  0.5581  0.2850
  854MOL0     C15169   8.174   2.878   8.744  0.0136 -0.1009  0.0846
  854MOL0     C15170   8.051   2.809   8.679 -0.6626  0.0518 -0.4025
  854MOL0     C15171   7.976   2.731   8.786  0.8513  0.2807 -0.3911
  854MOL0     N15172   7.865   2.665   8.712  0.0083  0.4000 -0.2956
  854MOL0     C15173   7.861   2.524   8.720  0.0559  0.2249 -0.8082
  854MOL0     C15174   7.739   2.489   8.664 -1.0217 -0.0171 -0.3923
  854MOL0     C15175   7.705   2.339   8.637  0.4064  0.2189 -0.2625
  854MOL0     C15176   7.564   2.335   8.577 -0.3574  0.5193  0.0826
  854MOL0     C15177   7.460   2.358   8.692  0.6361 -0.5862 -0.0081
  854MOL0     C15178   7.312   2.373   8.638 -0.4406 -0.6054  0.1318
  854MOL0     O15179   7.237   2.252   8.623 -0.4139 -0.8065  0.3681
  854MOL0     C15180   7.100   2.256   8.581 -0.6775 -0.1639  0.7150
  854MOL0     C15181   7.027   2.139   8.553 -0.0385  0.8165  0.6782
  854MOL0     C15182   6.899   2.145   8.502 -0.9237 -0.2179  0.3704
  854MOL0     C15183   6.840   2.009   8.463  0.6177  0.1760 -0.2663
  854MOL0     C15184   6.832   2.266   8.476  0.5241 -1.1399  0.4000
  854MOL0     C15185   6.681   2.269   8.442  0.2710 -1.1691  0.3725
  854MOL0     O15186   6.647   2.382   8.367 -0.4895  0.3059 -0.1679
  854MOL0     C15187   6.515   2.402   8.328 -0.6339 -0.3479  0.6074
  854MOL0     C15188   6.467   2.536   8.336 -0.3037  0.3899  0.6006
  854MOL0     C15189   6.334   2.566   8.316 -0.0936 -0.8700  0.1222
  854MOL0     C15190   6.242   2.468   8.274 -1.6755 -0.5101  0.3421
  854MOL0     O15191   6.116   2.521   8.261 -0.3495  0.6944  0.2656
  854MOL0     C15192   6.006   2.443   8.305 -0.0305  0.2031 -0.2160
  854MOL0     C15193   5.876   2.479   8.235 -0.6711  0.4837 -0.0517
  854MOL0     C15194   5.801   2.601   8.291 -1.2700 -0.0933 -0.4336
  854MOL0     C15195   5.668   2.610   8.222 -0.7936  0.7726  0.0305
  854MOL0     C15196   5.574   2.715   8.260  0.8494  0.6964 -0.1462
  854MOL0     C15197   5.518   2.731   8.409 -0.5465 -1.0417  0.0886
  854MOL0     C15198   5.413   2.850   8.433 -0.4603  0.3181  0.0591
  854MOL0     C15199   5.273   2.818   8.437  0.0363  0.0790  0.6894
  854MOL0    Cl15200   5.244   2.734   8.282  0.1222 -0.2018  0.1228
  854MOL0     C15201   6.285   2.338   8.255 -0.5205 -0.1142 -0.9227
  854MOL0     C15202   6.416   2.303   8.297  0.9542 -0.0966  0.9937
  854MOL0     O15203   6.606   2.179   8.476 -0.0833  0.6333 -0.0485
  854MOL0     C15204   6.899   2.379   8.513 -0.4341 -0.6790 -0.5710
  854MOL0     C15205   7.031   2.375   8.566 -0.6811 -0.8285  0.0495
  854MOL0     N15206   7.672   2.610   8.640  0.2524  0.4166  0.7299
  854MOL0     N15207   7.741   2.718   8.677  0.0912  0.4693  0.3239
  854MOL0     C15208   8.901   3.273   8.821  0.4046  0.5852  0.8133
  854MOL0     C15209   9.029   3.228   8.863  0.5091 -0.1149  0.1499
  854MOL0     C15210   9.378   3.058   9.048 -0.4132 -0.3476  0.0984
  854MOL0     C15211   9.438   3.081   9.169 -0.5009 -0.4154  0.0287
  854MOL0     C15212   9.579   3.075   9.182  0.7218 -0.1663 -0.3342
  854MOL0     C15213   9.661   3.038   9.074  0.0970 -1.0089  0.1390
  854MOL0     O15214   9.798   3.052   9.104 -0.0636  0.2052  0.4119
  854MOL0     C15215   9.909   3.025   9.017 -0.1084 -0.4782 -0.4111
  854MOL0     C15216  10.032   3.040   9.108  0.6714  0.2726  0.4168
  854MOL0     C15217  10.167   3.039   9.034 -0.8370  0.0180  1.1485
  854MOL0     C15218  10.197   3.179   8.976 -0.5662  0.3763  0.4123
  854MOL0     C15219  10.337   3.187   8.924  0.4373  0.3308  0.9164
  854MOL0     C15220  10.444   3.197   8.880 -0.0373 -0.8918  0.1846
  854MOL0     C15221   9.597   3.018   8.946 -0.0202  0.1176  0.2805
  854MOL0     C15222   9.459   3.032   8.936 -1.1555 -0.3067  0.4767
  854MOL0     H15223   8.991   2.897   8.886  0.8094  0.4052  1.8173
  854MOL0     H15224   8.771   2.954   8.807  0.9108 -1.7429  1.1800
  854MOL0     H15225   8.479   3.165   8.710 -3.0780 -3.2304  1.6440
  854MOL0     H15226   8.588   3.035   8.711 -4.7141 -1.2455 -1.8242
  854MOL0     H15227   8.597   3.054   8.964  1.2434  0.6630 -1.6041
  854MOL0     H15228   8.492   3.187   8.968 -3.1357  0.1924 -1.0356
  854MOL0     H15229   8.408   2.924   8.854 -0.3774 -0.9504  1.2127
  854MOL0     H15230   8.361   2.981   9.018  1.1603 -0.4809  1.0021
  854MOL0     H15231   8.243   3.177   8.908 -3.1582 -0.7217 -0.2596
  854MOL0     H15232   8.292   3.119   8.744  0.4799  1.5262 -0.8279
  854MOL0     H15233   8.083   2.976   8.913 -0.5523  1.8967  0.6167
  854MOL0     H15234   8.068   3.067   8.772  0.1026  1.2871  0.4840
  854MOL0     H15235   8.244   2.896   8.662  0.7663 -1.4779  0.3901
  854MOL0     H15236   8.222   2.811   8.816  1.2889  1.1513  0.4499
  854MOL0     H15237   7.984   2.887   8.641  1.0586  1.9993  0.4062
  854MOL0     H15238   8.082   2.742   8.598  1.5746  0.2613  0.2188
  854MOL0     H15239   7.928   2.798   8.858 -1.0638 -1.8815  0.4672
  854MOL0     H15240   8.043   2.671   8.848  1.8665  2.4776  0.7673
  854MOL0     H15241   7.945   2.465   8.754  1.2249  1.7786 -0.8856
  854MOL0     H15242   7.773   2.297   8.562  0.3829  0.0958 -0.2139
  854MOL0     H15243   7.705   2.285   8.732  1.5131  0.8034  0.0861
  854MOL0     H15244   7.544   2.238   8.531  0.6434  0.2569  0.1694
  854MOL0     H15245   7.550   2.412   8.500  0.0321  0.5221  0.0100
  854MOL0     H15246   7.478   2.440   8.761 -0.1192 -1.3464  1.1162
  854MOL0     H15247   7.462   2.271   8.757  3.9568 -0.0232  0.8340
  854MOL0     H15248   7.312   2.428   8.544 -1.1543 -0.0781  0.4259
  854MOL0     H15249   7.257   2.435   8.710  3.1406  1.4945  1.2807
  854MOL0     H15250   7.091   2.053   8.570  1.5186  1.5910 -1.0317
  854MOL0     H15251   6.920   1.938   8.441  0.2982 -0.3562  0.2630
  854MOL0     H15252   6.794   1.978   8.557 -1.9461  1.6028 -0.9372
  854MOL0     H15253   6.762   2.011   8.387 -1.8332  2.2347  2.0739
  854MOL0     H15254   6.530   2.619   8.365 -0.0078  0.4561 -0.2018
  854MOL0     H15255   6.306   2.671   8.319  0.8101 -0.6121 -0.0596
  854MOL0     H15256   6.021   2.335   8.301 -2.1265 -0.1572  0.5019
  854MOL0     H15257   5.989   2.456   8.412 -0.9311 -3.0160  0.1383
  854MOL0     H15258   5.888   2.490   8.127 -0.6497  1.3015  0.0291
  854MOL0     H15259   5.808   2.394   8.251 -1.6094  1.2720  0.2400
  854MOL0     H15260   5.852   2.696   8.274  0.3352 -0.9029 -0.2723
  854MOL0     H15261   5.787   2.586   8.399  3.7178 -1.5203  0.2330
  854MOL0     H15262   5.705   2.616   8.119  1.8198 -2.0321  0.6516
  854MOL0     H15263   5.615   2.515   8.241 -2.1538  1.5465  0.2361
  854MOL0     H15264   5.494   2.707   8.186  0.7610  0.4933 -0.0319
  854MOL0     H15265   5.619   2.810   8.229 -0.9346  1.0697 -1.7890
  854MOL0     H15266   5.473   2.634   8.433 -1.9491 -0.6800 -0.9281
  854MOL0     H15267   5.599   2.760   8.476 -1.5345  3.7968 -0.4666
  854MOL0     H15268   5.436   2.926   8.357 -1.8446 -0.9970 -1.7673
  854MOL0     H15269   5.439   2.896   8.529 -0.5225  1.5836 -0.5089
  854MOL0     H15270   5.221   2.914   8.447  0.0546  0.0258  1.3536
  854MOL0     H15271   5.235   2.755   8.518 -2.6111 -0.4637 -0.8652
  854MOL0     H15272   6.214   2.267   8.213 -2.4540  0.4098  1.2426
  854MOL0     H15273   6.430   2.196   8.297 -2.6440 -0.8245 -2.6661
  854MOL0     H15274   6.844   2.471   8.502  1.0934  0.2872 -0.4547
  854MOL0     H15275   7.073   2.471   8.593 -0.1914  0.0035 -3.2032
  854MOL0     H15276   8.886   3.379   8.807  0.6511  0.2989 -2.2112
  854MOL0     H15277   9.103   3.302   8.892 -0.4147  0.8113  0.2442
  854MOL0     H15278   9.376   3.088   9.258 -0.7392 -4.8181  0.4319
  854MOL0     H15279   9.632   3.093   9.275  3.7276 -0.3998 -1.8867
  854MOL0     H15280   9.905   2.927   8.967 -0.9766 -1.0538  0.7343
  854MOL0     H15281   9.918   3.100   8.939  0.9097  0.7015  0.7949
  854MOL0     H15282  10.030   2.955   9.177 -1.4119 -1.3131 -1.4233
  854MOL0     H15283  10.020   3.134   9.163 -0.6729  2.6887 -3.6239
  854MOL0     H15284  10.178   2.962   8.957 -0.2681  1.3410 -0.1440
  854MOL0     H15285  10.249   3.030   9.106  0.7364  1.7208 -0.3194
  854MOL0     H15286  10.188   3.255   9.055  0.7206  2.0447 -0.9648
  854MOL0     H15287  10.117   3.191   8.903 -2.3622 -3.6635  1.4173
  854MOL0     H15288  10.540   3.207   8.834 -0.9876  2.3820 -1.3737
  854MOL0     H15289   9.658   2.987   8.861  0.5604  0.1895  0.6707
  854MOL0     H15290   9.416   3.013   8.838 -1.1053  1.0631  0.1730
  855MOL0     O15291   2.901  11.005   3.891  0.1712  0.7225 -0.0658
  855MOL0     C15292   2.981  10.929   3.945  0.2395 -0.2962 -0.3056
  855MOL0     O15293   3.036  10.942   4.074 -0.6186  0.7938  0.0744
  855MOL0     C15294   3.035  11.069   4.112  0.0146  0.5205 -0.7024
  855MOL0     C15295   3.143  11.156   4.075 -0.3561 -0.3632  0.2539
  855MOL0     C15296   3.129  11.294   4.102 -0.2212  1.7111 -0.0723
  855MOL0     C15297   3.013  11.352   4.161  0.5727  0.5882  0.0425
  855MOL0     O15298   3.005  11.489   4.162  0.2350 -0.2738  0.6229
  855MOL0     C15299   2.953  11.557   4.277  0.1112  0.4917 -0.4717
  855MOL0     C15300   2.946  11.706   4.248  0.9176 -0.1591 -0.3432
  855MOL0     C15301   2.851  11.777   4.350 -0.2646 -0.2884  0.1761
  855MOL0     C15302   2.836  11.928   4.311 -0.7080 -0.3452 -0.5599
  855MOL0     C15303   2.804  12.020   4.435  0.6120  0.8162  0.5679
  855MOL0     C15304   2.670  11.988   4.501  0.0634  0.4859  0.2244
  855MOL0     C15305   2.646  12.079   4.619  0.7093  0.3392  0.5806
  855MOL0     C15306   2.735  12.053   4.738 -0.2049  0.2040 -0.2367
  855MOL0     N15307   2.665  12.019   4.868  0.3001 -0.3000 -0.6494
  855MOL0     C15308   2.606  11.891   4.893  0.3703 -0.4322  0.9562
  855MOL0     C15309   2.525  11.922   4.999  0.2576 -0.1623 -0.3619
  855MOL0     C15310   2.446  11.822   5.081 -0.1652 -0.6009  0.0260
  855MOL0     C15311   2.323  11.882   5.153  1.2695 -0.2395  0.1324
  855MOL0     C15312   2.226  11.778   5.216  0.1437 -0.1406 -0.9399
  855MOL0     C15313   2.126  11.855   5.303 -0.2348  0.1855 -0.5526
  855MOL0     O15314   2.080  11.764   5.401 -0.3011  0.1827  0.4932
  855MOL0     C15315   1.972  11.796   5.471 -0.2698  0.5797 -0.5813
  855MOL0     C15316   1.983  11.819   5.610 -0.1168 -0.9417 -0.2243
  855MOL0     C15317   1.883  11.856   5.695 -0.2735  0.4128  0.2759
  855MOL0     C15318   1.912  11.882   5.840 -0.5473 -0.0900  0.5096
  855MOL0     C15319   1.758  11.861   5.638 -0.2273  0.7003 -0.1609
  855MOL0     C15320   1.639  11.906   5.710 -0.4998  0.4187 -0.1889
  855MOL0     O15321   1.514  11.876   5.657 -0.5238  0.8453 -0.8886
  855MOL0     C15322   1.398  11.901   5.730  0.2433  0.0772  0.0220
  855MOL0     C15323   1.302  11.802   5.733 -0.3112  0.3707  0.1496
  855MOL0     C15324   1.180  11.823   5.792  1.0557 -1.0240  0.0182
  855MOL0     C15325   1.147  11.945   5.853  0.8382 -0.1301  0.1891
  855MOL0     O15326   1.017  11.954   5.896 -0.8188  0.0966  0.1111
  855MOL0     C15327   0.955  12.089   5.871  0.2858 -0.6067  0.3373
  855MOL0     C15328   0.811  12.084   5.901  0.4492  0.2647  0.9164
  855MOL0     C15329   0.727  11.987   5.798 -0.1685 -0.1077 -0.3561
  855MOL0     C15330   0.575  12.024   5.806 -0.3851  0.4930 -0.0197
  855MOL0     C15331   0.494  11.938   5.714 -0.4448 -0.3775 -0.0037
  855MOL0     C15332   0.348  11.986   5.710 -0.1065 -0.0350 -0.5152
  855MOL0     C15333   0.262  11.942   5.594  0.3287  0.1021 -0.0183
  855MOL0     C15334   0.205  11.797   5.611  0.1640 -0.1296 -0.1204
  855MOL0    Cl15335   0.154  11.755   5.775 -0.1509 -0.2033  0.1924
  855MOL0     C15336   1.245  12.039   5.855 -0.0372  0.0826  0.4763
  855MOL0     C15337   1.369  12.020   5.792  0.0830 -0.0051 -0.2454
  855MOL0     O15338   1.658  11.972   5.809 -0.8433  0.2507  0.3032
  855MOL0     C15339   1.736  11.820   5.500 -0.3239 -0.0558 -0.3850
  855MOL0     C15340   1.843  11.776   5.417 -0.0485  0.1148 -0.0934
  855MOL0     N15341   2.544  12.049   5.045  0.1704  0.5111  0.5872
  855MOL0     N15342   2.619  12.106   4.967 -0.3075  0.8990  0.1190
  855MOL0     C15343   2.905  11.259   4.187  0.0154 -0.5617  0.1885
  855MOL0     C15344   2.922  11.122   4.172 -0.5912 -0.5456  1.0873
  855MOL0     C15345   3.033  10.818   3.861 -0.8584 -0.4112  0.0224
  855MOL0     C15346   2.974  10.787   3.732 -0.1819  0.3224  0.0445
  855MOL0     C15347   3.038  10.684   3.665 -0.6951 -0.0576  0.8622
  855MOL0     C15348   3.143  10.607   3.706 -0.5685  1.0189 -0.8619
  855MOL0     O15349   3.194  10.501   3.633  0.0849  0.0660 -0.3801
  855MOL0     C15350   3.115  10.453   3.525 -0.5493  0.5006 -0.1634
  855MOL0     C15351   3.195  10.340   3.461 -0.6686  0.6236  0.4835
  855MOL0     C15352   3.118  10.272   3.352  0.4574  0.8419  0.1013
  855MOL0     C15353   3.197  10.148   3.300 -0.5771  0.1005 -0.1743
  855MOL0     C15354   3.205  10.029   3.385 -0.3065  1.1077 -0.2528
  855MOL0     C15355   3.203   9.934   3.457  0.0365  0.6006  0.8242
  855MOL0     C15356   3.199  10.647   3.825 -0.6559  0.0262 -0.3004
  855MOL0     C15357   3.144  10.749   3.904 -0.3286 -0.4901  0.4731
  855MOL0     H15358   3.217  11.104   4.015 -1.7796  1.2937 -3.1547
  855MOL0     H15359   3.199  11.368   4.064  2.1246 -0.0540  0.6220
  855MOL0     H15360   2.850  11.524   4.295 -0.1447  1.6138  0.2068
  855MOL0     H15361   3.017  11.533   4.363  1.2731  0.0105 -1.4370
  855MOL0     H15362   3.046  11.750   4.258 -0.9402  5.0504 -1.0562
  855MOL0     H15363   2.915  11.716   4.144 -0.0869 -3.4684 -0.4610
  855MOL0     H15364   2.750  11.735   4.344  0.0438 -1.0763  0.4157
  855MOL0     H15365   2.890  11.770   4.452  3.9997  1.8984 -1.0722
  855MOL0     H15366   2.932  11.959   4.269  0.0455 -2.1570 -0.2491
  855MOL0     H15367   2.754  11.935   4.239  0.3467 -2.5979 -2.0955
  855MOL0     H15368   2.881  12.033   4.511  0.4121  0.1200  0.9063
  855MOL0     H15369   2.799  12.116   4.384  2.7424  1.4507  1.4805
  855MOL0     H15370   2.592  12.012   4.429 -0.1412  1.3979  0.7450
  855MOL0     H15371   2.651  11.885   4.534 -0.9898  0.7665  0.5242
  855MOL0     H15372   2.678  12.176   4.580  0.7919  0.4021  0.8008
  855MOL0     H15373   2.541  12.068   4.647  1.0704 -2.7086  1.0897
  855MOL0     H15374   2.806  12.135   4.751  0.6648 -0.7200  1.1454
  855MOL0     H15375   2.795  11.965   4.711  0.8431 -0.4497  3.6296
  855MOL0     H15376   2.610  11.805   4.826  4.5659 -0.5174  1.0310
  855MOL0     H15377   2.412  11.737   5.020  2.4817 -1.1350 -0.8480
  855MOL0     H15378   2.513  11.782   5.158  1.6756  1.1478 -0.5788
  855MOL0     H15379   2.257  11.933   5.082  0.2489  0.3675  1.4565
  855MOL0     H15380   2.356  11.956   5.227  0.7358 -0.6879  0.8338
  855MOL0     H15381   2.283  11.708   5.278  0.0616  0.3307 -0.3215
  855MOL0     H15382   2.173  11.727   5.135 -1.0208 -0.6033  0.0841
  855MOL0     H15383   2.044  11.902   5.247 -1.9175  2.6510  3.4903
  855MOL0     H15384   2.173  11.938   5.356  0.1746  0.0981 -0.7735
  855MOL0     H15385   2.077  11.807   5.663 -1.2625 -2.0418  1.6807
  855MOL0     H15386   1.900  11.985   5.874  1.4728  0.2738  0.1913
  855MOL0     H15387   1.830  11.829   5.890  0.6037 -1.6794  0.8008
  855MOL0     H15388   2.009  11.840   5.868 -1.2755 -1.3718  1.2537
  855MOL0     H15389   1.314  11.707   5.682  1.6538  0.8093 -0.2851
  855MOL0     H15390   1.099  11.753   5.776  1.2301 -1.4729  1.0467
  855MOL0     H15391   1.010  12.157   5.937  1.0674 -1.6821  0.8187
  855MOL0     H15392   0.978  12.133   5.774  1.7988  0.7931  1.2707
  855MOL0     H15393   0.792  12.068   6.008 -1.4790  2.1585  0.9143
  855MOL0     H15394   0.786  12.189   5.888  2.4294  0.5114 -1.6233
  855MOL0     H15395   0.732  11.882   5.828 -0.6668  0.5500  2.2646
  855MOL0     H15396   0.756  12.007   5.694  0.5806  1.0924  0.0656
  855MOL0     H15397   0.542  12.003   5.908  1.8360  2.0404  1.0934
  855MOL0     H15398   0.577  12.130   5.780 -0.9133  0.6512  0.5479
  855MOL0     H15399   0.503  11.836   5.753 -0.2842 -0.6770 -0.8133
  855MOL0     H15400   0.546  11.933   5.618  0.0701 -1.2225  0.3032
  855MOL0     H15401   0.295  11.976   5.805  1.8196  1.9411  0.8872
  855MOL0     H15402   0.357  12.094   5.692  1.1121  0.0645  0.5555
  855MOL0     H15403   0.313  11.946   5.497 -1.4333  5.2618 -1.0842
  855MOL0     H15404   0.175  12.008   5.584  0.3586  0.2649  0.7529
  855MOL0     H15405   0.281  11.725   5.576 -0.0889  1.5471 -4.8903
  855MOL0     H15406   0.122  11.789   5.540  1.1885 -1.4482 -1.2385
  855MOL0     H15407   1.230  12.130   5.912  1.3536 -0.3544  1.5711
  855MOL0     H15408   1.445  12.097   5.793 -0.9972  1.0770  0.0730
  855MOL0     H15409   1.632  11.813   5.469  0.0715  0.4598 -1.9279
  855MOL0     H15410   1.827  11.740   5.315  0.6279  1.5995 -0.7543
  855MOL0     H15411   2.809  11.308   4.202  2.0324  3.7127  0.4985
  855MOL0     H15412   2.839  11.052   4.181 -0.3489 -0.8530  0.9400
  855MOL0     H15413   2.892  10.844   3.689  2.3033  2.4999 -2.2074
  855MOL0     H15414   2.986  10.664   3.571  0.4810 -2.1985  0.5962
  855MOL0     H15415   3.024  10.405   3.562  0.7214 -3.1722 -1.3066
  855MOL0     H15416   3.086  10.526   3.449  0.5112 -0.9861 -2.1160
  855MOL0     H15417   3.218  10.275   3.546 -0.6999  1.2080  0.9450
  855MOL0     H15418   3.288  10.381   3.421  1.4189 -2.1727  2.0888
  855MOL0     H15419   3.095  10.341   3.270  0.5408  1.9595  0.9836
  855MOL0     H15420   3.022  10.231   3.383  1.2268 -0.8356  0.3429
  855MOL0     H15421   3.294  10.174   3.257  0.9344 -0.9807  2.3879
  855MOL0     H15422   3.134  10.121   3.215  0.3237  1.7158 -1.4208
  855MOL0     H15423   3.197   9.846   3.519  1.2723  0.1012  0.2653
  855MOL0     H15424   3.277  10.582   3.865 -0.1106 -0.6826 -2.3911
  855MOL0     H15425   3.202  10.765   3.995  1.6737  1.0332 -0.9599
  856MOL0     O15426  10.930   8.594   7.845  0.3207  0.4022 -0.2934
  856MOL0     C15427  10.944   8.515   7.936 -0.9714 -0.1907 -0.4959
  856MOL0     O15428  10.841   8.434   7.986  0.2063 -0.5545 -0.1685
  856MOL0     C15429  10.720   8.425   7.914 -0.4388 -0.0586 -0.3356
  856MOL0     C15430  10.649   8.541   7.903  0.0690 -0.2974  0.2112
  856MOL0     C15431  10.526   8.548   7.833 -0.2738  0.6853 -0.9619
  856MOL0     C15432  10.479   8.433   7.773 -0.2538  0.4993  0.3423
  856MOL0     O15433  10.357   8.437   7.710 -0.1896  0.6764 -0.4352
  856MOL0     C15434  10.323   8.343   7.604 -0.3396  0.1824  0.8244
  856MOL0     C15435  10.432   8.352   7.491 -0.4098  0.5573 -1.2115
  856MOL0     C15436  10.413   8.248   7.373  0.0622  0.8264 -0.8377
  856MOL0     C15437  10.540   8.258   7.279 -0.3352 -0.7402  1.3393
  856MOL0     C15438  10.524   8.207   7.141 -0.5088 -0.4711  0.0320
  856MOL0     C15439  10.637   8.244   7.042 -0.0708  0.0384  0.5936
  856MOL0     C15440  10.589   8.230   6.892 -0.5637 -0.2571 -0.0828
  856MOL0     C15441  10.696   8.278   6.788  0.1612 -0.1691  1.3554
  856MOL0     N15442  10.631   8.301   6.651  0.3010  0.3456  0.5007
  856MOL0     C15443  10.566   8.205   6.576 -0.5897 -0.0806  0.8221
  856MOL0     C15444  10.545   8.273   6.466  0.0232  0.2735 -0.0419
  856MOL0     C15445  10.480   8.207   6.347 -0.0549 -0.1898 -0.1065
  856MOL0     C15446  10.563   8.095   6.288  0.3847  0.5023  0.9076
  856MOL0     C15447  10.522   8.060   6.140  0.2206  0.3167 -0.7083
  856MOL0     C15448  10.377   8.026   6.119 -0.6278 -0.0195 -0.0364
  856MOL0     O15449  10.313   7.975   6.235 -0.1430 -0.0149  0.4451
  856MOL0     C15450  10.178   7.951   6.236  0.1162 -0.2025 -0.0372
  856MOL0     C15451  10.136   7.882   6.345 -0.1843  0.2507  0.2881
  856MOL0     C15452  10.005   7.838   6.358 -0.1459 -0.1415 -0.1603
  856MOL0     C15453   9.962   7.740   6.464 -0.1020 -0.0107 -0.6837
  856MOL0     C15454   9.920   7.866   6.245 -0.5362  0.6145 -0.2583
  856MOL0     C15455   9.781   7.809   6.244  0.4825 -0.4430  0.1004
  856MOL0     O15456   9.755   7.675   6.242  0.2534  0.0117  0.1658
  856MOL0     C15457   9.629   7.624   6.229  0.5902 -0.1312  0.1631
  856MOL0     C15458   9.538   7.602   6.339 -0.3985 -0.2503  0.3513
  856MOL0     C15459   9.421   7.518   6.323 -0.7814  0.1944  0.2495
  856MOL0     C15460   9.383   7.474   6.197  0.1848  0.1041  0.1033
  856MOL0     O15461   9.274   7.384   6.182 -0.3157  0.4475 -0.1876
  856MOL0     C15462   9.182   7.396   6.072 -0.3889 -0.4626 -0.1745
  856MOL0     C15463   9.046   7.410   6.122 -0.6347  0.2832  0.0917
  856MOL0     C15464   8.948   7.388   6.009  0.4566  0.2428  1.3018
  856MOL0     C15465   8.810   7.421   6.064  0.5973 -0.0487 -0.3282
  856MOL0     C15466   8.699   7.426   5.966 -0.3922 -0.1584 -0.6672
  856MOL0     C15467   8.553   7.391   6.020 -0.5589  0.4200 -0.2787
  856MOL0     C15468   8.540   7.240   6.027 -0.4318  0.1604  0.9977
  856MOL0     C15469   8.389   7.200   6.040 -0.1576 -0.1757 -0.3055
  856MOL0    Cl15470   8.311   7.276   6.177  0.1755 -0.2481 -0.4611
  856MOL0     C15471   9.464   7.511   6.087  0.3544 -0.4534  0.0723
  856MOL0     C15472   9.583   7.584   6.105 -0.2462 -0.2102  0.5697
  856MOL0     O15473   9.692   7.896   6.224 -0.4035  0.1202  0.5434
  856MOL0     C15474   9.962   7.935   6.138 -0.8899 -0.4478  0.1174
  856MOL0     C15475  10.094   7.977   6.124  0.5042  0.8447  0.0820
  856MOL0     N15476  10.595   8.402   6.475 -0.1543  0.5520  0.5796
  856MOL0     N15477  10.655   8.417   6.583  0.1478 -0.6186 -0.2145
  856MOL0     C15478  10.562   8.312   7.780  0.4050  0.1215 -0.5621
  856MOL0     C15479  10.673   8.302   7.863 -0.9745 -0.1854  0.4717
  856MOL0     C15480  11.083   8.515   7.993 -0.1359  0.3234  0.8368
  856MOL0     C15481  11.100   8.458   8.120  0.0828  0.2570  0.7258
  856MOL0     C15482  11.222   8.462   8.189 -0.8752 -0.2726 -0.6374
  856MOL0     C15483  11.334   8.515   8.129  0.4940 -0.3491  0.0207
  856MOL0     O15484  11.442   8.519   8.214 -0.0215 -0.3392 -0.1253
  856MOL0     C15485  11.569   8.571   8.160  0.0211  0.0885 -0.6084
  856MOL0     C15486  11.671   8.571   8.276 -0.0681  0.1484 -0.1443
  856MOL0     C15487  11.800   8.637   8.232 -0.4813  0.0785  0.1901
  856MOL0     C15488  11.905   8.641   8.338 -0.1540 -0.5573 -0.0736
  856MOL0     C15489  11.958   8.509   8.379 -0.2752 -0.6138 -0.0568
  856MOL0     C15490  12.004   8.406   8.411 -0.2013  0.1808 -0.8047
  856MOL0     C15491  11.314   8.581   8.007  0.0334  0.7646 -0.2270
  856MOL0     C15492  11.196   8.566   7.931  0.6794 -0.3982 -0.0929
  856MOL0     H15493  10.692   8.629   7.950 -0.4488 -0.7081  1.5001
  856MOL0     H15494  10.463   8.637   7.837 -0.9487  0.1948 -0.4600
  856MOL0     H15495  10.315   8.242   7.646 -0.4639 -0.4753 -0.7080
  856MOL0     H15496  10.226   8.365   7.559 -0.1711  0.2169  0.4700
  856MOL0     H15497  10.410   8.450   7.448 -1.9591  0.1050 -1.5189
  856MOL0     H15498  10.537   8.345   7.521 -1.0990 -3.8651  1.1298
  856MOL0     H15499  10.406   8.153   7.428  0.0212  1.6632  0.6641
  856MOL0     H15500  10.315   8.258   7.326  0.4737 -1.0881 -2.2257
  856MOL0     H15501  10.559   8.365   7.271  1.8836 -1.0575  1.7541
  856MOL0     H15502  10.634   8.226   7.325  1.1283  2.3056  0.7295
  856MOL0     H15503  10.506   8.099   7.146  2.3221 -1.0295 -0.2749
  856MOL0     H15504  10.436   8.246   7.090  0.0806 -0.8015 -1.2794
  856MOL0     H15505  10.676   8.344   7.063  3.7231 -1.8154  3.4646
  856MOL0     H15506  10.718   8.175   7.065  0.3726  0.8023  1.3802
  856MOL0     H15507  10.567   8.125   6.872 -0.7203 -0.5168  1.3590
  856MOL0     H15508  10.497   8.288   6.878 -0.8306 -0.6694 -0.0270
  856MOL0     H15509  10.792   8.225   6.783  0.7491  0.8385  1.5447
  856MOL0     H15510  10.722   8.380   6.821  2.9182  0.2983 -1.6993
  856MOL0     H15511  10.524   8.107   6.600 -1.9736  0.6744  1.6048
  856MOL0     H15512  10.375   8.181   6.358 -0.4019  0.2633 -1.9998
  856MOL0     H15513  10.466   8.293   6.281 -0.3000  0.8305  1.2355
  856MOL0     H15514  10.537   8.012   6.354 -0.4606  0.1368  0.1479
  856MOL0     H15515  10.670   8.117   6.280  0.9905 -2.3704  0.1128
  856MOL0     H15516  10.575   7.971   6.106 -2.2194 -0.1778 -3.6403
  856MOL0     H15517  10.548   8.148   6.081  0.9622  0.2202 -0.5390
  856MOL0     H15518  10.377   7.961   6.031  2.6851 -0.6165  0.2647
  856MOL0     H15519  10.323   8.115   6.084 -1.3591 -0.4127  0.0638
  856MOL0     H15520  10.211   7.860   6.421  0.3096  3.4985  0.8603
  856MOL0     H15521  10.012   7.762   6.559  1.4291 -1.3578 -1.1429
  856MOL0     H15522   9.853   7.749   6.473 -0.0355 -1.1245  3.0154
  856MOL0     H15523   9.994   7.641   6.433  2.6246  0.8134 -0.7803
  856MOL0     H15524   9.569   7.624   6.440  1.1883 -4.1804  0.9283
  856MOL0     H15525   9.368   7.474   6.406 -0.8962  1.5822  0.9466
  856MOL0     H15526   9.208   7.477   6.003  0.1044  0.7647  1.3920
  856MOL0     H15527   9.192   7.302   6.017 -2.6324 -1.6550  1.3047
  856MOL0     H15528   9.037   7.328   6.194  3.6603  0.4934  1.1279
  856MOL0     H15529   9.034   7.503   6.179  1.0474  1.7077 -1.7341
  856MOL0     H15530   8.951   7.285   5.972 -0.0256  0.4318  0.7444
  856MOL0     H15531   8.975   7.447   5.921 -1.8776 -1.5377 -0.7511
  856MOL0     H15532   8.782   7.361   6.151  0.9916 -0.5687 -0.5526
  856MOL0     H15533   8.819   7.521   6.107  1.9151 -0.1805 -0.2433
  856MOL0     H15534   8.721   7.362   5.880 -3.3185 -0.1747 -1.5407
  856MOL0     H15535   8.705   7.528   5.925  3.1569 -0.0544 -0.1533
  856MOL0     H15536   8.540   7.425   6.123  0.1552 -0.5578  0.1542
  856MOL0     H15537   8.475   7.439   5.961 -0.5749  1.0644  0.2456
  856MOL0     H15538   8.588   7.201   6.118 -1.2307  0.0399  1.3830
  856MOL0     H15539   8.579   7.188   5.939 -3.9357  1.0280 -1.2692
  856MOL0     H15540   8.372   7.094   6.065 -3.3639  0.3877  0.2931
  856MOL0     H15541   8.342   7.220   5.944  1.7324  1.1443 -1.0171
  856MOL0     H15542   9.443   7.465   5.991  0.6135  2.4398 -1.4668
  856MOL0     H15543   9.642   7.612   6.019 -0.4880 -2.4870 -0.4103
  856MOL0     H15544   9.906   7.957   6.047  0.7703  4.7116  0.0159
  856MOL0     H15545  10.136   8.033   6.042 -1.4063  0.2261 -1.3820
  856MOL0     H15546  10.525   8.223   7.730 -2.0345  1.4152 -1.2252
  856MOL0     H15547  10.721   8.205   7.876  1.6957  0.7771 -1.2874
  856MOL0     H15548  11.011   8.407   8.157 -1.4425  0.4031 -2.4468
  856MOL0     H15549  11.244   8.414   8.284  0.7455  0.8219 -0.4338
  856MOL0     H15550  11.599   8.496   8.086 -1.9746  0.6060 -2.0303
  856MOL0     H15551  11.560   8.668   8.111 -0.5422 -0.5149 -1.7333
  856MOL0     H15552  11.693   8.466   8.296  1.4089  0.3483 -0.6496
  856MOL0     H15553  11.636   8.621   8.367  0.4562 -0.1253  0.2076
  856MOL0     H15554  11.767   8.739   8.210  0.0951  0.0109 -1.1058
  856MOL0     H15555  11.846   8.592   8.143 -0.8117 -3.6508  1.7212
  856MOL0     H15556  11.865   8.689   8.428  1.3184  1.3781 -0.3799
  856MOL0     H15557  11.994   8.698   8.309  0.6032 -2.3119 -1.3465
  856MOL0     H15558  12.060   8.320   8.441  0.1759 -0.2638 -2.6196
  856MOL0     H15559  11.392   8.637   7.958  1.5362 -0.4777  0.6631
  856MOL0     H15560  11.196   8.606   7.830 -1.2808  3.5491  1.2442
  857MOL0     O15561   7.933   3.505   5.103 -1.0278  0.0746  0.1102
  857MOL0     C15562   7.901   3.386   5.104  0.1732  0.2352 -0.6668
  857MOL0     O15563   7.775   3.336   5.121  0.0020  0.5006 -0.2231
  857MOL0     C15564   7.651   3.408   5.097 -0.0516 -0.4954 -0.4135
  857MOL0     C15565   7.635   3.521   5.009 -0.2165  0.5979 -0.5592
  857MOL0     C15566   7.516   3.587   4.987  0.1847  1.4203 -0.1748
  857MOL0     C15567   7.399   3.531   5.038 -0.7660  0.4290 -0.8373
  857MOL0     O15568   7.280   3.568   4.996 -0.2931  0.0893  0.1540
  857MOL0     C15569   7.188   3.606   5.098 -0.4223  0.2044  0.1129
  857MOL0     C15570   7.047   3.628   5.035 -0.4837 -0.2027  0.0915
  857MOL0     C15571   6.952   3.635   5.140 -0.6654 -0.9482 -0.3755
  857MOL0     C15572   6.815   3.691   5.098 -0.2924  0.3919 -0.4229
  857MOL0     C15573   6.739   3.575   5.043  0.3525 -0.4837 -0.8068
  857MOL0     C15574   6.598   3.615   5.012 -0.1866 -0.2143 -0.3127
  857MOL0     C15575   6.510   3.489   5.014  1.6035 -0.3465  0.0304
  857MOL0     C15576   6.374   3.534   4.980  0.6993 -0.1485 -0.1346
  857MOL0     N15577   6.287   3.529   5.097 -0.0117  0.3181  0.6352
  857MOL0     C15578   6.240   3.410   5.154  0.0171  0.7164  0.9304
  857MOL0     C15579   6.176   3.445   5.270 -0.1032 -0.4539 -0.9908
  857MOL0     C15580   6.115   3.351   5.373  0.9481 -0.3484  1.0203
  857MOL0     C15581   6.017   3.260   5.305 -0.7710 -0.9284  0.0916
  857MOL0     C15582   5.895   3.341   5.240 -0.5194  1.0544  0.1728
  857MOL0     C15583   5.817   3.421   5.340  0.9077  0.6282  0.2498
  857MOL0     O15584   5.777   3.356   5.461 -0.8017  0.0683 -0.5026
  857MOL0     C15585   5.642   3.325   5.470 -0.4976  0.3995 -0.1129
  857MOL0     C15586   5.580   3.360   5.593 -0.0891  0.7810 -0.0700
  857MOL0     C15587   5.445   3.358   5.615 -0.0629  0.6249  0.0408
  857MOL0     C15588   5.399   3.401   5.753 -0.6057  0.7926 -0.8593
  857MOL0     C15589   5.369   3.323   5.506 -0.7750 -0.8509  0.5898
  857MOL0     C15590   5.227   3.337   5.508  0.1588  0.4407 -0.3997
  857MOL0     O15591   5.171   3.238   5.429 -0.3487  0.5866  0.5475
  857MOL0     C15592   5.035   3.232   5.402 -0.0012 -0.0137  0.1109
  857MOL0     C15593   4.973   3.104   5.409  0.1363 -0.9577  1.3060
  857MOL0     C15594   4.834   3.090   5.380 -0.5535 -0.5533 -0.0581
  857MOL0     C15595   4.765   3.207   5.335  0.8028  0.8943  0.3807
  857MOL0     O15596   4.641   3.195   5.267 -0.4625  0.8984 -0.7491
  857MOL0     C15597   4.565   3.072   5.258 -0.3617 -0.5620  0.5070
  857MOL0     C15598   4.428   3.103   5.205  0.3716  0.2568  0.1356
  857MOL0     C15599   4.416   3.182   5.079  0.0089 -0.1349 -0.3217
  857MOL0     C15600   4.272   3.197   5.031  0.2987 -0.3302  0.2134
  857MOL0     C15601   4.256   3.265   4.895  0.5364 -0.4980  0.3062
  857MOL0     C15602   4.124   3.231   4.822  0.2948  0.1442 -0.2921
  857MOL0     C15603   4.124   3.260   4.672  0.0298  0.5529  0.8905
  857MOL0     C15604   4.004   3.201   4.599  0.0080  0.4687 -0.7856
  857MOL0    Cl15605   3.846   3.231   4.684  0.1361 -0.2895  0.8567
  857MOL0     C15606   4.821   3.333   5.339  0.1971  0.0045 -0.5457
  857MOL0     C15607   4.958   3.351   5.377  1.5139  0.4236  0.4371
  857MOL0     O15608   5.170   3.432   5.560 -0.5040  0.5114  0.1553
  857MOL0     C15609   5.429   3.267   5.385 -0.6645  0.3306  0.1517
  857MOL0     C15610   5.563   3.265   5.376  0.1721  0.4523 -0.6043
  857MOL0     N15611   6.177   3.583   5.277 -0.4668 -0.3985  0.1942
  857MOL0     N15612   6.247   3.627   5.181  0.7111  0.5130 -0.2321
  857MOL0     C15613   7.407   3.412   5.122 -0.3868 -0.1976 -0.8973
  857MOL0     C15614   7.536   3.363   5.151 -0.1143  0.8618 -0.4966
  857MOL0     C15615   8.011   3.300   5.068  0.1305  0.4391 -0.2259
  857MOL0     C15616   8.135   3.352   5.015  0.9506  0.5181  0.2309
  857MOL0     C15617   8.251   3.274   4.991  0.5768  0.2794 -0.6213
  857MOL0     C15618   8.243   3.135   5.014 -0.0418 -0.1716  0.4374
  857MOL0     O15619   8.345   3.041   4.999 -0.3140 -0.5823  0.3825
  857MOL0     C15620   8.412   3.038   4.863  0.5671  0.0324  0.3434
  857MOL0     C15621   8.405   2.897   4.804  0.1050 -0.1887 -1.4234
  857MOL0     C15622   8.495   2.795   4.883  0.4484  0.6094 -0.0575
  857MOL0     C15623   8.416   2.664   4.920  0.4203 -1.1006 -0.3760
  857MOL0     C15624   8.301   2.682   5.019 -0.4079 -0.3159  0.1480
  857MOL0     C15625   8.200   2.701   5.089  0.2213 -0.4977 -0.2940
  857MOL0     C15626   8.121   3.086   5.067  0.7313 -0.5545 -0.4166
  857MOL0     C15627   8.009   3.164   5.088 -0.1510  0.0924 -0.1143
  857MOL0     H15628   7.724   3.556   4.960  2.2462  0.3287  3.2573
  857MOL0     H15629   7.529   3.673   4.922  4.3757  2.9646  2.3075
  857MOL0     H15630   7.183   3.530   5.177  1.3347  1.9106  2.0171
  857MOL0     H15631   7.218   3.693   5.157  2.5921 -1.3033  1.0343
  857MOL0     H15632   7.048   3.718   4.972 -0.0028  0.9707  1.7145
  857MOL0     H15633   7.021   3.542   4.972  0.3143  0.2566 -0.8976
  857MOL0     H15634   6.944   3.538   5.190  0.5575 -0.8226  0.0757
  857MOL0     H15635   6.982   3.711   5.212  2.5208 -1.3801 -1.0791
  857MOL0     H15636   6.766   3.723   5.190  2.5198  1.6706  0.7658
  857MOL0     H15637   6.824   3.771   5.023  1.8058  0.6115 -0.0100
  857MOL0     H15638   6.789   3.533   4.955  3.1483 -0.6985  0.7432
  857MOL0     H15639   6.736   3.496   5.118 -0.1479  1.1499  0.9764
  857MOL0     H15640   6.553   3.679   5.089 -0.5745 -1.5042  0.5770
  857MOL0     H15641   6.597   3.668   4.917 -0.4051  3.4618  1.5786
  857MOL0     H15642   6.537   3.428   4.927 -0.3247  0.1546 -0.9828
  857MOL0     H15643   6.515   3.440   5.112 -1.0844 -0.6963  0.0496
  857MOL0     H15644   6.328   3.463   4.910 -2.1116 -1.5112  2.8097
  857MOL0     H15645   6.367   3.636   4.943 -1.2418 -0.4361 -0.7192
  857MOL0     H15646   6.260   3.309   5.120  1.4237  1.5049 -0.7320
  857MOL0     H15647   6.190   3.294   5.428  0.0471 -1.3004  1.2975
  857MOL0     H15648   6.060   3.415   5.443  1.8085 -0.3034  1.6698
  857MOL0     H15649   5.985   3.179   5.371  0.7707 -1.6804 -0.0470
  857MOL0     H15650   6.072   3.223   5.218 -0.2266  1.2380 -0.5673
  857MOL0     H15651   5.827   3.262   5.208 -2.1218  2.4794 -0.0940
  857MOL0     H15652   5.934   3.405   5.160  1.9889  0.2887  0.6851
  857MOL0     H15653   5.722   3.455   5.299 -0.4750 -1.2732  1.7250
  857MOL0     H15654   5.878   3.508   5.367 -0.9534  2.4059 -0.9901
  857MOL0     H15655   5.641   3.402   5.671  2.1325 -0.6065 -0.9633
  857MOL0     H15656   5.313   3.339   5.782 -0.4389  1.7556  2.0104
  857MOL0     H15657   5.476   3.387   5.829 -1.3145 -2.1214 -0.5466
  857MOL0     H15658   5.365   3.505   5.756 -2.8238  0.1058  2.3298
  857MOL0     H15659   5.037   3.020   5.432  2.3492  0.0893 -0.6054
  857MOL0     H15660   4.788   2.993   5.394 -1.1937 -0.0868  1.1602
  857MOL0     H15661   4.614   3.021   5.174 -0.5688 -1.2706  0.8167
  857MOL0     H15662   4.565   3.023   5.355  2.5095  1.4123  1.6556
  857MOL0     H15663   4.381   3.005   5.193  0.6774  0.1613 -0.3240
  857MOL0     H15664   4.369   3.146   5.285 -0.2389 -1.4150  0.6222
  857MOL0     H15665   4.466   3.136   4.993  0.8488 -1.6535  0.9187
  857MOL0     H15666   4.477   3.267   5.109 -0.1223 -0.9850  2.7911
  857MOL0     H15667   4.230   3.096   5.021 -1.5938  0.6518 -3.5979
  857MOL0     H15668   4.212   3.246   5.109  0.5011 -2.1981  1.6214
  857MOL0     H15669   4.337   3.229   4.832 -0.8479 -0.8461 -1.3588
  857MOL0     H15670   4.267   3.374   4.894 -2.8378  0.0435 -3.2558
  857MOL0     H15671   4.095   3.127   4.839  1.4090 -0.2416 -0.6864
  857MOL0     H15672   4.050   3.297   4.869  3.0107  2.8157  0.5744
  857MOL0     H15673   4.215   3.212   4.634 -0.4929 -0.3590  0.7707
  857MOL0     H15674   4.138   3.368   4.660  2.2826  0.3362  1.0569
  857MOL0     H15675   4.026   3.094   4.604 -2.2824  0.0125  2.5906
  857MOL0     H15676   3.984   3.242   4.499  1.9115  2.6048 -0.4003
  857MOL0     H15677   4.749   3.413   5.326 -1.0646 -0.9457  0.2940
  857MOL0     H15678   5.002   3.450   5.376  4.2134 -0.6652  1.4998
  857MOL0     H15679   5.380   3.219   5.301 -2.6268  0.5521  1.1144
  857MOL0     H15680   5.599   3.224   5.282 -0.9942 -1.2854 -0.3361
  857MOL0     H15681   7.317   3.370   5.166  1.1751  0.4161  3.3738
  857MOL0     H15682   7.538   3.282   5.223 -1.4132  0.8937 -0.4014
  857MOL0     H15683   8.147   3.455   4.982  0.8221  0.8528  1.1846
  857MOL0     H15684   8.338   3.328   4.955  0.7023 -1.3019 -2.9560
  857MOL0     H15685   8.381   3.116   4.792  1.1018 -2.0807 -2.3878
  857MOL0     H15686   8.514   3.068   4.887  0.2232  0.4385  1.3181
  857MOL0     H15687   8.448   2.885   4.704  2.1967 -0.4731 -0.5321
  857MOL0     H15688   8.300   2.871   4.821  0.3485 -0.1853  0.3017
  857MOL0     H15689   8.536   2.842   4.973  1.0021  1.7709 -0.9006
  857MOL0     H15690   8.583   2.757   4.830  0.3324  0.3328 -0.0535
  857MOL0     H15691   8.490   2.600   4.969  0.3701 -1.8121 -1.2051
  857MOL0     H15692   8.384   2.611   4.830 -2.7217 -1.1460  0.6720
  857MOL0     H15693   8.113   2.711   5.150  1.0371  0.3775  0.7470
  857MOL0     H15694   8.119   2.981   5.092 -2.8946 -0.0491  2.2477
  857MOL0     H15695   7.918   3.120   5.127 -0.2783  0.7392  0.3320
  858MOL0     O15696   3.599  10.896   2.680  0.7431 -0.1037 -0.3214
  858MOL0     C15697   3.625  10.968   2.769 -0.0447  0.3476 -0.6589
  858MOL0     O15698   3.546  11.058   2.825 -0.4167  0.5964 -0.0157
  858MOL0     C15699   3.407  11.065   2.800 -0.7488 -0.8609  0.0995
  858MOL0     C15700   3.348  11.182   2.857  0.1640  0.0242 -0.8111
  858MOL0     C15701   3.212  11.212   2.845 -0.1893  0.1938 -0.8913
  858MOL0     C15702   3.124  11.117   2.778  0.1369 -0.0143 -0.7347
  858MOL0     O15703   2.982  11.120   2.759  0.6537 -0.4706 -0.4927
  858MOL0     C15704   2.907  11.221   2.827 -0.5074  0.6038  0.4898
  858MOL0     C15705   2.772  11.166   2.838  0.2742  0.2003 -0.3706
  858MOL0     C15706   2.652  11.264   2.890 -0.1823 -0.2408  0.8438
  858MOL0     C15707   2.523  11.186   2.878 -0.4538  0.1662 -0.7318
  858MOL0     C15708   2.516  11.076   2.996 -0.6931  0.6236  0.5567
  858MOL0     C15709   2.390  10.997   2.973  0.4599 -0.5539  0.1407
  858MOL0     C15710   2.247  11.057   2.992 -0.4824 -0.7068 -0.1211
  858MOL0     C15711   2.234  11.123   3.128  1.1731 -0.2706 -0.1459
  858MOL0     N15712   2.100  11.185   3.146  1.0949 -0.7652 -0.2323
  858MOL0     C15713   2.061  11.309   3.108 -0.2589 -0.1419 -0.4307
  858MOL0     C15714   1.925  11.309   3.130 -0.4689 -0.5405  0.2755
  858MOL0     C15715   1.818  11.412   3.107 -0.1460 -1.2560 -0.3229
  858MOL0     C15716   1.679  11.349   3.136  0.4582  0.5707  0.2140
  858MOL0     C15717   1.577  11.461   3.108  0.1084  0.6069  0.3196
  858MOL0     C15718   1.436  11.401   3.081 -0.0248  0.0046  0.9017
  858MOL0     O15719   1.387  11.343   3.204 -0.2619  0.6812 -0.0174
  858MOL0     C15720   1.302  11.418   3.279 -0.5517  0.0528  0.0211
  858MOL0     C15721   1.292  11.384   3.415  0.3875 -0.0597 -1.1233
  858MOL0     C15722   1.200  11.448   3.498 -1.0225 -0.1767 -0.3443
  858MOL0     C15723   1.206  11.398   3.643  0.0572  0.4493 -0.1517
  858MOL0     C15724   1.113  11.550   3.450 -0.1122  0.5621  0.5077
  858MOL0     C15725   1.007  11.616   3.535 -0.1093  0.7910  0.6648
  858MOL0     O15726   0.906  11.682   3.464  0.1387  0.2501  0.4841
  858MOL0     C15727   0.814  11.757   3.539 -0.2219 -0.2384  0.2709
  858MOL0     C15728   0.741  11.707   3.656 -0.5121 -0.3140 -0.3131
  858MOL0     C15729   0.640  11.781   3.714  0.4087 -0.2390  0.6494
  858MOL0     C15730   0.611  11.910   3.656 -0.4718 -0.8808 -0.6651
  858MOL0     O15731   0.516  11.991   3.720  0.5920 -0.1442  0.2273
  858MOL0     C15732   0.389  11.927   3.728  0.0244  0.2069 -0.8026
  858MOL0     C15733   0.281  12.020   3.763 -0.0639 -0.4456  0.3863
  858MOL0     C15734   0.264  12.128   3.657 -0.4104 -0.4787  0.1182
  858MOL0     C15735   0.218  12.072   3.517  0.2657  0.4576 -0.2258
  858MOL0     C15736   0.142  12.158   3.418 -0.2225  0.3254 -0.1938
  858MOL0     C15737   0.090  12.084   3.294  0.1228 -0.3697 -0.2321
  858MOL0     C15738   0.060  12.190   3.177  0.3334 -0.4517  0.0431
  858MOL0     C15739  -0.075  12.163   3.108 -0.3845  0.2294 -0.8653
  858MOL0    Cl15740  -0.074  12.013   3.015  0.6188  0.0981 -0.6338
  858MOL0     C15741   0.686  11.962   3.558 -0.4390  0.8022  0.1442
  858MOL0     C15742   0.786  11.884   3.500  0.4244  0.1946 -1.0862
  858MOL0     O15743   1.016  11.619   3.655 -0.6229  0.2133  0.2087
  858MOL0     C15744   1.139  11.601   3.318  0.7834  0.3699 -0.3511
  858MOL0     C15745   1.232  11.531   3.243  0.0233  0.5764  0.2982
  858MOL0     N15746   1.893  11.185   3.182 -0.4464 -0.3720 -0.7867
  858MOL0     N15747   1.995  11.109   3.180 -0.3643 -0.0650 -0.2436
  858MOL0     C15748   3.188  11.014   2.715  0.8800 -0.2266  0.0280
  858MOL0     C15749   3.320  10.980   2.729 -1.3083  0.6567  0.5271
  858MOL0     C15750   3.756  10.948   2.840 -0.0053  0.2015  0.2099
  858MOL0     C15751   3.848  10.862   2.777 -0.3790 -0.1004  0.2375
  858MOL0     C15752   3.970  10.834   2.846 -0.3310  0.3474  0.2186
  858MOL0     C15753   4.002  10.887   2.972  0.5092  0.3989 -0.0027
  858MOL0     O15754   4.096  10.844   3.053 -0.0286 -0.1798  1.0327
  858MOL0     C15755   4.224  10.826   2.994 -0.5466 -0.2840  0.2382
  858MOL0     C15756   4.350  10.876   3.074  0.4093 -0.2654 -0.4085
  858MOL0     C15757   4.477  10.840   3.010 -0.6356  0.4254 -0.0853
  858MOL0     C15758   4.608  10.895   3.077 -0.4988 -0.3172 -0.1239
  858MOL0     C15759   4.607  11.037   3.087  0.8563  0.3127  0.3718
  858MOL0     C15760   4.591  11.157   3.097 -0.5585 -0.5328  0.2394
  858MOL0     C15761   3.909  10.966   3.030  0.1321  0.1560  0.1152
  858MOL0     C15762   3.793  11.002   2.964  0.5608  0.2203 -0.8406
  858MOL0     H15763   3.409  11.248   2.918  0.7995 -3.0367  2.1347
  858MOL0     H15764   3.158  11.293   2.894  0.2313 -0.9445  1.5558
  858MOL0     H15765   2.953  11.226   2.926  0.0138 -3.1287  0.5563
  858MOL0     H15766   2.908  11.310   2.763 -0.7330 -1.6863 -2.9893
  858MOL0     H15767   2.751  11.141   2.734 -1.2846 -0.2667  0.0253
  858MOL0     H15768   2.778  11.071   2.891  2.6668  0.2501 -0.4618
  858MOL0     H15769   2.663  11.315   2.986  2.8789  2.1903 -0.6229
  858MOL0     H15770   2.641  11.341   2.813 -0.7466 -1.9764 -0.8765
  858MOL0     H15771   2.440  11.255   2.896  0.5423  0.8317  1.8178
  858MOL0     H15772   2.505  11.139   2.781 -0.0943 -3.6728  0.8826
  858MOL0     H15773   2.597  11.003   2.989 -1.3936 -0.1782  0.6385
  858MOL0     H15774   2.502  11.117   3.097 -2.6041 -0.3936  0.7549
  858MOL0     H15775   2.391  10.941   2.878 -3.8467  2.4844 -2.0126
  858MOL0     H15776   2.409  10.915   3.044  2.7073  0.1495  0.4418
  858MOL0     H15777   2.231  11.132   2.914 -1.4543  1.2313  1.8268
  858MOL0     H15778   2.175  10.976   2.977 -0.3493 -1.2264  1.8352
  858MOL0     H15779   2.310  11.202   3.124  0.2606  0.5722 -1.3379
  858MOL0     H15780   2.251  11.051   3.209  1.9449  1.8952  1.7361
  858MOL0     H15781   2.125  11.387   3.068 -1.8714  0.8801 -1.1115
  858MOL0     H15782   1.836  11.493   3.178 -0.8678  0.1100 -1.6549
  858MOL0     H15783   1.832  11.457   3.008  1.1931  1.6474  1.0537
  858MOL0     H15784   1.669  11.327   3.242 -2.2286  4.3586  0.9565
  858MOL0     H15785   1.648  11.264   3.075 -1.8317  2.1390 -0.9408
  858MOL0     H15786   1.602  11.521   3.019  3.6508 -0.0120  0.7600
  858MOL0     H15787   1.578  11.523   3.198  4.9221  1.8825 -0.3036
  858MOL0     H15788   1.425  11.320   3.008 -1.0099 -0.2919  1.3695
  858MOL0     H15789   1.369  11.469   3.028  1.3914  0.4567 -0.3814
  858MOL0     H15790   1.349  11.299   3.452  0.8588  0.5152 -0.5128
  858MOL0     H15791   1.238  11.483   3.704  0.6797 -0.3065  0.6082
  858MOL0     H15792   1.114  11.350   3.675  0.7553 -2.3334 -1.9935
  858MOL0     H15793   1.282  11.319   3.644 -0.3883 -0.0378 -1.5952
  858MOL0     H15794   0.754  11.603   3.687 -0.1483 -1.0007 -2.5914
  858MOL0     H15795   0.576  11.740   3.792  0.5104 -0.0060  0.8556
  858MOL0     H15796   0.366  11.879   3.632  2.1511  1.1177 -1.8591
  858MOL0     H15797   0.395  11.855   3.810  0.5026  0.5869 -0.4993
  858MOL0     H15798   0.185  11.975   3.790 -0.5268  1.3831  2.0466
  858MOL0     H15799   0.304  12.058   3.863 -1.9395 -2.7517  1.8136
  858MOL0     H15800   0.355  12.189   3.660 -0.6140 -0.0618 -1.3055
  858MOL0     H15801   0.180  12.186   3.696 -0.4797  0.3481 -1.2037
  858MOL0     H15802   0.304  12.027   3.467  0.0234 -2.1636  1.4914
  858MOL0     H15803   0.149  11.988   3.532 -2.9176  2.7060 -1.1135
  858MOL0     H15804   0.207  12.243   3.393 -1.1286  0.3261 -2.8861
  858MOL0     H15805   0.055  12.207   3.464 -0.7316  1.0458 -1.8561
  858MOL0     H15806   0.167  12.015   3.257 -0.3681 -0.2993 -1.4316
  858MOL0     H15807   0.005  12.020   3.317  1.6961 -2.1784  0.8726
  858MOL0     H15808   0.135  12.193   3.098 -1.0210 -1.8694 -1.3608
  858MOL0     H15809   0.060  12.291   3.220  1.1526 -1.0808  1.6086
  858MOL0     H15810  -0.095  12.245   3.039 -0.4078  0.3289 -0.7398
  858MOL0     H15811  -0.160  12.164   3.177  1.0603 -1.4982  1.0589
  858MOL0     H15812   0.675  12.063   3.518  0.2445  1.5177  1.6867
  858MOL0     H15813   0.853  11.924   3.424 -0.2796  0.5764 -1.5118
  858MOL0     H15814   1.100  11.694   3.278 -1.1241 -0.1038  0.2871
  858MOL0     H15815   1.239  11.566   3.140 -1.0016 -1.5446 -0.5529
  858MOL0     H15816   3.122  10.952   2.655  1.7632  0.6753 -1.9610
  858MOL0     H15817   3.364  10.897   2.673 -3.2315 -1.3588  1.8264
  858MOL0     H15818   3.815  10.804   2.691  0.2244  2.0240 -1.5150
  858MOL0     H15819   4.033  10.756   2.804  0.1122 -0.0306  1.5335
  858MOL0     H15820   4.240  10.720   2.977 -1.0065 -0.3842  0.4003
  858MOL0     H15821   4.238  10.875   2.897 -1.7569 -5.9777 -3.2735
  858MOL0     H15822   4.346  10.822   3.170 -1.9938  0.2510 -0.1425
  858MOL0     H15823   4.343  10.983   3.094 -0.2556 -0.5032  0.7811
  858MOL0     H15824   4.478  10.857   2.902 -0.0315 -0.8499 -0.2970
  858MOL0     H15825   4.484  10.731   3.019  1.2346  0.5304  0.0479
  858MOL0     H15826   4.689  10.876   3.006  0.3890 -1.6591  1.1901
  858MOL0     H15827   4.626  10.847   3.174  1.3913  2.6560  1.1097
  858MOL0     H15828   4.569  11.259   3.119 -1.2600 -0.7380  0.5441
  858MOL0     H15829   3.919  11.004   3.131 -0.0748  0.0588  0.1726
  858MOL0     H15830   3.724  11.063   3.022 -0.2003 -0.6881 -0.7768
  859MOL0     O15831   8.771   7.204   9.621 -0.6268  0.4767 -0.4223
  859MOL0     C15832   8.812   7.095   9.570 -0.0243  0.1554 -0.6299
  859MOL0     O15833   8.724   7.000   9.510 -1.0508  0.2542 -0.6141
  859MOL0     C15834   8.594   6.984   9.549 -0.4587  0.3259 -0.9338
  859MOL0     C15835   8.517   6.927   9.464  1.0605 -0.2936  0.1226
  859MOL0     C15836   8.381   6.906   9.488  0.1002 -0.4773  0.1104
  859MOL0     C15837   8.322   6.932   9.615 -0.1575 -0.0479  0.0955
  859MOL0     O15838   8.196   6.889   9.656 -0.1525  0.5551  0.6476
  859MOL0     C15839   8.200   6.769   9.733 -0.8463  0.5907 -0.2490
  859MOL0     C15840   8.101   6.655   9.683 -0.1781  0.2641  0.0455
  859MOL0     C15841   8.096   6.623   9.533  0.6433  0.2365  0.5713
  859MOL0     C15842   8.014   6.727   9.443  0.0900  0.1527 -0.1034
  859MOL0     C15843   7.862   6.718   9.477  0.0148  0.5482  0.3673
  859MOL0     C15844   7.787   6.804   9.368  0.7579  0.3988  0.1221
  859MOL0     C15845   7.641   6.799   9.405  0.0212  0.4942  0.0080
  859MOL0     C15846   7.548   6.854   9.294 -0.6751  0.5512 -0.1607
  859MOL0     N15847   7.403   6.818   9.329  0.1834 -0.3423  0.5881
  859MOL0     C15848   7.356   6.692   9.347  0.1753 -0.3972  0.4630
  859MOL0     C15849   7.228   6.709   9.396 -0.3092 -0.3115 -0.3942
  859MOL0     C15850   7.122   6.597   9.418  0.2939 -0.4331  0.0846
  859MOL0     C15851   7.151   6.498   9.539 -0.5762 -0.7206  0.9043
  859MOL0     C15852   7.061   6.378   9.531  0.4521  0.2875 -0.5283
  859MOL0     C15853   6.920   6.401   9.594  0.3077 -0.1144  0.8495
  859MOL0     O15854   6.844   6.489   9.514  0.5271  0.0570 -0.2162
  859MOL0     C15855   6.710   6.500   9.534 -1.1817 -0.3702 -0.3446
  859MOL0     C15856   6.657   6.610   9.470  0.8346 -1.0622 -0.5040
  859MOL0     C15857   6.522   6.631   9.461 -0.3216  0.2370 -0.1327
  859MOL0     C15858   6.469   6.744   9.372  0.4508  0.0151  0.7124
  859MOL0     C15859   6.439   6.547   9.542  0.8187 -0.6370  0.4871
  859MOL0     C15860   6.299   6.585   9.586 -0.2238 -0.6730 -0.1439
  859MOL0     O15861   6.211   6.483   9.627  0.2823  0.0981  0.5858
  859MOL0     C15862   6.089   6.495   9.686  0.0503 -0.3613  0.1228
  859MOL0     C15863   5.996   6.386   9.665  0.0141  0.4284  0.2001
  859MOL0     C15864   5.872   6.381   9.725  0.2637  0.5823 -0.6984
  859MOL0     C15865   5.830   6.499   9.798  0.8111  0.5185 -0.1415
  859MOL0     O15866   5.714   6.501   9.864  0.3116 -0.0056 -0.2433
  859MOL0     C15867   5.612   6.405   9.835 -0.2987 -0.5229  0.4675
  859MOL0     C15868   5.473   6.464   9.877 -0.1087  0.4630  1.3759
  859MOL0     C15869   5.362   6.357   9.856 -0.2231 -0.1149 -0.4956
  859MOL0     C15870   5.227   6.407   9.913  0.8472  0.2029 -0.6825
  859MOL0     C15871   5.117   6.315   9.884  0.1640 -0.2766 -0.7993
  859MOL0     C15872   4.984   6.379   9.911  0.5477  0.7070  0.5009
  859MOL0     C15873   4.887   6.280   9.832 -0.6052  0.5489  0.4189
  859MOL0     C15874   4.740   6.311   9.841 -0.2696 -0.7320  0.5720
  859MOL0    Cl15875   4.706   6.484   9.804  0.4607 -0.2402 -0.4195
  859MOL0     C15876   5.917   6.604   9.817 -0.2223  0.0142  0.3716
  859MOL0     C15877   6.047   6.605   9.761 -0.6196  0.0866  0.2051
  859MOL0     O15878   6.270   6.707   9.585 -0.7029  0.4113  0.0455
  859MOL0     C15879   6.493   6.439   9.606  0.6709 -0.1632 -0.5465
  859MOL0     C15880   6.630   6.411   9.600 -0.5608  0.2735 -0.3403
  859MOL0     N15881   7.204   6.840   9.399  0.4224 -0.6651  0.3148
  859MOL0     N15882   7.302   6.911   9.358 -0.2864 -0.0860  0.3317
  859MOL0     C15883   8.408   6.987   9.716 -0.9187  0.6803  1.2605
  859MOL0     C15884   8.544   7.011   9.680  0.0426 -0.3968  0.2184
  859MOL0     C15885   8.956   7.068   9.571  0.2624  0.1685  0.3308
  859MOL0     C15886   9.012   6.940   9.552  0.2587  0.4676 -0.4266
  859MOL0     C15887   9.149   6.921   9.534 -0.8072 -0.5631 -0.2031
  859MOL0     C15888   9.235   7.031   9.552 -0.1807 -0.3140 -0.1677
  859MOL0     O15889   9.368   6.997   9.546 -0.5416 -0.0680 -0.3093
  859MOL0     C15890   9.472   7.082   9.596  0.1390 -0.8165 -0.6468
  859MOL0     C15891   9.477   7.076   9.750  0.6109 -0.7454 -0.4942
  859MOL0     C15892   9.601   7.158   9.797  0.1835 -0.3250  0.0381
  859MOL0     C15893   9.591   7.188   9.945 -0.0792 -0.8511 -0.6813
  859MOL0     C15894   9.587   7.075  10.041  0.4997  0.5038 -0.6986
  859MOL0     C15895   9.578   6.976  10.107 -0.0825  0.7602  0.4171
  859MOL0     C15896   9.180   7.158   9.581  0.0800 -0.1777 -0.1554
  859MOL0     C15897   9.045   7.174   9.585  0.2454  0.0474  0.9180
  859MOL0     H15898   8.549   6.911   9.361 -1.8175 -1.9419 -0.6377
  859MOL0     H15899   8.321   6.856   9.412  2.7795 -2.7603 -0.7246
  859MOL0     H15900   8.301   6.726   9.734 -0.0101  2.4399  1.8959
  859MOL0     H15901   8.160   6.799   9.830 -4.9632  2.3900 -2.2877
  859MOL0     H15902   8.133   6.567   9.739 -0.6485  1.5462  2.4648
  859MOL0     H15903   8.004   6.679   9.728  1.6030 -0.6362  5.0627
  859MOL0     H15904   8.196   6.621   9.488 -0.3869  1.1054 -1.9630
  859MOL0     H15905   8.061   6.520   9.525 -0.0999  0.3390  2.0988
  859MOL0     H15906   8.054   6.829   9.440  2.1363 -0.6360 -2.0058
  859MOL0     H15907   8.018   6.703   9.337 -3.1001 -1.2642 -0.0220
  859MOL0     H15908   7.821   6.617   9.470 -3.1756  1.6948  1.0025
  859MOL0     H15909   7.833   6.748   9.578 -2.1174 -2.9832  0.9385
  859MOL0     H15910   7.829   6.905   9.364  0.1368  0.6555 -3.8054
  859MOL0     H15911   7.802   6.775   9.264 -0.1197 -2.1140  0.6460
  859MOL0     H15912   7.604   6.699   9.430 -2.9794  0.8082 -2.5218
  859MOL0     H15913   7.626   6.859   9.495 -1.2022 -0.4126  0.4317
  859MOL0     H15914   7.564   6.819   9.191 -0.1736  1.3759 -0.3775
  859MOL0     H15915   7.551   6.964   9.296 -0.1223  0.5797  3.1303
  859MOL0     H15916   7.412   6.600   9.335  1.6817  0.4323  0.8014
  859MOL0     H15917   7.019   6.631   9.426 -0.4738 -2.9868  2.4747
  859MOL0     H15918   7.118   6.527   9.334 -0.9580 -0.5967  0.2702
  859MOL0     H15919   7.138   6.541   9.639 -0.7334  0.6546  0.3194
  859MOL0     H15920   7.252   6.456   9.535 -0.5141 -0.6921 -3.8985
  859MOL0     H15921   7.115   6.301   9.587  0.0745  0.9393  0.7693
  859MOL0     H15922   7.057   6.340   9.428 -0.0398 -1.4972  0.1025
  859MOL0     H15923   6.921   6.446   9.694 -0.4995 -2.2930  1.9326
  859MOL0     H15924   6.873   6.302   9.591  1.3428 -0.6075 -1.5842
  859MOL0     H15925   6.727   6.683   9.432  0.3567 -0.6832 -0.6743
  859MOL0     H15926   6.442   6.829   9.435 -1.7310 -2.1314  2.8956
  859MOL0     H15927   6.550   6.765   9.301 -1.1660  3.8835 -0.2168
  859MOL0     H15928   6.382   6.709   9.317  1.2878 -0.4586 -0.3627
  859MOL0     H15929   6.023   6.293   9.618 -2.1654 -3.0718  5.0428
  859MOL0     H15930   5.811   6.293   9.704  1.3140 -0.1423 -0.8148
  859MOL0     H15931   5.605   6.382   9.728 -0.4124 -2.9762  0.9462
  859MOL0     H15932   5.621   6.307   9.882  0.7552 -1.5536 -1.7249
  859MOL0     H15933   5.474   6.494   9.982 -0.7729  0.3095  1.4308
  859MOL0     H15934   5.460   6.555   9.817  3.6477 -0.6104 -1.5075
  859MOL0     H15935   5.390   6.269   9.915 -2.0216 -0.4083 -0.0286
  859MOL0     H15936   5.355   6.353   9.747 -1.8997  2.9000 -0.6053
  859MOL0     H15937   5.230   6.431  10.019  0.5809  2.9419 -1.2187
  859MOL0     H15938   5.195   6.502   9.869 -0.1442 -0.1467 -0.7294
  859MOL0     H15939   5.121   6.230   9.952 -0.1189 -0.8601 -1.5033
  859MOL0     H15940   5.131   6.285   9.780 -0.0761  1.7236 -1.4505
  859MOL0     H15941   4.956   6.385  10.016 -2.3929  0.2323 -0.1621
  859MOL0     H15942   4.980   6.480   9.869 -0.9680  0.7640  0.7222
  859MOL0     H15943   4.887   6.176   9.866 -0.6649 -0.1728 -1.6497
  859MOL0     H15944   4.920   6.280   9.728 -0.1476  1.5635  0.5519
  859MOL0     H15945   4.705   6.297   9.943  2.4569  0.1402  1.7071
  859MOL0     H15946   4.682   6.260   9.763 -0.1473  1.3039 -0.9417
  859MOL0     H15947   5.883   6.694   9.868  3.0817  0.7912  1.4397
  859MOL0     H15948   6.108   6.692   9.783 -1.1439  0.6719 -0.6089
  859MOL0     H15949   6.439   6.382   9.681  0.9520  1.1434  0.6801
  859MOL0     H15950   6.662   6.321   9.652  2.7283  1.5162  0.0009
  859MOL0     H15951   8.382   7.015   9.818  1.0833  2.6457  1.3064
  859MOL0     H15952   8.601   7.068   9.752  1.4527 -1.6618  0.1457
  859MOL0     H15953   8.941   6.858   9.542  0.3840  0.2614  0.2919
  859MOL0     H15954   9.192   6.827   9.499 -1.3421 -1.0520  0.4336
  859MOL0     H15955   9.568   7.039   9.565  0.6574 -1.0189  1.1242
  859MOL0     H15956   9.450   7.179   9.552 -2.2944 -0.8249  0.3710
  859MOL0     H15957   9.497   6.970   9.767 -0.3613 -1.3919 -2.8870
  859MOL0     H15958   9.381   7.108   9.791  0.5620 -0.3709 -0.8871
  859MOL0     H15959   9.593   7.256   9.749 -1.0287 -0.9221 -1.0109
  859MOL0     H15960   9.695   7.104   9.783  2.1455  1.4493  4.4397
  859MOL0     H15961   9.511   7.260   9.966  1.0508 -0.1150  1.4513
  859MOL0     H15962   9.680   7.245   9.972  0.7860 -1.4837 -2.0660
  859MOL0     H15963   9.567   6.875  10.138  1.7603  0.3099 -0.2203
  859MOL0     H15964   9.253   7.239   9.584  1.0185 -0.8995 -1.7883
  859MOL0     H15965   9.003   7.274   9.592  1.0444  0.6460 -1.6936
  860MOL0     O15966   2.983   1.895   3.301  0.8131 -0.2256  0.2500
  860MOL0     C15967   3.005   1.786   3.246 -0.0611 -0.8126  0.4872
  860MOL0     O15968   2.925   1.728   3.155  0.5672  0.2918 -0.7217
  860MOL0     C15969   2.814   1.790   3.103 -1.0228 -0.3497  0.2051
  860MOL0     C15970   2.701   1.714   3.093 -0.0871  0.6987  0.0186
  860MOL0     C15971   2.584   1.762   3.028 -0.6937  0.2453 -0.4777
  860MOL0     C15972   2.583   1.895   2.981  0.9773  0.3849 -0.1885
  860MOL0     O15973   2.474   1.950   2.943 -1.0327 -0.3710 -0.6223
  860MOL0     C15974   2.355   1.868   2.922 -0.8773 -0.1931 -1.4584
  860MOL0     C15975   2.240   1.954   2.881 -0.6067 -0.6781  0.1024
  860MOL0     C15976   2.267   2.039   2.749  0.3579  0.3106 -0.1873
  860MOL0     C15977   2.147   2.131   2.731 -0.3089 -0.5659 -0.0294
  860MOL0     C15978   2.147   2.216   2.601 -0.1372 -0.0456 -0.4092
  860MOL0     C15979   2.284   2.263   2.537  0.2770  0.4760 -0.4691
  860MOL0     C15980   2.267   2.327   2.396 -0.4857 -0.1389  0.0259
  860MOL0     C15981   2.215   2.213   2.296  0.6536 -0.3514 -0.0901
  860MOL0     N15982   2.201   2.271   2.164 -0.4043 -0.6350  0.2912
  860MOL0     C15983   2.309   2.291   2.083  0.2415 -0.0767  0.4185
  860MOL0     C15984   2.255   2.362   1.977 -0.2089 -1.2406 -0.4964
  860MOL0     C15985   2.325   2.411   1.854  0.2809  0.1451 -0.1078
  860MOL0     C15986   2.303   2.320   1.733 -0.3008 -0.0909  0.4625
  860MOL0     C15987   2.353   2.398   1.605  0.2156  0.3708 -0.1176
  860MOL0     C15988   2.294   2.342   1.475 -0.0439  1.1080  0.1829
  860MOL0     O15989   2.156   2.370   1.483 -0.0845 -0.1317 -0.5774
  860MOL0     C15990   2.087   2.352   1.368  0.1372 -0.8063 -0.0985
  860MOL0     C15991   2.121   2.257   1.268 -0.0445 -0.8486  0.6424
  860MOL0     C15992   2.037   2.241   1.159  0.0586  0.3340  0.6103
  860MOL0     C15993   2.062   2.119   1.068 -0.5117 -0.4994  0.2622
  860MOL0     C15994   1.920   2.321   1.154  0.5975  0.1362  0.5635
  860MOL0     C15995   1.807   2.307   1.047 -0.4558 -0.3432 -0.1928
  860MOL0     O15996   1.730   2.416   1.026  0.4913  0.3546 -0.2471
  860MOL0     C15997   1.613   2.404   0.958  0.4792 -0.7143  0.2362
  860MOL0     C15998   1.525   2.293   0.957 -0.2926 -0.8329 -0.2890
  860MOL0     C15999   1.392   2.305   0.911 -0.7131  0.4959 -0.0560
  860MOL0     C16000   1.347   2.418   0.848  0.0280 -0.4756 -0.1284
  860MOL0     O16001   1.228   2.432   0.780  0.2153  0.7255 -0.3776
  860MOL0     C16002   1.140   2.317   0.748 -0.3616 -0.2165 -0.6081
  860MOL0     C16003   1.043   2.269   0.855  0.6121 -0.5780 -0.2519
  860MOL0     C16004   0.993   2.124   0.851  0.0639 -0.2514 -0.5212
  860MOL0     C16005   0.932   2.090   0.715 -0.0780  0.3858  0.1800
  860MOL0     C16006   0.791   2.147   0.692  0.2994 -0.0031  0.1059
  860MOL0     C16007   0.676   2.082   0.769 -0.3649 -0.3855  0.1961
  860MOL0     C16008   0.540   2.136   0.731  0.8635 -0.3351  0.3310
  860MOL0     C16009   0.438   2.056   0.806 -1.7767  0.5234 -0.0025
  860MOL0    Cl16010   0.268   2.108   0.792  0.4175 -0.2285  0.9369
  860MOL0     C16011   1.434   2.524   0.849  0.5650 -0.3235  0.1946
  860MOL0     C16012   1.563   2.523   0.901  0.2850 -0.3834  0.2459
  860MOL0     O16013   1.789   2.195   0.996  0.4993 -0.0969 -0.0437
  860MOL0     C16014   1.890   2.410   1.253 -0.6278 -0.6781  0.0534
  860MOL0     C16015   1.976   2.435   1.358  0.4201 -0.4302 -0.5085
  860MOL0     N16016   2.117   2.383   1.998 -0.8340  0.3477  0.3581
  860MOL0     N16017   2.093   2.341   2.122  0.2016  0.5806  0.3862
  860MOL0     C16018   2.695   1.982   3.003  0.8980 -0.1653  0.4608
  860MOL0     C16019   2.810   1.927   3.055 -0.1631  0.9965 -0.0117
  860MOL0     C16020   3.124   1.710   3.282  0.6323  0.3260  0.2162
  860MOL0     C16021   3.194   1.757   3.393  0.3843 -0.2013  0.4554
  860MOL0     C16022   3.303   1.691   3.441 -0.2265 -0.5719 -0.5440
  860MOL0     C16023   3.351   1.576   3.387  0.8752 -0.8579 -0.9637
  860MOL0     O16024   3.456   1.513   3.442 -0.3207  0.0223  0.2917
  860MOL0     C16025   3.512   1.406   3.374  0.4332  0.2908  0.7791
  860MOL0     C16026   3.656   1.401   3.416 -0.6865 -0.4571 -0.2582
  860MOL0     C16027   3.724   1.280   3.352  0.2780  0.6414 -0.7129
  860MOL0     C16028   3.880   1.284   3.366 -0.2437 -1.1121  0.6073
  860MOL0     C16029   3.922   1.301   3.502 -0.2205  0.1061 -0.4860
  860MOL0     C16030   3.955   1.316   3.613 -0.0933 -0.0622 -0.2227
  860MOL0     C16031   3.271   1.518   3.285  0.3536 -0.3964  0.0538
  860MOL0     C16032   3.159   1.584   3.236  0.2619  0.4566  0.7194
  860MOL0     H16033   2.704   1.619   3.146 -3.3240  1.0545  1.0925
  860MOL0     H16034   2.497   1.697   3.029  1.9388 -3.6677 -1.2365
  860MOL0     H16035   2.365   1.792   2.844 -2.2207 -2.8625  0.7697
  860MOL0     H16036   2.318   1.839   3.021  0.0535  1.4979 -0.5670
  860MOL0     H16037   2.145   1.899   2.874 -0.2705 -1.5885  2.2087
  860MOL0     H16038   2.215   2.033   2.951 -0.3183  0.1533 -0.7127
  860MOL0     H16039   2.360   2.093   2.768  0.0748  0.5124  0.6694
  860MOL0     H16040   2.272   1.967   2.667  0.1146  0.0791 -0.0011
  860MOL0     H16041   2.051   2.079   2.740 -1.4580  1.2808 -1.0106
  860MOL0     H16042   2.151   2.195   2.819 -0.4382 -1.3705  0.5805
  860MOL0     H16043   2.089   2.161   2.526  0.1429 -1.5808  0.4590
  860MOL0     H16044   2.090   2.308   2.616 -0.6928 -0.6860  1.7566
  860MOL0     H16045   2.341   2.328   2.604  3.4846 -1.1196 -1.3955
  860MOL0     H16046   2.344   2.174   2.515 -0.9404  0.4743 -4.6814
  860MOL0     H16047   2.207   2.416   2.414  0.3697  0.4163  0.1763
  860MOL0     H16048   2.365   2.357   2.358 -0.1784 -2.4491 -1.1544
  860MOL0     H16049   2.117   2.182   2.333 -0.1849  3.2411  1.1774
  860MOL0     H16050   2.291   2.134   2.299 -2.9015 -4.0951 -0.5645
  860MOL0     H16051   2.412   2.264   2.104  0.2217 -1.8546 -1.4982
  860MOL0     H16052   2.274   2.502   1.820 -1.1351 -0.9958 -1.1056
  860MOL0     H16053   2.433   2.425   1.866  0.8189 -2.8691 -0.7750
  860MOL0     H16054   2.200   2.286   1.721 -0.1927 -0.1018 -0.4560
  860MOL0     H16055   2.366   2.231   1.745  0.2142  0.2455  0.3343
  860MOL0     H16056   2.462   2.390   1.612  0.1744 -1.0730 -0.7701
  860MOL0     H16057   2.332   2.505   1.612  2.4628  0.9238 -0.7044
  860MOL0     H16058   2.312   2.234   1.470 -0.5069  0.7637  3.3847
  860MOL0     H16059   2.345   2.392   1.392 -2.3980  1.1526 -1.3415
  860MOL0     H16060   2.212   2.197   1.266 -3.1038 -6.0565  0.7057
  860MOL0     H16061   1.988   2.038   1.078 -0.5069 -0.7144 -1.1299
  860MOL0     H16062   2.063   2.137   0.960  1.4080  0.4867  0.4180
  860MOL0     H16063   2.153   2.071   1.103 -1.1413 -1.5141  0.5633
  860MOL0     H16064   1.548   2.195   0.997  1.2344 -1.1768 -1.9029
  860MOL0     H16065   1.333   2.215   0.901  1.8380 -0.9722 -3.4596
  860MOL0     H16066   1.070   2.343   0.669 -3.5080 -1.1862  1.6571
  860MOL0     H16067   1.209   2.237   0.719  2.6397  0.4761  3.6312
  860MOL0     H16068   1.088   2.268   0.955  2.9360 -2.1989 -1.2223
  860MOL0     H16069   0.959   2.339   0.857  0.4698 -0.7367  2.0043
  860MOL0     H16070   0.920   2.107   0.930  0.9840 -0.7319  0.2564
  860MOL0     H16071   1.083   2.067   0.879 -0.6669 -1.8820 -1.3788
  860MOL0     H16072   0.996   2.127   0.634 -0.8754 -0.1945 -0.7428
  860MOL0     H16073   0.931   1.981   0.711  0.1353  0.3128  1.7002
  860MOL0     H16074   0.767   2.129   0.587 -0.7980  1.3594  0.0931
  860MOL0     H16075   0.789   2.255   0.712 -2.5496 -0.1060  0.7457
  860MOL0     H16076   0.674   1.974   0.752 -2.3192 -0.2926 -0.3064
  860MOL0     H16077   0.677   2.112   0.874 -1.3237 -2.1417  0.7586
  860MOL0     H16078   0.524   2.130   0.622  2.9827 -1.2592  0.0394
  860MOL0     H16079   0.535   2.241   0.763 -1.8272 -0.4553  0.5781
  860MOL0     H16080   0.465   2.046   0.912 -2.7636  5.1305  0.9210
  860MOL0     H16081   0.441   1.956   0.762  2.6980  0.8386 -0.8850
  860MOL0     H16082   1.409   2.619   0.804  2.9138 -0.5549 -1.8202
  860MOL0     H16083   1.615   2.616   0.917  1.0047 -1.0934  2.2545
  860MOL0     H16084   1.799   2.466   1.238 -1.1306 -2.0509 -2.4942
  860MOL0     H16085   1.943   2.509   1.430 -0.0199 -0.2010 -0.9412
  860MOL0     H16086   2.705   2.081   2.960 -0.0865 -0.8653 -1.4891
  860MOL0     H16087   2.898   1.990   3.056  2.9750 -2.9772 -0.6187
  860MOL0     H16088   3.175   1.857   3.430 -0.8394  0.3700 -1.5627
  860MOL0     H16089   3.348   1.740   3.527 -2.8115 -1.0633  1.2034
  860MOL0     H16090   3.470   1.305   3.384  2.6013 -1.0652 -2.4131
  860MOL0     H16091   3.499   1.421   3.267 -2.3796  2.6005  1.3389
  860MOL0     H16092   3.660   1.394   3.525  1.2498 -1.9668 -0.3676
  860MOL0     H16093   3.704   1.490   3.374 -0.6383 -0.5310 -0.3590
  860MOL0     H16094   3.691   1.266   3.249  0.1698  5.2296 -1.4871
  860MOL0     H16095   3.689   1.190   3.404  0.8414  0.8615  0.0562
  860MOL0     H16096   3.916   1.374   3.315 -1.3827 -0.5251  0.8161
  860MOL0     H16097   3.924   1.192   3.325 -0.7795 -2.6033  3.1626
  860MOL0     H16098   3.989   1.309   3.715  0.4458  0.7151 -0.3429
  860MOL0     H16099   3.280   1.413   3.260 -0.2734 -0.3398 -0.4419
  860MOL0     H16100   3.100   1.533   3.160  1.1693 -0.7098  0.7696
  861MOL0     O16101   3.533  10.285   3.195 -0.3649 -0.0395  0.3275
  861MOL0     C16102   3.588  10.178   3.239  0.6571  0.3986  0.1067
  861MOL0     O16103   3.620  10.068   3.163 -0.8476  0.0326 -0.1776
  861MOL0     C16104   3.553  10.037   3.045 -1.0050 -0.6059  0.4025
  861MOL0     C16105   3.566  10.116   2.926 -1.2206  0.4345  0.2084
  861MOL0     C16106   3.527  10.062   2.806  0.4351  0.3314 -0.2794
  861MOL0     C16107   3.473   9.938   2.802  0.5561  0.3922 -0.2231
  861MOL0     O16108   3.434   9.893   2.676  0.3236  0.1055  1.1505
  861MOL0     C16109   3.493   9.769   2.631  0.1565 -0.0170 -0.5648
  861MOL0     C16110   3.387   9.665   2.581  0.9344 -0.6394  0.3057
  861MOL0     C16111   3.454   9.545   2.515  0.3789 -0.5058 -0.5543
  861MOL0     C16112   3.516   9.447   2.616  0.2797  0.5637 -0.3035
  861MOL0     C16113   3.572   9.318   2.549  0.2988  0.0530 -0.6684
  861MOL0     C16114   3.621   9.214   2.649  0.0549 -0.4497 -0.7376
  861MOL0     C16115   3.695   9.096   2.591 -0.6499 -0.8015  0.6868
  861MOL0     C16116   3.758   9.001   2.698  0.2313 -0.4510  0.0717
  861MOL0     N16117   3.905   9.005   2.702  0.6190  0.7202 -0.1742
  861MOL0     C16118   3.987   8.932   2.615  0.0219  0.0157 -0.0080
  861MOL0     C16119   4.114   8.964   2.645  0.4904 -0.5796  0.7445
  861MOL0     C16120   4.250   8.917   2.590  0.1925 -0.3650 -0.0436
  861MOL0     C16121   4.239   8.771   2.549  0.0048  0.3483 -0.7426
  861MOL0     C16122   4.381   8.714   2.517  0.1671 -0.5451  0.1593
  861MOL0     C16123   4.464   8.691   2.635  0.9438 -0.5474  0.4407
  861MOL0     O16124   4.389   8.607   2.725  0.0865  0.7988 -0.1866
  861MOL0     C16125   4.434   8.586   2.853  0.2144 -0.0612 -0.2072
  861MOL0     C16126   4.538   8.655   2.919 -0.0560  0.2190 -0.1221
  861MOL0     C16127   4.575   8.634   3.053  0.7770  0.4582 -0.3849
  861MOL0     C16128   4.689   8.716   3.113 -0.7181  1.1063 -0.8094
  861MOL0     C16129   4.496   8.539   3.132 -0.1898 -0.8722  0.2930
  861MOL0     C16130   4.510   8.521   3.277 -0.3821 -0.2172  0.1153
  861MOL0     O16131   4.439   8.430   3.336  0.1916 -0.1982  0.2126
  861MOL0     C16132   4.423   8.413   3.470  0.7214 -0.1764  0.2472
  861MOL0     C16133   4.298   8.406   3.537 -1.1435  0.2029 -0.3172
  861MOL0     C16134   4.286   8.391   3.669 -0.4061 -0.5537 -0.0845
  861MOL0     C16135   4.401   8.381   3.749  0.1887 -0.2802 -0.2899
  861MOL0     O16136   4.401   8.375   3.889  0.0050  0.4227 -0.2748
  861MOL0     C16137   4.275   8.398   3.955 -1.0767  1.4399 -0.9156
  861MOL0     C16138   4.293   8.375   4.100 -0.1810 -1.0770 -0.6555
  861MOL0     C16139   4.159   8.414   4.170 -0.5769  0.7830  0.4479
  861MOL0     C16140   4.164   8.391   4.319  0.4023  0.1115 -0.1798
  861MOL0     C16141   4.052   8.467   4.384 -0.1912  0.3571 -0.0129
  861MOL0     C16142   4.065   8.486   4.534 -0.4893  0.2274  0.4279
  861MOL0     C16143   3.941   8.550   4.600  0.2253  0.0496 -0.8099
  861MOL0     C16144   3.962   8.697   4.623  0.1065 -0.2194 -0.1833
  861MOL0    Cl16145   3.995   8.793   4.483 -0.0147  0.4356  0.4111
  861MOL0     C16146   4.521   8.370   3.690 -0.3484 -0.3603 -0.4822
  861MOL0     C16147   4.540   8.394   3.551 -0.4311  0.2091  0.0631
  861MOL0     O16148   4.570   8.611   3.340  0.4933  0.2827 -0.1199
  861MOL0     C16149   4.401   8.466   3.062  0.5937  0.1514  0.7968
  861MOL0     C16150   4.370   8.490   2.927  0.3766  0.0277  0.3114
  861MOL0     N16151   4.108   9.056   2.748  0.3552 -0.2648  0.2413
  861MOL0     N16152   3.984   9.078   2.786 -0.0224 -0.1237  0.7150
  861MOL0     C16153   3.456   9.861   2.918  0.3617  0.4297  0.4451
  861MOL0     C16154   3.500   9.905   3.037  0.0479 -0.3015  0.0812
  861MOL0     C16155   3.635  10.177   3.376 -0.6617 -0.3456  1.0919
  861MOL0     C16156   3.602  10.076   3.466  1.0551  0.3767  0.0034
  861MOL0     C16157   3.665  10.047   3.587  0.3456 -0.2309 -0.3034
  861MOL0     C16158   3.762  10.133   3.629  0.3234  0.6312  0.0704
  861MOL0     O16159   3.816  10.102   3.757  0.1680 -0.7055  0.8001
  861MOL0     C16160   3.945  10.156   3.790  0.8822 -0.3702  0.8924
  861MOL0     C16161   3.976  10.122   3.938  0.5688  0.2853  0.2007
  861MOL0     C16162   3.878  10.198   4.040 -1.0808 -0.2014  0.0711
  861MOL0     C16163   3.923  10.157   4.178  0.9335 -0.8968 -0.1939
  861MOL0     C16164   4.057  10.214   4.191 -0.8164 -0.4016  0.1589
  861MOL0     C16165   4.174  10.248   4.208 -0.7673  0.6714  0.0724
  861MOL0     C16166   3.810  10.231   3.539  0.2717 -0.1484  0.1871
  861MOL0     C16167   3.748  10.261   3.411  0.5137  0.4046 -0.3010
  861MOL0     H16168   3.625  10.207   2.912 -1.9838  1.1247  1.3326
  861MOL0     H16169   3.548  10.112   2.712 -1.6912 -1.3228 -1.7520
  861MOL0     H16170   3.558   9.789   2.545  0.0831  0.7068 -0.4587
  861MOL0     H16171   3.550   9.725   2.714 -2.7907  1.0048  2.1962
  861MOL0     H16172   3.320   9.643   2.665 -0.3307  2.2588  0.1698
  861MOL0     H16173   3.332   9.718   2.503  4.3855  3.8912  0.6138
  861MOL0     H16174   3.373   9.496   2.460 -0.2971 -0.2129  0.1535
  861MOL0     H16175   3.524   9.583   2.440  0.5818  0.1378 -0.0485
  861MOL0     H16176   3.589   9.504   2.674  1.4268  0.0395 -1.2053
  861MOL0     H16177   3.436   9.404   2.677  0.9107 -0.6387 -0.3032
  861MOL0     H16178   3.494   9.272   2.487 -1.1204  2.7658 -1.0318
  861MOL0     H16179   3.650   9.345   2.477  0.6910 -0.1111 -0.3094
  861MOL0     H16180   3.680   9.264   2.726  2.2320 -0.7186 -2.1584
  861MOL0     H16181   3.534   9.170   2.698 -1.5085  3.0449 -0.0114
  861MOL0     H16182   3.639   9.044   2.513 -2.3264  1.8573  0.0002
  861MOL0     H16183   3.770   9.142   2.527 -0.9920 -0.9144  0.1974
  861MOL0     H16184   3.730   8.901   2.665  3.5749 -0.7078 -2.5912
  861MOL0     H16185   3.708   9.033   2.790 -0.5820 -0.6167 -0.3029
  861MOL0     H16186   3.955   8.859   2.541  0.2430 -1.2012  1.0542
  861MOL0     H16187   4.262   8.972   2.496 -1.1338  0.2469  0.1234
  861MOL0     H16188   4.325   8.941   2.665  1.5043 -0.1664 -1.3745
  861MOL0     H16189   4.179   8.749   2.460 -1.6586 -0.8722  0.5902
  861MOL0     H16190   4.191   8.706   2.623  3.7191 -0.5715  1.1028
  861MOL0     H16191   4.439   8.784   2.456  1.2037  1.6578  3.3994
  861MOL0     H16192   4.364   8.619   2.465  2.1882  0.0594 -1.7683
  861MOL0     H16193   4.481   8.790   2.679  2.9056 -1.6205  2.3365
  861MOL0     H16194   4.563   8.659   2.600  1.6799  3.4000 -1.7186
  861MOL0     H16195   4.600   8.723   2.861 -1.0054  0.3381 -1.0204
  861MOL0     H16196   4.748   8.651   3.178  1.1206  0.2014 -3.2139
  861MOL0     H16197   4.749   8.761   3.034 -0.0674 -0.9905 -1.5822
  861MOL0     H16198   4.651   8.801   3.171 -0.0429  0.6839  0.2888
  861MOL0     H16199   4.206   8.413   3.478 -1.5294  0.3128  0.2900
  861MOL0     H16200   4.185   8.384   3.709  0.5273  0.6687  2.7191
  861MOL0     H16201   4.234   8.497   3.932 -2.6318  1.4250  1.4373
  861MOL0     H16202   4.194   8.330   3.929 -0.6357  0.7039 -0.4281
  861MOL0     H16203   4.311   8.269   4.121  1.4448 -0.7866 -0.4653
  861MOL0     H16204   4.376   8.431   4.144 -1.2727 -0.1172  0.2456
  861MOL0     H16205   4.081   8.353   4.125 -1.6242  1.5699  1.1484
  861MOL0     H16206   4.143   8.520   4.147  0.5855  2.0764  4.7227
  861MOL0     H16207   4.150   8.286   4.345 -0.2396  0.7074  2.1165
  861MOL0     H16208   4.258   8.428   4.362  1.8124 -2.2444 -1.0803
  861MOL0     H16209   3.962   8.409   4.358  0.9941 -1.7228  0.3043
  861MOL0     H16210   4.040   8.569   4.345 -0.7741  0.3994  0.2614
  861MOL0     H16211   4.074   8.383   4.569  0.0439 -0.5999 -2.0135
  861MOL0     H16212   4.158   8.536   4.565 -1.2734  0.7282  2.1084
  861MOL0     H16213   3.923   8.504   4.697  0.4281 -5.2176 -2.8981
  861MOL0     H16214   3.852   8.534   4.538 -2.2930  4.3028  1.2769
  861MOL0     H16215   4.039   8.718   4.698 -0.7213 -0.6475  0.8189
  861MOL0     H16216   3.871   8.726   4.677  1.0709 -1.7897  2.5254
  861MOL0     H16217   4.603   8.348   3.757  0.3170 -0.0737 -1.1791
  861MOL0     H16218   4.636   8.392   3.499 -0.4307  1.8849 -0.0254
  861MOL0     H16219   4.359   8.382   3.115 -0.4561 -1.2668 -2.1349
  861MOL0     H16220   4.289   8.436   2.879  0.6173  1.0778 -1.3495
  861MOL0     H16221   3.401   9.769   2.904  0.7328  0.3769 -0.7443
  861MOL0     H16222   3.497   9.834   3.119 -0.7800 -0.7568 -0.3357
  861MOL0     H16223   3.531  10.007   3.421  1.1816  0.4748 -0.3451
  861MOL0     H16224   3.639   9.960   3.646 -0.4880 -0.5546 -1.1181
  861MOL0     H16225   4.025  10.114   3.728 -1.0270 -0.8918 -1.3638
  861MOL0     H16226   3.960  10.262   3.773  1.6201 -0.3003  1.8941
  861MOL0     H16227   4.078  10.159   3.945  0.2630  1.5957 -1.5031
  861MOL0     H16228   3.966  10.013   3.947 -1.6415  0.3755 -0.5725
  861MOL0     H16229   3.774  10.167   4.026 -1.3618  1.0523 -0.8537
  861MOL0     H16230   3.893  10.304   4.017 -2.6795  0.0408  0.0422
  861MOL0     H16231   3.935  10.049   4.169 -0.8999 -1.0008 -2.2989
  861MOL0     H16232   3.858  10.201   4.253  0.2514 -0.4982 -1.0000
  861MOL0     H16233   4.271  10.288   4.229 -0.7027  0.8218 -0.4906
  861MOL0     H16234   3.900  10.286   3.564  0.4961 -0.6467  0.4795
  861MOL0     H16235   3.805  10.328   3.348  3.1067 -0.2200  1.2208
  862MOL0     O16236   5.904   5.411   6.396 -0.1123  0.0246  0.4373
  862MOL0     C16237   5.888   5.500   6.311  0.7103  0.3174  0.5575
  862MOL0     O16238   5.761   5.549   6.276 -1.1118  0.1941  0.1223
  862MOL0     C16239   5.644   5.484   6.296 -0.2736  0.5719  0.6652
  862MOL0     C16240   5.527   5.558   6.303  0.2281  0.3447 -0.4698
  862MOL0     C16241   5.402   5.494   6.292  0.5960  0.0225 -0.6005
  862MOL0     C16242   5.397   5.355   6.271 -0.0102 -0.3888 -0.2900
  862MOL0     O16243   5.285   5.277   6.244 -0.6326 -0.3207  0.5748
  862MOL0     C16244   5.160   5.333   6.273  0.2842 -0.3537 -0.0818
  862MOL0     C16245   5.057   5.220   6.261 -0.2559 -0.1932  0.0455
  862MOL0     C16246   4.914   5.254   6.262  0.8298 -0.7127  0.2307
  862MOL0     C16247   4.863   5.266   6.114 -1.0781  0.0994  0.7642
  862MOL0     C16248   4.711   5.303   6.102  0.2286  0.7298  0.2415
  862MOL0     C16249   4.650   5.267   5.965  0.5448  0.2002  0.0164
  862MOL0     C16250   4.522   5.339   5.941  0.6973 -0.7823 -1.5021
  862MOL0     C16251   4.460   5.291   5.811 -0.1605  0.6882  0.5407
  862MOL0     N16252   4.348   5.370   5.766 -0.2544 -0.3423 -0.2776
  862MOL0     C16253   4.214   5.344   5.788  0.8128  0.5727 -0.3344
  862MOL0     C16254   4.149   5.453   5.748  0.2825  0.8481 -0.2404
  862MOL0     C16255   4.002   5.489   5.775 -0.2722 -0.2639  0.2599
  862MOL0     C16256   3.943   5.581   5.663  0.2342 -0.0666  0.4748
  862MOL0     C16257   3.796   5.601   5.694  1.1781 -0.0732 -0.0602
  862MOL0     C16258   3.746   5.703   5.596 -0.7659  0.5735  0.1690
  862MOL0     O16259   3.603   5.720   5.615  0.1034  0.6664 -0.6886
  862MOL0     C16260   3.557   5.840   5.657 -0.1983 -1.1790 -1.0454
  862MOL0     C16261   3.438   5.833   5.739 -0.6564  0.1481  0.2373
  862MOL0     C16262   3.378   5.951   5.786  1.1122  0.2861  0.0145
  862MOL0     C16263   3.278   5.933   5.895 -0.2685  0.0551 -0.9057
  862MOL0     C16264   3.412   6.071   5.724 -0.1743  0.0804 -0.5069
  862MOL0     C16265   3.327   6.199   5.727  0.2495  0.1900  0.5442
  862MOL0     O16266   3.219   6.207   5.811 -0.5125  0.0313  0.3437
  862MOL0     C16267   3.147   6.323   5.798  0.6363 -0.3497 -0.0834
  862MOL0     C16268   3.168   6.428   5.891  0.5978  0.9543  1.1467
  862MOL0     C16269   3.084   6.538   5.901  0.2917  0.0526 -0.9876
  862MOL0     C16270   2.966   6.547   5.828 -0.0639 -1.0019 -1.4892
  862MOL0     O16271   2.908   6.677   5.829 -0.1101 -0.0697  0.0090
  862MOL0     C16272   2.767   6.691   5.830  0.6967  0.4030  0.1837
  862MOL0     C16273   2.740   6.832   5.879 -0.6028  0.0245 -0.6918
  862MOL0     C16274   2.592   6.870   5.901  0.1927  0.0587  0.4700
  862MOL0     C16275   2.538   6.909   5.766  0.8390  0.0869  0.2040
  862MOL0     C16276   2.385   6.938   5.769 -0.2299 -0.1312  0.3752
  862MOL0     C16277   2.332   6.966   5.630  0.2046  0.2670  0.4082
  862MOL0     C16278   2.188   7.007   5.637  0.3807  0.7609  0.2361
  862MOL0     C16279   2.124   7.018   5.503  0.2044 -0.2326  0.3497
  862MOL0    Cl16280   1.955   7.059   5.488 -0.5023  0.5230  0.1033
  862MOL0     C16281   2.936   6.448   5.731 -0.0062  0.7221  0.0311
  862MOL0     C16282   3.031   6.336   5.724  0.2508  0.0373  0.6011
  862MOL0     O16283   3.361   6.294   5.657  0.2027 -0.0509 -0.2801
  862MOL0     C16284   3.531   6.076   5.646 -0.0091  0.2360  0.5508
  862MOL0     C16285   3.616   5.962   5.615 -0.1064 -0.2643  0.6203
  862MOL0     N16286   4.232   5.548   5.697 -1.1211 -0.0203  0.4699
  862MOL0     N16287   4.353   5.492   5.700 -0.2066 -0.5758  0.0261
  862MOL0     C16288   5.516   5.285   6.275  0.3796 -0.0118  0.3441
  862MOL0     C16289   5.633   5.343   6.300 -0.5704 -0.5515 -0.4995
  862MOL0     C16290   6.007   5.557   6.237 -0.5375  0.5528 -0.1303
  862MOL0     C16291   5.998   5.664   6.143 -0.7825  0.0458 -0.1559
  862MOL0     C16292   6.116   5.702   6.075  0.2819  0.2728  0.3205
  862MOL0     C16293   6.240   5.647   6.102  0.5450 -0.2192  0.6870
  862MOL0     O16294   6.341   5.697   6.027  0.0780  0.6214 -0.3470
  862MOL0     C16295   6.472   5.653   6.052 -0.3588 -0.7855  1.0061
  862MOL0     C16296   6.485   5.504   5.998 -0.0238 -0.3999  0.1893
  862MOL0     C16297   6.598   5.463   5.910 -1.9119  0.4493 -0.0377
  862MOL0     C16298   6.738   5.543   5.939 -0.7949  0.1065  0.1042
  862MOL0     C16299   6.796   5.512   6.072 -0.1397  0.6703  0.3213
  862MOL0     C16300   6.841   5.476   6.176  0.6020 -0.6325 -0.8588
  862MOL0     C16301   6.249   5.548   6.201 -0.2284  0.0078  0.4945
  862MOL0     C16302   6.134   5.501   6.267 -0.0763  0.0314 -0.1375
  862MOL0     H16303   5.531   5.664   6.278  2.6846 -0.1968 -2.7556
  862MOL0     H16304   5.306   5.544   6.300  1.4770  1.6798  0.1212
  862MOL0     H16305   5.162   5.386   6.369  0.7612 -0.3656 -0.0860
  862MOL0     H16306   5.144   5.408   6.195  1.1578 -0.9458 -0.8348
  862MOL0     H16307   5.080   5.152   6.178  1.3172  0.8125 -0.3772
  862MOL0     H16308   5.064   5.173   6.360  0.8005  1.5003  0.8120
  862MOL0     H16309   4.858   5.174   6.312  0.4799 -0.3768  0.3829
  862MOL0     H16310   4.895   5.342   6.324  1.7356  1.1890 -2.0436
  862MOL0     H16311   4.927   5.331   6.056 -3.6706  1.4283 -0.8032
  862MOL0     H16312   4.876   5.164   6.076 -1.4499  0.7303 -1.1828
  862MOL0     H16313   4.654   5.257   6.183 -0.3482  2.5577  0.9220
  862MOL0     H16314   4.708   5.410   6.125  0.1780  0.5106  1.2948
  862MOL0     H16315   4.722   5.282   5.884  0.2434  2.2059  0.0814
  862MOL0     H16316   4.626   5.160   5.974  0.6013  0.0544 -1.3520
  862MOL0     H16317   4.456   5.330   6.027  1.0714  2.5011 -0.7638
  862MOL0     H16318   4.540   5.446   5.929 -1.8873  0.0012  0.6759
  862MOL0     H16319   4.429   5.186   5.814 -0.8680  0.5744 -3.9599
  862MOL0     H16320   4.535   5.290   5.731 -0.2742 -0.8396  0.4211
  862MOL0     H16321   4.171   5.255   5.833 -0.3857  1.2508 -0.0775
  862MOL0     H16322   3.949   5.393   5.773 -0.1847 -0.3250  0.7831
  862MOL0     H16323   3.987   5.539   5.871  1.4560  1.9097 -0.5261
  862MOL0     H16324   3.958   5.528   5.568  0.4230 -1.3771  1.2230
  862MOL0     H16325   4.005   5.670   5.651  1.0865 -0.5693  1.1059
  862MOL0     H16326   3.779   5.642   5.794  0.0162 -2.1556  0.6629
  862MOL0     H16327   3.745   5.506   5.674  0.3817  0.3366 -0.0203
  862MOL0     H16328   3.760   5.664   5.494 -0.3150  0.4002  0.2972
  862MOL0     H16329   3.797   5.798   5.609 -2.9647  1.7768  0.5439
  862MOL0     H16330   3.415   5.734   5.777  0.7214  0.0021  0.7681
  862MOL0     H16331   3.309   5.992   5.982  0.2139 -0.8396 -0.4682
  862MOL0     H16332   3.181   5.973   5.861 -0.1579  0.2006 -1.0512
  862MOL0     H16333   3.272   5.829   5.928 -0.7368 -0.5430 -2.7705
  862MOL0     H16334   3.255   6.423   5.956 -0.9222 -2.7974  3.1641
  862MOL0     H16335   3.112   6.622   5.963 -0.6254  1.0499 -1.8997
  862MOL0     H16336   2.723   6.677   5.731 -0.4006  2.3552  0.3508
  862MOL0     H16337   2.716   6.629   5.905  1.2415 -1.3000 -0.7965
  862MOL0     H16338   2.795   6.842   5.972 -0.2644 -0.8867 -0.7763
  862MOL0     H16339   2.790   6.902   5.812  1.6134 -0.6701  0.1633
  862MOL0     H16340   2.598   6.946   5.979  1.7056 -1.0773  1.5205
  862MOL0     H16341   2.545   6.776   5.931  0.3947 -0.3537 -0.4554
  862MOL0     H16342   2.589   6.999   5.732  0.9544 -0.6082 -1.5924
  862MOL0     H16343   2.560   6.837   5.687  1.2275  0.9429 -0.4837
  862MOL0     H16344   2.376   7.021   5.841  1.0823 -1.7497  2.5206
  862MOL0     H16345   2.321   6.859   5.809 -0.8144  0.3926  0.4937
  862MOL0     H16346   2.386   7.047   5.581  0.4514 -0.8857 -1.3245
  862MOL0     H16347   2.350   6.876   5.570 -2.8469 -0.1293 -0.1183
  862MOL0     H16348   2.177   7.105   5.685 -1.4840 -0.6945  2.9945
  862MOL0     H16349   2.137   6.927   5.691  3.3673 -2.4252 -1.1994
  862MOL0     H16350   2.128   6.919   5.457 -0.1959 -0.3141  0.4920
  862MOL0     H16351   2.186   7.086   5.443 -2.0696  1.6319 -0.0388
  862MOL0     H16352   2.846   6.446   5.671 -0.7121  0.4504  1.0586
  862MOL0     H16353   3.016   6.255   5.653  0.4606  1.1089 -0.7209
  862MOL0     H16354   3.561   6.172   5.606 -2.7415  1.0608  0.3117
  862MOL0     H16355   3.703   5.968   5.550 -0.1059  0.7628  0.7015
  862MOL0     H16356   5.515   5.181   6.246 -1.2347  0.6265 -2.1707
  862MOL0     H16357   5.722   5.282   6.288  0.6050  0.9800  0.1625
  862MOL0     H16358   5.904   5.708   6.113  0.8568  1.6970 -3.2542
  862MOL0     H16359   6.110   5.775   5.994  2.8651  1.8401  1.4393
  862MOL0     H16360   6.528   5.725   5.992 -2.1211  1.0356  1.4204
  862MOL0     H16361   6.511   5.662   6.154  2.5169  0.6660 -0.1070
  862MOL0     H16362   6.395   5.486   5.938 -0.4610  1.3150  0.3058
  862MOL0     H16363   6.480   5.427   6.075 -0.2406 -1.4264 -0.8161
  862MOL0     H16364   6.572   5.461   5.803 -3.2649 -1.9868  0.2633
  862MOL0     H16365   6.616   5.357   5.933  3.5303  1.2324  0.5350
  862MOL0     H16366   6.729   5.650   5.919  0.1313  0.3172  0.7264
  862MOL0     H16367   6.808   5.506   5.864 -0.6399 -0.6211  0.5908
  862MOL0     H16368   6.875   5.442   6.271  0.9411 -1.1862 -1.1755
  862MOL0     H16369   6.346   5.505   6.225 -0.2529 -0.2024  0.2291
  862MOL0     H16370   6.147   5.421   6.339 -0.5662  1.2330  1.3296
  863MOL0     O16371   9.103   9.224   7.365  0.2813 -0.1214 -0.0813
  863MOL0     C16372   9.159   9.215   7.259  0.0339  0.2817  0.0695
  863MOL0     O16373   9.106   9.163   7.138 -0.0246  0.2696  0.0969
  863MOL0     C16374   8.984   9.091   7.140 -0.2122 -0.0113  0.5261
  863MOL0     C16375   8.959   8.985   7.227  0.2170 -0.2648  0.2610
  863MOL0     C16376   8.859   8.892   7.208  0.4998 -0.0973 -0.5685
  863MOL0     C16377   8.773   8.904   7.098  0.0934 -0.4277  0.9251
  863MOL0     O16378   8.663   8.818   7.090  0.4100 -0.3015 -0.0026
  863MOL0     C16379   8.584   8.797   6.969 -0.0045 -0.2233 -0.1193
  863MOL0     C16380   8.437   8.771   7.005  0.3510 -0.9986 -0.0872
  863MOL0     C16381   8.380   8.872   7.103 -0.4223  0.3491 -0.1794
  863MOL0     C16382   8.304   8.789   7.212  0.3429 -0.1563  0.8225
  863MOL0     C16383   8.230   8.875   7.319  1.4759 -0.9402 -0.5022
  863MOL0     C16384   8.134   8.793   7.401  0.9768  0.6165 -0.4802
  863MOL0     C16385   8.104   8.847   7.539  0.7147 -0.1662  0.2349
  863MOL0     C16386   7.975   8.786   7.596  0.2784  0.7136  0.2927
  863MOL0     N16387   7.892   8.880   7.672 -0.8804 -0.9261 -0.1964
  863MOL0     C16388   7.900   8.920   7.804  0.4147  0.4120 -0.0888
  863MOL0     C16389   7.802   9.018   7.813  0.2836  0.2737 -0.6203
  863MOL0     C16390   7.751   9.094   7.933 -0.2220 -0.6887 -0.1344
  863MOL0     C16391   7.604   9.118   7.947  0.9166  0.5051 -0.1885
  863MOL0     C16392   7.568   9.178   8.085  0.4753  0.0299  0.7284
  863MOL0     C16393   7.421   9.222   8.071  0.0001 -0.4464 -0.3681
  863MOL0     O16394   7.400   9.337   7.990 -0.4144 -0.0289  0.1476
  863MOL0     C16395   7.267   9.375   7.983  0.1909 -0.2713 -0.8939
  863MOL0     C16396   7.180   9.348   7.884  0.0760  0.0373 -0.3944
  863MOL0     C16397   7.049   9.384   7.889  0.2453 -0.2958  0.3833
  863MOL0     C16398   6.965   9.346   7.763 -0.6561 -0.7587 -0.0988
  863MOL0     C16399   6.991   9.461   7.995 -0.1914  0.4274 -0.8965
  863MOL0     C16400   6.860   9.536   7.992  0.5120  0.8000 -0.7640
  863MOL0     O16401   6.853   9.659   8.057  0.7153 -0.3340 -0.5513
  863MOL0     C16402   6.734   9.693   8.125 -0.4506  0.1530  0.9065
  863MOL0     C16403   6.616   9.685   8.060 -0.0334 -0.2349  0.0152
  863MOL0     C16404   6.501   9.718   8.132 -0.2119 -0.2810 -0.1604
  863MOL0     C16405   6.500   9.766   8.263 -0.0880 -0.1747  0.0121
  863MOL0     O16406   6.378   9.795   8.319  0.6407 -0.4229  0.5792
  863MOL0     C16407   6.367   9.905   8.420  0.5648  0.5734  0.9906
  863MOL0     C16408   6.222   9.927   8.456  0.4220 -1.2365  0.2418
  863MOL0     C16409   6.138   9.948   8.314  0.6788  0.2116  0.4141
  863MOL0     C16410   5.987   9.991   8.354 -1.0196 -0.2160  1.5965
  863MOL0     C16411   5.924  10.067   8.238 -0.1366 -0.0008 -0.0055
  863MOL0     C16412   5.775  10.078   8.253  0.1039  0.3950 -0.3918
  863MOL0     C16413   5.714  10.156   8.134 -0.5783 -0.1609  0.4448
  863MOL0     C16414   5.558  10.156   8.131 -1.0317 -0.0444 -0.1903
  863MOL0    Cl16415   5.480   9.995   8.118  0.1639  0.0726 -0.2164
  863MOL0     C16416   6.618   9.782   8.329 -1.6618 -0.0774 -0.3005
  863MOL0     C16417   6.735   9.736   8.262 -0.0841  0.2273  0.3016
  863MOL0     O16418   6.767   9.466   7.969  0.6564 -0.1678 -0.3640
  863MOL0     C16419   7.079   9.488   8.103  0.2132 -0.3713 -0.3496
  863MOL0     C16420   7.209   9.440   8.101  0.3538 -0.0591  0.6470
  863MOL0     N16421   7.733   9.027   7.694  0.4693 -0.5499 -0.0217
  863MOL0     N16422   7.792   8.945   7.614 -0.9567  0.5337  0.4192
  863MOL0     C16423   8.800   9.009   7.004  0.2054 -0.3748  0.0325
  863MOL0     C16424   8.908   9.104   7.031  0.0501 -0.2501  0.0950
  863MOL0     C16425   9.299   9.261   7.255 -0.0580 -0.9159 -0.3373
  863MOL0     C16426   9.403   9.197   7.174  0.7498 -0.5616 -0.2927
  863MOL0     C16427   9.537   9.234   7.182 -0.3136  0.2237 -0.6207
  863MOL0     C16428   9.581   9.330   7.266  0.0567 -0.0635 -0.3972
  863MOL0     O16429   9.703   9.382   7.297  0.2171 -0.1076 -0.3633
  863MOL0     C16430   9.817   9.347   7.224  0.1019 -0.7779 -0.7299
  863MOL0     C16431   9.920   9.461   7.240 -0.1727 -0.3382 -0.5065
  863MOL0     C16432   9.878   9.604   7.188 -0.5868  0.7818  1.0028
  863MOL0     C16433   9.983   9.637   7.073  0.1373  0.5727 -0.3349
  863MOL0     C16434   9.976   9.777   7.038 -0.0922 -0.2005 -0.4256
  863MOL0     C16435   9.967   9.894   7.003  0.0602 -0.7192 -0.5113
  863MOL0     C16436   9.481   9.388   7.346  0.4227  0.5547 -0.2399
  863MOL0     C16437   9.345   9.361   7.340  0.5676 -0.2735  0.2057
  863MOL0     H16438   9.032   8.986   7.307  1.4718 -0.8758 -0.8510
  863MOL0     H16439   8.837   8.814   7.281 -2.6633  2.0508  0.9736
  863MOL0     H16440   8.601   8.878   6.897  1.8971 -1.3598 -1.0189
  863MOL0     H16441   8.624   8.709   6.917  3.9604  1.2321  0.1303
  863MOL0     H16442   8.381   8.776   6.912 -1.8208 -1.5428  1.1099
  863MOL0     H16443   8.422   8.668   7.040  1.1240 -0.9214  0.5111
  863MOL0     H16444   8.452   8.932   7.160 -1.2298  1.8236 -0.6700
  863MOL0     H16445   8.314   8.940   7.049 -0.6472  1.4212  1.3729
  863MOL0     H16446   8.238   8.722   7.156  0.2294  1.5657 -1.2298
  863MOL0     H16447   8.376   8.721   7.258  0.6430 -0.1925  0.3123
  863MOL0     H16448   8.308   8.918   7.383  0.8788  1.4145 -1.2286
  863MOL0     H16449   8.182   8.957   7.265  2.4482 -1.5578 -2.3929
  863MOL0     H16450   8.042   8.779   7.344 -1.4577  3.8258  2.2703
  863MOL0     H16451   8.175   8.692   7.407 -1.0433 -0.2423 -0.5485
  863MOL0     H16452   8.191   8.820   7.600  2.3039  0.1313 -1.8090
  863MOL0     H16453   8.091   8.954   7.522 -1.3925 -0.3629  0.2371
  863MOL0     H16454   7.990   8.700   7.662  2.4270  0.1964 -0.7697
  863MOL0     H16455   7.923   8.737   7.514  0.8625 -0.6887  0.7258
  863MOL0     H16456   7.959   8.874   7.883 -1.8865 -0.6666  1.0981
  863MOL0     H16457   7.776   9.041   8.026 -0.7122  0.6578  0.7996
  863MOL0     H16458   7.798   9.193   7.942 -0.5227 -0.4949 -0.6448
  863MOL0     H16459   7.550   9.024   7.939  2.7240 -0.6606  0.5771
  863MOL0     H16460   7.575   9.184   7.865  2.9785  0.1709 -1.2797
  863MOL0     H16461   7.624   9.266   8.115  0.8975  0.4218 -1.0962
  863MOL0     H16462   7.571   9.103   8.165 -0.6128 -3.2224 -2.0190
  863MOL0     H16463   7.392   9.244   8.174  2.0055  1.3280 -0.1282
  863MOL0     H16464   7.349   9.143   8.046 -3.4426  2.2944  0.1639
  863MOL0     H16465   7.205   9.294   7.793 -3.0041  0.7082 -1.7410
  863MOL0     H16466   7.001   9.265   7.700  0.7678 -0.9840  0.9722
  863MOL0     H16467   6.859   9.326   7.782 -0.4279 -0.8875  1.1318
  863MOL0     H16468   6.963   9.432   7.696 -2.2739 -3.9559 -4.6558
  863MOL0     H16469   6.625   9.659   7.955  1.8875  0.6054 -0.0610
  863MOL0     H16470   6.404   9.705   8.084 -0.2847 -1.3978  0.2726
  863MOL0     H16471   6.434   9.881   8.503  2.2070 -1.5050 -0.8256
  863MOL0     H16472   6.408  10.000   8.385  0.7008  0.4332  0.7689
  863MOL0     H16473   6.178   9.842   8.508 -0.4575 -1.2989 -0.5717
  863MOL0     H16474   6.215  10.018   8.517  1.1313 -1.9335  1.3906
  863MOL0     H16475   6.132   9.857   8.253 -1.4542  0.5270  0.0798
  863MOL0     H16476   6.182  10.028   8.254 -0.2335  0.7382  0.4277
  863MOL0     H16477   5.935   9.899   8.382 -1.4014 -0.4821  0.0574
  863MOL0     H16478   5.980  10.053   8.445  0.3216 -0.5127  1.9251
  863MOL0     H16479   5.947  10.013   8.146 -1.3283 -1.6084  0.5823
  863MOL0     H16480   5.970  10.165   8.223  1.2532 -0.8903 -1.7876
  863MOL0     H16481   5.735   9.976   8.247  2.4707 -0.7313  1.4246
  863MOL0     H16482   5.756  10.114   8.355 -0.5201 -0.2589 -0.2630
  863MOL0     H16483   5.766  10.126   8.042  0.6832 -0.1775  1.1428
  863MOL0     H16484   5.738  10.262   8.142 -0.3092 -0.0550 -1.3134
  863MOL0     H16485   5.515  10.219   8.052  0.0242 -2.5947 -3.0229
  863MOL0     H16486   5.515  10.195   8.223 -5.7734 -2.3497 -1.0746
  863MOL0     H16487   6.630   9.825   8.428  1.5622  1.2899 -1.1393
  863MOL0     H16488   6.837   9.737   8.300  0.9211 -0.8754 -2.1582
  863MOL0     H16489   7.036   9.537   8.189 -1.5593  0.8445 -1.8657
  863MOL0     H16490   7.269   9.465   8.188  2.3615 -1.4512 -0.2794
  863MOL0     H16491   8.742   9.028   6.915 -1.5925 -1.4439  0.9061
  863MOL0     H16492   8.926   9.183   6.959 -1.1244 -0.7966 -0.8220
  863MOL0     H16493   9.385   9.120   7.099 -0.6054 -0.8583  0.3119
  863MOL0     H16494   9.615   9.181   7.128 -0.3388  1.0252 -1.4796
  863MOL0     H16495   9.855   9.250   7.256  0.2978 -0.4345  0.1017
  863MOL0     H16496   9.798   9.351   7.116  2.9117 -0.8260 -1.3219
  863MOL0     H16497  10.016   9.434   7.194 -1.2351  0.0209 -3.0772
  863MOL0     H16498   9.928   9.470   7.349 -2.1348 -1.2864 -0.2536
  863MOL0     H16499   9.891   9.681   7.265  1.3830 -0.2479  1.7822
  863MOL0     H16500   9.785   9.611   7.132  0.3634  0.2032 -0.7089
  863MOL0     H16501   9.990   9.572   6.985  1.7800  1.5155 -0.9436
  863MOL0     H16502  10.081   9.630   7.121 -0.4278  1.4825  0.9842
  863MOL0     H16503   9.930   9.983   6.957 -0.9793 -0.8858 -0.0333
  863MOL0     H16504   9.512   9.449   7.429 -1.1058  0.8141  0.1760
  863MOL0     H16505   9.278   9.405   7.414 -0.1476 -0.1599 -0.4925
  864MOL0     O16506   3.681   1.685   4.433 -0.1930  0.0649 -0.4353
  864MOL0     C16507   3.640   1.599   4.513 -0.0660 -0.5058  0.3162
  864MOL0     O16508   3.513   1.570   4.535  0.0537 -0.1294  0.0489
  864MOL0     C16509   3.419   1.631   4.459  0.0567 -0.1910 -0.0427
  864MOL0     C16510   3.312   1.683   4.525  0.1878 -0.5516 -0.0160
  864MOL0     C16511   3.208   1.727   4.445 -0.5945  0.3998 -0.1170
  864MOL0     C16512   3.206   1.722   4.310  0.3355 -0.9878 -0.3027
  864MOL0     O16513   3.099   1.788   4.253 -0.2400  0.9418  0.3125
  864MOL0     C16514   3.097   1.797   4.113 -0.1894  0.2194  1.4942
  864MOL0     C16515   2.987   1.905   4.083 -0.8073  0.6229 -0.1833
  864MOL0     C16516   2.851   1.849   4.093  0.4549 -0.6163 -0.2205
  864MOL0     C16517   2.757   1.961   4.068  0.4051  0.3829  0.5566
  864MOL0     C16518   2.612   1.902   4.068  0.5501  0.1896  0.1056
  864MOL0     C16519   2.513   2.022   4.059  0.0159  0.3838 -0.2231
  864MOL0     C16520   2.378   1.967   4.019  0.2428 -0.4686  0.2566
  864MOL0     C16521   2.336   1.844   4.104 -0.6526  0.2211  0.3288
  864MOL0     N16522   2.190   1.831   4.075 -0.1158 -0.2675 -0.6431
  864MOL0     C16523   2.103   1.749   4.152 -0.7947 -0.7651  0.8394
  864MOL0     C16524   1.987   1.753   4.088 -0.1684  0.1600  0.4614
  864MOL0     C16525   1.855   1.686   4.134  0.2287  0.5992  0.2343
  864MOL0     C16526   1.802   1.765   4.252 -0.0683  0.6399 -0.1235
  864MOL0     C16527   1.659   1.714   4.298  0.5078 -0.3089 -0.1877
  864MOL0     C16528   1.603   1.799   4.408  0.4096  0.0369  0.2445
  864MOL0     O16529   1.465   1.800   4.417 -0.1920 -0.1465 -0.1536
  864MOL0     C16530   1.396   1.683   4.411  0.6665  0.3692 -0.2259
  864MOL0     C16531   1.274   1.675   4.350  0.6977 -0.2428  0.9801
  864MOL0     C16532   1.194   1.557   4.344 -0.1275 -0.6820 -0.3272
  864MOL0     C16533   1.071   1.566   4.256 -1.0211 -0.0534  0.6832
  864MOL0     C16534   1.238   1.444   4.413 -0.2103  0.0888 -0.6020
  864MOL0     C16535   1.167   1.299   4.413  0.9442 -0.8576 -0.2835
  864MOL0     O16536   1.199   1.209   4.508  0.6536  0.1309  0.3443
  864MOL0     C16537   1.129   1.091   4.503 -0.2335 -0.4081 -0.6731
  864MOL0     C16538   1.030   1.059   4.604  0.3220  0.1834  0.3857
  864MOL0     C16539   0.962   0.945   4.589  0.0070  0.2901  0.5840
  864MOL0     C16540   0.980   0.847   4.488 -0.3242 -0.4388  0.0818
  864MOL0     O16541   0.910   0.733   4.492 -0.5422 -0.3465  0.1835
  864MOL0     C16542   0.821   0.726   4.384 -0.1401  0.6444 -0.0093
  864MOL0     C16543   0.695   0.652   4.427 -0.0451  0.2858 -0.2912
  864MOL0     C16544   0.614   0.732   4.534 -0.0190  0.1804 -0.3255
  864MOL0     C16545   0.508   0.808   4.457 -0.1429 -0.1843 -0.2085
  864MOL0     C16546   0.426   0.890   4.552  0.5853 -0.3432  0.3350
  864MOL0     C16547   0.322   0.806   4.637  0.2778  0.3972  0.1491
  864MOL0     C16548   0.194   0.884   4.648 -0.4737  0.3666 -0.6084
  864MOL0     C16549   0.072   0.795   4.651  0.2962  0.3419  0.3189
  864MOL0    Cl16550  -0.071   0.875   4.717 -0.0950  0.0200  0.1553
  864MOL0     C16551   1.079   0.879   4.396  0.3652  0.5531 -0.3631
  864MOL0     C16552   1.148   0.995   4.406  0.0640  0.0509 -0.2575
  864MOL0     O16553   1.096   1.268   4.318  0.5835  0.0432 -0.1290
  864MOL0     C16554   1.354   1.451   4.481 -0.4456  0.6291  0.0271
  864MOL0     C16555   1.436   1.567   4.478  0.8070  0.2333  0.4254
  864MOL0     N16556   1.992   1.823   3.971  0.0041  0.3911 -0.7351
  864MOL0     N16557   2.115   1.866   3.967 -0.1290 -1.0465  0.4519
  864MOL0     C16558   3.310   1.650   4.248 -0.0962 -0.5607  0.5554
  864MOL0     C16559   3.420   1.609   4.321  0.2439  0.7609 -0.5959
  864MOL0     C16560   3.735   1.538   4.607  0.2901  0.8023  0.1707
  864MOL0     C16561   3.685   1.486   4.730 -0.5819  0.1773  0.7874
  864MOL0     C16562   3.779   1.411   4.809  0.1047  0.3363  0.2596
  864MOL0     C16563   3.913   1.399   4.770 -0.1709  0.2196  0.4638
  864MOL0     O16564   4.003   1.326   4.842  0.2197 -1.0013 -0.4754
  864MOL0     C16565   4.133   1.382   4.867 -0.8059 -0.3939  0.3372
  864MOL0     C16566   4.129   1.502   4.962  0.0518 -0.3445 -0.1611
  864MOL0     C16567   4.092   1.469   5.106 -0.4084  0.0914 -0.1907
  864MOL0     C16568   4.148   1.585   5.195  0.3784 -0.2684  0.4121
  864MOL0     C16569   4.067   1.701   5.186 -0.4787  0.1570  0.1364
  864MOL0     C16570   3.979   1.782   5.178 -0.5050  0.1903 -1.5396
  864MOL0     C16571   3.959   1.456   4.649  0.1160 -0.1546  0.3816
  864MOL0     C16572   3.871   1.519   4.567  0.0398  0.2724  0.2400
  864MOL0     H16573   3.309   1.687   4.634  0.1689  1.3295 -0.0584
  864MOL0     H16574   3.128   1.768   4.506  0.0578 -0.9117  1.7377
  864MOL0     H16575   3.195   1.832   4.081  0.1042 -0.9768  1.0528
  864MOL0     H16576   3.077   1.704   4.060  0.5388  1.3694 -0.9148
  864MOL0     H16577   3.010   1.986   4.152  2.7669  0.6316 -1.1785
  864MOL0     H16578   2.995   1.941   3.980 -2.6151 -0.5435 -0.7718
  864MOL0     H16579   2.839   1.763   4.027 -1.8162 -0.1706 -0.4878
  864MOL0     H16580   2.839   1.829   4.200 -0.2575  2.8076  0.4532
  864MOL0     H16581   2.769   2.045   4.137 -0.2628 -1.4167  3.0292
  864MOL0     H16582   2.770   1.996   3.965 -1.7310 -0.0551  0.0849
  864MOL0     H16583   2.604   1.836   3.981 -0.3184 -1.4167  1.3394
  864MOL0     H16584   2.582   1.840   4.154 -2.2721  2.3247  0.7872
  864MOL0     H16585   2.500   2.068   4.157  1.7483 -1.9969  1.2246
  864MOL0     H16586   2.547   2.099   3.989  2.1411 -0.0940  0.2248
  864MOL0     H16587   2.299   2.042   4.031 -0.4247 -1.3967  2.1388
  864MOL0     H16588   2.393   1.937   3.915  0.8305  1.7148 -0.3351
  864MOL0     H16589   2.356   1.880   4.205  0.3080 -1.0502  0.6249
  864MOL0     H16590   2.401   1.757   4.089  2.8013  2.7881 -0.6849
  864MOL0     H16591   2.122   1.695   4.244  0.8853 -1.3705  0.1803
  864MOL0     H16592   1.783   1.686   4.051 -0.6613  1.4637  0.9802
  864MOL0     H16593   1.883   1.585   4.165  2.7340  1.7710  2.2434
  864MOL0     H16594   1.778   1.870   4.231  0.5245  1.1622  1.6333
  864MOL0     H16595   1.868   1.759   4.339  0.0384 -1.3938 -0.3119
  864MOL0     H16596   1.681   1.612   4.329  3.5600 -0.4450 -2.3486
  864MOL0     H16597   1.580   1.708   4.222 -0.3452  2.4154  0.3781
  864MOL0     H16598   1.620   1.902   4.375 -3.7559 -0.1848 -3.5718
  864MOL0     H16599   1.659   1.781   4.500 -0.8098  2.5374  1.5990
  864MOL0     H16600   1.239   1.766   4.302  2.4257  0.5605  1.1754
  864MOL0     H16601   1.064   1.667   4.215  0.0107 -1.0823 -2.3462
  864MOL0     H16602   1.092   1.500   4.171  2.7078  0.5436  0.9846
  864MOL0     H16603   0.982   1.541   4.314 -1.3628 -1.9574 -0.5501
  864MOL0     H16604   1.009   1.126   4.687  0.8138  1.2248 -0.3060
  864MOL0     H16605   0.892   0.902   4.661 -0.6658  0.3352 -0.0395
  864MOL0     H16606   0.792   0.826   4.350 -0.1728 -0.0611 -2.1913
  864MOL0     H16607   0.867   0.673   4.300  2.0850 -0.7483  1.9824
  864MOL0     H16608   0.640   0.629   4.335 -1.7144  0.6701  0.5663
  864MOL0     H16609   0.727   0.557   4.470 -1.4490 -2.2629 -4.2672
  864MOL0     H16610   0.681   0.780   4.606  1.5268 -0.8349 -1.0346
  864MOL0     H16611   0.552   0.657   4.585  0.4172 -0.2440 -0.4167
  864MOL0     H16612   0.560   0.870   4.383  0.8790 -2.2839 -1.3485
  864MOL0     H16613   0.454   0.738   4.392 -0.2977  2.3637 -3.0503
  864MOL0     H16614   0.375   0.963   4.488  2.3271 -0.3858 -1.1679
  864MOL0     H16615   0.476   0.956   4.624 -1.6465  0.6603  1.0928
  864MOL0     H16616   0.312   0.702   4.604 -1.7887 -0.8448  4.0479
  864MOL0     H16617   0.369   0.786   4.733  1.9091 -3.2598 -1.1923
  864MOL0     H16618   0.186   0.950   4.561 -0.9507  0.9978 -0.0965
  864MOL0     H16619   0.202   0.947   4.737  0.2153  0.8205 -0.9744
  864MOL0     H16620   0.085   0.700   4.702  0.5710  0.0026 -0.3667
  864MOL0     H16621   0.053   0.777   4.544 -2.6655  0.9622  0.6434
  864MOL0     H16622   1.101   0.809   4.316 -1.6629  1.1786 -1.5261
  864MOL0     H16623   1.221   1.003   4.327  0.8516 -2.2076  0.1580
  864MOL0     H16624   1.398   1.367   4.534 -0.3027  1.3135  1.0144
  864MOL0     H16625   1.523   1.582   4.541  1.4953  1.7140 -0.8136
  864MOL0     H16626   3.311   1.641   4.140  3.6602 -1.6870  0.5321
  864MOL0     H16627   3.513   1.572   4.280  1.2659  2.5221  0.0156
  864MOL0     H16628   3.583   1.509   4.759 -0.8163 -0.2952  0.3580
  864MOL0     H16629   3.746   1.360   4.899  1.2554  2.0322  1.7039
  864MOL0     H16630   4.202   1.306   4.904  0.5943  0.3221 -0.7044
  864MOL0     H16631   4.169   1.428   4.775 -0.4343 -1.5874 -0.1293
  864MOL0     H16632   4.053   1.568   4.919 -1.0808 -0.7754  1.1148
  864MOL0     H16633   4.226   1.553   4.958  0.1073 -0.5065 -1.4157
  864MOL0     H16634   4.144   1.376   5.133 -0.0755  0.7264  1.5095
  864MOL0     H16635   3.985   1.460   5.126 -0.6148  0.3685 -1.1490
  864MOL0     H16636   4.251   1.609   5.167  0.6753 -1.9392 -0.0191
  864MOL0     H16637   4.138   1.551   5.299  0.9977 -0.6279  0.3587
  864MOL0     H16638   3.895   1.845   5.161 -0.1056  1.5608  1.0559
  864MOL0     H16639   4.061   1.453   4.611  0.1446  1.5203  0.2634
  864MOL0     H16640   3.904   1.578   4.482 -0.0522  1.5736  1.0683
  865MOL0     O16641  10.189   6.157   5.814  0.0502 -1.1384 -0.2798
  865MOL0     C16642  10.220   6.174   5.697 -0.2282  0.6894  0.0853
  865MOL0     O16643  10.133   6.195   5.593  0.2372 -0.1260 -0.5860
  865MOL0     C16644  10.003   6.166   5.603  0.4203  0.9876 -0.9417
  865MOL0     C16645   9.960   6.033   5.635 -0.3176  0.0364 -0.2233
  865MOL0     C16646   9.825   5.999   5.638  0.2373 -0.2711  0.4465
  865MOL0     C16647   9.736   6.105   5.616  0.8019 -0.2213  0.1211
  865MOL0     O16648   9.603   6.087   5.634  0.4098 -0.0237 -0.3609
  865MOL0     C16649   9.545   6.166   5.739  0.0301  0.0522  0.0405
  865MOL0     C16650   9.402   6.120   5.774 -0.1756  0.3325 -0.6365
  865MOL0     C16651   9.413   6.018   5.891 -0.2140 -0.3179  0.8119
  865MOL0     C16652   9.287   5.921   5.887 -0.2216  0.1176  0.2525
  865MOL0     C16653   9.276   5.825   6.007 -0.3595 -0.1984 -0.3100
  865MOL0     C16654   9.185   5.713   5.982  0.1263 -0.2143 -0.8328
  865MOL0     C16655   9.039   5.758   5.985 -0.4111  0.3248  0.2928
  865MOL0     C16656   8.984   5.759   6.136 -0.3727  0.3172 -0.2567
  865MOL0     N16657   8.845   5.794   6.153 -0.8158  0.0150  0.1225
  865MOL0     C16658   8.795   5.917   6.115  0.2653  0.4833 -0.8077
  865MOL0     C16659   8.665   5.889   6.132  0.0610  0.5916 -0.3947
  865MOL0     C16660   8.555   5.976   6.092 -0.7276  0.3175  0.0743
  865MOL0     C16661   8.594   6.102   6.009 -0.9597 -0.5163 -0.6143
  865MOL0     C16662   8.488   6.214   5.990 -0.1400 -0.2648 -0.8559
  865MOL0     C16663   8.356   6.167   5.939 -1.0474  0.0571  0.0108
  865MOL0     O16664   8.293   6.103   6.046  0.4343  0.0853 -0.4426
  865MOL0     C16665   8.166   6.136   6.070 -0.0287  0.3464  0.3655
  865MOL0     C16666   8.134   6.264   6.125 -0.2363 -0.1474  0.3121
  865MOL0     C16667   8.002   6.295   6.156  0.5299  0.0612  0.6260
  865MOL0     C16668   7.976   6.413   6.249  0.9950  0.4038  0.0504
  865MOL0     C16669   7.899   6.205   6.102  0.1894  0.1359 -0.3302
  865MOL0     C16670   7.754   6.235   6.107  0.3184 -1.0856 -0.1362
  865MOL0     O16671   7.710   6.332   6.190 -0.4240  0.1188 -0.4614
  865MOL0     C16672   7.574   6.381   6.209 -0.2604  0.3588  0.4577
  865MOL0     C16673   7.553   6.463   6.322  0.2045  0.1898 -0.1129
  865MOL0     C16674   7.433   6.532   6.340 -0.1574  0.8153 -0.0423
  865MOL0     C16675   7.325   6.511   6.251 -0.0959 -0.2103  0.0446
  865MOL0     O16676   7.201   6.574   6.258  0.0355 -0.4744  0.4024
  865MOL0     C16677   7.183   6.675   6.353 -0.6539  0.6188  0.4783
  865MOL0     C16678   7.038   6.727   6.357 -0.0654 -0.3374 -0.4976
  865MOL0     C16679   6.994   6.818   6.237 -0.3705  0.0329  0.6830
  865MOL0     C16680   6.839   6.817   6.239  0.2354  0.0359 -0.4003
  865MOL0     C16681   6.774   6.908   6.131 -0.5359  1.1282 -0.2555
  865MOL0     C16682   6.815   7.059   6.140  0.7508 -0.4524  0.6744
  865MOL0     C16683   6.789   7.122   6.272  0.3767  0.1091  0.2332
  865MOL0     C16684   6.721   7.265   6.256 -0.1051 -0.4171 -0.0402
  865MOL0    Cl16685   6.547   7.261   6.249 -0.2863  0.2730 -0.3501
  865MOL0     C16686   7.349   6.433   6.137  0.5940  0.3838  0.2157
  865MOL0     C16687   7.469   6.363   6.114 -0.9098 -1.1364  0.5119
  865MOL0     O16688   7.678   6.169   6.043  0.2729 -0.3175 -0.0884
  865MOL0     C16689   7.937   6.092   6.040  0.0741 -0.3878  0.1374
  865MOL0     C16690   8.066   6.058   6.029  0.2636 -0.3670 -0.5330
  865MOL0     N16691   8.649   5.776   6.194  0.5254 -0.0538  0.4206
  865MOL0     N16692   8.754   5.703   6.197 -0.0449  0.6373 -0.5981
  865MOL0     C16693   9.771   6.225   5.569 -0.0094  0.2952  0.6183
  865MOL0     C16694   9.900   6.254   5.561 -0.5315  0.4028  0.9965
  865MOL0     C16695  10.364   6.178   5.665  0.3770 -0.5475 -0.4240
  865MOL0     C16696  10.449   6.126   5.749 -1.0237 -0.2741  0.7461
  865MOL0     C16697  10.587   6.111   5.715 -0.9699 -0.6108  0.0519
  865MOL0     C16698  10.628   6.155   5.584 -0.4732 -0.5635  0.0744
  865MOL0     O16699  10.761   6.146   5.544 -0.1903  0.0734  0.0531
  865MOL0     C16700  10.860   6.093   5.636 -0.1422 -0.5136 -0.1617
  865MOL0     C16701  10.985   6.050   5.559 -1.1284 -0.1457  0.5199
  865MOL0     C16702  11.077   6.172   5.542 -0.7365  0.6446  0.1530
  865MOL0     C16703  11.165   6.150   5.421  0.1500 -0.6914 -0.5300
  865MOL0     C16704  11.266   6.258   5.419 -0.2194 -0.1308 -0.8576
  865MOL0     C16705  11.352   6.350   5.414  0.3623 -1.3206 -0.1061
  865MOL0     C16706  10.532   6.217   5.502 -0.8394 -0.2828 -0.8458
  865MOL0     C16707  10.405   6.227   5.544 -0.2981 -0.0356 -1.2041
  865MOL0     H16708  10.028   5.956   5.669 -1.0424 -0.5970 -0.1707
  865MOL0     H16709   9.791   5.906   5.682  0.0827  1.5220  4.5849
  865MOL0     H16710   9.606   6.164   5.829  0.0460 -2.1457  0.0237
  865MOL0     H16711   9.533   6.274   5.721 -0.6301 -0.2287 -1.4240
  865MOL0     H16712   9.330   6.194   5.811 -0.2415 -0.3127  0.6088
  865MOL0     H16713   9.368   6.069   5.684 -0.3656 -2.2898  0.8231
  865MOL0     H16714   9.504   5.961   5.868 -1.5123 -1.0462 -3.4753
  865MOL0     H16715   9.418   6.061   5.991  1.5972  1.7934 -0.0810
  865MOL0     H16716   9.198   5.984   5.895  0.8418  1.5030  2.1217
  865MOL0     H16717   9.279   5.865   5.794 -0.3571  1.2379 -0.4360
  865MOL0     H16718   9.373   5.779   6.025 -1.7581 -2.8780  1.0160
  865MOL0     H16719   9.243   5.890   6.088 -1.7124  1.2374 -1.9212
  865MOL0     H16720   9.204   5.675   5.881 -1.7060 -1.3627 -0.8099
  865MOL0     H16721   9.199   5.636   6.059  0.0352  0.1855 -0.4173
  865MOL0     H16722   9.038   5.856   5.937  1.0493 -0.1288 -0.7017
  865MOL0     H16723   8.970   5.687   5.938 -0.9131  0.9276  0.1107
  865MOL0     H16724   9.052   5.822   6.194 -3.9583  1.1675  3.5257
  865MOL0     H16725   8.999   5.659   6.179 -2.4705  0.2670  0.4749
  865MOL0     H16726   8.846   6.001   6.070  1.8004  0.2590  0.4547
  865MOL0     H16727   8.497   5.906   6.031  0.0257  0.0534 -0.3526
  865MOL0     H16728   8.496   6.017   6.174 -0.4297  1.7045 -0.3631
  865MOL0     H16729   8.629   6.080   5.907  0.7063 -0.2273 -0.1289
  865MOL0     H16730   8.680   6.151   6.054 -0.3839 -1.0940 -1.0585
  865MOL0     H16731   8.524   6.284   5.914 -2.5926  1.5262 -0.5023
  865MOL0     H16732   8.476   6.267   6.085 -2.1319 -1.5635 -0.3203
  865MOL0     H16733   8.362   6.097   5.855  0.0504  1.3457 -1.0437
  865MOL0     H16734   8.298   6.256   5.914 -0.3714  2.0816  4.6854
  865MOL0     H16735   8.202   6.343   6.155  0.2627 -0.6833  0.6311
  865MOL0     H16736   7.909   6.396   6.334  2.2259  1.5406  1.2956
  865MOL0     H16737   8.067   6.449   6.298  3.3299 -1.8794 -2.2708
  865MOL0     H16738   7.930   6.497   6.196  0.0471 -0.1189  0.0208
  865MOL0     H16739   7.630   6.462   6.399 -0.4137  0.7064  0.5182
  865MOL0     H16740   7.419   6.591   6.430  0.4065  2.0769 -0.7671
  865MOL0     H16741   7.204   6.635   6.453 -0.6122 -0.5964  0.0045
  865MOL0     H16742   7.255   6.757   6.343  0.1658 -0.2167 -0.8048
  865MOL0     H16743   6.969   6.645   6.375  0.3735 -0.5783  0.1190
  865MOL0     H16744   7.042   6.777   6.454  0.6614 -0.9043 -0.2258
  865MOL0     H16745   7.028   6.780   6.141  0.9548  0.5676  0.9226
  865MOL0     H16746   7.023   6.923   6.245  1.8827 -0.1056 -3.2477
  865MOL0     H16747   6.806   6.713   6.245  0.1509  0.1178  0.7536
  865MOL0     H16748   6.800   6.849   6.336 -0.8209 -1.0564 -0.4390
  865MOL0     H16749   6.665   6.900   6.125 -0.5259  0.0547  0.5798
  865MOL0     H16750   6.802   6.873   6.031 -0.3887  0.4503  0.0180
  865MOL0     H16751   6.917   7.067   6.104 -0.2147 -2.7060 -3.0851
  865MOL0     H16752   6.766   7.108   6.055  0.7349  0.9670  1.4710
  865MOL0     H16753   6.887   7.138   6.317 -0.3223 -0.0846  1.8709
  865MOL0     H16754   6.733   7.050   6.333  2.0735 -2.0674 -0.6108
  865MOL0     H16755   6.751   7.314   6.163 -2.1255  0.0749 -0.4749
  865MOL0     H16756   6.751   7.336   6.334  1.0286 -2.0754  1.1057
  865MOL0     H16757   7.270   6.426   6.064  2.2980 -0.7590 -1.6231
  865MOL0     H16758   7.480   6.295   6.030  2.2819 -0.6095  0.3816
  865MOL0     H16759   7.856   6.029   6.005 -1.6649  0.0869  2.9918
  865MOL0     H16760   8.091   5.967   5.974 -0.6001  0.3890 -2.2531
  865MOL0     H16761   9.702   6.293   5.522 -0.3509 -0.5456 -0.1250
  865MOL0     H16762   9.930   6.350   5.519 -0.8397  0.9904  2.1000
  865MOL0     H16763  10.433   6.080   5.845  2.4040 -1.3335  0.9547
  865MOL0     H16764  10.652   6.066   5.790 -1.5585 -0.5299  0.6185
  865MOL0     H16765  10.878   6.163   5.718 -0.7188 -0.8759  0.2826
  865MOL0     H16766  10.817   5.999   5.672 -0.9551  0.4423  1.5111
  865MOL0     H16767  10.949   6.001   5.468 -2.1400  1.6417 -0.0914
  865MOL0     H16768  11.043   5.974   5.611 -0.5571  1.6539  2.6711
  865MOL0     H16769  11.133   6.190   5.633 -0.8390  0.1586  0.3112
  865MOL0     H16770  11.018   6.256   5.502  1.0697  0.6848 -2.7545
  865MOL0     H16771  11.104   6.151   5.330  0.0990 -0.3946 -0.4923
  865MOL0     H16772  11.219   6.055   5.423 -2.5649 -2.3377  0.6987
  865MOL0     H16773  11.426   6.427   5.409 -0.3791 -0.6343 -0.6862
  865MOL0     H16774  10.557   6.261   5.406 -0.8698 -0.6209 -1.0116
  865MOL0     H16775  10.336   6.290   5.487 -0.8840 -0.7219 -1.2748
  866MOL0     O16776   0.049   1.986  11.247 -0.9786  0.0410 -0.5713
  866MOL0     C16777   0.138   1.958  11.331  0.6118 -0.0069 -0.1977
  866MOL0     O16778   0.104   1.907  11.453 -0.3523  0.6887 -0.4070
  866MOL0     C16779  -0.026   1.872  11.476  0.1439  0.2442  0.3953
  866MOL0     C16780  -0.066   1.906  11.603 -0.4331  0.1252 -0.2084
  866MOL0     C16781  -0.190   1.873  11.652  0.2453  0.1174  0.5808
  866MOL0     C16782  -0.278   1.792  11.572 -0.1250  0.4449 -0.6427
  866MOL0     O16783  -0.402   1.781  11.616  0.0854 -0.4984 -0.5350
  866MOL0     C16784  -0.505   1.825  11.531 -0.0542 -0.0722  1.0321
  866MOL0     C16785  -0.644   1.817  11.600 -0.3884  0.6567  0.5842
  866MOL0     C16786  -0.668   1.667  11.602  0.5660  0.3912 -0.0205
  866MOL0     C16787  -0.806   1.650  11.665  0.4496  0.4168 -0.3560
  866MOL0     C16788  -0.854   1.496  11.668 -0.5851  0.4289  0.2767
  866MOL0     C16789  -0.881   1.425  11.539 -0.3847 -0.1653  0.1271
  866MOL0     C16790  -0.922   1.280  11.568 -0.1252  0.6281 -0.9192
  866MOL0     C16791  -0.961   1.216  11.438  0.1727  0.4110  0.3145
  866MOL0     N16792  -1.092   1.272  11.386 -1.3459  0.3614 -0.0887
  866MOL0     C16793  -1.222   1.214  11.405 -0.2937  1.1118 -0.0006
  866MOL0     C16794  -1.295   1.279  11.309 -0.1563  0.0199 -0.3692
  866MOL0     C16795  -1.437   1.282  11.291  0.1566 -0.4433  0.1237
  866MOL0     C16796  -1.515   1.188  11.390  0.2046 -0.3283 -0.8749
  866MOL0     C16797  -1.662   1.221  11.380 -0.2921  0.0127 -0.4384
  866MOL0     C16798  -1.699   1.342  11.463 -0.3837  0.7498 -0.3771
  866MOL0     O16799  -1.831   1.387  11.421  0.3498 -0.2987 -0.0342
  866MOL0     C16800  -1.936   1.407  11.507 -0.5013 -0.1733 -0.6667
  866MOL0     C16801  -1.928   1.379  11.645  0.1463  0.8211 -0.0446
  866MOL0     C16802  -2.040   1.365  11.722  0.0227  0.2153  0.6407
  866MOL0     C16803  -2.019   1.336  11.861 -0.0969 -0.8164 -0.8134
  866MOL0     C16804  -2.168   1.387  11.665 -0.5319  0.1886 -0.5535
  866MOL0     C16805  -2.295   1.356  11.737 -0.6059  0.2923 -0.3345
  866MOL0     O16806  -2.398   1.439  11.711 -0.2175  0.4828 -0.5160
  866MOL0     C16807  -2.527   1.427  11.761 -0.6028 -0.4875 -0.6770
  866MOL0     C16808  -2.574   1.325  11.843 -0.1072 -0.1136  0.5026
  866MOL0     C16809  -2.699   1.338  11.908 -0.2942  0.8713  0.6094
  866MOL0     C16810  -2.775   1.454  11.894  1.1101 -0.5133  0.3027
  866MOL0     O16811  -2.895   1.457  11.970  0.1070  0.0158  0.0034
  866MOL0     C16812  -3.008   1.505  11.909  0.0052 -0.3240 -0.1514
  866MOL0     C16813  -3.107   1.484  12.016  0.0556  0.3066  0.2072
  866MOL0     C16814  -3.148   1.341  12.027 -0.7312 -0.4242 -0.6128
  866MOL0     C16815  -3.265   1.321  12.128  0.7062 -0.4447  0.2214
  866MOL0     C16816  -3.285   1.172  12.155  0.7417 -0.0817 -0.5109
  866MOL0     C16817  -3.387   1.136  12.268 -0.2972 -0.2846 -0.0007
  866MOL0     C16818  -3.535   1.176  12.224 -0.7045  0.4144  0.5271
  866MOL0     C16819  -3.645   1.134  12.327 -0.2751 -0.5749 -0.7741
  866MOL0    Cl16820  -3.659   0.948  12.319 -0.5653  0.2433  0.1694
  866MOL0     C16821  -2.731   1.543  11.795  0.3657 -0.1228  0.6079
  866MOL0     C16822  -2.607   1.536  11.735  0.1165 -0.7840  0.5410
  866MOL0     O16823  -2.301   1.245  11.794 -0.3275 -0.2204  0.1482
  866MOL0     C16824  -2.173   1.424  11.526 -0.2055 -1.1813  0.8223
  866MOL0     C16825  -2.060   1.435  11.449 -0.1393 -0.8386 -0.1428
  866MOL0     N16826  -1.211   1.360  11.236 -0.5973 -0.1292 -0.5139
  866MOL0     N16827  -1.096   1.362  11.280 -0.5297 -0.1060 -0.0838
  866MOL0     C16828  -0.241   1.759  11.448 -0.0465 -0.4602  0.3447
  866MOL0     C16829  -0.111   1.790  11.403  0.5968 -0.2892  0.2739
  866MOL0     C16830   0.276   1.967  11.304  0.3483  0.0736 -0.1447
  866MOL0     C16831   0.319   1.994  11.179 -0.0828  1.0610  0.7240
  866MOL0     C16832   0.453   1.990  11.149  0.0373 -0.5561  0.0074
  866MOL0     C16833   0.553   1.954  11.246 -0.8840  0.4627 -0.3960
  866MOL0     O16834   0.690   1.937  11.235 -0.6464  0.4212  0.2314
  866MOL0     C16835   0.750   1.915  11.105 -0.0132  0.0650 -0.9674
  866MOL0     C16836   0.883   1.984  11.113 -0.7553 -0.2464  0.9324
  866MOL0     C16837   0.984   1.941  11.000 -0.3903 -0.4706  0.2397
  866MOL0     C16838   1.095   2.044  10.970  0.1781  0.2136  0.4207
  866MOL0     C16839   1.209   2.041  11.069  1.0103 -0.0931  0.1384
  866MOL0     C16840   1.311   2.013  11.137  0.2876  0.5347 -0.2487
  866MOL0     C16841   0.510   1.934  11.380  0.0296 -0.5668 -0.4114
  866MOL0     C16842   0.370   1.932  11.400 -0.2133  0.2766 -0.4159
  866MOL0     H16843   0.003   1.967  11.659  1.0848  1.3173 -3.1351
  866MOL0     H16844  -0.213   1.918  11.747  0.8235  2.3695 -0.2959
  866MOL0     H16845  -0.477   1.928  11.506  0.5403 -0.4222  0.2004
  866MOL0     H16846  -0.506   1.775  11.433  0.3797  1.6268  0.1219
  866MOL0     H16847  -0.643   1.863  11.699 -1.5387  0.9378  0.4860
  866MOL0     H16848  -0.717   1.866  11.535  1.9348  0.7695 -2.1490
  866MOL0     H16849  -0.682   1.630  11.500 -3.4911  1.1589  0.1109
  866MOL0     H16850  -0.605   1.596  11.656  0.3831 -1.1676 -1.7506
  866MOL0     H16851  -0.807   1.689  11.767 -0.8937 -2.1773  0.7035
  866MOL0     H16852  -0.869   1.719  11.608 -2.8061 -1.8047  0.3293
  866MOL0     H16853  -0.784   1.429  11.719  1.4633  2.3499  0.1069
  866MOL0     H16854  -0.942   1.491  11.732  0.6647 -0.2219  2.0119
  866MOL0     H16855  -0.960   1.481  11.489 -0.7709 -2.4967 -2.1345
  866MOL0     H16856  -0.787   1.430  11.482 -0.4608  0.6269  0.0631
  866MOL0     H16857  -0.836   1.224  11.606 -1.5526 -1.3932 -0.4675
  866MOL0     H16858  -1.012   1.276  11.630 -1.6847  1.7695 -2.9676
  866MOL0     H16859  -0.958   1.108  11.449 -1.5549  0.2288 -0.6353
  866MOL0     H16860  -0.886   1.244  11.363 -1.1905 -0.0965 -1.2894
  866MOL0     H16861  -1.250   1.138  11.477  0.1374  0.9283 -0.0185
  866MOL0     H16862  -1.467   1.387  11.297 -2.2155 -1.0604  0.0834
  866MOL0     H16863  -1.462   1.249  11.190 -0.1125  0.7208 -0.2020
  866MOL0     H16864  -1.470   1.205  11.489  2.8205  0.6746 -2.1320
  866MOL0     H16865  -1.513   1.080  11.374 -0.9093 -0.4499 -0.3040
  866MOL0     H16866  -1.713   1.131  11.413 -0.2783  0.4349  0.7719
  866MOL0     H16867  -1.688   1.234  11.274  1.6412 -0.3745 -1.0223
  866MOL0     H16868  -1.628   1.424  11.461  1.7526 -0.9811  0.6778
  866MOL0     H16869  -1.702   1.299  11.564 -0.9199  2.3285  0.3104
  866MOL0     H16870  -1.837   1.350  11.695 -0.1366 -0.0047  0.0112
  866MOL0     H16871  -2.107   1.315  11.922 -3.2165  0.0738 -4.5702
  866MOL0     H16872  -1.941   1.260  11.876  0.7392  0.2002  0.1304
  866MOL0     H16873  -1.983   1.427  11.909 -0.8187 -1.8540  1.8305
  866MOL0     H16874  -2.518   1.236  11.873  0.3563  0.1424  0.4049
  866MOL0     H16875  -2.727   1.267  11.985  2.6407 -0.3882  0.6379
  866MOL0     H16876  -2.999   1.610  11.879 -1.7529 -0.0291  0.2523
  866MOL0     H16877  -3.033   1.454  11.815 -1.5777  0.9737 -0.4764
  866MOL0     H16878  -3.076   1.523  12.114 -1.7295 -3.2231  2.3854
  866MOL0     H16879  -3.196   1.534  11.978 -0.4929 -1.9484 -1.7016
  866MOL0     H16880  -3.062   1.281  12.057  0.4396  1.4397 -0.0858
  866MOL0     H16881  -3.166   1.308  11.924  1.6995 -3.9587 -0.0831
  866MOL0     H16882  -3.240   1.363  12.226 -2.8129 -1.4484  1.7234
  866MOL0     H16883  -3.357   1.369  12.095  0.8366 -2.2140 -3.1824
  866MOL0     H16884  -3.190   1.129  12.190  0.2575 -0.0008  0.9844
  866MOL0     H16885  -3.321   1.121  12.065 -1.6535  0.1373  0.2497
  866MOL0     H16886  -3.372   1.029  12.285 -1.3189 -1.2646 -4.1769
  866MOL0     H16887  -3.359   1.192  12.358  0.4606 -2.9122  1.5343
  866MOL0     H16888  -3.554   1.128  12.128 -1.0039 -0.7861  1.1631
  866MOL0     H16889  -3.539   1.284  12.205 -1.3688  0.8359  2.7464
  866MOL0     H16890  -3.741   1.168  12.288 -0.6775 -1.6131 -0.7231
  866MOL0     H16891  -3.621   1.168  12.428 -0.7069  0.0387 -0.8761
  866MOL0     H16892  -2.799   1.621  11.762  0.0572 -1.0841 -1.1426
  866MOL0     H16893  -2.573   1.611  11.664 -0.9475 -0.1384  0.6842
  866MOL0     H16894  -2.263   1.441  11.467  2.0410 -3.2926 -3.7721
  866MOL0     H16895  -2.076   1.464  11.346 -2.5008 -1.4837 -0.0245
  866MOL0     H16896  -0.302   1.709  11.373 -1.9885 -0.1643  1.6553
  866MOL0     H16897  -0.067   1.775  11.305 -0.4863 -0.5706 -0.1778
  866MOL0     H16898   0.256   2.036  11.101 -2.5605 -1.7501  1.0545
  866MOL0     H16899   0.481   2.007  11.046  0.1576 -2.2436 -0.2643
  866MOL0     H16900   0.769   1.809  11.082 -0.0219 -0.2190  0.2554
  866MOL0     H16901   0.687   1.952  11.024 -1.9346  2.0451  1.2940
  866MOL0     H16902   0.924   1.965  11.212 -1.4779  2.8140  1.9376
  866MOL0     H16903   0.879   2.094  11.112  2.3787 -0.0102  1.9821
  866MOL0     H16904   0.930   1.929  10.906  0.2806  1.2755 -0.4020
  866MOL0     H16905   1.024   1.841  11.020  0.8645 -0.0306  0.0278
  866MOL0     H16906   1.048   2.142  10.957 -1.4084 -0.6160 -0.3046
  866MOL0     H16907   1.154   2.021  10.880  0.3377 -0.0485  0.5910
  866MOL0     H16908   1.399   1.975  11.185 -0.2994  0.0891  0.5039
  866MOL0     H16909   0.573   1.897  11.460  0.9248 -2.2451 -1.8366
  866MOL0     H16910   0.335   1.899  11.497 -3.4876  0.4414 -1.4423
  867MOL0     O16911   9.545  11.325   9.150 -0.0080 -0.3838 -0.2112
  867MOL0     C16912   9.523  11.215   9.103  1.1288  0.0490 -0.0414
  867MOL0     O16913   9.392  11.166   9.099 -0.7425  0.0939 -0.2989
  867MOL0     C16914   9.274  11.241   9.128  0.3801  0.6070 -0.1378
  867MOL0     C16915   9.162  11.162   9.157 -0.5319 -0.0338  0.0050
  867MOL0     C16916   9.034  11.220   9.171 -0.3833 -0.7266 -0.2849
  867MOL0     C16917   9.011  11.360   9.169 -0.0877 -0.5583  0.2012
  867MOL0     O16918   8.890  11.425   9.174 -0.1013 -0.5932 -0.1755
  867MOL0     C16919   8.772  11.350   9.127  0.3992 -0.0656 -1.2226
  867MOL0     C16920   8.650  11.440   9.125 -0.5884  0.0787 -0.5409
  867MOL0     C16921   8.527  11.347   9.101 -0.6436 -0.6504 -0.3436
  867MOL0     C16922   8.400  11.428   9.071 -0.3643  0.4397  0.3188
  867MOL0     C16923   8.274  11.361   9.124  0.0617 -0.3490  0.1492
  867MOL0     C16924   8.137  11.447   9.117 -0.7774 -0.2262  0.0359
  867MOL0     C16925   8.010  11.371   9.158 -0.1243 -0.0929  0.3042
  867MOL0     C16926   7.881  11.455   9.164  0.3010  0.7545 -0.0830
  867MOL0     N16927   7.847  11.514   9.036 -0.8800  0.7338 -0.6442
  867MOL0     C16928   7.818  11.440   8.925 -0.1348  0.0340  0.3400
  867MOL0     C16929   7.779  11.537   8.835  0.1130 -0.2672 -0.7944
  867MOL0     C16930   7.692  11.496   8.720  0.2621  0.5055  0.2697
  867MOL0     C16931   7.714  11.583   8.595 -0.2171 -0.4846 -0.3143
  867MOL0     C16932   7.857  11.591   8.532  0.3565 -0.2917 -0.0316
  867MOL0     C16933   7.971  11.644   8.626  0.1908 -0.6486  0.7058
  867MOL0     O16934   8.086  11.669   8.551  0.0384 -0.0479 -0.1592
  867MOL0     C16935   8.106  11.767   8.464  0.0478  0.0197  1.2877
  867MOL0     C16936   8.230  11.763   8.393  1.1211  0.5162  1.1504
  867MOL0     C16937   8.269  11.866   8.303 -0.6940 -0.6727  0.3907
  867MOL0     C16938   8.404  11.851   8.239  0.7871  0.8248  0.0682
  867MOL0     C16939   8.188  11.979   8.286 -0.5102  0.1466  0.5450
  867MOL0     C16940   8.228  12.086   8.194 -0.2474  0.5216  0.3354
  867MOL0     O16941   8.338  12.157   8.239 -0.2957  0.0341  0.3504
  867MOL0     C16942   8.423  12.215   8.144 -0.1868 -0.1334  0.7964
  867MOL0     C16943   8.460  12.164   8.018  1.0275  0.0311  0.0909
  867MOL0     C16944   8.531  12.229   7.922  0.6966  0.3031  0.3739
  867MOL0     C16945   8.582  12.352   7.947 -0.1189 -0.9435  0.8148
  867MOL0     O16946   8.673  12.413   7.861  0.5184 -0.6840 -0.5599
  867MOL0     C16947   8.778  12.490   7.920  0.0378  0.0028  0.8858
  867MOL0     C16948   8.877  12.517   7.802 -0.4971 -0.3485 -0.1062
  867MOL0     C16949   8.998  12.592   7.859  0.2836  0.1445 -0.5854
  867MOL0     C16950   9.111  12.606   7.750  0.4314 -0.2873  0.0309
  867MOL0     C16951   9.224  12.709   7.793  0.8400  0.7079 -0.7162
  867MOL0     C16952   9.350  12.709   7.700  0.0080  0.2062  0.0967
  867MOL0     C16953   9.396  12.565   7.651 -0.1800 -0.6612  1.0294
  867MOL0     C16954   9.525  12.571   7.567 -0.7752 -0.2648  0.5813
  867MOL0    Cl16955   9.504  12.679   7.422 -0.4262  0.5239 -0.0752
  867MOL0     C16956   8.555  12.406   8.079 -0.1115  0.5916  0.1548
  867MOL0     C16957   8.482  12.337   8.181  0.0717 -0.6352  0.2207
  867MOL0     O16958   8.181  12.075   8.079 -0.2222 -0.0335 -0.4415
  867MOL0     C16959   8.065  11.985   8.350  0.1542 -0.6899  0.0705
  867MOL0     C16960   8.026  11.884   8.434  0.5112 -0.1312 -0.2111
  867MOL0     N16961   7.787  11.663   8.894  0.5138  0.3458 -0.3943
  867MOL0     N16962   7.830  11.646   9.016 -0.5971 -0.2395  0.1165
  867MOL0     C16963   9.127  11.439   9.137 -0.6578  0.0807 -0.9630
  867MOL0     C16964   9.254  11.378   9.118 -0.3231  0.5405 -1.0756
  867MOL0     C16965   9.635  11.125   9.065  0.3393  0.2635 -0.2642
  867MOL0     C16966   9.760  11.183   9.040 -0.2873  0.8642  0.4484
  867MOL0     C16967   9.863  11.102   8.995 -0.8688  0.3110 -0.6176
  867MOL0     C16968   9.844  10.968   8.957 -0.0092  0.0974 -1.0042
  867MOL0     O16969   9.948  10.900   8.910 -0.8670 -0.0741 -0.0263
  867MOL0     C16970   9.958  10.913   8.764  0.8512  0.0047 -0.7098
  867MOL0     C16971  10.094  10.958   8.711 -0.4897 -0.6843 -0.2258
  867MOL0     C16972  10.185  10.832   8.712  0.2276  0.0882 -0.4765
  867MOL0     C16973  10.237  10.777   8.843  0.4530 -0.3604  0.0785
  867MOL0     C16974  10.316  10.875   8.912 -0.9382 -0.5862  0.6386
  867MOL0     C16975  10.387  10.956   8.972 -0.1269  0.8823 -1.0891
  867MOL0     C16976   9.722  10.907   8.980  0.5978  0.7801 -0.1974
  867MOL0     C16977   9.615  10.986   9.020  0.5147  0.1155  0.1641
  867MOL0     H16978   9.184  11.058   9.176 -1.5770 -0.0202  1.4635
  867MOL0     H16979   8.948  11.155   9.185 -1.0596 -0.4415 -2.7041
  867MOL0     H16980   8.785  11.315   9.025 -1.9845 -3.0878 -0.6160
  867MOL0     H16981   8.751  11.257   9.181 -0.7918 -0.1421 -1.7910
  867MOL0     H16982   8.641  11.493   9.220  0.7081  0.5651 -0.6661
  867MOL0     H16983   8.660  11.505   9.037  5.3282 -1.3121 -1.3414
  867MOL0     H16984   8.555  11.287   9.014 -0.0481  0.4490 -0.9319
  867MOL0     H16985   8.525  11.271   9.180  3.3826 -0.4517  0.1427
  867MOL0     H16986   8.409  11.530   9.109 -0.7968  0.8952 -0.7648
  867MOL0     H16987   8.389  11.437   8.962 -0.8663 -2.1121  0.0977
  867MOL0     H16988   8.248  11.271   9.068  1.9808 -1.3599  0.8229
  867MOL0     H16989   8.288  11.333   9.229  1.7486 -1.9894 -0.4718
  867MOL0     H16990   8.145  11.541   9.173 -0.5879 -0.9994  1.3457
  867MOL0     H16991   8.119  11.465   9.011  2.5565  1.9273 -0.3278
  867MOL0     H16992   7.985  11.285   9.095 -2.4812  0.9774 -0.3419
  867MOL0     H16993   8.029  11.340   9.261 -1.0030 -2.7903 -0.2716
  867MOL0     H16994   7.900  11.530   9.240  1.7351 -1.4304  1.8606
  867MOL0     H16995   7.796  11.391   9.190  0.1871 -0.0729 -2.2343
  867MOL0     H16996   7.825  11.335   8.900  0.7918  0.7598 -3.0504
  867MOL0     H16997   7.702  11.390   8.696 -1.3186  0.2795  0.5046
  867MOL0     H16998   7.588  11.505   8.752 -0.3698  0.9808 -1.7899
  867MOL0     H16999   7.700  11.685   8.634  0.7197 -0.9440  1.3287
  867MOL0     H17000   7.639  11.561   8.519 -0.8998  0.1805  0.1484
  867MOL0     H17001   7.856  11.665   8.452  1.3605 -0.0973  0.1252
  867MOL0     H17002   7.877  11.497   8.480 -1.3359 -0.0234 -1.2402
  867MOL0     H17003   8.005  11.571   8.701  3.3793 -1.6535 -1.4930
  867MOL0     H17004   7.939  11.739   8.668 -0.4429  0.6569 -2.4686
  867MOL0     H17005   8.291  11.674   8.402  0.8577 -0.4580 -3.7973
  867MOL0     H17006   8.486  11.907   8.285  1.5361  1.6734 -2.1547
  867MOL0     H17007   8.431  11.745   8.232  1.2100  0.7993  1.7008
  867MOL0     H17008   8.381  11.875   8.135 -1.6981  2.4138  0.9065
  867MOL0     H17009   8.430  12.061   7.997 -1.9276  0.4965  1.5010
  867MOL0     H17010   8.557  12.186   7.826 -0.8602 -0.0168  0.0617
  867MOL0     H17011   8.740  12.586   7.958  0.3868  1.5324 -2.3195
  867MOL0     H17012   8.828  12.432   7.998  0.3152 -1.4388 -0.3128
  867MOL0     H17013   8.902  12.428   7.742 -1.7695 -0.5057 -0.4349
  867MOL0     H17014   8.829  12.583   7.729  0.9302  0.7836 -0.0453
  867MOL0     H17015   9.042  12.533   7.940 -1.1573  3.2169  2.7084
  867MOL0     H17016   8.977  12.685   7.912 -0.9058 -1.0784  1.2186
  867MOL0     H17017   9.152  12.506   7.732 -0.6912 -0.9453  0.9907
  867MOL0     H17018   9.061  12.644   7.660 -1.8676  2.3827  2.2191
  867MOL0     H17019   9.259  12.685   7.894 -1.1734  0.8266  0.0601
  867MOL0     H17020   9.178  12.808   7.796  0.2143  0.4048 -0.2378
  867MOL0     H17021   9.331  12.765   7.607 -1.5191 -0.1934  0.1424
  867MOL0     H17022   9.431  12.755   7.757  2.6721 -2.7201 -1.0604
  867MOL0     H17023   9.323  12.533   7.575 -0.0294 -1.0846  1.0616
  867MOL0     H17024   9.416  12.497   7.734  0.3513 -2.2548 -0.3382
  867MOL0     H17025   9.556  12.470   7.536 -0.7152 -0.1282  0.1966
  867MOL0     H17026   9.602  12.611   7.634  0.4727  0.0061 -0.9482
  867MOL0     H17027   8.586  12.510   8.090  1.1967  0.3509 -0.9809
  867MOL0     H17028   8.459  12.369   8.282  0.0091 -1.1442  0.3710
  867MOL0     H17029   8.014  12.077   8.326  2.2455  0.5068 -0.0480
  867MOL0     H17030   7.924  11.900   8.468  0.7910 -0.9275  1.0876
  867MOL0     H17031   9.115  11.546   9.122  1.9046  0.2954 -1.9532
  867MOL0     H17032   9.329  11.452   9.092 -1.8782  3.4320  1.9370
  867MOL0     H17033   9.785  11.289   9.037  0.4661  0.6885 -2.4722
  867MOL0     H17034   9.961  11.148   9.002 -1.1125  0.7029  0.5916
  867MOL0     H17035   9.927  10.816   8.726  0.1678  0.5135 -1.4941
  867MOL0     H17036   9.889  10.990   8.727  1.9035  1.5766  0.4681
  867MOL0     H17037  10.137  11.044   8.763 -1.4441 -1.5121  2.0637
  867MOL0     H17038  10.080  10.985   8.606  1.8334  1.9812  0.0437
  867MOL0     H17039  10.274  10.861   8.656  0.3858  0.8089  0.1278
  867MOL0     H17040  10.137  10.751   8.658  0.9752  0.2828 -1.4681
  867MOL0     H17041  10.303  10.691   8.831  0.4253 -0.4575  0.5948
  867MOL0     H17042  10.154  10.731   8.897  1.2282 -1.2633  0.5250
  867MOL0     H17043  10.457  11.023   9.018  0.6807  0.2599 -1.3914
  867MOL0     H17044   9.720  10.801   8.957 -1.1634 -0.1245  3.3924
  867MOL0     H17045   9.518  10.937   9.025 -0.0868  1.2660  0.1573
  868MOL0     O17046   5.071  10.326   6.864 -0.5003  0.0604  0.0700
  868MOL0     C17047   5.059  10.299   6.745 -0.8662 -0.0426  0.0128
  868MOL0     O17048   4.959  10.218   6.692  0.5307 -0.2754  0.0453
  868MOL0     C17049   4.866  10.184   6.783  0.7664  0.5762  0.5705
  868MOL0     C17050   4.736  10.244   6.789 -0.3507 -0.5810  0.1745
  868MOL0     C17051   4.641  10.197   6.882  0.7194 -0.2738  0.3088
  868MOL0     C17052   4.675  10.103   6.979  0.0775 -0.5180  0.3468
  868MOL0     O17053   4.582  10.071   7.067  0.0953 -0.1854 -0.3394
  868MOL0     C17054   4.557   9.932   7.081  0.3096 -0.4099  0.9178
  868MOL0     C17055   4.469   9.908   7.196  0.0969 -0.8078 -0.4318
  868MOL0     C17056   4.540   9.952   7.328 -0.7135  0.4027 -0.1328
  868MOL0     C17057   4.440   9.969   7.437 -0.8156 -0.4459  0.4871
  868MOL0     C17058   4.497   9.960   7.582 -0.2004 -0.0716  0.1053
  868MOL0     C17059   4.398   9.947   7.693  0.5048 -0.6340 -0.2346
  868MOL0     C17060   4.288  10.057   7.700  0.6532  0.0332  0.0776
  868MOL0     C17061   4.188  10.016   7.809  0.5379  0.1385 -0.2489
  868MOL0     N17062   4.050  10.065   7.806 -0.9252  0.5568  0.0123
  868MOL0     C17063   3.960  10.018   7.714  0.7542  0.0349 -0.5485
  868MOL0     C17064   3.853  10.098   7.730 -0.3069  0.1700  0.0081
  868MOL0     C17065   3.724  10.080   7.642 -0.3925  1.1296  0.2109
  868MOL0     C17066   3.604  10.142   7.709 -0.1444 -0.7233  0.1424
  868MOL0     C17067   3.593  10.294   7.706  0.0832 -0.5828  1.2058
  868MOL0     C17068   3.448  10.337   7.747 -0.6856  0.4349  0.4624
  868MOL0     O17069   3.367  10.297   7.634  0.5113  0.0789  0.9682
  868MOL0     C17070   3.233  10.305   7.632 -0.2822 -0.5467 -0.2433
  868MOL0     C17071   3.158  10.387   7.707  0.3275  0.1471  0.7531
  868MOL0     C17072   3.021  10.394   7.686  0.4977  0.2131 -0.1818
  868MOL0     C17073   2.939  10.497   7.768  0.1869  0.6031  0.4768
  868MOL0     C17074   2.960  10.307   7.585 -0.1017 -0.2551 -0.3588
  868MOL0     C17075   2.817  10.288   7.571  0.6373 -0.2641 -0.9690
  868MOL0     O17076   2.739  10.232   7.670 -0.1140 -0.4812  0.4995
  868MOL0     C17077   2.602  10.238   7.644 -0.2300 -0.5152  0.2975
  868MOL0     C17078   2.530  10.357   7.643  1.0806  0.6558 -0.1770
  868MOL0     C17079   2.397  10.365   7.598  0.0534  0.2474  0.4133
  868MOL0     C17080   2.334  10.254   7.538  0.5978  0.8762 -0.5726
  868MOL0     O17081   2.208  10.275   7.486  0.2851 -0.3732 -0.1565
  868MOL0     C17082   2.123  10.165   7.451  0.5741 -0.3544  0.1750
  868MOL0     C17083   1.977  10.219   7.424  0.1475  0.2684  0.0846
  868MOL0     C17084   1.868  10.117   7.439 -0.4726 -0.4301 -0.0840
  868MOL0     C17085   1.732  10.186   7.433  0.1355  0.0717 -0.0473
  868MOL0     C17086   1.627  10.082   7.474 -0.1121 -0.4681  0.7114
  868MOL0     C17087   1.489  10.154   7.475  0.3771  0.3380 -0.2295
  868MOL0     C17088   1.406  10.153   7.345 -0.1169 -0.0359  1.0542
  868MOL0     C17089   1.294  10.257   7.362 -0.0625  0.1847 -0.5991
  868MOL0    Cl17090   1.148  10.183   7.455  0.2473  0.3179  0.3450
  868MOL0     C17091   2.397  10.130   7.533  0.1980 -0.5477  0.0097
  868MOL0     C17092   2.530  10.122   7.597  0.7332 -0.1994  0.6811
  868MOL0     O17093   2.779  10.336   7.462 -0.0542  0.7319 -0.1519
  868MOL0     C17094   3.040  10.221   7.513 -0.6092 -0.4957  0.5491
  868MOL0     C17095   3.172  10.228   7.532  0.4438 -0.3961 -0.0153
  868MOL0     N17096   3.880  10.192   7.835  0.0052  0.7386 -0.0167
  868MOL0     N17097   4.000  10.177   7.868  0.4407  0.1388 -1.0281
  868MOL0     C17098   4.800  10.039   6.962  0.4478 -0.1459 -0.3349
  868MOL0     C17099   4.895  10.083   6.871 -0.8480  0.0858  0.1460
  868MOL0     C17100   5.166  10.350   6.657 -0.1021 -0.6846  0.2393
  868MOL0     C17101   5.266  10.435   6.709 -0.1305  0.4041 -0.5849
  868MOL0     C17102   5.351  10.504   6.624 -0.7208  0.0920  0.2365
  868MOL0     C17103   5.341  10.490   6.481 -0.1275 -0.3651  0.4358
  868MOL0     O17104   5.413  10.568   6.391  0.0514 -0.4527  1.1407
  868MOL0     C17105   5.550  10.602   6.421  0.5965  0.2063  0.0428
  868MOL0     C17106   5.637  10.470   6.453  0.7331 -0.2001  0.5517
  868MOL0     C17107   5.789  10.500   6.433 -0.7287 -0.0630 -0.5983
  868MOL0     C17108   5.876  10.380   6.489  0.7210 -0.6928  0.2034
  868MOL0     C17109   5.902  10.285   6.382  0.0728 -0.6803 -0.5231
  868MOL0     C17110   5.929  10.220   6.282  0.0736 -0.4136 -0.3403
  868MOL0     C17111   5.249  10.404   6.429  1.0493  0.6669  0.1176
  868MOL0     C17112   5.168  10.326   6.516  0.3643 -0.1466 -0.0388
  868MOL0     H17113   4.703  10.331   6.733  1.9048 -1.4189 -2.6973
  868MOL0     H17114   4.541  10.238   6.887  1.3831  1.2650  2.1979
  868MOL0     H17115   4.508   9.876   7.001 -0.2545  0.0636  0.9200
  868MOL0     H17116   4.645   9.874   7.109  1.1343  1.4786  2.5066
  868MOL0     H17117   4.373   9.960   7.183  1.1235  0.7973 -2.1372
  868MOL0     H17118   4.450   9.800   7.194  0.4567 -0.9277  1.4911
  868MOL0     H17119   4.616   9.875   7.348  1.2942  2.2844 -0.1879
  868MOL0     H17120   4.589  10.048   7.314  1.4480 -0.7874 -1.3609
  868MOL0     H17121   4.396  10.069   7.438 -0.3277 -0.2166 -0.6069
  868MOL0     H17122   4.363   9.895   7.412  0.2159 -0.8090 -1.8887
  868MOL0     H17123   4.565   9.874   7.587 -0.7565 -0.4455  2.7054
  868MOL0     H17124   4.557  10.051   7.587  0.5549 -0.5359 -0.1837
  868MOL0     H17125   4.353   9.847   7.686 -2.0068  0.3886  0.3197
  868MOL0     H17126   4.450   9.937   7.789 -1.3373 -0.8571  0.7700
  868MOL0     H17127   4.347  10.146   7.723 -0.0500  0.0669  1.9063
  868MOL0     H17128   4.243  10.066   7.600  0.3740 -2.2514 -0.0552
  868MOL0     H17129   4.236  10.047   7.902  2.0912 -1.9233 -0.2894
  868MOL0     H17130   4.179   9.907   7.805 -1.0700  0.2176  0.3111
  868MOL0     H17131   3.961   9.935   7.644 -1.5407 -2.4624  2.1198
  868MOL0     H17132   3.738  10.116   7.540 -0.8986  0.3630 -0.1371
  868MOL0     H17133   3.690   9.977   7.632 -2.0782  1.8103 -1.8335
  868MOL0     H17134   3.619  10.112   7.814 -1.2101 -1.2047  0.1627
  868MOL0     H17135   3.513  10.104   7.663  0.6440  0.4773 -2.6451
  868MOL0     H17136   3.603  10.329   7.603  0.1331 -1.0248  1.0549
  868MOL0     H17137   3.667  10.344   7.770  1.1361 -0.4993 -0.0444
  868MOL0     H17138   3.446  10.440   7.783  2.1078  0.4596  0.6973
  868MOL0     H17139   3.409  10.276   7.830 -2.3052  1.8840  0.8334
  868MOL0     H17140   3.193  10.447   7.790 -0.2572  2.1009 -0.3658
  868MOL0     H17141   2.948  10.490   7.877 -2.9947  1.0812  0.8596
  868MOL0     H17142   2.963  10.603   7.755  0.6914  0.7249  2.1153
  868MOL0     H17143   2.832  10.485   7.749 -0.5494  4.4189  1.3397
  868MOL0     H17144   2.581  10.445   7.682  1.8595 -0.2198  0.8750
  868MOL0     H17145   2.334  10.453   7.599  0.6492  0.6762  0.8972
  868MOL0     H17146   2.148  10.112   7.358 -1.4409  0.8193 -1.1178
  868MOL0     H17147   2.121  10.094   7.534 -1.3523 -1.5746 -0.8455
  868MOL0     H17148   1.961  10.301   7.495  1.8426  0.8007 -0.0951
  868MOL0     H17149   1.978  10.268   7.326  0.6454  2.8398  1.2810
  868MOL0     H17150   1.875  10.074   7.539 -0.6350  0.3816  0.2849
  868MOL0     H17151   1.874  10.039   7.362 -0.6464  0.2724 -0.8249
  868MOL0     H17152   1.719  10.274   7.497  2.3368 -0.1925  0.8610
  868MOL0     H17153   1.708  10.220   7.332 -0.0981 -2.3663 -0.8734
  868MOL0     H17154   1.640  10.038   7.574 -0.3787 -1.0393  0.5024
  868MOL0     H17155   1.630  10.000   7.402  2.6953  2.2958 -2.6828
  868MOL0     H17156   1.427  10.109   7.553 -0.1649  0.2747 -0.6865
  868MOL0     H17157   1.506  10.260   7.494 -2.1267  1.7556 -4.4545
  868MOL0     H17158   1.370  10.052   7.323 -0.7055  0.4167 -0.1282
  868MOL0     H17159   1.476  10.172   7.264  0.0926 -1.8501  0.7623
  868MOL0     H17160   1.266  10.282   7.259  1.6467 -0.2850 -1.2082
  868MOL0     H17161   1.321  10.352   7.409 -0.5054  1.4096 -2.6988
  868MOL0     H17162   2.353  10.043   7.487 -2.8415  1.3745 -1.0138
  868MOL0     H17163   2.576  10.024   7.600  0.4272 -0.3146  1.7797
  868MOL0     H17164   2.988  10.152   7.448 -0.9916  1.3516 -1.2137
  868MOL0     H17165   3.223  10.176   7.452  1.4173  1.1046 -0.4093
  868MOL0     H17166   4.837   9.961   7.028 -0.3562 -0.4147 -0.1952
  868MOL0     H17167   4.989  10.029   6.876 -0.2071  1.2304  4.5127
  868MOL0     H17168   5.282  10.452   6.815  1.4472  1.0386 -0.9016
  868MOL0     H17169   5.423  10.571   6.668 -0.4541  0.0487 -0.1348
  868MOL0     H17170   5.580  10.662   6.335 -5.0820 -0.7266 -3.0825
  868MOL0     H17171   5.547  10.653   6.518 -0.1543 -4.9774  3.1513
  868MOL0     H17172   5.609  10.381   6.396 -0.8488  0.9643 -0.5554
  868MOL0     H17173   5.608  10.449   6.557  1.3382 -0.2406  0.7158
  868MOL0     H17174   5.806  10.598   6.480  0.2752 -0.4314 -0.1713
  868MOL0     H17175   5.799  10.516   6.325  0.7336  2.4596 -0.1760
  868MOL0     H17176   5.832  10.340   6.581  1.1569 -0.6046  0.4530
  868MOL0     H17177   5.974  10.419   6.522  1.8225 -1.9128 -1.4776
  868MOL0     H17178   5.956  10.158   6.200  0.5973 -1.1341  0.3601
  868MOL0     H17179   5.233  10.379   6.325 -2.2264  1.8142  0.2550
  868MOL0     H17180   5.095  10.258   6.473 -0.4240  2.0176 -2.3977
  869MOL0     O17181   0.979   2.399   9.747  0.1764 -0.1344 -0.1708
  869MOL0     C17182   0.968   2.402   9.623 -0.4782  0.1371  0.3058
  869MOL0     O17183   0.847   2.408   9.549 -0.5375  0.3573 -0.4624
  869MOL0     C17184   0.732   2.423   9.626 -0.3580 -0.7763  1.0118
  869MOL0     C17185   0.685   2.324   9.708  0.9149 -0.7200  0.2601
  869MOL0     C17186   0.560   2.327   9.765  0.0954  0.1912  0.2361
  869MOL0     C17187   0.486   2.439   9.740 -0.0368  0.7351 -0.2204
  869MOL0     O17188   0.367   2.439   9.813 -0.7183  0.1754 -0.2681
  869MOL0     C17189   0.254   2.458   9.728 -0.4004 -0.1068  0.0301
  869MOL0     C17190   0.115   2.462   9.791  0.2987  0.0786 -0.6434
  869MOL0     C17191   0.009   2.502   9.684 -0.2568 -0.5414  0.2541
  869MOL0     C17192  -0.114   2.547   9.753 -0.1753 -0.1018 -0.1563
  869MOL0     C17193  -0.254   2.541   9.675  0.0908  0.4847  0.0369
  869MOL0     C17194  -0.360   2.593   9.776 -0.8375  0.8323  0.9793
  869MOL0     C17195  -0.507   2.574   9.726 -0.0491  0.8041  0.2375
  869MOL0     C17196  -0.536   2.653   9.602 -0.8445 -0.0444 -0.4610
  869MOL0     N17197  -0.678   2.644   9.581  0.1821  0.6685 -0.0307
  869MOL0     C17198  -0.759   2.544   9.529 -0.0925  0.1863 -0.4642
  869MOL0     C17199  -0.889   2.590   9.552 -0.2987  0.6635  0.4169
  869MOL0     C17200  -1.021   2.542   9.488  0.2056 -0.0895  0.4594
  869MOL0     C17201  -1.019   2.385   9.485  0.0320 -0.7981  0.4695
  869MOL0     C17202  -1.150   2.327   9.421  0.2880 -0.0488  0.1947
  869MOL0     C17203  -1.119   2.179   9.383 -0.2420 -0.4820  0.6157
  869MOL0     O17204  -1.095   2.096   9.497  0.2650  0.3388 -0.0822
  869MOL0     C17205  -1.210   2.039   9.529  0.2921  0.4128 -0.7981
  869MOL0     C17206  -1.256   1.920   9.466 -1.1374 -0.4425 -0.1346
  869MOL0     C17207  -1.376   1.851   9.511 -0.3821 -0.2053  1.2455
  869MOL0     C17208  -1.394   1.707   9.459  0.1572  0.1114  0.0342
  869MOL0     C17209  -1.451   1.919   9.610 -0.4727  1.6296  0.5942
  869MOL0     C17210  -1.580   1.858   9.648 -0.3613 -0.1291 -0.3035
  869MOL0     O17211  -1.674   1.950   9.680  0.2847 -0.4562  0.4276
  869MOL0     C17212  -1.779   1.909   9.751 -0.3617  0.6641  0.5466
  869MOL0     C17213  -1.756   1.876   9.881 -0.6051  0.2151  0.2894
  869MOL0     C17214  -1.870   1.834   9.951  0.3878 -0.0482  0.5783
  869MOL0     C17215  -2.007   1.840   9.905 -0.6626  0.2937  0.8563
  869MOL0     O17216  -2.110   1.786   9.977  0.3223 -0.5536 -0.2887
  869MOL0     C17217  -2.158   1.649   9.943  0.1877  0.9661  0.0814
  869MOL0     C17218  -2.314   1.665   9.947 -0.3478  0.1825  0.5387
  869MOL0     C17219  -2.381   1.536   9.883 -0.9169 -1.2571  0.1888
  869MOL0     C17220  -2.532   1.554   9.871 -0.7979  0.3442  0.7141
  869MOL0     C17221  -2.593   1.415   9.850 -0.2623 -0.1657  0.0472
  869MOL0     C17222  -2.741   1.403   9.801 -0.1522 -0.1913 -0.0937
  869MOL0     C17223  -2.769   1.492   9.678  0.0051  0.8618  0.5604
  869MOL0     C17224  -2.916   1.513   9.646 -0.1993  0.1324  0.2167
  869MOL0    Cl17225  -3.029   1.505   9.776 -0.0705 -0.4979 -0.0411
  869MOL0     C17226  -2.021   1.899   9.775  0.0592 -0.4235 -0.1732
  869MOL0     C17227  -1.907   1.926   9.704 -0.2990 -1.0965  0.4837
  869MOL0     O17228  -1.590   1.739   9.681  0.3695  0.3559  0.1052
  869MOL0     C17229  -1.405   2.038   9.673 -0.2425 -0.2595 -0.9026
  869MOL0     C17230  -1.290   2.095   9.634 -1.1843  0.4180 -0.6973
  869MOL0     N17231  -0.887   2.700   9.631  0.4935 -0.1113 -0.3965
  869MOL0     N17232  -0.759   2.728   9.647  0.2858 -0.3450 -0.4039
  869MOL0     C17233   0.528   2.545   9.658  0.6784  0.0946  0.1443
  869MOL0     C17234   0.651   2.529   9.593  0.1376  0.9830  0.0538
  869MOL0     C17235   1.097   2.398   9.544 -0.0525  0.6554  0.1301
  869MOL0     C17236   1.113   2.469   9.419 -0.2969  0.0523 -0.8267
  869MOL0     C17237   1.228   2.441   9.338  0.8333 -0.5917 -0.8445
  869MOL0     C17238   1.325   2.346   9.375 -0.1908  0.1652  0.5067
  869MOL0     O17239   1.426   2.307   9.294 -0.3186 -0.2882 -0.1673
  869MOL0     C17240   1.540   2.382   9.341 -0.1054  0.8111 -0.3248
  869MOL0     C17241   1.663   2.344   9.266  0.3906 -0.2280  0.1645
  869MOL0     C17242   1.693   2.191   9.255  0.1255 -0.5625 -0.3397
  869MOL0     C17243   1.818   2.157   9.182  0.1506 -0.2588 -0.3430
  869MOL0     C17244   1.925   2.151   9.284  0.0088  0.3593  0.2904
  869MOL0     C17245   2.021   2.138   9.362  0.3572 -0.3706 -0.0948
  869MOL0     C17246   1.318   2.287   9.497 -0.2673  1.0947  0.6158
  869MOL0     C17247   1.204   2.306   9.582  0.2761  0.1873  0.6631
  869MOL0     H17248   0.752   2.239   9.717 -0.6400 -1.9562  0.6344
  869MOL0     H17249   0.513   2.247   9.821 -4.0938  0.8870 -1.9242
  869MOL0     H17250   0.268   2.551   9.671 -2.0523  1.5243  2.1107
  869MOL0     H17251   0.257   2.371   9.662 -0.3719 -0.6859  0.7834
  869MOL0     H17252   0.098   2.367   9.844 -0.3464  1.3825  1.6215
  869MOL0     H17253   0.125   2.546   9.860  0.1879  1.8498 -2.7122
  869MOL0     H17254   0.041   2.585   9.620 -1.0593 -0.7299 -0.4058
  869MOL0     H17255  -0.019   2.413   9.627 -1.1809  0.8332 -1.5538
  869MOL0     H17256  -0.113   2.490   9.847  3.1957  0.4910  0.2962
  869MOL0     H17257  -0.105   2.655   9.769  0.9337  0.4404 -3.6624
  869MOL0     H17258  -0.257   2.608   9.589 -1.1113 -0.2325 -0.5001
  869MOL0     H17259  -0.276   2.437   9.650  0.5187  0.4325 -0.1339
  869MOL0     H17260  -0.353   2.536   9.868  0.8249 -0.8021 -0.0922
  869MOL0     H17261  -0.346   2.698   9.804 -0.4255  0.7175  1.1998
  869MOL0     H17262  -0.527   2.469   9.702 -1.9224  1.4969 -1.5704
  869MOL0     H17263  -0.575   2.596   9.809  2.2014 -0.2405  2.5182
  869MOL0     H17264  -0.479   2.614   9.518  1.0668  0.3134  0.5921
  869MOL0     H17265  -0.499   2.756   9.612 -1.7083  0.2427 -0.1758
  869MOL0     H17266  -0.710   2.460   9.479  1.3424  0.6077  0.1726
  869MOL0     H17267  -1.105   2.573   9.551  0.2405 -2.5043  1.8371
  869MOL0     H17268  -1.038   2.576   9.386  0.3274 -0.2356  0.3898
  869MOL0     H17269  -1.008   2.349   9.588 -0.0848 -0.4920  0.5879
  869MOL0     H17270  -0.933   2.348   9.428 -0.6154 -0.7632 -0.5449
  869MOL0     H17271  -1.191   2.389   9.340  0.5385 -0.6047 -0.3622
  869MOL0     H17272  -1.222   2.322   9.503  0.9652 -1.8110  0.7018
  869MOL0     H17273  -1.030   2.177   9.319 -1.3612 -1.7311 -0.9751
  869MOL0     H17274  -1.202   2.153   9.318  1.0595 -2.0640 -0.4961
  869MOL0     H17275  -1.199   1.872   9.388 -0.4331  1.8893 -1.1340
  869MOL0     H17276  -1.499   1.699   9.429 -0.4305  1.2351  1.6432
  869MOL0     H17277  -1.328   1.694   9.373 -2.4552  1.2742 -2.3123
  869MOL0     H17278  -1.372   1.633   9.536  1.7319 -0.8704 -1.2941
  869MOL0     H17279  -1.653   1.872   9.916 -0.1266 -3.0398 -1.1542
  869MOL0     H17280  -1.867   1.802  10.055 -2.7615  0.0444  0.7958
  869MOL0     H17281  -2.119   1.631   9.843 -0.5674  0.5110 -0.1439
  869MOL0     H17282  -2.113   1.580  10.014  1.5017 -0.5335 -2.0984
  869MOL0     H17283  -2.360   1.677  10.045  1.3142  2.5008  1.1138
  869MOL0     H17284  -2.338   1.752   9.884  2.5018 -1.2263 -2.8329
  869MOL0     H17285  -2.366   1.441   9.935  0.1681 -0.9880  0.3800
  869MOL0     H17286  -2.338   1.523   9.783  0.0565  0.2748  0.3818
  869MOL0     H17287  -2.578   1.599   9.960 -0.8489 -2.0268  1.9757
  869MOL0     H17288  -2.554   1.616   9.783 -2.3743  0.5169  1.1943
  869MOL0     H17289  -2.582   1.357   9.943 -3.9985 -2.6505 -0.7999
  869MOL0     H17290  -2.543   1.357   9.772 -0.2680  1.2869 -1.0763
  869MOL0     H17291  -2.782   1.305   9.776  0.5190 -0.5752  0.2896
  869MOL0     H17292  -2.800   1.446   9.882 -2.8589 -0.5648 -1.7348
  869MOL0     H17293  -2.719   1.433   9.601 -1.7428 -0.5816  0.4393
  869MOL0     H17294  -2.719   1.588   9.688  2.1761 -0.1247 -0.2716
  869MOL0     H17295  -2.953   1.440   9.573  0.9171 -0.0750 -0.1564
  869MOL0     H17296  -2.916   1.613   9.600  1.3854  0.7309  1.4432
  869MOL0     H17297  -2.118   1.915   9.729 -0.4163  0.0534  0.9761
  869MOL0     H17298  -1.923   1.964   9.603  3.9244 -1.0278 -0.3318
  869MOL0     H17299  -1.470   2.073   9.754  1.2006  0.4264  0.0053
  869MOL0     H17300  -1.245   2.171   9.697  1.7559 -0.8645 -1.0788
  869MOL0     H17301   0.474   2.636   9.637 -0.6993  0.9829  5.9742
  869MOL0     H17302   0.676   2.588   9.506  0.1564  2.6192  1.1393
  869MOL0     H17303   1.024   2.528   9.399 -2.1378 -1.6670  1.6839
  869MOL0     H17304   1.242   2.495   9.245  2.2634  0.9278  0.1928
  869MOL0     H17305   1.518   2.485   9.315  1.7558  1.2224 -0.3855
  869MOL0     H17306   1.572   2.388   9.446 -1.9569  0.8030  0.2711
  869MOL0     H17307   1.749   2.381   9.322  0.4329 -1.1618  0.7341
  869MOL0     H17308   1.667   2.390   9.167  4.1744 -0.1792  0.1960
  869MOL0     H17309   1.602   2.158   9.204 -0.9557  0.9603  0.5375
  869MOL0     H17310   1.694   2.135   9.349  3.4163 -2.3131 -1.2485
  869MOL0     H17311   1.837   2.219   9.094 -0.3537 -0.3345 -0.5100
  869MOL0     H17312   1.797   2.054   9.154 -2.2119  0.0850 -0.0409
  869MOL0     H17313   2.116   2.125   9.409  0.6529  1.2751 -0.1662
  869MOL0     H17314   1.381   2.209   9.537  0.9797  2.3632  1.2142
  869MOL0     H17315   1.204   2.241   9.669  4.5113 -2.7947 -1.1885
  870MOL0     O17316   5.854   5.356   2.346  0.0694  0.3977  0.6412
  870MOL0     C17317   5.946   5.320   2.417 -0.7522  0.3118  0.6801
  870MOL0     O17318   5.955   5.202   2.477 -0.0565  0.5659 -0.6471
  870MOL0     C17319   5.849   5.123   2.515 -0.4139  0.5913  0.3443
  870MOL0     C17320   5.712   5.152   2.495  0.4518 -0.3896  0.6562
  870MOL0     C17321   5.615   5.063   2.547  0.0549  0.5377  1.2313
  870MOL0     C17322   5.652   4.931   2.596 -0.4067 -0.4633  0.1698
  870MOL0     O17323   5.563   4.832   2.646  0.3816 -0.0559  0.2257
  870MOL0     C17324   5.425   4.843   2.612 -0.0811 -0.5413 -0.2972
  870MOL0     C17325   5.347   4.762   2.720  0.5237  0.8054  0.3053
  870MOL0     C17326   5.191   4.757   2.719 -0.8263 -1.1933 -0.4906
  870MOL0     C17327   5.128   4.677   2.600  0.0739 -0.7056  0.3213
  870MOL0     C17328   4.978   4.687   2.585 -0.2111  0.6735 -0.5300
  870MOL0     C17329   4.947   4.818   2.506 -0.0783 -0.9104 -0.9141
  870MOL0     C17330   4.805   4.820   2.444 -0.0685 -0.1532  0.5843
  870MOL0     C17331   4.797   4.735   2.316 -0.3563  0.6387  0.7404
  870MOL0     N17332   4.674   4.671   2.289  0.1949 -0.0091  0.1502
  870MOL0     C17333   4.552   4.736   2.282  0.7404 -0.0502 -0.2670
  870MOL0     C17334   4.465   4.638   2.244  0.1324 -0.5637 -0.4653
  870MOL0     C17335   4.324   4.655   2.203  1.1280  0.2656 -0.8761
  870MOL0     C17336   4.318   4.618   2.054  0.0108  0.1453 -0.5529
  870MOL0     C17337   4.179   4.645   1.993  0.9039 -0.1465  0.2473
  870MOL0     C17338   4.161   4.800   1.952 -0.6199 -0.3936  0.4429
  870MOL0     O17339   4.181   4.828   1.815  0.1131 -0.2917 -0.6892
  870MOL0     C17340   4.063   4.864   1.752  0.0859 -0.2108  0.0345
  870MOL0     C17341   4.049   5.001   1.721  0.5682 -0.3774 -0.4633
  870MOL0     C17342   3.942   5.051   1.640  0.1885 -0.2756  0.0903
  870MOL0     C17343   3.942   5.191   1.590  0.4542  0.5464 -0.0689
  870MOL0     C17344   3.851   4.959   1.589  0.6528  0.6825 -0.5264
  870MOL0     C17345   3.737   4.999   1.502 -0.1410 -0.4348  0.0049
  870MOL0     O17346   3.631   4.913   1.509  0.1947  0.3579  0.0588
  870MOL0     C17347   3.520   4.950   1.445  0.7843 -0.6465  0.7401
  870MOL0     C17348   3.428   5.045   1.507  0.3189  0.3197  0.5931
  870MOL0     C17349   3.304   5.065   1.441 -0.2566 -0.2717 -0.3870
  870MOL0     C17350   3.267   5.003   1.320 -0.4099 -0.1238 -0.0360
  870MOL0     O17351   3.139   5.029   1.277  0.4937 -0.3489 -0.0843
  870MOL0     C17352   3.101   4.953   1.159 -0.2552 -0.8436  0.1966
  870MOL0     C17353   2.974   5.010   1.099 -0.7064  0.0033 -0.2795
  870MOL0     C17354   2.856   4.982   1.196  0.8462 -0.1001 -0.1794
  870MOL0     C17355   2.849   5.092   1.310  0.4970  0.0997 -0.5876
  870MOL0     C17356   2.724   5.089   1.395 -0.1802 -0.1081  0.6840
  870MOL0     C17357   2.694   4.947   1.461  0.1901 -0.8946 -0.2161
  870MOL0     C17358   2.798   4.922   1.579  0.0162  0.1146 -0.1458
  870MOL0     C17359   2.799   4.779   1.643  0.2250 -0.3413  0.0344
  870MOL0    Cl17360   2.661   4.671   1.586 -0.0221  0.2545  0.2156
  870MOL0     C17361   3.356   4.916   1.260 -0.2895  0.0826 -0.2891
  870MOL0     C17362   3.489   4.890   1.318  0.0931  0.0230  0.8843
  870MOL0     O17363   3.748   5.086   1.417  0.4780 -0.4212 -0.7769
  870MOL0     C17364   3.868   4.817   1.613 -0.6744  0.5271  0.1748
  870MOL0     C17365   3.979   4.772   1.685  0.1284 -0.4192  0.5694
  870MOL0     N17366   4.526   4.518   2.251 -0.9074 -0.3776 -0.4877
  870MOL0     N17367   4.653   4.536   2.270  0.6822  0.9195  0.1912
  870MOL0     C17368   5.787   4.903   2.605  0.7712 -0.2760  0.3665
  870MOL0     C17369   5.881   5.001   2.566  0.3380  0.0666 -0.0497
  870MOL0     C17370   6.055   5.419   2.435 -0.0876  1.1340 -0.8547
  870MOL0     C17371   6.054   5.549   2.382 -0.4627 -0.7750 -0.1445
  870MOL0     C17372   6.158   5.635   2.412  0.6209 -0.3925  1.2784
  870MOL0     C17373   6.275   5.589   2.466 -0.4938  0.3324  0.8826
  870MOL0     O17374   6.385   5.678   2.468 -0.5000  0.3915  0.3585
  870MOL0     C17375   6.458   5.691   2.592 -0.5157  0.5595 -0.3822
  870MOL0     C17376   6.389   5.812   2.665  0.2442  0.2755 -0.0585
  870MOL0     C17377   6.376   5.942   2.579  0.3477  1.3628  0.2045
  870MOL0     C17378   6.351   6.073   2.663 -0.5362 -0.0239 -0.8882
  870MOL0     C17379   6.315   6.173   2.568  0.7501 -0.9298  0.0024
  870MOL0     C17380   6.260   6.269   2.508 -0.3894  0.7094 -0.5239
  870MOL0     C17381   6.284   5.454   2.513 -0.1294 -0.1195 -0.0181
  870MOL0     C17382   6.176   5.377   2.505 -0.7395 -0.0757 -0.2430
  870MOL0     H17383   5.687   5.247   2.450  0.3527  0.2746  2.0810
  870MOL0     H17384   5.511   5.092   2.538  0.1461  0.3647 -0.7375
  870MOL0     H17385   5.382   4.941   2.631  2.6135  0.5331  0.6828
  870MOL0     H17386   5.396   4.798   2.516  1.0650  1.0810 -1.4516
  870MOL0     H17387   5.379   4.657   2.727  2.8592  1.4779  0.7301
  870MOL0     H17388   5.385   4.804   2.813  0.7912  0.5475  0.3161
  870MOL0     H17389   5.160   4.706   2.811 -2.5727  0.9570  0.2058
  870MOL0     H17390   5.165   4.863   2.715  0.4307 -0.8726 -0.2362
  870MOL0     H17391   5.170   4.698   2.502 -0.2738 -2.3011 -0.1918
  870MOL0     H17392   5.159   4.573   2.616  0.4346 -0.7310 -0.4875
  870MOL0     H17393   4.956   4.594   2.532 -3.2264 -0.0718  1.7634
  870MOL0     H17394   4.911   4.681   2.671 -0.5476  0.9739 -0.7689
  870MOL0     H17395   4.965   4.900   2.576 -1.1917 -0.8154 -0.7204
  870MOL0     H17396   5.020   4.834   2.426  0.9741  1.7051  0.4451
  870MOL0     H17397   4.722   4.789   2.508 -1.3434 -1.8452 -1.7204
  870MOL0     H17398   4.785   4.920   2.404  2.2574  0.4054  0.6294
  870MOL0     H17399   4.870   4.653   2.318  0.8547  1.4810 -2.3841
  870MOL0     H17400   4.820   4.803   2.233 -1.0253  0.2877  0.2644
  870MOL0     H17401   4.536   4.840   2.311 -2.4733 -0.8599  1.2149
  870MOL0     H17402   4.246   4.604   2.261 -0.2920  2.1147 -1.0891
  870MOL0     H17403   4.300   4.759   2.225  0.8066  0.0809 -0.3090
  870MOL0     H17404   4.339   4.512   2.035  0.8431  0.6895 -3.0647
  870MOL0     H17405   4.392   4.670   1.993  0.6414  1.6900  1.4420
  870MOL0     H17406   4.097   4.619   2.060 -0.3700 -1.9956 -1.8467
  870MOL0     H17407   4.156   4.579   1.908 -0.0973 -0.7795  0.9861
  870MOL0     H17408   4.229   4.862   2.011 -1.9476  0.5321  1.0733
  870MOL0     H17409   4.062   4.838   1.982 -0.5041  0.3053 -0.0436
  870MOL0     H17410   4.129   5.060   1.765  0.5150 -1.6074  1.4144
  870MOL0     H17411   3.969   5.197   1.484  0.0404  1.7294 -0.1206
  870MOL0     H17412   3.841   5.233   1.595  0.5671  0.8349 -0.1610
  870MOL0     H17413   4.011   5.257   1.644  2.6065 -0.2040 -1.7399
  870MOL0     H17414   3.447   5.087   1.606 -1.3589 -2.5096  2.2555
  870MOL0     H17415   3.237   5.142   1.478 -2.0925 -1.8248 -0.3466
  870MOL0     H17416   3.176   4.971   1.082 -0.0638 -0.6637  0.4256
  870MOL0     H17417   3.099   4.844   1.174  1.4273 -1.0893 -1.1011
  870MOL0     H17418   2.987   5.117   1.086 -3.4075  0.6653  1.5471
  870MOL0     H17419   2.940   4.969   1.003 -1.2935 -1.8669  0.6762
  870MOL0     H17420   2.846   4.879   1.233  0.5516 -0.1649 -0.4329
  870MOL0     H17421   2.770   4.980   1.128 -0.4103 -3.2388  1.3019
  870MOL0     H17422   2.930   5.090   1.383  0.3824  0.3015 -0.4536
  870MOL0     H17423   2.858   5.191   1.265 -0.6056  1.4984  2.0774
  870MOL0     H17424   2.631   5.123   1.348 -1.8317  0.0153  3.7448
  870MOL0     H17425   2.733   5.161   1.478  0.2566 -0.8479  1.2942
  870MOL0     H17426   2.602   4.964   1.516  0.7494  3.2114 -0.2200
  870MOL0     H17427   2.680   4.857   1.401  0.2402 -2.6653  2.2772
  870MOL0     H17428   2.762   4.991   1.657 -1.5886 -0.6746 -0.1568
  870MOL0     H17429   2.902   4.942   1.553 -0.0784 -0.3039 -0.8612
  870MOL0     H17430   2.803   4.796   1.751  0.1693  1.5073 -0.2142
  870MOL0     H17431   2.890   4.726   1.612 -0.8296 -0.9645 -2.2401
  870MOL0     H17432   3.342   4.871   1.162  1.6839  1.0482 -1.0752
  870MOL0     H17433   3.555   4.813   1.277 -0.7393 -0.9775  1.3694
  870MOL0     H17434   3.798   4.740   1.583  0.4576 -0.0597 -1.0637
  870MOL0     H17435   3.993   4.665   1.703  0.4176 -0.2087  1.6886
  870MOL0     H17436   5.815   4.804   2.640  0.7367  0.4144  2.4825
  870MOL0     H17437   5.984   4.976   2.589 -0.7265 -2.5928  2.5564
  870MOL0     H17438   5.972   5.587   2.323 -1.2109 -3.2214 -0.8247
  870MOL0     H17439   6.150   5.737   2.377  0.0702 -0.0910  2.2632
  870MOL0     H17440   6.450   5.619   2.674 -1.1217  2.2804  1.1547
  870MOL0     H17441   6.563   5.714   2.569  0.0388  1.2465  2.4819
  870MOL0     H17442   6.465   5.834   2.740  0.8961  3.0845 -1.4023
  870MOL0     H17443   6.286   5.794   2.698  0.2902 -0.0327 -0.0834
  870MOL0     H17444   6.293   5.941   2.507 -0.4000  3.4577  0.9495
  870MOL0     H17445   6.469   5.962   2.525 -0.9876  1.8907 -2.0334
  870MOL0     H17446   6.434   6.110   2.724  0.1021  0.0351 -1.7686
  870MOL0     H17447   6.267   6.050   2.729  1.2939 -1.2430  1.1746
  870MOL0     H17448   6.226   6.343   2.438 -0.5358  0.2494 -0.9438
  870MOL0     H17449   6.373   5.425   2.568 -0.4294 -1.7231 -0.3192
  870MOL0     H17450   6.173   5.283   2.560 -2.0110  0.4384  0.6064
  871MOL0     O17451   0.424   5.410   2.324  0.0932 -0.6096  0.5268
  871MOL0     C17452   0.336   5.345   2.372  0.4845  0.2231  0.3821
  871MOL0     O17453   0.246   5.390   2.474 -0.5319 -0.1592 -0.2811
  871MOL0     C17454   0.245   5.514   2.533 -0.2341  0.0721 -0.4128
  871MOL0     C17455   0.318   5.623   2.487  0.3794  0.1278  0.4928
  871MOL0     C17456   0.288   5.755   2.526 -1.0639  0.3541  0.1181
  871MOL0     C17457   0.200   5.783   2.629  0.5828  0.1809 -0.0365
  871MOL0     O17458   0.197   5.910   2.682 -0.3820 -0.4997  0.2515
  871MOL0     C17459   0.064   5.966   2.717 -0.5935 -0.4587  0.1333
  871MOL0     C17460   0.004   6.000   2.582  0.9520 -0.5612  0.0195
  871MOL0     C17461  -0.127   6.067   2.596  0.3874 -0.2632  0.3040
  871MOL0     C17462  -0.117   6.212   2.649  0.5666 -0.1599 -0.2536
  871MOL0     C17463  -0.245   6.301   2.662  0.6478  0.5179 -0.0812
  871MOL0     C17464  -0.354   6.235   2.753  0.4506 -0.5446  0.7387
  871MOL0     C17465  -0.480   6.320   2.792 -0.8510 -0.5146  0.3071
  871MOL0     C17466  -0.572   6.254   2.905  0.5711 -1.1534  0.8573
  871MOL0     N17467  -0.684   6.337   2.939 -0.7325  0.0962 -0.1556
  871MOL0     C17468  -0.670   6.453   3.007 -0.3181 -0.0110  1.5011
  871MOL0     C17469  -0.794   6.513   3.020 -0.5940 -0.3296  0.1136
  871MOL0     C17470  -0.836   6.642   3.085  0.0367  0.1288  1.2473
  871MOL0     C17471  -0.971   6.612   3.172  0.1193 -0.2600  0.3519
  871MOL0     C17472  -0.946   6.511   3.276 -0.3456 -0.3452 -0.2597
  871MOL0     C17473  -1.070   6.492   3.358  0.3511  0.1281  0.6859
  871MOL0     O17474  -1.121   6.608   3.431  0.4659  1.1572  0.9396
  871MOL0     C17475  -1.244   6.593   3.489  0.0601 -0.1972  0.2821
  871MOL0     C17476  -1.278   6.698   3.583 -0.3478  0.9223  0.2604
  871MOL0     C17477  -1.402   6.686   3.655 -0.8895  0.5821 -0.4382
  871MOL0     C17478  -1.426   6.796   3.760 -0.4330 -0.8045  0.7868
  871MOL0     C17479  -1.488   6.572   3.637 -0.6441  0.0762 -0.4297
  871MOL0     C17480  -1.634   6.555   3.686  0.0584 -0.0903 -0.7434
  871MOL0     O17481  -1.710   6.451   3.639 -0.4601  0.3696  0.6654
  871MOL0     C17482  -1.846   6.466   3.642 -0.5881  0.1723  0.3268
  871MOL0     C17483  -1.921   6.471   3.526 -1.1412 -0.3383 -0.4983
  871MOL0     C17484  -2.056   6.482   3.531  0.2500  0.1825  0.3509
  871MOL0     C17485  -2.131   6.482   3.652 -0.5660 -0.6236  0.0049
  871MOL0     O17486  -2.269   6.477   3.655 -0.0555 -0.3938 -0.5499
  871MOL0     C17487  -2.337   6.411   3.548 -0.2699  0.0631  0.2549
  871MOL0     C17488  -2.485   6.400   3.581 -0.4352 -0.1996 -0.2263
  871MOL0     C17489  -2.566   6.332   3.461  0.4558  0.1917 -0.5616
  871MOL0     C17490  -2.717   6.356   3.487  0.1333  0.0703  0.1265
  871MOL0     C17491  -2.807   6.277   3.398 -0.5557  0.6435  0.4891
  871MOL0     C17492  -2.956   6.299   3.429  0.3049 -0.2513 -0.0942
  871MOL0     C17493  -3.043   6.240   3.318 -0.5577  0.5467 -1.0764
  871MOL0     C17494  -3.056   6.089   3.319  0.0371  0.0425  0.1945
  871MOL0    Cl17495  -2.911   6.020   3.251  0.2185  0.4441 -0.0353
  871MOL0     C17496  -2.055   6.474   3.775 -0.0143  0.2575  0.1263
  871MOL0     C17497  -1.915   6.462   3.764  0.4142  0.0386 -0.2765
  871MOL0     O17498  -1.678   6.639   3.763 -0.2467 -0.1871  0.2397
  871MOL0     C17499  -1.446   6.472   3.551 -0.4712  1.0452  0.2794
  871MOL0     C17500  -1.322   6.477   3.478 -0.3916 -0.1849 -0.1770
  871MOL0     N17501  -0.881   6.424   2.954 -0.3118  0.5012 -0.2525
  871MOL0     N17502  -0.814   6.327   2.904 -0.6140  0.7354 -0.2763
  871MOL0     C17503   0.130   5.677   2.681  0.7946 -0.1946  0.0850
  871MOL0     C17504   0.152   5.548   2.634  0.2298  0.0250 -1.2351
  871MOL0     C17505   0.315   5.212   2.319  0.0273 -0.3270  0.0246
  871MOL0     C17506   0.376   5.174   2.200 -0.3766  1.3010 -0.0817
  871MOL0     C17507   0.347   5.045   2.147 -0.5304 -0.2457 -0.7298
  871MOL0     C17508   0.269   4.957   2.212  0.9527  0.4405 -0.9832
  871MOL0     O17509   0.245   4.828   2.165  0.3309  0.3782  0.5703
  871MOL0     C17510   0.157   4.730   2.219  0.7748  0.3160  0.0972
  871MOL0     C17511   0.138   4.608   2.126  0.6073  0.3604  0.3111
  871MOL0     C17512   0.262   4.534   2.093 -0.8296  0.4084 -0.1059
  871MOL0     C17513   0.232   4.404   2.011  0.0877 -0.7705  0.0559
  871MOL0     C17514   0.357   4.332   1.998  0.6380 -0.5040 -0.9741
  871MOL0     C17515   0.448   4.264   1.979 -0.9667  0.9184 -0.4111
  871MOL0     C17516   0.209   4.991   2.327 -0.0686 -0.0991 -0.7389
  871MOL0     C17517   0.221   5.120   2.375 -0.1721 -0.8450 -0.0107
  871MOL0     H17518   0.398   5.617   2.413 -0.1861 -0.8335 -0.0655
  871MOL0     H17519   0.345   5.832   2.474 -0.9295 -0.4777 -0.9917
  871MOL0     H17520  -0.002   5.901   2.775  1.2933 -3.3595 -0.7013
  871MOL0     H17521   0.085   6.059   2.771  1.7582 -1.0910  0.4275
  871MOL0     H17522   0.074   6.070   2.537 -1.1744  1.1994 -0.7181
  871MOL0     H17523  -0.018   5.912   2.520 -2.6423  1.1808 -1.4834
  871MOL0     H17524  -0.166   6.076   2.494  0.9377  3.1791  0.2686
  871MOL0     H17525  -0.203   6.008   2.647 -0.1292  0.1291 -0.0025
  871MOL0     H17526  -0.079   6.197   2.751  0.5334 -0.1604 -0.2416
  871MOL0     H17527  -0.048   6.271   2.588  0.0094  0.7866  0.0056
  871MOL0     H17528  -0.229   6.405   2.694 -2.0078  1.0327 -0.1564
  871MOL0     H17529  -0.289   6.313   2.562 -0.7116 -0.3662  0.3867
  871MOL0     H17530  -0.382   6.144   2.699  2.0371 -0.0182 -1.1079
  871MOL0     H17531  -0.307   6.206   2.848  1.8368  1.7778  0.8258
  871MOL0     H17532  -0.437   6.414   2.829  0.2036 -1.2996  1.1705
  871MOL0     H17533  -0.546   6.326   2.705 -0.4172 -0.1981 -0.0059
  871MOL0     H17534  -0.512   6.239   2.995  0.1586  1.3995  1.6314
  871MOL0     H17535  -0.616   6.157   2.878 -4.0508  0.5394  1.3119
  871MOL0     H17536  -0.577   6.490   3.048 -0.8299  2.7941  0.3589
  871MOL0     H17537  -0.760   6.681   3.153  0.3240 -1.0217  1.6085
  871MOL0     H17538  -0.852   6.722   3.012  0.3023 -1.4708 -0.6562
  871MOL0     H17539  -1.053   6.578   3.108 -1.1447 -0.9550  2.2633
  871MOL0     H17540  -0.993   6.705   3.225  1.3551 -0.1318  0.6708
  871MOL0     H17541  -0.859   6.542   3.336  1.2370 -1.6074 -1.8034
  871MOL0     H17542  -0.928   6.414   3.231  0.9922 -1.1077  1.7420
  871MOL0     H17543  -1.048   6.414   3.432 -0.7030 -3.3868 -2.3755
  871MOL0     H17544  -1.146   6.453   3.290  2.3984 -1.1170 -1.0005
  871MOL0     H17545  -1.219   6.788   3.589  0.1930  0.5554  0.4850
  871MOL0     H17546  -1.334   6.824   3.814 -0.1533  0.2476 -0.1942
  871MOL0     H17547  -1.473   6.883   3.713 -0.1455 -1.2150 -0.2872
  871MOL0     H17548  -1.496   6.756   3.834 -1.5613 -0.8712 -0.3032
  871MOL0     H17549  -1.874   6.486   3.429  0.5931 -1.1050  0.1911
  871MOL0     H17550  -2.109   6.480   3.437 -0.5544  0.0889  0.7951
  871MOL0     H17551  -2.327   6.463   3.452 -0.3983  1.9882  1.2575
  871MOL0     H17552  -2.296   6.311   3.530 -0.3488 -0.1984  1.4797
  871MOL0     H17553  -2.507   6.342   3.671 -1.9286  0.9611  0.1882
  871MOL0     H17554  -2.518   6.503   3.595 -0.3363 -0.0489 -1.0680
  871MOL0     H17555  -2.537   6.228   3.476  1.3232  0.7797  2.6742
  871MOL0     H17556  -2.518   6.359   3.367  1.5318 -4.8682 -1.7361
  871MOL0     H17557  -2.735   6.327   3.591  0.7301  1.9837  0.8129
  871MOL0     H17558  -2.746   6.462   3.495 -0.6107 -0.2504  3.1234
  871MOL0     H17559  -2.777   6.172   3.408  3.9057  1.2545 -2.9167
  871MOL0     H17560  -2.778   6.289   3.293 -0.0931  0.7216  0.6197
  871MOL0     H17561  -2.981   6.243   3.520 -0.9420  1.4358  0.6644
  871MOL0     H17562  -2.983   6.404   3.445  2.1248  0.3126 -0.5189
  871MOL0     H17563  -3.007   6.265   3.217  0.7524 -2.3815 -1.4585
  871MOL0     H17564  -3.142   6.282   3.333 -0.7576 -0.0594 -0.6439
  871MOL0     H17565  -3.140   6.057   3.257  0.6075 -2.9746  0.7788
  871MOL0     H17566  -3.071   6.040   3.416 -2.1352  1.9535  0.8845
  871MOL0     H17567  -2.094   6.458   3.875  0.5246 -1.9149  0.0193
  871MOL0     H17568  -1.864   6.459   3.860  0.6540  0.4420 -0.3852
  871MOL0     H17569  -1.510   6.390   3.519  0.7362  0.6223 -1.1705
  871MOL0     H17570  -1.294   6.409   3.399  3.1281  0.5571  0.2869
  871MOL0     H17571   0.050   5.684   2.754  0.2945 -1.6506 -0.2775
  871MOL0     H17572   0.080   5.477   2.673  0.3134  1.9718  2.9624
  871MOL0     H17573   0.447   5.230   2.140  0.4461  0.3145 -0.0369
  871MOL0     H17574   0.398   5.026   2.053  1.5451  2.9475 -0.3997
  871MOL0     H17575   0.178   4.688   2.318 -1.6375 -0.7344  0.2551
  871MOL0     H17576   0.058   4.775   2.232  0.7125  0.2240 -0.0513
  871MOL0     H17577   0.091   4.633   2.030  0.3147 -1.9619 -0.2104
  871MOL0     H17578   0.078   4.535   2.181  1.7578  0.4680  1.7747
  871MOL0     H17579   0.320   4.516   2.184  1.6490 -0.6714 -1.7874
  871MOL0     H17580   0.319   4.599   2.026  1.2526 -0.6401  0.5818
  871MOL0     H17581   0.194   4.436   1.914 -3.2520  0.7791  1.7156
  871MOL0     H17582   0.155   4.338   2.052  0.3400 -1.8845 -1.1901
  871MOL0     H17583   0.533   4.200   1.964 -2.6812 -0.8614 -3.7001
  871MOL0     H17584   0.133   4.931   2.376 -0.4066  1.0175  0.1317
  871MOL0     H17585   0.158   5.151   2.458 -2.0714 -2.7660 -0.6600
  872MOL0     O17586   7.426  10.889   3.398 -0.0372  0.1709 -0.1126
  872MOL0     C17587   7.431  11.006   3.351  0.2062  0.5492 -0.0962
  872MOL0     O17588   7.324  11.090   3.345  0.9088  0.6398 -0.0805
  872MOL0     C17589   7.188  11.044   3.349  0.1326 -0.1333  0.3566
  872MOL0     C17590   7.096  11.138   3.304 -0.5081  0.5281 -0.1902
  872MOL0     C17591   6.963  11.116   3.316  0.2022 -0.4784  0.4648
  872MOL0     C17592   6.909  11.009   3.389 -0.3186  0.3229  0.0669
  872MOL0     O17593   6.776  10.987   3.409  0.7535 -0.4853 -0.0008
  872MOL0     C17594   6.703  10.979   3.287  0.2848 -1.2932  0.6279
  872MOL0     C17595   6.565  10.929   3.318  1.1603 -0.4034 -0.6502
  872MOL0     C17596   6.486  11.026   3.412 -0.0712  0.1278  0.2293
  872MOL0     C17597   6.400  11.129   3.327 -0.4532  0.3047 -0.3918
  872MOL0     C17598   6.293  11.060   3.246 -0.2276 -0.1348  1.0808
  872MOL0     C17599   6.206  11.170   3.177  0.3330 -0.1589  0.3330
  872MOL0     C17600   6.095  11.109   3.085  0.4411 -0.1136 -0.2406
  872MOL0     C17601   6.039  11.204   2.992  0.1346 -0.3405  0.1839
  872MOL0     N17602   5.973  11.124   2.891 -0.3456 -0.1648  0.5212
  872MOL0     C17603   5.984  11.134   2.751  0.3509 -0.7900 -0.3053
  872MOL0     C17604   5.880  11.064   2.710 -0.7830 -0.5919  0.4430
  872MOL0     C17605   5.825  11.055   2.568 -0.4200  1.7182 -0.6686
  872MOL0     C17606   5.732  11.173   2.540  0.5813  0.3882  0.3988
  872MOL0     C17607   5.636  11.133   2.420 -0.2095 -0.2339 -0.7736
  872MOL0     C17608   5.512  11.220   2.427  0.6933 -0.2225  0.0906
  872MOL0     O17609   5.520  11.353   2.402 -0.2834 -0.5104  0.2827
  872MOL0     C17610   5.410  11.413   2.356 -0.1278  0.9078  0.7385
  872MOL0     C17611   5.281  11.381   2.410 -0.5947 -0.3629  0.0355
  872MOL0     C17612   5.166  11.431   2.353 -0.7037  0.3121 -0.5872
  872MOL0     C17613   5.045  11.381   2.417 -0.6110  0.0677  0.1556
  872MOL0     C17614   5.172  11.510   2.233  0.4854 -0.4980 -0.7859
  872MOL0     C17615   5.045  11.586   2.179  0.1592 -0.0708  0.7429
  872MOL0     O17616   5.040  11.601   2.045  0.0428  0.2391  0.0628
  872MOL0     C17617   4.926  11.633   1.979 -0.6671  1.3244  0.0144
  872MOL0     C17618   4.795  11.596   2.020  0.3261  0.5079 -0.0613
  872MOL0     C17619   4.683  11.646   1.956 -0.3963  0.3605 -0.1174
  872MOL0     C17620   4.701  11.715   1.846 -0.3266 -0.2792 -0.2528
  872MOL0     O17621   4.590  11.773   1.785 -0.1377  0.5127  0.2097
  872MOL0     C17622   4.590  11.912   1.767  0.5515 -0.2272  0.0888
  872MOL0     C17623   4.553  11.948   1.621  0.1220 -0.1493  0.2321
  872MOL0     C17624   4.401  11.922   1.573 -0.1549 -0.4969  0.6777
  872MOL0     C17625   4.317  12.042   1.615 -0.6645  0.2861  0.1795
  872MOL0     C17626   4.177  12.016   1.574 -0.6622 -0.3837  0.2020
  872MOL0     C17627   4.105  12.135   1.633 -1.4212  0.1111 -1.0503
  872MOL0     C17628   3.956  12.119   1.592 -0.2387 -0.2691 -0.0861
  872MOL0     C17629   3.888  12.020   1.693 -0.1171 -1.0978  1.1337
  872MOL0    Cl17630   3.712  12.025   1.637  0.7147 -0.0994  0.0818
  872MOL0     C17631   4.823  11.748   1.785  0.0467 -0.2838 -0.2596
  872MOL0     C17632   4.933  11.702   1.857 -0.6139 -0.4704  0.2292
  872MOL0     O17633   4.969  11.638   2.258 -1.4669  0.6442 -0.2746
  872MOL0     C17634   5.295  11.545   2.181 -0.5528 -0.0848  0.0227
  872MOL0     C17635   5.412  11.505   2.250  0.0974 -0.0041  0.2203
  872MOL0     N17636   5.813  11.006   2.819  0.5277 -0.0370  0.3981
  872MOL0     N17637   5.872  11.034   2.926  0.3797 -0.6509  0.9796
  872MOL0     C17638   6.994  10.917   3.445 -0.0214  0.4728 -0.2822
  872MOL0     C17639   7.130  10.932   3.421 -0.3763  0.1263  0.1724
  872MOL0     C17640   7.556  11.066   3.300  0.5115  0.0381  0.2732
  872MOL0     C17641   7.677  10.995   3.310 -0.2150  0.7308 -0.3721
  872MOL0     C17642   7.794  11.056   3.278  0.2980  0.7731  0.9269
  872MOL0     C17643   7.798  11.181   3.224 -1.0869 -0.3839 -0.2561
  872MOL0     O17644   7.924  11.225   3.179 -0.7377  0.8194  0.1705
  872MOL0     C17645   7.936  11.339   3.097  0.4132  0.3802 -0.0741
  872MOL0     C17646   8.066  11.347   3.032 -0.4447  0.3562 -0.9446
  872MOL0     C17647   8.083  11.481   2.952 -0.1900  0.2677 -0.8016
  872MOL0     C17648   8.227  11.493   2.891 -0.8278 -0.5255 -0.4836
  872MOL0     C17649   8.277  11.375   2.822 -0.3384  0.6429 -0.4818
  872MOL0     C17650   8.308  11.261   2.784 -0.8597 -0.5701  1.3579
  872MOL0     C17651   7.677  11.257   3.215 -0.9777  0.5929  1.0698
  872MOL0     C17652   7.556  11.193   3.244 -0.7429 -1.2107 -0.1602
  872MOL0     H17653   7.142  11.224   3.255 -3.2832  0.7382 -2.7040
  872MOL0     H17654   6.898  11.184   3.263  2.0661  0.5380 -0.6514
  872MOL0     H17655   6.693  11.076   3.237 -1.5060 -0.3914  2.5815
  872MOL0     H17656   6.757  10.915   3.216  0.9235  1.6077 -1.6798
  872MOL0     H17657   6.519  10.900   3.223  2.0184 -2.0480 -0.5970
  872MOL0     H17658   6.583  10.833   3.367  2.9137 -0.1126 -0.6802
  872MOL0     H17659   6.421  10.966   3.476  2.2329 -1.8421  0.8467
  872MOL0     H17660   6.553  11.085   3.475  1.7475  0.5169 -1.9472
  872MOL0     H17661   6.354  11.199   3.398  1.3826 -0.4873  1.7068
  872MOL0     H17662   6.460  11.194   3.263 -0.2821  1.0580  0.5116
  872MOL0     H17663   6.340  10.995   3.172  2.3781  2.1904  0.5374
  872MOL0     H17664   6.239  11.002   3.322 -0.6759  0.8205  1.5131
  872MOL0     H17665   6.162  11.232   3.256  0.1390 -1.2803  1.1322
  872MOL0     H17666   6.274  11.243   3.133  0.1571 -0.0261  0.2794
  872MOL0     H17667   6.147  11.030   3.029  3.0396 -1.2464  3.3752
  872MOL0     H17668   6.016  11.066   3.147 -0.1045  1.6140  0.3332
  872MOL0     H17669   6.125  11.262   2.957 -1.2073  1.4844 -0.2134
  872MOL0     H17670   5.955  11.262   3.032 -2.4169 -2.5764 -1.5446
  872MOL0     H17671   6.059  11.182   2.689 -0.1706 -0.4021 -0.6508
  872MOL0     H17672   5.904  11.040   2.495 -1.3279  1.1884 -1.5556
  872MOL0     H17673   5.768  10.964   2.548  2.6824 -0.3852 -0.6526
  872MOL0     H17674   5.796  11.260   2.523  1.3863  0.0131  1.3828
  872MOL0     H17675   5.667  11.189   2.626  0.4817  2.0030  0.0649
  872MOL0     H17676   5.605  11.030   2.436  0.4239 -0.0111  2.8669
  872MOL0     H17677   5.698  11.157   2.333  0.8763  2.0511  0.5179
  872MOL0     H17678   5.471  11.206   2.527  0.9108 -0.5348  0.1373
  872MOL0     H17679   5.442  11.175   2.357 -0.5651  0.4136  0.9002
  872MOL0     H17680   5.284  11.325   2.503 -0.0222  0.7295  0.7073
  872MOL0     H17681   4.985  11.455   2.471  1.8556  2.6501 -0.4111
  872MOL0     H17682   4.986  11.326   2.342 -0.0107  1.9508 -1.8102
  872MOL0     H17683   5.074  11.306   2.491  0.4423  0.6452  0.3488
  872MOL0     H17684   4.772  11.543   2.112  1.7835  0.8635  0.5341
  872MOL0     H17685   4.585  11.647   2.003 -0.9753 -0.7423 -1.2508
  872MOL0     H17686   4.522  11.966   1.834  1.5906  1.3497 -0.0643
  872MOL0     H17687   4.687  11.959   1.787 -0.2871  2.5765 -1.6791
  872MOL0     H17688   4.579  12.053   1.605  0.5643 -0.1302  1.0322
  872MOL0     H17689   4.614  11.881   1.559  0.6744 -0.0451  0.6615
  872MOL0     H17690   4.363  11.830   1.617 -0.6056  0.1743  1.7299
  872MOL0     H17691   4.386  11.905   1.466 -0.0862 -0.6094  0.6858
  872MOL0     H17692   4.334  12.052   1.723  1.0238  3.1173 -0.2281
  872MOL0     H17693   4.353  12.135   1.569  0.2239 -0.2784 -0.3003
  872MOL0     H17694   4.134  11.922   1.610  1.8588 -1.1297  1.5600
  872MOL0     H17695   4.164  12.012   1.466 -0.0371  0.4378  0.0884
  872MOL0     H17696   4.122  12.118   1.740  3.9604  2.9093 -1.1011
  872MOL0     H17697   4.144  12.233   1.603  0.5019 -0.6282 -1.0971
  872MOL0     H17698   3.945  12.097   1.486 -1.6908 -0.4294  0.0698
  872MOL0     H17699   3.918  12.220   1.611  2.2321  0.3444  2.2742
  872MOL0     H17700   3.892  12.067   1.791  3.3442  0.8843  0.2058
  872MOL0     H17701   3.929  11.919   1.691  1.8627 -0.3295 -0.0610
  872MOL0     H17702   4.827  11.807   1.695  0.3964 -0.5474 -0.4227
  872MOL0     H17703   5.028  11.726   1.810 -0.5623  1.1997  1.1197
  872MOL0     H17704   5.310  11.605   2.092  0.1407 -1.7107 -1.0004
  872MOL0     H17705   5.502  11.539   2.200 -0.8794 -0.2895 -1.8688
  872MOL0     H17706   6.966  10.838   3.514 -1.3062  1.4474  0.3529
  872MOL0     H17707   7.202  10.871   3.475 -0.8608  0.4188  1.1671
  872MOL0     H17708   7.679  10.898   3.358 -0.0304  0.5544 -0.7350
  872MOL0     H17709   7.887  11.002   3.295  0.8517  2.1533  2.6374
  872MOL0     H17710   7.854  11.338   3.024 -1.1231  1.2572  1.5439
  872MOL0     H17711   7.924  11.436   3.148 -3.6657 -0.5153  1.0710
  872MOL0     H17712   8.057  11.265   2.961  0.6793  1.1087 -1.9963
  872MOL0     H17713   8.153  11.326   3.095 -1.2466 -0.2868 -0.0181
  872MOL0     H17714   8.064  11.573   3.008 -1.1603  0.1069 -0.8458
  872MOL0     H17715   8.004  11.490   2.877 -0.0753  2.1856 -0.7370
  872MOL0     H17716   8.301  11.520   2.966  1.3004 -4.0256 -1.0732
  872MOL0     H17717   8.227  11.580   2.825 -1.4223 -0.2192 -0.0923
  872MOL0     H17718   8.339  11.164   2.752  0.5249  0.2713  0.0160
  872MOL0     H17719   7.664  11.355   3.171  0.3002  1.0187  1.6093
  872MOL0     H17720   7.468  11.253   3.228  0.1503  0.0330 -0.6021
  873MOL0     O17721   8.113   0.260   5.660  0.5245  0.3465  0.0171
  873MOL0     C17722   8.208   0.190   5.630 -0.0988  0.6635 -0.3211
  873MOL0     O17723   8.212   0.052   5.630  0.4413  0.1287  0.5291
  873MOL0     C17724   8.107  -0.014   5.691  0.9334 -0.6177 -0.3809
  873MOL0     C17725   8.045  -0.115   5.628  0.1716  0.1349  0.1333
  873MOL0     C17726   7.932  -0.176   5.687 -0.6440 -0.2224 -0.5085
  873MOL0     C17727   7.875  -0.133   5.805  1.4304  0.1542  0.4003
  873MOL0     O17728   7.755  -0.181   5.857 -0.2388 -0.7733  0.4760
  873MOL0     C17729   7.736  -0.173   5.995 -0.0597  0.5359  0.9839
  873MOL0     C17730   7.630  -0.271   6.029  0.3431  0.5209 -0.7378
  873MOL0     C17731   7.613  -0.270   6.185  0.5842  0.5856  0.6672
  873MOL0     C17732   7.591  -0.402   6.255 -0.6692  0.4433  0.7925
  873MOL0     C17733   7.451  -0.459   6.237 -0.1571 -0.2493 -0.6937
  873MOL0     C17734   7.416  -0.578   6.327  0.0640 -0.7904 -0.7161
  873MOL0     C17735   7.269  -0.626   6.303  0.2147 -0.1780  0.0432
  873MOL0     C17736   7.239  -0.652   6.157  0.5017 -0.2831  0.1090
  873MOL0     N17737   7.132  -0.755   6.148  0.3716 -0.1286 -0.2346
  873MOL0     C17738   7.151  -0.884   6.184 -0.1597  0.2743 -0.4506
  873MOL0     C17739   7.029  -0.943   6.168 -0.3990  0.6541  0.3688
  873MOL0     C17740   7.021  -1.090   6.162 -0.7352 -0.1072 -0.3223
  873MOL0     C17741   7.008  -1.135   6.301 -0.4346  0.1179 -0.2884
  873MOL0     C17742   7.003  -1.284   6.318 -0.9043  0.2092 -0.2906
  873MOL0     C17743   6.887  -1.357   6.254  0.6931 -0.7781  0.8956
  873MOL0     O17744   6.767  -1.285   6.279  0.1340 -0.0510 -0.4451
  873MOL0     C17745   6.642  -1.337   6.253  0.7898 -0.7086  0.2391
  873MOL0     C17746   6.631  -1.453   6.173  0.1299 -0.2246  0.5349
  873MOL0     C17747   6.504  -1.518   6.159  0.0375 -0.7802  0.0007
  873MOL0     C17748   6.497  -1.646   6.077 -0.3839 -0.1553 -0.3459
  873MOL0     C17749   6.387  -1.448   6.217  0.4750 -0.0772 -0.5620
  873MOL0     C17750   6.253  -1.485   6.199  0.2003  0.0686  0.4889
  873MOL0     O17751   6.174  -1.501   6.316 -0.3016  0.4437  0.4906
  873MOL0     C17752   6.058  -1.558   6.311 -0.4834  0.7147  0.1795
  873MOL0     C17753   6.031  -1.683   6.244  0.1977 -0.1622  0.1613
  873MOL0     C17754   5.908  -1.744   6.243 -0.1005  0.1326  0.1554
  873MOL0     C17755   5.797  -1.685   6.308 -0.4080  0.8467  0.2967
  873MOL0     O17756   5.663  -1.717   6.311 -0.2302 -0.1720 -0.3087
  873MOL0     C17757   5.632  -1.812   6.415  0.3187  0.8295 -0.0930
  873MOL0     C17758   5.512  -1.904   6.372 -0.5399 -0.3645  0.7421
  873MOL0     C17759   5.542  -1.974   6.236  1.0670  0.2140 -0.0112
  873MOL0     C17760   5.458  -2.097   6.230 -0.0956  0.2020 -0.9758
  873MOL0     C17761   5.482  -2.169   6.084 -0.1658 -0.9561 -0.8074
  873MOL0     C17762   5.378  -2.284   6.059 -0.1983  0.5309 -0.4768
  873MOL0     C17763   5.364  -2.371   6.183 -0.0596 -0.0447  0.0375
  873MOL0     C17764   5.286  -2.498   6.156  0.0403  0.1992 -0.4786
  873MOL0    Cl17765   5.354  -2.602   6.019 -0.1659 -0.1024  0.0199
  873MOL0     C17766   5.826  -1.572   6.382  0.5256  0.1250 -0.0893
  873MOL0     C17767   5.950  -1.509   6.389 -0.0659  0.0608  0.3335
  873MOL0     O17768   6.211  -1.499   6.083  0.4422  0.5192  0.0597
  873MOL0     C17769   6.407  -1.330   6.292 -0.3049  0.2439 -0.7295
  873MOL0     C17770   6.531  -1.276   6.311  0.5582 -1.0973 -0.0799
  873MOL0     N17771   6.935  -0.856   6.119 -0.1869 -0.4153 -0.4983
  873MOL0     N17772   7.000  -0.741   6.110  0.0274  0.5202  0.6231
  873MOL0     C17773   7.952  -0.045   5.875 -1.1273  0.2551 -0.0096
  873MOL0     C17774   8.064   0.021   5.820  0.6455  0.5914 -0.2919
  873MOL0     C17775   8.335   0.253   5.597  0.9285  0.0305  0.1123
  873MOL0     C17776   8.357   0.397   5.602  0.0550  0.0428  0.9990
  873MOL0     C17777   8.483   0.454   5.584 -0.0395  0.2798  0.0331
  873MOL0     C17778   8.590   0.371   5.545 -0.1677  0.1521 -0.6842
  873MOL0     O17779   8.723   0.419   5.529 -0.3372 -0.1388  0.4505
  873MOL0     C17780   8.758   0.556   5.543 -0.0959  0.9506 -0.5088
  873MOL0     C17781   8.766   0.634   5.412 -0.3655 -0.2586 -0.0331
  873MOL0     C17782   8.884   0.581   5.331 -0.4433  0.1090 -0.7175
  873MOL0     C17783   8.896   0.645   5.198  0.6949 -0.3261  0.7028
  873MOL0     C17784   8.956   0.780   5.198  1.0742  0.6218  0.5215
  873MOL0     C17785   9.025   0.875   5.216  0.1285 -0.5976 -0.8292
  873MOL0     C17786   8.571   0.234   5.530  0.4630  0.5410  0.1797
  873MOL0     C17787   8.448   0.177   5.552  0.3800 -0.0697  0.2562
  873MOL0     H17788   8.073  -0.141   5.527 -0.8849 -1.0072  0.1022
  873MOL0     H17789   7.883  -0.247   5.621 -0.9428 -0.8006  0.3354
  873MOL0     H17790   7.827  -0.206   6.047  0.8325  1.6041  0.1462
  873MOL0     H17791   7.718  -0.075   6.040  1.9062  1.4791 -0.1515
  873MOL0     H17792   7.534  -0.236   5.990 -2.1991 -4.0516  0.6620
  873MOL0     H17793   7.649  -0.375   6.003  0.0161 -0.4199  2.3322
  873MOL0     H17794   7.712  -0.243   6.221  0.2604  3.6165 -0.4281
  873MOL0     H17795   7.542  -0.192   6.214 -3.1261 -2.1530 -0.1401
  873MOL0     H17796   7.656  -0.480   6.216 -2.7172 -0.3909 -1.1753
  873MOL0     H17797   7.621  -0.388   6.359  0.6191  0.7674  0.3953
  873MOL0     H17798   7.382  -0.382   6.272  0.8480  0.2387  0.2861
  873MOL0     H17799   7.422  -0.475   6.133 -0.9601  2.0709 -0.8872
  873MOL0     H17800   7.481  -0.666   6.319  0.4899 -0.3797 -2.0681
  873MOL0     H17801   7.419  -0.542   6.430 -4.5920  0.2349 -0.7340
  873MOL0     H17802   7.244  -0.716   6.359 -0.5340 -1.5221 -2.3067
  873MOL0     H17803   7.199  -0.554   6.346 -0.6340 -0.6874 -0.4706
  873MOL0     H17804   7.324  -0.685   6.097  0.0114  2.0424 -2.0317
  873MOL0     H17805   7.212  -0.555   6.115  1.0973 -0.4087 -0.5707
  873MOL0     H17806   7.237  -0.938   6.220 -0.7544 -1.8293 -1.9674
  873MOL0     H17807   6.934  -1.120   6.103 -1.1506  0.1664  0.1537
  873MOL0     H17808   7.102  -1.136   6.104 -1.6039 -0.4619 -1.2741
  873MOL0     H17809   6.932  -1.080   6.356 -0.6984  1.4889 -1.9434
  873MOL0     H17810   7.098  -1.110   6.359 -0.3831 -0.3774 -0.1457
  873MOL0     H17811   7.004  -1.308   6.425 -0.0853 -2.6469 -0.8283
  873MOL0     H17812   7.097  -1.315   6.272 -0.9768  0.0444 -0.3292
  873MOL0     H17813   6.881  -1.462   6.285  3.3742 -0.8696  1.3051
  873MOL0     H17814   6.901  -1.365   6.146 -0.7013  0.5752  0.5746
  873MOL0     H17815   6.716  -1.495   6.121 -1.0606 -1.6043 -0.3477
  873MOL0     H17816   6.462  -1.626   5.976 -1.1828 -1.1466 -0.2835
  873MOL0     H17817   6.599  -1.679   6.057 -0.9043 -0.7607 -2.1642
  873MOL0     H17818   6.436  -1.729   6.115  3.1372 -2.1234  1.5634
  873MOL0     H17819   6.105  -1.742   6.192  1.5644  2.6946 -1.3472
  873MOL0     H17820   5.879  -1.833   6.188  0.2650  0.2932 -0.3012
  873MOL0     H17821   5.717  -1.879   6.428 -1.7502 -1.9037  0.1323
  873MOL0     H17822   5.609  -1.745   6.498 -0.3151  1.4369 -0.7363
  873MOL0     H17823   5.502  -1.986   6.444  1.3995 -1.9485 -0.6655
  873MOL0     H17824   5.413  -1.858   6.367  0.9603  3.0691 -0.0284
  873MOL0     H17825   5.644  -2.006   6.211 -0.1242 -2.2902 -2.1816
  873MOL0     H17826   5.514  -1.912   6.150 -0.4828 -1.5043 -0.8118
  873MOL0     H17827   5.486  -2.164   6.312  0.3228 -2.0080 -2.7983
  873MOL0     H17828   5.354  -2.066   6.247  0.0251  0.4500 -0.6901
  873MOL0     H17829   5.587  -2.199   6.070  0.2404  0.7687 -1.6757
  873MOL0     H17830   5.463  -2.094   6.008 -4.4055 -0.3700  0.5695
  873MOL0     H17831   5.280  -2.243   6.035  0.0012  2.7067  1.9601
  873MOL0     H17832   5.406  -2.345   5.973 -1.3908  1.2314 -1.3816
  873MOL0     H17833   5.321  -2.322   6.270  2.7267  0.4288  1.2542
  873MOL0     H17834   5.464  -2.399   6.218  0.4635  2.4522  0.7348
  873MOL0     H17835   5.184  -2.473   6.128  0.1630 -0.7336 -1.8826
  873MOL0     H17836   5.276  -2.548   6.253  0.0843  2.7658  0.9337
  873MOL0     H17837   5.745  -1.520   6.434 -2.9990 -3.0258 -1.9179
  873MOL0     H17838   5.962  -1.412   6.436  2.0448 -0.2889  0.6439
  873MOL0     H17839   6.320  -1.286   6.340 -0.7002 -0.6589 -0.6159
  873MOL0     H17840   6.538  -1.185   6.370 -1.0393 -0.7186 -0.4139
  873MOL0     H17841   7.923   0.005   5.967 -2.2200 -0.2063 -0.0893
  873MOL0     H17842   8.123   0.097   5.870 -0.7994  1.4501  0.1681
  873MOL0     H17843   8.266   0.453   5.621 -1.9181 -2.4679 -0.4787
  873MOL0     H17844   8.488   0.562   5.595 -0.0310  0.2215  0.6437
  873MOL0     H17845   8.690   0.606   5.613  0.4085  0.0457  0.6576
  873MOL0     H17846   8.858   0.559   5.586 -0.9309  1.4638  1.5099
  873MOL0     H17847   8.778   0.741   5.429 -0.1274 -0.0275 -1.5043
  873MOL0     H17848   8.675   0.628   5.352  0.8288  2.5654 -2.3391
  873MOL0     H17849   8.863   0.477   5.303  1.1605 -0.1718 -1.0038
  873MOL0     H17850   8.979   0.587   5.386 -2.4596  1.6511  2.9567
  873MOL0     H17851   8.794   0.640   5.157  1.0966  2.4807 -0.9121
  873MOL0     H17852   8.948   0.579   5.130 -2.2115 -0.7911 -1.2463
  873MOL0     H17853   9.075   0.969   5.225  0.5064 -1.0016  3.1731
  873MOL0     H17854   8.654   0.170   5.502 -2.1523 -2.4420 -1.3474
  873MOL0     H17855   8.439   0.070   5.537  0.1847  0.1814 -1.6650
  874MOL0     O17856   1.410   0.612   2.189 -1.0734 -0.4577  0.2494
  874MOL0     C17857   1.372   0.608   2.302  0.8007 -0.7853 -0.2951
  874MOL0     O17858   1.241   0.597   2.349 -0.0532  0.3684  0.4881
  874MOL0     C17859   1.134   0.581   2.260  0.2463 -0.1407 -0.0183
  874MOL0     C17860   1.048   0.477   2.282 -0.0582 -0.2679 -0.3496
  874MOL0     C17861   0.934   0.462   2.198 -0.3713 -0.8001  0.4790
  874MOL0     C17862   0.924   0.540   2.080 -0.2294  0.7912  0.2368
  874MOL0     O17863   0.816   0.500   1.999 -0.8264 -0.1558 -0.1608
  874MOL0     C17864   0.808   0.572   1.875  0.5737  0.4489  0.8805
  874MOL0     C17865   0.685   0.516   1.788  0.2209 -0.4684 -1.0633
  874MOL0     C17866   0.547   0.559   1.838 -0.5190  0.9011  0.0346
  874MOL0     C17867   0.459   0.553   1.713  0.0552  0.1671  0.4926
  874MOL0     C17868   0.310   0.572   1.737 -0.3805 -0.2688 -0.5014
  874MOL0     C17869   0.246   0.467   1.812 -0.1283  0.5816  0.6856
  874MOL0     C17870   0.098   0.478   1.805  0.3155  0.0879  0.0913
  874MOL0     C17871   0.037   0.605   1.880  0.6164  0.5672  0.3563
  874MOL0     N17872  -0.114   0.614   1.877  0.3135 -0.0218 -0.3139
  874MOL0     C17873  -0.193   0.608   1.767 -0.1503 -0.5837  0.6742
  874MOL0     C17874  -0.313   0.672   1.795 -0.3184  0.3240  0.2627
  874MOL0     C17875  -0.427   0.684   1.693 -0.1667  0.1206 -0.5014
  874MOL0     C17876  -0.537   0.776   1.732  0.0629 -0.3857  0.0347
  874MOL0     C17877  -0.655   0.789   1.628 -0.3298 -0.1751  0.2360
  874MOL0     C17878  -0.755   0.889   1.675 -0.3811  0.3460  0.9537
  874MOL0     O17879  -0.850   0.897   1.569  0.0794 -0.7801  0.2629
  874MOL0     C17880  -0.968   0.970   1.578 -0.5717 -0.0211  0.1517
  874MOL0     C17881  -1.014   1.047   1.680 -0.7361  0.3675 -0.2436
  874MOL0     C17882  -1.127   1.123   1.672  0.2577  0.0883  0.0134
  874MOL0     C17883  -1.158   1.213   1.794  0.2473  0.0984 -0.2358
  874MOL0     C17884  -1.204   1.122   1.552  0.0943  0.6727  0.2975
  874MOL0     C17885  -1.342   1.165   1.548 -0.5210  0.4380 -0.0805
  874MOL0     O17886  -1.418   1.175   1.657 -1.0723  0.2613 -0.0713
  874MOL0     C17887  -1.555   1.194   1.654  1.0582  0.8392 -0.0326
  874MOL0     C17888  -1.645   1.127   1.570 -1.1706 -0.2293 -0.4786
  874MOL0     C17889  -1.781   1.155   1.587 -0.1350 -0.1240 -0.6592
  874MOL0     C17890  -1.832   1.245   1.677 -0.5930  0.0504  0.3958
  874MOL0     O17891  -1.975   1.266   1.662  1.5712  0.8890  0.0848
  874MOL0     C17892  -2.024   1.390   1.700 -0.2744 -0.6830  0.3030
  874MOL0     C17893  -2.173   1.408   1.662 -0.2046 -0.1360  0.1371
  874MOL0     C17894  -2.217   1.403   1.514 -0.2288 -0.4313  1.0022
  874MOL0     C17895  -2.208   1.547   1.460 -0.2557  0.3809  0.1307
  874MOL0     C17896  -2.257   1.575   1.313 -0.3553 -0.0843 -0.0970
  874MOL0     C17897  -2.168   1.515   1.204 -0.0697 -0.1761  0.0183
  874MOL0     C17898  -2.212   1.547   1.061  0.0422 -0.4086  0.1155
  874MOL0     C17899  -2.190   1.416   0.976  0.4030 -0.5094  0.2235
  874MOL0    Cl17900  -2.246   1.421   0.802  0.1214 -0.1861  0.2931
  874MOL0     C17901  -1.744   1.309   1.757 -0.6754 -0.3296  0.1118
  874MOL0     C17902  -1.603   1.284   1.745 -0.3207  0.1108 -0.6708
  874MOL0     O17903  -1.387   1.182   1.431 -0.8737  0.2757  0.1901
  874MOL0     C17904  -1.153   1.042   1.445 -0.3974  0.4047  0.6179
  874MOL0     C17905  -1.038   0.966   1.456  0.2133 -0.5650 -0.4926
  874MOL0     N17906  -0.307   0.688   1.937 -0.2556 -1.2842  1.0685
  874MOL0     N17907  -0.190   0.668   1.976  0.4026  0.5497  0.3196
  874MOL0     C17908   1.012   0.652   2.060  0.6528 -0.6352  1.4330
  874MOL0     C17909   1.124   0.659   2.142 -0.1852 -0.0418  0.3483
  874MOL0     C17910   1.476   0.630   2.407 -0.3787  0.5269 -0.1303
  874MOL0     C17911   1.446   0.620   2.539 -0.3543  0.1207  0.1279
  874MOL0     C17912   1.541   0.627   2.641 -0.1071  0.5180  0.1643
  874MOL0     C17913   1.677   0.667   2.606 -0.5491 -1.1732 -0.2087
  874MOL0     O17914   1.765   0.701   2.713 -0.2106 -0.0180  0.1495
  874MOL0     C17915   1.882   0.780   2.684 -0.9410 -0.0107  0.0472
  874MOL0     C17916   2.008   0.704   2.635 -1.0223 -0.0996  0.4344
  874MOL0     C17917   2.138   0.780   2.669  0.0009  0.2110 -0.5068
  874MOL0     C17918   2.185   0.730   2.808  0.0369 -0.6237 -0.1080
  874MOL0     C17919   2.311   0.787   2.847 -0.7762 -0.8347  0.2343
  874MOL0     C17920   2.423   0.844   2.866  0.1671 -0.3635 -0.2550
  874MOL0     C17921   1.707   0.683   2.468  0.2183  0.8210 -0.4716
  874MOL0     C17922   1.611   0.667   2.371 -0.0263 -0.1759 -0.4563
  874MOL0     H17923   1.061   0.408   2.366  1.2473  0.2148 -0.1255
  874MOL0     H17924   0.869   0.377   2.213  0.6314 -1.3976  1.6420
  874MOL0     H17925   0.802   0.679   1.898  1.3997 -0.1867  4.5720
  874MOL0     H17926   0.891   0.546   1.809 -0.0416  0.1569  0.1990
  874MOL0     H17927   0.717   0.542   1.687  3.3106 -0.6534 -0.2410
  874MOL0     H17928   0.694   0.407   1.784 -1.5606 -0.6585 -5.3867
  874MOL0     H17929   0.513   0.483   1.909 -0.6748 -0.7128 -1.6947
  874MOL0     H17930   0.552   0.662   1.876 -1.6308  0.7898  0.5192
  874MOL0     H17931   0.489   0.629   1.641  0.6603 -0.0902  0.4692
  874MOL0     H17932   0.476   0.457   1.662 -1.3706  0.0293  0.2421
  874MOL0     H17933   0.300   0.667   1.791  2.5012 -0.8478  1.2554
  874MOL0     H17934   0.253   0.584   1.645  0.6599  1.3567 -0.9610
  874MOL0     H17935   0.283   0.376   1.763 -0.5829  0.5171  0.4584
  874MOL0     H17936   0.279   0.467   1.917  1.0372  2.1137  0.3508
  874MOL0     H17937   0.071   0.467   1.699 -0.1951 -0.9397  0.3190
  874MOL0     H17938   0.059   0.391   1.859 -1.6552 -0.8363 -2.5635
  874MOL0     H17939   0.076   0.698   1.836  1.3509 -1.1387 -2.9304
  874MOL0     H17940   0.070   0.594   1.984  0.1440  0.0760  0.4560
  874MOL0     H17941  -0.164   0.556   1.676 -0.5348 -1.2747  0.9452
  874MOL0     H17942  -0.366   0.718   1.609  3.9504 -1.2031  1.7020
  874MOL0     H17943  -0.479   0.588   1.683 -2.8529  0.9665  3.2375
  874MOL0     H17944  -0.496   0.877   1.740  0.4260 -0.6794  3.1036
  874MOL0     H17945  -0.581   0.743   1.826  0.1955 -1.8800 -0.4006
  874MOL0     H17946  -0.703   0.691   1.620 -0.0636 -0.2597 -0.3579
  874MOL0     H17947  -0.614   0.810   1.528  1.1552  1.9471  1.2233
  874MOL0     H17948  -0.707   0.985   1.696 -0.2809  1.4841 -3.5100
  874MOL0     H17949  -0.801   0.844   1.763  1.1163 -1.5801  0.8053
  874MOL0     H17950  -0.958   1.041   1.773  1.1399 -3.2193 -1.4224
  874MOL0     H17951  -1.202   1.307   1.758 -3.7340 -1.2460  0.6117
  874MOL0     H17952  -1.228   1.163   1.861 -1.2044  1.4209 -0.6955
  874MOL0     H17953  -1.064   1.228   1.848  1.7443  3.0758 -3.3177
  874MOL0     H17954  -1.616   1.055   1.494 -1.3333  0.8526 -1.5856
  874MOL0     H17955  -1.840   1.089   1.523 -1.2418  0.4870 -0.2945
  874MOL0     H17956  -2.001   1.409   1.805  0.3808 -1.6136  0.3388
  874MOL0     H17957  -1.973   1.472   1.649 -0.8736 -0.9598 -0.7656
  874MOL0     H17958  -2.229   1.325   1.704 -1.5953 -1.3927 -3.7950
  874MOL0     H17959  -2.215   1.492   1.719  0.6596 -0.1940  0.8806
  874MOL0     H17960  -2.323   1.376   1.512 -1.0510  2.5028 -0.4478
  874MOL0     H17961  -2.151   1.338   1.456 -0.4980  0.6211 -0.5723
  874MOL0     H17962  -2.259   1.618   1.526  0.6858  0.4881  0.7662
  874MOL0     H17963  -2.103   1.573   1.475 -0.3002 -0.2156  1.7772
  874MOL0     H17964  -2.252   1.683   1.294 -1.4815 -0.4924 -3.3074
  874MOL0     H17965  -2.359   1.536   1.307 -0.2715 -0.5570  1.1760
  874MOL0     H17966  -2.066   1.553   1.200  0.1188 -0.6783 -3.7639
  874MOL0     H17967  -2.166   1.405   1.209 -2.4745 -0.3519 -1.2836
  874MOL0     H17968  -2.157   1.629   1.014 -2.3508 -0.3517 -2.9174
  874MOL0     H17969  -2.317   1.576   1.068 -0.2284 -1.6635  1.7823
  874MOL0     H17970  -2.251   1.336   1.020  1.1119 -1.1049  0.1259
  874MOL0     H17971  -2.085   1.386   0.974  0.5433 -0.1604  1.4263
  874MOL0     H17972  -1.785   1.384   1.823  1.4794 -0.3214  1.5191
  874MOL0     H17973  -1.541   1.339   1.815 -1.7243 -0.0877  0.8129
  874MOL0     H17974  -1.213   1.021   1.356  3.5224 -2.9745 -1.6228
  874MOL0     H17975  -1.005   0.901   1.374 -0.5809 -2.2801  0.4913
  874MOL0     H17976   0.978   0.718   1.981  0.8218 -1.2693  0.8200
  874MOL0     H17977   1.197   0.738   2.128 -0.0884  0.6494  3.8732
  874MOL0     H17978   1.344   0.593   2.567 -0.0562 -1.9577 -0.6103
  874MOL0     H17979   1.513   0.626   2.746 -0.0579  0.4156  0.1774
  874MOL0     H17980   1.859   0.866   2.621 -2.9062  0.4337  1.2893
  874MOL0     H17981   1.908   0.826   2.780 -1.9432 -1.6030  1.1360
  874MOL0     H17982   2.014   0.695   2.526  0.2240 -0.0613  0.4834
  874MOL0     H17983   2.009   0.606   2.684  3.3805 -1.2734 -1.4816
  874MOL0     H17984   2.127   0.889   2.673  2.0137  0.5378 -2.1748
  874MOL0     H17985   2.211   0.749   2.594  0.6163 -2.5745  1.1136
  874MOL0     H17986   2.199   0.622   2.799  2.3606 -0.1601 -4.3030
  874MOL0     H17987   2.115   0.764   2.886 -1.2453  1.7037 -2.1393
  874MOL0     H17988   2.523   0.884   2.867 -0.4989  1.3965  0.0121
  874MOL0     H17989   1.805   0.721   2.443  1.0267 -0.0750  1.2338
  874MOL0     H17990   1.649   0.684   2.271  4.4360 -1.4282  0.7997
  875MOL0     O17991  10.187   6.204   3.161  0.1780  0.4674 -0.0662
  875MOL0     C17992  10.188   6.187   3.038  0.4384 -0.6342 -0.3283
  875MOL0     O17993  10.105   6.252   2.947 -0.1871  0.4122 -0.1256
  875MOL0     C17994  10.030   6.350   3.007 -0.1289  0.5446 -0.3642
  875MOL0     C17995  10.077   6.484   3.002 -0.2373 -0.6486 -0.9375
  875MOL0     C17996   9.994   6.589   3.059 -0.1779 -0.5861  0.0312
  875MOL0     C17997   9.873   6.556   3.125  0.0496 -0.3889 -0.2376
  875MOL0     O17998   9.792   6.648   3.188 -0.1222  0.1331 -0.5592
  875MOL0     C17999   9.849   6.718   3.299 -1.0437  0.9584 -0.6046
  875MOL0     C18000   9.819   6.860   3.311  0.0005  0.2136  0.1151
  875MOL0     C18001   9.668   6.888   3.332  0.3687 -0.1846 -0.4793
  875MOL0     C18002   9.610   6.939   3.467 -0.5369 -0.7905 -0.0024
  875MOL0     C18003   9.469   6.974   3.452  1.0512 -0.7939 -0.3397
  875MOL0     C18004   9.399   6.967   3.581 -0.0363  0.5007 -1.0120
  875MOL0     C18005   9.258   7.014   3.572 -1.3340 -0.0083  0.7517
  875MOL0     C18006   9.200   7.019   3.714 -0.1660 -0.5933 -0.1879
  875MOL0     N18007   9.056   7.027   3.713  0.1798 -0.0745 -0.8391
  875MOL0     C18008   8.973   7.111   3.645  0.6570  0.1096  0.7502
  875MOL0     C18009   8.861   7.109   3.717  0.3007 -0.2020 -0.4701
  875MOL0     C18010   8.718   7.167   3.694 -1.5746  0.1096 -0.3697
  875MOL0     C18011   8.679   7.141   3.548  1.1615  0.0533  0.1635
  875MOL0     C18012   8.541   7.196   3.506  0.6331 -1.2066 -0.1465
  875MOL0     C18013   8.419   7.096   3.502  0.1167 -0.2805  0.6661
  875MOL0     O18014   8.295   7.165   3.471  0.8924  0.0821 -0.3008
  875MOL0     C18015   8.218   7.210   3.578 -0.5569  0.2269  0.0479
  875MOL0     C18016   8.266   7.238   3.707  0.8877  0.7334 -0.7689
  875MOL0     C18017   8.174   7.299   3.794 -0.2787  0.3508 -0.0905
  875MOL0     C18018   8.228   7.335   3.931  0.1615  0.2737 -0.7715
  875MOL0     C18019   8.040   7.335   3.749 -0.4625  0.4638 -0.0516
  875MOL0     C18020   7.944   7.410   3.836 -0.1066  0.2720  0.5246
  875MOL0     O18021   7.858   7.500   3.776 -0.4044 -0.4773  0.2726
  875MOL0     C18022   7.745   7.533   3.849  0.0028 -0.1593 -0.6395
  875MOL0     C18023   7.759   7.619   3.957 -0.3445  0.1924 -0.6605
  875MOL0     C18024   7.647   7.646   4.044 -0.0464  0.3441  0.4811
  875MOL0     C18025   7.523   7.595   4.016  0.0256  0.1981  0.5191
  875MOL0     O18026   7.417   7.633   4.093 -0.3994 -0.0352 -0.4810
  875MOL0     C18027   7.294   7.672   4.031  0.8994 -0.9115  0.6955
  875MOL0     C18028   7.198   7.737   4.133  0.1779 -0.1983 -0.7227
  875MOL0     C18029   7.064   7.766   4.068 -0.0518  0.2937  0.2889
  875MOL0     C18030   6.980   7.853   4.163 -0.6246 -0.6433 -0.8116
  875MOL0     C18031   6.853   7.902   4.092  0.0952 -0.2915  0.5823
  875MOL0     C18032   6.769   8.008   4.183  0.0998  0.2570  0.8285
  875MOL0     C18033   6.638   8.039   4.110 -0.6538  0.4108  0.2859
  875MOL0     C18034   6.534   8.106   4.207 -0.6303 -0.2871 -0.3679
  875MOL0    Cl18035   6.437   7.982   4.301  0.0295 -0.3209  0.0189
  875MOL0     C18036   7.506   7.511   3.901 -0.5619 -0.2771 -0.8713
  875MOL0     C18037   7.616   7.479   3.827 -0.1667  0.5818 -0.3038
  875MOL0     O18038   7.953   7.388   3.955 -0.0392  0.5154 -0.1800
  875MOL0     C18039   8.001   7.299   3.620 -0.5630 -0.0161  0.2044
  875MOL0     C18040   8.089   7.233   3.538  0.0451 -1.2375 -0.1698
  875MOL0     N18041   8.867   7.019   3.817  0.0297 -0.3023  0.2394
  875MOL0     N18042   8.982   6.973   3.812  0.6901  0.0103 -0.4924
  875MOL0     C18043   9.835   6.418   3.134 -0.2609 -0.7809  0.3034
  875MOL0     C18044   9.909   6.321   3.071  0.4932  0.2515 -0.0341
  875MOL0     C18045  10.281   6.072   2.997  0.1098  0.3052  0.3974
  875MOL0     C18046  10.287   6.043   2.861  0.5771 -0.0286  0.2132
  875MOL0     C18047  10.371   5.934   2.819  0.1775 -0.0524  0.4976
  875MOL0     C18048  10.458   5.873   2.914  0.8478 -0.0740 -0.2145
  875MOL0     O18049  10.547   5.787   2.856  0.2616  0.5771  0.6620
  875MOL0     C18050  10.622   5.702   2.943  0.7477  0.7078  0.4930
  875MOL0     C18051  10.756   5.756   2.974 -0.6857  0.3328 -0.0488
  875MOL0     C18052  10.841   5.777   2.855 -0.5310  0.1008  0.3243
  875MOL0     C18053  10.926   5.657   2.810 -0.9510 -0.1279 -0.6745
  875MOL0     C18054  11.001   5.690   2.690  0.8591  0.3656 -0.0346
  875MOL0     C18055  11.070   5.711   2.597  0.5982 -0.5610  0.0117
  875MOL0     C18056  10.448   5.910   3.042 -1.1485  0.3104 -0.3456
  875MOL0     C18057  10.359   6.008   3.089 -0.3766  0.2450  0.0635
  875MOL0     H18058  10.162   6.504   2.938 -1.4559  1.6490 -1.9810
  875MOL0     H18059  10.034   6.689   3.045 -0.8453 -0.3119  0.0236
  875MOL0     H18060   9.804   6.671   3.387 -0.0772  1.6197  0.2694
  875MOL0     H18061   9.957   6.698   3.299 -1.4546 -1.7500  1.3322
  875MOL0     H18062   9.877   6.892   3.398  1.8006 -2.7534  0.1467
  875MOL0     H18063   9.851   6.911   3.220  2.3972 -0.9531  0.2119
  875MOL0     H18064   9.639   6.972   3.268  0.6065  2.0030  2.0959
  875MOL0     H18065   9.612   6.802   3.295  0.3031 -0.7915  0.9472
  875MOL0     H18066   9.629   6.858   3.538 -0.2819 -1.7992 -1.1928
  875MOL0     H18067   9.664   7.023   3.511  0.6879 -2.3482  1.6029
  875MOL0     H18068   9.453   7.076   3.414 -1.4739 -1.2882 -0.8008
  875MOL0     H18069   9.410   6.904   3.393 -1.7266 -0.5703  1.9307
  875MOL0     H18070   9.393   6.865   3.620 -1.1870  0.9355  0.0231
  875MOL0     H18071   9.460   7.017   3.658  2.1227 -2.0607 -0.9032
  875MOL0     H18072   9.266   7.117   3.537  2.7053 -0.1709  0.7484
  875MOL0     H18073   9.207   6.955   3.495 -1.9743  0.5944  0.7091
  875MOL0     H18074   9.240   7.103   3.772 -1.0135 -0.7335  0.6367
  875MOL0     H18075   9.214   6.925   3.767  1.3186 -0.9156 -1.0917
  875MOL0     H18076   8.984   7.163   3.550  3.6958  0.9677  1.4568
  875MOL0     H18077   8.660   7.116   3.772 -1.2770 -0.9496 -0.8149
  875MOL0     H18078   8.714   7.267   3.737  0.5891 -0.2166  0.7276
  875MOL0     H18079   8.683   7.034   3.526  0.7856 -0.1165  0.8847
  875MOL0     H18080   8.743   7.192   3.476  0.6199 -2.4220 -2.2399
  875MOL0     H18081   8.548   7.245   3.408 -0.2982  2.4474  1.4192
  875MOL0     H18082   8.517   7.276   3.578 -2.1521 -1.8729 -0.2147
  875MOL0     H18083   8.411   7.038   3.594 -0.7501 -0.8397  0.2465
  875MOL0     H18084   8.448   7.031   3.419 -0.1420  2.1982 -1.5005
  875MOL0     H18085   8.365   7.206   3.740  0.5934  0.4516 -0.1340
  875MOL0     H18086   8.188   7.436   3.942 -2.3054 -0.8074  1.8018
  875MOL0     H18087   8.192   7.277   4.017 -1.8308  1.1657 -0.9505
  875MOL0     H18088   8.337   7.344   3.939  0.1403  3.1913 -2.7061
  875MOL0     H18089   7.853   7.658   3.994 -0.0419 -1.5446  0.5630
  875MOL0     H18090   7.662   7.713   4.128  0.7395  1.7260 -0.7086
  875MOL0     H18091   7.332   7.743   3.957 -0.0863 -2.2399 -1.1800
  875MOL0     H18092   7.236   7.601   3.970  2.0598  0.5959 -2.3755
  875MOL0     H18093   7.184   7.658   4.208 -0.6878 -0.0474 -0.7196
  875MOL0     H18094   7.245   7.828   4.171  1.4421 -1.6039  1.3155
  875MOL0     H18095   7.010   7.680   4.026 -1.2348  0.9741  0.3617
  875MOL0     H18096   7.101   7.833   3.989  3.4352  1.8605  2.9822
  875MOL0     H18097   6.951   7.803   4.256 -0.8546  1.6420  0.4267
  875MOL0     H18098   7.039   7.939   4.196  1.7467 -1.6680 -2.1125
  875MOL0     H18099   6.791   7.814   4.074 -0.9094  0.0690  2.1273
  875MOL0     H18100   6.883   7.951   3.998  0.7678 -2.0540 -0.1696
  875MOL0     H18101   6.746   7.968   4.282  0.3594  0.4309  0.9606
  875MOL0     H18102   6.822   8.103   4.187 -0.5080  0.5804  1.3168
  875MOL0     H18103   6.600   7.947   4.063  0.3210 -0.2528  0.7565
  875MOL0     H18104   6.665   8.103   4.026 -0.8657 -1.8393 -1.5994
  875MOL0     H18105   6.471   8.157   4.133 -1.0048  2.6475  1.8008
  875MOL0     H18106   6.586   8.180   4.268  2.7724 -1.9459 -1.0275
  875MOL0     H18107   7.405   7.478   3.881 -0.6798 -0.7257  0.3467
  875MOL0     H18108   7.597   7.419   3.738  0.1050  0.2036 -0.1115
  875MOL0     H18109   7.906   7.319   3.572  1.3813  1.0321 -3.5627
  875MOL0     H18110   8.074   7.193   3.438 -1.3306 -0.9843 -0.0782
  875MOL0     H18111   9.740   6.400   3.183 -0.1261 -1.5661  0.2902
  875MOL0     H18112   9.876   6.218   3.077  1.9259 -0.2908 -0.8676
  875MOL0     H18113  10.239   6.097   2.780 -1.6797 -0.8373  0.9502
  875MOL0     H18114  10.373   5.909   2.713 -2.1403  1.9130 -0.1288
  875MOL0     H18115  10.569   5.678   3.035  1.6215 -0.2334  0.7798
  875MOL0     H18116  10.646   5.611   2.887  1.6206  0.6140  0.9997
  875MOL0     H18117  10.816   5.691   3.038 -1.8491 -1.9325 -1.1397
  875MOL0     H18118  10.749   5.851   3.027 -1.8118 -0.0875  0.5770
  875MOL0     H18119  10.906   5.862   2.881  3.5305 -3.4241  3.0030
  875MOL0     H18120  10.768   5.796   2.776  0.8391 -0.7190 -1.1912
  875MOL0     H18121  10.867   5.567   2.788  0.4379 -1.2480 -0.0221
  875MOL0     H18122  10.999   5.628   2.886 -1.4990 -0.1644 -0.1544
  875MOL0     H18123  11.114   5.751   2.509 -3.6767  1.1641 -1.6078
  875MOL0     H18124  10.504   5.860   3.121 -2.6510  0.1200  0.6450
  875MOL0     H18125  10.342   6.033   3.194 -0.4294 -2.0416  0.6573
  876MOL0     O18126   5.736   7.768   7.897  0.2333  0.5073  0.6717
  876MOL0     C18127   5.824   7.721   7.830  0.0914  0.5045 -0.1256
  876MOL0     O18128   5.907   7.617   7.866  0.1026 -1.0847  0.1862
  876MOL0     C18129   5.894   7.543   7.981  0.0014  1.1045  0.4344
  876MOL0     C18130   5.791   7.543   8.066  0.0259 -0.5104 -0.4778
  876MOL0     C18131   5.799   7.469   8.183  0.3375  0.1535 -0.4577
  876MOL0     C18132   5.909   7.384   8.222  0.6820 -0.3014 -0.1012
  876MOL0     O18133   5.901   7.300   8.338  0.7926  0.4596  0.8954
  876MOL0     C18134   6.034   7.267   8.392 -0.3553  0.2240 -0.1129
  876MOL0     C18135   6.020   7.215   8.533  1.1938 -0.1728 -0.1463
  876MOL0     C18136   5.955   7.076   8.529 -0.5310  0.4323  0.0049
  876MOL0     C18137   5.873   7.038   8.655 -0.3324 -0.2576  0.2023
  876MOL0     C18138   5.825   6.900   8.635 -0.6815  0.5644  0.5428
  876MOL0     C18139   5.733   6.847   8.747 -0.3219 -0.4473  1.4670
  876MOL0     C18140   5.632   6.746   8.684  0.1186 -0.0970  0.1328
  876MOL0     C18141   5.517   6.806   8.620 -0.3352 -0.8203 -0.2651
  876MOL0     N18142   5.455   6.715   8.524 -0.2920 -0.0459  0.1085
  876MOL0     C18143   5.483   6.719   8.389  0.4291  0.2747  0.9188
  876MOL0     C18144   5.371   6.665   8.340 -0.4542  0.1677  0.2204
  876MOL0     C18145   5.338   6.645   8.197  0.5837  0.2827 -0.0364
  876MOL0     C18146   5.194   6.682   8.162  0.4834 -0.3083  0.5930
  876MOL0     C18147   5.159   6.679   8.010 -0.9977  0.1027 -1.1030
  876MOL0     C18148   5.010   6.665   7.975 -0.2516  0.7333 -0.7223
  876MOL0     O18149   4.930   6.763   8.044  0.4914 -0.2283  0.2284
  876MOL0     C18150   4.790   6.751   8.026 -0.8677  0.4081 -0.4777
  876MOL0     C18151   4.708   6.848   8.089 -0.4778  0.1203 -0.0192
  876MOL0     C18152   4.571   6.852   8.085  0.4775  0.4601 -0.2027
  876MOL0     C18153   4.509   6.959   8.164 -0.0569 -0.0119 -0.5226
  876MOL0     C18154   4.507   6.746   8.017 -0.4037 -0.1216 -0.2512
  876MOL0     C18155   4.367   6.716   8.039 -0.2393  0.3735 -0.0356
  876MOL0     O18156   4.280   6.829   8.033 -0.1398 -0.3739 -0.0658
  876MOL0     C18157   4.142   6.813   8.042  0.4629  0.1849 -0.4168
  876MOL0     C18158   4.082   6.711   8.123  0.0361  0.2427  0.8627
  876MOL0     C18159   3.943   6.695   8.134 -0.1690  0.5095 -0.3838
  876MOL0     C18160   3.859   6.777   8.071 -0.3708  0.4191  0.5025
  876MOL0     O18161   3.728   6.754   8.090 -0.1331 -0.2307  0.1421
  876MOL0     C18162   3.657   6.750   7.962 -0.1535 -0.3650 -0.9612
  876MOL0     C18163   3.500   6.733   7.976  0.1029  0.1421  0.0414
  876MOL0     C18164   3.445   6.844   8.068 -0.3822 -0.4326  1.0867
  876MOL0     C18165   3.301   6.881   8.024  0.2164  0.6228  0.3795
  876MOL0     C18166   3.220   6.751   8.043  0.2510 -0.1200  0.6772
  876MOL0     C18167   3.078   6.758   7.985  0.4467  0.9703 -0.1151
  876MOL0     C18168   2.987   6.867   8.039 -0.3097  0.6678 -0.1463
  876MOL0     C18169   2.843   6.852   7.979  0.7286  1.0719  0.0785
  876MOL0    Cl18170   2.737   6.997   8.030  0.1679 -0.3500  0.0106
  876MOL0     C18171   3.913   6.882   8.003 -0.8642 -0.4937 -0.3891
  876MOL0     C18172   4.050   6.897   7.976 -0.3240 -0.4114  0.0696
  876MOL0     O18173   4.331   6.598   8.039 -0.3712  0.4066 -0.3410
  876MOL0     C18174   4.585   6.658   7.940 -0.0397  0.3531 -0.3955
  876MOL0     C18175   4.728   6.656   7.944 -0.4418  0.1620  0.0440
  876MOL0     N18176   5.278   6.634   8.441  0.7531 -0.3885  0.2445
  876MOL0     N18177   5.339   6.657   8.552  0.3747  0.7354  0.0361
  876MOL0     C18178   6.005   7.376   8.128  0.3853  0.9271  0.0727
  876MOL0     C18179   6.006   7.460   8.015  0.0171 -0.0046  0.4257
  876MOL0     C18180   5.877   7.787   7.714 -0.5191  0.1564  0.3212
  876MOL0     C18181   5.839   7.915   7.677 -0.3022  0.0285  0.0004
  876MOL0     C18182   5.885   7.986   7.568  0.4443 -0.1578 -0.4061
  876MOL0     C18183   5.989   7.924   7.490  0.3083 -0.3498  1.3186
  876MOL0     O18184   6.050   8.009   7.393 -0.2864  0.9243 -0.1510
  876MOL0     C18185   6.164   7.958   7.318  0.5812 -1.0737 -0.7896
  876MOL0     C18186   6.295   7.958   7.413  0.7968 -0.2060 -0.0172
  876MOL0     C18187   6.313   8.102   7.468  0.2995 -0.1104  0.3305
  876MOL0     C18188   6.431   8.124   7.567 -0.3327 -0.3615  0.5581
  876MOL0     C18189   6.558   8.073   7.504  0.2016  1.5880  0.8378
  876MOL0     C18190   6.658   8.044   7.459  0.3486  0.2649  0.7635
  876MOL0     C18191   6.020   7.787   7.521  0.0807  0.3970  0.2699
  876MOL0     C18192   5.972   7.725   7.632  0.1332  0.3995  0.2683
  876MOL0     H18193   5.702   7.600   8.042  1.3940  1.6196 -0.7276
  876MOL0     H18194   5.713   7.472   8.248 -0.6534 -0.1959 -1.7052
  876MOL0     H18195   6.093   7.198   8.331 -1.2881 -0.2153 -0.5411
  876MOL0     H18196   6.090   7.361   8.394 -1.6142  0.9941  0.5033
  876MOL0     H18197   6.110   7.211   8.595  1.3584 -0.7235 -0.4195
  876MOL0     H18198   5.950   7.286   8.579  1.5064 -0.2806  0.5053
  876MOL0     H18199   5.890   7.069   8.441 -1.7214  1.0855  0.7968
  876MOL0     H18200   6.047   7.020   8.511  0.4765  2.2338 -0.7193
  876MOL0     H18201   5.927   7.053   8.749 -1.1668  1.4622  0.4527
  876MOL0     H18202   5.781   7.096   8.660 -0.0709  0.3014 -1.0732
  876MOL0     H18203   5.783   6.892   8.534  1.2452  3.2176 -0.5780
  876MOL0     H18204   5.908   6.829   8.645  0.8822  1.7926 -2.5768
  876MOL0     H18205   5.785   6.795   8.828 -1.9842 -1.4984  1.8928
  876MOL0     H18206   5.675   6.922   8.802 -2.4217  0.2545 -1.4791
  876MOL0     H18207   5.681   6.686   8.606 -1.1608  1.1929 -1.7633
  876MOL0     H18208   5.614   6.671   8.762  1.0113  0.5182  0.9469
  876MOL0     H18209   5.542   6.894   8.559 -0.7484 -0.0160  0.7036
  876MOL0     H18210   5.452   6.838   8.702  0.0677  0.4702 -0.4218
  876MOL0     H18211   5.570   6.752   8.334 -1.2328  1.7395 -0.9828
  876MOL0     H18212   5.390   6.723   8.139 -0.8516  3.9285  3.1497
  876MOL0     H18213   5.377   6.547   8.167 -2.1924 -0.8236 -0.3169
  876MOL0     H18214   5.166   6.779   8.204  0.9154  1.0520 -2.0894
  876MOL0     H18215   5.136   6.602   8.210  2.5896 -2.3941 -0.1455
  876MOL0     H18216   5.210   6.598   7.958  0.1276 -0.0899  0.2521
  876MOL0     H18217   5.204   6.770   7.968  3.0850 -0.9412  0.5667
  876MOL0     H18218   4.978   6.565   8.004  1.9460  0.2845  0.3507
  876MOL0     H18219   4.994   6.692   7.870  3.1722  0.2003 -1.5148
  876MOL0     H18220   4.761   6.923   8.146 -1.3055  0.6664  0.0485
  876MOL0     H18221   4.483   7.041   8.096  0.0287  1.2097  0.8666
  876MOL0     H18222   4.423   6.917   8.216  2.3540 -0.5990  3.4336
  876MOL0     H18223   4.573   6.997   8.245 -1.8045  1.3340  0.2890
  876MOL0     H18224   4.133   6.639   8.185 -0.4014  0.4656  1.4896
  876MOL0     H18225   3.902   6.610   8.188 -1.3739 -0.3407 -2.5116
  876MOL0     H18226   3.662   6.841   7.901  0.0833  0.2721 -0.0109
  876MOL0     H18227   3.697   6.669   7.900  2.1170  0.4889 -0.7278
  876MOL0     H18228   3.460   6.741   7.875  1.8235  1.3785 -0.5957
  876MOL0     H18229   3.469   6.638   8.019 -0.2948  1.1436  2.1096
  876MOL0     H18230   3.519   6.924   8.059  0.9797 -1.3821  3.0697
  876MOL0     H18231   3.446   6.816   8.174  2.6525  0.6001  1.4288
  876MOL0     H18232   3.269   6.968   8.082 -0.4069  0.0869  0.8654
  876MOL0     H18233   3.294   6.915   7.920  2.1542  2.6721  0.8539
  876MOL0     H18234   3.215   6.724   8.149 -0.3892  0.7119  0.8790
  876MOL0     H18235   3.264   6.663   7.997 -0.1598  0.8953 -1.7972
  876MOL0     H18236   3.086   6.760   7.876  0.7846 -1.3954 -0.1792
  876MOL0     H18237   3.032   6.660   8.002  2.7619 -0.2238 -0.2987
  876MOL0     H18238   3.028   6.961   8.001 -0.5608  1.6728  1.9417
  876MOL0     H18239   2.972   6.870   8.147 -1.0782  3.0795 -0.2567
  876MOL0     H18240   2.798   6.762   8.021  2.4156 -0.0014 -0.3135
  876MOL0     H18241   2.838   6.863   7.870 -2.8274  1.1956  0.1343
  876MOL0     H18242   3.852   6.963   7.964  0.1184 -0.0062 -0.9463
  876MOL0     H18243   4.096   6.972   7.912 -1.3507  0.1038 -0.0854
  876MOL0     H18244   4.540   6.596   7.862 -1.6809  0.3882  0.4821
  876MOL0     H18245   4.780   6.589   7.876 -1.4565 -1.7334  1.0538
  876MOL0     H18246   6.092   7.314   8.146 -0.2650  0.2815  1.0710
  876MOL0     H18247   6.098   7.457   7.958  0.0289 -4.5926  0.2945
  876MOL0     H18248   5.765   7.968   7.738  0.8453  2.9385 -0.9383
  876MOL0     H18249   5.856   8.089   7.549  3.4516  1.2146  1.7537
  876MOL0     H18250   6.140   7.858   7.280  0.5445 -0.1700 -3.3400
  876MOL0     H18251   6.183   8.019   7.229 -0.6686  0.4752 -0.0391
  876MOL0     H18252   6.378   7.915   7.357  0.4413 -2.2208  0.9146
  876MOL0     H18253   6.278   7.891   7.498  2.4357 -0.9560 -0.2547
  876MOL0     H18254   6.222   8.135   7.519  0.0519  1.8091 -1.2420
  876MOL0     H18255   6.336   8.169   7.385  2.3302 -0.7441  0.3114
  876MOL0     H18256   6.410   8.057   7.651  2.2687  1.3527  2.7174
  876MOL0     H18257   6.441   8.227   7.600  1.0253 -0.9822  2.2240
  876MOL0     H18258   6.748   8.027   7.403 -1.1179  0.8440 -1.9265
  876MOL0     H18259   6.099   7.738   7.465  0.3123  0.0437  0.8994
  876MOL0     H18260   6.001   7.623   7.656 -0.0933 -0.0079 -1.1058
  877MOL0     O18261   4.307  10.417   3.530  0.3382 -0.8314 -0.4421
  877MOL0     C18262   4.382  10.474   3.447 -0.4082 -0.2501  0.3130
  877MOL0     O18263   4.337  10.529   3.334  1.0659 -0.9085 -0.0226
  877MOL0     C18264   4.202  10.555   3.317  0.5962 -0.3726  0.3537
  877MOL0     C18265   4.101  10.605   3.402 -1.1132 -0.2696  0.7521
  877MOL0     C18266   3.967  10.622   3.361 -0.3929 -0.0817 -0.2397
  877MOL0     C18267   3.934  10.600   3.229 -0.2692  0.4235 -0.6371
  877MOL0     O18268   3.800  10.619   3.192 -0.0743 -0.6772  0.2577
  877MOL0     C18269   3.750  10.571   3.066  0.2856 -0.9551 -0.5224
  877MOL0     C18270   3.606  10.627   3.064  0.1306 -1.0989 -0.2213
  877MOL0     C18271   3.517  10.593   2.945 -0.4092 -0.1450  0.4695
  877MOL0     C18272   3.414  10.702   2.923  0.2943  0.4948  0.8059
  877MOL0     C18273   3.277  10.663   2.984  0.1212  0.0954  0.0976
  877MOL0     C18274   3.171  10.768   2.964  0.6145  0.3338  0.9322
  877MOL0     C18275   3.048  10.747   3.048  0.5185  0.5094 -0.0582
  877MOL0     C18276   2.938  10.844   3.009  0.6078 -0.5649  0.4802
  877MOL0     N18277   2.816  10.829   3.081 -0.2423  0.3131  0.5614
  877MOL0     C18278   2.798  10.869   3.210 -0.0717  0.7174  1.3530
  877MOL0     C18279   2.678  10.819   3.251 -0.1565 -1.0343  1.4438
  877MOL0     C18280   2.627  10.833   3.390  0.4398 -0.1241  0.3952
  877MOL0     C18281   2.569  10.972   3.418 -0.7579 -0.2850  1.0063
  877MOL0     C18282   2.668  11.084   3.423 -0.4129 -0.8546 -0.6746
  877MOL0     C18283   2.609  11.206   3.498 -0.7106 -0.5303  0.3479
  877MOL0     O18284   2.484  11.237   3.446 -0.1947  0.0826  0.1907
  877MOL0     C18285   2.431  11.356   3.479  0.0055  0.0024 -0.0242
  877MOL0     C18286   2.300  11.370   3.439 -0.6228 -0.2797  0.4152
  877MOL0     C18287   2.219  11.475   3.483 -0.5533 -0.0177  0.6878
  877MOL0     C18288   2.066  11.474   3.451  0.2453 -0.3256  0.5008
  877MOL0     C18289   2.281  11.580   3.564  0.8798 -0.5304 -0.2988
  877MOL0     C18290   2.199  11.702   3.602  0.3157  0.8269 -0.3030
  877MOL0     O18291   2.101  11.744   3.520  0.3060 -0.2682 -0.1604
  877MOL0     C18292   2.013  11.837   3.571 -0.7970  0.7792 -0.9165
  877MOL0     C18293   2.045  11.958   3.623  0.2109  0.0758 -0.0752
  877MOL0     C18294   1.947  12.041   3.689  0.0395 -0.1089  0.8773
  877MOL0     C18295   1.811  12.000   3.683  0.1144  0.4171 -0.4693
  877MOL0     O18296   1.714  12.079   3.734 -1.0124  0.1414 -0.0114
  877MOL0     C18297   1.696  12.203   3.662 -0.5204 -0.3851  0.4151
  877MOL0     C18298   1.589  12.187   3.558  1.1122  0.6628  0.4334
  877MOL0     C18299   1.566  12.304   3.473  0.0088 -0.2612  0.0961
  877MOL0     C18300   1.467  12.265   3.370 -0.2240  0.0328  0.6287
  877MOL0     C18301   1.460  12.386   3.271  0.4114  0.5345 -0.1333
  877MOL0     C18302   1.550  12.366   3.150  0.3547 -0.9529 -0.3093
  877MOL0     C18303   1.488  12.263   3.055  0.9972  0.5577  0.9789
  877MOL0     C18304   1.610  12.190   2.986  0.6422  0.4665 -0.2170
  877MOL0    Cl18305   1.704  12.305   2.894 -0.4144  0.3997 -0.1669
  877MOL0     C18306   1.777  11.875   3.628 -0.0450 -1.0499 -0.3084
  877MOL0     C18307   1.883  11.802   3.583  0.2641  1.5740  0.3123
  877MOL0     O18308   2.234  11.746   3.708  0.5727  0.0391 -1.0307
  877MOL0     C18309   2.409  11.558   3.611 -0.0776 -0.4993  0.5266
  877MOL0     C18310   2.488  11.458   3.557 -0.4646  0.1002  0.7415
  877MOL0     N18311   2.631  10.745   3.141  0.3484 -0.8210  0.1226
  877MOL0     N18312   2.706  10.764   3.031 -0.5480  0.4798 -0.1701
  877MOL0     C18313   4.025  10.544   3.142 -0.3229 -0.6106  0.3597
  877MOL0     C18314   4.154  10.527   3.185 -0.5306 -0.5447  0.1807
  877MOL0     C18315   4.526  10.471   3.466 -0.1120  0.8388 -0.8408
  877MOL0     C18316   4.582  10.427   3.587 -0.1118  0.8374  0.3376
  877MOL0     C18317   4.718  10.416   3.605 -0.2089 -0.1833  0.1051
  877MOL0     C18318   4.811  10.463   3.505  0.8794 -0.5544  0.0165
  877MOL0     O18319   4.943  10.484   3.530  0.0462  0.3230 -0.7954
  877MOL0     C18320   5.000  10.389   3.618  0.2967 -0.2535  0.2018
  877MOL0     C18321   5.151  10.395   3.612  0.6202  0.4140  0.3803
  877MOL0     C18322   5.207  10.325   3.738 -0.5678  0.6334 -1.1436
  877MOL0     C18323   5.165  10.179   3.746  0.6866  0.2142 -0.7094
  877MOL0     C18324   5.215  10.105   3.627 -0.1572 -0.0358  0.2400
  877MOL0     C18325   5.254  10.048   3.528 -1.0994 -1.6596 -0.1680
  877MOL0     C18326   4.759  10.500   3.382 -0.1945 -0.0413  0.1036
  877MOL0     C18327   4.615  10.504   3.363 -0.1137  0.5174 -0.2142
  877MOL0     H18328   4.119  10.642   3.503 -1.8936  2.3767 -0.0010
  877MOL0     H18329   3.883  10.641   3.428 -1.4990 -1.9052 -1.0333
  877MOL0     H18330   3.822  10.614   2.996  0.8477 -1.3823 -0.2153
  877MOL0     H18331   3.749  10.462   3.053  1.9303 -0.9420 -0.9751
  877MOL0     H18332   3.553  10.584   3.149  0.9801  0.1156  0.9677
  877MOL0     H18333   3.621  10.735   3.078  1.6369 -1.6069  3.0010
  877MOL0     H18334   3.583  10.579   2.859 -2.7627 -2.2375 -1.1465
  877MOL0     H18335   3.476  10.494   2.966  3.0501 -1.4529  1.7786
  877MOL0     H18336   3.443  10.800   2.963  1.5987  0.9796 -1.1996
  877MOL0     H18337   3.389  10.720   2.818 -0.8775  1.7499  1.2613
  877MOL0     H18338   3.250  10.564   2.947  1.0663 -0.5894  1.1909
  877MOL0     H18339   3.299  10.645   3.090  0.1566 -2.0226 -0.2309
  877MOL0     H18340   3.205  10.869   2.989  0.3837  0.8879 -0.8520
  877MOL0     H18341   3.156  10.758   2.856  1.4487  3.1140  0.4912
  877MOL0     H18342   3.017  10.643   3.034  2.4482  0.0619 -1.3749
  877MOL0     H18343   3.073  10.755   3.154  4.1915  0.5647 -0.8225
  877MOL0     H18344   2.918  10.827   2.903  2.0735  0.4966 -0.0023
  877MOL0     H18345   2.976  10.946   3.019  2.1269 -1.2072  1.6584
  877MOL0     H18346   2.864  10.929   3.272  0.6914  0.4823  0.7728
  877MOL0     H18347   2.551  10.764   3.429  1.9409 -2.3630 -0.4081
  877MOL0     H18348   2.712  10.813   3.457  1.0767  0.3955 -0.2454
  877MOL0     H18349   2.534  10.960   3.521 -1.8446  1.6489  0.9161
  877MOL0     H18350   2.497  10.983   3.336 -0.0810  1.7942  0.6213
  877MOL0     H18351   2.688  11.109   3.319 -0.5891  0.9584 -0.3141
  877MOL0     H18352   2.762  11.047   3.467 -1.5411 -2.6034  0.4116
  877MOL0     H18353   2.676  11.291   3.485 -2.2238  0.5239 -0.9674
  877MOL0     H18354   2.604  11.187   3.606 -0.5250 -1.0346  0.2746
  877MOL0     H18355   2.257  11.284   3.389  2.4649 -3.1702  2.2920
  877MOL0     H18356   2.028  11.376   3.421  1.6357 -0.0926 -2.4523
  877MOL0     H18357   2.005  11.518   3.530  1.7237  2.4335  0.2622
  877MOL0     H18358   2.040  11.537   3.365 -1.6962 -2.5113 -0.6132
  877MOL0     H18359   2.149  11.990   3.623  0.8375 -1.4108 -3.9953
  877MOL0     H18360   1.959  12.141   3.731  0.4319  0.5953 -0.8431
  877MOL0     H18361   1.653  12.268   3.739 -0.9214 -0.3072  0.1322
  877MOL0     H18362   1.787  12.251   3.625 -1.7437  1.8311  0.1066
  877MOL0     H18363   1.612  12.103   3.493  1.8310 -0.8782  2.5598
  877MOL0     H18364   1.503  12.153   3.616  3.3294  0.0664  3.6747
  877MOL0     H18365   1.658  12.327   3.418 -0.0400 -0.9249 -0.2675
  877MOL0     H18366   1.534  12.392   3.531 -1.0253 -0.2897 -0.4010
  877MOL0     H18367   1.504  12.179   3.314 -0.9892  0.5498 -0.7429
  877MOL0     H18368   1.375  12.230   3.419  0.9925 -1.9579  1.6328
  877MOL0     H18369   1.484  12.479   3.324 -0.5261 -0.8826  2.9784
  877MOL0     H18370   1.354  12.395   3.243  0.2129 -0.1367  0.3594
  877MOL0     H18371   1.573  12.463   3.106  2.5425 -1.3469 -0.1436
  877MOL0     H18372   1.642  12.319   3.188 -0.5169 -3.7240 -1.3508
  877MOL0     H18373   1.426  12.313   2.981 -1.0909 -2.5535  0.4592
  877MOL0     H18374   1.414  12.202   3.107  1.7009 -0.1101  1.2222
  877MOL0     H18375   1.567  12.119   2.916  2.5492 -0.5385 -0.4338
  877MOL0     H18376   1.675  12.149   3.064 -2.8001 -3.9922  0.7122
  877MOL0     H18377   1.673  11.843   3.635 -0.5906  0.1345 -2.1032
  877MOL0     H18378   1.853  11.704   3.545  0.8293  0.8797  1.5954
  877MOL0     H18379   2.453  11.634   3.675 -0.2419  0.6975 -0.7080
  877MOL0     H18380   2.592  11.458   3.589 -0.1571 -1.6081 -0.1732
  877MOL0     H18381   4.000  10.516   3.041 -1.8863  1.9447 -0.0300
  877MOL0     H18382   4.222  10.488   3.110 -1.0282 -1.3882  0.1471
  877MOL0     H18383   4.530  10.402   3.679 -0.1654 -1.0674 -0.1578
  877MOL0     H18384   4.746  10.384   3.705  0.5599 -0.8862 -0.3254
  877MOL0     H18385   4.965  10.426   3.714 -0.5374  0.3538 -0.3219
  877MOL0     H18386   4.963  10.288   3.600  0.3064 -1.0245  3.7659
  877MOL0     H18387   5.197  10.494   3.606 -0.7489  1.0721  0.4076
  877MOL0     H18388   5.176  10.339   3.521 -1.3192 -2.1634  1.3083
  877MOL0     H18389   5.187  10.379   3.831  1.1145  1.0114 -0.9799
  877MOL0     H18390   5.316  10.322   3.733 -0.5327 -3.5703 -1.2631
  877MOL0     H18391   5.056  10.182   3.755  0.7636 -0.0616  0.4684
  877MOL0     H18392   5.202  10.139   3.841  0.1688 -0.2906 -0.7182
  877MOL0     H18393   5.267   9.996   3.435 -3.8773 -2.1805 -0.3497
  877MOL0     H18394   4.825  10.537   3.304 -1.7374  2.3943 -0.1390
  877MOL0     H18395   4.577  10.537   3.267 -2.4169 -3.0568 -0.7470
  878MOL0     O18396  10.138  10.891   2.392 -0.0933 -0.1064 -0.2724
  878MOL0     C18397  10.124  11.016   2.384 -0.8244  0.7024  0.0137
  878MOL0     O18398  10.017  11.073   2.329 -0.2889  0.0196  0.0758
  878MOL0     C18399   9.921  11.000   2.266 -0.7069 -1.0108  0.9063
  878MOL0     C18400   9.937  11.002   2.121 -0.3017  0.4730  0.2247
  878MOL0     C18401   9.848  10.920   2.048  0.9746 -0.2142  0.1248
  878MOL0     C18402   9.753  10.839   2.111  0.3371  0.0774 -0.3200
  878MOL0     O18403   9.653  10.761   2.052 -0.4143 -0.2477  0.6980
  878MOL0     C18404   9.616  10.792   1.914  0.6354  0.1769  0.0818
  878MOL0     C18405   9.535  10.923   1.906  0.3045 -0.0164  0.0032
  878MOL0     C18406   9.398  10.915   1.977 -0.0909 -0.7597 -0.1025
  878MOL0     C18407   9.338  11.056   1.971 -1.2369 -0.6726  0.1891
  878MOL0     C18408   9.215  11.087   2.061 -0.4073  0.0494  0.3532
  878MOL0     C18409   9.094  11.008   2.018  0.7217  0.0672  0.6860
  878MOL0     C18410   8.967  11.058   2.095 -0.1271 -0.4074 -0.2558
  878MOL0     C18411   8.842  10.995   2.046  0.1748  0.9175  0.5304
  878MOL0     N18412   8.733  11.026   2.137  0.2546  0.4151 -0.7091
  878MOL0     C18413   8.649  11.137   2.141 -1.0168  0.0037  0.3946
  878MOL0     C18414   8.569  11.109   2.248 -0.4992 -0.3464  0.0978
  878MOL0     C18415   8.452  11.197   2.263  0.5430  1.0000  0.6338
  878MOL0     C18416   8.406  11.186   2.413 -0.4322  0.5367  0.9786
  878MOL0     C18417   8.297  11.288   2.426  0.0294  0.2237 -0.0992
  878MOL0     C18418   8.154  11.240   2.402  0.3291  0.4599  0.0410
  878MOL0     O18419   8.070  11.350   2.363  0.5479  0.0271  0.2836
  878MOL0     C18420   7.930  11.337   2.366  0.0532  0.9584  0.3250
  878MOL0     C18421   7.861  11.222   2.401  0.3190  1.3299  0.8423
  878MOL0     C18422   7.719  11.218   2.404  0.0742  0.0193  0.2564
  878MOL0     C18423   7.664  11.078   2.428  0.4606  0.6434  0.1499
  878MOL0     C18424   7.636  11.332   2.361 -0.2272 -0.4577  0.2317
  878MOL0     C18425   7.488  11.334   2.373  0.1967  0.2150  0.1496
  878MOL0     O18426   7.425  11.405   2.277  0.1448 -0.4378  0.0405
  878MOL0     C18427   7.287  11.405   2.264 -0.2058  0.0929 -0.2794
  878MOL0     C18428   7.233  11.524   2.222 -0.0108  0.3621 -0.0767
  878MOL0     C18429   7.093  11.545   2.221 -0.4242  0.0953  0.6650
  878MOL0     C18430   7.006  11.438   2.258 -0.7212 -0.4956 -0.2479
  878MOL0     O18431   6.864  11.449   2.265 -0.4850 -0.9235 -0.1981
  878MOL0     C18432   6.807  11.516   2.147  0.0734  0.1378 -0.2355
  878MOL0     C18433   6.657  11.487   2.134  0.3332  0.3611 -0.4903
  878MOL0     C18434   6.627  11.335   2.145  0.9970  0.4030 -0.1918
  878MOL0     C18435   6.482  11.295   2.120 -0.0474  0.3063  0.2241
  878MOL0     C18436   6.476  11.144   2.102  0.3533  1.0223  0.3850
  878MOL0     C18437   6.332  11.091   2.135 -1.0563  0.0144 -0.0732
  878MOL0     C18438   6.221  11.118   2.026  0.3620  0.2558 -0.1781
  878MOL0     C18439   6.087  11.056   2.072 -0.4999  0.1280  0.1871
  878MOL0    Cl18440   6.073  10.890   2.006  0.4299  0.2114  0.0324
  878MOL0     C18441   7.063  11.320   2.295  0.2953  0.9491 -0.7290
  878MOL0     C18442   7.199  11.299   2.289 -0.0009 -0.0538  0.2903
  878MOL0     O18443   7.432  11.278   2.476 -0.0121 -0.6263 -0.1306
  878MOL0     C18444   7.712  11.443   2.314 -0.2003  0.4189 -0.1104
  878MOL0     C18445   7.851  11.448   2.331  0.3359  0.5370 -0.6914
  878MOL0     N18446   8.605  10.986   2.313  0.4720 -0.2930  0.7691
  878MOL0     N18447   8.697  10.943   2.242  0.7954  0.3620  0.2233
  878MOL0     C18448   9.750  10.837   2.250  0.2571 -0.2653  0.4567
  878MOL0     C18449   9.829  10.913   2.329  0.6513 -0.1773 -0.1265
  878MOL0     C18450  10.224  11.106   2.448  0.2444 -0.2153 -0.5440
  878MOL0     C18451  10.190  11.241   2.480  0.3726 -0.5718  0.2573
  878MOL0     C18452  10.274  11.320   2.550 -0.1880  0.6429 -0.4655
  878MOL0     C18453  10.399  11.278   2.580 -0.6673 -0.7818 -0.1744
  878MOL0     O18454  10.484  11.370   2.646 -0.0904  0.1757  0.6697
  878MOL0     C18455  10.585  11.329   2.737 -0.9076  0.1794 -0.1385
  878MOL0     C18456  10.719  11.305   2.666  0.0514  0.1730  0.2888
  878MOL0     C18457  10.787  11.429   2.615  0.6773  0.8776  0.2279
  878MOL0     C18458  10.899  11.411   2.506 -0.6505 -0.4496 -0.4703
  878MOL0     C18459  10.928  11.543   2.457 -0.3999  0.1820  0.1698
  878MOL0     C18460  10.950  11.651   2.405 -0.3557 -0.1138  0.2930
  878MOL0     C18461  10.438  11.148   2.554 -0.7951  0.1941  0.9995
  878MOL0     C18462  10.354  11.058   2.493  0.2360  0.1319  0.4027
  878MOL0     H18463  10.013  11.061   2.072  2.5601 -2.5296  0.6930
  878MOL0     H18464   9.855  10.933   1.940  3.0337  1.7822  0.4105
  878MOL0     H18465   9.705  10.806   1.852 -0.1722 -0.9948 -1.4033
  878MOL0     H18466   9.566  10.708   1.865  1.0321 -0.7816  1.2696
  878MOL0     H18467   9.590  11.000   1.960  0.1500  0.7541 -0.9123
  878MOL0     H18468   9.528  10.952   1.800  0.9693  0.1701  0.0027
  878MOL0     H18469   9.334  10.848   1.920  3.0351 -2.8775 -1.4428
  878MOL0     H18470   9.409  10.886   2.082 -3.0298  1.4467  0.9528
  878MOL0     H18471   9.420  11.125   1.996 -2.3320  0.4295  0.8648
  878MOL0     H18472   9.310  11.079   1.868  2.1213  1.2195 -0.4659
  878MOL0     H18473   9.233  11.069   2.167 -0.1545 -0.6478  0.1941
  878MOL0     H18474   9.193  11.194   2.052  0.7809  0.4791  2.1580
  878MOL0     H18475   9.072  11.019   1.911  1.8152  0.4563  0.4846
  878MOL0     H18476   9.107  10.899   2.025  0.5822 -0.0012  0.0034
  878MOL0     H18477   8.989  11.031   2.199  3.5642  0.0118 -0.8126
  878MOL0     H18478   8.965  11.165   2.075  1.2675 -0.3971 -0.4054
  878MOL0     H18479   8.840  10.886   2.036 -3.4514  0.9332 -0.5015
  878MOL0     H18480   8.829  11.037   1.946  1.6221 -1.1636 -0.6061
  878MOL0     H18481   8.635  11.221   2.074 -4.3764 -1.2771 -0.7592
  878MOL0     H18482   8.477  11.300   2.237 -1.5116  0.9435 -1.9282
  878MOL0     H18483   8.378  11.160   2.192 -0.5992  3.7566  0.2745
  878MOL0     H18484   8.491  11.213   2.476 -0.9321  0.2687  1.7852
  878MOL0     H18485   8.360  11.093   2.447 -2.2734  1.4786  1.1957
  878MOL0     H18486   8.312  11.369   2.354 -1.6780 -1.1743 -2.1726
  878MOL0     H18487   8.303  11.340   2.522 -1.1426  1.3926 -0.6379
  878MOL0     H18488   8.117  11.190   2.492  1.1056 -0.8946 -0.3709
  878MOL0     H18489   8.150  11.162   2.326 -0.1171  1.0765 -0.5796
  878MOL0     H18490   7.918  11.133   2.425 -0.1829  1.1810  1.5516
  878MOL0     H18491   7.556  11.068   2.416  0.4286 -1.1383  1.4652
  878MOL0     H18492   7.715  11.005   2.363  0.5404 -1.4829  2.4482
  878MOL0     H18493   7.689  11.046   2.530  0.2460 -1.1141 -0.3077
  878MOL0     H18494   7.292  11.611   2.192 -3.4518  2.5142 -1.1555
  878MOL0     H18495   7.042  11.638   2.197  0.4610  0.4909  0.2623
  878MOL0     H18496   6.811  11.624   2.166  2.0546 -0.1786  1.5300
  878MOL0     H18497   6.863  11.486   2.058  1.4358 -0.2532  0.7163
  878MOL0     H18498   6.596  11.534   2.212 -0.1541  0.7149 -1.0758
  878MOL0     H18499   6.618  11.519   2.037 -2.6048  1.9886  1.0624
  878MOL0     H18500   6.664  11.289   2.237  0.1666  0.0008 -0.0517
  878MOL0     H18501   6.681  11.288   2.062  0.5045  0.7032 -0.6813
  878MOL0     H18502   6.412  11.328   2.198 -1.5603 -3.7797  0.8537
  878MOL0     H18503   6.444  11.342   2.029  1.3897  1.6105  0.2503
  878MOL0     H18504   6.549  11.091   2.163  4.0452 -0.2108 -4.4979
  878MOL0     H18505   6.507  11.121   2.000  1.9743 -0.1466  1.1032
  878MOL0     H18506   6.337  10.983   2.152 -1.2628 -0.3604 -2.1113
  878MOL0     H18507   6.299  11.135   2.229 -2.2119 -1.7600  0.4051
  878MOL0     H18508   6.258  11.082   1.929  0.3684  0.9955 -0.4561
  878MOL0     H18509   6.197  11.225   2.029  3.2853  1.0075 -0.7468
  878MOL0     H18510   6.011  11.110   2.014 -2.0254 -2.0663  0.0364
  878MOL0     H18511   6.074  11.060   2.180  0.8133  3.5093  0.3590
  878MOL0     H18512   7.003  11.234   2.322 -0.4748  1.5544 -0.4482
  878MOL0     H18513   7.229  11.206   2.334  2.3631  0.4044 -0.2063
  878MOL0     H18514   7.665  11.536   2.285 -2.8248 -0.6937  0.2872
  878MOL0     H18515   7.902  11.535   2.292 -1.1858  0.8322 -2.1547
  878MOL0     H18516   9.688  10.769   2.308  0.7647  0.2554  1.6239
  878MOL0     H18517   9.816  10.914   2.437  0.7385 -3.5132  0.0263
  878MOL0     H18518  10.097  11.284   2.442  1.3072  1.0383 -0.2988
  878MOL0     H18519  10.254  11.424   2.572  1.2236  0.5679  1.4059
  878MOL0     H18520  10.600  11.409   2.809  1.0584  0.3149 -0.6376
  878MOL0     H18521  10.559  11.236   2.789 -1.9445  1.7177  2.2484
  878MOL0     H18522  10.697  11.250   2.574  0.6710  1.6779 -0.8060
  878MOL0     H18523  10.788  11.249   2.729  0.3775  0.3258  0.0719
  878MOL0     H18524  10.829  11.473   2.707 -0.1014  0.2971  0.8781
  878MOL0     H18525  10.714  11.505   2.588 -1.1620  1.3426  5.2801
  878MOL0     H18526  10.875  11.337   2.428  0.9397 -2.0240  0.4569
  878MOL0     H18527  10.997  11.381   2.543 -0.6654 -0.9978 -0.8581
  878MOL0     H18528  10.980  11.743   2.358 -0.6408  1.0078  2.1608
  878MOL0     H18529  10.540  11.116   2.572  0.0184  2.9603  1.8074
  878MOL0     H18530  10.382  10.956   2.466 -0.4806  0.2167 -0.7395
  879MOL0     O18531   1.803   9.935  10.276 -0.5128 -0.6627  0.2318
  879MOL0     C18532   1.895   9.916  10.196 -0.2457  0.5994  0.0740
  879MOL0     O18533   1.874   9.864  10.066 -1.0232  0.7572 -0.2394
  879MOL0     C18534   1.759   9.904  10.006  0.9981 -1.0592 -0.0377
  879MOL0     C18535   1.637   9.854  10.049  0.1887  0.4718  0.2985
  879MOL0     C18536   1.525   9.871   9.980 -0.3790 -0.7288  0.1328
  879MOL0     C18537   1.526   9.947   9.863  0.2568  0.6134  0.5233
  879MOL0     O18538   1.405   9.966   9.803 -0.1066  0.3770  0.3539
  879MOL0     C18539   1.385  10.069   9.703  0.8120 -0.5258  0.5260
  879MOL0     C18540   1.242  10.079   9.653  0.2177 -0.5057 -0.3812
  879MOL0     C18541   1.203  10.225   9.622  0.4836 -0.7313  0.6287
  879MOL0     C18542   1.071  10.237   9.556  0.7852 -0.2842  0.1499
  879MOL0     C18543   1.022  10.378   9.518 -0.1494  0.3603  0.1187
  879MOL0     C18544   0.871  10.384   9.473 -0.7039  1.0577 -0.2743
  879MOL0     C18545   0.822  10.275   9.384  0.1060 -0.5203 -0.7315
  879MOL0     C18546   0.890  10.299   9.249  0.6574  0.1946  0.4375
  879MOL0     N18547   0.849  10.204   9.143  0.3652  0.1394  0.3744
  879MOL0     C18548   0.731  10.221   9.077 -0.3291  0.2661  0.9667
  879MOL0     C18549   0.730  10.116   8.982  0.5881 -0.8401 -0.3958
  879MOL0     C18550   0.616  10.075   8.889  0.6165  1.0694 -0.1932
  879MOL0     C18551   0.609   9.927   8.876  0.7061 -0.3457 -0.0186
  879MOL0     C18552   0.506   9.892   8.769  0.0436 -0.0118  0.1058
  879MOL0     C18553   0.366   9.877   8.819 -1.0415  0.0021  0.4785
  879MOL0     O18554   0.372   9.810   8.948 -0.0603 -0.4640  0.8894
  879MOL0     C18555   0.250   9.772   8.990 -0.5852  1.0512  0.6247
  879MOL0     C18556   0.206   9.639   8.953 -0.5501 -1.1461  0.2368
  879MOL0     C18557   0.067   9.606   8.999 -0.0803 -0.6038 -0.4055
  879MOL0     C18558   0.000   9.479   8.946  0.5166 -0.7681 -0.3522
  879MOL0     C18559  -0.007   9.688   9.087 -0.7454 -0.1173 -0.4416
  879MOL0     C18560  -0.137   9.646   9.154 -0.1789  0.1339  0.5049
  879MOL0     O18561  -0.204   9.739   9.229  0.3650 -0.4021  0.0498
  879MOL0     C18562  -0.321   9.705   9.279 -0.0974 -0.8876 -1.4207
  879MOL0     C18563  -0.320   9.632   9.402 -0.2432 -0.6820  0.1645
  879MOL0     C18564  -0.442   9.596   9.459  1.0988 -0.8707  0.2363
  879MOL0     C18565  -0.562   9.655   9.413  0.6816 -0.2591  0.4656
  879MOL0     O18566  -0.685   9.644   9.482  0.8837  0.0069  0.1867
  879MOL0     C18567  -0.749   9.515   9.491  0.6286 -0.9494 -0.5164
  879MOL0     C18568  -0.897   9.539   9.470 -0.7628  0.1499  0.2533
  879MOL0     C18569  -0.970   9.406   9.466 -0.2866  0.7393 -0.0406
  879MOL0     C18570  -1.123   9.431   9.469 -0.0580 -1.2328  0.2113
  879MOL0     C18571  -1.207   9.307   9.453 -0.2243  0.9171 -0.6116
  879MOL0     C18572  -1.352   9.336   9.412 -0.0085 -0.5187  0.0404
  879MOL0     C18573  -1.419   9.439   9.503 -0.4170 -0.1698  0.6177
  879MOL0     C18574  -1.441   9.384   9.640  0.1456  0.1701  0.1412
  879MOL0    Cl18575  -1.514   9.221   9.636 -0.3831  0.5074  0.2978
  879MOL0     C18576  -0.550   9.742   9.300 -0.3138  0.5987 -0.0069
  879MOL0     C18577  -0.435   9.758   9.226  0.1227 -0.2241 -0.7288
  879MOL0     O18578  -0.171   9.527   9.160  0.0555  0.5229  0.2005
  879MOL0     C18579   0.056   9.805   9.123 -0.0365 -0.3491  0.9091
  879MOL0     C18580   0.177   9.849   9.073 -0.1926  0.0560 -0.2860
  879MOL0     N18581   0.849  10.055   8.984 -0.1020  0.2794  0.4512
  879MOL0     N18582   0.914  10.096   9.086 -1.0438 -0.8309  0.3052
  879MOL0     C18583   1.649  10.005   9.825  0.7004  0.2519  0.4794
  879MOL0     C18584   1.762   9.985   9.889 -0.3836  0.3428 -0.4811
  879MOL0     C18585   2.030   9.950  10.242  0.3653 -0.2651  0.1414
  879MOL0     C18586   2.050  10.036  10.352  0.2161 -0.5021 -0.0621
  879MOL0     C18587   2.171  10.062  10.403 -0.1923  0.2050  0.5571
  879MOL0     C18588   2.288  10.019  10.331 -0.6791  0.8150  0.4623
  879MOL0     O18589   2.408  10.058  10.381 -0.4776  0.1497  0.5497
  879MOL0     C18590   2.529  10.035  10.320 -0.3232  0.2215 -0.2542
  879MOL0     C18591   2.605   9.904  10.379 -0.4910  0.4304 -0.3536
  879MOL0     C18592   2.553   9.760  10.360 -0.2315  0.4710 -0.4759
  879MOL0     C18593   2.631   9.655  10.439 -0.0827  0.2091 -0.4730
  879MOL0     C18594   2.587   9.658  10.576  1.5131 -0.0612 -0.4933
  879MOL0     C18595   2.558   9.644  10.694  1.2358 -0.4250 -0.4923
  879MOL0     C18596   2.274   9.922  10.228  0.4731  0.0636 -1.0014
  879MOL0     C18597   2.142   9.877  10.197 -0.5330 -0.2413  0.1150
  879MOL0     H18598   1.635   9.775  10.123  1.0470  0.2203  0.0702
  879MOL0     H18599   1.430   9.829  10.012  0.1652 -0.6310  1.9530
  879MOL0     H18600   1.410  10.168   9.741  0.3868 -0.2954  0.2018
  879MOL0     H18601   1.447  10.056   9.614  3.5264  0.3069  2.1766
  879MOL0     H18602   1.240  10.024   9.559 -0.2774 -0.8481 -0.1767
  879MOL0     H18603   1.172  10.039   9.727  0.6567 -3.3919 -1.3860
  879MOL0     H18604   1.204  10.283   9.715 -1.5200  1.6395 -0.7021
  879MOL0     H18605   1.277  10.265   9.551 -1.0883 -1.4009 -1.4870
  879MOL0     H18606   1.069  10.174   9.467  1.7863  0.0897 -0.1514
  879MOL0     H18607   0.994  10.207   9.627 -2.5032  2.9868 -1.6663
  879MOL0     H18608   1.028  10.447   9.603 -1.5432 -0.2194  0.7171
  879MOL0     H18609   1.073  10.422   9.432 -0.4818 -0.4225 -0.4918
  879MOL0     H18610   0.810  10.379   9.563  0.3837  1.1354  0.4935
  879MOL0     H18611   0.844  10.483   9.437  0.2976  1.6721  0.5879
  879MOL0     H18612   0.849  10.177   9.424 -2.3528 -1.9455 -2.2665
  879MOL0     H18613   0.713  10.269   9.371  0.3530 -1.2928 -2.8983
  879MOL0     H18614   0.995  10.286   9.274  0.3301 -0.5056  1.5201
  879MOL0     H18615   0.882  10.400   9.207  1.9645  0.5787  1.0660
  879MOL0     H18616   0.650  10.292   9.089 -1.8438 -1.3832  0.9884
  879MOL0     H18617   0.516  10.107   8.919 -0.0253  1.2237 -2.2959
  879MOL0     H18618   0.624  10.122   8.790  2.5360  1.2096  0.0011
  879MOL0     H18619   0.585   9.888   8.975 -0.0921  0.4250  0.0982
  879MOL0     H18620   0.705   9.882   8.849  0.3363 -1.5343  0.5877
  879MOL0     H18621   0.534   9.798   8.720  0.4862  0.4413 -0.5248
  879MOL0     H18622   0.515   9.966   8.689  1.5072 -0.2308  0.0369
  879MOL0     H18623   0.306   9.825   8.744 -0.0555  2.0179 -1.8034
  879MOL0     H18624   0.320   9.976   8.831  2.0357  1.4039  1.6376
  879MOL0     H18625   0.275   9.581   8.892  0.6458  0.7184 -0.2513
  879MOL0     H18626   0.057   9.441   8.861 -2.4720 -0.8078 -2.4875
  879MOL0     H18627  -0.009   9.401   9.022 -1.4250 -0.1773  0.0889
  879MOL0     H18628  -0.092   9.501   8.892  0.7131  0.8658 -0.0880
  879MOL0     H18629  -0.221   9.613   9.442  0.0741  1.7285  0.6564
  879MOL0     H18630  -0.436   9.541   9.553  0.0690  1.3604  1.7009
  879MOL0     H18631  -0.714   9.446   9.413 -0.7468 -2.1856 -0.0832
  879MOL0     H18632  -0.733   9.467   9.588  1.5883 -0.2969 -0.3395
  879MOL0     H18633  -0.936   9.593   9.557  1.9726 -0.5259  2.0154
  879MOL0     H18634  -0.918   9.588   9.375 -0.3216 -0.0358  0.0563
  879MOL0     H18635  -0.936   9.338   9.545  0.8988  1.0832 -0.2351
  879MOL0     H18636  -0.954   9.362   9.367  0.6171  2.6548 -0.8022
  879MOL0     H18637  -1.155   9.484   9.559 -0.6195  0.1967 -0.8005
  879MOL0     H18638  -1.148   9.489   9.380 -0.4461 -0.9587  0.4999
  879MOL0     H18639  -1.214   9.257   9.551  1.7830  1.4926 -0.1298
  879MOL0     H18640  -1.164   9.231   9.388  0.7279  1.0878 -0.2004
  879MOL0     H18641  -1.347   9.382   9.313  1.1679 -2.0980 -0.6870
  879MOL0     H18642  -1.403   9.240   9.396 -1.1518  0.0549  0.1263
  879MOL0     H18643  -1.517   9.474   9.468 -0.1689 -0.1298 -0.0419
  879MOL0     H18644  -1.365   9.534   9.503 -0.4674 -0.1372  0.9832
  879MOL0     H18645  -1.510   9.442   9.702  0.9040  2.5632 -1.1252
  879MOL0     H18646  -1.352   9.388   9.703 -0.3520  0.8133  0.8196
  879MOL0     H18647  -0.637   9.801   9.274  0.0481  0.1632 -2.4205
  879MOL0     H18648  -0.420   9.831   9.147  0.8916  0.8394  0.3587
  879MOL0     H18649  -0.001   9.860   9.198 -1.7129 -2.7222  1.4974
  879MOL0     H18650   0.225   9.944   9.095  0.6529 -0.6121  0.8662
  879MOL0     H18651   1.646  10.088   9.755 -1.1759 -2.2370 -2.6346
  879MOL0     H18652   1.859  10.026   9.862 -0.4439  0.5487 -0.3796
  879MOL0     H18653   1.961  10.078  10.398 -0.9708 -2.9418  0.0007
  879MOL0     H18654   2.179  10.117  10.496  0.3514  0.8801  0.1171
  879MOL0     H18655   2.524  10.028  10.211 -0.7462  0.4134 -0.2458
  879MOL0     H18656   2.591  10.119  10.352  0.8683 -1.0846  1.0313
  879MOL0     H18657   2.590   9.921  10.487 -2.1662 -0.2025 -0.4611
  879MOL0     H18658   2.711   9.908  10.352 -0.1268 -1.7927  0.5767
  879MOL0     H18659   2.533   9.726  10.258 -2.0993  0.4726 -0.1303
  879MOL0     H18660   2.456   9.763  10.411 -0.1411 -2.1812  0.0189
  879MOL0     H18661   2.739   9.669  10.436 -0.0326  0.6042  1.5199
  879MOL0     H18662   2.602   9.560  10.393  0.0366 -0.7140  1.2615
  879MOL0     H18663   2.509   9.641  10.790 -0.4223 -0.6530 -1.3003
  879MOL0     H18664   2.358   9.885  10.170 -0.4613 -0.4858 -2.0419
  879MOL0     H18665   2.135   9.801  10.120  2.3650 -0.6140  0.1212
  880MOL0     O18666   3.922  11.151   0.013  0.3374  0.3016  0.0727
  880MOL0     C18667   3.952  11.264  -0.010 -0.7297 -0.5599 -0.5115
  880MOL0     O18668   3.887  11.378   0.029  0.2128 -0.4450 -0.0192
  880MOL0     C18669   3.773  11.373   0.102  0.2467  0.4696  0.2677
  880MOL0     C18670   3.788  11.394   0.236 -0.2745 -0.0823  1.1882
  880MOL0     C18671   3.684  11.384   0.323  0.2528 -0.0002  1.2043
  880MOL0     C18672   3.556  11.348   0.276  0.2428 -0.8774  0.4848
  880MOL0     O18673   3.438  11.334   0.359  0.3280  0.5334  0.6873
  880MOL0     C18674   3.463  11.314   0.501  0.6444 -0.0124  0.6797
  880MOL0     C18675   3.341  11.257   0.573  0.2182 -0.3305  0.6016
  880MOL0     C18676   3.212  11.318   0.545 -0.4261 -0.3478 -0.1845
  880MOL0     C18677   3.130  11.284   0.664 -0.2492  0.6280 -0.3801
  880MOL0     C18678   2.981  11.315   0.642 -0.1707  0.0840  0.0189
  880MOL0     C18679   2.897  11.245   0.734  0.0154 -0.5828 -0.8339
  880MOL0     C18680   2.753  11.284   0.701  0.2803 -0.6570  0.2630
  880MOL0     C18681   2.661  11.202   0.786  0.3843  1.4250  0.0402
  880MOL0     N18682   2.515  11.208   0.737  0.4389 -0.0747  0.0619
  880MOL0     C18683   2.473  11.156   0.611 -0.2646 -0.3826 -0.0524
  880MOL0     C18684   2.335  11.165   0.611 -0.2806  0.2022 -0.1552
  880MOL0     C18685   2.250  11.114   0.502 -0.0642 -0.2589  0.6961
  880MOL0     C18686   2.235  11.236   0.408 -0.4528 -0.1357 -0.3248
  880MOL0     C18687   2.149  11.341   0.463  0.7248  0.2438 -0.9483
  880MOL0     C18688   2.112  11.448   0.362  0.3132 -0.1448  0.6956
  880MOL0     O18689   2.013  11.391   0.275  0.8121  0.0875 -0.4714
  880MOL0     C18690   1.901  11.468   0.277  0.6523  1.1098  0.8741
  880MOL0     C18691   1.808  11.451   0.385  0.1005  0.1862 -0.4478
  880MOL0     C18692   1.689  11.523   0.399  0.2335 -0.8970  0.1212
  880MOL0     C18693   1.602  11.492   0.521  0.3251  0.1789 -0.1085
  880MOL0     C18694   1.662  11.607   0.286  0.1458 -0.4215 -0.4536
  880MOL0     C18695   1.533  11.681   0.281  0.3947 -0.5349  0.3589
  880MOL0     O18696   1.433  11.661   0.376 -0.2991 -0.0062 -0.1676
  880MOL0     C18697   1.310  11.635   0.320  0.2425 -0.0221  0.4361
  880MOL0     C18698   1.254  11.509   0.283 -0.4146 -0.7130  0.3266
  880MOL0     C18699   1.124  11.497   0.224 -1.2033 -0.8575  0.1240
  880MOL0     C18700   1.047  11.614   0.202  0.0830 -0.3680  0.2022
  880MOL0     O18701   0.926  11.584   0.149  0.2420  0.1542  0.9054
  880MOL0     C18702   0.838  11.691   0.120 -0.1369 -0.6682  0.3489
  880MOL0     C18703   0.747  11.636   0.021  0.8865  0.0694  0.7402
  880MOL0     C18704   0.810  11.583  -0.114  0.3478 -0.5218 -0.1875
  880MOL0     C18705   0.708  11.570  -0.222 -0.6526 -0.7321 -0.7584
  880MOL0     C18706   0.602  11.467  -0.183  0.8680  0.3284 -0.0247
  880MOL0     C18707   0.502  11.420  -0.299 -0.0523  0.0184  0.2418
  880MOL0     C18708   0.407  11.319  -0.236  0.0063 -0.9616 -0.0283
  880MOL0     C18709   0.304  11.269  -0.340  0.9236 -0.3051  0.1680
  880MOL0    Cl18710   0.188  11.402  -0.361 -0.1469 -0.0742 -0.1493
  880MOL0     C18711   1.103  11.737   0.240  0.1439 -0.0367  0.0937
  880MOL0     C18712   1.236  11.751   0.293  0.4996  0.2921 -0.7589
  880MOL0     O18713   1.514  11.753   0.185  0.1389 -0.2001  0.0319
  880MOL0     C18714   1.754  11.628   0.184 -0.1195  0.3671 -0.3568
  880MOL0     C18715   1.872  11.553   0.176 -0.3571 -0.3518  0.4561
  880MOL0     N18716   2.300  11.235   0.726  0.6856  0.3284  0.2182
  880MOL0     N18717   2.405  11.255   0.804 -0.3474  0.2253  0.3327
  880MOL0     C18718   3.539  11.344   0.133  0.6411 -0.7809 -0.4117
  880MOL0     C18719   3.643  11.344   0.040  1.0018 -0.3711 -1.0789
  880MOL0     C18720   4.065  11.288  -0.097  0.2477  0.5840  0.9069
  880MOL0     C18721   4.174  11.201  -0.100  0.1517  1.2823  0.6042
  880MOL0     C18722   4.287  11.233  -0.172 -0.0490 -0.3920 -0.4048
  880MOL0     C18723   4.301  11.351  -0.245  0.2626  0.0769 -0.8567
  880MOL0     O18724   4.421  11.368  -0.314 -0.0388 -0.1197  0.1970
  880MOL0     C18725   4.431  11.462  -0.425  0.0171 -0.0514 -0.1179
  880MOL0     C18726   4.552  11.413  -0.511  0.3180 -0.8118 -0.8948
  880MOL0     C18727   4.505  11.288  -0.580  0.5143  0.0493  0.2640
  880MOL0     C18728   4.388  11.305  -0.687 -0.7982  0.1425  0.2420
  880MOL0     C18729   4.416  11.402  -0.795  0.2691  0.3247 -0.5134
  880MOL0     C18730   4.449  11.475  -0.883  0.5830  0.2171  0.4706
  880MOL0     C18731   4.192  11.442  -0.242 -0.2858 -0.2366 -1.1137
  880MOL0     C18732   4.083  11.411  -0.163  0.7115 -0.5495  0.2662
  880MOL0     H18733   3.881  11.436   0.273 -0.3057  0.6929  0.4029
  880MOL0     H18734   3.687  11.411   0.428 -4.4252  3.5424  0.7559
  880MOL0     H18735   3.534  11.236   0.532  1.9420  1.6479  2.0893
  880MOL0     H18736   3.498  11.409   0.543  1.7742  0.4518 -1.1937
  880MOL0     H18737   3.335  11.151   0.546  1.3773  0.1514 -1.8671
  880MOL0     H18738   3.364  11.279   0.677 -0.0841  2.8982  0.0700
  880MOL0     H18739   3.223  11.424   0.521  2.5131 -0.5506 -0.0165
  880MOL0     H18740   3.173  11.270   0.455  4.0113 -0.5884 -2.1961
  880MOL0     H18741   3.137  11.177   0.687  2.0899  0.0869 -3.0967
  880MOL0     H18742   3.175  11.335   0.749  0.0001 -0.8627  0.4317
  880MOL0     H18743   2.975  11.424   0.649  1.6064  0.2994 -1.1317
  880MOL0     H18744   2.957  11.289   0.538 -2.5607  2.1701 -0.0411
  880MOL0     H18745   2.912  11.137   0.726 -0.5134 -0.9254  1.9979
  880MOL0     H18746   2.914  11.275   0.838 -4.0057  2.3402 -0.7783
  880MOL0     H18747   2.718  11.386   0.719 -0.5253 -0.8234 -0.2921
  880MOL0     H18748   2.732  11.262   0.596  1.4388 -0.8054  0.0512
  880MOL0     H18749   2.664  11.244   0.887  1.6212  1.1722  0.1168
  880MOL0     H18750   2.684  11.096   0.797 -3.9751  0.5001  3.3260
  880MOL0     H18751   2.545  11.111   0.543  1.9483 -0.1992  2.0490
  880MOL0     H18752   2.312  11.039   0.452  2.8617  0.9004  2.2822
  880MOL0     H18753   2.152  11.073   0.525 -0.5107 -0.3222 -1.2377
  880MOL0     H18754   2.179  11.197   0.322  2.4455 -0.8505 -2.0214
  880MOL0     H18755   2.333  11.273   0.376 -1.3513  2.8667  0.0470
  880MOL0     H18756   2.197  11.392   0.547 -0.9619 -1.1043  0.9336
  880MOL0     H18757   2.056  11.293   0.495  1.5102 -1.9075 -1.7531
  880MOL0     H18758   2.200  11.462   0.299  0.0764  0.2297  0.4410
  880MOL0     H18759   2.078  11.538   0.415  1.3955  0.5578  0.2172
  880MOL0     H18760   1.846  11.376   0.454 -1.2997  0.5058  0.7180
  880MOL0     H18761   1.528  11.421   0.483  0.7563 -1.8583  2.5208
  880MOL0     H18762   1.654  11.449   0.608 -1.2577 -1.2792  0.1726
  880MOL0     H18763   1.559  11.581   0.566 -0.0308 -0.8997  1.7893
  880MOL0     H18764   1.314  11.423   0.309 -0.9222 -1.6118 -1.3449
  880MOL0     H18765   1.080  11.398   0.213 -1.0232 -0.8019 -1.4217
  880MOL0     H18766   0.783  11.718   0.211  0.5356  1.5542  0.1429
  880MOL0     H18767   0.892  11.778   0.083 -1.2096  0.2051  0.7982
  880MOL0     H18768   0.709  11.548   0.073  0.2602 -0.6812 -0.9281
  880MOL0     H18769   0.659  11.698   0.001 -0.3244 -1.6223  0.5995
  880MOL0     H18770   0.869  11.491  -0.103  2.5351  1.0871  3.8622
  880MOL0     H18771   0.883  11.658  -0.145  0.0851  0.3618  1.2493
  880MOL0     H18772   0.662  11.665  -0.248 -3.9236 -1.9041  0.2418
  880MOL0     H18773   0.761  11.534  -0.310 -0.2877 -0.1501 -0.7770
  880MOL0     H18774   0.536  11.519  -0.114  0.3661 -0.8000  0.3777
  880MOL0     H18775   0.634  11.374  -0.135 -0.5248 -0.2683 -0.2032
  880MOL0     H18776   0.470  11.518  -0.337  1.4919  0.9210  1.1179
  880MOL0     H18777   0.552  11.367  -0.380 -0.5801  1.2865 -0.9730
  880MOL0     H18778   0.353  11.361  -0.151  0.9055  2.6150 -1.0750
  880MOL0     H18779   0.468  11.236  -0.199  1.3376  0.1304  0.3012
  880MOL0     H18780   0.263  11.175  -0.304  1.7922 -0.6171  0.3663
  880MOL0     H18781   0.350  11.256  -0.438 -1.5131  3.4208 -1.7312
  880MOL0     H18782   1.049  11.829   0.221 -0.5850 -0.9288 -2.6330
  880MOL0     H18783   1.272  11.848   0.325  0.5237 -0.4124  1.5764
  880MOL0     H18784   1.755  11.704   0.106  2.4078  0.2704 -0.5139
  880MOL0     H18785   1.948  11.566   0.099 -1.1053  1.5365 -0.0371
  880MOL0     H18786   3.438  11.315   0.108 -0.2299  0.8889  0.9467
  880MOL0     H18787   3.612  11.314  -0.059 -3.0995 -1.7350  0.4170
  880MOL0     H18788   4.162  11.104  -0.054  2.3504  0.8064  0.2632
  880MOL0     H18789   4.374  11.168  -0.168  1.1417  1.0405  4.4994
  880MOL0     H18790   4.334  11.466  -0.475 -1.2164  1.2711  2.2019
  880MOL0     H18791   4.455  11.563  -0.391  0.8564 -0.7570  1.5213
  880MOL0     H18792   4.637  11.398  -0.445 -0.7690 -0.2653  0.6883
  880MOL0     H18793   4.584  11.489  -0.582  0.2144 -0.0778 -0.1621
  880MOL0     H18794   4.480  11.207  -0.510  3.0991 -1.4780 -0.4733
  880MOL0     H18795   4.595  11.242  -0.621  2.2963  2.7266  0.9725
  880MOL0     H18796   4.296  11.329  -0.633 -0.9768 -1.1003  0.5235
  880MOL0     H18797   4.373  11.207  -0.732 -0.7779 -0.2816  1.1372
  880MOL0     H18798   4.482  11.553  -0.949  2.1663 -0.9944 -0.2337
  880MOL0     H18799   4.192  11.522  -0.315  0.1387 -1.1147 -2.1122
  880MOL0     H18800   3.999  11.475  -0.185  0.4929 -1.1692 -0.7294
  881MOL0     O18801   7.887   8.705   0.544 -0.4662  0.3262 -0.4148
  881MOL0     C18802   7.885   8.618   0.460  0.4907  1.0465  0.2474
  881MOL0     O18803   7.767   8.553   0.414 -0.5494 -0.0424 -0.7587
  881MOL0     C18804   7.648   8.604   0.444 -0.3203 -0.5144  0.6412
  881MOL0     C18805   7.597   8.606   0.575  0.3936  0.1630 -0.6856
  881MOL0     C18806   7.465   8.635   0.597 -0.4980  0.2210  0.0948
  881MOL0     C18807   7.371   8.639   0.494 -0.0287  0.3092  0.3087
  881MOL0     O18808   7.235   8.647   0.525 -0.2797  0.3745 -0.4498
  881MOL0     C18809   7.163   8.759   0.472 -0.4347  0.3453 -0.4303
  881MOL0     C18810   7.026   8.779   0.550 -0.5201  0.2602 -0.0359
  881MOL0     C18811   6.921   8.852   0.463  0.2165  0.2572  0.2590
  881MOL0     C18812   6.804   8.898   0.558 -0.1379 -0.6759 -0.2147
  881MOL0     C18813   6.699   8.974   0.474  0.6982  0.1938  0.6433
  881MOL0     C18814   6.570   8.997   0.548  1.2407  0.1032 -0.4393
  881MOL0     C18815   6.459   9.061   0.460 -0.4875 -1.1827 -0.5916
  881MOL0     C18816   6.330   9.117   0.539  0.2863  0.2639  1.0052
  881MOL0     N18817   6.249   9.197   0.445  0.1774 -0.4380 -0.2529
  881MOL0     C18818   6.129   9.151   0.399  0.1175  0.2399  0.1137
  881MOL0     C18819   6.089   9.251   0.319 -0.2528 -0.2405  0.3216
  881MOL0     C18820   5.965   9.234   0.228  0.4486  0.6292 -0.0156
  881MOL0     C18821   5.998   9.179   0.092  0.2814  0.2190 -0.4947
  881MOL0     C18822   6.023   9.023   0.104  0.8922 -0.2119  0.3609
  881MOL0     C18823   5.891   8.941   0.103 -0.2891 -0.9557 -0.5046
  881MOL0     O18824   5.836   8.951  -0.024 -0.8073 -0.7001  0.1181
  881MOL0     C18825   5.701   8.952  -0.035  0.3328  0.1973 -0.1938
  881MOL0     C18826   5.639   9.029  -0.125  0.4969 -1.0504  0.1985
  881MOL0     C18827   5.497   9.031  -0.137 -0.0119  0.5019 -0.3496
  881MOL0     C18828   5.454   9.139  -0.234 -0.5172  1.0062  0.3345
  881MOL0     C18829   5.414   8.947  -0.070  0.3117  0.1305 -0.4278
  881MOL0     C18830   5.272   8.946  -0.082 -0.3148  0.3636 -0.1162
  881MOL0     O18831   5.204   8.857  -0.000 -0.0879  0.1329  1.2941
  881MOL0     C18832   5.072   8.837  -0.023 -0.3090  0.0889  0.4199
  881MOL0     C18833   5.036   8.710  -0.068 -0.0965  0.3089  0.3384
  881MOL0     C18834   4.900   8.681  -0.085  0.3023  0.3600 -0.2504
  881MOL0     C18835   4.806   8.769  -0.049  0.2006  0.0181  0.6981
  881MOL0     O18836   4.671   8.739  -0.060 -0.0363  0.2811  1.0246
  881MOL0     C18837   4.632   8.761  -0.196  0.1924  0.3754 -0.0305
  881MOL0     C18838   4.488   8.799  -0.191 -1.2377 -0.4102 -0.1730
  881MOL0     C18839   4.399   8.675  -0.194 -0.1733  0.0981 -0.7787
  881MOL0     C18840   4.379   8.615  -0.329 -0.2561 -0.3036  0.1948
  881MOL0     C18841   4.276   8.514  -0.344  0.0155 -0.4763 -0.0069
  881MOL0     C18842   4.269   8.454  -0.478  0.0121 -0.3569  0.5076
  881MOL0     C18843   4.169   8.335  -0.461 -0.7993 -0.2786  0.6671
  881MOL0     C18844   4.160   8.261  -0.593 -0.1397 -0.2751  0.8268
  881MOL0    Cl18845   4.075   8.098  -0.562  0.0108 -0.6011  0.2673
  881MOL0     C18846   4.840   8.895  -0.001  0.3361 -0.3360  0.0421
  881MOL0     C18847   4.972   8.929   0.012 -0.4810 -0.4582  0.2764
  881MOL0     O18848   5.211   9.009  -0.165  0.3015 -0.1178 -0.3867
  881MOL0     C18849   5.481   8.859   0.012 -0.1730  0.9362  0.4257
  881MOL0     C18850   5.619   8.860   0.022  0.0724 -0.7010 -1.4336
  881MOL0     N18851   6.179   9.359   0.326  0.7624 -0.7792  0.4732
  881MOL0     N18852   6.272   9.320   0.407  0.0797 -0.9530 -1.1855
  881MOL0     C18853   7.422   8.623   0.365 -0.8585  0.1492 -0.4133
  881MOL0     C18854   7.557   8.614   0.337  0.5335 -0.4807 -0.0586
  881MOL0     C18855   8.019   8.573   0.407  0.7470  0.1900 -0.3086
  881MOL0     C18856   8.133   8.644   0.439 -0.1564 -0.4801  0.3239
  881MOL0     C18857   8.258   8.606   0.383  0.1449  0.9296 -0.4375
  881MOL0     C18858   8.279   8.480   0.319  0.5104 -0.2716  0.1614
  881MOL0     O18859   8.411   8.438   0.297  0.5349  0.5707 -0.6962
  881MOL0     C18860   8.424   8.309   0.233  0.2156 -0.3469 -0.5450
  881MOL0     C18861   8.575   8.290   0.228  0.5162  0.3518 -0.3915
  881MOL0     C18862   8.607   8.160   0.143  0.0938  0.5670  0.5261
  881MOL0     C18863   8.644   8.176  -0.006 -0.1044 -0.4207 -0.7917
  881MOL0     C18864   8.539   8.244  -0.084 -0.5527  0.6355 -0.3859
  881MOL0     C18865   8.448   8.301  -0.142  0.3166  0.0892 -0.5615
  881MOL0     C18866   8.161   8.412   0.283 -0.2621 -0.1550 -0.8433
  881MOL0     C18867   8.033   8.458   0.326 -1.1319 -0.1302  0.5284
  881MOL0     H18868   7.660   8.604   0.664 -1.4499  0.4799  0.6749
  881MOL0     H18869   7.437   8.660   0.699  0.6930  1.1158  0.2202
  881MOL0     H18870   7.230   8.846   0.476  4.2123 -2.8808 -0.5562
  881MOL0     H18871   7.131   8.735   0.370  2.0505  3.4032 -2.1033
  881MOL0     H18872   6.988   8.677   0.563  1.7817 -0.9088 -1.7336
  881MOL0     H18873   7.035   8.830   0.646 -4.2767  3.7180 -1.2347
  881MOL0     H18874   6.978   8.927   0.406  2.2944 -1.6957 -0.3664
  881MOL0     H18875   6.877   8.782   0.392  1.8727 -0.9293  0.3696
  881MOL0     H18876   6.762   8.814   0.614  0.7735 -1.1732 -0.2493
  881MOL0     H18877   6.843   8.967   0.633  1.0675 -0.8305 -0.6753
  881MOL0     H18878   6.736   9.072   0.443  1.8089 -0.2063  0.6862
  881MOL0     H18879   6.674   8.913   0.387 -1.7643  0.7935  0.8543
  881MOL0     H18880   6.548   8.900   0.594 -1.1124  0.8658  0.2422
  881MOL0     H18881   6.580   9.069   0.630  2.1865  2.1948 -2.2912
  881MOL0     H18882   6.501   9.140   0.398 -0.7394  0.2364  0.9792
  881MOL0     H18883   6.422   8.984   0.391  0.8705 -0.3822 -2.2933
  881MOL0     H18884   6.355   9.182   0.624  1.0012  0.3325  0.7457
  881MOL0     H18885   6.270   9.032   0.572  0.5210  0.0297  0.8206
  881MOL0     H18886   6.086   9.054   0.422  0.2093  0.7243  2.6679
  881MOL0     H18887   5.895   9.166   0.277 -2.0063  1.8999 -1.5666
  881MOL0     H18888   5.916   9.331   0.216 -1.2840 -0.2115  0.0035
  881MOL0     H18889   6.096   9.209   0.054 -0.7771 -0.2684 -3.9536
  881MOL0     H18890   5.924   9.203   0.015 -1.1207 -1.8735  0.1158
  881MOL0     H18891   6.071   9.008   0.201  4.0021  2.0503 -0.6630
  881MOL0     H18892   6.100   8.998   0.031 -0.9369 -0.9068 -1.4288
  881MOL0     H18893   5.826   8.994   0.172  2.1293 -0.9899  1.9527
  881MOL0     H18894   5.897   8.837   0.139 -2.6567 -2.4779 -3.9107
  881MOL0     H18895   5.697   9.103  -0.179 -0.6873 -3.0007 -4.1839
  881MOL0     H18896   5.534   9.210  -0.259 -0.2642  0.2650 -1.0797
  881MOL0     H18897   5.413   9.096  -0.326 -0.3711  0.9708  0.2852
  881MOL0     H18898   5.375   9.204  -0.196  0.0498  2.1866 -0.4076
  881MOL0     H18899   5.108   8.631  -0.083 -1.0443 -0.7607  1.2373
  881MOL0     H18900   4.870   8.593  -0.141 -0.6848  0.1975  0.5043
  881MOL0     H18901   4.680   8.846  -0.245  0.6521 -0.1357 -0.4823
  881MOL0     H18902   4.637   8.666  -0.250 -2.1673  0.3895 -0.4107
  881MOL0     H18903   4.468   8.849  -0.096  3.7474  0.1342  0.8599
  881MOL0     H18904   4.456   8.862  -0.276  0.4340 -2.3208 -2.3460
  881MOL0     H18905   4.309   8.712  -0.143  0.0889 -0.0113 -0.2235
  881MOL0     H18906   4.444   8.597  -0.132  0.6609  2.1651  1.3946
  881MOL0     H18907   4.360   8.691  -0.405 -0.4421  0.1632  0.7028
  881MOL0     H18908   4.478   8.574  -0.352  0.1410  1.0433 -0.6017
  881MOL0     H18909   4.181   8.565  -0.332 -0.5471 -1.1607 -1.3063
  881MOL0     H18910   4.289   8.440  -0.264  1.9795  0.9912  1.1411
  881MOL0     H18911   4.236   8.530  -0.550 -2.6758  0.0455  2.0621
  881MOL0     H18912   4.365   8.413  -0.514 -1.4689 -1.4122 -2.6587
  881MOL0     H18913   4.078   8.379  -0.419 -0.2667  0.7321  0.7799
  881MOL0     H18914   4.205   8.274  -0.377 -1.9943  0.5115  1.7820
  881MOL0     H18915   4.261   8.241  -0.631 -0.0299 -2.8373  2.2675
  881MOL0     H18916   4.101   8.331  -0.654  2.0167  0.4936 -0.5138
  881MOL0     H18917   4.764   8.962   0.037  1.2322 -0.0443  1.3840
  881MOL0     H18918   5.015   9.025   0.038  0.3426 -0.6196 -0.4436
  881MOL0     H18919   5.438   8.782   0.075  0.8817  1.4795  1.8681
  881MOL0     H18920   5.663   8.786   0.088  1.8314  0.5026 -1.1921
  881MOL0     H18921   7.344   8.611   0.290 -1.9587 -0.0759  0.7169
  881MOL0     H18922   7.572   8.611   0.230  1.5437  0.9860  0.0084
  881MOL0     H18923   8.122   8.735   0.497 -0.6287 -0.1311 -0.3070
  881MOL0     H18924   8.348   8.663   0.408  0.1963  0.5933  0.1758
  881MOL0     H18925   8.369   8.232   0.287  0.6479 -1.2423 -1.3516
  881MOL0     H18926   8.386   8.310   0.131  1.4725 -0.8560 -1.0342
  881MOL0     H18927   8.613   8.274   0.329  1.3599 -1.7928 -0.9903
  881MOL0     H18928   8.623   8.378   0.185  0.6983  0.9829  1.0592
  881MOL0     H18929   8.515   8.101   0.145 -0.9604  2.1401  1.7439
  881MOL0     H18930   8.691   8.112   0.195  0.2184  0.7382  0.4826
  881MOL0     H18931   8.657   8.073  -0.040 -0.3751 -1.6424  2.4691
  881MOL0     H18932   8.738   8.232  -0.010 -0.0733 -0.4243 -0.1442
  881MOL0     H18933   8.377   8.363  -0.194  2.7442  1.2398 -2.6822
  881MOL0     H18934   8.166   8.326   0.217 -0.5779 -1.8632  1.2549
  881MOL0     H18935   7.951   8.391   0.305 -0.4516 -1.1900  1.1813
  882MOL0     O18936  10.517   8.838   5.037  0.2980  0.0946 -0.4962
  882MOL0     C18937  10.625   8.868   4.991  0.5740 -0.3601 -0.6788
  882MOL0     O18938  10.653   8.925   4.873 -0.2263  0.0481 -0.2115
  882MOL0     C18939  10.559   8.924   4.768  0.5354  0.4263  0.3676
  882MOL0     C18940  10.617   8.940   4.641  0.1106 -0.3030  0.4678
  882MOL0     C18941  10.531   8.946   4.527 -0.0149  0.5526 -0.2669
  882MOL0     C18942  10.392   8.942   4.545  0.1595  0.6072 -0.2070
  882MOL0     O18943  10.331   8.946   4.423 -0.4011  0.4175 -0.4386
  882MOL0     C18944  10.191   8.944   4.416  0.6566  0.5822 -0.8106
  882MOL0     C18945  10.123   8.807   4.424 -0.7215  0.0856 -0.5082
  882MOL0     C18946   9.968   8.803   4.430 -0.3891 -0.4007 -0.1335
  882MOL0     C18947   9.903   8.935   4.429  0.2022 -0.8580 -1.4721
  882MOL0     C18948   9.743   8.916   4.410 -0.4478  0.2800  0.3867
  882MOL0     C18949   9.695   9.063   4.384  0.0035  0.4425 -0.0990
  882MOL0     C18950   9.549   9.079   4.368  0.3491 -0.4866  0.0556
  882MOL0     C18951   9.504   8.983   4.248 -0.1326 -0.8530  0.1032
  882MOL0     N18952   9.362   9.008   4.225 -0.1103 -0.1364 -0.8140
  882MOL0     C18953   9.243   8.957   4.300 -0.0577 -1.2490 -0.6951
  882MOL0     C18954   9.143   9.014   4.232  0.4884 -0.6928  0.4291
  882MOL0     C18955   8.994   9.013   4.266 -0.4370 -0.7311 -1.0956
  882MOL0     C18956   8.944   8.896   4.349  0.0791  0.4573 -0.1142
  882MOL0     C18957   8.954   8.762   4.273 -0.7577 -0.1825  0.0824
  882MOL0     C18958   8.881   8.651   4.340  1.1079 -0.7679 -1.0607
  882MOL0     O18959   8.740   8.681   4.339 -0.1695 -0.1530 -0.3334
  882MOL0     C18960   8.644   8.589   4.339 -0.1265  0.6497  0.5026
  882MOL0     C18961   8.658   8.471   4.401  0.5187  0.6027 -0.0986
  882MOL0     C18962   8.557   8.368   4.405 -0.4556 -0.2495  0.1921
  882MOL0     C18963   8.575   8.251   4.492  0.3055  0.0541  0.1872
  882MOL0     C18964   8.435   8.402   4.347  0.5784 -0.1377  0.8657
  882MOL0     C18965   8.315   8.312   4.331  0.9400 -0.5819  0.4902
  882MOL0     O18966   8.191   8.371   4.298  0.6697 -0.1770 -0.2376
  882MOL0     C18967   8.080   8.301   4.262  0.0466  0.5765  0.1851
  882MOL0     C18968   7.959   8.370   4.258 -0.9004  0.0468 -0.6667
  882MOL0     C18969   7.844   8.323   4.221  1.4247 -0.9222  0.2798
  882MOL0     C18970   7.837   8.199   4.167 -1.2776  0.0660 -0.8255
  882MOL0     O18971   7.706   8.171   4.136 -0.9361  1.1375  0.0646
  882MOL0     C18972   7.677   8.051   4.066 -0.1028  0.0454  0.4720
  882MOL0     C18973   7.530   8.028   4.068 -0.1275 -0.2462  0.2551
  882MOL0     C18974   7.443   8.151   4.038 -0.0761  0.3320 -0.7572
  882MOL0     C18975   7.300   8.101   4.026  0.0201  0.0071 -0.5560
  882MOL0     C18976   7.196   8.204   3.991  1.4951 -2.1005 -0.0182
  882MOL0     C18977   7.189   8.326   4.090 -0.3893 -0.5747  0.1827
  882MOL0     C18978   7.040   8.369   4.115 -0.4765 -0.5914 -0.5884
  882MOL0     C18979   6.968   8.409   3.983  0.1379 -0.1988 -0.1690
  882MOL0    Cl18980   6.804   8.485   4.024 -0.4230  0.1081 -0.1346
  882MOL0     C18981   7.957   8.115   4.172  0.9761 -0.0129 -0.3171
  882MOL0     C18982   8.078   8.170   4.212 -1.0047 -0.4566  0.2312
  882MOL0     O18983   8.330   8.196   4.358 -0.0290  0.5478 -0.2357
  882MOL0     C18984   8.418   8.539   4.309  0.4432 -0.3792 -0.7423
  882MOL0     C18985   8.524   8.630   4.304  0.3584 -0.4772  0.0657
  882MOL0     N18986   9.194   9.111   4.148 -0.7344 -0.1611  0.1879
  882MOL0     N18987   9.320   9.109   4.144  0.7831  0.0551 -0.3270
  882MOL0     C18988  10.334   8.917   4.668  1.4026 -0.7888 -1.1957
  882MOL0     C18989  10.417   8.923   4.786  0.5214  0.1099  0.4422
  882MOL0     C18990  10.745   8.807   5.060  0.3702  0.5768 -0.7284
  882MOL0     C18991  10.739   8.709   5.152  0.2018 -0.0277 -0.0513
  882MOL0     C18992  10.849   8.643   5.204 -0.7620 -0.4486  0.4755
  882MOL0     C18993  10.977   8.691   5.176 -0.3292 -0.0565 -0.5340
  882MOL0     O18994  11.092   8.651   5.243  0.2535  0.3363  0.2936
  882MOL0     C18995  11.080   8.544   5.335 -0.1578 -0.3905 -0.2592
  882MOL0     C18996  11.203   8.503   5.410  0.7363 -0.2479 -0.1264
  882MOL0     C18997  11.317   8.431   5.328 -0.3033 -0.0011  0.2572
  882MOL0     C18998  11.304   8.280   5.317  1.0709 -0.4929 -0.1382
  882MOL0     C18999  11.173   8.241   5.249  0.5957  0.6634 -0.1132
  882MOL0     C19000  11.079   8.199   5.187 -0.7488 -0.6869 -0.2620
  882MOL0     C19001  10.989   8.784   5.078 -0.3656  0.3696  1.0048
  882MOL0     C19002  10.876   8.842   5.014 -0.0561 -0.2764 -0.3707
  882MOL0     H19003  10.724   8.947   4.623  0.3925  1.0071  2.3516
  882MOL0     H19004  10.578   8.952   4.429 -1.2766 -0.2858 -0.9499
  882MOL0     H19005  10.147   9.009   4.493 -1.4888 -0.0886 -1.4018
  882MOL0     H19006  10.160   8.989   4.322  1.2686 -0.2593 -1.4256
  882MOL0     H19007  10.143   8.752   4.332  2.6880 -0.0476  0.1859
  882MOL0     H19008  10.168   8.752   4.507  0.1349 -0.7700 -1.5199
  882MOL0     H19009   9.940   8.736   4.349 -1.5216  0.5362 -0.5533
  882MOL0     H19010   9.930   8.753   4.520 -0.6899 -1.1963 -0.6965
  882MOL0     H19011   9.910   8.994   4.520 -2.4606 -0.3513 -1.5129
  882MOL0     H19012   9.943   8.991   4.343  1.9199  1.1628  0.5192
  882MOL0     H19013   9.732   8.849   4.325  0.3407  1.4844 -0.7028
  882MOL0     H19014   9.677   8.887   4.493 -2.8986  0.4821 -1.3895
  882MOL0     H19015   9.721   9.129   4.467 -1.5129 -0.8160  1.4384
  882MOL0     H19016   9.750   9.107   4.300  1.6743 -1.7847 -0.2668
  882MOL0     H19017   9.485   9.048   4.451  0.5826 -0.6007  0.1935
  882MOL0     H19018   9.518   9.184   4.360  1.2127 -0.3290 -2.2361
  882MOL0     H19019   9.519   8.876   4.263  1.0385 -0.7347 -0.1646
  882MOL0     H19020   9.559   9.005   4.156 -1.3522 -0.2192 -0.5114
  882MOL0     H19021   9.235   8.893   4.387  2.1218 -0.3364  0.2497
  882MOL0     H19022   8.974   9.089   4.342  1.1702  0.5359 -1.8698
  882MOL0     H19023   8.937   9.025   4.174 -0.3813  0.8283 -0.9504
  882MOL0     H19024   8.837   8.909   4.363 -0.2256 -1.4574 -0.4129
  882MOL0     H19025   8.996   8.881   4.444  0.5273 -2.3364 -0.7043
  882MOL0     H19026   9.059   8.733   4.268 -0.3200  0.2621  3.7442
  882MOL0     H19027   8.912   8.772   4.172 -0.2206 -1.7739 -0.3255
  882MOL0     H19028   8.917   8.629   4.441 -1.9617  2.9168  1.1081
  882MOL0     H19029   8.902   8.560   4.284  0.8279 -0.7515 -1.1958
  882MOL0     H19030   8.754   8.443   4.445  1.4245 -0.4882 -2.5685
  882MOL0     H19031   8.602   8.162   4.435 -0.2332 -0.6858  1.0543
  882MOL0     H19032   8.666   8.269   4.550  3.0764 -1.7212 -3.2196
  882MOL0     H19033   8.489   8.224   4.555  0.8054 -2.4195 -0.0756
  882MOL0     H19034   7.951   8.474   4.289  0.0724  0.3956 -1.5292
  882MOL0     H19035   7.766   8.396   4.201  2.5192  0.3745  0.5850
  882MOL0     H19036   7.709   8.076   3.965 -2.0227  0.9602  0.0633
  882MOL0     H19037   7.728   7.960   4.099  0.9355 -0.2964 -1.8671
  882MOL0     H19038   7.504   7.960   3.986  0.4858  0.4460 -0.5225
  882MOL0     H19039   7.495   7.987   4.164 -1.2870  2.7397  1.2350
  882MOL0     H19040   7.487   8.201   3.951  1.7574 -0.3617 -0.2758
  882MOL0     H19041   7.451   8.227   4.116  2.7854 -0.6052 -0.0003
  882MOL0     H19042   7.296   8.014   3.959  2.1872 -2.4178  2.1760
  882MOL0     H19043   7.266   8.069   4.125  0.2033  1.2606 -0.0676
  882MOL0     H19044   7.107   8.142   3.999 -1.8734  2.4999  4.5077
  882MOL0     H19045   7.193   8.240   3.887 -2.4858  0.6673  0.8377
  882MOL0     H19046   7.238   8.289   4.180 -2.8804 -3.0816  0.6484
  882MOL0     H19047   7.258   8.401   4.051 -0.0680 -1.2403 -0.5653
  882MOL0     H19048   7.029   8.456   4.181  1.2661  0.5431 -1.7186
  882MOL0     H19049   6.989   8.291   4.173  0.3695  0.7289  2.0621
  882MOL0     H19050   6.960   8.332   3.905  3.6982 -0.1329 -0.7425
  882MOL0     H19051   7.030   8.483   3.932 -1.3108  0.5705 -0.9071
  882MOL0     H19052   7.950   8.013   4.135  0.4556 -1.6415  3.7064
  882MOL0     H19053   8.169   8.113   4.195 -1.0470 -0.0802 -1.5299
  882MOL0     H19054   8.314   8.563   4.288  0.4000 -0.8713 -1.0978
  882MOL0     H19055   8.506   8.733   4.275 -2.2583 -1.4294 -2.1529
  882MOL0     H19056  10.226   8.915   4.668  1.2948  0.1088 -4.0345
  882MOL0     H19057  10.371   8.915   4.884 -2.4513 -0.2604 -0.8836
  882MOL0     H19058  10.638   8.674   5.172 -0.6361  0.3631 -3.1097
  882MOL0     H19059  10.834   8.564   5.277  1.0761 -1.6939 -0.4072
  882MOL0     H19060  11.003   8.571   5.408 -0.6659  0.7460 -1.1742
  882MOL0     H19061  11.049   8.456   5.278  0.7378 -0.5746 -0.4856
  882MOL0     H19062  11.181   8.443   5.499  2.3804  0.5780  0.9062
  882MOL0     H19063  11.246   8.598   5.443  1.2466  0.5725 -2.9188
  882MOL0     H19064  11.413   8.440   5.380  1.1527 -0.7661 -2.1166
  882MOL0     H19065  11.315   8.493   5.238 -0.5360  1.0866  0.9894
  882MOL0     H19066  11.303   8.243   5.420 -0.1321  1.6552  0.6904
  882MOL0     H19067  11.384   8.243   5.252  0.2572  1.2066 -2.2193
  882MOL0     H19068  10.994   8.165   5.132  0.1398 -1.9149 -0.9234
  882MOL0     H19069  11.082   8.831   5.048  0.0882 -0.5508  0.9251
  882MOL0     H19070  10.882   8.920   4.938 -0.2440  0.5911  0.4884
  883MOL0     O19071  10.574  10.784   3.327 -0.6325  0.0671 -0.1337
  883MOL0     C19072  10.608  10.821   3.435 -1.2744 -0.0438 -0.5328
  883MOL0     O19073  10.531  10.888   3.524  0.1572  0.6607  0.8256
  883MOL0     C19074  10.398  10.924   3.501  0.5007 -0.2533 -0.1321
  883MOL0     C19075  10.303  10.828   3.464  0.3624 -0.4295  0.4949
  883MOL0     C19076  10.169  10.862   3.455  0.0215  0.5446  0.5811
  883MOL0     C19077  10.114  10.983   3.491  0.4727  0.1424  0.5404
  883MOL0     O19078   9.983  11.014   3.490 -0.0787  0.8248 -0.1996
  883MOL0     C19079   9.891  10.934   3.412  0.7015 -0.2549 -0.2512
  883MOL0     C19080   9.748  11.004   3.416  0.5679  1.2130  0.3665
  883MOL0     C19081   9.671  10.987   3.279  0.6239  0.4909  0.2980
  883MOL0     C19082   9.528  11.051   3.276 -0.6343  0.1893  0.2358
  883MOL0     C19083   9.439  10.985   3.167 -0.0355  0.2157 -0.0008
  883MOL0     C19084   9.302  11.056   3.148 -0.3008  0.8738 -0.0808
  883MOL0     C19085   9.283  11.066   2.995  0.0202  0.4704  0.1588
  883MOL0     C19086   9.262  10.930   2.922 -0.0136  0.7982 -0.8071
  883MOL0     N19087   9.148  10.863   2.976 -0.2710 -1.4334  0.0369
  883MOL0     C19088   9.020  10.883   2.923  0.2938  0.8605  0.2525
  883MOL0     C19089   8.948  10.777   2.989 -0.5949 -0.6175  0.3058
  883MOL0     C19090   8.813  10.748   2.955  0.2491  0.5569  0.4048
  883MOL0     C19091   8.797  10.616   2.879  0.5413  0.7902 -0.6442
  883MOL0     C19092   8.795  10.494   2.979  0.3477 -0.0164  0.6382
  883MOL0     C19093   8.671  10.487   3.062  0.8045 -0.2126  0.3520
  883MOL0     O19094   8.570  10.413   2.995  0.1807 -0.3660 -0.5593
  883MOL0     C19095   8.455  10.375   3.060 -0.1405 -0.1045  0.3584
  883MOL0     C19096   8.373  10.283   2.995  0.3475  0.4860  0.2043
  883MOL0     C19097   8.264  10.221   3.060  0.0762  0.2761 -1.0589
  883MOL0     C19098   8.191  10.109   2.991  0.4501 -0.4344  0.3130
  883MOL0     C19099   8.216  10.278   3.184  0.0878  0.9338  0.0270
  883MOL0     C19100   8.086  10.248   3.253  0.4001 -0.4733 -0.5501
  883MOL0     O19101   8.072  10.266   3.390 -0.1402 -0.0107 -0.5346
  883MOL0     C19102   7.950  10.253   3.462  0.7447  0.8752  0.1085
  883MOL0     C19103   7.824  10.277   3.401 -0.7149 -0.1303 -0.1720
  883MOL0     C19104   7.707  10.259   3.469 -0.4103  0.2280 -0.3198
  883MOL0     C19105   7.710  10.211   3.588  0.0422 -0.9660 -0.6201
  883MOL0     O19106   7.589  10.178   3.644  0.3067  0.5867  0.7718
  883MOL0     C19107   7.579  10.040   3.683 -0.0548  0.4934  0.3936
  883MOL0     C19108   7.446   9.974   3.651 -0.4768  0.4611 -0.0200
  883MOL0     C19109   7.331  10.064   3.663  0.3792  0.0403  0.6432
  883MOL0     C19110   7.199   9.997   3.613 -1.0894 -0.7220 -0.3366
  883MOL0     C19111   7.072  10.088   3.626 -0.2617 -0.4167  0.4742
  883MOL0     C19112   6.939  10.022   3.561 -0.5066  0.0044  0.3502
  883MOL0     C19113   6.915   9.883   3.624  1.2925 -0.7457  0.3073
  883MOL0     C19114   6.765   9.869   3.636  1.0927  0.2050  0.1922
  883MOL0    Cl19115   6.722   9.717   3.706  0.0484  0.1460 -0.7045
  883MOL0     C19116   7.831  10.196   3.667 -0.0186  0.1187  0.2469
  883MOL0     C19117   7.955  10.214   3.592 -0.1716  0.0822 -0.1964
  883MOL0     O19118   7.995  10.227   3.171  0.2904 -0.5847 -0.5516
  883MOL0     C19119   8.299  10.370   3.243  0.2454  0.6329  0.0810
  883MOL0     C19120   8.421  10.413   3.189  0.2409  0.3026  0.0417
  883MOL0     N19121   9.032  10.708   3.070 -0.1369 -0.7728 -0.2856
  883MOL0     N19122   9.157  10.758   3.059 -0.2876 -0.2801  0.1238
  883MOL0     C19123  10.213  11.074   3.538  0.8267  1.0262  0.5052
  883MOL0     C19124  10.347  11.046   3.542  0.6209 -0.3887 -0.6282
  883MOL0     C19125  10.747  10.792   3.474 -0.0345 -0.5634 -0.0786
  883MOL0     C19126  10.835  10.740   3.380 -0.5272 -0.0374  0.9912
  883MOL0     C19127  10.971  10.724   3.411  0.3200  0.3436 -0.4437
  883MOL0     C19128  11.024  10.760   3.537 -0.6283  0.7510  0.1029
  883MOL0     O19129  11.158  10.724   3.568  0.2550 -0.2921 -0.4252
  883MOL0     C19130  11.167  10.596   3.632 -0.0437  0.0374  0.5612
  883MOL0     C19131  11.170  10.470   3.546  0.2848 -0.2906  0.7074
  883MOL0     C19132  11.272  10.480   3.433 -0.6593  1.0755  0.0969
  883MOL0     C19133  11.291  10.354   3.346 -0.7567  0.6142 -0.1319
  883MOL0     C19134  11.350  10.246   3.428 -0.1505 -0.3341  0.0027
  883MOL0     C19135  11.399  10.155   3.495 -0.7928 -0.0670  0.2166
  883MOL0     C19136  10.942  10.828   3.625 -0.6371  0.0977  0.5345
  883MOL0     C19137  10.804  10.843   3.597  0.7539 -0.0267 -0.5672
  883MOL0     H19138  10.334  10.727   3.438  0.2461 -0.4967  0.6140
  883MOL0     H19139  10.100  10.785   3.422  1.7937 -1.3237  1.0229
  883MOL0     H19140   9.920  10.944   3.307  0.9628 -1.0751 -0.2684
  883MOL0     H19141   9.878  10.831   3.448 -0.1372  0.9805  3.4796
  883MOL0     H19142   9.695  10.956   3.499 -2.1421  1.8254 -0.9094
  883MOL0     H19143   9.765  11.111   3.428 -0.2666  1.5546 -1.3015
  883MOL0     H19144   9.728  11.027   3.194 -0.8387 -0.7508 -1.3433
  883MOL0     H19145   9.665  10.879   3.263 -0.5825  0.3704  1.4197
  883MOL0     H19146   9.485  11.032   3.374 -1.1365  1.3497  0.2519
  883MOL0     H19147   9.539  11.159   3.258  1.6900 -0.2522 -1.4991
  883MOL0     H19148   9.496  11.008   3.077  0.3091 -1.7161 -0.3288
  883MOL0     H19149   9.436  10.876   3.181  1.7127  0.2763  1.0885
  883MOL0     H19150   9.219  11.009   3.201 -0.2565 -0.6351 -1.2628
  883MOL0     H19151   9.303  11.160   3.182 -1.8824  1.3395 -1.3687
  883MOL0     H19152   9.200  11.128   2.959 -1.3199 -0.6028  1.2589
  883MOL0     H19153   9.367  11.119   2.949  0.5206 -0.3981  0.0683
  883MOL0     H19154   9.348  10.863   2.928 -0.3311  0.1633 -2.7323
  883MOL0     H19155   9.243  10.944   2.815 -0.5868 -0.8472 -0.9388
  883MOL0     H19156   8.981  10.958   2.854 -3.3243 -0.4773  0.6166
  883MOL0     H19157   8.756  10.754   3.049  0.3001 -0.2034  0.4896
  883MOL0     H19158   8.782  10.830   2.890  0.2265 -0.7602 -1.3044
  883MOL0     H19159   8.880  10.605   2.809  1.1473  0.0095  0.1749
  883MOL0     H19160   8.701  10.616   2.827 -1.2456  1.7889  2.3926
  883MOL0     H19161   8.881  10.489   3.047  2.3504 -2.1619 -1.8182
  883MOL0     H19162   8.796  10.401   2.921 -1.6229  1.2168 -1.5121
  883MOL0     H19163   8.626  10.582   3.091  0.7113 -0.5935  1.5233
  883MOL0     H19164   8.705  10.447   3.158 -0.7211 -3.1413 -0.2054
  883MOL0     H19165   8.401  10.252   2.895 -1.7355  1.0656 -0.6030
  883MOL0     H19166   8.100  10.144   2.943  1.4936  0.6562 -0.9551
  883MOL0     H19167   8.257  10.050   2.927  1.7418 -1.7808  2.7058
  883MOL0     H19168   8.162  10.039   3.071  2.2899 -1.5709  0.0676
  883MOL0     H19169   7.808  10.306   3.298  2.4968 -3.0022 -1.7062
  883MOL0     H19170   7.613  10.254   3.415 -0.4031 -2.4567 -0.2001
  883MOL0     H19171   7.658   9.975   3.644 -1.0688  0.2411 -1.3517
  883MOL0     H19172   7.590  10.040   3.792  3.7026 -1.6152  0.1917
  883MOL0     H19173   7.441   9.934   3.549 -1.3628  1.6979 -0.4836
  883MOL0     H19174   7.431   9.892   3.722  1.0139  0.5803  0.4836
  883MOL0     H19175   7.347  10.147   3.594 -0.1283 -1.0164 -0.8052
  883MOL0     H19176   7.321  10.093   3.768  2.5540 -1.4916  1.3658
  883MOL0     H19177   7.205   9.962   3.510 -1.4530  0.0360 -0.6281
  883MOL0     H19178   7.173   9.908   3.671 -0.5912 -1.1653 -0.7863
  883MOL0     H19179   7.087  10.189   3.586  0.2236 -0.7718 -0.2634
  883MOL0     H19180   7.048  10.119   3.728  1.1344  0.6000  0.5214
  883MOL0     H19181   6.860  10.096   3.579  0.6613  1.5616 -0.7127
  883MOL0     H19182   6.952  10.006   3.454 -2.0098  2.1279 -0.2203
  883MOL0     H19183   6.955   9.889   3.726  1.9914  0.4704 -0.0160
  883MOL0     H19184   6.948   9.797   3.565  1.6882  0.8052 -1.8372
  883MOL0     H19185   6.715   9.862   3.539  1.8026  0.6395 -0.2145
  883MOL0     H19186   6.715   9.949   3.690  1.5699 -0.7750  2.1973
  883MOL0     H19187   7.819  10.158   3.769 -1.5287 -0.7562 -0.2223
  883MOL0     H19188   8.056  10.200   3.629 -0.0620 -1.0451 -0.8768
  883MOL0     H19189   8.262  10.403   3.339 -3.3035 -2.0950 -0.1294
  883MOL0     H19190   8.476  10.483   3.252 -1.3513  0.8569  0.8717
  883MOL0     H19191  10.168  11.172   3.550 -0.2919  0.3587  2.0244
  883MOL0     H19192  10.424  11.116   3.570 -0.7235  0.4150  1.3191
  883MOL0     H19193  10.805  10.706   3.281 -2.6773 -0.5711  1.7667
  883MOL0     H19194  11.040  10.673   3.344 -0.1624 -2.0164  0.7395
  883MOL0     H19195  11.262  10.582   3.684 -0.2727 -0.7127  0.7762
  883MOL0     H19196  11.089  10.581   3.707 -0.7466  1.9641  0.2735
  883MOL0     H19197  11.077  10.447   3.492  1.7535 -0.9534 -1.6995
  883MOL0     H19198  11.184  10.383   3.611 -2.1081 -0.9767  0.4122
  883MOL0     H19199  11.368  10.491   3.484  1.4644  0.5668 -3.5318
  883MOL0     H19200  11.249  10.563   3.366  0.1000 -0.4257 -2.1007
  883MOL0     H19201  11.367  10.368   3.268  0.4156  1.2792  1.0909
  883MOL0     H19202  11.196  10.322   3.302 -1.3189 -0.1876  1.6080
  883MOL0     H19203  11.465  10.094   3.553 -0.5669  0.0481  0.0817
  883MOL0     H19204  10.977  10.864   3.721 -1.5373  0.4617  0.7339
  883MOL0     H19205  10.728  10.892   3.657 -0.2672  1.3542 -2.8492
  884MOL0     O19206   4.958   7.867   8.272 -0.3177 -0.2551 -0.4571
  884MOL0     C19207   4.973   7.923   8.380  0.1713 -0.3204  0.8162
  884MOL0     O19208   4.885   7.933   8.479  0.6629 -0.0389  0.0902
  884MOL0     C19209   4.764   7.881   8.460  0.4482 -0.3556 -0.9884
  884MOL0     C19210   4.683   7.931   8.355 -0.2193  0.9995  0.0538
  884MOL0     C19211   4.548   7.894   8.337 -0.1301 -0.2638 -0.3132
  884MOL0     C19212   4.494   7.811   8.426  1.0612 -0.8454  0.6339
  884MOL0     O19213   4.360   7.781   8.404 -0.4757 -1.0985 -0.2785
  884MOL0     C19214   4.292   7.727   8.514  0.0339  1.2034 -0.8536
  884MOL0     C19215   4.147   7.692   8.473 -1.4518 -0.8192  0.1758
  884MOL0     C19216   4.051   7.816   8.471 -0.0685  0.7858 -0.3643
  884MOL0     C19217   4.022   7.877   8.609 -0.8995  0.0504  0.0350
  884MOL0     C19218   3.914   7.981   8.624 -0.5321  0.0200 -0.0887
  884MOL0     C19219   3.812   7.980   8.519 -0.0415  0.2068  0.1498
  884MOL0     C19220   3.707   7.869   8.536  0.0596  0.0969 -0.6871
  884MOL0     C19221   3.588   7.896   8.640 -0.7538  0.3214  0.0389
  884MOL0     N19222   3.493   7.980   8.573  0.7291 -0.9162  0.3281
  884MOL0     C19223   3.381   7.941   8.493 -0.2598 -0.4101 -0.4048
  884MOL0     C19224   3.314   8.061   8.474 -0.3993 -0.1579  0.7781
  884MOL0     C19225   3.188   8.085   8.404  1.1375 -0.1534 -0.7013
  884MOL0     C19226   3.063   8.075   8.501  1.1476 -0.2308 -0.5408
  884MOL0     C19227   2.936   8.132   8.435  0.3346  0.3723 -0.2536
  884MOL0     C19228   2.807   8.137   8.527  0.0884  1.2887 -1.2970
  884MOL0     O19229   2.707   8.214   8.463 -0.2064 -0.0296  0.7228
  884MOL0     C19230   2.579   8.159   8.472  0.2510 -0.3200  0.0706
  884MOL0     C19231   2.528   8.116   8.589  0.0902 -0.1970  0.3460
  884MOL0     C19232   2.393   8.070   8.603  0.2798  0.2391  0.0023
  884MOL0     C19233   2.353   8.012   8.736 -0.3490 -0.1719 -0.1387
  884MOL0     C19234   2.315   8.053   8.484 -0.5585  0.4962 -0.9316
  884MOL0     C19235   2.179   7.986   8.483 -0.0452  0.1924  0.4875
  884MOL0     O19236   2.147   7.934   8.361  0.3732  0.0140  0.7075
  884MOL0     C19237   2.013   7.933   8.336  0.7424  0.1855  0.4357
  884MOL0     C19238   1.961   8.040   8.264 -0.2918 -0.7088 -0.2333
  884MOL0     C19239   1.829   8.039   8.219  0.7152  0.4317  0.0492
  884MOL0     C19240   1.753   7.923   8.230  0.3771 -0.1611  0.8730
  884MOL0     O19241   1.644   7.904   8.155 -0.2022 -0.7819 -0.2449
  884MOL0     C19242   1.522   7.945   8.225 -0.4403  0.0207  0.3450
  884MOL0     C19243   1.485   7.860   8.344 -0.1890 -0.1775 -0.8394
  884MOL0     C19244   1.328   7.882   8.369  0.2636 -0.6883  0.2298
  884MOL0     C19245   1.289   7.809   8.500  0.3196 -0.5170 -0.2937
  884MOL0     C19246   1.152   7.822   8.549 -0.0959  0.4481 -0.3034
  884MOL0     C19247   1.063   7.741   8.456  0.8698  0.4315  0.3570
  884MOL0     C19248   0.935   7.720   8.530  0.7216  0.3653 -0.3824
  884MOL0     C19249   0.828   7.623   8.455  0.0120  0.1187  0.2104
  884MOL0    Cl19250   0.866   7.461   8.492  0.5158 -0.3464 -0.1411
  884MOL0     C19251   1.801   7.819   8.303  0.2799 -0.6098 -0.5199
  884MOL0     C19252   1.928   7.828   8.363 -1.0037 -0.1848 -0.6748
  884MOL0     O19253   2.106   7.992   8.583 -0.4688 -0.9670 -0.2570
  884MOL0     C19254   2.371   8.099   8.365 -0.5872 -0.6588 -0.6993
  884MOL0     C19255   2.496   8.154   8.360 -0.6141  1.0424  1.0455
  884MOL0     N19256   3.378   8.158   8.555  0.0126  0.2011  0.6169
  884MOL0     N19257   3.487   8.115   8.602  0.4418 -0.1205  0.4988
  884MOL0     C19258   4.572   7.764   8.533  0.0196  0.0222  0.0508
  884MOL0     C19259   4.707   7.800   8.546 -0.2427 -0.2936 -0.1918
  884MOL0     C19260   5.088   8.005   8.390 -0.9400 -0.6237  0.1758
  884MOL0     C19261   5.214   7.971   8.339  0.3089 -0.3315  0.2323
  884MOL0     C19262   5.321   8.066   8.345 -0.2721 -0.0823  0.4860
  884MOL0     C19263   5.298   8.196   8.402 -0.3800  0.4896 -0.1252
  884MOL0     O19264   5.399   8.290   8.403 -0.7638 -0.2962 -0.5282
  884MOL0     C19265   5.530   8.268   8.453 -0.2717 -0.2709  0.4809
  884MOL0     C19266   5.611   8.383   8.503 -0.1981  0.3248 -0.1541
  884MOL0     C19267   5.567   8.445   8.642  1.0531 -0.2911 -0.1956
  884MOL0     C19268   5.653   8.566   8.684  0.0651 -0.2571  0.5910
  884MOL0     C19269   5.589   8.630   8.799  0.3801 -0.0920  0.9121
  884MOL0     C19270   5.550   8.684   8.897 -0.8357 -1.6473  0.1064
  884MOL0     C19271   5.170   8.234   8.439 -0.4911  0.2673 -0.6944
  884MOL0     C19272   5.068   8.140   8.430  0.1817  0.1698  0.0611
  884MOL0     H19273   4.732   8.006   8.294  0.5794  1.2038  0.9165
  884MOL0     H19274   4.485   7.943   8.264 -1.9862  1.9627  2.5468
  884MOL0     H19275   4.335   7.629   8.537  0.0267  1.9360  3.1494
  884MOL0     H19276   4.310   7.779   8.609  2.9737 -0.8265 -0.1573
  884MOL0     H19277   4.158   7.644   8.375  0.1944  1.0275 -0.5963
  884MOL0     H19278   4.107   7.619   8.544  2.7892 -2.6962  0.9114
  884MOL0     H19279   4.092   7.894   8.408  0.9533  0.4340 -0.1521
  884MOL0     H19280   3.952   7.793   8.431 -0.2371 -1.5780  1.1828
  884MOL0     H19281   3.990   7.797   8.676 -0.0264 -0.6461 -0.3562
  884MOL0     H19282   4.113   7.928   8.643 -1.0343  0.1082  0.3117
  884MOL0     H19283   3.870   7.978   8.724  2.7121  3.6327  1.7144
  884MOL0     H19284   3.960   8.080   8.625  0.2452 -0.3389  0.5432
  884MOL0     H19285   3.755   8.073   8.528  0.2827  0.1888  3.1505
  884MOL0     H19286   3.850   7.992   8.417 -2.7804  3.8806 -0.6679
  884MOL0     H19287   3.657   7.862   8.439  2.0641 -1.6076 -1.6764
  884MOL0     H19288   3.752   7.772   8.557  2.9845  1.8152  1.6206
  884MOL0     H19289   3.616   7.937   8.738  1.0438  1.3176 -0.8349
  884MOL0     H19290   3.534   7.808   8.675  0.3682 -0.1764  0.5793
  884MOL0     H19291   3.357   7.840   8.459 -0.6925 -1.7757  3.4683
  884MOL0     H19292   3.184   8.187   8.365  0.1595  1.3407  2.8715
  884MOL0     H19293   3.173   8.018   8.318 -0.0419  0.5592 -1.0803
  884MOL0     H19294   3.083   8.125   8.596  0.3926 -0.0940 -0.4501
  884MOL0     H19295   3.044   7.970   8.526 -2.2336  1.3305  5.3111
  884MOL0     H19296   2.910   8.079   8.343 -1.8644  0.1723  0.4100
  884MOL0     H19297   2.960   8.236   8.412 -0.3437  0.2766 -1.5149
  884MOL0     H19298   2.841   8.193   8.615  2.0869  1.9297 -2.4053
  884MOL0     H19299   2.778   8.038   8.564  1.6388  2.0815  2.5235
  884MOL0     H19300   2.586   8.132   8.680 -0.4963 -0.2273  0.7310
  884MOL0     H19301   2.299   7.919   8.714 -0.7519  0.3948 -1.6776
  884MOL0     H19302   2.438   8.005   8.805 -1.1697 -0.7982  0.8518
  884MOL0     H19303   2.286   8.076   8.794  0.8583 -0.3929  1.5908
  884MOL0     H19304   2.035   8.115   8.237 -0.8980 -0.5275 -1.4330
  884MOL0     H19305   1.799   8.120   8.154 -0.0195 -1.1973 -1.7171
  884MOL0     H19306   1.531   8.051   8.247 -0.6860  0.2762 -0.7072
  884MOL0     H19307   1.434   7.942   8.160 -0.3854  3.0429 -0.0146
  884MOL0     H19308   1.493   7.752   8.328 -0.6730 -0.3872  0.3039
  884MOL0     H19309   1.547   7.882   8.431  2.0342  1.2424 -2.6643
  884MOL0     H19310   1.264   7.854   8.285  0.3690 -0.2664  0.0052
  884MOL0     H19311   1.311   7.990   8.378 -1.9199 -0.9919  0.1240
  884MOL0     H19312   1.305   7.701   8.485 -0.7572 -0.5630 -1.2604
  884MOL0     H19313   1.352   7.839   8.584  0.7898 -1.4854 -0.2767
  884MOL0     H19314   1.133   7.929   8.537  3.3914  1.3719  1.1917
  884MOL0     H19315   1.150   7.793   8.654  2.7987  2.1218  0.3084
  884MOL0     H19316   1.051   7.792   8.360  1.4494 -1.4721 -0.7874
  884MOL0     H19317   1.102   7.646   8.418 -4.2272 -0.2836 -4.3275
  884MOL0     H19318   0.891   7.817   8.553  0.0491 -0.1183  0.4452
  884MOL0     H19319   0.956   7.667   8.623  0.1825  0.1483 -0.3786
  884MOL0     H19320   0.823   7.625   8.346 -2.6783 -0.0120  0.2704
  884MOL0     H19321   0.728   7.640   8.496 -0.8449 -1.4143 -1.1697
  884MOL0     H19322   1.739   7.730   8.311  1.1574 -1.2168 -0.2646
  884MOL0     H19323   1.961   7.744   8.424 -1.3807 -0.4259 -0.8005
  884MOL0     H19324   2.307   8.095   8.278  0.5888 -0.4376 -1.6044
  884MOL0     H19325   2.531   8.175   8.259 -3.2904 -0.7234 -0.4081
  884MOL0     H19326   4.535   7.683   8.596  0.1675 -1.5875 -1.8044
  884MOL0     H19327   4.751   7.761   8.638 -3.2188  2.1791  2.5451
  884MOL0     H19328   5.229   7.878   8.286 -1.8212  0.0654 -1.1767
  884MOL0     H19329   5.418   8.043   8.304 -0.6842  0.1592 -0.6708
  884MOL0     H19330   5.524   8.194   8.533  0.9002 -0.9239 -0.0109
  884MOL0     H19331   5.586   8.216   8.375 -1.5544  0.2375 -0.8206
  884MOL0     H19332   5.620   8.460   8.426  0.7161  1.6605  1.2263
  884MOL0     H19333   5.711   8.345   8.527  0.2225  3.1009  3.2552
  884MOL0     H19334   5.563   8.368   8.720  3.0689 -1.2609 -0.9776
  884MOL0     H19335   5.471   8.493   8.626  0.4912 -1.6728 -1.2273
  884MOL0     H19336   5.657   8.641   8.605  0.9778  0.4422  1.2849
  884MOL0     H19337   5.749   8.524   8.713  1.3846  1.4064 -1.1396
  884MOL0     H19338   5.528   8.750   8.978  0.2158  0.7001 -1.3980
  884MOL0     H19339   5.149   8.339   8.457 -1.0927  0.2350 -1.1870
  884MOL0     H19340   4.966   8.170   8.450 -0.2011  0.0576 -1.5755
  885MOL0     O19341   1.498  11.107   9.266  0.5852 -0.0113  0.0794
  885MOL0     C19342   1.562  11.013   9.218 -0.3665 -0.0793  0.0545
  885MOL0     O19343   1.524  10.938   9.115  0.0235 -0.1970  0.4636
  885MOL0     C19344   1.394  10.913   9.076 -0.4267 -0.6828  0.6607
  885MOL0     C19345   1.372  10.889   8.936  0.3133 -0.8365 -0.4916
  885MOL0     C19346   1.244  10.850   8.886 -0.3376  0.2526 -0.3820
  885MOL0     C19347   1.137  10.849   8.990 -0.3453  0.2367 -0.3574
  885MOL0     O19348   1.009  10.815   8.969 -0.3889  0.1056  0.1370
  885MOL0     C19349   0.966  10.797   8.836 -0.1080 -0.1285 -0.5485
  885MOL0     C19350   0.813  10.789   8.843  1.3974 -0.0748 -0.4662
  885MOL0     C19351   0.757  10.667   8.926 -0.8943  0.6732  0.3778
  885MOL0     C19352   0.606  10.659   8.930  0.5183 -0.4960 -0.3075
  885MOL0     C19353   0.535  10.537   8.998  0.4318 -0.3335  0.3717
  885MOL0     C19354   0.388  10.518   8.944 -0.0037 -0.1705 -0.2210
  885MOL0     C19355   0.303  10.420   9.028 -0.2382  0.5717  0.6947
  885MOL0     C19356   0.200  10.344   8.950  0.1961  1.0907 -0.3059
  885MOL0     N19357   0.104  10.279   9.042  0.3387  0.4530  0.7658
  885MOL0     C19358  -0.006  10.332   9.100 -0.2149  0.6123 -0.9801
  885MOL0     C19359  -0.083  10.227   9.125  0.3031  0.3253  0.1310
  885MOL0     C19360  -0.234  10.229   9.186 -0.1021 -0.2713 -0.8659
  885MOL0     C19361  -0.234  10.154   9.322 -0.0042  1.3597 -0.7895
  885MOL0     C19362  -0.368  10.175   9.385  0.5563  0.0232 -0.3769
  885MOL0     C19363  -0.387  10.069   9.498  0.5394  0.2701 -0.1761
  885MOL0     O19364  -0.495  10.114   9.586  0.5033  0.2911 -0.4389
  885MOL0     C19365  -0.626  10.126   9.533 -0.3430 -0.6881  0.7854
  885MOL0     C19366  -0.696  10.017   9.484  0.2253  0.2594 -0.1532
  885MOL0     C19367  -0.838  10.025   9.451  0.3842 -1.0012 -0.6007
  885MOL0     C19368  -0.916   9.918   9.376 -0.1031 -0.2917  0.8222
  885MOL0     C19369  -0.901  10.147   9.481  0.2565 -0.2728  0.7162
  885MOL0     C19370  -1.058  10.158   9.477 -0.0925  0.3045  0.5638
  885MOL0     O19371  -1.113  10.184   9.594 -0.2758 -0.2948 -0.2737
  885MOL0     C19372  -1.245  10.229   9.599 -0.1869  0.0843  0.1873
  885MOL0     C19373  -1.300  10.327   9.518  0.3450  0.1228  0.8033
  885MOL0     C19374  -1.422  10.382   9.540  0.4913  0.3729 -0.0411
  885MOL0     C19375  -1.506  10.334   9.645 -0.4016 -0.2661  0.1812
  885MOL0     O19376  -1.626  10.397   9.676 -0.3301  0.4917  0.2236
  885MOL0     C19377  -1.699  10.435   9.556 -0.8641  0.2453 -0.5152
  885MOL0     C19378  -1.846  10.458   9.591 -0.0843  0.3868  0.3161
  885MOL0     C19379  -1.904  10.321   9.640 -0.1312  0.4653  0.4888
  885MOL0     C19380  -1.935  10.232   9.524  0.9687 -0.2348  0.4031
  885MOL0     C19381  -1.981  10.096   9.567  0.1827  0.0922  0.9117
  885MOL0     C19382  -2.109  10.057   9.478 -0.7198 -0.1562 -0.9096
  885MOL0     C19383  -2.179   9.923   9.508  0.1891 -0.1640 -0.5339
  885MOL0     C19384  -2.089   9.810   9.540 -0.2340  0.0895  0.1083
  885MOL0    Cl19385  -2.000   9.778   9.390  0.1364 -0.0657 -0.3491
  885MOL0     C19386  -1.452  10.242   9.728 -0.6896 -0.3789  0.1710
  885MOL0     C19387  -1.318  10.196   9.713  0.0527 -0.7740  0.2002
  885MOL0     O19388  -1.113  10.158   9.366  0.1239 -0.4891 -0.7449
  885MOL0     C19389  -0.830  10.254   9.532  0.5064 -0.3040 -0.7661
  885MOL0     C19390  -0.692  10.252   9.542  0.1870 -0.5782  0.8856
  885MOL0     N19391  -0.022  10.111   9.078  0.6543  0.6891 -0.0919
  885MOL0     N19392   0.096  10.140   9.035  0.0484  0.1234  0.3001
  885MOL0     C19393   1.160  10.878   9.129  0.2939  0.8269  0.2191
  885MOL0     C19394   1.286  10.906   9.163 -0.5428 -0.0728 -0.3462
  885MOL0     C19395   1.701  11.008   9.266 -0.1503  0.0587 -0.3273
  885MOL0     C19396   1.745  11.091   9.372 -0.9890  0.1755 -0.3558
  885MOL0     C19397   1.879  11.076   9.414  0.5923  0.0850  0.9941
  885MOL0     C19398   1.965  10.991   9.344 -0.0880 -0.1857 -0.6264
  885MOL0     O19399   2.095  10.966   9.380 -0.0690  0.4543 -0.5549
  885MOL0     C19400   2.157  11.002   9.499 -0.3491  0.1932  0.7491
  885MOL0     C19401   2.310  10.960   9.489  0.3491  0.7186  0.2189
  885MOL0     C19402   2.385  11.018   9.368 -0.8257 -0.2827 -0.4620
  885MOL0     C19403   2.422  11.176   9.387 -0.7156  0.7178  0.0048
  885MOL0     C19404   2.492  11.241   9.272  0.1747  0.4118 -0.7046
  885MOL0     C19405   2.561  11.286   9.182  0.0691  0.2948 -0.5098
  885MOL0     C19406   1.924  10.921   9.229  0.4793  0.1408 -0.1065
  885MOL0     C19407   1.786  10.926   9.197  0.4088  0.7105  0.3448
  885MOL0     H19408   1.455  10.920   8.874  1.1804 -0.1650  0.9704
  885MOL0     H19409   1.231  10.835   8.779  3.2713 -2.2818 -0.6293
  885MOL0     H19410   0.992  10.874   8.763 -0.4750  0.8675  0.3416
  885MOL0     H19411   0.994  10.697   8.799  0.5045  0.0810 -0.6503
  885MOL0     H19412   0.776  10.882   8.886 -3.0713 -1.8417  0.0842
  885MOL0     H19413   0.774  10.780   8.741  0.8333  1.5039 -0.4078
  885MOL0     H19414   0.792  10.571   8.886 -0.2760  0.3726  1.5699
  885MOL0     H19415   0.792  10.658   9.030 -0.1382  0.2883  0.0954
  885MOL0     H19416   0.563  10.737   8.993 -1.7843 -2.2608  0.4159
  885MOL0     H19417   0.579  10.672   8.825  1.0949 -1.9169 -0.6491
  885MOL0     H19418   0.584  10.444   8.969  4.1889  2.0947 -2.0715
  885MOL0     H19419   0.551  10.537   9.106  1.6828 -1.2988  0.2097
  885MOL0     H19420   0.340  10.615   8.938  1.5064  0.6591  0.4621
  885MOL0     H19421   0.393  10.472   8.845 -1.7506  0.3932 -0.5951
  885MOL0     H19422   0.375  10.358   9.083 -0.7713  0.8746  1.7757
  885MOL0     H19423   0.250  10.486   9.098 -1.1888  0.0938  0.4341
  885MOL0     H19424   0.243  10.264   8.889  0.7238 -2.5855  4.3526
  885MOL0     H19425   0.143  10.413   8.886  1.4322  1.9092 -0.5500
  885MOL0     H19426  -0.035  10.432   9.129 -2.8209 -1.2115  3.8514
  885MOL0     H19427  -0.256  10.330   9.220  1.2454 -0.3886  0.4716
  885MOL0     H19428  -0.310  10.193   9.116  1.3174 -0.3911 -2.4190
  885MOL0     H19429  -0.150  10.191   9.381  0.9305 -3.2203  1.1882
  885MOL0     H19430  -0.208  10.051   9.295  0.6818  1.6731 -1.3799
  885MOL0     H19431  -0.444  10.170   9.306  1.0906  1.4681 -1.0152
  885MOL0     H19432  -0.371  10.275   9.428 -0.8879 -0.3893  0.5742
  885MOL0     H19433  -0.295  10.055   9.555  0.5890 -0.0106 -0.3263
  885MOL0     H19434  -0.412   9.971   9.456 -0.2665  1.3189 -2.2747
  885MOL0     H19435  -0.654   9.919   9.463 -0.8490 -0.5001  1.0895
  885MOL0     H19436  -0.921   9.930   9.268 -0.4671  2.9399  1.1148
  885MOL0     H19437  -0.878   9.817   9.398 -0.4888 -0.1486  2.3036
  885MOL0     H19438  -1.020   9.924   9.409 -0.0897  1.5953  0.6278
  885MOL0     H19439  -1.233  10.372   9.445  1.7760 -1.0233  1.3512
  885MOL0     H19440  -1.468  10.456   9.475 -1.1094 -0.7229 -0.2226
  885MOL0     H19441  -1.660  10.531   9.522 -1.5764  0.4022 -0.9187
  885MOL0     H19442  -1.695  10.358   9.478 -2.1751  1.5613 -1.9728
  885MOL0     H19443  -1.862  10.525   9.675 -1.8566 -0.0726  0.3959
  885MOL0     H19444  -1.900  10.501   9.506 -1.0957 -1.7638 -0.2240
  885MOL0     H19445  -1.994  10.341   9.699  0.2184  1.1380  0.8112
  885MOL0     H19446  -1.831  10.260   9.694 -0.9565  0.2029  1.3377
  885MOL0     H19447  -2.001  10.281   9.452  0.9528 -0.4877  0.2406
  885MOL0     H19448  -1.837  10.230   9.475  1.2388  2.3658  0.6962
  885MOL0     H19449  -2.016  10.102   9.670 -1.1745 -0.4397  0.5064
  885MOL0     H19450  -1.901  10.021   9.561  2.8095  2.8149 -2.9490
  885MOL0     H19451  -2.177  10.142   9.472 -1.9582 -1.0804 -0.4233
  885MOL0     H19452  -2.083  10.043   9.373  0.2495  1.5198 -0.9248
  885MOL0     H19453  -2.255   9.897   9.434 -0.7716  0.5709  0.1696
  885MOL0     H19454  -2.240   9.943   9.597 -0.9828  1.7654 -1.6862
  885MOL0     H19455  -2.152   9.728   9.575  0.9904  0.1199  2.6163
  885MOL0     H19456  -2.011   9.820   9.616  1.5387 -0.9514 -1.5085
  885MOL0     H19457  -1.516  10.209   9.810 -0.3324  0.3495  0.7607
  885MOL0     H19458  -1.277  10.120   9.780  2.7630 -2.2108 -2.8345
  885MOL0     H19459  -0.885  10.345   9.555  1.1535  0.2609 -1.4077
  885MOL0     H19460  -0.639  10.339   9.580 -1.0241  0.4238  0.3461
  885MOL0     H19461   1.083  10.867   9.204 -0.5146  3.1364 -0.1797
  885MOL0     H19462   1.294  10.905   9.271 -0.1636 -3.3378 -0.2876
  885MOL0     H19463   1.675  11.160   9.418 -1.7804 -0.0056 -1.2599
  885MOL0     H19464   1.912  11.119   9.508 -1.9371 -0.2267  2.1032
  885MOL0     H19465   2.151  11.111   9.509  0.8082  0.5827 -1.9899
  885MOL0     H19466   2.119  10.957   9.591  0.7430 -1.2296  0.5404
  885MOL0     H19467   2.315  10.851   9.474  1.3732  0.6895  0.6564
  885MOL0     H19468   2.370  10.972   9.580  1.6890  0.5459 -0.6142
  885MOL0     H19469   2.338  11.007   9.270 -0.7772 -1.0392 -0.4058
  885MOL0     H19470   2.483  10.969   9.368 -0.9004 -0.4695  1.1187
  885MOL0     H19471   2.498  11.178   9.465 -2.2514 -1.0072  1.6559
  885MOL0     H19472   2.330  11.229   9.413 -0.8333  0.3713  0.3041
  885MOL0     H19473   2.629  11.333   9.113 -0.6886  1.9182 -0.2068
  885MOL0     H19474   1.995  10.860   9.175  0.6853  0.4865 -0.2346
  885MOL0     H19475   1.754  10.866   9.113  3.2001  0.4643 -0.6362
  886MOL0     O19476   6.963   5.870   6.753 -0.4483  0.0203 -1.2684
  886MOL0     C19477   6.996   5.771   6.824  0.5372 -0.0030 -0.0863
  886MOL0     O19478   7.081   5.779   6.933  0.2739 -1.0083 -0.3773
  886MOL0     C19479   7.161   5.886   6.974  0.9272 -0.1637 -0.6851
  886MOL0     C19480   7.284   5.857   7.030  0.0725 -0.0275  0.0067
  886MOL0     C19481   7.382   5.951   7.070 -0.1888  0.6821 -0.4813
  886MOL0     C19482   7.342   6.083   7.065  0.7696  0.4268  0.2368
  886MOL0     O19483   7.428   6.173   7.103 -0.2525 -0.2835  0.5475
  886MOL0     C19484   7.452   6.198   7.240 -0.6959 -0.0370 -0.0729
  886MOL0     C19485   7.363   6.302   7.307  0.1593 -0.8314 -0.5003
  886MOL0     C19486   7.348   6.431   7.240  0.0769  0.2720 -0.6033
  886MOL0     C19487   7.476   6.502   7.214  0.2180  0.1731 -0.2280
  886MOL0     C19488   7.449   6.652   7.186  0.5371 -0.4404 -0.3648
  886MOL0     C19489   7.576   6.727   7.209  0.2563  0.7260 -1.2666
  886MOL0     C19490   7.676   6.691   7.100  0.0760 -0.4748  0.5402
  886MOL0     C19491   7.792   6.795   7.093  0.0020 -0.1954 -0.0334
  886MOL0     N19492   7.776   6.912   7.004  0.0981 -0.0606 -0.6234
  886MOL0     C19493   7.739   6.910   6.872  0.5391 -0.2437 -0.4054
  886MOL0     C19494   7.730   7.040   6.834 -0.7929 -0.2911  0.4230
  886MOL0     C19495   7.700   7.113   6.704  0.1980 -0.6820  0.4064
  886MOL0     C19496   7.552   7.127   6.666  0.8991 -0.2642  0.3025
  886MOL0     C19497   7.480   7.195   6.779  0.4542 -0.0101 -0.0149
  886MOL0     C19498   7.327   7.188   6.776  0.0791  0.5784  0.1067
  886MOL0     O19499   7.277   7.316   6.827 -0.8197  0.2019  0.2695
  886MOL0     C19500   7.145   7.352   6.802  0.3020 -0.2083  0.2708
  886MOL0     C19501   7.100   7.460   6.878  0.6135  0.0238  0.3374
  886MOL0     C19502   6.970   7.521   6.861  0.5525 -0.5922  0.4444
  886MOL0     C19503   6.947   7.658   6.926  0.0902  0.4049  0.2365
  886MOL0     C19504   6.876   7.462   6.777  0.6155  0.3342  0.6155
  886MOL0     C19505   6.746   7.528   6.726  0.1661  0.8270  0.6034
  886MOL0     O19506   6.688   7.472   6.614 -0.9085 -0.1553  0.7600
  886MOL0     C19507   6.563   7.499   6.581  0.1153 -0.4391  0.6691
  886MOL0     C19508   6.481   7.398   6.554  0.4279 -0.3468 -0.6745
  886MOL0     C19509   6.350   7.421   6.516 -1.2565  0.6786  0.7845
  886MOL0     C19510   6.291   7.544   6.511 -0.0966 -0.8129 -0.1684
  886MOL0     O19511   6.157   7.549   6.468  0.0697  0.5088 -0.3901
  886MOL0     C19512   6.075   7.658   6.514 -0.6822  0.0974 -0.7792
  886MOL0     C19513   5.936   7.614   6.545  0.0229  0.8130 -0.2687
  886MOL0     C19514   5.824   7.665   6.461  0.0102 -0.5842 -0.0042
  886MOL0     C19515   5.785   7.818   6.477  0.8235  0.1045 -0.0146
  886MOL0     C19516   5.641   7.842   6.493  1.2025  0.8304  0.3496
  886MOL0     C19517   5.598   7.800   6.631 -0.1502  0.1216 -0.3917
  886MOL0     C19518   5.456   7.855   6.660  0.1884 -0.2879 -0.0813
  886MOL0     C19519   5.369   7.786   6.769 -0.6137 -0.4035 -0.4165
  886MOL0    Cl19520   5.228   7.885   6.810 -0.2886  0.2381 -0.0180
  886MOL0     C19521   6.377   7.655   6.542 -0.2117  0.8811  0.1351
  886MOL0     C19522   6.515   7.633   6.570 -0.6638  0.9862  0.0433
  886MOL0     O19523   6.701   7.616   6.796 -0.0452 -0.0850 -0.3706
  886MOL0     C19524   6.914   7.336   6.721 -0.6057 -1.2080 -0.4232
  886MOL0     C19525   7.049   7.289   6.720 -0.1433  0.2278 -0.2802
  886MOL0     N19526   7.743   7.111   6.955  0.4246  0.1272  0.6147
  886MOL0     N19527   7.779   7.038   7.052  0.0392 -0.9374 -0.2170
  886MOL0     C19528   7.219   6.119   7.005  0.5969  0.0360  0.2555
  886MOL0     C19529   7.127   6.022   6.962 -0.0047 -0.7636 -0.8974
  886MOL0     C19530   6.924   5.645   6.811  0.6177 -0.7154 -0.1347
  886MOL0     C19531   6.844   5.635   6.695  0.2078  0.6811 -0.3501
  886MOL0     C19532   6.765   5.521   6.681  0.7945 -1.2292  0.6956
  886MOL0     C19533   6.759   5.420   6.780  1.0456  0.3551  0.5430
  886MOL0     O19534   6.678   5.318   6.757  0.4534  0.3863  0.5248
  886MOL0     C19535   6.626   5.239   6.866 -0.7720 -0.1022 -0.3479
  886MOL0     C19536   6.485   5.287   6.908  0.2352 -0.0674  0.7158
  886MOL0     C19537   6.383   5.272   6.798 -0.4556  1.0361  0.3342
  886MOL0     C19538   6.357   5.133   6.736 -0.9083 -0.9871 -0.9819
  886MOL0     C19539   6.287   5.052   6.832  0.5474 -1.0580 -0.1715
  886MOL0     C19540   6.224   4.987   6.915 -0.5067 -0.6134 -0.3449
  886MOL0     C19541   6.837   5.438   6.897 -0.4735 -0.7282 -0.1532
  886MOL0     C19542   6.926   5.552   6.915  0.5721  0.3356 -0.5306
  886MOL0     H19543   7.301   5.751   7.041  0.0640 -0.1999 -1.4083
  886MOL0     H19544   7.476   5.911   7.105 -1.5073 -1.9795  0.3099
  886MOL0     H19545   7.449   6.107   7.301  1.2554  2.0991  3.5113
  886MOL0     H19546   7.555   6.228   7.262 -0.6208 -1.2670  1.4453
  886MOL0     H19547   7.264   6.256   7.296 -0.1073 -1.1600  2.4225
  886MOL0     H19548   7.364   6.313   7.416 -1.3206 -0.3547 -0.5116
  886MOL0     H19549   7.297   6.425   7.144  0.3125 -0.7039 -0.6813
  886MOL0     H19550   7.284   6.489   7.307 -0.2992  1.4296 -1.9161
  886MOL0     H19551   7.543   6.498   7.300  0.8609  4.1512 -0.3380
  886MOL0     H19552   7.529   6.453   7.131 -0.2651  0.4348 -0.6947
  886MOL0     H19553   7.414   6.654   7.082  0.7025 -0.1081 -0.4163
  886MOL0     H19554   7.379   6.706   7.251  3.4697  0.9460  1.9099
  886MOL0     H19555   7.562   6.836   7.215 -0.2144  0.5970  2.9778
  886MOL0     H19556   7.617   6.698   7.306 -2.3319 -1.3552 -0.7011
  886MOL0     H19557   7.728   6.594   7.102  2.0102  0.4174 -1.5251
  886MOL0     H19558   7.617   6.694   7.008  1.7155 -1.3286 -0.6048
  886MOL0     H19559   7.882   6.742   7.061  0.7960  0.7608  0.5821
  886MOL0     H19560   7.818   6.837   7.190 -0.4611  1.1604 -0.4652
  886MOL0     H19561   7.752   6.823   6.809  0.9852 -0.9746  0.6791
  886MOL0     H19562   7.731   7.218   6.704  0.7796 -0.8478  0.5705
  886MOL0     H19563   7.743   7.054   6.623  2.0149  1.6769 -0.4537
  886MOL0     H19564   7.508   7.028   6.651 -1.4819  0.7156  0.3641
  886MOL0     H19565   7.544   7.181   6.571  0.5686  0.5645  0.7869
  886MOL0     H19566   7.511   7.299   6.768 -3.2461  1.2340 -0.1079
  886MOL0     H19567   7.506   7.171   6.883  0.6406 -0.2087 -0.1074
  886MOL0     H19568   7.291   7.112   6.846  1.4728  0.7246  1.0315
  886MOL0     H19569   7.294   7.168   6.674  4.2179  2.2856 -1.8269
  886MOL0     H19570   7.171   7.524   6.930  1.5605  0.5625 -1.5137
  886MOL0     H19571   7.037   7.679   6.985  0.2663  0.2175  0.0368
  886MOL0     H19572   6.931   7.741   6.856  2.3708  1.2501  0.6349
  886MOL0     H19573   6.869   7.657   7.003  0.0972  2.1369  0.2998
  886MOL0     H19574   6.515   7.296   6.568 -2.2036 -1.1355  0.7270
  886MOL0     H19575   6.289   7.333   6.496 -2.4903  1.3062  1.6775
  886MOL0     H19576   6.108   7.700   6.610 -2.3253 -3.3277  1.4905
  886MOL0     H19577   6.073   7.726   6.428 -0.8304 -1.7323 -2.2927
  886MOL0     H19578   5.929   7.506   6.553  0.8423  0.8912  2.2408
  886MOL0     H19579   5.914   7.652   6.645  0.3192  2.7708 -0.8831
  886MOL0     H19580   5.726   7.617   6.474 -0.1697 -0.8797 -2.1258
  886MOL0     H19581   5.854   7.658   6.356 -1.9229  1.1945 -0.7629
  886MOL0     H19582   5.833   7.869   6.561 -0.9419  1.0795  0.4684
  886MOL0     H19583   5.805   7.880   6.389 -4.7752  0.6987 -1.2566
  886MOL0     H19584   5.580   7.790   6.418 -1.4207  2.0866  1.4830
  886MOL0     H19585   5.617   7.948   6.480 -2.3403  0.0650 -0.2392
  886MOL0     H19586   5.599   7.690   6.638  0.5849  0.0992 -0.7352
  886MOL0     H19587   5.667   7.845   6.702 -0.6956  0.9796 -0.3951
  886MOL0     H19588   5.402   7.842   6.565  0.4139  2.2440 -0.6363
  886MOL0     H19589   5.462   7.963   6.673  2.8011 -0.4579  0.5495
  886MOL0     H19590   5.419   7.777   6.865 -1.0196 -2.1816 -0.3397
  886MOL0     H19591   5.342   7.687   6.731  1.7192 -1.0539 -0.4876
  886MOL0     H19592   6.322   7.748   6.553 -1.0655  0.3156  0.8109
  886MOL0     H19593   6.575   7.718   6.599 -0.7077  0.8500  0.5470
  886MOL0     H19594   6.862   7.287   6.639  0.8902 -2.5873 -0.5780
  886MOL0     H19595   7.060   7.206   6.652 -1.3549 -1.3464  1.3534
  886MOL0     H19596   7.193   6.224   7.013 -0.7007 -0.4177  3.0078
  886MOL0     H19597   7.039   6.045   6.903  0.7710 -0.0063 -1.7847
  886MOL0     H19598   6.855   5.711   6.617  2.7367  1.5527  0.7479
  886MOL0     H19599   6.696   5.497   6.600 -0.8770 -0.8182  1.9431
  886MOL0     H19600   6.636   5.134   6.838 -0.2342 -0.4031  0.9167
  886MOL0     H19601   6.686   5.240   6.957 -1.2407 -1.6295  0.0035
  886MOL0     H19602   6.485   5.394   6.930 -0.8825  0.4075 -1.2786
  886MOL0     H19603   6.444   5.222   6.986 -0.3845  0.4252  0.8126
  886MOL0     H19604   6.427   5.336   6.720  0.1556 -0.0672 -0.2394
  886MOL0     H19605   6.287   5.316   6.825 -0.5115  1.9795 -1.2519
  886MOL0     H19606   6.453   5.088   6.710 -0.6453 -2.2993  1.9298
  886MOL0     H19607   6.294   5.151   6.648  0.9401  2.5164 -1.7987
  886MOL0     H19608   6.178   4.922   6.987 -0.0566  1.7056  2.2197
  886MOL0     H19609   6.834   5.370   6.982 -1.5625  0.8300  1.1070
  886MOL0     H19610   6.965   5.567   7.015  2.0073 -0.9808 -0.8663
  887MOL0     O19611   5.781  11.140   8.250 -0.0528  0.1171 -0.0702
  887MOL0     C19612   5.728  11.215   8.335 -0.2561 -0.0244  0.7146
  887MOL0     O19613   5.800  11.305   8.414 -0.1821  0.1502 -0.4217
  887MOL0     C19614   5.941  11.303   8.403  0.9074  0.4482  0.8069
  887MOL0     C19615   6.013  11.402   8.329 -0.6811 -0.0284  0.0583
  887MOL0     C19616   6.157  11.423   8.324  0.1892 -0.7239  0.5771
  887MOL0     C19617   6.224  11.323   8.399 -0.1541 -0.1590 -0.2137
  887MOL0     O19618   6.364  11.334   8.401  0.1929 -0.8838 -0.2888
  887MOL0     C19619   6.437  11.221   8.435 -0.8950  0.7219 -0.7107
  887MOL0     C19620   6.581  11.205   8.364  0.2969  0.2914 -0.0519
  887MOL0     C19621   6.559  11.186   8.218 -0.0745 -0.3906  0.5173
  887MOL0     C19622   6.669  11.126   8.136  0.7037 -0.1688  0.3294
  887MOL0     C19623   6.673  11.111   7.982 -0.0620 -0.4473 -0.2553
  887MOL0     C19624   6.606  11.229   7.912  0.4623  0.1078  0.7708
  887MOL0     C19625   6.579  11.205   7.764  0.7906  0.2796  0.4983
  887MOL0     C19626   6.514  11.333   7.712 -0.4006  0.3062  0.2274
  887MOL0     N19627   6.480  11.310   7.563 -0.4068  0.5375  0.0347
  887MOL0     C19628   6.363  11.267   7.505 -0.1246 -0.2625  0.0424
  887MOL0     C19629   6.382  11.261   7.374 -0.4696 -0.0557  0.1476
  887MOL0     C19630   6.279  11.224   7.273 -0.1522 -0.6763  0.4837
  887MOL0     C19631   6.144  11.294   7.286 -0.2719  1.0096 -1.4350
  887MOL0     C19632   6.158  11.439   7.255  0.8776 -0.1505  0.2440
  887MOL0     C19633   6.012  11.494   7.238 -0.8961 -0.8495 -0.0073
  887MOL0     O19634   5.942  11.467   7.366  0.4314  0.4312  0.6587
  887MOL0     C19635   5.805  11.468   7.378  0.2651 -0.0064 -0.6127
  887MOL0     C19636   5.720  11.535   7.291 -0.4809 -0.0382  0.4487
  887MOL0     C19637   5.583  11.557   7.304 -0.6537  0.1507  0.5091
  887MOL0     C19638   5.508  11.643   7.198 -0.2659  0.2905 -0.7202
  887MOL0     C19639   5.525  11.501   7.420 -0.0198  0.1293 -0.4069
  887MOL0     C19640   5.389  11.524   7.452  0.1125  0.1711 -0.7548
  887MOL0     O19641   5.291  11.484   7.361 -0.1425 -0.4802 -0.3974
  887MOL0     C19642   5.157  11.501   7.390  0.2727  0.6935 -0.5407
  887MOL0     C19643   5.069  11.503   7.277 -0.0453  0.9216 -0.5854
  887MOL0     C19644   4.934  11.513   7.294 -0.8307 -0.6435 -0.8113
  887MOL0     C19645   4.873  11.502   7.414 -0.4808  1.1516  0.4123
  887MOL0     O19646   4.733  11.507   7.424 -0.4185 -0.8965 -0.4452
  887MOL0     C19647   4.655  11.473   7.309 -0.4800  1.3756 -1.1470
  887MOL0     C19648   4.500  11.463   7.342 -0.8193  0.2687 -0.0530
  887MOL0     C19649   4.425  11.463   7.220 -0.0607 -0.8766  0.2735
  887MOL0     C19650   4.279  11.469   7.249  0.0135 -0.1445 -0.7695
  887MOL0     C19651   4.193  11.491   7.128  0.0014  0.1953  0.8377
  887MOL0     C19652   4.047  11.457   7.150  0.3852  0.6963 -0.2507
  887MOL0     C19653   4.030  11.306   7.135 -0.4918 -0.6067 -1.1678
  887MOL0     C19654   3.883  11.265   7.152 -0.6328 -0.3483  0.2982
  887MOL0    Cl19655   3.814  11.251   6.988 -0.1086  0.0345 -0.3182
  887MOL0     C19656   4.961  11.493   7.526  0.2814  0.2084  0.8062
  887MOL0     C19657   5.101  11.498   7.519 -0.3309 -0.1331  0.3320
  887MOL0     O19658   5.362  11.594   7.555  0.4261  0.6493  0.1261
  887MOL0     C19659   5.615  11.441   7.514 -0.0521 -0.5362 -0.3150
  887MOL0     C19660   5.752  11.420   7.492 -0.4113 -0.6874  0.7676
  887MOL0     N19661   6.516  11.281   7.349 -0.5231 -0.4715 -0.5910
  887MOL0     N19662   6.575  11.318   7.464 -0.2112  0.2379 -0.2670
  887MOL0     C19663   6.158  11.228   8.475 -0.3640  1.0523 -0.5933
  887MOL0     C19664   6.009  11.213   8.481 -0.4144 -1.1119 -0.3012
  887MOL0     C19665   5.589  11.217   8.351 -0.3298 -0.0918  0.7861
  887MOL0     C19666   5.518  11.316   8.424 -1.3528 -0.2848 -0.2850
  887MOL0     C19667   5.383  11.313   8.439  0.3457 -0.6256  0.6778
  887MOL0     C19668   5.306  11.209   8.394  0.3926  0.4344  0.0804
  887MOL0     O19669   5.168  11.193   8.400 -0.0989 -0.0830  0.2734
  887MOL0     C19670   5.081  11.304   8.433 -0.7465  0.7333 -0.5859
  887MOL0     C19671   4.955  11.229   8.449  0.8613  0.4289 -0.4128
  887MOL0     C19672   4.846  11.299   8.536 -0.1747  0.0525  0.3824
  887MOL0     C19673   4.713  11.229   8.528  0.9480  0.5321 -0.6965
  887MOL0     C19674   4.624  11.264   8.639 -0.0530 -0.1173 -0.3256
  887MOL0     C19675   4.551  11.279   8.735 -0.6038 -0.2152  0.4516
  887MOL0     C19676   5.371  11.107   8.319 -0.2228 -0.2671  0.0128
  887MOL0     C19677   5.512  11.110   8.305 -0.2552  0.0890  0.2683
  887MOL0     H19678   5.960  11.468   8.261 -0.7205 -0.6849 -0.5605
  887MOL0     H19679   6.214  11.503   8.277 -0.6942  0.6401  1.7713
  887MOL0     H19680   6.468  11.243   8.538  2.3734  0.2494 -1.4648
  887MOL0     H19681   6.397  11.121   8.416 -2.0657  1.3506 -1.6201
  887MOL0     H19682   6.639  11.298   8.365  2.4727 -1.0037  1.6197
  887MOL0     H19683   6.651  11.132   8.404  1.2808  1.4920  0.5104
  887MOL0     H19684   6.472  11.123   8.198  0.8917 -2.1743  1.6186
  887MOL0     H19685   6.527  11.283   8.180 -1.7509 -1.6509 -1.4717
  887MOL0     H19686   6.750  11.196   8.160 -1.3420  2.0188  1.2527
  887MOL0     H19687   6.705  11.029   8.170  1.8279 -0.7825 -2.3825
  887MOL0     H19688   6.779  11.111   7.952  0.4365 -1.4139  1.3660
  887MOL0     H19689   6.623  11.019   7.949  0.3116 -0.9801  0.6078
  887MOL0     H19690   6.507  11.232   7.957 -0.2626 -0.0098 -0.7452
  887MOL0     H19691   6.662  11.321   7.930 -1.1002  1.5016 -1.0841
  887MOL0     H19692   6.667  11.173   7.707 -0.1322 -2.9101  0.6932
  887MOL0     H19693   6.514  11.118   7.751  2.2252 -0.9630  1.1724
  887MOL0     H19694   6.582  11.417   7.722  0.7431 -0.5166 -0.3213
  887MOL0     H19695   6.417  11.360   7.755 -0.1141  1.4742  0.1703
  887MOL0     H19696   6.264  11.250   7.547  0.7936  0.4430  2.6331
  887MOL0     H19697   6.305  11.248   7.170  1.0827 -0.6183  0.7830
  887MOL0     H19698   6.263  11.115   7.274 -0.7538 -0.5982  1.7870
  887MOL0     H19699   6.107  11.287   7.389  0.2194  0.0484 -1.3005
  887MOL0     H19700   6.075  11.238   7.222  2.4073 -1.9709 -2.0061
  887MOL0     H19701   6.212  11.456   7.162 -2.0497 -0.2353 -1.5733
  887MOL0     H19702   6.204  11.497   7.336 -0.1694  1.0190  0.0201
  887MOL0     H19703   5.974  11.433   7.155  2.6475 -4.2263  0.5255
  887MOL0     H19704   6.007  11.601   7.216 -0.1562 -0.3869  1.8725
  887MOL0     H19705   5.759  11.588   7.205 -0.3590  0.8892  1.0672
  887MOL0     H19706   5.571  11.730   7.174  1.3827 -0.4698  0.6021
  887MOL0     H19707   5.483  11.585   7.109 -0.1399 -0.5111 -0.2376
  887MOL0     H19708   5.411  11.679   7.236  0.9303  3.7569 -0.5764
  887MOL0     H19709   5.118  11.504   7.181  2.0833 -0.3837  0.4135
  887MOL0     H19710   4.884  11.526   7.198  1.6539  1.1691 -1.9720
  887MOL0     H19711   4.662  11.559   7.241 -1.3135  1.6197 -0.9304
  887MOL0     H19712   4.684  11.380   7.258 -0.3773  1.6157 -1.5297
  887MOL0     H19713   4.481  11.368   7.393 -3.0134  0.7695  0.1637
  887MOL0     H19714   4.461  11.542   7.407  1.9130  1.3920  0.3916
  887MOL0     H19715   4.445  11.373   7.161 -1.0263 -2.4787  2.2626
  887MOL0     H19716   4.442  11.549   7.155 -0.9089 -2.7850 -2.6370
  887MOL0     H19717   4.263  11.375   7.303  3.5644  0.2478  1.2214
  887MOL0     H19718   4.251  11.546   7.322  0.6142  1.4286 -2.1377
  887MOL0     H19719   4.237  11.435   7.046  0.0220  0.7983  0.4287
  887MOL0     H19720   4.197  11.599   7.112 -2.7638  0.9812  4.1760
  887MOL0     H19721   4.022  11.491   7.251 -0.6557 -1.4360  0.2658
  887MOL0     H19722   3.990  11.513   7.076  2.2073 -0.1169 -2.4074
  887MOL0     H19723   4.084  11.252   7.213 -0.2065  1.0925 -0.1484
  887MOL0     H19724   4.082  11.269   7.046  0.3685 -0.3423 -0.7824
  887MOL0     H19725   3.820  11.341   7.199  1.7258  1.8089  0.2058
  887MOL0     H19726   3.882  11.171   7.207  0.7728 -0.9567 -0.6632
  887MOL0     H19727   4.910  11.484   7.622  0.6245 -0.0437  0.9678
  887MOL0     H19728   5.150  11.492   7.616 -0.5548  0.4006  0.4815
  887MOL0     H19729   5.567  11.391   7.598 -0.4489  0.3182 -0.0209
  887MOL0     H19730   5.825  11.371   7.556 -0.6951 -1.2391  0.6768
  887MOL0     H19731   6.212  11.157   8.536  0.2501  0.9927 -1.2006
  887MOL0     H19732   5.956  11.135   8.535 -0.5300 -2.2945 -2.0399
  887MOL0     H19733   5.565  11.407   8.462  0.1431 -1.3109  0.4072
  887MOL0     H19734   5.346  11.401   8.490  2.4453  0.6668  0.0934
  887MOL0     H19735   5.114  11.353   8.525  1.3071  0.1792 -0.9815
  887MOL0     H19736   5.081  11.373   8.348 -0.2805  1.7550  0.2273
  887MOL0     H19737   4.973  11.134   8.499  1.0115  0.5901 -0.1613
  887MOL0     H19738   4.909  11.187   8.359 -2.1432 -3.0742  2.4474
  887MOL0     H19739   4.846  11.406   8.513  0.6653 -0.1236 -0.4762
  887MOL0     H19740   4.869  11.303   8.643 -3.4432  1.4648  1.1733
  887MOL0     H19741   4.729  11.121   8.540 -0.6083  0.4940  1.7195
  887MOL0     H19742   4.664  11.246   8.432  1.7405  1.1944 -1.0031
  887MOL0     H19743   4.474  11.303   8.806 -1.8941 -0.3431 -0.8561
  887MOL0     H19744   5.314  11.023   8.282  1.7811 -0.5880 -2.6512
  887MOL0     H19745   5.554  11.020   8.259  1.1225  1.2378 -0.8417
  888MOL0     O19746   0.359   8.185   4.808  0.7079  0.1425 -0.1262
  888MOL0     C19747   0.379   8.111   4.904  0.4341  0.6335  0.5845
  888MOL0     O19748   0.279   8.049   4.984  0.0475  0.3216 -0.2604
  888MOL0     C19749   0.148   8.079   4.949  0.0777 -0.4540 -0.8755
  888MOL0     C19750   0.066   7.974   4.898 -0.3843 -0.3935 -0.4123
  888MOL0     C19751  -0.067   7.995   4.865  0.2214  0.3457  1.0393
  888MOL0     C19752  -0.124   8.124   4.885 -0.2234  0.0978 -0.5997
  888MOL0     O19753  -0.256   8.149   4.855 -0.1682 -0.7856  0.2843
  888MOL0     C19754  -0.348   8.049   4.811 -0.5335 -0.5744  0.1612
  888MOL0     C19755  -0.476   8.108   4.759  0.6508 -0.0666  0.9380
  888MOL0     C19756  -0.571   8.135   4.872  0.1350  0.4732  0.5506
  888MOL0     C19757  -0.633   8.021   4.945  0.4175 -0.5892 -0.0954
  888MOL0     C19758  -0.777   7.992   4.913  0.2504  0.1523 -0.1076
  888MOL0     C19759  -0.797   7.952   4.769 -0.0438 -0.1305  0.2676
  888MOL0     C19760  -0.953   7.951   4.745  0.5431 -0.8734 -0.8740
  888MOL0     C19761  -1.005   7.892   4.617  0.0456  0.1178  0.5401
  888MOL0     N19762  -1.150   7.913   4.604 -0.2754  0.3236 -0.2953
  888MOL0     C19763  -1.247   7.818   4.635  0.3195  0.1395  0.3163
  888MOL0     C19764  -1.356   7.864   4.574 -0.1224  0.0900 -0.3886
  888MOL0     C19765  -1.495   7.811   4.559  0.5025  0.0272  0.3569
  888MOL0     C19766  -1.567   7.883   4.675  0.3181  0.3926 -0.0483
  888MOL0     C19767  -1.714   7.844   4.689  0.0894 -0.3374  0.2799
  888MOL0     C19768  -1.789   7.913   4.799 -0.1920  0.1361 -0.1597
  888MOL0     O19769  -1.755   8.053   4.781  0.0193 -0.0731  0.0251
  888MOL0     C19770  -1.828   8.125   4.688  0.5941 -0.6539 -0.3412
  888MOL0     C19771  -1.820   8.262   4.681 -0.7174  0.6933 -0.7061
  888MOL0     C19772  -1.892   8.346   4.601  0.3015  0.1734 -0.9868
  888MOL0     C19773  -1.854   8.495   4.622  0.1272 -0.2600  0.3934
  888MOL0     C19774  -1.977   8.285   4.506 -0.2988 -0.0336  0.5448
  888MOL0     C19775  -2.052   8.352   4.393  0.1457 -0.0268 -0.5135
  888MOL0     O19776  -2.140   8.271   4.330 -0.1941 -0.4708  0.1119
  888MOL0     C19777  -2.214   8.321   4.232 -0.2754  0.0841 -0.3140
  888MOL0     C19778  -2.165   8.385   4.119  0.6225  0.0578  0.1348
  888MOL0     C19779  -2.249   8.437   4.021  0.0982 -0.4826 -0.1561
  888MOL0     C19780  -2.389   8.425   4.033  0.8222 -0.3361  0.2667
  888MOL0     O19781  -2.482   8.482   3.940 -0.5758 -0.3434 -0.4652
  888MOL0     C19782  -2.622   8.483   3.963  0.5808 -1.4469  0.6099
  888MOL0     C19783  -2.671   8.601   3.871 -0.3035 -0.4646 -0.4719
  888MOL0     C19784  -2.816   8.620   3.887  0.4627  0.0625 -0.3173
  888MOL0     C19785  -2.901   8.510   3.813  0.1411  0.0843  0.9117
  888MOL0     C19786  -3.056   8.538   3.836 -0.0561 -0.0824  0.6508
  888MOL0     C19787  -3.141   8.409   3.830 -0.1695  0.0726  0.2064
  888MOL0     C19788  -3.287   8.440   3.798  0.2925 -0.5591 -0.2817
  888MOL0     C19789  -3.368   8.311   3.806 -0.2256  0.0209 -0.0898
  888MOL0    Cl19790  -3.519   8.323   3.711 -0.6226  0.1112  0.0567
  888MOL0     C19791  -2.437   8.349   4.143 -0.0252 -0.5309 -0.2524
  888MOL0     C19792  -2.351   8.303   4.237  0.2826  0.6245  0.1085
  888MOL0     O19793  -2.017   8.472   4.369 -0.0389  0.2447  0.6158
  888MOL0     C19794  -2.013   8.149   4.528  0.5067  0.0862 -0.3009
  888MOL0     C19795  -1.941   8.072   4.617  0.3027  0.2936 -0.3373
  888MOL0     N19796  -1.322   7.989   4.525  1.0453 -0.5625 -0.3607
  888MOL0     N19797  -1.198   8.016   4.538  0.1630 -0.5573  0.6294
  888MOL0     C19798  -0.051   8.229   4.944 -0.3308 -0.4745  0.1880
  888MOL0     C19799   0.084   8.208   4.975 -1.5924  0.2258 -1.0430
  888MOL0     C19800   0.517   8.091   4.961  0.5145  0.2480 -0.4513
  888MOL0     C19801   0.624   8.155   4.901  0.2769  0.4194  0.3724
  888MOL0     C19802   0.759   8.137   4.949  0.4275 -0.4549  0.2328
  888MOL0     C19803   0.784   8.061   5.063  0.4641 -0.8906  0.3483
  888MOL0     O19804   0.908   8.032   5.125  0.0812 -0.1671  1.3895
  888MOL0     C19805   1.013   8.114   5.078  0.7904 -0.0204 -0.0321
  888MOL0     C19806   1.007   8.259   5.139  0.1039 -0.7166  0.3981
  888MOL0     C19807   1.018   8.278   5.298  0.1751 -0.4734  1.0340
  888MOL0     C19808   1.016   8.428   5.339 -0.4670  0.4185 -0.4372
  888MOL0     C19809   0.874   8.482   5.322  0.1608  0.2511 -0.6156
  888MOL0     C19810   0.766   8.534   5.305  0.0809 -0.2230  0.7582
  888MOL0     C19811   0.679   7.998   5.122 -0.8009 -0.0031 -0.5641
  888MOL0     C19812   0.546   8.019   5.076 -0.4043 -0.1993 -0.2354
  888MOL0     H19813   0.099   7.870   4.897 -2.1973 -1.0609  1.3469
  888MOL0     H19814  -0.121   7.910   4.823  0.0191  0.0927  1.7971
  888MOL0     H19815  -0.302   7.994   4.729 -0.9906 -5.0000  2.5793
  888MOL0     H19816  -0.384   7.985   4.892 -1.6121  0.3724  0.4550
  888MOL0     H19817  -0.472   8.207   4.714 -3.0169  0.9835  2.5314
  888MOL0     H19818  -0.528   8.043   4.688 -0.9246  0.6139  1.4143
  888MOL0     H19819  -0.511   8.186   4.947  3.6205  0.0069 -1.6864
  888MOL0     H19820  -0.653   8.196   4.832 -2.3459 -2.8475  0.1513
  888MOL0     H19821  -0.580   7.928   4.919  1.3307 -0.0005 -0.4078
  888MOL0     H19822  -0.629   8.042   5.052  1.2917 -0.4545 -0.1477
  888MOL0     H19823  -0.804   7.913   4.984  2.0648 -0.6462 -0.2648
  888MOL0     H19824  -0.833   8.084   4.932 -0.9690 -0.2767 -1.3863
  888MOL0     H19825  -0.746   8.020   4.700 -0.8202 -0.9379 -1.1515
  888MOL0     H19826  -0.751   7.854   4.755  1.1262  0.3393  0.6490
  888MOL0     H19827  -0.992   7.900   4.834 -1.4202 -3.1306 -2.8810
  888MOL0     H19828  -0.985   8.055   4.753  0.0212 -1.1486  1.1295
  888MOL0     H19829  -0.988   7.785   4.603 -0.5711  0.2300 -1.4036
  888MOL0     H19830  -0.962   7.939   4.529  0.1600 -2.2203 -0.7288
  888MOL0     H19831  -1.234   7.725   4.688 -0.4906 -0.4977 -0.5803
  888MOL0     H19832  -1.534   7.831   4.459  1.8332  2.7656  0.3020
  888MOL0     H19833  -1.496   7.703   4.579  2.5649 -0.3228 -1.1202
  888MOL0     H19834  -1.568   7.990   4.652 -2.6055  0.5907  0.5943
  888MOL0     H19835  -1.520   7.863   4.772  1.5815 -1.2792 -0.9532
  888MOL0     H19836  -1.721   7.735   4.693 -0.8507 -0.3571 -1.1409
  888MOL0     H19837  -1.753   7.878   4.593  1.3419 -0.6848 -0.3750
  888MOL0     H19838  -1.767   7.879   4.901 -1.8045  1.3817  0.6627
  888MOL0     H19839  -1.895   7.886   4.791  0.4587 -2.7437 -0.1051
  888MOL0     H19840  -1.754   8.310   4.752 -3.1057 -0.7872  2.7848
  888MOL0     H19841  -1.816   8.525   4.524  1.4679 -1.3916  0.5441
  888MOL0     H19842  -1.934   8.568   4.638 -0.3884 -1.0194  1.3916
  888MOL0     H19843  -1.787   8.513   4.706  0.6175  0.1889 -0.0879
  888MOL0     H19844  -2.059   8.404   4.104  0.8836  0.6088  2.3251
  888MOL0     H19845  -2.191   8.493   3.948 -1.0398  0.2737 -0.5222
  888MOL0     H19846  -2.659   8.389   3.922  3.3744 -3.3989  2.2003
  888MOL0     H19847  -2.658   8.497   4.066  1.4262 -0.6260  0.8063
  888MOL0     H19848  -2.622   8.690   3.912  1.4846 -1.6360  0.0702
  888MOL0     H19849  -2.643   8.583   3.767  2.2608 -0.7484  0.2031
  888MOL0     H19850  -2.847   8.718   3.848  3.2111  1.0401 -0.2289
  888MOL0     H19851  -2.843   8.614   3.992 -1.9741 -1.2449 -0.9486
  888MOL0     H19852  -2.879   8.501   3.707 -0.4383 -2.1985  0.9294
  888MOL0     H19853  -2.871   8.416   3.861 -3.2335 -1.6012  0.0154
  888MOL0     H19854  -3.084   8.623   3.772  3.7488  2.4303  1.9471
  888MOL0     H19855  -3.064   8.585   3.935 -1.3548 -0.5868  0.8072
  888MOL0     H19856  -3.097   8.352   3.747  0.1126  0.0879  0.3434
  888MOL0     H19857  -3.131   8.362   3.928  0.4803 -1.2060 -0.4425
  888MOL0     H19858  -3.288   8.486   3.698  1.2091  0.6817  0.2568
  888MOL0     H19859  -3.320   8.516   3.868 -0.0009 -0.2923 -0.7008
  888MOL0     H19860  -3.395   8.279   3.907 -0.3837  1.5009  0.3546
  888MOL0     H19861  -3.310   8.230   3.759  1.2188 -0.1299  1.8255
  888MOL0     H19862  -2.544   8.343   4.162 -0.3053  0.3723 -1.3997
  888MOL0     H19863  -2.384   8.249   4.326  2.6953 -0.1943  0.5799
  888MOL0     H19864  -2.087   8.109   4.459  0.3451 -0.7516  0.3400
  888MOL0     H19865  -1.980   7.971   4.623  1.2027  0.0168  1.3897
  888MOL0     H19866  -0.097   8.325   4.964  1.3445  0.2721  0.5526
  888MOL0     H19867   0.138   8.296   5.007 -1.8592  0.6031 -1.6076
  888MOL0     H19868   0.623   8.220   4.814 -1.1794 -0.5378 -0.3732
  888MOL0     H19869   0.835   8.195   4.899  0.1871  0.2285  0.6449
  888MOL0     H19870   1.104   8.060   5.103 -0.0027 -0.6318  1.6659
  888MOL0     H19871   1.019   8.133   4.970  0.5240  3.5156  0.4673
  888MOL0     H19872   0.907   8.294   5.110 -0.1564 -0.4345  1.5796
  888MOL0     H19873   1.091   8.311   5.093  0.2152 -2.8926 -2.0997
  888MOL0     H19874   1.114   8.240   5.333  1.3986  0.5873 -1.0296
  888MOL0     H19875   0.933   8.230   5.347  1.2307  1.0683  4.6871
  888MOL0     H19876   1.079   8.496   5.281 -2.1755  1.9791 -0.5617
  888MOL0     H19877   1.066   8.435   5.436  0.6935  2.8694 -1.1369
  888MOL0     H19878   0.680   8.597   5.301  1.2413  1.3987  0.5317
  888MOL0     H19879   0.687   7.925   5.202 -0.4519 -1.9136 -2.2657
  888MOL0     H19880   0.462   7.980   5.132 -1.0032 -0.5164 -1.3415
  889MOL0     O19881   5.840   6.337   9.134 -0.0233  0.8401 -0.2288
  889MOL0     C19882   5.895   6.390   9.038  0.9284 -0.9055 -0.1402
  889MOL0     O19883   5.826   6.433   8.923  0.2211  0.2045 -0.0229
  889MOL0     C19884   5.688   6.427   8.925  0.0027 -0.1916 -0.6176
  889MOL0     C19885   5.624   6.351   8.836  0.9562  1.5147 -0.1015
  889MOL0     C19886   5.478   6.348   8.831 -0.4073 -0.2308 -0.0290
  889MOL0     C19887   5.410   6.432   8.921 -0.0175  0.4657 -0.3669
  889MOL0     O19888   5.273   6.451   8.916  0.4050  0.5725 -0.9590
  889MOL0     C19889   5.211   6.407   8.794  0.2775  0.0971  0.1675
  889MOL0     C19890   5.060   6.413   8.798 -0.0425 -0.3768 -0.4428
  889MOL0     C19891   5.007   6.555   8.821  0.9283 -0.3777 -0.3078
  889MOL0     C19892   4.851   6.544   8.840  0.6587  0.2557 -0.1082
  889MOL0     C19893   4.784   6.673   8.879  0.0737 -0.0952 -0.6346
  889MOL0     C19894   4.760   6.758   8.763 -0.8125  0.2610 -0.1991
  889MOL0     C19895   4.692   6.879   8.815 -0.0652  0.7576  0.8142
  889MOL0     C19896   4.640   6.963   8.688 -0.0507 -0.5013 -1.0654
  889MOL0     N19897   4.545   7.063   8.717  0.3840  0.1094 -1.1752
  889MOL0     C19898   4.433   7.044   8.799  0.3720  0.4516  0.3974
  889MOL0     C19899   4.400   7.174   8.830  0.2182  0.1326  0.5818
  889MOL0     C19900   4.292   7.233   8.923 -0.1034  0.2543  0.6924
  889MOL0     C19901   4.148   7.188   8.884  0.5066 -0.7556 -0.1826
  889MOL0     C19902   4.057   7.265   8.983  0.6064  0.7717 -0.0815
  889MOL0     C19903   3.912   7.268   8.951 -0.9083 -0.0368  0.0277
  889MOL0     O19904   3.906   7.312   8.816 -0.1433  0.0305 -0.4199
  889MOL0     C19905   3.792   7.365   8.767 -0.0746  0.5540 -1.0146
  889MOL0     C19906   3.805   7.405   8.631 -0.2669  0.3518 -0.6599
  889MOL0     C19907   3.696   7.466   8.562  0.5309  0.5060  0.2050
  889MOL0     C19908   3.704   7.501   8.410 -0.4486 -0.8109 -0.1078
  889MOL0     C19909   3.574   7.482   8.638  0.1463 -0.2732  0.9990
  889MOL0     C19910   3.450   7.539   8.587  0.6149  0.3980 -0.3228
  889MOL0     O19911   3.339   7.484   8.638  0.0285  0.5232 -0.1521
  889MOL0     C19912   3.214   7.547   8.634 -0.3219  0.3445 -0.1103
  889MOL0     C19913   3.205   7.676   8.674 -0.2297 -0.1695  0.4135
  889MOL0     C19914   3.079   7.733   8.672 -0.5015 -0.0414  0.0243
  889MOL0     C19915   2.962   7.671   8.621  0.1784 -0.1506  0.3662
  889MOL0     O19916   2.844   7.744   8.639  0.5830 -0.0409 -0.5979
  889MOL0     C19917   2.727   7.669   8.643  0.3361  0.4424  0.8641
  889MOL0     C19918   2.603   7.750   8.662  0.7376 -0.0403 -0.3621
  889MOL0     C19919   2.473   7.668   8.700 -0.9258 -0.4925 -0.4241
  889MOL0     C19920   2.435   7.659   8.853  0.0437  0.2463  0.5615
  889MOL0     C19921   2.303   7.590   8.873 -0.0403  0.8668  0.0743
  889MOL0     C19922   2.278   7.581   9.023  0.5989  0.7417  0.2654
  889MOL0     C19923   2.254   7.728   9.076 -0.5315 -0.3745 -1.1787
  889MOL0     C19924   2.216   7.714   9.226  1.2296  0.2246  0.0735
  889MOL0    Cl19925   2.037   7.744   9.240  0.2865  0.1726  0.3974
  889MOL0     C19926   2.980   7.547   8.560  0.1846 -0.5767  0.3347
  889MOL0     C19927   3.103   7.485   8.567  0.2900 -0.3555 -0.4527
  889MOL0     O19928   3.453   7.636   8.513  0.0581  0.4929  0.1602
  889MOL0     C19929   3.561   7.436   8.769  0.0148 -0.0727 -0.0737
  889MOL0     C19930   3.673   7.388   8.841 -0.0533 -0.0901  0.1565
  889MOL0     N19931   4.480   7.254   8.758  0.3259 -0.2016 -0.5578
  889MOL0     N19932   4.565   7.189   8.693  0.4161 -0.0492  0.6663
  889MOL0     C19933   5.471   6.497   9.024  0.1205  1.0778 -0.5521
  889MOL0     C19934   5.615   6.492   9.024  0.8673 -0.6281  0.0351
  889MOL0     C19935   6.038   6.411   9.049  0.9880 -0.5115  0.0561
  889MOL0     C19936   6.109   6.463   8.936  0.9482 -0.1609 -0.1272
  889MOL0     C19937   6.242   6.509   8.948 -0.4729  0.1155  0.3631
  889MOL0     C19938   6.298   6.520   9.073 -0.2788 -0.1183 -0.6316
  889MOL0     O19939   6.424   6.574   9.098  0.6543  0.2702 -0.2651
  889MOL0     C19940   6.507   6.622   8.995 -0.1273 -0.2692  0.3803
  889MOL0     C19941   6.616   6.711   9.055  0.4728  0.1098  0.0868
  889MOL0     C19942   6.711   6.739   8.939  0.1829  0.2645  0.1257
  889MOL0     C19943   6.783   6.873   8.960 -0.7917  0.2878  0.1528
  889MOL0     C19944   6.873   6.878   9.080  0.5931 -0.2843  0.5840
  889MOL0     C19945   6.951   6.887   9.170  0.8093 -0.3961  0.4490
  889MOL0     C19946   6.232   6.461   9.177  0.1927  0.0284 -0.2103
  889MOL0     C19947   6.106   6.400   9.171 -0.6670  0.0433 -0.4755
  889MOL0     H19948   5.686   6.285   8.776  1.7463  1.7072  0.4930
  889MOL0     H19949   5.428   6.291   8.753 -2.0714  2.9175 -1.4658
  889MOL0     H19950   5.259   6.466   8.716 -1.1010 -0.2547 -0.9928
  889MOL0     H19951   5.225   6.299   8.783  1.1182 -0.1286  2.6904
  889MOL0     H19952   5.022   6.363   8.709  0.8101 -3.8990  0.9842
  889MOL0     H19953   5.032   6.351   8.884 -1.0363 -1.4288 -1.4850
  889MOL0     H19954   5.054   6.611   8.902 -0.7522  1.1388 -0.3243
  889MOL0     H19955   5.022   6.613   8.729  2.5575  3.6070  2.2272
  889MOL0     H19956   4.814   6.504   8.745  2.3203  0.7388 -1.0092
  889MOL0     H19957   4.830   6.464   8.911 -2.9348 -0.3856 -1.6914
  889MOL0     H19958   4.690   6.646   8.929  0.7381 -0.7628  0.2976
  889MOL0     H19959   4.846   6.732   8.947  1.3061  0.1553 -1.9460
  889MOL0     H19960   4.848   6.783   8.703  1.0786 -2.3655  1.2846
  889MOL0     H19961   4.704   6.687   8.701  3.5161 -2.6218 -1.2716
  889MOL0     H19962   4.617   6.844   8.886 -0.1214  1.1141  0.9320
  889MOL0     H19963   4.766   6.940   8.868  1.6863 -0.4416 -0.1525
  889MOL0     H19964   4.576   6.899   8.626 -1.4086  1.1660 -1.4664
  889MOL0     H19965   4.733   6.998   8.642  1.1827  1.2134  2.3846
  889MOL0     H19966   4.388   6.952   8.837 -1.7738  0.2436 -2.3402
  889MOL0     H19967   4.312   7.197   9.024  1.8232 -0.5172  0.0915
  889MOL0     H19968   4.299   7.342   8.929 -0.6590  0.2046  4.2745
  889MOL0     H19969   4.136   7.079   8.889  0.8643 -0.9290 -2.0974
  889MOL0     H19970   4.127   7.229   8.785  1.6663 -0.2940 -0.2478
  889MOL0     H19971   4.094   7.368   8.990 -1.9591  1.8571 -1.3172
  889MOL0     H19972   4.075   7.224   9.083  0.3487 -0.2513 -0.4415
  889MOL0     H19973   3.873   7.346   9.016 -2.8399 -0.6504 -0.3240
  889MOL0     H19974   3.850   7.181   8.977  0.1393 -0.9984 -0.6020
  889MOL0     H19975   3.900   7.376   8.588 -0.2397  0.9170 -0.9934
  889MOL0     H19976   3.755   7.424   8.350  0.9913  1.0473 -1.4045
  889MOL0     H19977   3.605   7.505   8.364 -0.6946 -0.3486  0.4659
  889MOL0     H19978   3.749   7.601   8.404  2.6836 -1.6978  4.0725
  889MOL0     H19979   3.291   7.723   8.722 -0.2089 -0.9333  1.1432
  889MOL0     H19980   3.062   7.828   8.721  0.8784 -1.0646  2.6870
  889MOL0     H19981   2.715   7.600   8.558  3.6943  0.2612  0.4216
  889MOL0     H19982   2.732   7.610   8.735  1.2796  0.3236  0.7395
  889MOL0     H19983   2.625   7.826   8.738 -1.2098 -1.1889  1.4477
  889MOL0     H19984   2.593   7.805   8.568  0.8764  0.7590  0.0781
  889MOL0     H19985   2.475   7.571   8.648 -2.6841  0.8068 -3.0826
  889MOL0     H19986   2.387   7.717   8.655  0.1152  1.0826 -0.7598
  889MOL0     H19987   2.519   7.611   8.903  0.3509 -2.5409 -2.3338
  889MOL0     H19988   2.431   7.760   8.896  1.5452 -0.2605  1.9867
  889MOL0     H19989   2.308   7.485   8.842 -1.3459  0.3506  1.4965
  889MOL0     H19990   2.225   7.645   8.819 -1.2505  0.9740  1.8336
  889MOL0     H19991   2.186   7.522   9.027  1.5216 -0.8084 -0.3579
  889MOL0     H19992   2.356   7.533   9.084  0.3740 -0.6092 -0.4645
  889MOL0     H19993   2.187   7.774   9.002  0.8671  1.0443 -1.6090
  889MOL0     H19994   2.330   7.806   9.075 -3.2483  2.5005  0.2221
  889MOL0     H19995   2.267   7.795   9.279  0.8969  0.3027  0.2744
  889MOL0     H19996   2.250   7.623   9.276  1.6451  0.1259 -0.3818
  889MOL0     H19997   2.901   7.492   8.509 -0.3962  0.4809  0.0619
  889MOL0     H19998   3.116   7.384   8.531 -0.5248 -0.9793  0.9608
  889MOL0     H19999   3.467   7.455   8.819 -0.3116  2.1065 -1.4116
  889MOL0     H20000   3.666   7.375   8.949 -0.5126 -1.0242  0.0250
  889MOL0     H20001   5.414   6.548   9.102 -1.1780 -4.0234  2.2379
  889MOL0     H20002   5.667   6.543   9.104  0.3597  0.0529 -0.0568
  889MOL0     H20003   6.060   6.452   8.840 -1.3066  1.8967  0.6716
  889MOL0     H20004   6.306   6.536   8.865 -0.7824 -0.7290 -0.1640
  889MOL0     H20005   6.547   6.530   8.949 -0.7102 -1.2604  1.7848
  889MOL0     H20006   6.449   6.675   8.919 -0.1292 -0.0537  0.5338
  889MOL0     H20007   6.668   6.656   9.134  0.7454  0.6077  0.2641
  889MOL0     H20008   6.574   6.800   9.103  0.8009  0.2416  0.1380
  889MOL0     H20009   6.659   6.759   8.844  2.2624 -1.5884 -1.5104
  889MOL0     H20010   6.774   6.652   8.919 -1.7883 -0.5518 -3.3527
  889MOL0     H20011   6.710   6.955   8.964 -1.5282 -0.2047 -1.7039
  889MOL0     H20012   6.843   6.907   8.875 -0.4000 -0.4840  0.1080
  889MOL0     H20013   7.024   6.903   9.247  3.5021 -3.1101 -1.3227
  889MOL0     H20014   6.285   6.456   9.271  2.0189 -0.4859 -1.2046
  889MOL0     H20015   6.064   6.365   9.265 -1.1264 -1.5910 -1.2601
  890MOL0     O20016   0.598   2.535   8.317  0.8075  0.7851  0.3532
  890MOL0     C20017   0.659   2.614   8.240 -0.2333 -0.0264  0.3853
  890MOL0     O20018   0.603   2.729   8.187  0.2147 -1.1976 -0.0099
  890MOL0     C20019   0.474   2.755   8.233 -0.5184  0.3118  0.2945
  890MOL0     C20020   0.441   2.791   8.371  0.2483 -0.9300  0.4908
  890MOL0     C20021   0.308   2.819   8.407 -0.2644  0.3174  0.0876
  890MOL0     C20022   0.205   2.826   8.310  0.3951  0.2386 -0.4804
  890MOL0     O20023   0.075   2.822   8.359  0.5383 -0.0252 -0.3548
  890MOL0     C20024  -0.036   2.814   8.271  0.0476 -0.4948 -0.0863
  890MOL0     C20025  -0.156   2.783   8.372  0.1889  0.8205  0.4830
  890MOL0     C20026  -0.156   2.636   8.411  0.5219 -0.8752 -0.2843
  890MOL0     C20027  -0.262   2.606   8.523 -0.8202  0.3171  0.7772
  890MOL0     C20028  -0.398   2.626   8.455 -0.0306  0.1426 -0.6617
  890MOL0     C20029  -0.512   2.575   8.544 -0.0720 -0.2392 -0.6881
  890MOL0     C20030  -0.646   2.620   8.472  1.0637 -0.2350 -0.1671
  890MOL0     C20031  -0.769   2.543   8.530 -0.1665 -0.8992  0.4032
  890MOL0     N20032  -0.887   2.577   8.447  0.1532  0.2694 -0.0610
  890MOL0     C20033  -0.963   2.690   8.445 -0.3113  0.0899  0.0209
  890MOL0     C20034  -1.088   2.654   8.392 -0.3968  0.6029  0.0531
  890MOL0     C20035  -1.221   2.722   8.381  0.4097 -0.6501  0.0665
  890MOL0     C20036  -1.263   2.753   8.238  0.2025  1.1073  0.7304
  890MOL0     C20037  -1.329   2.618   8.178 -0.8376  0.7315 -0.0509
  890MOL0     C20038  -1.358   2.638   8.025  0.4832  0.8015 -1.2007
  890MOL0     O20039  -1.469   2.732   8.018  0.6272  0.5449 -0.0231
  890MOL0     C20040  -1.598   2.700   8.024  0.0760 -0.3038 -0.4668
  890MOL0     C20041  -1.685   2.811   8.048  0.4422 -0.3352 -0.4862
  890MOL0     C20042  -1.824   2.796   8.044 -0.4682 -0.3781  0.6087
  890MOL0     C20043  -1.908   2.924   8.051  0.9230  0.3316 -0.0264
  890MOL0     C20044  -1.876   2.663   8.029  0.3015 -0.4612 -0.2915
  890MOL0     C20045  -2.019   2.634   8.025 -0.0631  1.1282  1.2085
  890MOL0     O20046  -2.098   2.715   8.084  0.2986  0.0762 -0.2065
  890MOL0     C20047  -2.239   2.692   8.075  0.2671 -1.5565  0.3727
  890MOL0     C20048  -2.312   2.730   7.961  0.0562 -0.2534 -0.3386
  890MOL0     C20049  -2.452   2.698   7.954 -0.3236 -0.2242  0.0014
  890MOL0     C20050  -2.519   2.635   8.060  1.4437 -0.4164  0.2828
  890MOL0     O20051  -2.648   2.606   8.064  0.8693  0.3736  0.2005
  890MOL0     C20052  -2.717   2.615   7.937  0.3608  0.6835 -0.1809
  890MOL0     C20053  -2.841   2.518   7.951  0.0749  0.3992  0.4656
  890MOL0     C20054  -2.941   2.570   8.062 -0.1424  0.1561  0.8133
  890MOL0     C20055  -3.049   2.463   8.083 -0.3260  0.0664 -0.4810
  890MOL0     C20056  -3.169   2.538   8.146 -0.3152 -0.5101  0.0167
  890MOL0     C20057  -3.285   2.426   8.166 -0.1426 -0.6272  1.0611
  890MOL0     C20058  -3.404   2.471   8.251  0.8061 -0.2024 -0.5341
  890MOL0     C20059  -3.516   2.370   8.283 -0.0912 -0.0526  0.8486
  890MOL0    Cl20060  -3.607   2.321   8.136  0.2761 -0.6999 -0.0480
  890MOL0     C20061  -2.449   2.609   8.176 -0.0972  0.5442 -0.4427
  890MOL0     C20062  -2.307   2.630   8.179 -0.0820  0.2012 -0.5339
  890MOL0     O20063  -2.051   2.534   7.956 -0.4785  0.2209 -0.9528
  890MOL0     C20064  -1.784   2.561   7.994 -0.0296  0.7725  0.4179
  890MOL0     C20065  -1.649   2.575   8.004 -1.1233 -0.7872 -0.4595
  890MOL0     N20066  -1.083   2.523   8.361 -0.0221  0.0944 -0.3224
  890MOL0     N20067  -0.963   2.481   8.385  0.1782 -0.5866 -1.2268
  890MOL0     C20068   0.241   2.813   8.178  0.5553  1.0356  0.6060
  890MOL0     C20069   0.376   2.774   8.139  0.9747 -1.0331  0.0080
  890MOL0     C20070   0.793   2.570   8.204 -0.4379  0.0705  0.6064
  890MOL0     C20071   0.842   2.442   8.238 -0.1703 -0.4270  0.1324
  890MOL0     C20072   0.977   2.403   8.217 -0.0121  0.2547 -0.7479
  890MOL0     C20073   1.066   2.478   8.144 -0.5688 -0.3878 -0.4968
  890MOL0     O20074   1.190   2.439   8.096 -0.1398  0.2165  0.3799
  890MOL0     C20075   1.245   2.314   8.138 -0.5841 -0.0261 -0.6348
  890MOL0     C20076   1.402   2.320   8.128 -0.5680 -0.2497  0.3657
  890MOL0     C20077   1.461   2.281   7.979  1.2735  0.3934 -0.2444
  890MOL0     C20078   1.620   2.278   7.983 -0.1577 -0.2451  1.2633
  890MOL0     C20079   1.663   2.253   7.843  0.4523 -0.3105  1.2007
  890MOL0     C20080   1.707   2.210   7.738  0.2787  0.6353 -0.2850
  890MOL0     C20081   1.015   2.606   8.115 -0.4076  0.1873 -0.3277
  890MOL0     C20082   0.886   2.657   8.136  0.0859  0.3510  0.2450
  890MOL0     H20083   0.519   2.787   8.446  1.0941 -2.5650 -0.4213
  890MOL0     H20084   0.271   2.824   8.509 -1.7341  0.3327 -0.4313
  890MOL0     H20085  -0.052   2.915   8.232  0.4606 -0.2360  0.3893
  890MOL0     H20086  -0.033   2.749   8.183  0.8496 -2.1190  1.0966
  890MOL0     H20087  -0.153   2.845   8.462  3.3930 -2.4011  2.8573
  890MOL0     H20088  -0.248   2.810   8.319  1.6077 -0.5246 -2.9343
  890MOL0     H20089  -0.182   2.572   8.326  0.1794  1.9703 -2.4501
  890MOL0     H20090  -0.052   2.623   8.445  1.5267  1.1183 -2.3518
  890MOL0     H20091  -0.251   2.501   8.553 -1.4383 -0.4758 -1.5808
  890MOL0     H20092  -0.254   2.674   8.609  1.5137 -2.0612  2.6356
  890MOL0     H20093  -0.410   2.733   8.433  1.3788  0.1814 -1.3591
  890MOL0     H20094  -0.397   2.574   8.359  3.1825 -3.1414  0.9083
  890MOL0     H20095  -0.508   2.467   8.560 -0.5812 -0.2720 -0.7753
  890MOL0     H20096  -0.500   2.627   8.640  1.7960  1.4198 -1.7403
  890MOL0     H20097  -0.654   2.725   8.500  0.1160 -0.5059  0.6105
  890MOL0     H20098  -0.630   2.616   8.364  1.9438  2.2058 -0.1832
  890MOL0     H20099  -0.789   2.573   8.633  2.8199 -0.0329  0.8373
  890MOL0     H20100  -0.748   2.437   8.519  3.5712 -0.1018 -2.3944
  890MOL0     H20101  -0.948   2.790   8.485  1.2389  0.7084 -1.9020
  890MOL0     H20102  -1.297   2.661   8.431  2.5180 -3.3009  0.2558
  890MOL0     H20103  -1.215   2.818   8.433 -2.5303 -0.9552  1.2029
  890MOL0     H20104  -1.177   2.785   8.178  0.2146  1.0006  0.6906
  890MOL0     H20105  -1.332   2.837   8.227 -1.2666 -0.2945 -1.5800
  890MOL0     H20106  -1.426   2.599   8.226 -0.8311 -0.9424 -0.6099
  890MOL0     H20107  -1.272   2.526   8.194 -0.9788  0.5474 -0.5771
  890MOL0     H20108  -1.378   2.541   7.980 -0.1638 -0.4460  1.5719
  890MOL0     H20109  -1.269   2.679   7.976 -0.5394  1.8648 -2.2262
  890MOL0     H20110  -1.649   2.914   8.049 -0.2104 -0.0991  1.2139
  890MOL0     H20111  -1.951   2.926   8.151 -3.3704 -2.3683 -1.5457
  890MOL0     H20112  -1.854   3.018   8.039  1.5817 -0.0012  0.2851
  890MOL0     H20113  -1.989   2.929   7.978  1.1840 -1.6430 -0.5282
  890MOL0     H20114  -2.254   2.783   7.886  0.1120 -0.9086 -0.7584
  890MOL0     H20115  -2.509   2.734   7.869  0.0709  3.0009  0.9354
  890MOL0     H20116  -2.758   2.714   7.915 -1.1501 -0.2169 -1.6922
  890MOL0     H20117  -2.661   2.571   7.854 -0.0759 -0.6059  0.1825
  890MOL0     H20118  -2.890   2.521   7.853 -1.6511 -0.9432  1.2212
  890MOL0     H20119  -2.832   2.411   7.968 -0.9540 -0.0050 -1.2442
  890MOL0     H20120  -2.977   2.669   8.031  0.3846 -0.4839 -2.1726
  890MOL0     H20121  -2.883   2.565   8.154  0.3492 -0.4959  0.4756
  890MOL0     H20122  -3.085   2.419   7.990 -0.2012  0.4712 -0.7236
  890MOL0     H20123  -3.014   2.377   8.141  2.8184  1.3777 -0.1963
  890MOL0     H20124  -3.200   2.622   8.084 -2.1005  0.1702  1.7358
  890MOL0     H20125  -3.129   2.579   8.239 -0.5497 -1.5629  0.5942
  890MOL0     H20126  -3.332   2.396   8.071  1.3603  1.5477 -0.4849
  890MOL0     H20127  -3.242   2.339   8.215  2.5030 -0.7346 -1.1961
  890MOL0     H20128  -3.458   2.552   8.200 -0.4796 -1.5511 -1.3941
  890MOL0     H20129  -3.362   2.488   8.351 -0.3997 -1.1589  0.1574
  890MOL0     H20130  -3.582   2.411   8.360 -0.5104 -1.1703  1.1104
  890MOL0     H20131  -3.467   2.276   8.312 -0.3905 -1.0104 -1.5820
  890MOL0     H20132  -2.500   2.557   8.257  2.3913 -1.2785  0.0472
  890MOL0     H20133  -2.247   2.585   8.258  0.8423  0.8822 -0.8308
  890MOL0     H20134  -1.818   2.459   7.980  2.1887 -0.0757  0.6457
  890MOL0     H20135  -1.579   2.493   7.989  1.6251  1.2097  0.4734
  890MOL0     H20136   0.168   2.813   8.098  1.0537 -1.6686  0.0392
  890MOL0     H20137   0.399   2.767   8.034 -1.2219 -1.4493 -0.4999
  890MOL0     H20138   0.789   2.365   8.294 -2.3437 -0.5811 -1.9674
  890MOL0     H20139   1.002   2.309   8.265 -0.7022 -1.2714 -3.1864
  890MOL0     H20140   1.220   2.295   8.242  3.3202 -0.9246  0.2889
  890MOL0     H20141   1.218   2.232   8.071  4.4779 -1.8128 -0.9257
  890MOL0     H20142   1.428   2.237   8.195  1.7814 -2.9468 -3.5011
  890MOL0     H20143   1.441   2.419   8.152  0.2296  0.0297 -1.9159
  890MOL0     H20144   1.420   2.353   7.906 -4.6552  0.3656  2.4446
  890MOL0     H20145   1.414   2.188   7.945 -4.3429  2.8583 -0.3876
  890MOL0     H20146   1.655   2.196   8.046  0.0545 -2.1353 -1.1621
  890MOL0     H20147   1.647   2.374   8.028  0.4208  0.5151 -0.5897
  890MOL0     H20148   1.747   2.152   7.658  4.5625 -0.6576  2.4672
  890MOL0     H20149   1.078   2.675   8.059 -0.4958  0.5794  0.0542
  890MOL0     H20150   0.860   2.750   8.087 -0.9095  0.1277  0.3279
  891MOL0     O20151   9.950   1.450   4.364 -1.2859 -0.5699  0.2154
  891MOL0     C20152   9.979   1.466   4.482 -0.2537 -0.2813  0.6555
  891MOL0     O20153   9.893   1.519   4.579 -0.1456 -0.3356 -0.0705
  891MOL0     C20154   9.782   1.586   4.537 -0.8027 -0.0007 -1.0058
  891MOL0     C20155   9.778   1.717   4.566  0.7263 -0.0801  0.6830
  891MOL0     C20156   9.680   1.799   4.515 -0.6457  0.6021 -0.5247
  891MOL0     C20157   9.579   1.743   4.447  1.0250 -0.1533  0.1038
  891MOL0     O20158   9.460   1.809   4.400  0.6638  0.6088 -0.7073
  891MOL0     C20159   9.443   1.951   4.424  0.0668 -0.4736  0.0857
  891MOL0     C20160   9.352   1.978   4.544 -0.7837  0.4032  0.2026
  891MOL0     C20161   9.208   2.011   4.511  0.2007  0.0776  0.3229
  891MOL0     C20162   9.133   2.058   4.630  0.1430 -0.2034  0.1796
  891MOL0     C20163   8.979   2.065   4.611 -0.7675 -0.5473  0.2121
  891MOL0     C20164   8.899   2.118   4.732 -0.1161  0.2060 -0.3723
  891MOL0     C20165   8.743   2.126   4.714  0.0785 -0.5730  0.3569
  891MOL0     C20166   8.679   2.209   4.830  1.1417  0.8249 -0.1529
  891MOL0     N20167   8.533   2.205   4.828 -0.8577 -0.1882  0.2934
  891MOL0     C20168   8.457   2.291   4.909  0.1798 -0.2751  1.7313
  891MOL0     C20169   8.337   2.237   4.896  0.1763 -0.0239 -0.0919
  891MOL0     C20170   8.218   2.317   4.932 -0.5245  0.1810 -0.1798
  891MOL0     C20171   8.174   2.264   5.077  0.5950 -0.5435  0.2715
  891MOL0     C20172   8.139   2.118   5.099  0.1073  0.9341 -0.5007
  891MOL0     C20173   7.985   2.082   5.068 -0.1751 -0.3055  0.2701
  891MOL0     O20174   7.907   2.118   5.179  0.1018  0.4512 -0.0925
  891MOL0     C20175   7.780   2.150   5.141 -0.1492 -0.0026 -0.1895
  891MOL0     C20176   7.704   2.089   5.044  0.1637 -0.4717  0.8328
  891MOL0     C20177   7.572   2.129   5.017 -0.4072 -0.3888 -0.1698
  891MOL0     C20178   7.493   2.075   4.901 -0.0528 -1.0190  0.2407
  891MOL0     C20179   7.520   2.241   5.088 -0.8624  0.9410  0.2428
  891MOL0     C20180   7.391   2.299   5.066  0.2085  1.3537  0.3053
  891MOL0     O20181   7.375   2.342   4.935 -0.0979  0.2685  0.7475
  891MOL0     C20182   7.264   2.418   4.902 -0.4631 -0.7022 -0.0827
  891MOL0     C20183   7.145   2.350   4.878 -0.1219  0.2437 -0.4945
  891MOL0     C20184   7.027   2.409   4.844  0.8001 -1.0028 -0.9617
  891MOL0     C20185   7.025   2.543   4.824 -0.2393 -0.0456  0.4101
  891MOL0     O20186   6.903   2.606   4.787 -0.2459 -0.1757 -0.6757
  891MOL0     C20187   6.861   2.699   4.880  0.6505  0.4603  0.0940
  891MOL0     C20188   6.715   2.733   4.847  0.1157 -0.5795 -0.2712
  891MOL0     C20189   6.643   2.815   4.953  0.4807 -0.0746 -0.0882
  891MOL0     C20190   6.494   2.847   4.907  0.1281  1.1042 -0.0345
  891MOL0     C20191   6.412   2.915   5.018 -0.4730  0.3965  0.1075
  891MOL0     C20192   6.310   2.816   5.083 -1.2433  0.4072  0.2567
  891MOL0     C20193   6.377   2.687   5.137 -0.8275  0.2104 -0.4667
  891MOL0     C20194   6.446   2.704   5.269 -0.3078  0.2353  0.2130
  891MOL0    Cl20195   6.501   2.550   5.316 -0.3234 -0.0976 -0.1473
  891MOL0     C20196   7.144   2.618   4.843 -0.1589  0.2382 -0.7231
  891MOL0     C20197   7.268   2.557   4.866 -0.1237 -0.2578 -0.5549
  891MOL0     O20198   7.310   2.304   5.150  0.1360  0.2561  0.0407
  891MOL0     C20199   7.598   2.298   5.191  0.7082  0.2467  0.2567
  891MOL0     C20200   7.719   2.247   5.221 -0.1515 -0.3399  0.2800
  891MOL0     N20201   8.335   2.130   4.811 -0.3661 -0.1078 -0.1474
  891MOL0     N20202   8.455   2.113   4.764  0.0088 -0.2015  0.0730
  891MOL0     C20203   9.584   1.611   4.411 -0.5911 -0.3309  0.9172
  891MOL0     C20204   9.689   1.523   4.463  0.3323  0.3234 -0.3499
  891MOL0     C20205  10.106   1.415   4.525 -0.7357 -0.0698 -0.3214
  891MOL0     C20206  10.186   1.324   4.448 -0.1595 -0.1141 -0.0623
  891MOL0     C20207  10.284   1.249   4.512  0.2864  0.1342  0.5887
  891MOL0     C20208  10.324   1.272   4.647 -0.4407  0.4108 -0.3952
  891MOL0     O20209  10.430   1.205   4.710 -0.1950 -0.1169 -0.0631
  891MOL0     C20210  10.442   1.199   4.858 -0.4395 -0.0404  0.5520
  891MOL0     C20211  10.520   1.076   4.906  0.1226 -0.2394  0.7669
  891MOL0     C20212  10.672   1.094   4.903 -0.3677 -0.6733  0.0850
  891MOL0     C20213  10.757   0.981   4.957  0.1525 -0.0925 -0.1303
  891MOL0     C20214  10.898   1.006   4.937  0.7078  0.9836  0.5877
  891MOL0     C20215  11.019   1.006   4.922 -0.1169  0.7002  0.0323
  891MOL0     C20216  10.235   1.357   4.719 -0.6561 -0.1173 -0.1817
  891MOL0     C20217  10.135   1.430   4.664 -0.9900  0.0772 -0.4383
  891MOL0     H20218   9.854   1.755   4.633  0.6418  0.3669  0.5326
  891MOL0     H20219   9.675   1.900   4.555 -1.5242 -0.7881  3.3572
  891MOL0     H20220   9.535   2.009   4.432  1.1736 -1.5678 -3.2912
  891MOL0     H20221   9.396   1.986   4.331 -0.2813 -0.2814  0.3278
  891MOL0     H20222   9.357   1.905   4.625 -2.9056  1.0403  0.9893
  891MOL0     H20223   9.388   2.069   4.591 -1.7200  1.0253 -0.2475
  891MOL0     H20224   9.207   2.084   4.429  1.0009 -2.4618 -2.1126
  891MOL0     H20225   9.168   1.913   4.486  0.4669 -0.1074  0.6299
  891MOL0     H20226   9.146   1.989   4.713 -0.5736  2.5481  2.7749
  891MOL0     H20227   9.171   2.156   4.659  3.2077 -1.0718 -0.5451
  891MOL0     H20228   8.967   2.132   4.525  1.9165  0.3356  0.4318
  891MOL0     H20229   8.940   1.967   4.586 -0.6175 -0.6675  0.4417
  891MOL0     H20230   8.923   2.066   4.825 -1.5434 -0.0850 -0.1430
  891MOL0     H20231   8.927   2.221   4.756  1.4420 -0.4820  0.9653
  891MOL0     H20232   8.718   2.175   4.619  1.7408 -4.7806 -2.5760
  891MOL0     H20233   8.695   2.027   4.708  1.6084 -1.3052 -0.4336
  891MOL0     H20234   8.722   2.310   4.833  3.2272 -0.0142 -0.3430
  891MOL0     H20235   8.699   2.156   4.924  0.7594  0.0124 -0.5260
  891MOL0     H20236   8.490   2.375   4.970 -0.7865  0.8930  0.7300
  891MOL0     H20237   8.241   2.424   4.930 -2.2533  0.7132  2.6960
  891MOL0     H20238   8.135   2.303   4.862 -0.6082  0.6238 -0.1680
  891MOL0     H20239   8.097   2.325   5.123 -0.2516 -0.3527 -1.3170
  891MOL0     H20240   8.265   2.282   5.134  1.5779  0.0229 -1.3889
  891MOL0     H20241   8.149   2.094   5.205 -2.9717  0.9239 -0.1040
  891MOL0     H20242   8.191   2.039   5.044 -0.4198  0.4863 -0.3704
  891MOL0     H20243   7.993   1.974   5.054  2.0348 -0.1147 -0.2846
  891MOL0     H20244   7.963   2.127   4.971  0.7808 -1.9569 -0.7505
  891MOL0     H20245   7.750   2.011   4.984 -4.2978 -2.0423 -0.9022
  891MOL0     H20246   7.385   2.086   4.914  0.0025  0.5400 -0.4674
  891MOL0     H20247   7.541   2.116   4.813  0.7780  0.1913  1.2281
  891MOL0     H20248   7.505   1.966   4.911  2.2340 -0.8042  0.2886
  891MOL0     H20249   7.140   2.242   4.892 -1.2637  0.3062 -0.2691
  891MOL0     H20250   6.936   2.350   4.840  0.3327 -0.4501  0.7450
  891MOL0     H20251   6.859   2.647   4.976 -0.1959 -0.9485 -0.6584
  891MOL0     H20252   6.922   2.790   4.889  1.9814 -0.4980  1.2588
  891MOL0     H20253   6.721   2.784   4.750  1.4384 -2.5246 -1.2870
  891MOL0     H20254   6.650   2.647   4.829 -1.4039 -0.5683  4.0940
  891MOL0     H20255   6.703   2.906   4.956  0.8774 -0.3302 -0.1935
  891MOL0     H20256   6.650   2.773   5.054  1.1652  5.3875  2.4945
  891MOL0     H20257   6.489   2.906   4.815 -0.7488 -0.3012 -0.9300
  891MOL0     H20258   6.449   2.755   4.869 -2.2553  2.9839 -2.0745
  891MOL0     H20259   6.355   3.000   4.981 -0.4156 -0.3115 -1.7270
  891MOL0     H20260   6.484   2.949   5.093 -1.5531  2.8166  0.1209
  891MOL0     H20261   6.264   2.864   5.171  0.0688 -1.8672  2.3289
  891MOL0     H20262   6.244   2.786   5.001  2.0264  1.9420 -3.1841
  891MOL0     H20263   6.452   2.651   5.067  0.1450 -0.0654  0.6896
  891MOL0     H20264   6.311   2.600   5.147  0.8097 -1.5032 -3.1308
  891MOL0     H20265   6.385   2.736   5.354  1.0917 -1.9897  2.1833
  891MOL0     H20266   6.533   2.770   5.258 -1.2000  1.2922 -0.7230
  891MOL0     H20267   7.130   2.726   4.837 -0.7951  0.1546 -0.8455
  891MOL0     H20268   7.355   2.617   4.889 -0.3476 -0.5058  1.1215
  891MOL0     H20269   7.563   2.387   5.242 -1.0936 -0.6557  0.6907
  891MOL0     H20270   7.780   2.298   5.295  0.2353 -0.5091  0.0844
  891MOL0     H20271   9.506   1.581   4.342 -0.0211  1.6694 -0.6890
  891MOL0     H20272   9.694   1.416   4.446 -0.9893  0.2650 -0.4896
  891MOL0     H20273  10.175   1.323   4.340 -1.3779 -0.2288  0.0533
  891MOL0     H20274  10.334   1.169   4.457 -0.7396 -0.6027  0.7163
  891MOL0     H20275  10.483   1.292   4.898 -0.5110 -0.5205  1.7718
  891MOL0     H20276  10.345   1.192   4.908 -0.3365  0.6392  0.8461
  891MOL0     H20277  10.486   0.989   4.849  0.2826 -1.5725  2.6158
  891MOL0     H20278  10.494   1.064   5.011 -0.8544  0.0054  0.5631
  891MOL0     H20279  10.700   1.181   4.963 -0.1210 -0.5061 -0.2689
  891MOL0     H20280  10.699   1.107   4.798 -1.1260  1.3753  0.0987
  891MOL0     H20281  10.740   0.882   4.912  1.6552 -0.3187 -0.2695
  891MOL0     H20282  10.753   0.969   5.065 -4.2980 -0.2063 -0.1035
  891MOL0     H20283  11.125   0.995   4.905  0.0459 -1.5041  1.9933
  891MOL0     H20284  10.254   1.375   4.824 -1.2886  1.3587 -0.2966
  891MOL0     H20285  10.076   1.491   4.731  0.8419  1.9468 -0.4039
  892MOL0     O20286   8.368  10.085   5.476 -0.6132  0.7985 -0.2208
  892MOL0     C20287   8.330  10.104   5.360 -0.6502  0.6106  0.2166
  892MOL0     O20288   8.200  10.079   5.319 -0.5483 -0.7775 -0.3760
  892MOL0     C20289   8.101  10.055   5.411  0.1232 -0.7612 -0.8355
  892MOL0     C20290   8.087  10.129   5.534 -0.5351  0.3682 -0.1147
  892MOL0     C20291   7.991  10.101   5.627 -1.0321  0.6573 -0.4597
  892MOL0     C20292   7.909   9.988   5.610  0.4328 -0.2002  0.1811
  892MOL0     O20293   7.822   9.975   5.715  0.0193  0.4556  0.0459
  892MOL0     C20294   7.701   9.916   5.682  0.9010 -0.6767  0.1567
  892MOL0     C20295   7.602   9.906   5.797 -0.5314  0.4812  0.4423
  892MOL0     C20296   7.468   9.857   5.750 -0.2036  0.5065  0.0296
  892MOL0     C20297   7.366   9.844   5.873 -0.7355 -0.7722 -0.1794
  892MOL0     C20298   7.236   9.784   5.818 -0.1551  0.9276 -0.2099
  892MOL0     C20299   7.149   9.741   5.939  0.0298  0.4763  0.2302
  892MOL0     C20300   7.008   9.719   5.882 -0.5388 -0.6809  0.7571
  892MOL0     C20301   6.891   9.694   5.968  0.5154  0.5058  0.4688
  892MOL0     N20302   6.907   9.569   6.038  0.4249  0.7564  0.1118
  892MOL0     C20303   6.904   9.445   5.982 -0.0504 -0.6799  0.7410
  892MOL0     C20304   6.908   9.363   6.087 -0.0649 -0.1418  0.6172
  892MOL0     C20305   6.893   9.210   6.079  0.5290  1.2233 -0.6549
  892MOL0     C20306   6.748   9.173   6.051 -0.8087  0.0179  0.1820
  892MOL0     C20307   6.649   9.183   6.167  0.2775  0.4791 -1.1204
  892MOL0     C20308   6.503   9.164   6.122 -0.0807 -0.5392 -0.5537
  892MOL0     O20309   6.467   9.247   6.018  0.4335  0.3329  0.2155
  892MOL0     C20310   6.339   9.286   6.007 -0.2930 -0.2360 -0.5903
  892MOL0     C20311   6.317   9.400   5.943  0.2531  0.6751  0.9605
  892MOL0     C20312   6.192   9.461   5.918 -0.0159 -0.5340  0.4724
  892MOL0     C20313   6.184   9.594   5.853  0.6596 -0.5870  0.3377
  892MOL0     C20314   6.077   9.391   5.968 -0.4131  0.4607  0.0315
  892MOL0     C20315   5.933   9.434   5.952 -0.0943  0.4269  0.4546
  892MOL0     O20316   5.902   9.541   5.865  0.1718 -0.0613 -0.6918
  892MOL0     C20317   5.767   9.565   5.850  0.1498 -0.0992  0.2989
  892MOL0     C20318   5.692   9.503   5.747  0.4923  0.2312 -0.1710
  892MOL0     C20319   5.550   9.526   5.741  0.5625  0.0792 -0.2501
  892MOL0     C20320   5.482   9.604   5.831 -0.3111 -1.3144  0.1378
  892MOL0     O20321   5.346   9.632   5.807  0.1615  0.4315 -0.3083
  892MOL0     C20322   5.270   9.610   5.925  0.0893  0.6380 -0.1846
  892MOL0     C20323   5.131   9.561   5.893 -0.0117 -0.2166  0.2474
  892MOL0     C20324   5.130   9.430   5.806 -0.7166 -0.3862  0.8952
  892MOL0     C20325   4.998   9.409   5.739  0.4040  0.4581  0.0591
  892MOL0     C20326   4.983   9.262   5.691 -0.4028  0.8073  0.2531
  892MOL0     C20327   4.944   9.169   5.801 -1.2932  1.0286  1.2827
  892MOL0     C20328   4.892   9.033   5.751 -0.0172  0.2869 -0.0682
  892MOL0     C20329   4.997   8.936   5.687 -0.3037  1.0555  0.1354
  892MOL0    Cl20330   5.138   8.899   5.793  0.0564 -0.1279  0.3946
  892MOL0     C20331   5.557   9.650   5.943  0.2789 -0.3483 -0.0849
  892MOL0     C20332   5.696   9.637   5.945 -0.5603 -0.4769  0.1635
  892MOL0     O20333   5.847   9.366   6.009 -0.2611 -0.4693  0.4474
  892MOL0     C20334   6.100   9.275   6.048  0.1400 -0.5279  0.6918
  892MOL0     C20335   6.231   9.225   6.067 -0.5454  0.0785  1.2234
  892MOL0     N20336   6.923   9.442   6.198 -0.9097 -0.1154 -0.1460
  892MOL0     N20337   6.929   9.565   6.168 -0.3317  0.3349  0.2475
  892MOL0     C20338   7.922   9.911   5.498  0.1581 -0.1867  0.3470
  892MOL0     C20339   8.015   9.940   5.404  0.9150 -0.4686 -0.0310
  892MOL0     C20340   8.438  10.146   5.266  0.2357  0.5275 -0.0230
  892MOL0     C20341   8.570  10.187   5.306  0.6302  0.8040 -0.1160
  892MOL0     C20342   8.646  10.239   5.212  0.1141 -0.5267  0.1723
  892MOL0     C20343   8.615  10.247   5.077  0.5412  0.0977  0.0517
  892MOL0     O20344   8.697  10.291   4.979  0.3678 -0.2940  0.4164
  892MOL0     C20345   8.835  10.322   4.995 -0.3282 -0.3126  0.5773
  892MOL0     C20346   8.842  10.475   5.035 -0.1359  0.0693 -0.4536
  892MOL0     C20347   8.975  10.513   5.097  1.0130  0.8568  0.1809
  892MOL0     C20348   9.068  10.549   4.973  0.7795  0.2188 -1.0140
  892MOL0     C20349   9.043  10.686   4.917 -0.3815 -0.0650  0.1762
  892MOL0     C20350   9.034  10.791   4.852 -0.0840 -0.0132  0.5689
  892MOL0     C20351   8.489  10.207   5.031 -0.7501  0.5209 -0.0066
  892MOL0     C20352   8.399  10.158   5.127 -0.2423  0.4834  0.6649
  892MOL0     H20353   8.159  10.208   5.555 -0.5077  0.0983  0.8496
  892MOL0     H20354   7.969  10.146   5.723 -1.8318 -2.1125  0.7544
  892MOL0     H20355   7.659   9.967   5.594  1.0454  0.8392  0.9423
  892MOL0     H20356   7.725   9.818   5.640  0.9173 -0.0653 -1.3164
  892MOL0     H20357   7.637   9.837   5.875  0.1129 -0.6596 -0.8093
  892MOL0     H20358   7.595  10.003   5.848 -0.9076 -0.1947  1.7258
  892MOL0     H20359   7.418   9.920   5.675  1.4648  0.6805 -0.9985
  892MOL0     H20360   7.479   9.758   5.704  1.2263  0.3569  0.6511
  892MOL0     H20361   7.408   9.780   5.951  0.5493 -2.8954 -2.4626
  892MOL0     H20362   7.355   9.948   5.905 -0.5809 -0.6050 -0.6547
  892MOL0     H20363   7.172   9.848   5.757 -0.8856  3.3342  2.8959
  892MOL0     H20364   7.271   9.693   5.767 -1.2882 -0.2959  1.1125
  892MOL0     H20365   7.187   9.652   5.989 -0.3618  0.8810  1.2811
  892MOL0     H20366   7.149   9.817   6.019 -1.2082  0.5884  0.1404
  892MOL0     H20367   6.991   9.806   5.817 -0.4568 -0.9079  0.4278
  892MOL0     H20368   7.015   9.634   5.813 -1.1305  1.2260 -1.8194
  892MOL0     H20369   6.801   9.687   5.907  1.0270  3.9019 -0.9154
  892MOL0     H20370   6.883   9.772   6.045  0.0810  0.7017  0.2320
  892MOL0     H20371   6.899   9.419   5.877 -0.5171  0.1968  0.5342
  892MOL0     H20372   6.960   9.175   6.000  0.7278 -0.0861  0.0680
  892MOL0     H20373   6.933   9.147   6.159  2.1100 -0.7071 -2.8679
  892MOL0     H20374   6.767   9.080   5.998  0.4502  1.2777 -1.7038
  892MOL0     H20375   6.706   9.233   5.969  1.6322  0.5218 -0.7647
  892MOL0     H20376   6.658   9.285   6.207 -1.9834  0.8038 -1.3437
  892MOL0     H20377   6.676   9.110   6.243  0.3025  1.5634 -0.0466
  892MOL0     H20378   6.442   9.181   6.211 -0.7425  1.7396 -1.3831
  892MOL0     H20379   6.488   9.059   6.093 -2.0330  0.5222 -3.8884
  892MOL0     H20380   6.408   9.447   5.907 -1.6065  2.5906 -1.5766
  892MOL0     H20381   6.125   9.580   5.762  0.1000 -2.1948  0.9233
  892MOL0     H20382   6.134   9.665   5.920 -0.6086  1.2593 -2.3591
  892MOL0     H20383   6.290   9.618   5.839  0.7928  0.6260  2.9137
  892MOL0     H20384   5.736   9.432   5.678 -2.7367 -0.3629 -1.8048
  892MOL0     H20385   5.486   9.466   5.676  0.5928 -2.0338  1.5323
  892MOL0     H20386   5.314   9.546   6.001  1.7709  2.9932  0.9476
  892MOL0     H20387   5.254   9.706   5.974 -1.5816 -0.2989  1.1915
  892MOL0     H20388   5.076   9.546   5.986  0.7628 -3.0387  0.3368
  892MOL0     H20389   5.080   9.642   5.839  0.2252 -1.7764 -2.4974
  892MOL0     H20390   5.168   9.343   5.861  0.9618 -0.9197 -0.9822
  892MOL0     H20391   5.204   9.444   5.727 -0.6715  0.6172  1.1041
  892MOL0     H20392   4.907   9.435   5.794  0.6664  0.5317  0.4546
  892MOL0     H20393   4.991   9.469   5.647 -1.1283  0.8682  0.4018
  892MOL0     H20394   5.077   9.230   5.645 -1.5130  0.6916 -2.0506
  892MOL0     H20395   4.910   9.257   5.610 -0.5881 -0.0642  0.4712
  892MOL0     H20396   5.025   9.159   5.874 -2.4149  1.9631  2.7127
  892MOL0     H20397   4.860   9.205   5.861 -2.7129  0.2683 -0.1732
  892MOL0     H20398   4.815   9.046   5.674  1.4851 -1.2023 -1.9396
  892MOL0     H20399   4.845   8.982   5.835  0.8954 -1.0784 -0.3457
  892MOL0     H20400   5.048   8.984   5.602  1.9447 -0.9604  0.2334
  892MOL0     H20401   4.951   8.850   5.638  0.8446  1.0953 -1.0758
  892MOL0     H20402   5.509   9.709   6.021  2.0417  0.4062  0.4891
  892MOL0     H20403   5.747   9.669   6.035 -2.3084 -1.0371  1.4078
  892MOL0     H20404   6.015   9.221   6.090 -1.8964  2.6296  0.9478
  892MOL0     H20405   6.241   9.139   6.132  0.5735 -0.3159  0.5598
  892MOL0     H20406   7.872   9.816   5.482 -0.1346  0.1483 -0.8143
  892MOL0     H20407   8.025   9.876   5.317  1.2423 -1.7480  0.9242
  892MOL0     H20408   8.594  10.174   5.411 -1.1445 -0.4904  0.1683
  892MOL0     H20409   8.735  10.291   5.246 -0.1108  0.0490 -0.1251
  892MOL0     H20410   8.881  10.253   5.067 -0.9528  0.9657  2.2729
  892MOL0     H20411   8.888  10.303   4.901  1.7562 -0.8672  1.7751
  892MOL0     H20412   8.767  10.502   5.110  2.7694  0.0593  2.7017
  892MOL0     H20413   8.825  10.540   4.949 -0.9484  0.6241  0.1122
  892MOL0     H20414   9.011  10.424   5.149 -1.9688 -0.1952  0.6234
  892MOL0     H20415   8.965  10.598   5.165  1.2017  0.9913  0.0418
  892MOL0     H20416   9.058  10.475   4.893 -2.4091 -1.5172  0.7582
  892MOL0     H20417   9.167  10.527   5.015 -0.1806 -0.7731  0.8843
  892MOL0     H20418   9.009  10.882   4.801  0.2862 -0.4414 -0.3825
  892MOL0     H20419   8.470  10.202   4.924 -1.4253 -1.2749  0.1650
  892MOL0     H20420   8.305  10.112   5.098  1.1798  0.1113 -4.2343
  893MOL0     O20421   7.627   5.360   8.550  0.1470  0.2634  0.0626
  893MOL0     C20422   7.630   5.344   8.671  0.0223  0.1601 -0.8177
  893MOL0     O20423   7.523   5.290   8.740  0.6221  0.2471 -0.5223
  893MOL0     C20424   7.407   5.257   8.672  0.5044  0.7154 -0.2033
  893MOL0     C20425   7.383   5.123   8.634 -0.0076 -0.1113 -0.7593
  893MOL0     C20426   7.257   5.081   8.586 -0.1843 -0.1406  0.8543
  893MOL0     C20427   7.148   5.174   8.573 -0.6556 -0.1567 -0.1359
  893MOL0     O20428   7.036   5.134   8.517  0.3713 -0.7760  0.7066
  893MOL0     C20429   6.930   5.229   8.491  0.5138 -0.2485 -0.1562
  893MOL0     C20430   6.815   5.159   8.406 -1.3815 -0.7238 -0.2026
  893MOL0     C20431   6.762   5.037   8.477  0.0547  0.1850  0.1770
  893MOL0     C20432   6.686   5.064   8.612  0.2306  0.0596 -0.1078
  893MOL0     C20433   6.633   4.938   8.682  0.3876  0.1810 -0.6615
  893MOL0     C20434   6.579   4.975   8.823  0.1052 -0.0640  0.0420
  893MOL0     C20435   6.538   4.853   8.899  0.8384  0.3382  0.1494
  893MOL0     C20436   6.490   4.893   9.040 -0.1846  1.0032 -0.3763
  893MOL0     N20437   6.374   4.975   9.042 -0.1763  0.2505  0.2083
  893MOL0     C20438   6.255   4.918   9.015  0.5716 -0.5637  0.6947
  893MOL0     C20439   6.172   5.013   9.064 -0.9725 -0.6475  0.3355
  893MOL0     C20440   6.030   5.008   9.087  0.7310 -0.3079  0.6043
  893MOL0     C20441   5.989   4.910   9.195  0.0272 -0.5809 -1.2066
  893MOL0     C20442   5.964   4.770   9.145 -0.2804  1.0551  0.4074
  893MOL0     C20443   5.978   4.667   9.252 -0.0284 -0.2260  0.2375
  893MOL0     O20444   5.881   4.698   9.356  0.7528 -0.2471 -0.6338
  893MOL0     C20445   5.741   4.700   9.345 -0.2301 -0.5502  0.6113
  893MOL0     C20446   5.658   4.642   9.245  0.0965  0.9760  0.3412
  893MOL0     C20447   5.518   4.644   9.252  0.1285 -0.6050  0.1438
  893MOL0     C20448   5.432   4.621   9.132 -0.1408 -1.0116  0.0351
  893MOL0     C20449   5.455   4.701   9.370  0.5341  0.3890  0.4308
  893MOL0     C20450   5.308   4.713   9.379 -0.6418  0.3706  0.0489
  893MOL0     O20451   5.273   4.815   9.468  0.4818 -0.2433  0.3941
  893MOL0     C20452   5.141   4.846   9.496 -0.2788 -0.3756  0.5490
  893MOL0     C20453   5.105   4.886   9.622  0.4587  0.2274  0.5450
  893MOL0     C20454   4.974   4.912   9.660  0.0145  0.3493  0.4834
  893MOL0     C20455   4.870   4.915   9.561 -0.4676 -0.0010 -0.6121
  893MOL0     O20456   4.741   4.940   9.597  0.3106 -0.9333 -0.4409
  893MOL0     C20457   4.713   5.070   9.655  0.9496 -0.1653  0.1143
  893MOL0     C20458   4.581   5.106   9.585 -0.4312  0.8077  0.5234
  893MOL0     C20459   4.451   5.031   9.626  0.0581 -0.0515 -0.0585
  893MOL0     C20460   4.323   5.090   9.556  0.2502 -0.5268  0.0398
  893MOL0     C20461   4.200   5.010   9.588  0.2021  0.5793 -0.6855
  893MOL0     C20462   4.076   5.081   9.565 -0.2105 -0.2255 -0.1129
  893MOL0     C20463   4.028   5.073   9.418  0.2337 -1.3358 -0.3770
  893MOL0     C20464   3.933   4.961   9.392 -0.0549 -0.0056 -0.3411
  893MOL0    Cl20465   3.877   4.965   9.216  0.4228 -0.6406 -0.2910
  893MOL0     C20466   4.915   4.901   9.427  0.2291  0.2062 -0.1374
  893MOL0     C20467   5.044   4.853   9.397  0.4988  0.0752 -0.3041
  893MOL0     O20468   5.231   4.631   9.326  0.1364 -0.3553 -0.0606
  893MOL0     C20469   5.536   4.757   9.468  0.0322 -0.8810  0.3493
  893MOL0     C20470   5.677   4.748   9.454  0.2249 -0.1552 -0.4046
  893MOL0     N20471   6.235   5.135   9.100 -0.5459  0.3823  0.8311
  893MOL0     N20472   6.360   5.104   9.080  0.4587 -0.5551  0.5584
  893MOL0     C20473   7.185   5.305   8.604 -0.3780 -0.5352  0.0212
  893MOL0     C20474   7.305   5.353   8.648 -0.4801  1.1239 -0.4027
  893MOL0     C20475   7.761   5.371   8.745  0.4430 -0.1870 -0.2171
  893MOL0     C20476   7.783   5.354   8.879 -0.1694  0.1560 -0.5810
  893MOL0     C20477   7.906   5.385   8.937 -0.1813  0.5902 -0.5708
  893MOL0     C20478   8.000   5.458   8.860  0.4879  0.4002 -0.3047
  893MOL0     O20479   8.120   5.509   8.898 -0.6279  0.2527  0.6066
  893MOL0     C20480   8.136   5.511   9.041  0.7435  0.3860  0.1082
  893MOL0     C20481   8.273   5.578   9.047  0.1436 -0.3641 -0.3246
  893MOL0     C20482   8.385   5.487   9.012 -0.3730 -0.4186  0.1601
  893MOL0     C20483   8.471   5.470   9.137 -0.0145  0.2706  0.0611
  893MOL0     C20484   8.401   5.398   9.242 -0.0545 -0.5319 -0.1692
  893MOL0     C20485   8.352   5.346   9.336  1.1466  0.5066  0.3142
  893MOL0     C20486   7.980   5.468   8.727 -0.1812  0.1658  0.2964
  893MOL0     C20487   7.861   5.432   8.665 -0.3266  0.1975 -0.3086
  893MOL0     H20488   7.463   5.052   8.651 -0.5570 -0.2592  1.4610
  893MOL0     H20489   7.240   4.974   8.573  0.5630 -0.2733  0.9204
  893MOL0     H20490   6.890   5.261   8.588  1.0790 -0.4190  0.1433
  893MOL0     H20491   6.967   5.321   8.447 -1.4766  0.4979 -0.3721
  893MOL0     H20492   6.743   5.241   8.403  1.3369  1.8290 -0.3566
  893MOL0     H20493   6.851   5.131   8.306  1.0427  1.9760 -0.2340
  893MOL0     H20494   6.685   5.003   8.407 -0.6067 -0.2826  1.1075
  893MOL0     H20495   6.835   4.957   8.494 -0.8210 -0.6025  0.3312
  893MOL0     H20496   6.759   5.111   8.679  1.5430  0.5248 -1.7969
  893MOL0     H20497   6.606   5.138   8.603  0.8374  1.0828  2.1282
  893MOL0     H20498   6.573   4.866   8.625  0.8411 -0.4743 -0.3188
  893MOL0     H20499   6.720   4.880   8.712  1.6485  2.4390  0.2466
  893MOL0     H20500   6.652   5.032   8.880 -0.0509  2.2977 -1.9668
  893MOL0     H20501   6.499   5.048   8.810  1.3656  1.7455  1.8869
  893MOL0     H20502   6.463   4.801   8.839  2.1215 -0.9654 -0.3946
  893MOL0     H20503   6.631   4.797   8.912  1.7714  1.6255 -0.6993
  893MOL0     H20504   6.573   4.943   9.091  0.7708 -1.8040  1.0045
  893MOL0     H20505   6.460   4.804   9.096 -0.0572  0.3725 -1.2947
  893MOL0     H20506   6.232   4.821   8.972 -5.0602  0.1017  1.4503
  893MOL0     H20507   6.003   5.111   9.113  2.1211  0.5840 -1.2644
  893MOL0     H20508   5.987   4.973   8.993  0.3445 -0.7203  0.9289
  893MOL0     H20509   5.896   4.936   9.245 -1.0320 -3.2001 -1.6191
  893MOL0     H20510   6.063   4.905   9.275 -0.4456 -0.8413 -0.7790
  893MOL0     H20511   6.039   4.735   9.074 -0.1648  0.3401  0.8793
  893MOL0     H20512   5.872   4.765   9.086  0.8411 -2.7124 -1.3250
  893MOL0     H20513   6.075   4.667   9.302 -1.1271  1.8181  2.5971
  893MOL0     H20514   5.951   4.577   9.197 -0.1563 -2.0402  3.1100
  893MOL0     H20515   5.706   4.604   9.155  2.6667 -0.2710  2.1034
  893MOL0     H20516   5.494   4.634   9.042  0.2153  2.6579  0.6703
  893MOL0     H20517   5.390   4.520   9.136  1.1439 -1.7101 -2.0103
  893MOL0     H20518   5.354   4.697   9.127  1.0165  0.1552 -1.2244
  893MOL0     H20519   5.179   4.898   9.700  1.2395  1.6960 -0.3634
  893MOL0     H20520   4.965   4.945   9.763 -0.5078 -0.5758  0.7463
  893MOL0     H20521   4.697   5.080   9.763  3.3230  0.0420  0.5024
  893MOL0     H20522   4.794   5.135   9.620  0.7452 -0.4808 -0.9784
  893MOL0     H20523   4.568   5.211   9.613 -1.8811  1.3566 -1.9594
  893MOL0     H20524   4.590   5.087   9.478  3.1925 -0.3876  0.9024
  893MOL0     H20525   4.438   5.048   9.733  0.0579  0.7754 -0.1836
  893MOL0     H20526   4.466   4.924   9.605  1.5686  0.4492 -1.7594
  893MOL0     H20527   4.302   5.196   9.576  0.8816 -0.3537 -0.1785
  893MOL0     H20528   4.330   5.104   9.448  1.3921  0.5636  0.2266
  893MOL0     H20529   4.215   4.993   9.695  2.9086 -2.6097 -1.4078
  893MOL0     H20530   4.197   4.912   9.539 -1.2226 -0.9861  2.2524
  893MOL0     H20531   4.008   5.036   9.639  1.9326 -0.8475  1.6152
  893MOL0     H20532   4.087   5.185   9.598  1.9054 -0.2482 -0.5961
  893MOL0     H20533   4.107   5.069   9.342  0.9316  0.5114  0.1927
  893MOL0     H20534   3.972   5.166   9.405 -1.4505 -2.1485  0.7752
  893MOL0     H20535   3.849   4.957   9.462 -2.3267 -0.9212 -2.9142
  893MOL0     H20536   3.999   4.874   9.404  0.8730  0.4006 -2.1525
  893MOL0     H20537   4.835   4.912   9.354  0.4128  1.1171 -0.2109
  893MOL0     H20538   5.050   4.813   9.296 -0.0787  0.5383 -0.5313
  893MOL0     H20539   5.496   4.798   9.561  1.8455  0.4045  0.6221
  893MOL0     H20540   5.737   4.785   9.536 -0.9647  1.7302 -0.3355
  893MOL0     H20541   7.124   5.391   8.579  1.8395  0.6503 -1.7193
  893MOL0     H20542   7.326   5.455   8.678  0.9486 -0.0193  2.9286
  893MOL0     H20543   7.720   5.301   8.950  1.7938 -2.4522 -0.6359
  893MOL0     H20544   7.904   5.357   9.042 -1.8363 -1.5202 -1.0739
  893MOL0     H20545   8.054   5.570   9.082  0.6039  1.4571 -1.6425
  893MOL0     H20546   8.144   5.412   9.088  0.6564 -1.5754 -3.6413
  893MOL0     H20547   8.294   5.618   9.147  1.1556 -1.3604 -0.1134
  893MOL0     H20548   8.293   5.662   8.979  2.0730 -0.9405 -0.5242
  893MOL0     H20549   8.449   5.535   8.937  0.4478 -1.3216  0.2757
  893MOL0     H20550   8.350   5.390   8.975  1.5686 -1.1269  0.0917
  893MOL0     H20551   8.515   5.561   9.178 -1.2216 -0.6824  3.9209
  893MOL0     H20552   8.553   5.407   9.100  0.6865  0.1835  1.6840
  893MOL0     H20553   8.308   5.287   9.414 -1.4298  1.7245 -0.1115
  893MOL0     H20554   8.064   5.513   8.676  0.9275  1.1626  2.8475
  893MOL0     H20555   7.848   5.445   8.558 -0.7184 -1.5698 -0.5163
  894MOL0     O20556  11.294   0.767   0.652  0.4326 -0.0169 -0.2887
  894MOL0     C20557  11.347   0.726   0.757 -0.0212 -0.5083  0.8959
  894MOL0     O20558  11.284   0.676   0.865  0.2100  0.4869  0.0266
  894MOL0     C20559  11.147   0.686   0.870 -0.1297 -0.7568 -0.2009
  894MOL0     C20560  11.074   0.586   0.812  0.5011  0.6237  0.4295
  894MOL0     C20561  10.936   0.596   0.815  0.1182  0.3175  0.3055
  894MOL0     C20562  10.878   0.704   0.883 -0.2715  0.6812 -0.8333
  894MOL0     O20563  10.743   0.706   0.896 -0.1890  0.0820  0.0146
  894MOL0     C20564  10.655   0.627   0.816  0.2224 -0.2804 -0.0048
  894MOL0     C20565  10.507   0.689   0.830 -0.1583 -0.4122  0.4905
  894MOL0     C20566  10.467   0.744   0.692 -0.3691 -0.1649 -0.1757
  894MOL0     C20567  10.335   0.816   0.699 -0.2430  1.1975  0.3673
  894MOL0     C20568  10.300   0.880   0.565  0.3812  0.0544  0.4175
  894MOL0     C20569  10.157   0.931   0.562 -0.2774 -0.9169 -0.8759
  894MOL0     C20570  10.130   1.050   0.664  0.2317  0.5888 -0.5705
  894MOL0     C20571  10.009   1.149   0.649 -0.2559 -0.8396  0.6688
  894MOL0     N20572  10.039   1.247   0.541  1.0564 -0.2920 -0.6855
  894MOL0     C20573  10.084   1.374   0.556 -0.6337  0.0062  0.0794
  894MOL0     C20574  10.090   1.433   0.430  0.6221 -0.5017  0.1981
  894MOL0     C20575  10.126   1.577   0.403 -0.0052  0.0346  0.3744
  894MOL0     C20576   9.994   1.646   0.364 -0.4709  0.9608 -0.1966
  894MOL0     C20577   9.933   1.618   0.239 -0.8922 -0.8950  0.2756
  894MOL0     C20578  10.029   1.646   0.124 -0.6796 -0.5432 -0.0131
  894MOL0     O20579  10.082   1.786   0.135  0.5546  0.5770  0.4651
  894MOL0     C20580  10.199   1.811   0.074  0.1424 -0.1703  0.5916
  894MOL0     C20581  10.268   1.715  -0.009 -0.3890 -0.1022 -0.6182
  894MOL0     C20582  10.400   1.734  -0.050  0.0087 -0.1596 -0.3718
  894MOL0     C20583  10.455   1.628  -0.144 -0.2512  0.2492 -0.5509
  894MOL0     C20584  10.457   1.861  -0.021 -0.2953 -0.7294 -0.6933
  894MOL0     C20585  10.595   1.902  -0.070 -0.8901 -0.6639  0.2588
  894MOL0     O20586  10.628   2.038  -0.051 -0.0308  0.4599 -0.0219
  894MOL0     C20587  10.757   2.091  -0.058 -0.3867 -0.7201 -0.2796
  894MOL0     C20588  10.758   2.230  -0.046 -0.7483  0.0326  0.6718
  894MOL0     C20589  10.873   2.306  -0.046  0.9363 -0.2390 -0.6153
  894MOL0     C20590  10.996   2.239  -0.062  0.0893 -0.9055  0.1293
  894MOL0     O20591  11.099   2.323  -0.058  0.1366  0.1791  0.0161
  894MOL0     C20592  11.219   2.295  -0.129 -0.2626  0.0022 -0.2923
  894MOL0     C20593  11.337   2.392  -0.093  0.3909 -0.2809  0.6409
  894MOL0     C20594  11.469   2.339  -0.168 -0.0741 -1.0866  0.3666
  894MOL0     C20595  11.575   2.447  -0.143  0.3299  0.3598  0.7920
  894MOL0     C20596  11.701   2.429  -0.241  0.1753 -0.0001  0.2372
  894MOL0     C20597  11.820   2.446  -0.148  0.8364 -0.5176  0.2754
  894MOL0     C20598  11.945   2.430  -0.224 -0.3397 -0.3725  0.0878
  894MOL0     C20599  11.982   2.539  -0.336 -0.2776 -0.1562  0.7102
  894MOL0    Cl20600  12.146   2.501  -0.413 -0.6015  0.3070 -0.3104
  894MOL0     C20601  11.004   2.102  -0.076 -0.2663  0.6033 -0.3821
  894MOL0     C20602  10.885   2.031  -0.082  0.5114 -0.0071 -0.5009
  894MOL0     O20603  10.671   1.825  -0.122 -0.5716  1.0030 -0.1436
  894MOL0     C20604  10.386   1.954   0.062 -0.6981  0.4537  0.6159
  894MOL0     C20605  10.265   1.921   0.111 -0.3187 -0.4262  1.2799
  894MOL0     N20606  10.047   1.325   0.346  0.3628 -0.5671 -0.3991
  894MOL0     N20607  10.017   1.222   0.414 -0.4009 -0.1625 -0.4313
  894MOL0     C20608  10.953   0.814   0.932  0.0870 -0.1466 -0.1584
  894MOL0     C20609  11.086   0.801   0.924 -0.2764  0.2840 -0.2187
  894MOL0     C20610  11.494   0.725   0.753  0.3804  0.0690 -0.4930
  894MOL0     C20611  11.559   0.696   0.637  0.6802 -0.6857  0.3525
  894MOL0     C20612  11.699   0.710   0.623  0.7655  0.1024 -0.6961
  894MOL0     C20613  11.773   0.753   0.729 -0.0426  0.8362 -0.6186
  894MOL0     O20614  11.903   0.778   0.695 -0.2518  0.3816 -0.0007
  894MOL0     C20615  11.989   0.873   0.762 -0.3366  0.6552 -0.8025
  894MOL0     C20616  12.061   0.792   0.873  0.4890 -0.2514 -0.6134
  894MOL0     C20617  12.168   0.882   0.938 -0.1567  0.0667 -0.2309
  894MOL0     C20618  12.249   0.796   1.033 -0.4751  0.1695  1.0488
  894MOL0     C20619  12.316   0.682   0.970 -0.0521  0.5396  0.3200
  894MOL0     C20620  12.368   0.590   0.912 -0.5928 -0.6624 -0.3293
  894MOL0     C20621  11.711   0.780   0.854 -0.5005  0.1211  0.2243
  894MOL0     C20622  11.569   0.760   0.862 -0.8400  0.4312 -1.0175
  894MOL0     H20623  11.123   0.499   0.768  1.3528  2.1767 -1.9132
  894MOL0     H20624  10.885   0.510   0.772 -0.2230  0.3080  0.7245
  894MOL0     H20625  10.687   0.626   0.711 -0.2582 -0.6898 -0.1532
  894MOL0     H20626  10.649   0.520   0.839 -1.0948 -0.6484 -1.8215
  894MOL0     H20627  10.436   0.606   0.844  1.5226 -2.0724 -0.3104
  894MOL0     H20628  10.497   0.765   0.908 -2.7098  0.2860 -0.4173
  894MOL0     H20629  10.545   0.807   0.648  0.2332 -0.9992 -0.3063
  894MOL0     H20630  10.456   0.658   0.626  1.8030  0.0070 -0.8197
  894MOL0     H20631  10.257   0.754   0.744  0.4786  0.2682  0.3565
  894MOL0     H20632  10.342   0.890   0.780 -2.6761  0.2596  1.5085
  894MOL0     H20633  10.374   0.955   0.536  1.2339 -1.4730 -1.6837
  894MOL0     H20634  10.313   0.806   0.485  1.5304  0.0642  0.5761
  894MOL0     H20635  10.134   0.957   0.458 -1.6462 -1.5682 -0.7585
  894MOL0     H20636  10.096   0.850   0.603  1.3705 -0.9683  1.6632
  894MOL0     H20637  10.106   1.007   0.762  0.5207 -0.0062 -0.7559
  894MOL0     H20638  10.227   1.100   0.669  0.7469 -0.4383 -0.1232
  894MOL0     H20639  10.010   1.197   0.747  0.9798 -0.5167  0.5213
  894MOL0     H20640   9.924   1.085   0.625 -0.8490  0.2575 -0.2314
  894MOL0     H20641  10.103   1.429   0.647  0.2807 -0.0771 -0.0558
  894MOL0     H20642  10.174   1.625   0.489  0.9323 -0.5205  0.1623
  894MOL0     H20643  10.207   1.577   0.331 -1.2552  1.7119 -1.1329
  894MOL0     H20644  10.002   1.755   0.371 -2.9312  1.3087 -1.7120
  894MOL0     H20645   9.923   1.615   0.441 -0.5284  1.3569 -0.0878
  894MOL0     H20646   9.844   1.678   0.218 -0.9564 -1.2228 -0.4521
  894MOL0     H20647   9.900   1.513   0.237 -0.1900 -1.1335  0.9323
  894MOL0     H20648   9.978   1.632   0.028  1.0835  1.6066 -1.3662
  894MOL0     H20649  10.103   1.566   0.123  0.8872  0.8157  1.0898
  894MOL0     H20650  10.218   1.627  -0.046  0.7000 -0.5217 -1.1342
  894MOL0     H20651  10.482   1.676  -0.239 -0.2543 -2.9542 -2.3265
  894MOL0     H20652  10.544   1.588  -0.095 -1.7130 -3.4003 -0.5568
  894MOL0     H20653  10.390   1.540  -0.157  0.4859 -0.6489  1.3979
  894MOL0     H20654  10.664   2.282  -0.039 -1.1672 -0.5366 -0.4859
  894MOL0     H20655  10.868   2.412  -0.024 -2.0087 -0.6622  1.3836
  894MOL0     H20656  11.265   2.206  -0.085  0.6661  1.1512  1.1411
  894MOL0     H20657  11.192   2.280  -0.234 -2.6939  0.1765  0.2469
  894MOL0     H20658  11.306   2.494  -0.118 -1.1878 -0.7526  0.5162
  894MOL0     H20659  11.351   2.385   0.015  1.3121 -0.4691  0.5182
  894MOL0     H20660  11.461   2.325  -0.277  2.5908  0.9229 -0.1800
  894MOL0     H20661  11.503   2.242  -0.131  0.4673 -2.2644 -2.8956
  894MOL0     H20662  11.541   2.548  -0.165  1.6089  0.6981  0.2480
  894MOL0     H20663  11.610   2.439  -0.039 -0.7182  2.8075  1.4123
  894MOL0     H20664  11.696   2.501  -0.323 -0.7989 -0.7562 -0.3957
  894MOL0     H20665  11.689   2.329  -0.285  0.2792  0.4550 -0.8673
  894MOL0     H20666  11.816   2.548  -0.109  3.3481 -0.7900  1.4574
  894MOL0     H20667  11.818   2.374  -0.066  2.6668 -2.7091 -1.4464
  894MOL0     H20668  11.956   2.328  -0.263 -0.6934  0.1377 -1.4165
  894MOL0     H20669  12.027   2.444  -0.153 -0.4944  1.7724 -0.0954
  894MOL0     H20670  11.986   2.637  -0.287 -1.6148 -1.2094  3.1120
  894MOL0     H20671  11.910   2.544  -0.418  0.2741  2.6578  0.2848
  894MOL0     H20672  11.102   2.058  -0.064 -0.8243 -0.0558  2.4663
  894MOL0     H20673  10.901   1.927  -0.111  1.2346  0.6621 -2.6327
  894MOL0     H20674  10.418   2.055   0.084  0.4495  0.0465  0.9277
  894MOL0     H20675  10.197   1.988   0.164 -0.6982 -1.1159  1.6701
  894MOL0     H20676  10.900   0.901   0.972  0.0180  0.3191 -1.2406
  894MOL0     H20677  11.148   0.880   0.964  1.7693  0.5052 -3.4701
  894MOL0     H20678  11.511   0.668   0.544 -1.5452  1.4603  0.7465
  894MOL0     H20679  11.742   0.714   0.524 -1.4401  0.2197 -1.7151
  894MOL0     H20680  12.061   0.920   0.695 -0.9974  1.8202 -0.7137
  894MOL0     H20681  11.938   0.960   0.805  4.6835  3.2864  0.6715
  894MOL0     H20682  12.116   0.706   0.835 -1.3019 -2.3156  1.2071
  894MOL0     H20683  11.985   0.763   0.946 -0.4720  0.3930 -1.3215
  894MOL0     H20684  12.123   0.956   1.005  1.2526 -0.1195  0.9763
  894MOL0     H20685  12.225   0.931   0.859 -2.1706  1.4896 -0.8830
  894MOL0     H20686  12.177   0.757   1.105 -0.5432  1.5394  1.7705
  894MOL0     H20687  12.324   0.858   1.084 -0.2356  2.1314 -1.4830
  894MOL0     H20688  12.413   0.511   0.856  0.2097  1.5853 -3.0489
  894MOL0     H20689  11.768   0.818   0.938  0.3662  1.2402 -0.8312
  894MOL0     H20690  11.520   0.774   0.958  2.5008 -2.8621  1.4677
  895MOL0     O20691  10.342   2.025  11.120 -0.8469  0.0874 -0.0197
  895MOL0     C20692  10.315   2.032  10.999 -0.1722  0.9256 -0.7491
  895MOL0     O20693  10.188   2.058  10.951 -0.0712  0.7719 -0.6002
  895MOL0     C20694  10.085   2.074  11.034  0.2126 -0.1175  0.1614
  895MOL0     C20695   9.999   2.186  11.021 -0.0247  0.4495 -0.1089
  895MOL0     C20696   9.880   2.183  11.103  0.8665  0.0189  0.4483
  895MOL0     C20697   9.864   2.086  11.202  0.0581  0.2390  0.4367
  895MOL0     O20698   9.755   2.096  11.286 -0.8972  0.6893  0.4064
  895MOL0     C20699   9.760   2.196  11.384 -1.0637 -0.5813 -1.0184
  895MOL0     C20700   9.645   2.179  11.483  0.4414 -0.0382 -0.2408
  895MOL0     C20701   9.617   2.029  11.525 -0.3456  0.2252 -0.2840
  895MOL0     C20702   9.495   2.038  11.613  0.3177  0.6899  0.6499
  895MOL0     C20703   9.427   1.896  11.621  0.2443 -0.6474  0.0273
  895MOL0     C20704   9.279   1.907  11.676  0.4266  0.1844  0.5471
  895MOL0     C20705   9.216   1.766  11.688  0.4409  0.2108 -0.6766
  895MOL0     C20706   9.067   1.764  11.710  0.3942  0.7902  0.5581
  895MOL0     N20707   9.034   1.818  11.842 -0.5559  0.3633  0.0238
  895MOL0     C20708   9.026   1.734  11.951 -0.7360 -0.9270 -1.2823
  895MOL0     C20709   8.977   1.816  12.054  0.1743 -0.2401 -0.1063
  895MOL0     C20710   8.956   1.764  12.193 -0.2235  0.0312  0.2182
  895MOL0     C20711   8.872   1.848  12.285 -0.2297 -0.4439  0.2417
  895MOL0     C20712   8.848   1.781  12.420  1.0109 -0.5402 -0.3480
  895MOL0     C20713   8.765   1.872  12.508  0.3106  0.4890 -0.0182
  895MOL0     O20714   8.848   1.953  12.582 -0.0574 -0.3737  0.7394
  895MOL0     C20715   8.787   2.013  12.688  0.0907 -0.3591  0.2141
  895MOL0     C20716   8.875   2.104  12.762  1.0531 -0.5936  0.4027
  895MOL0     C20717   8.823   2.180  12.875  0.0538 -0.5224  0.1696
  895MOL0     C20718   8.917   2.286  12.939  0.3597 -0.8480  0.6047
  895MOL0     C20719   8.688   2.173  12.910 -0.8595  0.4586  0.5007
  895MOL0     C20720   8.622   2.258  13.019  0.3525  0.2039  0.2323
  895MOL0     O20721   8.508   2.193  13.065  0.4522 -1.1644 -0.6194
  895MOL0     C20722   8.449   2.233  13.186  0.0772  0.4375 -0.5202
  895MOL0     C20723   8.506   2.317  13.281  0.0620 -1.2222 -0.4788
  895MOL0     C20724   8.426   2.364  13.388 -1.2281 -0.0359  0.3267
  895MOL0     C20725   8.292   2.320  13.399 -0.3705  0.2174 -1.2692
  895MOL0     O20726   8.220   2.357  13.515 -0.2233  0.0968  0.0775
  895MOL0     C20727   8.248   2.275  13.627 -1.0913  0.8749  0.3241
  895MOL0     C20728   8.143   2.300  13.740 -0.0388 -0.5377 -0.3417
  895MOL0     C20729   7.998   2.276  13.691  0.4272 -0.0673 -0.1696
  895MOL0     C20730   7.898   2.286  13.804 -0.2833 -0.0362  0.1368
  895MOL0     C20731   7.764   2.221  13.763 -0.0737  0.8272  0.2361
  895MOL0     C20732   7.654   2.270  13.844 -0.5129 -0.2198  0.1387
  895MOL0     C20733   7.525   2.192  13.826 -0.2301  0.3097  0.4003
  895MOL0     C20734   7.422   2.209  13.941  0.4498  0.0028 -0.0551
  895MOL0    Cl20735   7.296   2.098  13.904  0.2672  0.6680  0.5920
  895MOL0     C20736   8.246   2.230  13.309 -0.4458  0.9506  0.2359
  895MOL0     C20737   8.326   2.182  13.202  0.8581  0.1545 -0.1963
  895MOL0     O20738   8.645   2.377  13.048  0.5640 -0.0696  0.2610
  895MOL0     C20739   8.612   2.075  12.829 -0.0492 -0.6217 -0.6657
  895MOL0     C20740   8.656   1.998  12.732 -0.0312 -0.1841  0.6602
  895MOL0     N20741   8.971   1.941  12.004 -0.1925  0.5918  0.1521
  895MOL0     N20742   9.003   1.941  11.881 -0.0607  0.5465 -0.4926
  895MOL0     C20743   9.950   1.981  11.206  0.1041  0.6418  0.2162
  895MOL0     C20744  10.055   1.972  11.119 -0.2521  0.3959  0.9353
  895MOL0     C20745  10.417   2.018  10.895 -0.6518 -0.2539 -0.4702
  895MOL0     C20746  10.557   2.042  10.924  0.4034  0.7938  0.9380
  895MOL0     C20747  10.645   2.059  10.816  0.4156 -0.3850 -0.1783
  895MOL0     C20748  10.602   2.049  10.678  0.2767  0.3218  0.0842
  895MOL0     O20749  10.688   2.059  10.572 -0.1554 -0.0241 -0.6965
  895MOL0     C20750  10.693   2.196  10.527  0.3099  0.7378 -0.4558
  895MOL0     C20751  10.818   2.274  10.589  1.0859 -0.0556 -0.3970
  895MOL0     C20752  10.947   2.207  10.529 -0.6419 -0.0456 -0.1050
  895MOL0     C20753  11.080   2.253  10.598  0.0745  0.1058  0.3265
  895MOL0     C20754  11.085   2.213  10.735 -1.2848  0.0778  0.1345
  895MOL0     C20755  11.087   2.162  10.842  0.3397  0.0536 -0.0249
  895MOL0     C20756  10.468   2.029  10.654 -0.5591 -1.1140  0.4972
  895MOL0     C20757  10.381   2.005  10.755 -0.2624  0.3433  1.0639
  895MOL0     H20758  10.038   2.267  10.961 -0.1887  0.3761 -0.3140
  895MOL0     H20759   9.804   2.259  11.112 -1.0148 -1.6479 -0.4846
  895MOL0     H20760   9.852   2.188  11.442 -1.1792  0.1203 -0.7282
  895MOL0     H20761   9.767   2.295  11.339  3.5847 -0.9704 -1.5707
  895MOL0     H20762   9.675   2.238  11.570  1.0937  1.3630 -1.3808
  895MOL0     H20763   9.554   2.222  11.441 -0.3821 -0.5239  0.9992
  895MOL0     H20764   9.594   1.965  11.440  0.5082 -0.5419  0.0434
  895MOL0     H20765   9.695   1.973  11.577 -2.4826 -1.5284  1.1953
  895MOL0     H20766   9.496   2.080  11.714 -2.6345 -0.9762  1.4921
  895MOL0     H20767   9.431   2.100  11.549  2.3554  2.5322  0.2941
  895MOL0     H20768   9.426   1.842  11.526 -0.3305 -0.2297 -0.2114
  895MOL0     H20769   9.486   1.828  11.682  1.8140 -0.3403 -1.0511
  895MOL0     H20770   9.299   1.948  11.775  0.1911  0.5370  0.4494
  895MOL0     H20771   9.214   1.977  11.622 -2.1206 -0.5635  2.4858
  895MOL0     H20772   9.230   1.713  11.594 -0.0075  0.6577 -0.9998
  895MOL0     H20773   9.259   1.710  11.772 -1.0467  0.5303  0.3467
  895MOL0     H20774   9.026   1.663  11.705  2.0075  0.1655 -1.0066
  895MOL0     H20775   9.019   1.814  11.625  1.9736 -3.0677 -2.9876
  895MOL0     H20776   9.058   1.632  11.971 -2.1274 -0.9767  1.1185
  895MOL0     H20777   8.902   1.669  12.191 -0.2642  0.0687 -0.6978
  895MOL0     H20778   9.055   1.738  12.233 -0.2988  0.4046  0.6568
  895MOL0     H20779   8.773   1.856  12.239 -1.0955  1.9134  2.3501
  895MOL0     H20780   8.911   1.950  12.281 -0.9561 -0.1508  0.3932
  895MOL0     H20781   8.942   1.754  12.469  1.5349 -1.0317 -1.5806
  895MOL0     H20782   8.789   1.692  12.397  2.8458 -1.2731 -2.5430
  895MOL0     H20783   8.706   1.807  12.574 -0.4706  1.0301 -0.1671
  895MOL0     H20784   8.692   1.925  12.446  1.8104  0.8444 -1.5360
  895MOL0     H20785   8.981   2.119  12.742  0.6807  0.1971 -1.2128
  895MOL0     H20786   9.019   2.265  12.906  0.7130 -1.5362  2.0245
  895MOL0     H20787   8.880   2.384  12.909 -2.0059 -1.8425 -0.0181
  895MOL0     H20788   8.912   2.285  13.048  0.6222  0.7247  0.6494
  895MOL0     H20789   8.601   2.370  13.279 -1.0260  0.8950  0.1364
  895MOL0     H20790   8.472   2.417  13.471 -4.2740 -0.0821  2.1970
  895MOL0     H20791   8.250   2.171  13.593  0.3721  1.4200 -1.4861
  895MOL0     H20792   8.347   2.305  13.662 -0.7134 -0.3703  0.3678
  895MOL0     H20793   8.164   2.241  13.830 -2.4226 -0.4388  0.3462
  895MOL0     H20794   8.150   2.402  13.778  2.1689 -1.2233  1.3696
  895MOL0     H20795   7.997   2.173  13.654  2.2935 -0.4638  0.7367
  895MOL0     H20796   7.965   2.349  13.617  0.0363 -2.1936 -2.2030
  895MOL0     H20797   7.944   2.235  13.889  0.1688  1.9930  1.1533
  895MOL0     H20798   7.877   2.390  13.828  0.4853  0.5080 -1.3895
  895MOL0     H20799   7.770   2.113  13.775  0.2939  0.7562 -0.5379
  895MOL0     H20800   7.748   2.245  13.658 -0.7289 -0.5506  0.0045
  895MOL0     H20801   7.689   2.270  13.947  2.1267 -2.6047 -0.6393
  895MOL0     H20802   7.644   2.374  13.810 -0.0821 -0.4323 -0.6880
  895MOL0     H20803   7.542   2.086  13.805 -0.4866  0.5954 -1.4660
  895MOL0     H20804   7.480   2.228  13.732  0.7815  0.5736  0.0080
  895MOL0     H20805   7.391   2.314  13.946  0.2091 -0.1125  3.7697
  895MOL0     H20806   7.469   2.189  14.038  1.0086 -2.5245 -0.7707
  895MOL0     H20807   8.146   2.194  13.327 -1.1984  2.4112 -0.8121
  895MOL0     H20808   8.291   2.105  13.134  4.4218 -0.5956 -1.3810
  895MOL0     H20809   8.507   2.067  12.857  0.4582  2.1079  2.7623
  895MOL0     H20810   8.589   1.942  12.666 -1.7309  3.3210 -0.8792
  895MOL0     H20811   9.938   1.904  11.282 -1.4457 -1.5698 -2.0932
  895MOL0     H20812  10.119   1.884  11.110 -1.5124 -0.3454 -3.2278
  895MOL0     H20813  10.588   2.043  11.028 -2.5228  3.4209  1.9344
  895MOL0     H20814  10.750   2.078  10.837  0.6184 -0.4545 -1.0821
  895MOL0     H20815  10.694   2.176  10.420  0.0865  2.1846 -0.7620
  895MOL0     H20816  10.599   2.249  10.547  0.1603  0.6196 -0.8464
  895MOL0     H20817  10.816   2.268  10.698 -1.8134 -0.2987 -0.3812
  895MOL0     H20818  10.810   2.380  10.562 -0.2995 -0.3747 -1.3479
  895MOL0     H20819  10.949   2.230  10.422 -1.1625  1.6581  0.2167
  895MOL0     H20820  10.945   2.100  10.550 -0.9365 -0.0044  0.0797
  895MOL0     H20821  11.092   2.361  10.586 -1.0362  0.3319  1.0634
  895MOL0     H20822  11.167   2.203  10.555  0.1894 -0.8133  1.5626
  895MOL0     H20823  11.101   2.123  10.941  0.3078 -0.1607 -0.1050
  895MOL0     H20824  10.441   2.031  10.549  2.8354  5.0680 -0.7817
  895MOL0     H20825  10.279   1.977  10.733  0.5566 -0.2969 -2.6125
  896MOL0     O20826   5.175   7.153   3.194 -0.5922  0.3062  0.4356
  896MOL0     C20827   5.172   7.129   3.316  0.3574  0.2064  0.0048
  896MOL0     O20828   5.100   7.028   3.373 -0.0544  0.5106 -0.0710
  896MOL0     C20829   5.054   6.935   3.282  0.6921  0.2078  0.2629
  896MOL0     C20830   5.145   6.846   3.216  1.1342  0.8722 -0.0867
  896MOL0     C20831   5.095   6.759   3.114 -1.2886 -0.1048  0.6312
  896MOL0     C20832   4.961   6.753   3.077  0.4246  0.4176 -1.1820
  896MOL0     O20833   4.908   6.673   2.980 -0.1240 -0.6242 -0.4016
  896MOL0     C20834   4.955   6.541   2.963 -0.1363 -0.0960  0.8693
  896MOL0     C20835   4.846   6.455   2.913  0.2441  0.2634  1.4416
  896MOL0     C20836   4.729   6.436   3.010 -0.2667 -0.0980  0.1541
  896MOL0     C20837   4.635   6.342   2.939 -1.2680  0.2545 -0.9380
  896MOL0     C20838   4.494   6.336   2.993 -0.0965  1.0598 -0.0641
  896MOL0     C20839   4.407   6.239   2.903 -1.0280  0.0420  0.2961
  896MOL0     C20840   4.329   6.339   2.798 -0.4402 -0.1188 -0.0960
  896MOL0     C20841   4.210   6.275   2.717 -0.8803  0.2093  0.2966
  896MOL0     N20842   4.095   6.254   2.806 -0.1135  0.4206 -0.4664
  896MOL0     C20843   4.019   6.140   2.785 -1.1961  0.0593 -0.0436
  896MOL0     C20844   3.926   6.151   2.879 -0.0304  0.6185  0.3412
  896MOL0     C20845   3.795   6.067   2.894  0.0136  0.2337 -0.1363
  896MOL0     C20846   3.675   6.137   2.839  0.0303 -0.4468 -0.5776
  896MOL0     C20847   3.588   6.049   2.758 -0.1972 -0.4611 -0.9010
  896MOL0     C20848   3.467   6.125   2.711 -0.1049  0.8197 -0.1714
  896MOL0     O20849   3.379   6.057   2.620  1.1535  0.3436  1.0022
  896MOL0     C20850   3.245   6.045   2.661 -0.3212  0.0722  0.3686
  896MOL0     C20851   3.172   6.123   2.755 -0.3737 -0.3863  1.2760
  896MOL0     C20852   3.042   6.104   2.794  0.0128 -0.1474  0.2704
  896MOL0     C20853   2.986   6.199   2.883  0.7160  0.8986 -0.3733
  896MOL0     C20854   2.967   6.004   2.731 -1.3118 -0.0033  0.5019
  896MOL0     C20855   2.815   5.997   2.743 -0.1110  0.7231 -0.2084
  896MOL0     O20856   2.748   5.945   2.633  0.9594  0.1257 -0.1568
  896MOL0     C20857   2.623   5.896   2.659 -0.2106  0.2855  0.2340
  896MOL0     C20858   2.594   5.800   2.761  0.2269  0.0829  1.3280
  896MOL0     C20859   2.460   5.766   2.784  0.2502  0.0699  0.0358
  896MOL0     C20860   2.351   5.813   2.704 -0.0758 -1.4539 -0.3510
  896MOL0     O20861   2.224   5.772   2.716  0.1047  0.1195 -0.2924
  896MOL0     C20862   2.214   5.634   2.741 -0.1000 -0.6670  0.2592
  896MOL0     C20863   2.076   5.581   2.733  1.3203 -0.0636  0.2710
  896MOL0     C20864   2.061   5.428   2.760 -0.1047  0.0283  0.8371
  896MOL0     C20865   1.918   5.390   2.742  0.1660  1.6005  0.0310
  896MOL0     C20866   1.898   5.232   2.770  0.2106  0.2665 -0.2909
  896MOL0     C20867   1.753   5.184   2.724 -0.4999 -1.0048 -0.8704
  896MOL0     C20868   1.701   5.053   2.782  0.9122  0.6645  0.5678
  896MOL0     C20869   1.564   5.027   2.728  0.3840  0.5932  0.1458
  896MOL0    Cl20870   1.546   5.019   2.554 -0.6068  0.6108 -0.5700
  896MOL0     C20871   2.389   5.915   2.612 -0.4113 -0.4690  0.1663
  896MOL0     C20872   2.521   5.958   2.595 -0.1055  0.0703  0.3131
  896MOL0     O20873   2.763   6.013   2.853 -0.4939  0.5407  0.3721
  896MOL0     C20874   3.038   5.921   2.634 -0.5847  0.0464  0.3548
  896MOL0     C20875   3.179   5.937   2.604 -0.5909  0.0218  0.2680
  896MOL0     N20876   3.947   6.274   2.944 -1.2774 -0.4434  0.5587
  896MOL0     N20877   4.047   6.342   2.900 -0.3021  0.8930 -0.2931
  896MOL0     C20878   4.877   6.845   3.146 -0.1960  0.2043  0.2617
  896MOL0     C20879   4.913   6.927   3.253  0.2865 -0.2787 -0.0913
  896MOL0     C20880   5.248   7.226   3.398 -0.0356  0.4528 -0.1787
  896MOL0     C20881   5.345   7.313   3.339  0.3123 -0.2526 -0.7205
  896MOL0     C20882   5.409   7.406   3.422  0.0602  0.9388 -0.6226
  896MOL0     C20883   5.371   7.418   3.563  0.2699  0.5054 -0.4534
  896MOL0     O20884   5.419   7.506   3.654 -0.0009  0.2545 -0.3048
  896MOL0     C20885   5.527   7.588   3.614 -0.5869  0.0116 -0.1182
  896MOL0     C20886   5.653   7.502   3.609 -0.8524  0.2197  0.0943
  896MOL0     C20887   5.705   7.469   3.751  0.1068 -1.0710  1.0934
  896MOL0     C20888   5.842   7.389   3.736  0.3851  0.4130 -0.4023
  896MOL0     C20889   5.924   7.430   3.841 -0.2944 -0.6459 -0.5802
  896MOL0     C20890   6.003   7.468   3.925  0.1110  1.1207 -0.0910
  896MOL0     C20891   5.279   7.321   3.615  0.0644 -0.5887 -0.7635
  896MOL0     C20892   5.218   7.231   3.535 -0.4480 -0.6732  0.1413
  896MOL0     H20893   5.249   6.844   3.247  1.2943  0.0927 -0.6577
  896MOL0     H20894   5.160   6.696   3.054 -2.4130 -1.8065  1.1366
  896MOL0     H20895   5.035   6.530   2.889 -1.7160  2.3653 -1.4035
  896MOL0     H20896   4.988   6.510   3.062 -2.4953 -2.1729  1.1222
  896MOL0     H20897   4.802   6.493   2.820 -2.9369 -0.2173  2.6249
  896MOL0     H20898   4.880   6.351   2.899  1.0419  0.7191 -0.2413
  896MOL0     H20899   4.766   6.393   3.104 -0.0381 -0.3994 -0.0711
  896MOL0     H20900   4.677   6.529   3.033 -1.1599 -0.4888 -0.2264
  896MOL0     H20901   4.637   6.374   2.834  0.5943  1.2179 -0.6444
  896MOL0     H20902   4.681   6.243   2.934 -2.7197 -0.4523 -0.9738
  896MOL0     H20903   4.484   6.307   3.098 -0.7997 -1.1081 -0.6854
  896MOL0     H20904   4.454   6.438   3.002  2.1773  2.0188 -0.2684
  896MOL0     H20905   4.467   6.158   2.862 -0.9624  0.2023  0.0708
  896MOL0     H20906   4.332   6.203   2.974 -0.2879  0.6410  1.4018
  896MOL0     H20907   4.304   6.431   2.850  2.3420  1.5165 -1.4369
  896MOL0     H20908   4.406   6.369   2.726 -1.3236 -0.7776 -1.3700
  896MOL0     H20909   4.253   6.189   2.665 -0.5678  0.8626 -0.5421
  896MOL0     H20910   4.174   6.344   2.641 -1.0475  2.2832  2.1761
  896MOL0     H20911   4.035   6.057   2.717  1.3420  0.8416 -0.5059
  896MOL0     H20912   3.805   5.974   2.837 -2.5549  0.1863 -0.6206
  896MOL0     H20913   3.778   6.052   3.001 -0.0792 -0.3459 -0.2260
  896MOL0     H20914   3.702   6.222   2.776  2.3890  0.9572  2.0965
  896MOL0     H20915   3.625   6.195   2.918  1.1332 -0.2674  0.0088
  896MOL0     H20916   3.551   5.963   2.815  1.4871  0.1131  1.2145
  896MOL0     H20917   3.648   6.008   2.676  0.7239  3.0458 -2.1873
  896MOL0     H20918   3.503   6.210   2.652  0.8317 -0.4352 -1.4861
  896MOL0     H20919   3.420   6.155   2.805  3.6165  3.9376  0.9363
  896MOL0     H20920   3.227   6.211   2.787 -1.3573  0.7059  0.0387
  896MOL0     H20921   2.904   6.253   2.835 -0.3134  0.6704  1.0582
  896MOL0     H20922   2.935   6.145   2.963 -3.4971 -2.3131 -4.6631
  896MOL0     H20923   3.059   6.276   2.910  1.3391  0.6735 -1.3715
  896MOL0     H20924   2.674   5.751   2.816  1.4452  0.3008 -0.1691
  896MOL0     H20925   2.442   5.687   2.855  0.7842  1.5058  1.8605
  896MOL0     H20926   2.269   5.577   2.665  2.5471 -1.6085  2.6850
  896MOL0     H20927   2.260   5.606   2.837  0.1105 -1.4531 -0.0597
  896MOL0     H20928   2.007   5.630   2.802  0.0041 -3.0358  1.2570
  896MOL0     H20929   2.041   5.601   2.631 -0.5233  1.6228  1.1575
  896MOL0     H20930   2.107   5.406   2.857  2.7649  1.5495 -0.0664
  896MOL0     H20931   2.122   5.379   2.684 -0.5338  0.8375 -0.0507
  896MOL0     H20932   1.850   5.449   2.804 -3.6424 -2.4504  0.1460
  896MOL0     H20933   1.888   5.414   2.640  0.5375  3.5007  0.3281
  896MOL0     H20934   1.906   5.216   2.878  1.0966 -0.0741 -0.4005
  896MOL0     H20935   1.971   5.164   2.727  0.1928 -1.2126  1.8933
  896MOL0     H20936   1.680   5.262   2.747  2.1711  0.4536  3.9919
  896MOL0     H20937   1.758   5.197   2.615  1.1026  2.6924 -0.4932
  896MOL0     H20938   1.694   5.064   2.891 -0.3545  3.0936  0.3055
  896MOL0     H20939   1.763   4.967   2.753 -1.1395  0.0961 -2.6280
  896MOL0     H20940   1.493   5.105   2.756 -1.0002 -1.2559  2.1544
  896MOL0     H20941   1.524   4.933   2.767 -0.5028  0.9787  0.1960
  896MOL0     H20942   2.313   5.963   2.550 -0.5408 -0.1452  0.5707
  896MOL0     H20943   2.535   6.040   2.526 -0.3015 -0.4233 -0.3241
  896MOL0     H20944   2.973   5.852   2.581 -1.5656  2.0759 -1.2483
  896MOL0     H20945   3.223   5.871   2.530  1.9391  2.2594 -0.3509
  896MOL0     H20946   4.775   6.841   3.110 -0.0949 -1.0149  0.0802
  896MOL0     H20947   4.843   6.999   3.295  0.0292 -0.1552 -0.7235
  896MOL0     H20948   5.376   7.314   3.235  1.4726 -0.8788 -0.3961
  896MOL0     H20949   5.487   7.468   3.379  1.4776  0.5595  1.2746
  896MOL0     H20950   5.506   7.631   3.516  1.7210  0.8999 -0.2660
  896MOL0     H20951   5.543   7.672   3.682  2.3151 -0.4739 -0.0916
  896MOL0     H20952   5.731   7.559   3.559 -2.1223  0.6288 -1.5198
  896MOL0     H20953   5.645   7.412   3.548 -1.2791 -0.4089  1.0567
  896MOL0     H20954   5.640   7.412   3.818 -0.5554  0.0263  1.4104
  896MOL0     H20955   5.709   7.564   3.805 -3.2947  2.6067 -4.1914
  896MOL0     H20956   5.894   7.425   3.647 -0.9870  1.1285 -0.9504
  896MOL0     H20957   5.820   7.282   3.738 -1.1421  0.7152  1.7406
  896MOL0     H20958   6.075   7.485   4.002 -0.9678 -1.1163  1.5332
  896MOL0     H20959   5.242   7.329   3.716 -1.8681 -1.2644 -1.3781
  896MOL0     H20960   5.140   7.170   3.579  0.4132 -0.8680  1.4375
  897MOL0     O20961  11.068   7.964   2.257  0.1555  0.0083  0.1199
  897MOL0     C20962  11.175   7.920   2.274 -0.3803 -0.3783 -0.4506
  897MOL0     O20963  11.272   7.975   2.354  0.4912 -0.6621 -0.4296
  897MOL0     C20964  11.245   8.088   2.430 -0.4069 -0.6140 -0.1750
  897MOL0     C20965  11.134   8.108   2.513 -0.2765  0.0055 -0.6922
  897MOL0     C20966  11.107   8.235   2.562 -0.4465 -0.0686 -0.1250
  897MOL0     C20967  11.203   8.338   2.542  0.2539  0.2716 -0.0785
  897MOL0     O20968  11.186   8.447   2.620  0.3942 -0.1912  0.3771
  897MOL0     C20969  11.289   8.544   2.610 -0.2890  0.0565 -0.3774
  897MOL0     C20970  11.279   8.641   2.735 -0.3373  0.3334 -0.6204
  897MOL0     C20971  11.371   8.762   2.701 -0.5185  0.2996  0.0583
  897MOL0     C20972  11.301   8.879   2.632 -0.5057 -0.1906 -0.6961
  897MOL0     C20973  11.382   9.001   2.608  0.0221 -0.5835 -0.4100
  897MOL0     C20974  11.305   9.127   2.556 -0.2542 -0.5404  0.3921
  897MOL0     C20975  11.179   9.182   2.632 -0.7434 -0.3120  0.4057
  897MOL0     C20976  11.164   9.327   2.600  0.0172 -0.2721  0.5306
  897MOL0     N20977  11.021   9.359   2.605  0.1661 -0.5890  0.0527
  897MOL0     C20978  10.954   9.363   2.723 -0.0366 -0.6114  0.5287
  897MOL0     C20979  10.827   9.381   2.694 -0.6964 -1.1270 -0.3228
  897MOL0     C20980  10.715   9.397   2.791 -0.4435  0.0807 -0.0875
  897MOL0     C20981  10.725   9.522   2.883  0.8898  0.4844  0.0598
  897MOL0     C20982  10.614   9.514   2.992  0.0792  0.3452  0.1138
  897MOL0     C20983  10.478   9.537   2.929  0.0249  0.2721 -0.2540
  897MOL0     O20984  10.425   9.410   2.886  0.6759 -0.5070  0.9320
  897MOL0     C20985  10.291   9.400   2.876 -0.1686 -0.9886 -0.1764
  897MOL0     C20986  10.202   9.509   2.856 -0.1395 -0.0072 -0.3076
  897MOL0     C20987  10.068   9.484   2.829 -0.1125  1.0455 -0.4330
  897MOL0     C20988   9.994   9.618   2.811 -0.4155  0.0956  0.1466
  897MOL0     C20989  10.013   9.353   2.851  0.7875 -0.0130  0.7445
  897MOL0     C20990   9.869   9.309   2.835 -0.8437 -1.3659 -0.1898
  897MOL0     O20991   9.838   9.183   2.854  0.1676 -0.4718  0.0223
  897MOL0     C20992   9.707   9.149   2.837 -0.8689  0.4906  0.4641
  897MOL0     C20993   9.633   9.120   2.955  0.4236  0.0955  0.0109
  897MOL0     C20994   9.507   9.064   2.936 -0.4804  0.4274  0.1856
  897MOL0     C20995   9.463   9.038   2.802 -0.0253 -0.2703 -0.1955
  897MOL0     O20996   9.346   8.976   2.771 -0.1165  0.0176  0.0318
  897MOL0     C20997   9.256   8.917   2.865 -0.0818  0.0946 -0.4416
  897MOL0     C20998   9.125   8.871   2.792  0.7481  0.8544  0.2862
  897MOL0     C20999   8.999   8.884   2.876  0.5448 -0.2882 -0.4546
  897MOL0     C21000   8.874   8.813   2.808  0.0719  0.5788  0.0271
  897MOL0     C21001   8.759   8.805   2.906 -0.2576  0.2851 -0.3835
  897MOL0     C21002   8.625   8.747   2.847 -0.5707  0.1615  0.1251
  897MOL0     C21003   8.516   8.731   2.962  0.3594 -0.1006 -0.0172
  897MOL0     C21004   8.394   8.655   2.933  0.3079 -0.0558 -0.0381
  897MOL0    Cl21005   8.426   8.476   2.919  0.4633 -0.0880 -0.1566
  897MOL0     C21006   9.536   9.071   2.690  0.3562 -0.3088  0.4380
  897MOL0     C21007   9.658   9.122   2.712  0.6146  0.1160 -0.2649
  897MOL0     O21008   9.788   9.391   2.801 -0.2666 -0.3162 -0.4604
  897MOL0     C21009  10.098   9.249   2.874  0.1938  0.4421 -1.1464
  897MOL0     C21010  10.235   9.271   2.885 -0.6504  0.0151  0.3197
  897MOL0     N21011  10.813   9.385   2.552 -0.3176  0.3782 -0.6420
  897MOL0     N21012  10.934   9.377   2.502 -0.3687  0.6423  0.5835
  897MOL0     C21013  11.311   8.316   2.459  0.1111  0.3758  0.8285
  897MOL0     C21014  11.332   8.196   2.401  0.4173  0.1801 -0.1901
  897MOL0     C21015  11.204   7.798   2.197  0.4206  0.2462 -0.5390
  897MOL0     C21016  11.329   7.736   2.207 -0.1406  0.4353  0.5106
  897MOL0     C21017  11.351   7.606   2.143 -0.8284 -0.0000  0.2898
  897MOL0     C21018  11.246   7.542   2.082 -0.1353 -0.6503  0.0865
  897MOL0     O21019  11.252   7.418   2.043 -0.6303 -0.2035  0.2713
  897MOL0     C21020  11.372   7.336   2.043  0.0570  0.4594 -0.1058
  897MOL0     C21021  11.457   7.386   1.933  0.1875 -0.6365  0.1610
  897MOL0     C21022  11.545   7.285   1.875  0.3039  0.3545 -0.4699
  897MOL0     C21023  11.601   7.330   1.742  0.5193 -0.1016 -0.2682
  897MOL0     C21024  11.716   7.255   1.722 -0.1053  0.4223 -0.0798
  897MOL0     C21025  11.822   7.191   1.724  0.6227 -0.1696  0.3282
  897MOL0     C21026  11.128   7.613   2.055 -0.2525 -0.2755 -0.0594
  897MOL0     C21027  11.107   7.736   2.119 -0.1484 -0.9002  0.7652
  897MOL0     H21028  11.052   8.036   2.518  0.0966 -0.3986 -0.3346
  897MOL0     H21029  11.023   8.254   2.627 -0.3155 -2.2447  0.7717
  897MOL0     H21030  11.390   8.503   2.614 -0.0233  0.5811 -1.3289
  897MOL0     H21031  11.268   8.602   2.519 -1.9888 -1.0555 -0.7480
  897MOL0     H21032  11.174   8.671   2.743 -0.0470  1.2113  0.0727
  897MOL0     H21033  11.305   8.593   2.829 -1.8323  1.5130  0.4452
  897MOL0     H21034  11.399   8.805   2.798 -0.8250 -0.4015  0.4674
  897MOL0     H21035  11.460   8.726   2.649  1.6149  0.2797  3.4230
  897MOL0     H21036  11.256   8.859   2.535  0.1172  2.2173 -1.5453
  897MOL0     H21037  11.214   8.897   2.696 -0.3585  1.1400 -0.8589
  897MOL0     H21038  11.432   9.025   2.702 -1.4474 -1.6669  0.7122
  897MOL0     H21039  11.464   8.982   2.538 -0.9585  0.5530 -1.9343
  897MOL0     H21040  11.384   9.202   2.562 -0.6295 -0.1338  0.2839
  897MOL0     H21041  11.268   9.110   2.454 -1.5752  1.5536  0.4556
  897MOL0     H21042  11.091   9.117   2.620 -0.5310 -1.1804  2.9235
  897MOL0     H21043  11.196   9.180   2.740 -2.3835 -1.6898  0.6949
  897MOL0     H21044  11.203   9.337   2.498 -1.5753 -1.3702 -0.2314
  897MOL0     H21045  11.227   9.374   2.676 -1.0172 -1.0588  1.9198
  897MOL0     H21046  10.998   9.353   2.822  2.5086 -0.9246 -0.5703
  897MOL0     H21047  10.621   9.383   2.738  1.1101 -0.1215 -3.0256
  897MOL0     H21048  10.734   9.304   2.847  0.1971  0.3096  0.0829
  897MOL0     H21049  10.707   9.614   2.827 -0.8644  0.9344  1.2865
  897MOL0     H21050  10.824   9.513   2.928  1.0311 -3.9065 -0.6496
  897MOL0     H21051  10.633   9.590   3.068  2.0848  0.3088 -0.2972
  897MOL0     H21052  10.613   9.419   3.046 -2.4780 -0.3941 -1.0814
  897MOL0     H21053  10.489   9.603   2.842  1.6667 -0.3915 -0.5941
  897MOL0     H21054  10.411   9.576   3.005 -0.4497  2.6218 -1.7717
  897MOL0     H21055  10.244   9.609   2.854 -0.8231  0.3186 -3.1194
  897MOL0     H21056   9.960   9.661   2.905 -1.3685 -0.4933  0.0907
  897MOL0     H21057  10.059   9.698   2.773 -0.9763  0.2853 -0.4371
  897MOL0     H21058   9.907   9.622   2.744 -0.1301  1.3915 -0.1784
  897MOL0     H21059   9.665   9.143   3.056  1.5980 -0.4620 -0.2275
  897MOL0     H21060   9.454   9.026   3.023 -1.0309 -1.1330 -0.8018
  897MOL0     H21061   9.292   8.825   2.912  0.1388  1.4411  2.2093
  897MOL0     H21062   9.242   8.974   2.957  0.7524 -0.1857 -0.1290
  897MOL0     H21063   9.116   8.933   2.702  0.5783  1.8127  0.9450
  897MOL0     H21064   9.120   8.770   2.750 -2.4449  0.8652  0.3903
  897MOL0     H21065   8.982   8.991   2.891  0.2903 -0.5349  1.1700
  897MOL0     H21066   9.008   8.849   2.979  0.7151  0.4806 -0.2045
  897MOL0     H21067   8.855   8.878   2.722 -1.6030  1.4604  1.0099
  897MOL0     H21068   8.895   8.713   2.767 -0.3726  0.0278  1.1122
  897MOL0     H21069   8.743   8.902   2.953 -0.2716  0.0181  0.1701
  897MOL0     H21070   8.779   8.736   2.989  0.2060 -0.0968 -0.8045
  897MOL0     H21071   8.582   8.797   2.760  1.5957  0.7638 -0.6672
  897MOL0     H21072   8.649   8.648   2.805 -0.2396 -1.7649  4.3070
  897MOL0     H21073   8.487   8.836   2.969 -0.5923 -0.3988  0.5718
  897MOL0     H21074   8.560   8.698   3.057  0.8582  1.0604  0.1684
  897MOL0     H21075   8.358   8.693   2.837 -0.6085 -1.1272 -0.1443
  897MOL0     H21076   8.318   8.675   3.010  1.2808 -0.3455  1.0295
  897MOL0     H21077   9.493   9.068   2.590  1.5000 -1.1377 -0.0579
  897MOL0     H21078   9.724   9.141   2.627 -0.0318  0.9189 -0.5976
  897MOL0     H21079  10.066   9.145   2.876  0.7560  0.2194  2.5959
  897MOL0     H21080  10.300   9.188   2.909 -0.4068  0.2283  0.4014
  897MOL0     H21081  11.388   8.387   2.429 -0.5731  0.8707  0.2063
  897MOL0     H21082  11.411   8.194   2.326  1.2830  3.9158  0.4248
  897MOL0     H21083  11.406   7.795   2.255  0.0451  0.3535  0.3148
  897MOL0     H21084  11.450   7.564   2.135  0.1028  2.3261 -1.3758
  897MOL0     H21085  11.429   7.335   2.136 -0.3020 -0.5615  0.1155
  897MOL0     H21086  11.335   7.234   2.028  3.3798 -0.9524  0.5534
  897MOL0     H21087  11.520   7.473   1.956  1.9052 -1.2722 -1.8042
  897MOL0     H21088  11.385   7.409   1.854 -1.9603 -0.8314  1.9608
  897MOL0     H21089  11.483   7.198   1.853  0.0091 -0.0908  1.8741
  897MOL0     H21090  11.623   7.267   1.949 -1.2579 -0.3087  1.0790
  897MOL0     H21091  11.630   7.435   1.756  0.7696 -0.2776  0.5927
  897MOL0     H21092  11.534   7.315   1.657  2.4031 -0.1915 -1.8178
  897MOL0     H21093  11.903   7.124   1.744  0.4373 -0.9379 -1.2544
  897MOL0     H21094  11.042   7.575   2.000 -0.1049 -1.2200  0.3357
  897MOL0     H21095  11.014   7.789   2.099  1.1116  1.2580  0.2823
  898MOL0     O21096   0.591   8.562   6.273  0.3094 -0.4944  0.3458
  898MOL0     C21097   0.674   8.628   6.210 -0.0465 -0.0118  0.9258
  898MOL0     O21098   0.646   8.735   6.128  0.2618 -0.5434 -0.2789
  898MOL0     C21099   0.533   8.812   6.143  0.0747 -0.0787  0.1648
  898MOL0     C21100   0.493   8.867   6.020  0.1664  0.1710 -0.3750
  898MOL0     C21101   0.368   8.930   6.009  0.7233  0.3107 -0.0942
  898MOL0     C21102   0.282   8.948   6.127  1.2195 -0.6008  0.0766
  898MOL0     O21103   0.160   9.015   6.109  0.4323  0.2706  0.3558
  898MOL0     C21104   0.068   9.027   6.215 -0.5468  0.5824 -0.2896
  898MOL0     C21105  -0.060   9.077   6.153 -0.5735  0.6105 -0.1504
  898MOL0     C21106  -0.159   9.108   6.255  1.2787 -0.3459 -0.4190
  898MOL0     C21107  -0.294   9.141   6.197  0.3912 -0.4260  0.0508
  898MOL0     C21108  -0.383   9.204   6.306 -0.1247  0.6253 -0.0142
  898MOL0     C21109  -0.496   9.273   6.237  0.5969 -0.0194  0.9139
  898MOL0     C21110  -0.606   9.312   6.335 -1.3504  0.0514  0.0093
  898MOL0     C21111  -0.696   9.412   6.290  0.0514  0.5490 -0.1927
  898MOL0     N21112  -0.820   9.339   6.256 -0.5430 -0.4831  1.0981
  898MOL0     C21113  -0.861   9.309   6.126 -0.4953 -0.2646 -0.1661
  898MOL0     C21114  -0.984   9.257   6.138  1.0581  0.7411  0.0793
  898MOL0     C21115  -1.094   9.239   6.034  0.1640  0.3900  0.2450
  898MOL0     C21116  -1.235   9.253   6.086 -0.2185  0.3986 -0.2598
  898MOL0     C21117  -1.332   9.255   5.962 -0.5032 -0.0118  0.4454
  898MOL0     C21118  -1.463   9.312   6.005  0.3704 -0.7050  0.4190
  898MOL0     O21119  -1.529   9.336   5.884 -0.1323 -0.8095 -0.2615
  898MOL0     C21120  -1.661   9.369   5.907 -0.2653 -0.2428 -0.0854
  898MOL0     C21121  -1.721   9.447   5.800 -0.3312  0.5346 -0.3203
  898MOL0     C21122  -1.859   9.486   5.812  0.0515 -0.1572  0.2667
  898MOL0     C21123  -1.910   9.576   5.697 -0.2967  0.1084  0.8183
  898MOL0     C21124  -1.937   9.430   5.917 -0.6361 -0.2097  1.5078
  898MOL0     C21125  -2.082   9.463   5.928  0.4230 -0.9935 -0.7583
  898MOL0     O21126  -2.151   9.365   5.993  0.3260  0.3023  0.1254
  898MOL0     C21127  -2.286   9.346   5.980 -0.0325  0.6199  0.3431
  898MOL0     C21128  -2.331   9.243   6.073  0.5170 -0.2099  0.5516
  898MOL0     C21129  -2.463   9.216   6.080  0.4232 -0.2366  0.1904
  898MOL0     C21130  -2.557   9.267   5.988  0.2848 -0.1145 -0.2696
  898MOL0     O21131  -2.695   9.236   5.981 -0.2034  0.3780 -0.5766
  898MOL0     C21132  -2.736   9.132   6.063 -0.3199  0.1394 -0.0235
  898MOL0     C21133  -2.851   9.044   6.012 -0.0688 -0.1048  0.9354
  898MOL0     C21134  -2.911   8.920   6.079  0.3952 -0.2531  0.5251
  898MOL0     C21135  -3.058   8.899   6.035  0.7353 -0.5072  1.3733
  898MOL0     C21136  -3.133   8.774   6.076 -0.2857  0.1215  0.8102
  898MOL0     C21137  -3.283   8.793   6.047  0.4379  0.1832  0.8344
  898MOL0     C21138  -3.345   8.667   6.095  0.2439  0.3571 -0.0730
  898MOL0     C21139  -3.501   8.686   6.073  0.3092  0.0790  0.5333
  898MOL0    Cl21140  -3.565   8.528   6.118 -0.2688  0.0042 -0.0898
  898MOL0     C21141  -2.510   9.365   5.899 -0.0082 -0.2832  0.2512
  898MOL0     C21142  -2.381   9.413   5.889 -0.3020  1.5015 -1.0759
  898MOL0     O21143  -2.140   9.566   5.893 -0.5660  0.0805  0.0165
  898MOL0     C21144  -1.884   9.341   6.005  0.7343 -0.2228  0.8829
  898MOL0     C21145  -1.750   9.320   6.005  0.5732 -0.5513 -0.4831
  898MOL0     N21146  -1.012   9.232   6.275  0.8752 -0.1368 -0.2503
  898MOL0     N21147  -0.910   9.285   6.342  0.0675 -0.8114 -0.6672
  898MOL0     C21148   0.329   8.897   6.247 -0.1625 -0.3649 -0.5948
  898MOL0     C21149   0.456   8.824   6.257  0.4989  0.0575  0.2644
  898MOL0     C21150   0.821   8.597   6.227  0.4584 -0.1506  0.1884
  898MOL0     C21151   0.862   8.491   6.309 -0.4924  0.1003 -0.5206
  898MOL0     C21152   1.001   8.455   6.314 -0.1750 -0.8699 -0.3617
  898MOL0     C21153   1.092   8.525   6.246  0.5421 -0.2010  0.0310
  898MOL0     O21154   1.225   8.499   6.249 -0.4236 -0.0988 -0.2120
  898MOL0     C21155   1.283   8.403   6.340 -0.2324  0.3014 -0.1167
  898MOL0     C21156   1.439   8.416   6.321 -0.1043 -0.5445 -1.1032
  898MOL0     C21157   1.498   8.524   6.407 -0.3477 -0.0818 -0.2239
  898MOL0     C21158   1.650   8.528   6.405  0.1621 -0.6482 -0.2195
  898MOL0     C21159   1.697   8.559   6.271 -0.4392  0.0237 -0.3850
  898MOL0     C21160   1.736   8.595   6.157  0.2590 -0.2469  0.7828
  898MOL0     C21161   1.054   8.631   6.165 -0.1509  0.0517 -0.3816
  898MOL0     C21162   0.912   8.662   6.154  0.1212 -0.1118 -0.2489
  898MOL0     H21163   0.553   8.844   5.933 -1.0653 -3.2691 -0.4846
  898MOL0     H21164   0.330   8.966   5.913  0.9371 -2.3825 -1.2666
  898MOL0     H21165   0.044   8.934   6.267  0.1534  1.5079  1.7902
  898MOL0     H21166   0.095   9.097   6.295 -0.6758  1.0851 -0.6779
  898MOL0     H21167  -0.035   9.170   6.101 -4.5117  1.4579 -0.8282
  898MOL0     H21168  -0.105   9.002   6.087 -0.8771  0.3382  0.3581
  898MOL0     H21169  -0.170   9.021   6.320 -1.1259 -0.5538 -0.9886
  898MOL0     H21170  -0.134   9.193   6.319  2.5582  0.8516 -2.4021
  898MOL0     H21171  -0.275   9.224   6.129 -1.8634  0.6047  0.5859
  898MOL0     H21172  -0.353   9.061   6.151 -2.0014  1.3210 -0.1071
  898MOL0     H21173  -0.412   9.116   6.365  1.6074 -0.9170 -1.3505
  898MOL0     H21174  -0.322   9.273   6.364  0.7019 -0.3547  0.3261
  898MOL0     H21175  -0.463   9.360   6.182 -0.6086 -0.4474 -0.5515
  898MOL0     H21176  -0.535   9.201   6.164 -1.2261 -0.1671  1.9544
  898MOL0     H21177  -0.652   9.217   6.363  2.8243 -1.6154  2.0799
  898MOL0     H21178  -0.559   9.333   6.432 -0.0339 -1.7417 -0.1787
  898MOL0     H21179  -0.654   9.472   6.209 -0.8045  2.1888  0.5054
  898MOL0     H21180  -0.718   9.496   6.357 -3.6346  1.1058 -1.8492
  898MOL0     H21181  -0.813   9.324   6.029  2.5308 -1.5162  1.0337
  898MOL0     H21182  -1.093   9.312   5.953 -3.8323 -0.0469 -0.4037
  898MOL0     H21183  -1.084   9.137   5.995 -0.2811  1.0356 -1.6654
  898MOL0     H21184  -1.247   9.347   6.140 -1.0580  1.0054 -1.4329
  898MOL0     H21185  -1.258   9.171   6.154 -2.9356  2.8015  1.9855
  898MOL0     H21186  -1.345   9.160   5.908 -0.0211  1.0651 -1.6958
  898MOL0     H21187  -1.290   9.319   5.883  1.9065 -0.8598  0.9449
  898MOL0     H21188  -1.451   9.404   6.063  4.1625 -0.9371  0.2130
  898MOL0     H21189  -1.518   9.237   6.063  0.0539 -0.6618  0.1775
  898MOL0     H21190  -1.660   9.475   5.715 -0.2975  1.0902 -0.1139
  898MOL0     H21191  -1.843   9.662   5.702  1.9649 -1.6059  1.8369
  898MOL0     H21192  -1.888   9.520   5.606 -0.4684  0.2333  0.6983
  898MOL0     H21193  -2.014   9.611   5.700  0.1674  1.5470  0.7819
  898MOL0     H21194  -2.260   9.196   6.139 -0.5193 -1.8907  0.5255
  898MOL0     H21195  -2.481   9.139   6.155  0.9227 -0.5609 -0.0166
  898MOL0     H21196  -2.662   9.053   6.074 -3.6053 -3.6571 -2.5774
  898MOL0     H21197  -2.753   9.180   6.161  2.2170  1.4270 -0.1278
  898MOL0     H21198  -2.940   9.107   5.998  0.2569  0.1121 -0.3027
  898MOL0     H21199  -2.820   9.009   5.913 -0.9412 -0.3859  0.7550
  898MOL0     H21200  -2.901   8.925   6.188  0.2118 -1.3083  0.5985
  898MOL0     H21201  -2.850   8.834   6.048 -0.5445 -1.3541  1.6163
  898MOL0     H21202  -3.122   8.983   6.064 -1.5872 -2.1658  1.3559
  898MOL0     H21203  -3.049   8.902   5.926  0.1887  1.6696  1.3384
  898MOL0     H21204  -3.122   8.749   6.182  1.7004 -2.2580  0.1472
  898MOL0     H21205  -3.091   8.691   6.018 -2.1963  2.1476 -4.0619
  898MOL0     H21206  -3.332   8.879   6.095 -0.2329 -0.2298  0.9047
  898MOL0     H21207  -3.300   8.800   5.939  3.4919 -0.5358  0.2205
  898MOL0     H21208  -3.310   8.654   6.198 -0.2633  0.7167  0.1456
  898MOL0     H21209  -3.311   8.583   6.033 -1.3505 -0.9152  0.7001
  898MOL0     H21210  -3.527   8.706   5.968  1.8014  1.4459  0.3676
  898MOL0     H21211  -3.541   8.770   6.130  0.0432  1.6389 -1.7773
  898MOL0     H21212  -2.574   9.407   5.822 -2.5288 -2.1636  1.2065
  898MOL0     H21213  -2.357   9.491   5.818  5.1172  2.8832  1.7402
  898MOL0     H21214  -1.947   9.292   6.080 -1.6840 -0.3384 -1.0900
  898MOL0     H21215  -1.715   9.248   6.078  2.1785  1.1606  0.5047
  898MOL0     H21216   0.258   8.908   6.329  1.0683  2.3969  0.2185
  898MOL0     H21217   0.482   8.772   6.349  2.1945 -1.9683 -1.2521
  898MOL0     H21218   0.788   8.441   6.371  0.6626 -0.3978  0.4701
  898MOL0     H21219   1.041   8.373   6.373  3.3335 -0.0418 -1.3252
  898MOL0     H21220   1.254   8.425   6.443 -0.0846 -1.1259  0.2449
  898MOL0     H21221   1.245   8.302   6.320 -0.5492  0.1374  1.2283
  898MOL0     H21222   1.465   8.444   6.218 -0.3807 -0.9304 -1.2833
  898MOL0     H21223   1.498   8.326   6.338  1.5448  0.9382  1.8246
  898MOL0     H21224   1.470   8.496   6.509  1.8661 -0.2441  0.3911
  898MOL0     H21225   1.446   8.618   6.384 -1.6557 -0.8177 -0.3915
  898MOL0     H21226   1.687   8.437   6.454  0.8610  0.5381  1.5511
  898MOL0     H21227   1.672   8.612   6.471  0.9418 -0.9436 -0.0885
  898MOL0     H21228   1.775   8.614   6.059 -1.6227 -2.9636 -0.6220
  898MOL0     H21229   1.125   8.693   6.112  0.6574 -0.2409  0.3142
  898MOL0     H21230   0.885   8.751   6.097 -0.0887 -1.4507 -2.3474
  899MOL0     O21231   9.569   4.254   5.176  0.2954  0.8529 -0.2228
  899MOL0     C21232   9.585   4.313   5.069  0.0387  1.0569 -0.0075
  899MOL0     O21233   9.495   4.301   4.963  0.2532 -0.3135 -0.4570
  899MOL0     C21234   9.390   4.215   4.984  0.0643  0.1369  0.1180
  899MOL0     C21235   9.261   4.264   4.960 -0.5583  0.2868 -0.4763
  899MOL0     C21236   9.149   4.176   4.957  0.5685 -0.1021  0.2349
  899MOL0     C21237   9.163   4.046   5.002 -0.3021  0.1992  0.3082
  899MOL0     O21238   9.048   3.966   5.010  0.1909  0.5670 -0.4259
  899MOL0     C21239   9.070   3.823   4.999  0.6926  0.2482 -0.2746
  899MOL0     C21240   8.929   3.757   5.014 -0.6149  0.6878  0.3246
  899MOL0     C21241   8.930   3.622   4.942  0.0992 -0.1301 -0.5748
  899MOL0     C21242   9.063   3.539   4.953  0.6500 -0.2247  0.2348
  899MOL0     C21243   9.045   3.402   4.880  0.2047  0.2566 -0.2649
  899MOL0     C21244   9.170   3.309   4.917  0.0637 -0.1425 -0.0169
  899MOL0     C21245   9.184   3.187   4.831 -0.6788 -0.3158 -0.5582
  899MOL0     C21246   9.310   3.106   4.878  0.1224  0.2424  0.1460
  899MOL0     N21247   9.262   2.996   4.961  0.5384  0.1793 -0.8404
  899MOL0     C21248   9.192   2.993   5.081 -0.4760 -0.5887  0.3449
  899MOL0     C21249   9.199   2.864   5.119  0.4448 -0.0596 -0.4313
  899MOL0     C21250   9.136   2.813   5.253 -0.7928 -0.4226  0.2150
  899MOL0     C21251   8.987   2.781   5.229 -0.0977  0.0513 -0.3429
  899MOL0     C21252   8.930   2.722   5.366 -0.2004 -0.6512 -0.0759
  899MOL0     C21253   8.775   2.722   5.353 -0.0896 -0.0272  0.0893
  899MOL0     O21254   8.724   2.677   5.475  0.4266 -0.1219 -0.5597
  899MOL0     C21255   8.590   2.680   5.495  0.2984 -0.8638  1.2399
  899MOL0     C21256   8.549   2.660   5.631 -0.9491  0.8477 -0.5024
  899MOL0     C21257   8.420   2.640   5.658 -0.0857 -0.1393 -0.8923
  899MOL0     C21258   8.381   2.589   5.797 -0.6142 -1.2068 -0.2332
  899MOL0     C21259   8.316   2.653   5.562  0.8431 -0.7167 -0.1776
  899MOL0     C21260   8.172   2.641   5.592  1.7068 -0.6507 -0.8689
  899MOL0     O21261   8.098   2.553   5.512  0.3461  0.2130 -0.3637
  899MOL0     C21262   7.964   2.537   5.535 -0.4632 -0.1595  0.4721
  899MOL0     C21263   7.882   2.604   5.441  0.2059  1.0488 -0.5305
  899MOL0     C21264   7.735   2.593   5.452  0.0142  0.8331 -0.2779
  899MOL0     C21265   7.679   2.526   5.563  0.2940  0.1775 -0.3671
  899MOL0     O21266   7.540   2.518   5.562 -0.9489 -0.4092  0.6482
  899MOL0     C21267   7.478   2.450   5.664 -0.0841  0.1705 -0.0362
  899MOL0     C21268   7.330   2.472   5.648 -0.5386  0.0742 -0.5026
  899MOL0     C21269   7.262   2.455   5.782 -0.3775 -0.3872  0.1341
  899MOL0     C21270   7.110   2.461   5.765  0.9405 -0.0732  0.6623
  899MOL0     C21271   7.043   2.481   5.900 -0.4115  0.6587 -0.1918
  899MOL0     C21272   6.882   2.468   5.891  0.3211  0.2702  0.0699
  899MOL0     C21273   6.822   2.459   6.031 -0.4550 -0.3106 -0.4782
  899MOL0     C21274   6.669   2.431   6.036  1.2031  0.7109  0.6774
  899MOL0    Cl21275   6.629   2.474   6.208 -0.1669 -0.4667  0.5160
  899MOL0     C21276   7.768   2.461   5.654  0.2091  0.1695  0.2509
  899MOL0     C21277   7.910   2.474   5.640 -0.3932  0.6100 -0.0877
  899MOL0     O21278   8.138   2.696   5.697  1.5737 -0.4373  0.3962
  899MOL0     C21279   8.356   2.686   5.431 -0.2508  0.8540 -0.4913
  899MOL0     C21280   8.492   2.695   5.393 -0.6117  0.2255  0.3605
  899MOL0     N21281   9.259   2.786   5.023 -0.6247  0.1978  0.5064
  899MOL0     N21282   9.288   2.868   4.925 -1.4622 -0.0281  0.0446
  899MOL0     C21283   9.284   3.998   5.027 -1.0858 -0.9415  0.3864
  899MOL0     C21284   9.399   4.080   5.011  0.7059 -0.3174 -0.0362
  899MOL0     C21285   9.715   4.374   5.049 -0.0913 -0.6875  0.9102
  899MOL0     C21286   9.802   4.382   5.159 -0.7518  0.0546  0.1322
  899MOL0     C21287   9.938   4.437   5.145  0.1587 -0.4439 -0.0113
  899MOL0     C21288   9.964   4.508   5.029 -0.1894 -0.0070  0.3734
  899MOL0     O21289  10.084   4.586   5.047  0.6294  0.4528 -0.4877
  899MOL0     C21290  10.114   4.673   4.940  0.5079 -0.3874 -0.5645
  899MOL0     C21291  10.246   4.741   4.989 -0.7262 -0.2163 -1.2470
  899MOL0     C21292  10.369   4.653   4.991  0.2206  0.0920  0.3899
  899MOL0     C21293  10.399   4.591   4.854 -0.1842  0.3178  0.1199
  899MOL0     C21294  10.540   4.568   4.839  0.0556 -0.0414 -0.7182
  899MOL0     C21295  10.664   4.568   4.832 -0.0714 -0.0485 -0.2382
  899MOL0     C21296   9.872   4.507   4.923  0.0771 -0.7238 -0.0601
  899MOL0     C21297   9.747   4.438   4.927  0.1705 -0.3947 -0.8978
  899MOL0     H21298   9.268   4.372   4.953  2.3664  0.1039 -2.0986
  899MOL0     H21299   9.053   4.219   4.933  1.1101  0.2607 -1.4553
  899MOL0     H21300   9.117   3.810   4.901  3.0194 -0.9768  0.9134
  899MOL0     H21301   9.143   3.790   5.074 -0.6917  2.6852  2.3579
  899MOL0     H21302   8.901   3.738   5.118 -2.0067 -1.4569 -0.3831
  899MOL0     H21303   8.857   3.822   4.963 -1.2185 -0.3764 -0.2127
  899MOL0     H21304   8.838   3.565   4.960 -0.5195  1.2035  0.7095
  899MOL0     H21305   8.928   3.641   4.834 -0.8253  1.9636 -0.2399
  899MOL0     H21306   9.147   3.588   4.904  2.3676 -2.0998  1.1772
  899MOL0     H21307   9.091   3.527   5.058 -0.0384  1.5430  0.6653
  899MOL0     H21308   8.941   3.376   4.901 -0.3429  2.7371  0.4835
  899MOL0     H21309   9.049   3.415   4.771 -3.9544  0.1183 -0.5813
  899MOL0     H21310   9.265   3.361   4.914  0.6138 -1.1630 -1.2038
  899MOL0     H21311   9.164   3.276   5.022  5.1433 -1.5387  0.1000
  899MOL0     H21312   9.091   3.130   4.844 -1.5306  1.0594 -0.4608
  899MOL0     H21313   9.189   3.219   4.726  3.3853  0.8992 -0.1614
  899MOL0     H21314   9.388   3.162   4.931  0.9279 -2.9927  2.6753
  899MOL0     H21315   9.347   3.069   4.782 -1.4572  3.0936 -1.7240
  899MOL0     H21316   9.156   3.087   5.123  1.9827  2.0152 -2.8523
  899MOL0     H21317   9.189   2.721   5.280  0.2752 -1.4759 -4.5178
  899MOL0     H21318   9.146   2.890   5.330  1.7449  0.8962 -1.2667
  899MOL0     H21319   8.971   2.710   5.147  0.5367 -0.2041 -0.2545
  899MOL0     H21320   8.940   2.876   5.204 -2.0859  0.1116  3.0285
  899MOL0     H21321   8.946   2.793   5.448  0.4534  0.6301 -1.2723
  899MOL0     H21322   8.976   2.624   5.381 -0.2413 -0.6750 -0.1087
  899MOL0     H21323   8.754   2.649   5.275 -3.2368  0.8418 -0.0368
  899MOL0     H21324   8.739   2.823   5.330 -0.0917 -0.4493 -1.8545
  899MOL0     H21325   8.611   2.649   5.720  0.8568  1.2114 -1.6551
  899MOL0     H21326   8.314   2.503   5.787 -1.4204 -0.6898  0.6284
  899MOL0     H21327   8.474   2.563   5.849  0.2513 -1.7637 -1.9602
  899MOL0     H21328   8.322   2.658   5.857  0.2234 -0.4608 -0.2327
  899MOL0     H21329   7.917   2.652   5.350 -0.9499  1.5810 -0.7108
  899MOL0     H21330   7.666   2.618   5.372  0.9669  0.1454 -1.3428
  899MOL0     H21331   7.504   2.344   5.666 -0.9078 -0.0609  2.7684
  899MOL0     H21332   7.507   2.487   5.764  1.6133 -0.2288 -0.3448
  899MOL0     H21333   7.301   2.569   5.607 -1.8105 -0.7551 -1.6703
  899MOL0     H21334   7.294   2.395   5.579 -1.5688 -1.1859  1.3518
  899MOL0     H21335   7.305   2.526   5.852  0.2136 -0.5787 -0.0321
  899MOL0     H21336   7.285   2.359   5.829 -0.8371 -1.4366 -1.6618
  899MOL0     H21337   7.075   2.543   5.701 -1.5989 -0.2437  1.7173
  899MOL0     H21338   7.088   2.361   5.726  1.3910  0.6627 -1.6500
  899MOL0     H21339   7.065   2.581   5.939  1.3087  0.2202  0.0245
  899MOL0     H21340   7.078   2.404   5.968 -0.4008  2.3984  1.8589
  899MOL0     H21341   6.822   2.545   5.841 -1.2050 -1.9446 -1.7758
  899MOL0     H21342   6.868   2.380   5.828 -0.0051 -1.7532  2.7913
  899MOL0     H21343   6.840   2.551   6.086 -3.4196 -0.2698  0.6374
  899MOL0     H21344   6.876   2.372   6.069  0.5113 -0.2133 -1.5794
  899MOL0     H21345   6.651   2.325   6.018  1.9614  0.2785  2.3089
  899MOL0     H21346   6.614   2.492   5.964  2.0435  2.3141  1.3351
  899MOL0     H21347   7.734   2.394   5.732  0.7480 -4.7649 -3.2464
  899MOL0     H21348   7.964   2.433   5.724 -2.0523  0.4976  0.9847
  899MOL0     H21349   8.285   2.707   5.352 -0.8413 -0.5561 -0.3617
  899MOL0     H21350   8.521   2.720   5.291 -0.5940 -0.9220  0.0652
  899MOL0     H21351   9.310   3.897   5.056  0.3070 -0.2248  1.8359
  899MOL0     H21352   9.499   4.038   5.021  0.6624 -0.7662 -1.2932
  899MOL0     H21353   9.796   4.335   5.256  0.6518 -2.4273 -0.8974
  899MOL0     H21354  10.002   4.434   5.232 -2.0603  2.0933  1.8792
  899MOL0     H21355  10.135   4.623   4.846  1.3971  1.3502 -1.3481
  899MOL0     H21356  10.033   4.744   4.922  0.4089 -0.3476 -0.0018
  899MOL0     H21357  10.232   4.787   5.087  0.3521  4.2231 -2.9284
  899MOL0     H21358  10.266   4.828   4.925  1.6814  2.8401  3.0945
  899MOL0     H21359  10.356   4.572   5.063  0.0782 -3.3189 -3.0873
  899MOL0     H21360  10.456   4.709   5.025 -0.0208 -0.8777  2.7978
  899MOL0     H21361  10.369   4.657   4.772 -0.3783  0.9832  0.7143
  899MOL0     H21362  10.358   4.490   4.845  1.2600 -0.1197 -2.5580
  899MOL0     H21363  10.770   4.557   4.818 -0.0748 -0.2338 -0.1210
  899MOL0     H21364   9.888   4.550   4.824  2.7745  3.1338  1.8115
  899MOL0     H21365   9.678   4.453   4.844 -2.0718 -1.6817  0.6237
  900MOL0     O21366   6.775   2.348   9.081 -0.3191 -0.0107  0.4935
  900MOL0     C21367   6.833   2.256   9.018  0.3241 -0.4805 -0.2910
  900MOL0     O21368   6.780   2.157   8.937  0.9971  0.1166  0.2236
  900MOL0     C21369   6.646   2.135   8.926  0.2617  0.4556  0.0192
  900MOL0     C21370   6.553   2.174   9.028  0.2803  1.0847 -0.0380
  900MOL0     C21371   6.412   2.162   8.996  0.0603 -0.6373  0.3560
  900MOL0     C21372   6.371   2.106   8.885 -0.2666  0.0031  0.3299
  900MOL0     O21373   6.241   2.088   8.863  0.3638 -0.6196 -0.7355
  900MOL0     C21374   6.189   1.960   8.906  0.5313  0.0350  0.0317
  900MOL0     C21375   6.040   1.939   8.847  0.0869 -1.2801  0.0444
  900MOL0     C21376   5.946   2.050   8.875 -1.0182  0.3763 -0.1973
  900MOL0     C21377   5.801   2.029   8.814 -0.6035  0.2443  0.4996
  900MOL0     C21378   5.705   2.149   8.841 -1.4908 -0.5710  0.4950
  900MOL0     C21379   5.604   2.109   8.941  0.7661  0.9732 -0.7823
  900MOL0     C21380   5.524   2.235   8.980  0.9195 -0.8236  0.3275
  900MOL0     C21381   5.406   2.202   9.085 -0.2986  0.1938  0.7251
  900MOL0     N21382   5.299   2.117   9.036 -0.1368 -0.1537  0.1493
  900MOL0     C21383   5.217   2.147   8.921 -1.1114  0.9602 -0.0935
  900MOL0     C21384   5.132   2.043   8.921 -0.2609 -0.5071 -0.2208
  900MOL0     C21385   5.026   2.006   8.820 -0.3715 -0.3983 -0.2450
  900MOL0     C21386   4.896   2.075   8.855 -0.2585  0.6349 -0.4192
  900MOL0     C21387   4.901   2.215   8.799 -0.6170  0.5044 -0.2609
  900MOL0     C21388   4.759   2.283   8.811  0.0724  0.2772 -0.2802
  900MOL0     O21389   4.701   2.284   8.944 -0.8203 -0.1138  1.2574
  900MOL0     C21390   4.569   2.268   8.945  1.0884 -0.4067 -0.8977
  900MOL0     C21391   4.498   2.375   8.985  0.8092  0.6091  0.1927
  900MOL0     C21392   4.354   2.371   8.997 -1.0396  0.4001  0.2495
  900MOL0     C21393   4.304   2.501   9.061  0.9185  0.7713  0.3798
  900MOL0     C21394   4.274   2.260   8.950  0.3858 -1.2465 -0.0446
  900MOL0     C21395   4.127   2.260   8.941  0.6782  0.4431 -0.7542
  900MOL0     O21396   4.060   2.147   8.931 -0.6320  0.2006  0.1554
  900MOL0     C21397   3.930   2.144   8.956  0.4764 -0.6723 -0.3417
  900MOL0     C21398   3.836   2.206   8.871 -0.6486 -0.1844  0.5429
  900MOL0     C21399   3.701   2.194   8.891  0.4770 -0.4679  0.3662
  900MOL0     C21400   3.647   2.119   8.986  0.8721  0.3812 -0.4366
  900MOL0     O21401   3.506   2.124   9.007  0.4728 -0.1680 -0.3484
  900MOL0     C21402   3.440   2.092   9.130 -0.2540  0.3235 -0.2655
  900MOL0     C21403   3.294   2.131   9.130 -0.6862 -0.3253 -1.1263
  900MOL0     C21404   3.209   2.053   9.026 -0.3425  0.0203 -0.5968
  900MOL0     C21405   3.073   2.107   9.040  0.4618  0.0160  0.8195
  900MOL0     C21406   2.974   2.034   8.942  0.0051  0.2755 -0.7016
  900MOL0     C21407   2.830   2.084   8.969  0.7367 -0.3388 -0.3342
  900MOL0     C21408   2.739   2.029   8.862  0.1922 -0.4694  0.3491
  900MOL0     C21409   2.608   2.104   8.856 -0.0937  0.8181 -0.2099
  900MOL0    Cl21410   2.501   2.028   8.731  0.3215  0.1787 -0.0465
  900MOL0     C21411   3.734   2.046   9.069 -0.0762  0.7633 -0.3689
  900MOL0     C21412   3.873   2.060   9.062 -0.6896  0.2602  0.4910
  900MOL0     O21413   4.076   2.370   8.942  0.5040 -0.1561 -0.2399
  900MOL0     C21414   4.355   2.157   8.910 -0.1764 -0.7623  0.0028
  900MOL0     C21415   4.493   2.154   8.906 -0.5601  1.2412  0.2095
  900MOL0     N21416   5.162   1.954   9.031 -0.2645 -0.1461 -0.0981
  900MOL0     N21417   5.268   1.999   9.099 -0.4692 -0.4485  0.0273
  900MOL0     C21418   6.457   2.082   8.783 -0.0572  0.1823  1.1772
  900MOL0     C21419   6.592   2.088   8.805 -0.3418 -0.7317  0.3104
  900MOL0     C21420   6.979   2.247   9.028 -0.6346 -0.4046 -0.9224
  900MOL0     C21421   7.049   2.322   9.118 -0.9076  0.5866  0.2686
  900MOL0     C21422   7.196   2.318   9.109  1.1863  0.5900 -0.5858
  900MOL0     C21423   7.267   2.234   9.020  0.0689 -0.3012 -0.6721
  900MOL0     O21424   7.402   2.236   9.005  0.0230 -0.3345 -0.0582
  900MOL0     C21425   7.479   2.247   9.125 -0.3936 -0.2699  0.1950
  900MOL0     C21426   7.631   2.244   9.093 -0.6430 -0.1646  0.2733
  900MOL0     C21427   7.676   2.101   9.061  0.5803 -0.5616  0.0326
  900MOL0     C21428   7.802   2.105   8.983 -0.1400  0.2504  0.1466
  900MOL0     C21429   7.841   1.972   8.934 -0.4863 -0.4739 -0.4125
  900MOL0     C21430   7.876   1.861   8.903 -0.9387  0.5975 -0.0229
  900MOL0     C21431   7.192   2.152   8.945 -0.8100  0.5692 -0.1574
  900MOL0     C21432   7.052   2.155   8.947 -0.4669  0.5464 -0.0687
  900MOL0     H21433   6.577   2.226   9.120 -1.6725  4.6512 -1.3445
  900MOL0     H21434   6.336   2.183   9.070 -2.4575  2.0300 -2.6635
  900MOL0     H21435   6.255   1.877   8.880  0.2873 -0.2363  0.2840
  900MOL0     H21436   6.181   1.964   9.015 -1.3494 -1.6769  0.0009
  900MOL0     H21437   6.054   1.908   8.743 -2.5825  0.5272 -0.9811
  900MOL0     H21438   5.988   1.852   8.887 -0.5865 -2.5203 -3.1897
  900MOL0     H21439   5.934   2.071   8.982 -0.7163 -2.0501  0.3660
  900MOL0     H21440   5.994   2.142   8.839  0.5125 -1.1402 -2.2592
  900MOL0     H21441   5.794   1.999   8.709 -2.8281  2.6218 -0.1167
  900MOL0     H21442   5.747   1.946   8.861 -1.9310 -0.8960 -2.7335
  900MOL0     H21443   5.770   2.225   8.887 -2.6267 -0.2001  1.5366
  900MOL0     H21444   5.654   2.183   8.751 -2.8318 -2.6875  0.3754
  900MOL0     H21445   5.544   2.033   8.889  2.0901  0.3880 -1.5108
  900MOL0     H21446   5.651   2.068   9.031  2.1210 -0.6935 -2.1781
  900MOL0     H21447   5.591   2.310   9.024  0.5573 -0.0595 -0.3925
  900MOL0     H21448   5.489   2.289   8.892 -2.4018  1.0328  2.5692
  900MOL0     H21449   5.351   2.292   9.113 -1.2497 -1.2387  3.9567
  900MOL0     H21450   5.453   2.152   9.171 -2.5914 -0.8911  1.4157
  900MOL0     H21451   5.221   2.226   8.847 -2.2784  2.3145  1.2288
  900MOL0     H21452   5.065   2.045   8.725 -1.0697 -0.7631 -0.6858
  900MOL0     H21453   5.013   1.897   8.822  2.5610 -0.8414  0.0987
  900MOL0     H21454   4.883   2.066   8.963  1.0028  0.5009 -0.2561
  900MOL0     H21455   4.816   2.026   8.798 -1.4593  0.9568  0.9414
  900MOL0     H21456   4.948   2.224   8.701 -0.0958  1.2126  0.0425
  900MOL0     H21457   4.973   2.257   8.870 -1.3053 -1.0187  1.4573
  900MOL0     H21458   4.691   2.228   8.745 -2.1914  1.0978  1.2448
  900MOL0     H21459   4.759   2.389   8.786  0.9564  0.6716  1.2458
  900MOL0     H21460   4.547   2.466   9.020  0.5894  2.0170 -2.8625
  900MOL0     H21461   4.369   2.538   9.140  1.2539  2.4960 -0.6647
  900MOL0     H21462   4.282   2.572   8.981 -2.2166  0.2100  0.6278
  900MOL0     H21463   4.210   2.483   9.114  1.6441 -0.2428  1.3575
  900MOL0     H21464   3.875   2.275   8.796 -2.3254  2.7661  2.1734
  900MOL0     H21465   3.627   2.244   8.830  1.5239  1.1557  0.3728
  900MOL0     H21466   3.453   1.985   9.151 -3.7772 -0.1445  0.1207
  900MOL0     H21467   3.494   2.133   9.216 -1.2856 -1.6073  1.4017
  900MOL0     H21468   3.264   2.104   9.232  0.7438 -0.4518 -0.7250
  900MOL0     H21469   3.282   2.239   9.115 -1.6990  0.0761  1.9934
  900MOL0     H21470   3.211   1.946   9.051  0.0758  0.0859 -0.3351
  900MOL0     H21471   3.258   2.067   8.929  1.1222 -2.0930 -0.2288
  900MOL0     H21472   3.035   2.091   9.142  2.1361 -1.0236  1.3137
  900MOL0     H21473   3.075   2.210   9.005  3.7039 -0.0420  0.5972
  900MOL0     H21474   2.986   1.928   8.965  0.2847  0.6597  1.1306
  900MOL0     H21475   3.013   2.048   8.841  1.6629 -0.9600 -0.2871
  900MOL0     H21476   2.801   2.065   9.073  0.8760  2.4490  0.2893
  900MOL0     H21477   2.824   2.193   8.960  0.3291 -0.4647 -1.7786
  900MOL0     H21478   2.729   1.921   8.875  0.6176 -0.5215  0.2608
  900MOL0     H21479   2.787   2.034   8.764 -2.8331 -0.4195 -1.2511
  900MOL0     H21480   2.631   2.207   8.829  2.6159  0.4086  0.2100
  900MOL0     H21481   2.564   2.096   8.956 -1.1739 -1.3164 -0.7976
  900MOL0     H21482   3.692   1.998   9.156  0.5718  0.3536 -0.2722
  900MOL0     H21483   3.933   2.007   9.135 -0.1449  1.1994  0.7423
  900MOL0     H21484   4.303   2.065   8.884 -0.8652 -0.0266 -1.3365
  900MOL0     H21485   4.541   2.061   8.879 -1.9034 -0.0044  1.9125
  900MOL0     H21486   6.419   2.049   8.687  1.1887  2.3977 -0.1505
  900MOL0     H21487   6.657   2.058   8.722  2.8294 -1.4288  2.8494
  900MOL0     H21488   7.003   2.389   9.190 -0.9459 -0.0763  0.8752
  900MOL0     H21489   7.252   2.383   9.175  1.2697  0.1198 -0.1890
  900MOL0     H21490   7.452   2.344   9.169 -2.6324 -0.6068 -0.3165
  900MOL0     H21491   7.455   2.167   9.196 -2.0944 -1.0286 -1.1692
  900MOL0     H21492   7.691   2.287   9.174  0.0172  3.1479 -1.7920
  900MOL0     H21493   7.651   2.314   9.012  1.3660  0.0539  0.8965
  900MOL0     H21494   7.597   2.056   9.000 -1.1821  3.5997 -1.1610
  900MOL0     H21495   7.697   2.041   9.150  0.5452 -0.9131 -0.1965
  900MOL0     H21496   7.878   2.152   9.046 -2.7013  2.6176  1.6758
  900MOL0     H21497   7.793   2.163   8.890  1.0831 -1.8580 -1.4000
  900MOL0     H21498   7.918   1.765   8.880  1.3799  1.5918 -0.1391
  900MOL0     H21499   7.257   2.091   8.883 -1.6224 -1.4505  0.9228
  900MOL0     H21500   7.009   2.084   8.877 -0.0402  0.6615 -0.4567
  901MOL0     O21501   7.245   8.287   0.610 -0.4696  0.7690 -0.0845
  901MOL0     C21502   7.285   8.358   0.703 -0.6554  0.1487  0.0006
  901MOL0     O21503   7.203   8.448   0.774  0.0748  0.4202  0.3343
  901MOL0     C21504   7.068   8.425   0.779  0.3604 -0.5208 -0.5378
  901MOL0     C21505   6.986   8.537   0.803  0.1713 -0.2178 -0.0553
  901MOL0     C21506   6.845   8.537   0.807 -0.4449  0.1210  0.5138
  901MOL0     C21507   6.781   8.423   0.791 -0.0373 -0.0717 -0.0278
  901MOL0     O21508   6.648   8.416   0.788  0.1562 -0.3388  0.0393
  901MOL0     C21509   6.574   8.293   0.799 -0.3700 -0.8193 -0.6892
  901MOL0     C21510   6.423   8.326   0.810 -0.3984 -0.1165 -0.3896
  901MOL0     C21511   6.339   8.195   0.844 -0.5300 -0.7240 -0.6336
  901MOL0     C21512   6.195   8.200   0.791 -0.6407  0.1182  0.1694
  901MOL0     C21513   6.095   8.085   0.819  0.2831  0.2215 -0.2491
  901MOL0     C21514   5.971   8.095   0.742  0.2857  0.8649 -0.3368
  901MOL0     C21515   5.872   7.983   0.772  0.4171 -0.3660 -0.0490
  901MOL0     C21516   5.796   8.000   0.908  0.5898 -0.0512  0.0858
  901MOL0     N21517   5.701   7.887   0.908 -0.4285  1.0939  0.1405
  901MOL0     C21518   5.566   7.887   0.878 -0.1756 -0.9589 -0.4488
  901MOL0     C21519   5.515   7.770   0.930 -0.0038  0.3646 -0.4204
  901MOL0     C21520   5.365   7.734   0.940 -0.2950 -0.3102  0.6016
  901MOL0     C21521   5.285   7.853   0.992 -0.8198  0.1289 -1.3705
  901MOL0     C21522   5.141   7.836   0.944  0.3036 -0.7740  0.3880
  901MOL0     C21523   5.070   7.720   1.003 -0.0175 -0.2178 -0.0852
  901MOL0     O21524   4.948   7.685   0.933 -0.8569  0.3304  0.0364
  901MOL0     C21525   4.844   7.733   1.004  0.7482 -0.4617 -0.3951
  901MOL0     C21526   4.794   7.642   1.096 -0.0384 -0.1851 -0.2271
  901MOL0     C21527   4.685   7.675   1.177 -0.5865 -0.0250 -0.2802
  901MOL0     C21528   4.661   7.564   1.284 -0.7039  0.1711 -0.0115
  901MOL0     C21529   4.622   7.804   1.169  0.2194 -0.0475 -0.0467
  901MOL0     C21530   4.494   7.844   1.238  0.4489  0.3025  0.4106
  901MOL0     O21531   4.446   7.979   1.236  0.5761  0.1332  0.4432
  901MOL0     C21532   4.330   8.004   1.297 -0.9008 -0.2643  0.6917
  901MOL0     C21533   4.217   7.946   1.239  0.5048  0.6618 -0.9615
  901MOL0     C21534   4.095   7.951   1.314  0.4580  0.5546  0.5927
  901MOL0     C21535   4.090   8.010   1.445  0.3431  0.4931  0.4343
  901MOL0     O21536   3.977   8.027   1.521 -0.2959  0.0782 -0.3812
  901MOL0     C21537   3.842   7.984   1.487 -0.0762  0.2884  0.4312
  901MOL0     C21538   3.751   8.036   1.602 -0.1490  0.0219 -0.4907
  901MOL0     C21539   3.602   7.994   1.583  0.3439 -0.6459  0.4387
  901MOL0     C21540   3.510   8.073   1.483  0.9473  0.1134 -0.6590
  901MOL0     C21541   3.360   8.028   1.515  0.0079  0.4773 -0.4916
  901MOL0     C21542   3.262   8.094   1.420 -0.0437 -0.0288  0.2605
  901MOL0     C21543   3.130   8.022   1.396  0.1083 -0.8074  0.1193
  901MOL0     C21544   3.033   8.084   1.286 -0.3776  0.3293  0.3091
  901MOL0    Cl21545   2.867   8.006   1.289 -0.4290  0.1194  0.3602
  901MOL0     C21546   4.209   8.075   1.493  0.1789  0.9472  0.3833
  901MOL0     C21547   4.333   8.072   1.414 -0.3610  0.3544 -0.6190
  901MOL0     O21548   4.430   7.746   1.267  0.6744 -0.6730  0.0984
  901MOL0     C21549   4.675   7.889   1.077 -0.0224 -0.0929  0.6420
  901MOL0     C21550   4.782   7.860   0.992 -0.3966  0.0343 -0.9475
  901MOL0     N21551   5.625   7.691   0.963 -0.8326  0.4849  0.2184
  901MOL0     N21552   5.734   7.760   0.951  0.4090  0.5415 -0.5422
  901MOL0     C21553   6.863   8.299   0.770 -0.1358 -0.4093 -0.3328
  901MOL0     C21554   7.005   8.302   0.770 -0.1792 -0.3001  0.2433
  901MOL0     C21555   7.432   8.367   0.739 -0.5925  0.6918 -0.1557
  901MOL0     C21556   7.533   8.282   0.679  0.1162 -0.6005 -0.1317
  901MOL0     C21557   7.670   8.287   0.716  0.6055  0.3321  1.0342
  901MOL0     C21558   7.707   8.385   0.813 -0.3247 -0.5892  0.1426
  901MOL0     O21559   7.838   8.414   0.854 -0.2509 -0.3968 -0.2354
  901MOL0     C21560   7.938   8.341   0.785 -0.6422 -0.9527  0.3628
  901MOL0     C21561   8.072   8.389   0.841 -1.1497  0.1432  0.0564
  901MOL0     C21562   8.121   8.524   0.781 -0.4186  0.2187  1.0279
  901MOL0     C21563   8.245   8.577   0.871  0.8408 -0.0688 -0.5665
  901MOL0     C21564   8.309   8.698   0.813  0.5738  0.0925 -0.5591
  901MOL0     C21565   8.375   8.796   0.759  0.3421  0.2532 -1.1785
  901MOL0     C21566   7.610   8.472   0.873  0.5186  1.1737  0.0404
  901MOL0     C21567   7.472   8.452   0.846  0.1582  0.2068 -0.1778
  901MOL0     H21568   7.032   8.634   0.819 -3.6936  1.6074  1.2496
  901MOL0     H21569   6.793   8.631   0.820 -0.6088 -0.2737  3.1851
  901MOL0     H21570   6.585   8.231   0.709 -0.1266  0.3767 -1.5120
  901MOL0     H21571   6.607   8.242   0.889  1.3239  0.2279 -0.6830
  901MOL0     H21572   6.414   8.401   0.889  0.9878 -1.5865  1.2513
  901MOL0     H21573   6.387   8.372   0.718  0.4903  2.9638  0.6917
  901MOL0     H21574   6.385   8.102   0.810 -1.6050 -2.1144  1.4927
  901MOL0     H21575   6.350   8.185   0.952  2.0107 -0.1385 -0.7747
  901MOL0     H21576   6.152   8.289   0.837 -0.6245  0.7235 -0.9589
  901MOL0     H21577   6.201   8.210   0.682  0.7869 -1.4535  0.0732
  901MOL0     H21578   6.144   7.989   0.806  2.0183  0.7673  1.7438
  901MOL0     H21579   6.060   8.092   0.923 -3.7679  0.9720 -1.4705
  901MOL0     H21580   5.922   8.188   0.772  1.0497  1.2717 -0.3059
  901MOL0     H21581   5.992   8.104   0.635  1.4847 -0.4283 -0.2381
  901MOL0     H21582   5.796   7.983   0.693  0.2556 -2.6930  0.0242
  901MOL0     H21583   5.913   7.882   0.764  0.8117 -0.3971  1.9206
  901MOL0     H21584   5.740   8.094   0.903  0.1615 -0.1965  1.7635
  901MOL0     H21585   5.859   7.996   0.997 -0.8716 -0.9046  1.1308
  901MOL0     H21586   5.512   7.975   0.848  3.1374  0.7980 -1.7505
  901MOL0     H21587   5.330   7.705   0.840  1.4182  0.0355 -0.1545
  901MOL0     H21588   5.355   7.639   0.994 -3.0959 -0.7459 -0.5408
  901MOL0     H21589   5.317   7.947   0.948  0.5720  0.7986  0.9185
  901MOL0     H21590   5.280   7.858   1.101 -0.7845 -0.2900 -1.3475
  901MOL0     H21591   5.148   7.826   0.835  2.0161 -0.3484  0.4334
  901MOL0     H21592   5.088   7.929   0.966 -0.5570 -0.7075 -1.7274
  901MOL0     H21593   5.056   7.737   1.110 -0.4590 -0.3704 -0.1202
  901MOL0     H21594   5.138   7.634   1.000  1.3487  0.6859  2.2733
  901MOL0     H21595   4.849   7.550   1.106 -0.5654 -0.2835  2.8397
  901MOL0     H21596   4.599   7.483   1.246  1.9528 -2.1584  0.3413
  901MOL0     H21597   4.759   7.520   1.301 -0.1168  1.2570 -0.4326
  901MOL0     H21598   4.627   7.607   1.379  0.5884  4.1306 -1.1205
  901MOL0     H21599   4.220   7.904   1.139 -1.2923 -1.9091 -0.0454
  901MOL0     H21600   4.010   7.920   1.254  0.7111 -0.0500  0.5350
  901MOL0     H21601   3.804   8.040   1.401 -1.0610 -2.5726 -1.1162
  901MOL0     H21602   3.838   7.876   1.467  2.0698  0.8704 -4.9156
  901MOL0     H21603   3.794   7.992   1.693 -1.8158  1.4175  1.0395
  901MOL0     H21604   3.764   8.144   1.605 -1.9373  0.2399  1.0484
  901MOL0     H21605   3.548   8.001   1.677 -0.6058  1.1956 -0.2147
  901MOL0     H21606   3.609   7.891   1.544  2.0071  0.0136 -1.1743
  901MOL0     H21607   3.523   8.181   1.495  0.0962  0.2742 -1.1032
  901MOL0     H21608   3.543   8.047   1.382  0.6991  1.4482 -1.1158
  901MOL0     H21609   3.332   8.060   1.616  1.0832  0.2727 -0.1128
  901MOL0     H21610   3.366   7.920   1.501 -0.1068  0.2002  1.3756
  901MOL0     H21611   3.237   8.195   1.451 -2.0167 -0.2044 -0.5996
  901MOL0     H21612   3.314   8.096   1.324 -0.0481 -0.7469  0.2340
  901MOL0     H21613   3.073   8.009   1.488 -2.3245 -3.4927 -1.5768
  901MOL0     H21614   3.149   7.927   1.346  2.1684  0.7403 -2.2691
  901MOL0     H21615   3.082   8.073   1.189  0.9657 -2.7106  1.2009
  901MOL0     H21616   3.023   8.192   1.301 -0.0068  0.8005 -2.4409
  901MOL0     H21617   4.205   8.134   1.584 -0.7465  1.4393  0.0330
  901MOL0     H21618   4.427   8.116   1.446  0.5934 -1.0891 -1.3609
  901MOL0     H21619   4.633   7.988   1.094  1.0562  0.2582  1.3781
  901MOL0     H21620   4.811   7.925   0.910 -2.9938  0.9741 -1.2203
  901MOL0     H21621   6.814   8.202   0.773  0.2729 -0.6007  1.1759
  901MOL0     H21622   7.059   8.209   0.754  0.5704 -0.4507  3.1568
  901MOL0     H21623   7.500   8.221   0.595 -5.3314  1.7297 -0.0812
  901MOL0     H21624   7.742   8.216   0.676  0.0357 -0.3075  1.1082
  901MOL0     H21625   7.926   8.235   0.809 -1.1827 -1.5075 -2.0902
  901MOL0     H21626   7.939   8.346   0.676 -2.4956  0.8349  0.3614
  901MOL0     H21627   8.154   8.319   0.822  0.8879  1.6028  2.7878
  901MOL0     H21628   8.069   8.404   0.949  0.3069 -1.3708  0.3431
  901MOL0     H21629   8.037   8.592   0.790 -1.2673 -0.0962 -2.8049
  901MOL0     H21630   8.148   8.506   0.676 -2.2935  0.5897  0.4565
  901MOL0     H21631   8.323   8.503   0.890 -0.9584 -2.0696 -0.6292
  901MOL0     H21632   8.216   8.609   0.972 -0.4744  2.0343 -1.5529
  901MOL0     H21633   8.438   8.871   0.718  0.7089  0.9452  0.5473
  901MOL0     H21634   7.632   8.539   0.955  1.3784  0.4091  0.4558
  901MOL0     H21635   7.408   8.519   0.903  2.1153 -1.1915  4.1384
  902MOL0     O21636   0.796   6.798   9.825 -0.1780  1.3991 -0.0701
  902MOL0     C21637   0.867   6.850   9.742 -0.2648 -0.0703  0.8462
  902MOL0     O21638   0.848   6.980   9.693  0.5970 -0.1609 -0.5980
  902MOL0     C21639   0.755   7.071   9.738  1.0544  0.3609 -0.0210
  902MOL0     C21640   0.658   7.071   9.849 -0.8040  0.3919 -0.0837
  902MOL0     C21641   0.558   7.168   9.861  0.3446  0.9023 -0.2028
  902MOL0     C21642   0.544   7.274   9.769 -0.8678 -0.1659 -0.7483
  902MOL0     O21643   0.451   7.371   9.787  0.0519  0.2170  0.5196
  902MOL0     C21644   0.343   7.349   9.880 -1.0627  1.0621 -0.0639
  902MOL0     C21645   0.226   7.444   9.851 -0.2387 -0.0785  0.1673
  902MOL0     C21646   0.158   7.425   9.713  1.0342  0.6070  0.6046
  902MOL0     C21647   0.053   7.531   9.684  0.3376 -0.4572  0.4792
  902MOL0     C21648  -0.081   7.507   9.759 -0.2623 -0.2703  0.1803
  902MOL0     C21649  -0.188   7.599   9.690 -0.2426  0.5860  0.7115
  902MOL0     C21650  -0.316   7.598   9.780  0.3442  0.8011 -0.3186
  902MOL0     C21651  -0.395   7.462   9.762 -0.2612  0.7246  0.2973
  902MOL0     N21652  -0.535   7.496   9.794 -0.5009  0.6801 -0.0218
  902MOL0     C21653  -0.581   7.458   9.917  0.6695 -0.0026  0.3516
  902MOL0     C21654  -0.712   7.506   9.905  0.3929  1.4245  0.4165
  902MOL0     C21655  -0.819   7.496  10.016  0.1874 -0.0052  0.5978
  902MOL0     C21656  -0.861   7.630  10.085 -0.4408  0.5839 -0.7607
  902MOL0     C21657  -0.745   7.735  10.090 -0.2280  0.4306  1.2465
  902MOL0     C21658  -0.771   7.838  10.191 -0.2455 -0.1482 -1.1989
  902MOL0     O21659  -0.747   7.793  10.330  0.0462 -0.0345  0.4286
  902MOL0     C21660  -0.633   7.828  10.393 -0.2221  0.5888  0.1246
  902MOL0     C21661  -0.647   7.841  10.531  0.0853  0.3188 -0.3199
  902MOL0     C21662  -0.530   7.868  10.608  0.0289  0.4861 -0.4780
  902MOL0     C21663  -0.557   7.899  10.756  0.0109  0.5345 -0.7258
  902MOL0     C21664  -0.405   7.893  10.551 -0.0552 -0.6520 -0.6064
  902MOL0     C21665  -0.288   7.953  10.624  0.9633 -0.1585 -0.3072
  902MOL0     O21666  -0.284   7.943  10.759 -0.5604 -0.7895  0.1769
  902MOL0     C21667  -0.174   7.994  10.824  0.4410 -0.5846  0.4664
  902MOL0     C21668  -0.042   7.985  10.774  0.1033  0.4108 -0.6525
  902MOL0     C21669   0.059   8.021  10.861 -0.5075  0.2772  0.1936
  902MOL0     C21670   0.041   8.050  10.991 -0.3360  0.7827 -0.8776
  902MOL0     O21671   0.157   8.081  11.067 -0.4199  0.2897 -0.4035
  902MOL0     C21672   0.164   8.191  11.163  0.4255  0.1787 -0.1958
  902MOL0     C21673   0.221   8.319  11.090 -0.4314  0.8590  0.1003
  902MOL0     C21674   0.380   8.322  11.091  1.7516  0.0351 -0.4388
  902MOL0     C21675   0.428   8.337  10.949  0.2035  0.1993 -0.5216
  902MOL0     C21676   0.580   8.360  10.956 -0.2170  0.4633  0.6825
  902MOL0     C21677   0.677   8.264  11.015  0.1492  0.0452  0.3376
  902MOL0     C21678   0.680   8.136  10.941  0.0378 -0.4398 -0.3504
  902MOL0     C21679   0.737   8.020  11.023 -0.3423  1.2052  0.1060
  902MOL0    Cl21680   0.918   8.028  11.044 -0.1338  0.4517  0.3217
  902MOL0     C21681  -0.089   8.053  11.051 -0.0812 -0.0113  0.7471
  902MOL0     C21682  -0.197   8.029  10.957 -0.5103 -0.9833 -0.0985
  902MOL0     O21683  -0.204   8.013  10.561 -0.0135  0.6586 -0.2444
  902MOL0     C21684  -0.394   7.879  10.411  0.3779  0.6003  0.0292
  902MOL0     C21685  -0.506   7.840  10.332  0.6929 -0.7318 -0.1675
  902MOL0     N21686  -0.735   7.571   9.784 -0.4170  0.8505  0.0778
  902MOL0     N21687  -0.626   7.561   9.712  0.0097  0.1848  0.2124
  902MOL0     C21688   0.633   7.282   9.668  1.3156  0.5312 -0.6974
  902MOL0     C21689   0.734   7.185   9.656  0.0880  0.1192  0.2495
  902MOL0     C21690   0.975   6.760   9.685 -0.0038 -0.1341  1.2058
  902MOL0     C21691   1.070   6.809   9.594  0.3753 -0.0365 -0.2979
  902MOL0     C21692   1.173   6.733   9.539 -0.4646  0.2469  0.4530
  902MOL0     C21693   1.196   6.600   9.579  0.9854 -0.9974 -0.3114
  902MOL0     O21694   1.310   6.537   9.534 -0.0483 -0.2725  0.3715
  902MOL0     C21695   1.371   6.429   9.612  0.0723 -1.2434  0.5111
  902MOL0     C21696   1.512   6.403   9.554 -0.2748 -0.6240  0.5103
  902MOL0     C21697   1.574   6.278   9.625 -0.2350 -0.0922 -0.0806
  902MOL0     C21698   1.732   6.279   9.623 -0.4846  0.3562  0.4367
  902MOL0     C21699   1.780   6.371   9.723  0.5479  0.6668 -0.6163
  902MOL0     C21700   1.817   6.462   9.799 -0.5420 -0.0203 -0.9723
  902MOL0     C21701   1.104   6.542   9.669  0.0347 -0.9124  0.0597
  902MOL0     C21702   0.999   6.622   9.719  0.4547  0.0028 -0.6407
  902MOL0     H21703   0.677   7.001   9.930 -2.0462  1.2032  0.9509
  902MOL0     H21704   0.497   7.168   9.950 -0.1899 -0.0248 -0.5570
  902MOL0     H21705   0.310   7.245   9.879 -0.0538  0.7291 -1.3375
  902MOL0     H21706   0.376   7.378   9.980 -0.4676 -0.8685  0.3454
  902MOL0     H21707   0.156   7.431   9.933  2.8504 -2.6143  2.6930
  902MOL0     H21708   0.261   7.546   9.866  1.8291 -0.5902 -0.7852
  902MOL0     H21709   0.238   7.423   9.638  1.3105 -1.6849  0.8980
  902MOL0     H21710   0.119   7.323   9.714  1.7663  0.3227  1.0128
  902MOL0     H21711   0.089   7.626   9.724 -1.4504  0.1713  0.6549
  902MOL0     H21712   0.058   7.547   9.576  0.9501  1.8916  0.7955
  902MOL0     H21713  -0.099   7.399   9.751  3.5010 -1.5040  4.2670
  902MOL0     H21714  -0.057   7.532   9.863 -1.9074 -3.0583  1.3506
  902MOL0     H21715  -0.145   7.700   9.688  1.1348  0.0858  2.5466
  902MOL0     H21716  -0.204   7.570   9.586 -0.5469  0.6063  0.7496
  902MOL0     H21717  -0.287   7.584   9.884 -0.3166 -5.3788 -0.6112
  902MOL0     H21718  -0.384   7.683   9.765 -0.6554  0.3164  1.2191
  902MOL0     H21719  -0.349   7.373   9.807  0.3709  0.3978 -0.9221
  902MOL0     H21720  -0.392   7.438   9.655  3.1991  2.0148 -0.0230
  902MOL0     H21721  -0.537   7.400   9.997  0.1568 -2.6171 -1.1521
  902MOL0     H21722  -0.913   7.458   9.976 -1.2155 -1.7415  5.0076
  902MOL0     H21723  -0.785   7.422  10.089 -3.4457  0.7950  3.3982
  902MOL0     H21724  -0.898   7.606  10.185 -1.2348  1.1792 -0.9052
  902MOL0     H21725  -0.944   7.668  10.026 -2.7611 -0.4129  1.6559
  902MOL0     H21726  -0.720   7.775   9.991  2.3577 -2.9291  0.3243
  902MOL0     H21727  -0.654   7.681  10.120 -0.9719 -1.3237  0.4961
  902MOL0     H21728  -0.878   7.863  10.189 -0.9757 -2.9522 -0.8102
  902MOL0     H21729  -0.720   7.932  10.166 -0.8810  0.4678 -0.2743
  902MOL0     H21730  -0.745   7.824  10.575  1.1521 -1.6056  1.4820
  902MOL0     H21731  -0.500   7.828  10.816  0.6377 -0.6899 -2.6757
  902MOL0     H21732  -0.518   8.000  10.772  1.6550  0.3090 -2.8722
  902MOL0     H21733  -0.661   7.892  10.788  0.3241 -2.0330 -0.1146
  902MOL0     H21734  -0.011   7.959  10.674 -2.3201  2.2351 -1.9825
  902MOL0     H21735   0.161   8.013  10.825 -1.0636  1.8005 -1.9462
  902MOL0     H21736   0.074   8.212  11.221  0.8596 -1.1136  1.0122
  902MOL0     H21737   0.244   8.154  11.229  1.2344 -1.2303 -1.8821
  902MOL0     H21738   0.181   8.324  10.988  0.6076  0.9182 -0.3124
  902MOL0     H21739   0.173   8.406  11.137 -2.2731  0.5949 -1.1683
  902MOL0     H21740   0.414   8.221  11.114 -2.4440 -2.4513 -3.7500
  902MOL0     H21741   0.410   8.394  11.168  2.3298 -0.2049 -0.4397
  902MOL0     H21742   0.410   8.249  10.886  2.3259  0.7485 -2.0276
  902MOL0     H21743   0.387   8.414  10.884 -0.3357  0.6453  0.3403
  902MOL0     H21744   0.602   8.460  10.996  3.4683  1.0795 -2.3211
  902MOL0     H21745   0.615   8.374  10.854 -4.9839 -1.3702 -1.4666
  902MOL0     H21746   0.778   8.307  11.021  0.3630 -0.3889 -0.0430
  902MOL0     H21747   0.647   8.249  11.119 -2.7106  0.3463 -0.3670
  902MOL0     H21748   0.727   8.148  10.844 -0.3213  0.1230 -0.4604
  902MOL0     H21749   0.577   8.101  10.924  0.2989 -1.2874 -0.2739
  902MOL0     H21750   0.713   7.922  10.981 -3.3923  0.5128  2.9715
  902MOL0     H21751   0.678   8.019  11.116 -1.5994  0.7968 -0.6755
  902MOL0     H21752  -0.097   8.078  11.156 -0.0043  1.1811  0.4833
  902MOL0     H21753  -0.299   8.025  10.993 -0.8509 -0.0988 -0.9111
  902MOL0     H21754  -0.298   7.888  10.361  0.5161 -1.1025 -0.0712
  902MOL0     H21755  -0.511   7.851  10.224 -1.4763  3.5909  0.1604
  902MOL0     H21756   0.613   7.355   9.591 -1.2965  0.0650 -0.5472
  902MOL0     H21757   0.796   7.171   9.569  3.1361 -0.3220  2.3239
  902MOL0     H21758   1.061   6.914   9.568 -2.6894  0.1798  1.1630
  902MOL0     H21759   1.230   6.776   9.458 -1.5607 -1.6752 -1.4509
  902MOL0     H21760   1.392   6.474   9.710  1.8357 -0.7575 -0.0375
  902MOL0     H21761   1.306   6.342   9.622 -2.5234  0.1629 -2.3494
  902MOL0     H21762   1.581   6.488   9.558  0.2349 -0.3569 -5.0104
  902MOL0     H21763   1.510   6.382   9.446 -2.3114 -1.9852  0.7645
  902MOL0     H21764   1.538   6.196   9.563 -0.9224  1.7857 -2.3449
  902MOL0     H21765   1.557   6.266   9.733  0.2713 -1.5988 -0.1462
  902MOL0     H21766   1.764   6.293   9.519 -2.3703  0.3509 -0.2007
  902MOL0     H21767   1.768   6.182   9.658  0.2915 -0.6281 -2.7556
  902MOL0     H21768   1.843   6.546   9.861 -2.0787 -0.2057 -0.0134
  902MOL0     H21769   1.098   6.436   9.693  0.4617 -1.2276 -1.1937
  902MOL0     H21770   0.924   6.583   9.788  1.4767  0.0315  0.5295
  903MOL0     O21771   2.333   7.886  10.352 -0.5390  0.2445  0.1955
  903MOL0     C21772   2.395   7.968  10.424 -0.1621 -0.1443  0.5486
  903MOL0     O21773   2.330   8.055  10.502  0.3975 -0.1882 -0.2683
  903MOL0     C21774   2.194   8.050  10.535 -0.1396 -0.2834  0.6850
  903MOL0     C21775   2.121   8.162  10.552 -0.8805  0.5848 -0.0034
  903MOL0     C21776   1.985   8.154  10.576 -0.4783 -0.7980 -0.4618
  903MOL0     C21777   1.916   8.032  10.594  0.0790 -0.3294 -0.3169
  903MOL0     O21778   1.781   8.022  10.618  0.2270 -0.4650 -1.2407
  903MOL0     C21779   1.694   8.129  10.578  0.0772  0.2870 -0.7830
  903MOL0     C21780   1.547   8.078  10.566  0.6304 -0.7713 -0.5307
  903MOL0     C21781   1.443   8.187  10.597 -0.0826 -0.0087 -0.4340
  903MOL0     C21782   1.305   8.118  10.582  0.2118  0.2219  0.2923
  903MOL0     C21783   1.184   8.216  10.581 -0.1111  0.5907  0.2041
  903MOL0     C21784   1.047   8.162  10.527  0.1266 -0.7155  0.3641
  903MOL0     C21785   0.923   8.249  10.564  0.3264  0.1793 -0.0515
  903MOL0     C21786   0.928   8.382  10.488  0.1368  0.2416  0.1368
  903MOL0     N21787   0.794   8.446  10.513 -0.3451  0.3895 -0.0021
  903MOL0     C21788   0.753   8.499  10.632 -0.1642 -0.3050  0.5578
  903MOL0     C21789   0.624   8.541  10.618 -0.0164 -0.1273 -0.2418
  903MOL0     C21790   0.552   8.613  10.724  0.0654  0.4513 -0.0470
  903MOL0     C21791   0.587   8.764  10.715  0.4007 -1.2851 -0.0904
  903MOL0     C21792   0.490   8.843  10.813  0.5866 -0.1060 -0.0869
  903MOL0     C21793   0.475   8.995  10.773 -0.7114  0.7383 -0.0885
  903MOL0     O21794   0.598   9.066  10.809 -0.2922  0.2857  0.0557
  903MOL0     C21795   0.611   9.187  10.741 -0.6299  0.1864  0.1117
  903MOL0     C21796   0.741   9.241  10.733 -0.0874 -0.8113 -0.1750
  903MOL0     C21797   0.774   9.350  10.651  0.1604 -0.0595 -0.1177
  903MOL0     C21798   0.910   9.401  10.651  0.7612  0.7157  1.4529
  903MOL0     C21799   0.683   9.396  10.560  0.4896 -0.1815 -0.2472
  903MOL0     C21800   0.702   9.504  10.458 -0.1856 -0.4962  0.2719
  903MOL0     O21801   0.790   9.478  10.362 -0.4594 -0.5222 -0.2285
  903MOL0     C21802   0.814   9.576  10.272 -1.1891  0.5229 -0.8518
  903MOL0     C21803   0.919   9.657  10.306  0.1983  0.1848 -0.0274
  903MOL0     C21804   0.954   9.765  10.222 -0.2268  0.0827  0.5323
  903MOL0     C21805   0.894   9.768  10.090 -0.3443  0.6383 -0.3230
  903MOL0     O21806   0.939   9.837   9.981  0.1165  0.2435 -0.1523
  903MOL0     C21807   1.057   9.923   9.995  0.6026 -0.5508 -0.2033
  903MOL0     C21808   1.022  10.066  10.030 -0.1152  0.6813  0.1877
  903MOL0     C21809   0.908  10.128   9.936  0.2276  0.2340 -0.4236
  903MOL0     C21810   0.856  10.259   9.990  0.2569 -0.2312  0.5433
  903MOL0     C21811   0.729  10.291   9.919  0.8366 -0.2594 -0.1806
  903MOL0     C21812   0.682  10.428   9.964  0.2572 -0.5765  0.1334
  903MOL0     C21813   0.538  10.474   9.909 -0.2320 -0.1645 -0.3247
  903MOL0     C21814   0.536  10.500   9.760 -0.0555  1.1404 -1.4670
  903MOL0    Cl21815   0.370  10.578   9.725 -0.0585  0.2829  0.0615
  903MOL0     C21816   0.794   9.675  10.063  0.4632 -0.2811 -0.4432
  903MOL0     C21817   0.750   9.579  10.154 -0.5337  0.1185 -0.4517
  903MOL0     O21818   0.628   9.605  10.461 -0.2830 -0.5040 -0.4054
  903MOL0     C21819   0.548   9.346  10.566  0.1865 -1.1196 -0.7464
  903MOL0     C21820   0.516   9.243  10.654 -0.3751  0.0987 -0.9214
  903MOL0     N21821   0.592   8.516  10.486  0.0989  0.0429 -0.7853
  903MOL0     N21822   0.692   8.469  10.429 -0.0687 -0.3720  0.1542
  903MOL0     C21823   1.998   7.926  10.581 -0.8655 -0.1947 -0.9627
  903MOL0     C21824   2.131   7.926  10.557 -0.5436  0.7635  0.0658
  903MOL0     C21825   2.541   7.980  10.425 -0.1784 -0.1118 -0.3113
  903MOL0     C21826   2.595   8.111  10.438 -0.9420  0.7033 -0.7624
  903MOL0     C21827   2.736   8.135  10.429 -1.0761 -0.1441 -0.1955
  903MOL0     C21828   2.819   8.032  10.385  0.6606  0.2007  0.2872
  903MOL0     O21829   2.956   8.052  10.360 -0.7423 -0.1683  0.4076
  903MOL0     C21830   3.008   8.187  10.351  0.2054  0.7351  0.2708
  903MOL0     C21831   3.165   8.170  10.317  0.1118  0.2311 -0.3687
  903MOL0     C21832   3.222   8.307  10.269 -0.5266 -0.1273 -0.6686
  903MOL0     C21833   3.224   8.417  10.367 -0.4931  0.1537  0.0223
  903MOL0     C21834   3.309   8.401  10.490 -0.1448  0.2084  0.1229
  903MOL0     C21835   3.370   8.401  10.594 -0.5966 -0.4414  0.2365
  903MOL0     C21836   2.769   7.900  10.372  0.2635  0.2805  0.0440
  903MOL0     C21837   2.628   7.873  10.403  0.3821  0.8083  0.2554
  903MOL0     H21838   2.161   8.263  10.546 -1.4510  0.9550  1.7025
  903MOL0     H21839   1.933   8.248  10.594 -0.1065 -0.8579  1.0999
  903MOL0     H21840   1.697   8.202  10.659  0.4451 -0.0566 -0.4844
  903MOL0     H21841   1.735   8.172  10.486 -0.3584  2.3918 -0.0641
  903MOL0     H21842   1.524   8.042  10.465 -1.2629  0.4565 -0.5789
  903MOL0     H21843   1.529   7.999  10.640 -3.6976  0.1471 -0.3654
  903MOL0     H21844   1.451   8.230  10.697 -2.8797 -0.0999 -0.0846
  903MOL0     H21845   1.463   8.269  10.527  6.3769  2.6088  3.5449
  903MOL0     H21846   1.293   8.061  10.490 -0.3265 -0.1343  0.5776
  903MOL0     H21847   1.283   8.049  10.663  0.3722  1.4207  1.3971
  903MOL0     H21848   1.163   8.249  10.683 -3.1563  0.4010 -0.2525
  903MOL0     H21849   1.215   8.298  10.516  2.4161 -1.2139 -1.0382
  903MOL0     H21850   1.051   8.136  10.421 -0.4804 -0.3962  0.2594
  903MOL0     H21851   1.041   8.073  10.590  1.9063  1.4982  3.9823
  903MOL0     H21852   0.833   8.196  10.530  0.7153 -0.4169 -0.1598
  903MOL0     H21853   0.921   8.264  10.672 -2.8874  1.4610 -0.1815
  903MOL0     H21854   0.935   8.356  10.382  1.6326  1.6642 -0.1434
  903MOL0     H21855   1.010   8.450  10.510 -0.6146  0.8599  1.1283
  903MOL0     H21856   0.813   8.509  10.722  0.4064  1.1386  0.0524
  903MOL0     H21857   0.445   8.591  10.718  0.4038 -1.0337 -1.1156
  903MOL0     H21858   0.598   8.581  10.818 -0.9968  0.9429  0.6753
  903MOL0     H21859   0.567   8.795  10.612 -0.2405 -1.3621  0.0098
  903MOL0     H21860   0.685   8.796  10.752  0.2416 -0.3014 -0.4663
  903MOL0     H21861   0.539   8.842  10.911 -2.1980  0.7168  1.4250
  903MOL0     H21862   0.388   8.803  10.822  0.5575 -0.5610 -1.9752
  903MOL0     H21863   0.395   9.040  10.832  0.4067  2.4096  0.2256
  903MOL0     H21864   0.464   9.002  10.664  1.8253  1.4707 -0.3751
  903MOL0     H21865   0.816   9.190  10.792 -1.4346 -1.5088  0.9953
  903MOL0     H21866   0.924   9.504  10.616 -0.4049  1.4841  3.1039
  903MOL0     H21867   0.948   9.387  10.753 -2.8918 -2.5255  2.5936
  903MOL0     H21868   0.971   9.336  10.587 -3.0290 -1.2127 -0.4998
  903MOL0     H21869   0.977   9.653  10.397 -0.2930 -1.0004  0.2507
  903MOL0     H21870   1.041   9.821  10.253  0.7799 -1.6588  1.0186
  903MOL0     H21871   1.125   9.875  10.066 -1.3163 -2.6067  0.3552
  903MOL0     H21872   1.112   9.926   9.900  0.9940 -2.5366 -0.0840
  903MOL0     H21873   0.995  10.060  10.136  2.0129 -1.4930  0.6955
  903MOL0     H21874   1.110  10.129  10.016 -0.5612  1.1506 -0.6294
  903MOL0     H21875   0.836  10.047   9.920  2.9532 -2.3835 -0.5500
  903MOL0     H21876   0.952  10.148   9.838  0.7806 -0.2799 -0.2946
  903MOL0     H21877   0.850  10.260  10.100  1.3932  1.2511  0.6263
  903MOL0     H21878   0.927  10.338   9.965 -1.1138  0.7153 -0.5177
  903MOL0     H21879   0.643  10.227   9.943  0.4164  0.3911  0.0800
  903MOL0     H21880   0.745  10.299   9.811 -1.0953  1.9063 -0.4048
  903MOL0     H21881   0.675  10.437  10.072 -0.2442  2.9325 -0.0674
  903MOL0     H21882   0.762  10.497   9.936  0.0777 -0.9429 -1.3813
  903MOL0     H21883   0.514  10.570   9.955  1.3132 -0.1001  0.4063
  903MOL0     H21884   0.457  10.410   9.946  0.6665 -0.3811  1.3388
  903MOL0     H21885   0.560  10.412   9.700  1.9359  1.8797 -1.8553
  903MOL0     H21886   0.619  10.567   9.735 -0.5972  2.8767  1.0875
  903MOL0     H21887   0.745   9.684   9.966  0.4427 -0.5793 -0.4631
  903MOL0     H21888   0.671   9.511  10.122 -0.3762 -0.8433  1.1177
  903MOL0     H21889   0.471   9.388  10.502 -3.0399 -1.2268  2.7129
  903MOL0     H21890   0.410   9.223  10.671 -0.2305  1.5253  2.5074
  903MOL0     H21891   1.946   7.834  10.606  0.0580 -0.0573  1.7375
  903MOL0     H21892   2.187   7.836  10.534  0.6124  1.4265  0.1961
  903MOL0     H21893   2.530   8.195  10.463 -1.5030  0.1004 -0.1505
  903MOL0     H21894   2.772   8.234  10.455  0.7522 -1.2368  1.7164
  903MOL0     H21895   2.959   8.224  10.260  0.9647  0.1757 -0.3825
  903MOL0     H21896   2.989   8.243  10.443  1.7166 -1.7269  2.2049
  903MOL0     H21897   3.183   8.108  10.228  3.6762 -0.5146  0.7075
  903MOL0     H21898   3.225   8.134  10.401  0.0624  2.6877  0.7905
  903MOL0     H21899   3.161   8.330  10.182 -0.3890 -0.2761 -0.8047
  903MOL0     H21900   3.326   8.289  10.238 -0.7494 -4.6153  0.5434
  903MOL0     H21901   3.123   8.447  10.398 -1.0194 -1.7532  0.2964
  903MOL0     H21902   3.269   8.503  10.316  1.7366 -0.1122  1.4621
  903MOL0     H21903   3.415   8.395  10.691 -2.0061 -1.6593  0.8538
  903MOL0     H21904   2.839   7.820  10.353 -1.1217 -0.6095 -1.6550
  903MOL0     H21905   2.596   7.770  10.400  1.3273  0.4991  0.5601
  904MOL0     O21906  10.478   1.069   8.122  0.0654  0.5515  0.4956
  904MOL0     C21907  10.538   1.065   8.014  0.8582 -0.8451  0.6922
  904MOL0     O21908  10.492   1.102   7.898  0.5790  0.2139  0.4672
  904MOL0     C21909  10.369   1.158   7.894  0.4820 -0.0437  0.3229
  904MOL0     C21910  10.253   1.089   7.931  0.6645  0.3460 -0.2432
  904MOL0     C21911  10.125   1.147   7.913  0.3993 -0.7619  0.6267
  904MOL0     C21912  10.119   1.280   7.851  0.1181  0.5587 -0.1628
  904MOL0     O21913   9.994   1.332   7.827 -0.4169 -0.2640  0.4333
  904MOL0     C21914   9.974   1.463   7.765 -0.4121  0.2707  0.3509
  904MOL0     C21915   9.828   1.491   7.767  0.8350 -0.6357 -0.5781
  904MOL0     C21916   9.796   1.632   7.716 -0.6257  0.3578 -0.2328
  904MOL0     C21917   9.656   1.634   7.664 -0.5215 -0.7903 -0.4919
  904MOL0     C21918   9.606   1.772   7.609  0.0942  0.0698  0.4227
  904MOL0     C21919   9.457   1.751   7.581  0.0658 -0.4032 -0.7627
  904MOL0     C21920   9.437   1.708   7.433 -0.4208 -0.9237 -0.8813
  904MOL0     C21921   9.289   1.678   7.404 -0.5614  0.1066  0.0491
  904MOL0     N21922   9.266   1.673   7.259  0.0772  0.3783  0.4840
  904MOL0     C21923   9.279   1.554   7.182  0.8403  0.4597  0.9370
  904MOL0     C21924   9.234   1.585   7.060 -0.8664  0.6270 -0.7310
  904MOL0     C21925   9.243   1.492   6.946  0.0385  0.0366  0.5233
  904MOL0     C21926   9.253   1.342   6.972  0.5683 -0.1926  0.1488
  904MOL0     C21927   9.263   1.263   6.844 -0.2069 -0.5733 -0.2456
  904MOL0     C21928   9.137   1.266   6.752  0.0877  0.3051  0.6132
  904MOL0     O21929   9.157   1.380   6.663 -0.1845  0.6548  0.6039
  904MOL0     C21930   9.041   1.427   6.593  0.1651  0.4351 -0.0992
  904MOL0     C21931   9.022   1.563   6.572 -0.2173  0.4448  0.2365
  904MOL0     C21932   8.906   1.614   6.500 -0.2594  0.2906  0.4660
  904MOL0     C21933   8.907   1.768   6.472 -0.0360  1.2895  0.7855
  904MOL0     C21934   8.825   1.530   6.430 -0.5398  0.3687  0.4454
  904MOL0     C21935   8.706   1.574   6.351  0.0237 -0.1380  0.2966
  904MOL0     O21936   8.614   1.473   6.316  0.0751 -0.1677  0.2471
  904MOL0     C21937   8.486   1.508   6.263  0.0138  0.0063  0.1992
  904MOL0     C21938   8.424   1.627   6.304  0.9669  0.2943 -0.0764
  904MOL0     C21939   8.302   1.658   6.241 -0.7396  0.2549  0.1923
  904MOL0     C21940   8.251   1.574   6.142 -0.0110  0.6215  0.0305
  904MOL0     O21941   8.128   1.587   6.089  0.3784 -1.1810  0.5311
  904MOL0     C21942   8.051   1.710   6.115  0.5146  0.0827  0.1667
  904MOL0     C21943   7.903   1.689   6.081  0.2778 -0.4268  0.1506
  904MOL0     C21944   7.883   1.643   5.936 -0.8108 -1.0292 -1.1083
  904MOL0     C21945   7.733   1.614   5.908 -0.4290  0.9198  0.0782
  904MOL0     C21946   7.712   1.505   5.804  0.1101 -0.7733  0.0969
  904MOL0     C21947   7.748   1.555   5.665 -0.8142 -0.4489  0.0051
  904MOL0     C21948   7.764   1.456   5.554  0.9062 -0.2048  0.4484
  904MOL0     C21949   7.914   1.445   5.500 -0.4015 -0.4753 -0.1373
  904MOL0    Cl21950   7.940   1.372   5.345  0.3224  0.2376 -0.0185
  904MOL0     C21951   8.313   1.457   6.106  0.0718 -0.0247 -0.0859
  904MOL0     C21952   8.435   1.419   6.173  0.0684 -0.2525  0.7035
  904MOL0     O21953   8.704   1.689   6.301 -0.2069 -0.1078  0.4790
  904MOL0     C21954   8.842   1.394   6.453 -0.4711  0.2519 -0.3687
  904MOL0     C21955   8.947   1.346   6.528 -0.4942 -0.5982  0.2252
  904MOL0     N21956   9.176   1.710   7.062 -0.0181 -0.4618  0.0612
  904MOL0     N21957   9.193   1.760   7.185  0.6723 -0.1999 -0.1933
  904MOL0     C21958  10.236   1.350   7.804 -0.0472 -0.2423  0.5010
  904MOL0     C21959  10.360   1.284   7.825 -0.1420 -0.2035 -0.6948
  904MOL0     C21960  10.674   1.007   8.020 -0.3064 -0.6397  0.6312
  904MOL0     C21961  10.729   0.970   8.140  0.3848 -0.2342 -0.7050
  904MOL0     C21962  10.857   0.912   8.141  0.1046 -0.0295  0.1554
  904MOL0     C21963  10.939   0.896   8.038  0.0297 -0.0170  0.1677
  904MOL0     O21964  11.070   0.881   8.070 -0.0071  0.0459 -0.9067
  904MOL0     C21965  11.157   0.861   7.961 -0.3630  0.4236  0.0204
  904MOL0     C21966  11.291   0.815   8.022 -0.6599  0.7063  0.6755
  904MOL0     C21967  11.395   0.773   7.915  0.3580  0.1779 -1.1451
  904MOL0     C21968  11.532   0.768   7.984 -0.2170 -0.0108 -1.3497
  904MOL0     C21969  11.640   0.742   7.893  0.7759 -0.2901  0.4986
  904MOL0     C21970  11.735   0.718   7.827  0.0964 -0.0988 -0.9998
  904MOL0     C21971  10.884   0.923   7.907  0.2775  0.1205  0.5591
  904MOL0     C21972  10.751   0.984   7.903 -0.5868 -0.8419  0.7860
  904MOL0     H21973  10.264   0.989   7.973  1.6624  1.7862  3.3377
  904MOL0     H21974  10.034   1.095   7.938  0.3396 -1.9701 -1.8086
  904MOL0     H21975  10.028   1.540   7.821 -1.0094 -0.7705  2.4680
  904MOL0     H21976  10.003   1.457   7.659 -0.7066 -0.4166  0.3043
  904MOL0     H21977   9.781   1.422   7.696  0.2133  2.1310 -3.0557
  904MOL0     H21978   9.792   1.487   7.871  0.0143  1.0697 -0.7653
  904MOL0     H21979   9.807   1.713   7.789  0.8587  0.1885 -0.2373
  904MOL0     H21980   9.872   1.659   7.642 -0.0086  3.5692  1.3674
  904MOL0     H21981   9.650   1.560   7.584  1.0333 -1.0317 -0.4264
  904MOL0     H21982   9.592   1.603   7.747 -0.8496  0.6592 -0.1720
  904MOL0     H21983   9.633   1.842   7.688  0.9184  0.0834  0.1451
  904MOL0     H21984   9.670   1.798   7.524  0.9243 -5.1315 -0.8943
  904MOL0     H21985   9.413   1.671   7.642  2.1186 -0.7028  0.3937
  904MOL0     H21986   9.403   1.845   7.596 -2.2623 -1.7281 -0.2897
  904MOL0     H21987   9.478   1.784   7.365  3.0874  0.2795  2.2230
  904MOL0     H21988   9.511   1.631   7.408  2.1452  1.0294  0.1354
  904MOL0     H21989   9.227   1.752   7.455  1.2766  1.4236  0.4705
  904MOL0     H21990   9.272   1.580   7.449  0.3955 -0.7465 -1.3587
  904MOL0     H21991   9.326   1.460   7.207 -0.9643 -0.6115  0.5683
  904MOL0     H21992   9.151   1.501   6.887  0.6319  0.2799 -0.3810
  904MOL0     H21993   9.330   1.516   6.884 -0.4503 -0.6412 -0.4518
  904MOL0     H21994   9.158   1.312   7.017 -0.0618 -1.7712 -2.0696
  904MOL0     H21995   9.337   1.333   7.042  1.1330  3.3815  0.1343
  904MOL0     H21996   9.288   1.160   6.873 -1.8439 -0.8490  0.2585
  904MOL0     H21997   9.351   1.298   6.789  1.0629 -2.1567  0.6640
  904MOL0     H21998   9.042   1.277   6.806 -1.5187 -1.0758 -1.7728
  904MOL0     H21999   9.124   1.167   6.709  1.2602 -0.7136  2.4795
  904MOL0     H22000   9.090   1.634   6.617 -0.6283  2.3233 -1.9580
  904MOL0     H22001   8.810   1.814   6.493 -0.4599 -0.0528  1.9820
  904MOL0     H22002   8.989   1.816   6.527  1.5707 -0.4185 -0.0276
  904MOL0     H22003   8.917   1.793   6.366 -0.3924 -0.9181  0.1743
  904MOL0     H22004   8.483   1.690   6.369  0.7562  2.3075 -1.7408
  904MOL0     H22005   8.258   1.750   6.279 -0.7521  1.1090 -1.7810
  904MOL0     H22006   8.064   1.729   6.222 -0.7312 -1.5469  0.6459
  904MOL0     H22007   8.093   1.796   6.062  0.1470  0.3709  0.3343
  904MOL0     H22008   7.853   1.619   6.149 -1.4134  0.0935 -0.4922
  904MOL0     H22009   7.847   1.782   6.090  1.2501  0.1636  0.1796
  904MOL0     H22010   7.948   1.555   5.931  2.4938  1.1548  0.1242
  904MOL0     H22011   7.914   1.728   5.875 -0.9361 -1.1266 -1.3078
  904MOL0     H22012   7.679   1.584   5.998  0.7530 -0.4040  0.3761
  904MOL0     H22013   7.681   1.704   5.874 -0.8101  0.5261 -0.3961
  904MOL0     H22014   7.606   1.482   5.799  0.0310 -0.3745 -0.0715
  904MOL0     H22015   7.764   1.414   5.839  0.6135  0.0993  1.7284
  904MOL0     H22016   7.677   1.629   5.625  0.7458  1.6736  1.0035
  904MOL0     H22017   7.842   1.608   5.682 -2.2875  2.9648 -1.5175
  904MOL0     H22018   7.686   1.469   5.479 -0.5794 -3.3609  1.2686
  904MOL0     H22019   7.740   1.358   5.597 -0.4449 -0.8674 -1.6921
  904MOL0     H22020   7.979   1.396   5.573 -0.0992  3.5996  2.6864
  904MOL0     H22021   7.951   1.548   5.506 -0.2348 -0.3397 -2.4324
  904MOL0     H22022   8.287   1.389   6.026 -0.1514 -1.1368  0.9172
  904MOL0     H22023   8.498   1.331   6.160 -0.1558 -0.6736  2.2276
  904MOL0     H22024   8.778   1.315   6.414 -1.5303 -0.2382  2.1317
  904MOL0     H22025   8.966   1.239   6.531  1.7023 -0.3282 -1.3843
  904MOL0     H22026  10.229   1.444   7.750  0.5732 -1.3404 -1.6084
  904MOL0     H22027  10.458   1.322   7.797  0.1969 -1.2549 -0.9947
  904MOL0     H22028  10.671   0.968   8.232 -0.2446 -2.5288 -1.0858
  904MOL0     H22029  10.907   0.869   8.227  1.3665 -2.0164 -1.4683
  904MOL0     H22030  11.134   0.783   7.888 -1.2234  0.1690  0.5547
  904MOL0     H22031  11.177   0.952   7.904 -0.5480  1.2089  1.1707
  904MOL0     H22032  11.266   0.738   8.095  2.5573 -0.1453  1.0159
  904MOL0     H22033  11.327   0.906   8.072 -0.7234  0.3320  1.4122
  904MOL0     H22034  11.401   0.842   7.830 -0.8050  0.3910 -1.0668
  904MOL0     H22035  11.376   0.672   7.878 -2.6452 -0.1916  0.9943
  904MOL0     H22036  11.539   0.693   8.063  0.0233 -0.0421 -1.3997
  904MOL0     H22037  11.563   0.858   8.037  2.9468 -1.8653  0.2459
  904MOL0     H22038  11.816   0.696   7.760 -0.0006 -0.3750 -1.0263
  904MOL0     H22039  10.940   0.901   7.817  0.5696  1.9511  0.2408
  904MOL0     H22040  10.713   1.003   7.804  0.7658  1.7612  0.6719
  905MOL0     O22041   6.486   5.023   1.160 -0.1759 -0.9649 -0.7044
  905MOL0     C22042   6.518   4.957   1.257 -0.6249  0.0001 -0.1560
  905MOL0     O22043   6.431   4.891   1.338  0.3161 -0.2634  0.6131
  905MOL0     C22044   6.291   4.896   1.312 -0.6386  0.2624 -0.5381
  905MOL0     C22045   6.218   4.783   1.304  0.1775 -0.2878 -0.3591
  905MOL0     C22046   6.083   4.790   1.298 -0.6888  0.3526 -0.1238
  905MOL0     C22047   6.019   4.905   1.292 -0.1364 -0.4497  0.1024
  905MOL0     O22048   5.884   4.876   1.295 -0.1501 -0.6031 -0.3578
  905MOL0     C22049   5.789   4.971   1.258 -0.1568 -0.3300 -0.2928
  905MOL0     C22050   5.652   4.896   1.255  0.2150  0.3819 -0.5781
  905MOL0     C22051   5.536   4.982   1.202  0.0633  0.5399 -0.4751
  905MOL0     C22052   5.406   4.906   1.206 -0.5214 -0.5051  0.6596
  905MOL0     C22053   5.292   4.972   1.120 -0.8134  0.3702 -0.7636
  905MOL0     C22054   5.149   4.935   1.156  0.0715  0.0978  0.2264
  905MOL0     C22055   5.135   4.781   1.172  0.4446  0.3410  1.2531
  905MOL0     C22056   5.148   4.713   1.037  0.4581  0.5422  0.5860
  905MOL0     N22057   5.044   4.740   0.939  0.2417  0.2577 -0.1843
  905MOL0     C22058   5.042   4.690   0.814  0.2157 -0.7450  0.0323
  905MOL0     C22059   4.917   4.715   0.765  0.4846  0.8546  0.3347
  905MOL0     C22060   4.856   4.673   0.633  0.9570 -0.4833 -0.3169
  905MOL0     C22061   4.858   4.519   0.626  0.0950 -0.5214 -0.3365
  905MOL0     C22062   4.839   4.474   0.479 -0.3091  0.1402 -0.5750
  905MOL0     C22063   4.718   4.535   0.402  0.0756 -0.1118  0.2262
  905MOL0     O22064   4.595   4.520   0.479 -0.2554 -0.2956 -0.1860
  905MOL0     C22065   4.467   4.530   0.426 -0.2461 -0.8788  0.1256
  905MOL0     C22066   4.437   4.443   0.319 -0.1001  0.2137 -0.1801
  905MOL0     C22067   4.312   4.452   0.251  0.5936 -0.1817  0.1130
  905MOL0     C22068   4.285   4.339   0.153  0.4127  0.6683  0.5506
  905MOL0     C22069   4.219   4.553   0.295 -0.2068  1.1991  1.6161
  905MOL0     C22070   4.078   4.554   0.256  0.7733 -0.0411  0.1590
  905MOL0     O22071   3.999   4.645   0.317 -0.0870  0.2581 -0.3302
  905MOL0     C22072   3.873   4.671   0.286  0.3244  1.1443 -0.0650
  905MOL0     C22073   3.773   4.668   0.387  0.2931 -0.7546  0.5188
  905MOL0     C22074   3.640   4.699   0.362  0.8306 -0.0675 -0.1825
  905MOL0     C22075   3.606   4.755   0.236  0.3477 -0.2717  0.1611
  905MOL0     O22076   3.480   4.790   0.209 -0.8705  0.2519 -0.3253
  905MOL0     C22077   3.374   4.706   0.268 -0.9076 -0.4738  0.0646
  905MOL0     C22078   3.253   4.763   0.202  0.5413  1.5476  0.6215
  905MOL0     C22079   3.197   4.895   0.247  0.1835 -0.4461  0.3841
  905MOL0     C22080   3.066   4.942   0.178  0.1256  0.4273  0.6461
  905MOL0     C22081   3.032   5.081   0.214  0.9442 -0.4916  0.0910
  905MOL0     C22082   2.907   5.132   0.140  0.1543 -0.5599  0.4622
  905MOL0     C22083   2.871   5.278   0.175 -0.2430 -0.0731 -1.3740
  905MOL0     C22084   2.743   5.319   0.104  0.3440  0.0593 -0.2271
  905MOL0    Cl22085   2.718   5.495   0.108 -0.2900 -0.1718  0.0454
  905MOL0     C22086   3.704   4.766   0.135 -0.4498  0.2516  0.0391
  905MOL0     C22087   3.838   4.714   0.158  0.4147 -0.4221 -0.7626
  905MOL0     O22088   4.036   4.460   0.186  0.2315  0.1707  0.7157
  905MOL0     C22089   4.264   4.646   0.389  0.5622  0.2031  0.6360
  905MOL0     C22090   4.386   4.637   0.454  0.3697 -0.0919  0.3369
  905MOL0     N22091   4.852   4.793   0.855  0.5921  0.3970  0.3014
  905MOL0     N22092   4.932   4.813   0.955 -0.0904 -0.1204  0.5498
  905MOL0     C22093   6.086   5.020   1.281 -0.4692  0.0768 -0.6469
  905MOL0     C22094   6.223   5.017   1.294  0.2817  0.5497  0.1497
  905MOL0     C22095   6.662   4.931   1.288 -0.2728 -0.0295 -0.1606
  905MOL0     C22096   6.704   4.849   1.394  0.0044  0.6872  0.3909
  905MOL0     C22097   6.840   4.814   1.418  0.5259  0.1916  0.5278
  905MOL0     C22098   6.944   4.874   1.345  0.4467  0.6148 -0.3690
  905MOL0     O22099   7.067   4.839   1.393 -0.4730  0.0802  0.6012
  905MOL0     C22100   7.188   4.918   1.373  0.0447 -0.1701 -0.2716
  905MOL0     C22101   7.320   4.861   1.414  0.5767  0.1073 -0.2032
  905MOL0     C22102   7.447   4.957   1.428  0.6076 -0.4009 -0.0992
  905MOL0     C22103   7.547   4.896   1.529  0.6182  0.5784 -0.0997
  905MOL0     C22104   7.688   4.922   1.519 -0.4475  0.9687  0.5238
  905MOL0     C22105   7.809   4.934   1.533  0.7348 -0.2756 -0.1259
  905MOL0     C22106   6.903   4.956   1.234  0.1395  0.3895  0.2031
  905MOL0     C22107   6.767   4.980   1.209  0.2940  0.4180  0.1353
  905MOL0     H22108   6.269   4.687   1.299 -1.3673 -1.1579  0.1363
  905MOL0     H22109   6.041   4.690   1.292 -0.1892  0.0274  1.3032
  905MOL0     H22110   5.793   5.053   1.330  0.5646 -1.3462  0.8965
  905MOL0     H22111   5.810   5.010   1.158  1.4124 -0.2685  0.0352
  905MOL0     H22112   5.664   4.801   1.201 -0.0037  0.5146 -0.8649
  905MOL0     H22113   5.630   4.874   1.359 -0.4761 -2.0252 -1.1677
  905MOL0     H22114   5.516   5.068   1.268  2.0253  0.4096  0.3382
  905MOL0     H22115   5.569   5.012   1.102 -1.6938  2.4814 -0.5624
  905MOL0     H22116   5.423   4.802   1.176 -0.1250 -1.2339  3.2393
  905MOL0     H22117   5.376   4.910   1.311  2.1729 -0.8384  1.5243
  905MOL0     H22118   5.297   5.077   1.150  0.3004 -0.4171  2.1084
  905MOL0     H22119   5.312   4.965   1.012 -0.4858  1.6104 -0.7943
  905MOL0     H22120   5.127   4.982   1.253 -1.8921 -2.0633  0.9189
  905MOL0     H22121   5.079   4.976   1.083 -0.4245 -0.6256  0.2887
  905MOL0     H22122   5.209   4.738   1.241  1.4000 -2.5421 -1.3006
  905MOL0     H22123   5.040   4.762   1.223 -0.1189  0.8066  0.4009
  905MOL0     H22124   5.131   4.609   1.065 -0.8532  0.2290 -1.2385
  905MOL0     H22125   5.247   4.739   0.999  0.8380  0.9618  1.7980
  905MOL0     H22126   5.117   4.640   0.754 -2.5751 -4.7259 -0.5557
  905MOL0     H22127   4.753   4.712   0.637  0.6061 -1.3882 -0.3017
  905MOL0     H22128   4.908   4.725   0.552  0.1234  2.6061  0.9944
  905MOL0     H22129   4.793   4.474   0.701  0.9974 -2.3707 -0.6009
  905MOL0     H22130   4.955   4.480   0.658 -1.1331 -2.9296  0.7031
  905MOL0     H22131   4.821   4.366   0.481 -0.9567  0.2551  0.6141
  905MOL0     H22132   4.925   4.501   0.418 -0.3571  2.3653  0.2450
  905MOL0     H22133   4.703   4.485   0.306 -0.4549 -0.4215  0.4659
  905MOL0     H22134   4.730   4.642   0.381 -1.8055  0.2463  0.8281
  905MOL0     H22135   4.514   4.372   0.290 -0.6715 -0.9277  0.9643
  905MOL0     H22136   4.377   4.283   0.137  1.2868  2.1460  0.1481
  905MOL0     H22137   4.207   4.276   0.196  2.1473 -1.3185  0.9886
  905MOL0     H22138   4.247   4.370   0.056 -0.4026  0.2905  0.7429
  905MOL0     H22139   3.783   4.645   0.493 -3.0366  0.3038  1.1801
  905MOL0     H22140   3.564   4.691   0.439  0.7283 -1.5609 -0.4067
  905MOL0     H22141   3.383   4.598   0.257 -1.2534 -0.5990  0.9933
  905MOL0     H22142   3.372   4.726   0.375  1.3018 -0.4796  0.1532
  905MOL0     H22143   3.271   4.757   0.094  0.3815 -1.7051  0.6654
  905MOL0     H22144   3.174   4.690   0.223  2.0800 -0.6230 -0.7330
  905MOL0     H22145   3.273   4.971   0.229 -0.1861  0.0290  0.7919
  905MOL0     H22146   3.170   4.899   0.353 -2.5789 -2.3492 -0.1425
  905MOL0     H22147   3.086   4.940   0.070  0.1243  4.0597  0.4307
  905MOL0     H22148   2.989   4.867   0.197 -1.3346  1.8534  0.5873
  905MOL0     H22149   3.114   5.141   0.175  1.0075 -0.9129 -0.4279
  905MOL0     H22150   3.033   5.103   0.322  0.0634  1.8845 -0.3215
  905MOL0     H22151   2.940   5.118   0.036 -0.3167 -4.5410  0.7235
  905MOL0     H22152   2.821   5.067   0.157  1.8542 -3.0332  0.0153
  905MOL0     H22153   2.961   5.338   0.155  0.4330 -0.7658 -0.5119
  905MOL0     H22154   2.855   5.289   0.283  0.1544  0.8439 -1.3966
  905MOL0     H22155   2.660   5.260   0.143  0.5846  0.6014  1.1329
  905MOL0     H22156   2.746   5.280   0.001  2.8163 -0.8379  0.1086
  905MOL0     H22157   3.672   4.784   0.033 -3.2652  1.1750  1.0169
  905MOL0     H22158   3.905   4.725   0.074  0.3015  1.6182 -0.6256
  905MOL0     H22159   4.199   4.725   0.426  0.3367 -0.0239  0.7241
  905MOL0     H22160   4.409   4.715   0.526 -2.0508  1.3272 -0.3231
  905MOL0     H22161   6.032   5.113   1.269 -0.8801 -0.3957 -2.8195
  905MOL0     H22162   6.279   5.110   1.282  0.3650  0.4450 -0.2834
  905MOL0     H22163   6.630   4.811   1.463 -0.0099  0.1247  0.0702
  905MOL0     H22164   6.848   4.760   1.512 -2.6446 -3.8588 -1.2002
  905MOL0     H22165   7.199   4.936   1.265 -0.3373 -0.4368 -0.3570
  905MOL0     H22166   7.165   5.015   1.418 -3.2666 -1.3837  0.9325
  905MOL0     H22167   7.346   4.777   1.348 -0.1072 -0.5275  0.3210
  905MOL0     H22168   7.302   4.813   1.510  0.1762  1.0204  0.1857
  905MOL0     H22169   7.422   5.053   1.474 -0.7272 -1.1100  0.7271
  905MOL0     H22170   7.489   4.977   1.329  1.3511  3.3187  0.8132
  905MOL0     H22171   7.532   4.789   1.513  0.2824  0.7221 -0.7969
  905MOL0     H22172   7.520   4.930   1.629  2.1448  2.3742 -0.2515
  905MOL0     H22173   7.915   4.950   1.532  0.5579  1.0509  0.1654
  905MOL0     H22174   6.980   5.003   1.173  0.6706  0.9632  1.2808
  905MOL0     H22175   6.750   5.037   1.118 -0.3385  0.4576  0.2767
  906MOL0     O22176   1.974   1.317   9.189  0.1299  0.2513  0.1263
  906MOL0     C22177   1.933   1.234   9.114  0.7831 -0.1471  0.0249
  906MOL0     O22178   1.996   1.191   9.005  0.1901 -0.3230  0.2999
  906MOL0     C22179   2.130   1.190   9.007  0.0863 -0.1260  0.5063
  906MOL0     C22180   2.197   1.282   8.931 -0.2801  0.1603 -0.9645
  906MOL0     C22181   2.334   1.275   8.921 -0.7066  0.3984  0.0274
  906MOL0     C22182   2.408   1.172   8.984  0.1855  0.1127  0.6938
  906MOL0     O22183   2.543   1.153   8.970  0.2279 -0.3770  0.0016
  906MOL0     C22184   2.625   1.248   8.904  1.2398  0.5740 -0.2433
  906MOL0     C22185   2.768   1.209   8.929  0.9688 -0.7369 -0.2879
  906MOL0     C22186   2.812   1.192   9.076 -0.5776  0.6348  0.2942
  906MOL0     C22187   2.954   1.232   9.089 -1.0560  0.2774  0.2046
  906MOL0     C22188   2.996   1.230   9.241  0.3869  0.4934 -0.2581
  906MOL0     C22189   3.142   1.274   9.260  0.1992  0.4678  0.3136
  906MOL0     C22190   3.186   1.260   9.406  0.0850  0.1374  0.5482
  906MOL0     C22191   3.332   1.300   9.418  0.6236  0.2352  0.4482
  906MOL0     N22192   3.374   1.303   9.559  0.1442  0.5601 -0.2579
  906MOL0     C22193   3.478   1.227   9.610 -0.3346 -0.0437  0.2720
  906MOL0     C22194   3.503   1.292   9.730 -0.1142  0.5211 -0.1608
  906MOL0     C22195   3.583   1.240   9.848  0.4282  0.0149  0.2090
  906MOL0     C22196   3.512   1.124   9.926  0.0264  0.1298 -0.0273
  906MOL0     C22197   3.363   1.154   9.949  0.3218  0.1277  0.0934
  906MOL0     C22198   3.326   1.274  10.035 -0.3272  0.6627  0.0898
  906MOL0     O22199   3.189   1.259  10.078 -0.4987  0.3720 -0.5673
  906MOL0     C22200   3.089   1.324  10.006 -0.7715  0.8132  0.6460
  906MOL0     C22201   2.968   1.347  10.057  0.5548 -0.2452 -1.8255
  906MOL0     C22202   2.865   1.402   9.988 -0.6850  0.0580 -0.2692
  906MOL0     C22203   2.743   1.434  10.068  0.0977  0.5670 -0.0371
  906MOL0     C22204   2.880   1.437   9.850  0.0948 -1.1699  0.6814
  906MOL0     C22205   2.778   1.507   9.772 -0.3170 -0.1275 -0.1134
  906MOL0     O22206   2.648   1.509   9.807  0.1275  0.1855 -0.4812
  906MOL0     C22207   2.552   1.574   9.723 -0.0404  0.0537 -0.9589
  906MOL0     C22208   2.445   1.641   9.786  0.1652  0.1336 -0.6786
  906MOL0     C22209   2.333   1.683   9.711  0.9331  0.7209  0.3884
  906MOL0     C22210   2.334   1.670   9.575  0.5793  0.0171 -0.0350
  906MOL0     O22211   2.237   1.691   9.476  0.1547  0.0078 -0.0979
  906MOL0     C22212   2.102   1.694   9.521  0.2805  0.9039 -0.5302
  906MOL0     C22213   2.060   1.547   9.553 -0.8976  0.8527  0.3083
  906MOL0     C22214   1.917   1.557   9.601  0.0697  0.1453  0.5880
  906MOL0     C22215   1.855   1.422   9.612 -0.1813  0.2926 -0.3695
  906MOL0     C22216   1.710   1.435   9.659  0.5712 -0.2182 -0.4548
  906MOL0     C22217   1.626   1.507   9.547  0.1916  0.3525 -0.0399
  906MOL0     C22218   1.589   1.427   9.423 -0.5431 -0.1568  0.4809
  906MOL0     C22219   1.464   1.484   9.360  0.3892 -0.7384  0.1408
  906MOL0    Cl22220   1.324   1.423   9.455  0.1052 -0.3350 -0.0659
  906MOL0     C22221   2.452   1.622   9.512 -0.0988 -0.5882  0.1640
  906MOL0     C22222   2.551   1.570   9.585 -0.0485  0.5963  0.3026
  906MOL0     O22223   2.829   1.573   9.684  0.8711 -0.3433 -0.2393
  906MOL0     C22224   3.010   1.410   9.790 -0.7078  0.7856 -0.1578
  906MOL0     C22225   3.105   1.352   9.873  0.4550  0.1757 -0.7476
  906MOL0     N22226   3.442   1.416   9.724 -0.6294 -0.8906 -0.4747
  906MOL0     N22227   3.351   1.414   9.630  0.0215 -0.0031 -0.6091
  906MOL0     C22228   2.346   1.079   9.062 -0.7736 -0.1040 -0.0118
  906MOL0     C22229   2.206   1.094   9.083 -0.2168  0.1362 -1.3309
  906MOL0     C22230   1.787   1.201   9.110 -0.9673 -0.3202  0.4727
  906MOL0     C22231   1.720   1.179   8.989 -0.0519  0.3438  0.6673
  906MOL0     C22232   1.586   1.136   8.996 -0.1636 -0.2432 -0.8201
  906MOL0     C22233   1.519   1.121   9.119  0.8551 -0.6428 -0.6520
  906MOL0     O22234   1.379   1.102   9.104 -0.1833  0.6070 -0.5089
  906MOL0     C22235   1.307   1.064   9.229 -0.3654 -1.0480 -1.3082
  906MOL0     C22236   1.355   0.933   9.287 -0.7788 -0.2682 -0.2648
  906MOL0     C22237   1.342   0.820   9.190  0.8620  0.4053  0.3657
  906MOL0     C22238   1.443   0.711   9.219  0.0381  0.6579  0.3183
  906MOL0     C22239   1.416   0.576   9.165 -0.4883  0.4352  0.0577
  906MOL0     C22240   1.397   0.468   9.105  0.4612 -0.0076 -0.2260
  906MOL0     C22241   1.591   1.143   9.235  0.5612 -0.0906 -0.2650
  906MOL0     C22242   1.724   1.183   9.233  0.6770  0.6099  0.9625
  906MOL0     H22243   2.134   1.342   8.865  0.7551 -0.6128 -2.7422
  906MOL0     H22244   2.390   1.354   8.872  0.1619  2.1075  3.4434
  906MOL0     H22245   2.607   1.258   8.797 -2.7722  1.4700  0.3345
  906MOL0     H22246   2.618   1.344   8.956 -2.0692 -1.5412  3.8634
  906MOL0     H22247   2.786   1.109   8.888  0.7512 -0.7278 -0.4051
  906MOL0     H22248   2.829   1.286   8.881 -3.2125  2.2103 -1.3720
  906MOL0     H22249   2.761   1.263   9.142 -0.4470  1.5071 -0.5267
  906MOL0     H22250   2.810   1.090   9.116  3.5521  0.4578  0.5403
  906MOL0     H22251   3.018   1.166   9.031 -1.2436  0.3492 -0.0880
  906MOL0     H22252   2.970   1.331   9.045  0.0201 -0.7302 -1.8177
  906MOL0     H22253   2.932   1.300   9.295 -1.4120  0.1693 -1.8561
  906MOL0     H22254   2.976   1.129   9.278 -1.9319  0.8880 -0.2929
  906MOL0     H22255   3.199   1.208   9.195  0.8248  0.1693  1.1561
  906MOL0     H22256   3.160   1.379   9.234 -0.8288  0.1712 -1.8261
  906MOL0     H22257   3.117   1.314   9.471 -2.1907  0.4538 -1.9411
  906MOL0     H22258   3.174   1.158   9.443 -0.9813  0.8084  2.1446
  906MOL0     H22259   3.344   1.397   9.370 -1.6003  0.1882 -0.3474
  906MOL0     H22260   3.396   1.230   9.364  2.0167  2.1089 -0.4118
  906MOL0     H22261   3.532   1.140   9.573  0.7879  0.7888 -0.0934
  906MOL0     H22262   3.683   1.211   9.815  1.9439  1.3310  3.2693
  906MOL0     H22263   3.604   1.326   9.912 -0.0656  0.2070  0.1216
  906MOL0     H22264   3.552   1.107  10.026 -2.6386 -2.8326  0.7094
  906MOL0     H22265   3.529   1.032   9.869  0.8636  1.5309 -2.1697
  906MOL0     H22266   3.316   1.070  10.001 -0.8853 -0.0325 -1.2047
  906MOL0     H22267   3.317   1.151   9.850 -1.1050 -0.3183  0.7494
  906MOL0     H22268   3.340   1.366   9.978 -0.5018  0.8558  0.3537
  906MOL0     H22269   3.397   1.272  10.119 -1.6141 -0.9857  1.1951
  906MOL0     H22270   2.955   1.319  10.161  1.4548  1.6825 -1.1456
  906MOL0     H22271   2.709   1.534  10.040  1.8315  0.9467 -0.9202
  906MOL0     H22272   2.674   1.354  10.038  0.5252  0.6632 -1.3457
  906MOL0     H22273   2.763   1.435  10.176 -1.2619  2.6441  0.2487
  906MOL0     H22274   2.436   1.645   9.894  0.4783  0.1965 -0.6516
  906MOL0     H22275   2.243   1.711   9.765  0.4361 -1.4415  0.7450
  906MOL0     H22276   2.066   1.767   9.594 -0.3273  0.7747 -0.6952
  906MOL0     H22277   2.047   1.715   9.429 -0.4300 -3.6432 -1.4010
  906MOL0     H22278   2.073   1.473   9.473  2.4374  0.7251  0.8019
  906MOL0     H22279   2.128   1.499   9.624  1.1249  0.2048 -1.8970
  906MOL0     H22280   1.865   1.622   9.530 -1.8384  0.1192  1.8758
  906MOL0     H22281   1.920   1.608   9.698 -0.2497 -1.0100  1.2309
  906MOL0     H22282   1.851   1.382   9.511 -1.2408  0.8891 -0.5747
  906MOL0     H22283   1.917   1.350   9.667  0.1359 -2.5732 -4.0766
  906MOL0     H22284   1.693   1.494   9.749 -3.1846  1.1422 -1.8672
  906MOL0     H22285   1.685   1.331   9.679  4.0724 -1.6652 -2.6630
  906MOL0     H22286   1.530   1.528   9.593 -0.9548 -2.3234 -0.9663
  906MOL0     H22287   1.672   1.598   9.508  0.5199  0.1998 -0.0208
  906MOL0     H22288   1.576   1.321   9.445 -1.7016 -0.2998 -0.7506
  906MOL0     H22289   1.673   1.439   9.354 -1.5007  2.6214 -0.3442
  906MOL0     H22290   1.461   1.453   9.255 -2.0031  1.0368 -0.3999
  906MOL0     H22291   1.465   1.592   9.375 -2.8594 -0.8494  2.2047
  906MOL0     H22292   2.454   1.616   9.403  3.8765 -3.1469  0.1931
  906MOL0     H22293   2.635   1.517   9.541  0.3009 -0.3395  2.0231
  906MOL0     H22294   3.023   1.419   9.683 -1.3301 -0.6158 -0.3658
  906MOL0     H22295   3.197   1.323   9.823  1.3732  3.0235 -0.8847
  906MOL0     H22296   2.410   1.010   9.116  1.0634  0.5116 -1.2947
  906MOL0     H22297   2.158   1.022   9.148 -2.1876  0.8598 -1.9361
  906MOL0     H22298   1.775   1.193   8.897  1.0577  0.6720  1.3597
  906MOL0     H22299   1.545   1.124   8.897  0.0534  1.0135 -1.0753
  906MOL0     H22300   1.328   1.135   9.310 -0.7103  0.2155 -2.3007
  906MOL0     H22301   1.200   1.064   9.207 -0.0104 -0.1467 -3.2712
  906MOL0     H22302   1.293   0.915   9.375 -1.1721  1.0266 -0.2475
  906MOL0     H22303   1.457   0.933   9.326 -0.5807 -4.0496 -0.4196
  906MOL0     H22304   1.334   0.851   9.085  0.4777  1.6673  0.7448
  906MOL0     H22305   1.238   0.786   9.199  0.5645  1.0516 -0.4538
  906MOL0     H22306   1.456   0.710   9.328 -1.2082  3.5052  0.5817
  906MOL0     H22307   1.538   0.741   9.175 -1.5591  4.4203 -0.9275
  906MOL0     H22308   1.372   0.381   9.047  0.1542 -0.0103 -0.0914
  906MOL0     H22309   1.540   1.127   9.330 -0.8628  1.7040 -0.6642
  906MOL0     H22310   1.780   1.192   9.325  4.8564 -2.1941 -1.0094
  907MOL0     O22311   8.979   8.746   4.673  0.2290  0.1420  0.0516
  907MOL0     C22312   8.917   8.847   4.697  0.2274 -0.2740  0.0277
  907MOL0     O22313   8.961   8.971   4.689  0.2794 -0.1994 -0.0409
  907MOL0     C22314   9.095   8.988   4.697 -0.6159 -0.1091  0.8365
  907MOL0     C22315   9.189   8.909   4.765 -0.8402 -0.5593  0.0876
  907MOL0     C22316   9.325   8.948   4.764  0.2456  0.3234  0.3702
  907MOL0     C22317   9.367   9.075   4.705 -0.7398  0.8822  0.1684
  907MOL0     O22318   9.501   9.126   4.725 -0.1025  0.3711  0.1340
  907MOL0     C22319   9.508   9.233   4.818 -0.2674  0.1527 -0.4935
  907MOL0     C22320   9.529   9.370   4.741  0.0904 -0.8642  0.0051
  907MOL0     C22321   9.521   9.491   4.835  0.6804  0.0002  0.3142
  907MOL0     C22322   9.582   9.474   4.975 -0.2777  0.1386  0.5618
  907MOL0     C22323   9.583   9.607   5.054 -0.0605 -0.1500  0.6009
  907MOL0     C22324   9.442   9.658   5.090  0.8233 -0.8811 -0.0890
  907MOL0     C22325   9.446   9.772   5.193 -0.5329 -0.3127 -0.3509
  907MOL0     C22326   9.490   9.724   5.338  0.1906  0.3421  0.4089
  907MOL0     N22327   9.459   9.817   5.438  0.0768 -0.0956  0.0808
  907MOL0     C22328   9.345   9.829   5.506  0.0857 -0.2105 -0.6558
  907MOL0     C22329   9.351   9.950   5.569  1.1733 -0.1987 -0.2751
  907MOL0     C22330   9.244  10.015   5.659 -0.1641  0.6427 -0.1184
  907MOL0     C22331   9.172   9.912   5.743  0.1761  0.8631  1.1406
  907MOL0     C22332   9.099   9.982   5.858  0.1575  0.2958 -0.2595
  907MOL0     C22333   9.021   9.887   5.945  0.2738  0.2515 -0.0513
  907MOL0     O22334   8.915   9.948   6.017 -0.1510  1.0719 -0.8355
  907MOL0     C22335   8.832   9.857   6.078  0.1725  1.0139 -0.0386
  907MOL0     C22336   8.710   9.904   6.131 -0.8750 -0.6461  0.4223
  907MOL0     C22337   8.616   9.827   6.199 -0.0839 -0.2068 -1.1593
  907MOL0     C22338   8.486   9.904   6.242 -0.2348 -0.0878  0.2261
  907MOL0     C22339   8.630   9.695   6.208  0.2756 -0.4248 -0.2044
  907MOL0     C22340   8.522   9.604   6.270  1.2346 -0.0181  0.2013
  907MOL0     O22341   8.542   9.477   6.240  0.0357 -0.1616  0.5476
  907MOL0     C22342   8.446   9.381   6.271 -0.2096  0.7128  0.5699
  907MOL0     C22343   8.429   9.344   6.408 -1.1964  0.2592  0.0379
  907MOL0     C22344   8.328   9.255   6.441  0.3120 -0.3852  0.3844
  907MOL0     C22345   8.233   9.203   6.352 -0.6895  0.0976  0.5653
  907MOL0     O22346   8.135   9.102   6.377 -0.3453 -0.0621  0.3123
  907MOL0     C22347   8.169   9.003   6.468 -0.4493  0.1615  0.4624
  907MOL0     C22348   8.073   8.879   6.466  0.3134  0.3284  0.7744
  907MOL0     C22349   7.935   8.927   6.507 -0.2015  0.5953  0.0110
  907MOL0     C22350   7.846   8.805   6.526 -0.4179 -0.5124  0.2708
  907MOL0     C22351   7.717   8.844   6.592 -0.1090 -0.8609 -0.1992
  907MOL0     C22352   7.651   8.725   6.659  0.6039 -0.5067 -0.5358
  907MOL0     C22353   7.615   8.606   6.574  0.2492  0.0428  1.0185
  907MOL0     C22354   7.549   8.491   6.647  0.7511 -0.0050  0.2285
  907MOL0    Cl22355   7.381   8.541   6.707  0.2051 -0.2770 -0.1778
  907MOL0     C22356   8.253   9.230   6.216 -0.3330 -0.5325 -0.2393
  907MOL0     C22357   8.357   9.321   6.177  0.5655  0.9899  0.4649
  907MOL0     O22358   8.431   9.641   6.343 -0.0105 -0.0780  0.0745
  907MOL0     C22359   8.746   9.637   6.157  0.5641 -0.1623  0.1448
  907MOL0     C22360   8.851   9.721   6.103 -0.1763  0.0486 -0.5124
  907MOL0     N22361   9.481   9.999   5.547  0.3770  0.0376 -0.0743
  907MOL0     N22362   9.544   9.918   5.479 -0.3436  0.4202  0.0598
  907MOL0     C22363   9.270   9.150   4.638 -0.3487 -0.0222  0.1198
  907MOL0     C22364   9.132   9.105   4.635  0.0580 -0.0403  0.2356
  907MOL0     C22365   8.772   8.825   4.731 -0.0685 -0.5372  0.0733
  907MOL0     C22366   8.708   8.708   4.716 -0.0935 -0.5064  0.4579
  907MOL0     C22367   8.573   8.683   4.743  0.1162 -0.3984 -0.5715
  907MOL0     C22368   8.489   8.787   4.791 -0.0527  0.0849  0.0127
  907MOL0     O22369   8.364   8.751   4.835  0.0810  0.1454 -0.0303
  907MOL0     C22370   8.273   8.874   4.848  0.5464  0.1978  0.1140
  907MOL0     C22371   8.129   8.828   4.869 -0.0616  0.1284 -0.2515
  907MOL0     C22372   8.105   8.719   4.981 -0.7456  0.1807  1.1421
  907MOL0     C22373   7.960   8.711   5.008  0.3339  0.7144 -0.4544
  907MOL0     C22374   7.959   8.606   5.110  1.3408  0.2089 -0.1897
  907MOL0     C22375   7.966   8.523   5.200 -0.1957  0.1832  0.4013
  907MOL0     C22376   8.555   8.908   4.816 -0.4741  0.0845 -0.1834
  907MOL0     C22377   8.689   8.924   4.780 -0.6637 -0.7960 -0.2855
  907MOL0     H22378   9.171   8.807   4.798 -0.7630 -0.3488  0.8054
  907MOL0     H22379   9.396   8.893   4.824  3.0183  1.6312 -1.5279
  907MOL0     H22380   9.437   9.228   4.900  1.0520  0.8508  0.7484
  907MOL0     H22381   9.609   9.214   4.857 -0.1438 -0.2052 -0.9762
  907MOL0     H22382   9.627   9.365   4.693  0.0618  0.8520 -0.2860
  907MOL0     H22383   9.460   9.383   4.657 -0.1676  0.7533  0.4413
  907MOL0     H22384   9.562   9.574   4.776 -0.2472  1.4538  1.6439
  907MOL0     H22385   9.415   9.514   4.846 -0.0229 -2.0460 -1.5619
  907MOL0     H22386   9.534   9.396   5.033  1.0479 -2.1626 -1.2460
  907MOL0     H22387   9.684   9.439   4.956 -0.7894 -1.4866  0.7082
  907MOL0     H22388   9.639   9.593   5.147  4.0472  1.5124 -1.3913
  907MOL0     H22389   9.635   9.689   5.004 -0.7785 -0.3791 -0.5527
  907MOL0     H22390   9.393   9.704   5.003 -1.0461 -3.5680 -0.5697
  907MOL0     H22391   9.389   9.567   5.117 -1.4555  0.2358 -0.5240
  907MOL0     H22392   9.508   9.853   5.153 -2.5408  1.8289  0.5943
  907MOL0     H22393   9.341   9.799   5.207 -0.9565 -1.5451 -1.0775
  907MOL0     H22394   9.598   9.707   5.337  0.7549  3.4216  0.7378
  907MOL0     H22395   9.426   9.635   5.345 -2.3390  1.9410 -0.7318
  907MOL0     H22396   9.260   9.762   5.508 -1.5305  1.6656 -2.1525
  907MOL0     H22397   9.298  10.093   5.712  1.3087 -0.7944  0.5766
  907MOL0     H22398   9.168  10.047   5.586 -0.5839  0.6967  0.3420
  907MOL0     H22399   9.252   9.845   5.777  1.3612  0.8438 -1.4438
  907MOL0     H22400   9.103   9.855   5.681  0.9115  1.6512 -0.4717
  907MOL0     H22401   9.032  10.054   5.810  2.1629  0.9363 -2.2994
  907MOL0     H22402   9.173  10.038   5.917  1.8286  0.2686 -2.1860
  907MOL0     H22403   9.087   9.845   6.022 -0.1445  1.6369  1.1046
  907MOL0     H22404   8.978   9.808   5.883  1.2277 -1.7864  1.7517
  907MOL0     H22405   8.682  10.008   6.120  0.5769 -0.4389 -2.0743
  907MOL0     H22406   8.464   9.879   6.347  0.0716  1.8458  0.7993
  907MOL0     H22407   8.495  10.013   6.238 -1.1788  0.0223  0.7662
  907MOL0     H22408   8.403   9.874   6.177 -0.9885 -1.3564  1.7015
  907MOL0     H22409   8.504   9.384   6.475 -1.1129  4.7253 -2.2934
  907MOL0     H22410   8.306   9.216   6.540 -1.3727 -1.4400 -0.3644
  907MOL0     H22411   8.272   8.973   6.447 -0.6439 -1.0429  1.1192
  907MOL0     H22412   8.177   9.048   6.567  1.0497  1.4504 -0.2090
  907MOL0     H22413   8.073   8.831   6.368  0.7818  1.2017  0.3312
  907MOL0     H22414   8.110   8.796   6.528 -2.5650 -1.6733 -0.0174
  907MOL0     H22415   7.889   8.994   6.434 -2.5913 -0.3595  0.5734
  907MOL0     H22416   7.950   8.980   6.602  2.9106  0.1624 -0.1367
  907MOL0     H22417   7.833   8.768   6.424  0.6176  2.5680 -1.0851
  907MOL0     H22418   7.889   8.729   6.592 -4.1866 -2.1302  1.1271
  907MOL0     H22419   7.653   8.898   6.521 -1.8821 -1.1942  1.0678
  907MOL0     H22420   7.732   8.921   6.669  1.1944 -1.2825 -0.0160
  907MOL0     H22421   7.689   8.698   6.758 -2.9097  0.6169  1.2855
  907MOL0     H22422   7.558   8.777   6.684  1.1052  1.3144 -2.2259
  907MOL0     H22423   7.703   8.558   6.530  0.4686 -0.3323  1.8343
  907MOL0     H22424   7.557   8.644   6.490  1.4077  2.0896  1.0823
  907MOL0     H22425   7.614   8.457   6.728  0.3654  2.4999  1.6960
  907MOL0     H22426   7.528   8.414   6.573  0.0349  0.7614 -0.3942
  907MOL0     H22427   8.192   9.179   6.142  1.6236 -1.6886 -1.1390
  907MOL0     H22428   8.359   9.350   6.072 -2.8087  0.3139  0.1204
  907MOL0     H22429   8.752   9.529   6.145  1.6503 -0.5124  3.0553
  907MOL0     H22430   8.944   9.669   6.081 -1.0342 -3.1566  2.5869
  907MOL0     H22431   9.304   9.240   4.587  0.5920  0.8474  2.1210
  907MOL0     H22432   9.064   9.166   4.576  0.1460  0.6078  0.7911
  907MOL0     H22433   8.749   8.613   4.681 -0.1093 -0.1998 -0.4061
  907MOL0     H22434   8.531   8.583   4.740 -1.7002  0.3625 -2.4390
  907MOL0     H22435   8.286   8.926   4.943 -4.3830 -0.1096  1.2178
  907MOL0     H22436   8.282   8.939   4.760  2.7146 -2.0223 -1.4396
  907MOL0     H22437   8.092   8.785   4.776 -0.0707  0.1109 -0.2401
  907MOL0     H22438   8.073   8.922   4.878  1.8700  1.1453  2.1391
  907MOL0     H22439   8.163   8.753   5.067  0.3851  1.2657 -0.0104
  907MOL0     H22440   8.139   8.623   4.941 -1.9660 -0.5727  1.8356
  907MOL0     H22441   7.906   8.671   4.922 -2.7432 -2.7044  2.7062
  907MOL0     H22442   7.921   8.807   5.043 -0.8719  0.5055 -1.1551
  907MOL0     H22443   7.986   8.454   5.280  0.0216  1.1238  1.1798
  907MOL0     H22444   8.510   8.989   4.871  0.8938  0.3733  0.5676
  907MOL0     H22445   8.740   9.017   4.802  0.6815 -2.2195  3.4064
  908MOL0     O22446   9.452   2.555   0.301 -0.2206  0.1780 -0.4174
  908MOL0     C22447   9.424   2.528   0.179  0.5663  0.5967  0.7982
  908MOL0     O22448   9.313   2.466   0.133  0.2127  0.2988 -0.8792
  908MOL0     C22449   9.206   2.448   0.222  0.5342  0.2624 -0.4675
  908MOL0     C22450   9.180   2.328   0.285 -0.3579 -0.1038  0.7815
  908MOL0     C22451   9.076   2.309   0.380  0.1761  0.4083  0.3329
  908MOL0     C22452   8.994   2.418   0.407  0.2550  0.3416  0.1912
  908MOL0     O22453   8.893   2.408   0.501 -0.5510  0.6873 -0.0345
  908MOL0     C22454   8.894   2.289   0.587  1.5639 -0.3112 -0.0345
  908MOL0     C22455   8.805   2.325   0.712  0.8432 -0.0600 -0.0603
  908MOL0     C22456   8.773   2.206   0.791 -0.1213 -0.5431 -0.3913
  908MOL0     C22457   8.678   2.238   0.903 -0.1511  0.4500 -0.3873
  908MOL0     C22458   8.733   2.316   1.013 -0.5003 -0.6041 -0.8041
  908MOL0     C22459   8.629   2.312   1.126  0.0317 -0.0626  0.1883
  908MOL0     C22460   8.500   2.394   1.113  0.5259  0.3858  0.3291
  908MOL0     C22461   8.386   2.353   1.209  0.9187  0.5582 -0.5281
  908MOL0     N22462   8.336   2.213   1.191  0.0032  0.3734 -0.0325
  908MOL0     C22463   8.290   2.161   1.073  0.2749 -0.0719  0.0776
  908MOL0     C22464   8.229   2.046   1.095  0.3721 -0.1920 -0.2290
  908MOL0     C22465   8.157   1.957   1.003  1.0743  0.7402  0.0948
  908MOL0     C22466   8.052   1.870   1.081 -0.0742  0.0990 -0.6350
  908MOL0     C22467   7.977   1.777   0.986 -0.0597  0.0768  1.1090
  908MOL0     C22468   7.878   1.683   1.056  0.1203  0.7415 -0.2992
  908MOL0     O22469   7.833   1.599   0.958  0.2583 -0.2953 -0.5072
  908MOL0     C22470   7.700   1.556   0.967 -0.3331 -0.0097  0.5580
  908MOL0     C22471   7.647   1.511   1.091 -0.6328 -1.0582  0.4246
  908MOL0     C22472   7.531   1.446   1.097  0.7613  0.0056  0.5925
  908MOL0     C22473   7.480   1.384   1.227  0.7022 -0.5444  0.1329
  908MOL0     C22474   7.453   1.428   0.979  0.8713  0.3183  0.2405
  908MOL0     C22475   7.334   1.352   0.984 -0.6224 -0.0779  0.1214
  908MOL0     O22476   7.329   1.224   1.029  0.4637 -0.0353 -0.2630
  908MOL0     C22477   7.207   1.152   1.041 -0.6188 -0.1260  0.2910
  908MOL0     C22478   7.103   1.190   1.130 -0.6180  0.1012  0.2583
  908MOL0     C22479   6.990   1.111   1.132  0.9650 -0.0820  0.3307
  908MOL0     C22480   6.970   0.997   1.040 -0.0805 -0.0421 -0.0549
  908MOL0     O22481   6.859   0.918   1.030 -0.5184 -0.8350  0.1675
  908MOL0     C22482   6.728   0.976   1.015  0.1020 -0.4830 -0.0463
  908MOL0     C22483   6.735   1.080   0.899  0.0008  0.2052  0.6897
  908MOL0     C22484   6.590   1.129   0.868  0.8374 -0.0081  1.0062
  908MOL0     C22485   6.481   1.014   0.858 -0.7285 -0.7839 -0.4011
  908MOL0     C22486   6.345   1.069   0.830  0.3934  0.0089 -0.8282
  908MOL0     C22487   6.242   0.948   0.840  0.0998 -0.5820  0.4849
  908MOL0     C22488   6.114   1.009   0.783  0.1446 -0.2356  0.6072
  908MOL0     C22489   5.990   0.962   0.863 -0.8200  0.1289  0.9026
  908MOL0    Cl22490   5.861   1.075   0.832  0.1392 -0.4575 -0.1601
  908MOL0     C22491   7.076   0.971   0.951  0.0888  0.9461  0.3312
  908MOL0     C22492   7.187   1.037   0.963 -0.4434 -0.2548  0.5898
  908MOL0     O22493   7.245   1.403   0.929 -0.4294 -0.1326  0.2764
  908MOL0     C22494   7.500   1.472   0.858  0.2642 -0.3195  0.5057
  908MOL0     C22495   7.630   1.528   0.845 -0.6756 -0.5521  0.2630
  908MOL0     N22496   8.239   2.019   1.234  0.1476 -0.3546  0.7291
  908MOL0     N22497   8.303   2.119   1.284  0.0079 -0.1794  0.0290
  908MOL0     C22498   9.015   2.532   0.335 -0.3583 -0.2787  0.4789
  908MOL0     C22499   9.120   2.553   0.245 -0.2493  0.3277 -0.8723
  908MOL0     C22500   9.538   2.545   0.083 -0.5731  0.9271  0.0614
  908MOL0     C22501   9.668   2.575   0.133 -0.6121  0.2580 -0.0597
  908MOL0     C22502   9.776   2.584   0.042 -0.0224 -0.1950 -0.4548
  908MOL0     C22503   9.751   2.573  -0.097 -0.1525  0.8296  0.3990
  908MOL0     O22504   9.845   2.596  -0.194  0.3348  0.1224 -0.2076
  908MOL0     C22505   9.983   2.571  -0.163  0.7338 -0.6011  0.8550
  908MOL0     C22506  10.055   2.600  -0.289 -0.2343 -0.2368  0.8799
  908MOL0     C22507  10.071   2.743  -0.334 -0.2535  0.7383  0.1007
  908MOL0     C22508  10.182   2.765  -0.439  0.0951 -0.0915  0.2662
  908MOL0     C22509  10.319   2.774  -0.398 -0.0065  0.1538 -0.5802
  908MOL0     C22510  10.432   2.793  -0.362  0.0620  0.3416 -0.1045
  908MOL0     C22511   9.620   2.552  -0.138 -0.6934  0.1492  1.6603
  908MOL0     C22512   9.516   2.546  -0.053  0.3983  0.4475  0.2979
  908MOL0     H22513   9.241   2.241   0.261 -0.8642 -0.6127  1.3209
  908MOL0     H22514   9.079   2.214   0.432 -0.6698  0.4348  0.4378
  908MOL0     H22515   8.862   2.197   0.539 -0.1496  0.6875 -0.8958
  908MOL0     H22516   8.990   2.266   0.635  0.8663  0.2620  1.7361
  908MOL0     H22517   8.847   2.401   0.778 -2.4637  1.2901  0.7309
  908MOL0     H22518   8.713   2.367   0.669  0.4247 -1.1003 -0.2203
  908MOL0     H22519   8.732   2.138   0.717  0.1145  0.7122 -1.7141
  908MOL0     H22520   8.865   2.157   0.826  0.5834  1.0322  0.0575
  908MOL0     H22521   8.603   2.294   0.845 -1.3015 -0.0516  0.5942
  908MOL0     H22522   8.627   2.146   0.932  0.4800  0.0835 -0.4129
  908MOL0     H22523   8.823   2.262   1.045 -0.8317 -0.6401  0.1052
  908MOL0     H22524   8.765   2.417   0.986 -0.2781  0.1337  1.9564
  908MOL0     H22525   8.592   2.209   1.120  1.8349 -0.6539 -2.0255
  908MOL0     H22526   8.683   2.317   1.221  0.8131  0.9923 -0.2873
  908MOL0     H22527   8.535   2.495   1.137  1.6079  0.5385 -1.6739
  908MOL0     H22528   8.468   2.398   1.009 -0.2890 -1.9749  0.4279
  908MOL0     H22529   8.306   2.422   1.182 -0.0722 -1.5409 -3.3266
  908MOL0     H22530   8.407   2.382   1.313  0.2745 -1.7688  0.3094
  908MOL0     H22531   8.297   2.213   0.978 -0.1797 -3.1691 -1.7896
  908MOL0     H22532   8.097   2.016   0.934  0.0808  1.9099  1.8789
  908MOL0     H22533   8.230   1.896   0.948 -3.1962 -2.8044 -2.2504
  908MOL0     H22534   7.980   1.928   1.140 -0.5044  2.2494 -3.1099
  908MOL0     H22535   8.110   1.809   1.151  0.1447  1.1965  0.1637
  908MOL0     H22536   8.059   1.722   0.939  1.2760  2.9633 -0.1755
  908MOL0     H22537   7.928   1.832   0.905  0.8673  1.4028  1.4067
  908MOL0     H22538   7.802   1.749   1.099  0.9287  1.6255 -0.1814
  908MOL0     H22539   7.929   1.626   1.135  0.1771 -0.8684 -1.4610
  908MOL0     H22540   7.705   1.510   1.183  2.6225  0.4029 -1.4297
  908MOL0     H22541   7.382   1.420   1.259  2.1712  1.3827  2.9236
  908MOL0     H22542   7.478   1.276   1.214 -0.7966 -0.9350  2.9423
  908MOL0     H22543   7.550   1.404   1.309  0.4774 -1.0081  0.4373
  908MOL0     H22544   7.117   1.278   1.192 -0.7603 -0.3009  0.8689
  908MOL0     H22545   6.910   1.132   1.202  0.2124  0.4364 -0.6508
  908MOL0     H22546   6.662   0.896   0.980 -0.4526  1.7295 -4.9623
  908MOL0     H22547   6.682   1.043   1.088  2.1685  1.5997 -0.5582
  908MOL0     H22548   6.797   1.168   0.918 -0.3516  0.9895 -1.5065
  908MOL0     H22549   6.785   1.019   0.822 -1.1463 -0.2202  0.2675
  908MOL0     H22550   6.594   1.179   0.771 -0.7368 -1.5604  0.0790
  908MOL0     H22551   6.559   1.189   0.954  0.3685  2.1647 -0.6158
  908MOL0     H22552   6.514   0.955   0.772 -0.8657  0.8593 -1.6309
  908MOL0     H22553   6.470   0.961   0.953 -0.3326  1.1098  0.7594
  908MOL0     H22554   6.334   1.112   0.730 -1.8375  0.2890 -0.5133
  908MOL0     H22555   6.315   1.140   0.906  1.7349  0.2058 -0.4532
  908MOL0     H22556   6.271   0.863   0.778  0.4405 -0.1065 -0.0182
  908MOL0     H22557   6.244   0.915   0.945  1.0580  2.2173  1.4340
  908MOL0     H22558   6.103   0.976   0.679  1.5450  3.6574 -0.9426
  908MOL0     H22559   6.127   1.117   0.776  0.9157 -0.4048 -1.0145
  908MOL0     H22560   6.017   0.946   0.967  0.6737  0.3344  0.5649
  908MOL0     H22561   5.945   0.868   0.830 -1.3330  0.2638  1.2088
  908MOL0     H22562   7.073   0.890   0.879  1.4160  0.7824  0.4403
  908MOL0     H22563   7.241   1.021   0.871 -1.2057  0.6107 -0.0307
  908MOL0     H22564   7.451   1.467   0.761 -0.6583  1.9344  0.7937
  908MOL0     H22565   7.675   1.559   0.752  1.1045  0.2773  1.3470
  908MOL0     H22566   8.950   2.618   0.349  0.8626  0.7836 -0.2231
  908MOL0     H22567   9.130   2.650   0.198 -0.2147  0.4603 -0.5932
  908MOL0     H22568   9.676   2.562   0.240 -2.1197 -3.6869 -0.2694
  908MOL0     H22569   9.876   2.589   0.083  0.1268  3.0278 -0.9521
  908MOL0     H22570  10.019   2.634  -0.081  0.8151 -0.2434  0.5519
  908MOL0     H22571   9.984   2.465  -0.137 -2.3278 -0.6294  1.2583
  908MOL0     H22572  10.011   2.550  -0.376 -0.8518  2.1535 -0.2686
  908MOL0     H22573  10.156   2.561  -0.272  0.7305  1.5874 -0.2601
  908MOL0     H22574  10.075   2.812  -0.249  0.1994  0.0959  0.6058
  908MOL0     H22575   9.973   2.760  -0.378 -0.6060 -0.6572  0.3047
  908MOL0     H22576  10.160   2.855  -0.496 -0.7791 -1.0796 -1.0141
  908MOL0     H22577  10.188   2.683  -0.512  0.5375  1.1638 -1.1593
  908MOL0     H22578  10.537   2.805  -0.345  0.3455 -0.9953 -0.7425
  908MOL0     H22579   9.610   2.548  -0.246  1.2912 -0.7458  1.4718
  908MOL0     H22580   9.417   2.536  -0.096  1.0652 -0.1895 -1.1564
  909MOL0     O22581   5.505   5.827   7.700  0.4816 -0.0467 -0.5087
  909MOL0     C22582   5.528   5.941   7.653 -0.4967  0.2352  0.3834
  909MOL0     O22583   5.446   6.009   7.566  0.7529 -0.0083  0.0914
  909MOL0     C22584   5.319   5.971   7.539 -0.4328  0.5111 -0.0954
  909MOL0     C22585   5.215   6.069   7.540 -0.1519  0.0006  0.6072
  909MOL0     C22586   5.081   6.037   7.512  0.1631  0.7158 -0.6639
  909MOL0     C22587   5.045   5.910   7.462 -0.4879  0.2619 -0.9353
  909MOL0     O22588   4.915   5.874   7.443 -0.3945  0.7286  0.0756
  909MOL0     C22589   4.813   5.969   7.440  0.3932  0.8179  0.5161
  909MOL0     C22590   4.746   5.993   7.577 -0.3485  0.4054  0.9130
  909MOL0     C22591   4.724   6.147   7.592 -0.2804  0.5972  0.4914
  909MOL0     C22592   4.619   6.147   7.696  0.3468  0.5943 -0.0091
  909MOL0     C22593   4.591   6.279   7.763  1.2756 -0.2829 -0.1117
  909MOL0     C22594   4.524   6.290   7.901  1.4168 -0.4930 -0.0618
  909MOL0     C22595   4.384   6.231   7.889  1.5219 -0.2128  0.1536
  909MOL0     C22596   4.326   6.201   8.032 -0.8307 -0.0359 -0.6326
  909MOL0     N22597   4.381   6.076   8.088 -0.6464  0.4089 -0.9410
  909MOL0     C22598   4.491   6.063   8.166 -0.3528  0.3325  0.4140
  909MOL0     C22599   4.496   5.933   8.206  0.3672  0.1515 -0.2869
  909MOL0     C22600   4.588   5.874   8.308  0.3278  0.6436  0.3052
  909MOL0     C22601   4.650   5.751   8.245  0.2913  0.4822  0.0589
  909MOL0     C22602   4.754   5.690   8.342 -0.2197 -0.2966  0.6732
  909MOL0     C22603   4.854   5.594   8.260 -0.3639 -1.1632 -0.2265
  909MOL0     O22604   4.949   5.539   8.353 -0.5076 -0.1331 -0.8273
  909MOL0     C22605   5.062   5.477   8.295  0.7887  0.3492 -0.4585
  909MOL0     C22606   5.190   5.484   8.357 -0.8447 -0.0155  0.1125
  909MOL0     C22607   5.302   5.446   8.282  0.1371  0.3509 -0.9993
  909MOL0     C22608   5.431   5.460   8.353 -0.0185 -0.6484 -0.5589
  909MOL0     C22609   5.284   5.379   8.155  0.0534 -0.6159 -0.5625
  909MOL0     C22610   5.397   5.302   8.079 -0.5717  0.1030 -1.0129
  909MOL0     O22611   5.520   5.342   8.104 -1.1022 -0.0487 -0.5623
  909MOL0     C22612   5.638   5.289   8.045  0.0734  0.3933  0.3860
  909MOL0     C22613   5.755   5.358   8.043 -0.0407  0.2759 -0.1346
  909MOL0     C22614   5.873   5.316   7.980  0.2820 -0.2452  0.6434
  909MOL0     C22615   5.881   5.196   7.917  0.8213  0.1952 -0.8781
  909MOL0     O22616   5.993   5.153   7.852  0.3422  0.2339  0.5060
  909MOL0     C22617   6.078   5.068   7.926 -0.0160 -0.2748 -0.2184
  909MOL0     C22618   6.201   5.035   7.849 -0.3038  0.7967  0.3976
  909MOL0     C22619   6.245   5.149   7.754  0.0559 -0.0413  0.3691
  909MOL0     C22620   6.383   5.137   7.701 -0.6972  0.1035  0.2069
  909MOL0     C22621   6.444   5.261   7.647 -0.5785 -0.2422 -0.5013
  909MOL0     C22622   6.595   5.231   7.622 -0.6683 -1.6991 -1.2069
  909MOL0     C22623   6.666   5.369   7.643  0.2100 -0.0805  0.2931
  909MOL0     C22624   6.815   5.351   7.633 -0.7712 -0.5534  0.0365
  909MOL0    Cl22625   6.896   5.505   7.654  0.0309  0.0304 -0.0257
  909MOL0     C22626   5.765   5.115   7.912 -0.2405 -0.6338 -0.1876
  909MOL0     C22627   5.651   5.166   7.980  0.5429 -0.1903  0.2602
  909MOL0     O22628   5.366   5.216   7.999  0.5072 -0.4892  0.1059
  909MOL0     C22629   5.158   5.363   8.109  0.5347  0.8421 -0.0411
  909MOL0     C22630   5.048   5.402   8.181  0.2068 -0.5368  0.0108
  909MOL0     N22631   4.389   5.858   8.141  0.3279  0.0172 -0.3208
  909MOL0     N22632   4.326   5.950   8.072  0.0166  0.1076 -0.2104
  909MOL0     C22633   5.148   5.811   7.464 -0.3636 -0.6274 -1.0665
  909MOL0     C22634   5.279   5.843   7.512 -0.6754  0.3928  0.9162
  909MOL0     C22635   5.654   6.013   7.684 -0.0602 -0.0447  0.0426
  909MOL0     C22636   5.751   5.951   7.760  0.8222  0.2214 -0.6590
  909MOL0     C22637   5.868   6.024   7.797  0.6887  0.2595  0.6298
  909MOL0     C22638   5.903   6.144   7.734  0.5236  0.1862  1.0035
  909MOL0     O22639   6.016   6.206   7.770 -0.0203 -0.3201 -0.5053
  909MOL0     C22640   6.135   6.149   7.730 -1.0259  0.2118  0.1656
  909MOL0     C22641   6.240   6.204   7.824  1.4501 -0.3099  0.3535
  909MOL0     C22642   6.238   6.126   7.953 -0.6456 -0.1205  0.0159
  909MOL0     C22643   6.232   6.213   8.078  0.6826 -0.8172  0.0610
  909MOL0     C22644   6.362   6.271   8.130  0.1532  1.2234 -0.0885
  909MOL0     C22645   6.471   6.310   8.162  0.1850 -0.1972  1.2530
  909MOL0     C22646   5.806   6.196   7.638  0.2645 -0.3389 -0.6025
  909MOL0     C22647   5.686   6.129   7.616 -0.5690 -0.0442 -0.6163
  909MOL0     H22648   5.239   6.173   7.562 -0.5925  0.9488 -2.8251
  909MOL0     H22649   5.004   6.112   7.525  1.3744  1.5851  2.4142
  909MOL0     H22650   4.854   6.062   7.399  3.6280 -0.3030  0.9284
  909MOL0     H22651   4.731   5.923   7.384 -0.6461  2.5226  0.5447
  909MOL0     H22652   4.649   5.944   7.573 -0.5558  0.7951 -3.3901
  909MOL0     H22653   4.815   5.947   7.649  1.9854  3.5003  0.8323
  909MOL0     H22654   4.816   6.200   7.619 -0.1855  0.4279  0.5004
  909MOL0     H22655   4.692   6.188   7.496 -0.3953 -0.1162  0.2191
  909MOL0     H22656   4.532   6.107   7.643  1.6085 -0.6796 -1.1751
  909MOL0     H22657   4.633   6.078   7.779  0.1629  1.6669  0.9432
  909MOL0     H22658   4.689   6.326   7.774  0.4270  1.1790  1.6629
  909MOL0     H22659   4.531   6.338   7.693 -0.5329 -1.5173  0.3354
  909MOL0     H22660   4.581   6.240   7.979 -1.0758 -4.3173 -0.4124
  909MOL0     H22661   4.505   6.396   7.923 -2.5942 -0.0186 -4.1660
  909MOL0     H22662   4.315   6.310   7.856 -1.4896 -1.9759  1.8281
  909MOL0     H22663   4.384   6.145   7.821  2.3110 -0.1567  0.0805
  909MOL0     H22664   4.218   6.203   8.049 -0.2474 -1.0113  5.0889
  909MOL0     H22665   4.361   6.287   8.089  1.1796 -0.5976 -0.9550
  909MOL0     H22666   4.549   6.145   8.208  2.0381 -0.0001 -1.9407
  909MOL0     H22667   4.675   5.938   8.325  1.6063 -0.4835 -1.5531
  909MOL0     H22668   4.522   5.864   8.394  0.2526  0.2125  0.1977
  909MOL0     H22669   4.691   5.766   8.145 -0.2057  1.2643 -0.0353
  909MOL0     H22670   4.576   5.670   8.243  0.0498  0.6599  1.3175
  909MOL0     H22671   4.709   5.632   8.423 -0.5289  0.8269  1.3265
  909MOL0     H22672   4.813   5.768   8.392  0.9590 -1.2565  0.8353
  909MOL0     H22673   4.907   5.658   8.188 -2.6116  1.0780 -0.0238
  909MOL0     H22674   4.801   5.519   8.200 -0.1539 -0.9082 -0.7432
  909MOL0     H22675   5.200   5.529   8.456 -0.4338 -2.4868  1.2612
  909MOL0     H22676   5.415   5.514   8.446  2.2554  4.7812 -2.9238
  909MOL0     H22677   5.480   5.363   8.364  0.0316 -0.4071  1.7701
  909MOL0     H22678   5.501   5.525   8.300  3.8339 -0.7789  3.8227
  909MOL0     H22679   5.746   5.458   8.086  0.1989  0.1224  0.2741
  909MOL0     H22680   5.959   5.381   7.974 -0.4223  0.6207 -0.5746
  909MOL0     H22681   6.101   5.116   8.021 -2.7143  1.7705 -0.4700
  909MOL0     H22682   6.026   4.974   7.948  3.1050 -2.8424 -2.6341
  909MOL0     H22683   6.279   5.000   7.918 -2.2567  0.5695  2.5965
  909MOL0     H22684   6.180   4.953   7.781  0.2053  0.9662  0.0240
  909MOL0     H22685   6.229   5.249   7.793  0.7229  1.0833 -2.0283
  909MOL0     H22686   6.178   5.158   7.668  0.8584  0.9495 -0.1723
  909MOL0     H22687   6.445   5.088   7.776 -3.0886 -2.4064  0.6781
  909MOL0     H22688   6.368   5.070   7.616 -2.5089  1.9492 -1.0431
  909MOL0     H22689   6.433   5.333   7.728 -2.1106 -0.8772 -0.1126
  909MOL0     H22690   6.402   5.295   7.552 -2.5010 -2.2669 -0.4684
  909MOL0     H22691   6.634   5.163   7.697  1.5779 -0.8290 -1.5239
  909MOL0     H22692   6.614   5.189   7.523 -0.4406 -1.9361 -1.0621
  909MOL0     H22693   6.654   5.416   7.741  0.8008  1.1343 -0.1836
  909MOL0     H22694   6.636   5.438   7.564  1.6644  1.1704  0.7800
  909MOL0     H22695   6.845   5.299   7.542 -1.1597  1.9723 -1.6481
  909MOL0     H22696   6.860   5.286   7.708  2.6926  1.8728  0.3140
  909MOL0     H22697   5.756   5.040   7.834  1.1319 -0.8274 -0.1872
  909MOL0     H22698   5.562   5.111   7.953  1.4367 -0.4996 -2.2590
  909MOL0     H22699   5.152   5.322   8.009  3.1286 -4.0196  1.4373
  909MOL0     H22700   4.954   5.404   8.127 -1.4291 -1.2194  2.6317
  909MOL0     H22701   5.129   5.709   7.434 -1.0704 -0.3437 -1.6144
  909MOL0     H22702   5.348   5.761   7.498 -2.8234 -1.0127 -2.7755
  909MOL0     H22703   5.725   5.866   7.823 -1.3528  2.2161  1.3053
  909MOL0     H22704   5.934   6.003   7.881  2.2189  0.4590 -0.4871
  909MOL0     H22705   6.133   6.042   7.707 -1.6408  0.5903 -1.7863
  909MOL0     H22706   6.156   6.195   7.633 -1.7061 -1.3500 -0.7699
  909MOL0     H22707   6.206   6.306   7.846 -1.4282 -1.2107  0.4873
  909MOL0     H22708   6.339   6.211   7.777  1.9290 -3.4727  0.6679
  909MOL0     H22709   6.335   6.075   7.944 -0.5008  0.3853 -1.7446
  909MOL0     H22710   6.163   6.047   7.956  0.8380 -1.6946 -1.3946
  909MOL0     H22711   6.178   6.170   8.164 -1.5459  0.4883 -0.6028
  909MOL0     H22712   6.167   6.300   8.062 -0.6264 -0.7214  4.3950
  909MOL0     H22713   6.568   6.351   8.184  0.2164  0.3984  0.0575
  909MOL0     H22714   5.837   6.288   7.590  0.5102 -0.1392 -0.0633
  909MOL0     H22715   5.618   6.170   7.541 -4.2390 -0.4938  2.1874
  910MOL0     O22716   0.754   1.872   3.476 -0.7862  0.6279 -0.2281
  910MOL0     C22717   0.804   1.942   3.387 -0.4977  0.9394  0.4274
  910MOL0     O22718   0.734   2.031   3.306  1.1220 -0.4825  0.0814
  910MOL0     C22719   0.596   2.031   3.304  0.5636  1.2387 -0.4614
  910MOL0     C22720   0.508   1.920   3.309  0.4964  0.6798  0.1537
  910MOL0     C22721   0.371   1.928   3.316 -0.3942 -0.5429  0.8412
  910MOL0     C22722   0.314   2.055   3.309  0.9084  0.5011 -0.3741
  910MOL0     O22723   0.177   2.070   3.307 -0.9474 -0.2147 -0.5948
  910MOL0     C22724   0.099   2.002   3.208  0.5742  0.4687 -0.6046
  910MOL0     C22725  -0.047   2.027   3.234 -0.6055 -0.4190 -0.3246
  910MOL0     C22726  -0.123   1.973   3.111 -0.5315  0.1136 -0.1078
  910MOL0     C22727  -0.265   2.032   3.113  0.2007  0.7937  0.0858
  910MOL0     C22728  -0.370   1.939   3.066 -0.3654  1.1894  0.2586
  910MOL0     C22729  -0.513   1.993   3.099 -1.0232  0.1629 -0.1209
  910MOL0     C22730  -0.546   2.126   3.018 -0.0156  0.2301 -0.8587
  910MOL0     C22731  -0.693   2.133   2.996  0.9072  0.4778 -0.9169
  910MOL0     N22732  -0.762   2.171   3.122  0.2980 -0.7202 -0.6542
  910MOL0     C22733  -0.767   2.294   3.188 -1.2347  0.2428  0.3436
  910MOL0     C22734  -0.877   2.293   3.267 -0.5413  0.7813  0.0775
  910MOL0     C22735  -0.914   2.394   3.370 -0.5115  0.3989  0.6794
  910MOL0     C22736  -1.062   2.456   3.377  0.6476  0.4598 -0.3795
  910MOL0     C22737  -1.160   2.341   3.340 -0.1520 -0.0160 -0.2445
  910MOL0     C22738  -1.306   2.388   3.361  0.7172  0.4164  0.2028
  910MOL0     O22739  -1.331   2.441   3.492 -0.0088  0.5984 -0.0683
  910MOL0     C22740  -1.453   2.504   3.516  0.1780  0.2932  0.1582
  910MOL0     C22741  -1.575   2.513   3.433 -0.7437  1.0401 -0.2658
  910MOL0     C22742  -1.689   2.574   3.481  0.9755  1.0490  0.4983
  910MOL0     C22743  -1.811   2.571   3.393 -0.8453 -0.0777 -0.3786
  910MOL0     C22744  -1.693   2.624   3.608  0.6549 -0.0715 -0.7986
  910MOL0     C22745  -1.810   2.694   3.669  0.0969 -0.4242 -0.0816
  910MOL0     O22746  -1.829   2.703   3.802  0.3286  1.5313 -0.3532
  910MOL0     C22747  -1.946   2.715   3.873  0.4754  0.0613  0.7781
  910MOL0     C22748  -2.072   2.707   3.816  0.4445  0.8407 -0.1436
  910MOL0     C22749  -2.195   2.716   3.887  0.1132  0.5199 -0.1513
  910MOL0     C22750  -2.187   2.733   4.029 -0.8588 -0.3413 -0.3760
  910MOL0     O22751  -2.290   2.752   4.107 -0.0218 -0.0769 -0.0259
  910MOL0     C22752  -2.414   2.782   4.050  0.1106 -0.7154 -0.1348
  910MOL0     C22753  -2.506   2.852   4.146  0.0787  0.4996 -0.4336
  910MOL0     C22754  -2.576   2.740   4.235 -0.3754 -0.4576  0.0544
  910MOL0     C22755  -2.600   2.787   4.377 -0.5733  0.4831 -1.0283
  910MOL0     C22756  -2.471   2.786   4.464 -0.2278  0.1151  0.4316
  910MOL0     C22757  -2.527   2.780   4.606  0.1357 -0.5433 -0.2053
  910MOL0     C22758  -2.401   2.788   4.697 -0.1615  0.5418  0.5704
  910MOL0     C22759  -2.412   2.775   4.845  0.1772 -0.5790 -1.0862
  910MOL0    Cl22760  -2.512   2.909   4.913  0.1643 -0.0788  0.6379
  910MOL0     C22761  -2.047   2.740   4.085  0.9508  0.0514 -0.9484
  910MOL0     C22762  -1.930   2.726   4.005 -0.2737  0.2076 -1.1432
  910MOL0     O22763  -1.884   2.755   3.590  0.1921 -0.7302 -0.4090
  910MOL0     C22764  -1.580   2.606   3.694  0.4930  0.5013 -0.0836
  910MOL0     C22765  -1.467   2.545   3.650  0.4476  0.2168 -0.1036
  910MOL0     N22766  -0.932   2.172   3.245 -0.1369  0.0715  0.2508
  910MOL0     N22767  -0.872   2.105   3.155 -0.2998 -0.0300  0.0265
  910MOL0     C22768   0.395   2.163   3.303 -0.7874 -0.7744 -0.5161
  910MOL0     C22769   0.538   2.154   3.306  1.2714 -0.1087 -0.0282
  910MOL0     C22770   0.954   1.968   3.375  0.2011  0.1307 -0.2180
  910MOL0     C22771   1.036   1.927   3.476 -0.8705 -0.7138 -0.5464
  910MOL0     C22772   1.171   1.960   3.483 -0.6796  0.0117  0.2719
  910MOL0     C22773   1.233   2.014   3.369 -0.5961  0.0491  0.6692
  910MOL0     O22774   1.364   2.041   3.348  0.6942 -0.0736  0.3973
  910MOL0     C22775   1.445   2.050   3.471 -0.7256 -0.2712  0.0180
  910MOL0     C22776   1.569   2.137   3.432 -0.0877 -0.1348 -0.3902
  910MOL0     C22777   1.650   2.108   3.303 -0.2901  0.2361  0.2739
  910MOL0     C22778   1.728   1.980   3.301  0.7221  0.1017  0.1973
  910MOL0     C22779   1.822   1.973   3.406 -0.9791  0.1081  0.0266
  910MOL0     C22780   1.899   1.973   3.503  0.4040 -0.6570 -0.0988
  910MOL0     C22781   1.155   2.052   3.259 -0.1324 -0.6527 -0.4666
  910MOL0     C22782   1.019   2.033   3.265  0.5475  0.0570  0.3706
  910MOL0     H22783   0.548   1.819   3.309 -4.5156 -1.6556 -0.5048
  910MOL0     H22784   0.306   1.842   3.331 -1.8844  0.0478 -1.6413
  910MOL0     H22785   0.114   2.032   3.104  0.3342  0.3710 -0.6678
  910MOL0     H22786   0.124   1.896   3.224 -0.0524  0.3564 -0.3701
  910MOL0     H22787  -0.078   1.975   3.325  0.7053  1.8653  1.5394
  910MOL0     H22788  -0.063   2.135   3.238  1.2055 -0.0571 -1.5849
  910MOL0     H22789  -0.071   1.997   3.018  0.0932 -1.8404 -0.3175
  910MOL0     H22790  -0.134   1.866   3.132 -1.6852  0.6643  2.4352
  910MOL0     H22791  -0.275   2.068   3.216  1.8020 -1.7817  1.2455
  910MOL0     H22792  -0.283   2.123   3.055 -2.5257 -0.2406 -0.8260
  910MOL0     H22793  -0.359   1.928   2.958  1.6252  3.8806  0.0972
  910MOL0     H22794  -0.351   1.840   3.109 -0.4297  0.5811 -1.0520
  910MOL0     H22795  -0.588   1.914   3.086 -1.4976  0.7038 -0.7253
  910MOL0     H22796  -0.523   2.015   3.206  0.5362 -1.8601  0.5137
  910MOL0     H22797  -0.517   2.216   3.073 -2.1098 -1.0849  2.7402
  910MOL0     H22798  -0.500   2.128   2.919  0.7619 -0.5668 -0.5180
  910MOL0     H22799  -0.723   2.034   2.961 -0.6417  1.0790 -1.3652
  910MOL0     H22800  -0.720   2.202   2.916 -0.8121  1.1477  0.1915
  910MOL0     H22801  -0.694   2.374   3.190 -0.9925  0.0466 -0.4002
  910MOL0     H22802  -0.900   2.343   3.466  0.2979  1.3214  1.0704
  910MOL0     H22803  -0.831   2.465   3.365  0.0850 -0.3573 -0.3398
  910MOL0     H22804  -1.084   2.534   3.303 -0.3857 -0.1821 -0.7749
  910MOL0     H22805  -1.088   2.499   3.474 -1.0704  1.0424 -1.0692
  910MOL0     H22806  -1.138   2.263   3.413 -0.0811 -0.3569 -0.6246
  910MOL0     H22807  -1.145   2.298   3.240  1.3552 -2.5986  0.9878
  910MOL0     H22808  -1.361   2.296   3.342  3.4280 -1.1633 -0.4349
  910MOL0     H22809  -1.328   2.467   3.288  1.4211  1.1986  0.8177
  910MOL0     H22810  -1.583   2.484   3.328 -4.0181  0.1342  0.1204
  910MOL0     H22811  -1.901   2.521   3.430 -1.6008  1.8383  0.4590
  910MOL0     H22812  -1.847   2.672   3.372 -1.8846 -0.5911 -1.1662
  910MOL0     H22813  -1.778   2.534   3.295  0.1650  0.3143 -0.2049
  910MOL0     H22814  -2.075   2.690   3.709  2.6184 -2.1010  0.1371
  910MOL0     H22815  -2.292   2.715   3.838 -0.2176  0.0552  0.5000
  910MOL0     H22816  -2.396   2.855   3.971  0.6610 -1.4042 -0.6567
  910MOL0     H22817  -2.457   2.688   4.014  3.1021 -2.5394  0.6761
  910MOL0     H22818  -2.457   2.914   4.222 -1.3006 -1.0682  1.8657
  910MOL0     H22819  -2.585   2.902   4.088  0.5250 -1.5489 -2.9801
  910MOL0     H22820  -2.513   2.650   4.233 -0.6429 -0.6431 -1.6564
  910MOL0     H22821  -2.676   2.725   4.194 -2.1764  2.5605  2.8727
  910MOL0     H22822  -2.645   2.886   4.381 -3.0777 -0.4752 -2.8380
  910MOL0     H22823  -2.671   2.717   4.421  0.5383  0.3528  0.6717
  910MOL0     H22824  -2.410   2.874   4.438 -1.6480  0.4970 -1.8452
  910MOL0     H22825  -2.421   2.689   4.456 -0.5888 -0.1738  1.5520
  910MOL0     H22826  -2.590   2.868   4.621  1.4630  0.4615 -0.3949
  910MOL0     H22827  -2.584   2.692   4.637 -0.3038 -0.1163  0.1945
  910MOL0     H22828  -2.340   2.878   4.682  0.5114  0.0939  0.5898
  910MOL0     H22829  -2.332   2.714   4.656 -0.6293  0.8086 -0.7377
  910MOL0     H22830  -2.313   2.777   4.891  0.3152  2.9377 -1.2563
  910MOL0     H22831  -2.453   2.677   4.871  3.0574 -1.0816  2.3023
  910MOL0     H22832  -2.049   2.765   4.191 -0.5729 -2.9091 -0.1680
  910MOL0     H22833  -1.834   2.716   4.054 -1.6156 -2.9416  1.2533
  910MOL0     H22834  -1.582   2.639   3.797  1.5407 -1.1696  0.5257
  910MOL0     H22835  -1.375   2.553   3.706  1.2102  1.6031 -1.4618
  910MOL0     H22836   0.354   2.262   3.289  0.3225  0.0459  1.6027
  910MOL0     H22837   0.603   2.241   3.310 -0.5829  1.3608 -0.4654
  910MOL0     H22838   0.996   1.881   3.567 -0.5402 -0.7766 -0.4311
  910MOL0     H22839   1.235   1.928   3.565  0.0064 -3.6612 -1.4760
  910MOL0     H22840   1.394   2.111   3.546 -1.8802 -2.6238  1.2502
  910MOL0     H22841   1.462   1.953   3.519  2.2039 -0.1677 -0.6096
  910MOL0     H22842   1.639   2.135   3.516 -0.1152  0.1459 -0.3577
  910MOL0     H22843   1.528   2.238   3.423 -1.3199 -0.3922  1.5702
  910MOL0     H22844   1.713   2.196   3.292  1.0741 -0.8194 -0.6585
  910MOL0     H22845   1.584   2.108   3.216 -0.9091 -0.7484  0.7188
  910MOL0     H22846   1.758   1.954   3.199 -0.9670 -1.2953  0.0029
  910MOL0     H22847   1.653   1.906   3.330  1.4886 -1.1723 -0.9682
  910MOL0     H22848   1.951   1.966   3.596  2.0568  3.5190 -0.4780
  910MOL0     H22849   1.205   2.093   3.172  0.3513  0.2362  0.2114
  910MOL0     H22850   0.960   2.085   3.191  1.3448  0.6291  0.1147
  911MOL0     O22851  11.247   5.765   0.297 -0.1910 -0.3738 -0.7817
  911MOL0     C22852  11.254   5.845   0.392  0.1672  0.5239  0.0056
  911MOL0     O22853  11.165   5.938   0.426  0.7275 -0.5753 -0.0940
  911MOL0     C22854  11.037   5.924   0.352  0.1885 -0.5891 -0.0557
  911MOL0     C22855  10.921   5.917   0.421 -0.6853 -0.2383 -0.5161
  911MOL0     C22856  10.793   5.930   0.366  0.4183 -0.1042 -0.0762
  911MOL0     C22857  10.780   5.974   0.233  0.4246 -0.1628  0.7834
  911MOL0     O22858  10.662   6.016   0.175  0.1520 -0.4725 -0.1112
  911MOL0     C22859  10.534   6.012   0.250 -0.3705  0.0657  0.0395
  911MOL0     C22860  10.415   6.015   0.150  0.5284  0.4507 -0.5464
  911MOL0     C22861  10.381   6.151   0.084 -0.4008  0.1324 -0.1158
  911MOL0     C22862  10.250   6.142   0.011 -0.3278 -0.7285 -0.1380
  911MOL0     C22863  10.235   6.261  -0.085  0.0024  0.0087  0.6620
  911MOL0     C22864  10.093   6.279  -0.121 -0.2989  0.6440 -0.6508
  911MOL0     C22865  10.080   6.421  -0.200  0.2313  0.2239 -0.0380
  911MOL0     C22866   9.968   6.432  -0.311  0.3964  0.3227 -0.1431
  911MOL0     N22867   9.840   6.402  -0.245  0.9323  0.0264  0.6001
  911MOL0     C22868   9.786   6.438  -0.124  0.0234  0.5681 -0.2579
  911MOL0     C22869   9.657   6.394  -0.130 -0.0179  0.1029  0.3443
  911MOL0     C22870   9.553   6.393  -0.021 -0.0798  0.2737  1.1875
  911MOL0     C22871   9.481   6.529  -0.026  0.2164  0.1344 -0.5404
  911MOL0     C22872   9.370   6.532  -0.136 -0.5654  0.1381  0.0207
  911MOL0     C22873   9.243   6.456  -0.115  0.8034 -0.3366 -0.4692
  911MOL0     O22874   9.168   6.500  -0.001  0.3786  0.9673  0.4425
  911MOL0     C22875   9.042   6.437   0.003 -0.0492 -0.5724 -0.4518
  911MOL0     C22876   8.968   6.482   0.107 -0.1340 -0.3082 -0.1974
  911MOL0     C22877   8.846   6.427   0.139  0.1968 -0.6310  0.3013
  911MOL0     C22878   8.773   6.484   0.260 -0.9804 -0.8372 -0.9883
  911MOL0     C22879   8.782   6.336   0.051  0.1873 -0.4707 -0.4884
  911MOL0     C22880   8.642   6.268   0.084 -0.9176 -0.8436 -0.7448
  911MOL0     O22881   8.602   6.169   0.000  0.5841 -0.1892 -0.0513
  911MOL0     C22882   8.489   6.094   0.019 -0.3156  0.3721 -0.6628
  911MOL0     C22883   8.412   6.081   0.138  0.5610 -0.1760 -0.1519
  911MOL0     C22884   8.282   6.025   0.137 -1.3935  0.6973  1.3517
  911MOL0     C22885   8.242   5.955   0.021 -0.0791  0.2115 -0.2959
  911MOL0     O22886   8.127   5.890   0.008  0.4718 -1.0471 -0.3208
  911MOL0     C22887   8.007   5.916   0.088  0.3397 -0.5874 -0.1870
  911MOL0     C22888   7.925   5.798   0.106  0.2763  0.4635  0.5661
  911MOL0     C22889   7.880   5.746  -0.031 -0.5259 -0.3051 -0.2945
  911MOL0     C22890   7.793   5.838  -0.122 -0.2749  0.4570  0.5944
  911MOL0     C22891   7.657   5.849  -0.041 -0.3563  0.2267 -0.5115
  911MOL0     C22892   7.544   5.901  -0.130  0.4980  0.4016 -0.6172
  911MOL0     C22893   7.577   6.042  -0.171  0.5944 -0.5337 -0.2255
  911MOL0     C22894   7.471   6.128  -0.247 -0.2515 -0.8089 -0.0220
  911MOL0    Cl22895   7.404   6.051  -0.389 -0.0242  0.6209  0.6368
  911MOL0     C22896   8.324   5.957  -0.095 -1.0679 -0.0482  0.2215
  911MOL0     C22897   8.448   6.018  -0.090  0.5849 -0.6244  0.4437
  911MOL0     O22898   8.579   6.314   0.181 -0.0424 -0.4411 -0.7000
  911MOL0     C22899   8.858   6.280  -0.052 -0.1646 -0.4856  0.0962
  911MOL0     C22900   8.986   6.340  -0.075 -0.4866  1.0074  0.1460
  911MOL0     N22901   9.634   6.348  -0.261 -0.3050  0.7516  0.6621
  911MOL0     N22902   9.740   6.360  -0.328 -0.3026 -0.3494  0.2763
  911MOL0     C22903  10.897   5.978   0.147 -0.4421 -1.1137 -0.3752
  911MOL0     C22904  11.023   5.954   0.210 -0.4082 -0.3734  0.5379
  911MOL0     C22905  11.383   5.848   0.468 -0.5701  0.0633  0.3671
  911MOL0     C22906  11.500   5.775   0.434 -0.4520  0.0465 -0.9634
  911MOL0     C22907  11.617   5.785   0.510  0.1694  0.8347 -0.2589
  911MOL0     C22908  11.621   5.886   0.613  0.8014  0.4624 -0.3267
  911MOL0     O22909  11.726   5.898   0.694  0.5680  0.1627 -0.2806
  911MOL0     C22910  11.857   5.850   0.643 -0.0974 -0.2463  0.2278
  911MOL0     C22911  11.970   5.877   0.742 -0.7012 -0.0422 -0.7480
  911MOL0     C22912  11.981   6.027   0.768  1.3683  0.0855  0.3528
  911MOL0     C22913  12.109   6.059   0.861 -0.0847  1.2120  0.9596
  911MOL0     C22914  12.229   6.048   0.775 -0.4548  0.2450 -0.0899
  911MOL0     C22915  12.338   6.057   0.722 -0.7885  0.1333  0.4363
  911MOL0     C22916  11.508   5.961   0.632  0.1236  0.3880 -0.0404
  911MOL0     C22917  11.393   5.935   0.578  0.8000  0.5354  0.6751
  911MOL0     H22918  10.927   5.873   0.519  1.7221  0.2897 -0.3495
  911MOL0     H22919  10.711   5.921   0.436 -0.9081  3.5498 -0.9611
  911MOL0     H22920  10.518   5.921   0.308 -1.3261  0.6664  0.7561
  911MOL0     H22921  10.522   6.098   0.317  0.4905  0.2075  0.0170
  911MOL0     H22922  10.443   5.958   0.061 -1.7827  0.9274 -1.6557
  911MOL0     H22923  10.325   5.978   0.200  0.0172  1.2786 -0.8419
  911MOL0     H22924  10.373   6.226   0.163  1.3409 -1.0239  1.2421
  911MOL0     H22925  10.463   6.190   0.024 -0.6357  0.3775 -0.2815
  911MOL0     H22926  10.224   6.051  -0.042 -2.7106 -0.0892 -0.1640
  911MOL0     H22927  10.176   6.155   0.090  0.9703  2.1872  0.7351
  911MOL0     H22928  10.280   6.352  -0.043  3.6460  0.4174 -3.4484
  911MOL0     H22929  10.291   6.236  -0.175  2.2122 -0.1211  2.0042
  911MOL0     H22930  10.058   6.193  -0.178  1.4561 -1.0511  0.7114
  911MOL0     H22931  10.042   6.281  -0.024  1.2775  2.9900  0.2434
  911MOL0     H22932  10.070   6.501  -0.126 -0.0106 -1.2310  1.5546
  911MOL0     H22933  10.176   6.445  -0.247  0.6185  1.7313  1.4491
  911MOL0     H22934   9.985   6.365  -0.395  1.4036 -4.0617  3.1939
  911MOL0     H22935   9.966   6.536  -0.346  1.0176 -0.2094 -1.8630
  911MOL0     H22936   9.836   6.477  -0.035 -1.3778 -1.3327  1.4666
  911MOL0     H22937   9.488   6.306  -0.032  0.6181 -0.0592 -0.6935
  911MOL0     H22938   9.596   6.372   0.077  1.4517  2.7700  1.1553
  911MOL0     H22939   9.552   6.609  -0.045 -2.4536  3.0167  0.6646
  911MOL0     H22940   9.439   6.552   0.073 -1.4963 -1.1435 -0.8991
  911MOL0     H22941   9.414   6.504  -0.232 -0.7729  2.2034 -0.7352
  911MOL0     H22942   9.347   6.632  -0.173 -0.7683 -0.5070 -1.6904
  911MOL0     H22943   9.271   6.351  -0.107  2.1972 -0.0049 -0.8332
  911MOL0     H22944   9.203   6.478  -0.214  2.1837  0.2429 -0.9233
  911MOL0     H22945   9.014   6.553   0.176  1.6083 -1.9064  0.3660
  911MOL0     H22946   8.678   6.521   0.220 -1.3944 -2.0043 -1.1293
  911MOL0     H22947   8.765   6.409   0.339  2.0160  2.6597  3.0934
  911MOL0     H22948   8.823   6.561   0.319 -2.5673 -0.0993 -0.5565
  911MOL0     H22949   8.465   6.115   0.226 -0.5297 -3.4992  2.0193
  911MOL0     H22950   8.239   6.012   0.236 -1.1018  1.7201  1.6270
  911MOL0     H22951   8.023   5.953   0.190 -1.2472 -3.3419  1.2103
  911MOL0     H22952   7.951   5.997   0.042  3.1084  2.9230  2.0883
  911MOL0     H22953   7.980   5.719   0.159 -1.5048 -1.8344 -0.8211
  911MOL0     H22954   7.836   5.820   0.165 -0.7628  0.8290 -1.0823
  911MOL0     H22955   7.822   5.654  -0.022 -0.8029 -0.1870 -0.7860
  911MOL0     H22956   7.967   5.704  -0.082  0.3001 -0.4193  1.1845
  911MOL0     H22957   7.838   5.937  -0.136 -1.4404  0.8568 -0.6165
  911MOL0     H22958   7.778   5.791  -0.220  1.0430  2.8415 -0.8751
  911MOL0     H22959   7.674   5.924   0.037  3.9586  2.4046 -3.1470
  911MOL0     H22960   7.614   5.756  -0.003 -0.1383  0.1432 -0.4649
  911MOL0     H22961   7.532   5.842  -0.221  0.1998 -1.9859  0.8697
  911MOL0     H22962   7.448   5.909  -0.079 -0.4429  0.0838 -2.2623
  911MOL0     H22963   7.657   6.034  -0.244  0.7743 -0.5456 -0.0285
  911MOL0     H22964   7.614   6.102  -0.087 -1.1952 -2.2025  1.8747
  911MOL0     H22965   7.514   6.227  -0.267  0.3436 -1.2720 -1.1147
  911MOL0     H22966   7.397   6.144  -0.168  0.0469  0.6429 -0.0046
  911MOL0     H22967   8.296   5.910  -0.189 -0.4410  1.1023 -0.5681
  911MOL0     H22968   8.502   6.015  -0.184 -0.4952  1.8004 -0.3410
  911MOL0     H22969   8.816   6.201  -0.113  1.4701 -1.8511  0.6625
  911MOL0     H22970   9.046   6.292  -0.152  0.8545 -0.2500  1.8827
  911MOL0     H22971  10.885   6.002   0.042 -0.9824 -1.9234 -0.5139
  911MOL0     H22972  11.112   5.958   0.149  0.9564 -3.2368  2.1444
  911MOL0     H22973  11.507   5.710   0.347 -0.4932 -1.5632  0.1911
  911MOL0     H22974  11.700   5.721   0.481  2.0371  2.4777  1.2698
  911MOL0     H22975  11.852   5.742   0.627  0.8973  0.0255 -2.4324
  911MOL0     H22976  11.875   5.900   0.548  2.9000  0.5806  1.1118
  911MOL0     H22977  12.061   5.850   0.687 -0.3117 -1.3582  0.4807
  911MOL0     H22978  11.955   5.830   0.840 -2.1889  1.5069 -0.1881
  911MOL0     H22979  11.898   6.068   0.826  2.4470 -0.0745  2.0921
  911MOL0     H22980  11.991   6.082   0.674 -0.4670 -0.1407  0.0016
  911MOL0     H22981  12.114   5.989   0.945  1.0386 -0.3916 -0.3882
  911MOL0     H22982  12.091   6.162   0.896 -1.5582  0.3110  3.0885
  911MOL0     H22983  12.429   6.069   0.667 -0.7267  1.6862  0.8427
  911MOL0     H22984  11.519   6.039   0.707 -2.0449  1.0947 -0.3900
  911MOL0     H22985  11.309   6.002   0.591 -0.4283 -1.1521  1.7945
  912MOL0     O22986   2.537   4.735   4.244  0.0229 -0.9981 -0.1096
  912MOL0     C22987   2.565   4.753   4.124  0.1093 -0.3384 -0.0683
  912MOL0     O22988   2.480   4.788   4.024 -0.4403  0.2034 -0.3259
  912MOL0     C22989   2.348   4.816   4.056 -0.0266  0.1596 -0.9783
  912MOL0     C22990   2.268   4.745   4.143 -0.0604 -0.8354 -0.3906
  912MOL0     C22991   2.132   4.772   4.149  0.1119  0.1061  0.2929
  912MOL0     C22992   2.073   4.894   4.109 -0.6564 -0.0147  0.1408
  912MOL0     O22993   1.942   4.921   4.150 -0.0458 -0.1295 -0.0624
  912MOL0     C22994   1.883   5.034   4.090 -0.3554  0.2119  0.1720
  912MOL0     C22995   1.736   5.047   4.110  0.4494 -0.0082 -0.0018
  912MOL0     C22996   1.679   4.908   4.086  1.7258 -0.2044  0.0072
  912MOL0     C22997   1.533   4.918   4.050  0.8560 -0.6323 -0.2280
  912MOL0     C22998   1.438   4.934   4.175 -0.3714  0.0068  0.0511
  912MOL0     C22999   1.332   5.048   4.144 -0.3950  0.2024 -0.8510
  912MOL0     C23000   1.199   5.037   4.218 -0.1085 -0.6630  0.7239
  912MOL0     C23001   1.110   5.162   4.199  0.6629  0.5024 -0.1445
  912MOL0     N23002   0.970   5.140   4.240 -0.2135  0.0616  0.5277
  912MOL0     C23003   0.849   5.180   4.172 -0.9112  0.1733 -0.7262
  912MOL0     C23004   0.755   5.150   4.264 -0.1569  0.6759 -0.2224
  912MOL0     C23005   0.608   5.144   4.238  0.1690 -0.2570  0.0162
  912MOL0     C23006   0.523   5.238   4.331 -0.4184 -0.2568  0.6561
  912MOL0     C23007   0.378   5.221   4.291 -0.6828  0.5174  0.3866
  912MOL0     C23008   0.305   5.294   4.396 -0.4830 -0.3779 -0.4574
  912MOL0     O23009   0.169   5.297   4.352  1.0998 -0.4454  1.0742
  912MOL0     C23010   0.069   5.366   4.418  0.2310  0.1826 -0.1818
  912MOL0     C23011  -0.032   5.425   4.341  0.7515  0.6619  0.8503
  912MOL0     C23012  -0.142   5.482   4.401  0.9276  0.9262  0.4951
  912MOL0     C23013  -0.249   5.530   4.311  0.1654 -0.2021 -0.4760
  912MOL0     C23014  -0.147   5.494   4.541  0.6641  1.0849  0.6782
  912MOL0     C23015  -0.261   5.554   4.625 -0.4273 -0.7313  0.7982
  912MOL0     O23016  -0.229   5.590   4.746  0.0480 -0.2347  0.0732
  912MOL0     C23017  -0.330   5.638   4.828  0.7777  0.1159 -0.7493
  912MOL0     C23018  -0.376   5.559   4.934  0.8803 -0.0529  0.2023
  912MOL0     C23019  -0.489   5.613   5.004 -0.0271  0.0487  0.7338
  912MOL0     C23020  -0.520   5.741   4.992  0.2303  0.3129 -0.5564
  912MOL0     O23021  -0.619   5.777   5.087  0.4379  0.2332  0.4415
  912MOL0     C23022  -0.642   5.916   5.105 -0.3027 -0.5209 -1.1883
  912MOL0     C23023  -0.553   5.978   5.217  0.3177  0.2189 -0.0798
  912MOL0     C23024  -0.539   6.133   5.205 -1.0391 -0.6632 -0.3354
  912MOL0     C23025  -0.472   6.181   5.078  0.2565 -0.7498 -0.1901
  912MOL0     C23026  -0.457   6.341   5.049  0.9601  0.1361 -0.0655
  912MOL0     C23027  -0.429   6.362   4.904  0.8131  0.0238  0.4839
  912MOL0     C23028  -0.426   6.514   4.872 -0.5779  0.4954  0.4613
  912MOL0     C23029  -0.375   6.531   4.723 -0.8193  1.6283 -0.0026
  912MOL0    Cl23030  -0.389   6.702   4.676  0.2658  0.1223  0.0692
  912MOL0     C23031  -0.454   5.827   4.902  1.0191 -0.1430 -1.2399
  912MOL0     C23032  -0.360   5.777   4.821 -0.7384  0.4809 -0.3597
  912MOL0     O23033  -0.367   5.568   4.572  0.2824 -0.2043 -0.4859
  912MOL0     C23034  -0.046   5.433   4.617  0.0091 -0.1865  0.1742
  912MOL0     C23035   0.066   5.372   4.556 -0.6565 -0.0874 -0.4620
  912MOL0     N23036   0.821   5.116   4.385  0.0737  0.2493 -0.6601
  912MOL0     N23037   0.949   5.099   4.364  0.2098  0.1624  0.8506
  912MOL0     C23038   2.154   4.971   4.021 -0.4934  0.0743  0.2970
  912MOL0     C23039   2.286   4.929   3.996  0.7424  0.1457  0.3257
  912MOL0     C23040   2.704   4.742   4.087 -0.5505 -0.3369  0.2449
  912MOL0     C23041   2.815   4.742   4.172  0.4615 -0.1479 -0.6261
  912MOL0     C23042   2.940   4.731   4.123 -0.8315 -1.0777 -0.6730
  912MOL0     C23043   2.958   4.725   3.983 -0.3504  0.9610 -0.3853
  912MOL0     O23044   3.084   4.705   3.944 -0.1420  0.4679 -0.2668
  912MOL0     C23045   3.110   4.654   3.818  0.4404  0.2048 -0.0292
  912MOL0     C23046   3.271   4.645   3.801  0.7071 -1.2554  0.6652
  912MOL0     C23047   3.324   4.516   3.868  0.8177 -0.3848  0.7897
  912MOL0     C23048   3.482   4.515   3.869 -0.2390 -1.1701 -1.0157
  912MOL0     C23049   3.554   4.427   3.967 -0.1935 -0.4187 -0.6003
  912MOL0     C23050   3.634   4.357   4.025 -0.8295 -0.5424  0.1376
  912MOL0     C23051   2.855   4.725   3.903 -0.1131  0.5582  0.4767
  912MOL0     C23052   2.725   4.738   3.950 -0.1924  0.0706  0.0640
  912MOL0     H23053   2.306   4.658   4.195  0.2510 -0.5631 -0.1584
  912MOL0     H23054   2.078   4.708   4.218  1.9593 -3.3465 -1.2129
  912MOL0     H23055   1.934   5.122   4.129  0.5137  0.7714 -2.0671
  912MOL0     H23056   1.886   5.026   3.981  0.0752 -0.6861  0.2389
  912MOL0     H23057   1.716   5.081   4.212 -1.4409  0.9937 -0.6584
  912MOL0     H23058   1.702   5.126   4.042 -0.9248  0.2922  0.9889
  912MOL0     H23059   1.738   4.860   4.008  0.9290 -0.1519 -0.6426
  912MOL0     H23060   1.688   4.851   4.179 -0.3164 -0.1584  0.2862
  912MOL0     H23061   1.520   4.995   3.974  0.3082 -0.5186 -0.0270
  912MOL0     H23062   1.513   4.819   4.007  1.4557 -1.3159  0.9941
  912MOL0     H23063   1.394   4.839   4.204 -0.9972 -0.0850 -1.1397
  912MOL0     H23064   1.495   4.985   4.254  1.5684  0.9092 -1.8255
  912MOL0     H23065   1.376   5.149   4.146  1.4418 -0.5145 -2.2554
  912MOL0     H23066   1.292   5.042   4.043 -1.9873 -1.5952 -0.1612
  912MOL0     H23067   1.147   4.949   4.180  1.3387 -1.5970  0.8503
  912MOL0     H23068   1.221   5.014   4.322 -0.6697 -0.9788  0.7750
  912MOL0     H23069   1.103   5.202   4.097 -0.8702  2.2221  0.5896
  912MOL0     H23070   1.142   5.245   4.262 -1.4090  1.0950  0.2155
  912MOL0     H23071   0.843   5.207   4.067 -2.1446  0.4419 -0.6060
  912MOL0     H23072   0.584   5.165   4.133  1.4881  1.5764  0.0279
  912MOL0     H23073   0.587   5.040   4.265 -2.9985  0.3097  0.2006
  912MOL0     H23074   0.568   5.337   4.321  2.6457 -1.6495 -0.2773
  912MOL0     H23075   0.545   5.196   4.430  1.7399 -2.7799 -0.7962
  912MOL0     H23076   0.355   5.115   4.281 -0.4046  0.5717 -0.9932
  912MOL0     H23077   0.357   5.259   4.190  0.4892 -0.4473 -0.2420
  912MOL0     H23078   0.349   5.393   4.413  0.2982 -0.5596 -1.3680
  912MOL0     H23079   0.320   5.246   4.493  0.7623 -0.3189 -0.6090
  912MOL0     H23080  -0.042   5.399   4.237 -0.1230 -1.4562  1.4092
  912MOL0     H23081  -0.337   5.471   4.338 -0.1418  0.6973  0.5224
  912MOL0     H23082  -0.274   5.634   4.330 -2.0438 -0.1918 -2.8805
  912MOL0     H23083  -0.241   5.507   4.204  0.7609 -2.1165 -0.0662
  912MOL0     H23084  -0.335   5.462   4.961  2.1811  0.3708 -0.1476
  912MOL0     H23085  -0.544   5.555   5.077 -0.2816 -2.8390 -1.6014
  912MOL0     H23086  -0.655   5.979   5.016  1.5594  0.3639 -0.8865
  912MOL0     H23087  -0.738   5.915   5.156  0.4380 -1.3356  0.2376
  912MOL0     H23088  -0.591   5.942   5.313  1.1332 -0.3441  0.0336
  912MOL0     H23089  -0.457   5.933   5.193  0.2192  0.0238 -0.1088
  912MOL0     H23090  -0.478   6.171   5.288 -0.6818 -1.5356 -0.1822
  912MOL0     H23091  -0.638   6.178   5.205 -0.5773  0.3721 -1.5062
  912MOL0     H23092  -0.371   6.141   5.065  0.2931 -0.5494 -0.5407
  912MOL0     H23093  -0.533   6.138   4.997  0.4806 -0.1242 -0.7032
  912MOL0     H23094  -0.377   6.383   5.111  0.6660  1.6027 -0.6277
  912MOL0     H23095  -0.555   6.387   5.064 -0.1697 -1.8380 -0.9606
  912MOL0     H23096  -0.340   6.312   4.866 -0.9634 -0.3687 -3.6753
  912MOL0     H23097  -0.509   6.312   4.849  0.8134 -4.9168  4.2700
  912MOL0     H23098  -0.359   6.577   4.931 -2.3120  0.6272  2.3700
  912MOL0     H23099  -0.529   6.548   4.877 -0.7368  0.2349 -0.8388
  912MOL0     H23100  -0.433   6.466   4.657  2.5574 -1.1224 -0.5472
  912MOL0     H23101  -0.270   6.504   4.707 -0.8635  0.8328  0.9834
  912MOL0     H23102  -0.476   5.933   4.911 -0.2290 -0.5032  0.2702
  912MOL0     H23103  -0.302   5.838   4.752  1.7462 -0.7057  0.5946
  912MOL0     H23104  -0.049   5.451   4.724 -4.0175 -1.5926  0.4582
  912MOL0     H23105   0.144   5.333   4.621 -1.3448  0.0673  0.4924
  912MOL0     H23106   2.109   5.055   3.969 -0.6050  1.0970  1.9481
  912MOL0     H23107   2.349   4.977   3.922  4.3372 -2.5400  1.3421
  912MOL0     H23108   2.811   4.742   4.281 -0.2526 -0.9561 -0.6360
  912MOL0     H23109   3.018   4.714   4.197  1.7614  1.4976 -2.5925
  912MOL0     H23110   3.077   4.550   3.806  2.1914 -0.3893  0.0856
  912MOL0     H23111   3.064   4.727   3.750 -2.5938  0.0287  1.6334
  912MOL0     H23112   3.314   4.736   3.843  1.9515 -0.7728 -1.5233
  912MOL0     H23113   3.298   4.634   3.696  1.1492  0.0253  0.6336
  912MOL0     H23114   3.284   4.429   3.815  1.3182  0.0121 -0.2440
  912MOL0     H23115   3.285   4.510   3.971  0.9437 -1.2497  0.7988
  912MOL0     H23116   3.508   4.616   3.899 -3.3773 -0.9184  1.4551
  912MOL0     H23117   3.515   4.487   3.768 -3.4353 -1.0138 -2.2537
  912MOL0     H23118   3.710   4.301   4.076  0.9514  0.3257 -1.4350
  912MOL0     H23119   2.868   4.704   3.797  2.9198  1.5118  0.5710
  912MOL0     H23120   2.648   4.747   3.874 -1.1790 -0.6913  0.9456
  913MOL0     O23121   9.902   9.766   9.310  0.2581  0.2038 -0.4707
  913MOL0     C23122   9.897   9.750   9.190 -0.1328 -0.2862 -0.1228
  913MOL0     O23123   9.812   9.666   9.116 -0.5327  0.5213 -0.4241
  913MOL0     C23124   9.723   9.587   9.182  0.4393 -0.0262  1.3097
  913MOL0     C23125   9.639   9.632   9.281 -0.4458 -0.0574  0.1806
  913MOL0     C23126   9.562   9.542   9.351 -0.2012 -0.0572 -0.0684
  913MOL0     C23127   9.572   9.404   9.325 -0.0007  1.5840  0.1933
  913MOL0     O23128   9.502   9.322   9.414 -0.8137 -0.0418  0.5118
  913MOL0     C23129   9.513   9.180   9.404 -0.8959 -0.2217 -0.3802
  913MOL0     C23130   9.418   9.113   9.493  0.2654 -0.2112 -0.2115
  913MOL0     C23131   9.276   9.141   9.462  0.1824  0.4359  0.2689
  913MOL0     C23132   9.193   9.033   9.522  0.4385  0.6146 -0.3859
  913MOL0     C23133   9.042   9.059   9.511  0.7381 -0.3400 -0.1076
  913MOL0     C23134   8.979   9.153   9.611 -0.2315  0.1775 -0.1099
  913MOL0     C23135   8.828   9.128   9.637 -0.2898 -0.1213 -0.1570
  913MOL0     C23136   8.740   9.107   9.520  0.3454 -0.0684  0.2087
  913MOL0     N23137   8.601   9.108   9.556  0.0521  0.8699  0.4921
  913MOL0     C23138   8.544   9.224   9.603  0.2974 -0.0809  0.1190
  913MOL0     C23139   8.412   9.198   9.576  0.0403  0.2973 -0.4253
  913MOL0     C23140   8.297   9.299   9.580  0.3228 -0.9770  0.3259
  913MOL0     C23141   8.164   9.242   9.520  0.0192  0.7760  0.2817
  913MOL0     C23142   8.039   9.324   9.561  0.2284 -0.0151  0.9388
  913MOL0     C23143   7.896   9.274   9.507 -0.0093  0.1128 -0.2490
  913MOL0     O23144   7.857   9.343   9.390  0.1921  0.5587 -0.0749
  913MOL0     C23145   7.731   9.322   9.342  0.5464 -1.1740  0.0207
  913MOL0     C23146   7.694   9.395   9.232  0.9027 -0.2946 -0.1619
  913MOL0     C23147   7.568   9.385   9.166 -0.1628  0.8214  0.6972
  913MOL0     C23148   7.561   9.466   9.033  0.0784 -0.2097 -0.8471
  913MOL0     C23149   7.477   9.294   9.229 -0.0170 -0.5564  1.1939
  913MOL0     C23150   7.340   9.264   9.175  0.0873  1.1902  0.6183
  913MOL0     O23151   7.256   9.199   9.263 -0.3372  0.3338 -0.1754
  913MOL0     C23152   7.126   9.160   9.218 -0.5303 -0.7515  0.0975
  913MOL0     C23153   7.099   9.021   9.219 -0.3347  0.3353  0.7058
  913MOL0     C23154   6.972   8.970   9.202 -0.0528  0.5453 -0.3975
  913MOL0     C23155   6.861   9.058   9.176 -0.8024 -0.6481  0.2297
  913MOL0     O23156   6.740   9.023   9.138  0.3519  0.4050 -0.0462
  913MOL0     C23157   6.700   8.898   9.193 -0.0911  0.1771  0.0672
  913MOL0     C23158   6.548   8.884   9.193  0.3933 -0.2139  0.0797
  913MOL0     C23159   6.479   8.867   9.053  0.0626 -0.1100 -0.7480
  913MOL0     C23160   6.337   8.804   9.069 -0.5266 -0.4124  0.3085
  913MOL0     C23161   6.278   8.768   8.930  0.1877  0.6455  0.3181
  913MOL0     C23162   6.124   8.743   8.948  0.2579  0.4256 -0.8259
  913MOL0     C23163   6.063   8.668   8.828 -0.1659  0.5782  0.5898
  913MOL0     C23164   5.953   8.746   8.764 -0.6152  0.6662 -0.2527
  913MOL0    Cl23165   5.916   8.694   8.587  0.6734  0.2555 -0.4158
  913MOL0     C23166   6.900   9.197   9.157  0.6735 -0.1936 -0.9211
  913MOL0     C23167   7.030   9.250   9.183  1.0974 -0.1029 -0.4962
  913MOL0     O23168   7.308   9.303   9.066  0.3191 -0.7459  0.3692
  913MOL0     C23169   7.512   9.213   9.337  0.2524 -0.2751  0.2083
  913MOL0     C23170   7.635   9.231   9.394  0.0326 -0.3117 -0.3188
  913MOL0     N23171   8.401   9.072   9.522 -0.6417 -0.5107 -0.5615
  913MOL0     N23172   8.510   9.012   9.510 -0.5531  0.3156 -1.3264
  913MOL0     C23173   9.633   9.364   9.208  0.2580  0.8410  0.2318
  913MOL0     C23174   9.720   9.451   9.137  0.1340 -0.3801 -0.8179
  913MOL0     C23175  10.002   9.803   9.106  0.1492 -0.3966 -0.8165
  913MOL0     C23176  10.028   9.754   8.973 -0.7556 -0.5653 -0.2665
  913MOL0     C23177  10.141   9.803   8.896  0.8063 -0.5949 -0.2570
  913MOL0     C23178  10.219   9.907   8.946 -0.2144  0.7342 -0.1216
  913MOL0     O23179  10.330   9.956   8.878 -0.0707  0.1014  0.3915
  913MOL0     C23180  10.427   9.856   8.847 -0.0452 -0.6805  0.2060
  913MOL0     C23181  10.538   9.841   8.946  0.3550  0.3135  0.3432
  913MOL0     C23182  10.647   9.955   8.949 -0.3005  0.4369 -0.3857
  913MOL0     C23183  10.581  10.088   8.983  0.1202  0.4431 -0.2643
  913MOL0     C23184  10.688  10.193   8.996 -0.4596  0.4295  0.5935
  913MOL0     C23185  10.765  10.288   9.010 -0.2416  0.0409 -0.4374
  913MOL0     C23186  10.202   9.947   9.076 -0.3953 -0.5968 -0.4621
  913MOL0     C23187  10.097   9.896   9.156  0.5506  0.7545  0.6272
  913MOL0     H23188   9.650   9.731   9.323 -4.3540  0.9912 -0.8488
  913MOL0     H23189   9.524   9.583   9.444  2.8192  0.0477  1.2377
  913MOL0     H23190   9.500   9.153   9.299 -1.0137 -0.7087 -0.2393
  913MOL0     H23191   9.615   9.147   9.427 -0.8701 -0.6138 -1.0328
  913MOL0     H23192   9.433   9.005   9.495 -4.8343 -1.1746  1.5690
  913MOL0     H23193   9.430   9.147   9.596 -2.8910 -0.4829  0.3560
  913MOL0     H23194   9.255   9.243   9.495  1.3069  1.3067 -1.5477
  913MOL0     H23195   9.268   9.134   9.353 -0.0899 -0.0241  0.3130
  913MOL0     H23196   9.218   8.938   9.475 -1.1194  0.3228 -0.6854
  913MOL0     H23197   9.214   9.032   9.629  2.1707 -0.8234 -0.6979
  913MOL0     H23198   9.019   9.101   9.412 -0.4403 -0.8948 -0.0789
  913MOL0     H23199   8.987   8.966   9.522  1.0144 -0.7180 -1.6056
  913MOL0     H23200   9.034   9.145   9.705  0.1157  0.7682 -0.2577
  913MOL0     H23201   8.992   9.253   9.569 -1.3355 -0.1744 -1.3821
  913MOL0     H23202   8.827   9.033   9.691  1.7016  0.4279  0.9526
  913MOL0     H23203   8.796   9.212   9.700 -1.8744 -2.1408  1.8849
  913MOL0     H23204   8.760   9.011   9.471  2.1934 -0.4958  1.6743
  913MOL0     H23205   8.756   9.187   9.447  0.5088 -2.1259 -2.1362
  913MOL0     H23206   8.587   9.314   9.647 -3.1742  1.9823 -0.3333
  913MOL0     H23207   8.286   9.333   9.683  1.1011  0.3374 -0.0111
  913MOL0     H23208   8.325   9.386   9.521  2.2485 -1.4025  0.5407
  913MOL0     H23209   8.163   9.140   9.559 -2.5011  0.2504 -0.9802
  913MOL0     H23210   8.193   9.247   9.415  2.8125  0.9149  0.9833
  913MOL0     H23211   8.059   9.421   9.515  0.9899 -0.1213  1.0413
  913MOL0     H23212   8.031   9.345   9.668  6.1890  1.1476  1.4760
  913MOL0     H23213   7.817   9.302   9.578  0.8442  2.0808  0.0106
  913MOL0     H23214   7.895   9.167   9.488 -2.9473 -0.0492  0.3880
  913MOL0     H23215   7.764   9.468   9.193  0.3204  1.9141  2.5994
  913MOL0     H23216   7.460   9.486   8.996 -0.1713 -1.6275 -0.9825
  913MOL0     H23217   7.595   9.566   9.063 -0.4697 -0.4505  0.6195
  913MOL0     H23218   7.621   9.426   8.951  2.0714  1.3561 -0.2472
  913MOL0     H23219   7.187   8.959   9.234 -1.3980 -0.6550  3.3840
  913MOL0     H23220   6.962   8.865   9.226 -1.6221  0.3980 -1.5015
  913MOL0     H23221   6.735   8.811   9.136  2.9228  1.0436  0.4699
  913MOL0     H23222   6.735   8.886   9.296 -1.5964  2.5318  0.9260
  913MOL0     H23223   6.523   8.797   9.254 -1.1692 -2.0290 -2.8784
  913MOL0     H23224   6.502   8.968   9.245 -3.8867 -3.7982  2.7793
  913MOL0     H23225   6.553   8.814   8.991  0.1891 -1.1838  0.2955
  913MOL0     H23226   6.477   8.968   9.010  1.8007  0.7787  1.1161
  913MOL0     H23227   6.347   8.713   9.128 -1.2782  1.2921  3.2438
  913MOL0     H23228   6.275   8.881   9.115 -0.5694  0.2423 -0.7830
  913MOL0     H23229   6.318   8.672   8.896 -0.5731  0.7037 -0.7974
  913MOL0     H23230   6.294   8.850   8.860 -2.3787  1.2479  0.3259
  913MOL0     H23231   6.100   8.682   9.036  2.9560 -0.5024 -0.6413
  913MOL0     H23232   6.069   8.836   8.961 -0.9174 -0.2772 -0.5727
  913MOL0     H23233   6.026   8.572   8.863  0.2891  0.4840  0.8266
  913MOL0     H23234   6.141   8.646   8.755  0.3511  1.2132  0.9383
  913MOL0     H23235   5.988   8.849   8.751 -0.3425  0.6363  0.2350
  913MOL0     H23236   5.866   8.748   8.829  1.0742 -0.0935  2.1867
  913MOL0     H23237   6.815   9.255   9.124  1.3556  1.1940 -0.2974
  913MOL0     H23238   7.038   9.358   9.177 -1.4178  0.3221  1.8738
  913MOL0     H23239   7.452   9.138   9.387  1.7402 -3.2647 -2.1324
  913MOL0     H23240   7.652   9.163   9.476  0.0951 -1.3814 -1.1906
  913MOL0     H23241   9.617   9.260   9.182  3.8287 -0.5612  2.8123
  913MOL0     H23242   9.776   9.424   9.049 -0.8322 -0.2974 -1.4757
  913MOL0     H23243   9.953   9.697   8.918 -0.4423 -0.8198 -0.4332
  913MOL0     H23244  10.140   9.777   8.791 -1.8354  1.0670 -0.7543
  913MOL0     H23245  10.387   9.758   8.818  0.1919 -0.0680 -2.4543
  913MOL0     H23246  10.466   9.886   8.749  2.0867 -1.4883  0.7420
  913MOL0     H23247  10.595   9.750   8.927  1.1814  0.7344  0.7559
  913MOL0     H23248  10.489   9.817   9.041  0.0199  1.0324  0.3634
  913MOL0     H23249  10.700   9.970   8.854  0.1820  0.1787 -0.1532
  913MOL0     H23250  10.727   9.935   9.020  0.5230 -0.2074 -1.4702
  913MOL0     H23251  10.537  10.064   9.080  0.7274 -0.1520 -0.1322
  913MOL0     H23252  10.502  10.107   8.909 -0.2794 -1.3659 -0.3484
  913MOL0     H23253  10.815  10.379   9.040 -1.4957 -0.0101  2.0863
  913MOL0     H23254  10.273  10.016   9.122  0.7275 -1.9204 -0.1545
  913MOL0     H23255  10.086   9.918   9.262 -1.4882  0.6870  0.4679
  914MOL0     O23256   3.067   9.218   6.582 -0.0386  0.9110  0.0692
  914MOL0     C23257   3.007   9.217   6.689  0.2673  0.0751  0.0828
  914MOL0     O23258   3.063   9.197   6.807 -0.6925 -0.3853 -0.1990
  914MOL0     C23259   3.198   9.168   6.826 -0.7677 -0.0600  0.6301
  914MOL0     C23260   3.226   9.070   6.920 -0.0549  0.3160  0.6676
  914MOL0     C23261   3.358   9.036   6.950 -0.0778 -0.3571  0.2278
  914MOL0     C23262   3.469   9.101   6.893  1.1318  0.4758  0.1311
  914MOL0     O23263   3.594   9.063   6.931 -0.1703 -0.3214 -0.5461
  914MOL0     C23264   3.695   9.053   6.830  0.5550  0.0021 -0.0301
  914MOL0     C23265   3.824   8.970   6.857 -0.5431  0.4717  0.1351
  914MOL0     C23266   3.914   9.045   6.956 -0.4319 -0.0238 -0.6520
  914MOL0     C23267   4.054   8.989   6.999 -0.0113 -1.0765 -0.8811
  914MOL0     C23268   4.138   9.114   7.035  0.4106 -0.8352  0.7928
  914MOL0     C23269   4.271   9.076   7.100 -0.9331  0.0086 -0.5765
  914MOL0     C23270   4.361   8.972   7.027 -0.5064  0.2397  0.0052
  914MOL0     C23271   4.505   8.970   7.067  0.1185  0.1871 -0.4126
  914MOL0     N23272   4.527   8.935   7.207 -0.5346 -0.3639 -0.4931
  914MOL0     C23273   4.473   8.822   7.258 -0.3895  0.1380  0.2867
  914MOL0     C23274   4.487   8.834   7.395  0.0812  0.5080  0.1009
  914MOL0     C23275   4.433   8.744   7.488  0.3867 -0.6721 -0.7480
  914MOL0     C23276   4.279   8.747   7.500  0.1685 -0.4063  0.4561
  914MOL0     C23277   4.216   8.635   7.583 -0.4226 -0.1411 -0.6302
  914MOL0     C23278   4.066   8.637   7.595 -0.5782 -0.9632  0.3976
  914MOL0     O23279   4.007   8.639   7.461 -0.3647  0.1822  0.3280
  914MOL0     C23280   3.869   8.674   7.450 -0.2675  0.9465 -0.5943
  914MOL0     C23281   3.834   8.790   7.381 -0.6730  0.1591 -0.5496
  914MOL0     C23282   3.703   8.829   7.354  0.2265 -0.3961  0.2674
  914MOL0     C23283   3.681   8.948   7.273  0.6147  0.0257  0.3663
  914MOL0     C23284   3.597   8.755   7.415 -0.4584  0.6096  0.1182
  914MOL0     C23285   3.454   8.786   7.405  0.1977  0.4236  0.6497
  914MOL0     O23286   3.361   8.708   7.474  0.3270  0.0507  0.1940
  914MOL0     C23287   3.232   8.760   7.483 -1.3364 -0.0158 -0.1593
  914MOL0     C23288   3.215   8.885   7.529  1.2268 -0.3883  0.2085
  914MOL0     C23289   3.080   8.935   7.538 -0.8381 -0.1737 -0.6514
  914MOL0     C23290   2.973   8.857   7.506 -0.2550 -0.2066 -0.3175
  914MOL0     O23291   2.842   8.902   7.510  0.5296  0.3584  0.8137
  914MOL0     C23292   2.798   9.035   7.562 -0.8041 -0.3888  0.6217
  914MOL0     C23293   2.795   9.031   7.717 -0.5654  0.2460  0.2015
  914MOL0     C23294   2.708   8.910   7.765  0.2026  0.1276 -0.2309
  914MOL0     C23295   2.681   8.929   7.919  0.2687 -0.0302  0.7997
  914MOL0     C23296   2.594   8.813   7.971  0.0169  0.5061  1.2847
  914MOL0     C23297   2.446   8.848   7.948  0.5967  0.0347  0.6034
  914MOL0     C23298   2.356   8.747   8.016  0.2941  0.4882  0.0209
  914MOL0     C23299   2.211   8.802   7.998  0.6181 -0.1878  0.4953
  914MOL0    Cl23300   2.088   8.669   8.008  0.0339 -0.2052  0.0619
  914MOL0     C23301   3.000   8.732   7.450  0.2043 -0.6148 -0.1074
  914MOL0     C23302   3.128   8.682   7.448  0.1468  0.6561  0.2927
  914MOL0     O23303   3.426   8.873   7.331 -1.0523 -0.5211 -0.3251
  914MOL0     C23304   3.636   8.637   7.496 -0.6907  0.1042  0.5055
  914MOL0     C23305   3.765   8.600   7.511  0.6205  0.8452 -0.7644
  914MOL0     N23306   4.547   8.954   7.419  0.0706 -0.8049  0.4527
  914MOL0     N23307   4.570   9.014   7.310  0.1616  0.2255  0.0633
  914MOL0     C23308   3.443   9.199   6.794 -0.3362 -0.6746  0.2732
  914MOL0     C23309   3.307   9.239   6.765 -0.2249 -0.0180  0.0814
  914MOL0     C23310   2.860   9.231   6.705 -0.3011  0.1516 -0.2770
  914MOL0     C23311   2.807   9.288   6.825  0.2038  0.5832  0.3159
  914MOL0     C23312   2.662   9.307   6.833  0.3503  0.2063 -1.2154
  914MOL0     C23313   2.573   9.269   6.731 -0.1809 -0.0564  0.7618
  914MOL0     O23314   2.441   9.285   6.758  0.1345  0.0625  0.5808
  914MOL0     C23315   2.347   9.195   6.689  0.3329 -0.4672  0.2835
  914MOL0     C23316   2.207   9.214   6.729 -0.1700 -0.6373  0.5907
  914MOL0     C23317   2.188   9.181   6.878  0.5277  0.9205  0.0208
  914MOL0     C23318   2.034   9.167   6.907  0.2702 -0.5859  0.1200
  914MOL0     C23319   2.008   9.194   7.050  0.6899  0.1249  0.2539
  914MOL0     C23320   1.997   9.233   7.162 -0.3112  0.3293  0.0969
  914MOL0     C23321   2.631   9.225   6.609 -0.1343 -0.4146 -0.5299
  914MOL0     C23322   2.766   9.199   6.598  0.6230  0.2779 -0.0855
  914MOL0     H23323   3.145   9.007   6.956 -0.1156  1.2811  2.3509
  914MOL0     H23324   3.380   8.962   7.027  1.5258 -1.4684 -1.2296
  914MOL0     H23325   3.644   9.002   6.748 -0.1083 -1.7445  1.4018
  914MOL0     H23326   3.727   9.155   6.804 -2.1379  1.3059  1.4002
  914MOL0     H23327   3.802   8.873   6.902 -2.0833  0.6164 -0.2502
  914MOL0     H23328   3.883   8.960   6.765  3.1328  2.3492  2.0716
  914MOL0     H23329   3.933   9.136   6.898  0.7686 -0.0807 -0.3878
  914MOL0     H23330   3.857   9.073   7.045  1.4550  2.1190 -0.0071
  914MOL0     H23331   4.037   8.924   7.086 -1.7955  2.1348  1.4310
  914MOL0     H23332   4.102   8.936   6.917  0.1546  2.2629 -3.1290
  914MOL0     H23333   4.162   9.164   6.941  0.8331 -1.2808  0.6574
  914MOL0     H23334   4.076   9.185   7.090 -2.1404  0.3730 -3.1889
  914MOL0     H23335   4.332   9.164   7.123 -1.8034  0.5937 -0.4976
  914MOL0     H23336   4.239   9.029   7.193 -1.6152  0.6712 -0.4710
  914MOL0     H23337   4.316   8.873   7.042 -1.0168 -0.0369 -2.7598
  914MOL0     H23338   4.358   8.996   6.921  2.4998  1.7508  0.1691
  914MOL0     H23339   4.537   9.075   7.065 -0.9396  0.5611  0.7864
  914MOL0     H23340   4.569   8.911   7.001  1.9429  0.9200  0.6130
  914MOL0     H23341   4.422   8.743   7.204  2.0363  0.7743 -3.2789
  914MOL0     H23342   4.464   8.644   7.458  1.1029  0.0702 -2.6106
  914MOL0     H23343   4.479   8.765   7.585 -0.3084 -2.8392  0.1020
  914MOL0     H23344   4.249   8.729   7.396  1.0100  2.0881 -0.2730
  914MOL0     H23345   4.248   8.844   7.539 -0.1422  0.2668 -1.3369
  914MOL0     H23346   4.252   8.648   7.685  1.4615 -0.1291 -1.2568
  914MOL0     H23347   4.236   8.531   7.555  0.4736 -1.5088  4.1585
  914MOL0     H23348   4.045   8.728   7.652  0.4074  0.6503 -1.6468
  914MOL0     H23349   4.039   8.547   7.650 -2.5161 -0.7240 -0.0583
  914MOL0     H23350   3.919   8.848   7.346 -0.8711  1.6787  1.3082
  914MOL0     H23351   3.622   9.028   7.319 -0.7646 -0.6321 -0.1968
  914MOL0     H23352   3.781   8.983   7.247  0.6991 -0.1909  0.3956
  914MOL0     H23353   3.631   8.915   7.181 -1.3699 -1.6994  1.9746
  914MOL0     H23354   3.299   8.948   7.555 -1.4161  2.5551  2.4983
  914MOL0     H23355   3.064   9.030   7.588 -0.1056  0.2868 -1.2756
  914MOL0     H23356   2.858   9.113   7.514 -2.2923  1.6083  1.8588
  914MOL0     H23357   2.694   9.050   7.532 -1.0049  0.7047  1.7762
  914MOL0     H23358   2.889   9.033   7.773  0.4451 -0.9128 -1.3803
  914MOL0     H23359   2.735   9.120   7.739 -0.9493  0.3000 -0.9579
  914MOL0     H23360   2.764   8.817   7.751  0.6374 -0.1604  2.6795
  914MOL0     H23361   2.609   8.920   7.721 -0.4640 -1.5906  0.7723
  914MOL0     H23362   2.774   8.942   7.975  1.2496  0.5143 -0.8876
  914MOL0     H23363   2.631   9.024   7.938  0.0358 -0.1298  0.6818
  914MOL0     H23364   2.616   8.801   8.077 -3.7927 -1.8454  1.9824
  914MOL0     H23365   2.619   8.720   7.919 -3.0175  0.0454  0.4621
  914MOL0     H23366   2.426   8.946   7.993  1.6909 -0.5172  2.4442
  914MOL0     H23367   2.421   8.858   7.842  1.7644 -3.5917 -0.1747
  914MOL0     H23368   2.391   8.740   8.119  3.2455 -1.0225 -0.9601
  914MOL0     H23369   2.365   8.650   7.965  1.3615 -0.5936  2.1285
  914MOL0     H23370   2.192   8.832   7.895  0.1306  0.3652  0.7415
  914MOL0     H23371   2.193   8.872   8.080  1.7883 -1.5689  1.9982
  914MOL0     H23372   2.918   8.667   7.420 -0.6268  0.5387 -0.3756
  914MOL0     H23373   3.160   8.580   7.426  3.0158  1.7350 -0.9319
  914MOL0     H23374   3.555   8.579   7.540  1.7743 -2.2673  2.2377
  914MOL0     H23375   3.791   8.509   7.564  0.1811  1.8572  1.3124
  914MOL0     H23376   3.527   9.257   6.755  1.6167 -2.5657  1.4926
  914MOL0     H23377   3.287   9.309   6.684 -3.3116  0.6509  1.2856
  914MOL0     H23378   2.868   9.330   6.905  2.5672 -1.8815 -0.0586
  914MOL0     H23379   2.628   9.371   6.914 -0.7565 -2.1679  0.2961
  914MOL0     H23380   2.351   9.205   6.581  1.1259  0.0416  0.3554
  914MOL0     H23381   2.359   9.090   6.717 -1.5816 -0.5106  1.0744
  914MOL0     H23382   2.147   9.146   6.669  1.1550 -1.9634  0.7014
  914MOL0     H23383   2.169   9.316   6.714 -0.1329 -0.5399  1.1208
  914MOL0     H23384   2.233   9.261   6.939  0.2561  0.0234  1.4397
  914MOL0     H23385   2.236   9.088   6.909 -2.1737 -0.7037 -0.4291
  914MOL0     H23386   2.001   9.071   6.865  2.3860 -0.5114 -1.9192
  914MOL0     H23387   1.978   9.248   6.859  1.7756 -0.4876 -1.5877
  914MOL0     H23388   1.997   9.260   7.266  0.7159  0.2550  0.1314
  914MOL0     H23389   2.570   9.206   6.521 -1.5466  0.3647  0.2483
  914MOL0     H23390   2.797   9.175   6.496  0.4849 -0.8958  0.1367
  915MOL0     O23391   6.114   4.480   4.835  0.2079 -0.4395 -0.6124
  915MOL0     C23392   6.180   4.380   4.858  0.7354 -0.5341  0.0367
  915MOL0     O23393   6.132   4.279   4.924 -0.2271  1.1815 -0.0827
  915MOL0     C23394   6.013   4.292   4.996 -0.7674 -0.2754 -0.1997
  915MOL0     C23395   5.896   4.346   4.946 -0.1577 -0.3518  0.6564
  915MOL0     C23396   5.782   4.346   5.029  0.5880 -0.6315  0.1162
  915MOL0     C23397   5.772   4.278   5.159 -0.4180  0.0386 -0.1384
  915MOL0     O23398   5.663   4.267   5.244  0.3211  0.2479  0.2841
  915MOL0     C23399   5.538   4.335   5.215 -0.2344 -0.7539  0.7192
  915MOL0     C23400   5.447   4.309   5.328 -0.1499  0.3608 -0.4456
  915MOL0     C23401   5.316   4.382   5.330 -0.0682  0.3386 -0.0245
  915MOL0     C23402   5.218   4.334   5.219 -0.8316 -0.1161 -0.5284
  915MOL0     C23403   5.070   4.383   5.227 -1.3386 -0.8093  0.2197
  915MOL0     C23404   5.005   4.381   5.361  0.3447  0.4163  0.0976
  915MOL0     C23405   4.856   4.419   5.354 -0.3301 -0.9156 -0.4983
  915MOL0     C23406   4.787   4.402   5.487  0.9403  0.4667  0.2909
  915MOL0     N23407   4.647   4.467   5.471 -0.2306  0.3294  0.1795
  915MOL0     C23408   4.600   4.596   5.478  0.6000 -0.9457  0.2458
  915MOL0     C23409   4.468   4.588   5.439 -0.6184  0.0351 -0.2231
  915MOL0     C23410   4.369   4.703   5.451  0.3256  0.4359  0.2801
  915MOL0     C23411   4.391   4.830   5.372 -0.2792  0.0039 -0.9203
  915MOL0     C23412   4.287   4.946   5.418  0.2758  0.3231  0.8051
  915MOL0     C23413   4.308   5.057   5.316  0.2726  0.0195  0.3405
  915MOL0     O23414   4.225   5.166   5.361  0.1578 -0.1307 -0.4323
  915MOL0     C23415   4.091   5.169   5.325 -1.0677 -1.6541 -1.1979
  915MOL0     C23416   4.021   5.110   5.218  0.4407  0.2319 -0.2717
  915MOL0     C23417   3.884   5.142   5.195  0.5256  0.0468  0.4431
  915MOL0     C23418   3.817   5.080   5.076 -0.2587  0.2599 -0.1146
  915MOL0     C23419   3.814   5.235   5.279 -0.8805  0.8069  0.2410
  915MOL0     C23420   3.671   5.266   5.276 -1.0814 -0.2867  1.1663
  915MOL0     O23421   3.644   5.386   5.345 -0.5044  1.1366 -0.6139
  915MOL0     C23422   3.513   5.423   5.356  0.2747  0.5927  0.9368
  915MOL0     C23423   3.434   5.448   5.245  1.0231 -0.7283  0.6684
  915MOL0     C23424   3.301   5.493   5.263  0.4414 -0.7200 -0.3647
  915MOL0     C23425   3.264   5.534   5.393 -0.4508  0.9910  0.7296
  915MOL0     O23426   3.152   5.607   5.409 -0.5191 -0.1069  1.0322
  915MOL0     C23427   3.083   5.588   5.529 -0.1195 -0.1142 -0.8247
  915MOL0     C23428   2.953   5.662   5.509  0.1787  0.4027 -0.2173
  915MOL0     C23429   2.862   5.637   5.630 -0.9428 -0.9434 -0.4468
  915MOL0     C23430   2.730   5.700   5.606  0.4243  0.3082 -0.6290
  915MOL0     C23431   2.636   5.701   5.733 -0.5124 -0.0900  0.1286
  915MOL0     C23432   2.503   5.760   5.705  0.8557 -0.0005  0.1043
  915MOL0     C23433   2.425   5.656   5.624 -0.7716  0.0457  0.1691
  915MOL0     C23434   2.279   5.662   5.627 -0.5131  0.0318 -0.4531
  915MOL0    Cl23435   2.215   5.826   5.634 -0.2497 -0.1231 -0.2210
  915MOL0     C23436   3.362   5.525   5.498  0.3350 -0.0098  0.1413
  915MOL0     C23437   3.478   5.460   5.483  0.1415  0.1336  0.7788
  915MOL0     O23438   3.592   5.194   5.226 -0.0243 -0.3995  0.2070
  915MOL0     C23439   3.890   5.300   5.377 -0.8090  0.8312  0.2509
  915MOL0     C23440   4.026   5.265   5.402  0.5325 -0.7166  0.0883
  915MOL0     N23441   4.436   4.458   5.419  0.3211 -0.6543  0.8888
  915MOL0     N23442   4.539   4.391   5.428 -0.2299  0.7296  0.0620
  915MOL0     C23443   5.891   4.232   5.207 -0.5567 -0.4237  0.3970
  915MOL0     C23444   6.011   4.239   5.134  0.7017  0.6224  1.2712
  915MOL0     C23445   6.326   4.372   4.828  0.7509 -0.2324  0.7080
  915MOL0     C23446   6.413   4.281   4.879 -0.3955  0.9402  0.1002
  915MOL0     C23447   6.553   4.272   4.842 -0.4192 -0.0857  0.1563
  915MOL0     C23448   6.598   4.366   4.755 -1.0208 -1.2544  0.5039
  915MOL0     O23449   6.730   4.363   4.718  0.2848  0.1977 -0.7886
  915MOL0     C23450   6.764   4.398   4.575  0.3526 -0.2235 -0.3777
  915MOL0     C23451   6.911   4.384   4.550  0.3375 -0.1706 -0.5990
  915MOL0     C23452   6.993   4.468   4.650 -0.3216 -0.0250  0.9720
  915MOL0     C23453   7.111   4.542   4.577 -0.8284  0.2035 -0.0375
  915MOL0     C23454   7.229   4.452   4.554  0.6667 -0.6072  1.1157
  915MOL0     C23455   7.319   4.379   4.522 -0.3919 -0.3495  0.0163
  915MOL0     C23456   6.516   4.468   4.706 -0.7414 -0.0067 -0.2412
  915MOL0     C23457   6.381   4.472   4.743 -0.4786 -0.5108 -0.2960
  915MOL0     H23458   5.885   4.383   4.845  0.2483  1.2979  1.1737
  915MOL0     H23459   5.695   4.395   4.985  1.1179  0.7028  0.5112
  915MOL0     H23460   5.553   4.443   5.218  1.2588 -0.9231  0.2231
  915MOL0     H23461   5.488   4.304   5.123 -1.5081  1.7869  0.4882
  915MOL0     H23462   5.446   4.201   5.342  2.7840  0.3656  0.4204
  915MOL0     H23463   5.492   4.341   5.422 -2.6972  1.3945  0.5233
  915MOL0     H23464   5.262   4.354   5.420 -1.3185 -2.9855 -1.6305
  915MOL0     H23465   5.338   4.488   5.318  1.5860  0.1864  1.3403
  915MOL0     H23466   5.258   4.358   5.119 -0.0915  0.1822 -0.1733
  915MOL0     H23467   5.220   4.225   5.230  3.1879 -0.2920 -1.3366
  915MOL0     H23468   5.076   4.487   5.194  1.4984 -1.1264 -0.4801
  915MOL0     H23469   5.007   4.321   5.163 -0.9840 -1.4485  0.4862
  915MOL0     H23470   5.002   4.274   5.385  0.2950  1.0995  3.5918
  915MOL0     H23471   5.072   4.435   5.428  1.1838 -0.1637 -0.2533
  915MOL0     H23472   4.858   4.527   5.337  1.1388 -0.8417  0.0416
  915MOL0     H23473   4.796   4.374   5.274 -1.2378 -2.0939  0.8022
  915MOL0     H23474   4.843   4.456   5.564 -0.6156 -0.5117  2.1740
  915MOL0     H23475   4.786   4.296   5.515  2.0269 -0.5061 -2.9243
  915MOL0     H23476   4.653   4.690   5.491  2.0326 -1.5252 -1.1529
  915MOL0     H23477   4.273   4.666   5.413  0.3690 -0.4934  1.0398
  915MOL0     H23478   4.357   4.723   5.557  2.4943 -1.9469  1.0855
  915MOL0     H23479   4.383   4.806   5.265  1.0722 -1.9340 -0.6209
  915MOL0     H23480   4.490   4.867   5.401 -0.3617 -1.6445  1.8272
  915MOL0     H23481   4.310   4.987   5.517  0.1658 -0.4142  1.1386
  915MOL0     H23482   4.187   4.903   5.422 -0.3660  1.8084  1.7738
  915MOL0     H23483   4.290   5.013   5.218  0.8139 -1.0947  0.7323
  915MOL0     H23484   4.412   5.088   5.306  1.0353 -2.2341  0.7944
  915MOL0     H23485   4.079   5.041   5.158  3.6607  1.9830  0.5804
  915MOL0     H23486   3.743   5.142   5.025  0.2943  0.6355 -0.4635
  915MOL0     H23487   3.899   5.053   5.008  0.4630  1.2587  0.3333
  915MOL0     H23488   3.767   4.993   5.121 -3.4146  2.1351  0.2643
  915MOL0     H23489   3.477   5.436   5.146  0.1927 -1.3326  0.3660
  915MOL0     H23490   3.221   5.513   5.193 -2.1711  1.5490  2.9545
  915MOL0     H23491   3.078   5.483   5.559  0.9081 -1.0765 -3.7449
  915MOL0     H23492   3.128   5.643   5.613 -1.5367 -1.8313  1.1829
  915MOL0     H23493   2.966   5.764   5.472  0.7504  0.7262  0.8615
  915MOL0     H23494   2.900   5.610   5.428 -1.9269 -1.4570  2.1669
  915MOL0     H23495   2.905   5.669   5.725 -1.5986  0.5065 -0.6185
  915MOL0     H23496   2.852   5.528   5.633  1.6190 -1.2396 -0.4739
  915MOL0     H23497   2.736   5.806   5.584 -0.7642  1.0099  1.9603
  915MOL0     H23498   2.683   5.644   5.524 -0.2745 -0.3616  0.2028
  915MOL0     H23499   2.679   5.757   5.817 -2.4644  2.8241 -0.6972
  915MOL0     H23500   2.629   5.596   5.766  1.9771 -0.3716 -0.0208
  915MOL0     H23501   2.463   5.785   5.803 -1.5544  1.3997 -1.1341
  915MOL0     H23502   2.507   5.852   5.647  0.9373  0.0307  0.1590
  915MOL0     H23503   2.457   5.553   5.642 -0.2614 -0.3652 -2.5756
  915MOL0     H23504   2.456   5.679   5.522 -0.0557  0.2427  0.4264
  915MOL0     H23505   2.242   5.620   5.721  0.6473  1.5563  0.7209
  915MOL0     H23506   2.241   5.602   5.543 -0.5465  0.9933 -1.1318
  915MOL0     H23507   3.347   5.577   5.592 -0.1094 -1.5399  0.9396
  915MOL0     H23508   3.545   5.448   5.568  1.5811 -3.5754 -0.6729
  915MOL0     H23509   3.848   5.371   5.447  1.5429 -0.4140  3.1258
  915MOL0     H23510   4.078   5.317   5.481 -0.8563  1.2000 -0.1848
  915MOL0     H23511   5.899   4.206   5.313  1.2375 -2.0777 -0.0755
  915MOL0     H23512   6.099   4.192   5.177  1.8675  0.0511 -1.5104
  915MOL0     H23513   6.386   4.192   4.936  1.2760 -0.4593 -1.1661
  915MOL0     H23514   6.609   4.186   4.879 -1.8648 -1.1663 -0.0333
  915MOL0     H23515   6.729   4.310   4.520  2.9133 -2.5455  1.4520
  915MOL0     H23516   6.732   4.492   4.529 -3.6607 -0.9453  0.5676
  915MOL0     H23517   6.918   4.426   4.449  0.8162  1.6449  0.1615
  915MOL0     H23518   6.939   4.278   4.548  1.4763  0.1143 -1.9784
  915MOL0     H23519   7.038   4.397   4.720  0.7602 -0.9229 -0.5835
  915MOL0     H23520   6.924   4.542   4.692  0.5913  1.2985  0.2263
  915MOL0     H23521   7.143   4.631   4.632 -2.5579 -0.1503  1.6386
  915MOL0     H23522   7.061   4.586   4.490 -1.2217 -0.7912 -0.3311
  915MOL0     H23523   7.407   4.330   4.485 -0.1584  0.6699 -0.8081
  915MOL0     H23524   6.555   4.544   4.638 -1.8878  1.0981  0.3004
  915MOL0     H23525   6.326   4.560   4.711  3.0297  0.4136 -4.8659
  916MOL0     O23526   6.684   7.471   5.882  0.8197 -0.4026 -0.6093
  916MOL0     C23527   6.729   7.372   5.831 -0.2175 -0.0599  0.0965
  916MOL0     O23528   6.657   7.256   5.792 -0.0887 -0.5505 -0.9117
  916MOL0     C23529   6.528   7.258   5.821  0.1629  0.3546  0.7317
  916MOL0     C23530   6.479   7.190   5.933 -0.3027 -1.4133  0.2466
  916MOL0     C23531   6.344   7.189   5.952 -0.1609  0.9572 -0.3057
  916MOL0     C23532   6.253   7.250   5.866  0.0794  0.0590 -0.0087
  916MOL0     O23533   6.114   7.239   5.890 -0.2665  0.2970 -0.4736
  916MOL0     C23534   6.018   7.294   5.794  0.5919  0.7031 -0.1311
  916MOL0     C23535   6.010   7.210   5.658 -0.3205  0.4219  0.0236
  916MOL0     C23536   5.888   7.252   5.568 -0.6907  0.4702 -0.9640
  916MOL0     C23537   5.908   7.383   5.490  0.6706 -0.3435  0.2827
  916MOL0     C23538   5.784   7.453   5.455 -0.4560  0.2456  0.0843
  916MOL0     C23539   5.702   7.505   5.570  1.3774  0.4638  0.1395
  916MOL0     C23540   5.771   7.583   5.673  0.9055  0.7351  0.5833
  916MOL0     C23541   5.689   7.673   5.755  0.8026  0.0810  0.0710
  916MOL0     N23542   5.569   7.603   5.804 -0.6560 -0.4572 -0.6459
  916MOL0     C23543   5.442   7.627   5.774 -0.4648 -0.6457  0.3748
  916MOL0     C23544   5.355   7.565   5.858 -0.3592 -0.2309  0.0544
  916MOL0     C23545   5.200   7.560   5.859 -0.6984 -0.5134 -0.0215
  916MOL0     C23546   5.151   7.507   5.720  0.0661 -1.2479  0.1796
  916MOL0     C23547   5.006   7.459   5.743  0.9657  0.4306 -0.0093
  916MOL0     C23548   4.955   7.356   5.640  0.0024 -0.4365 -0.3045
  916MOL0     O23549   4.940   7.435   5.513 -0.0425  0.8310  0.3073
  916MOL0     C23550   4.814   7.457   5.472 -0.1579  0.2765 -0.3052
  916MOL0     C23551   4.756   7.581   5.477  0.1804  0.2911 -0.0263
  916MOL0     C23552   4.637   7.613   5.422 -0.0207  0.0525  0.0259
  916MOL0     C23553   4.590   7.756   5.436  0.2360 -0.8564 -0.9120
  916MOL0     C23554   4.572   7.513   5.351 -0.6874 -0.2672  0.8802
  916MOL0     C23555   4.451   7.552   5.273 -0.3608 -0.3053 -0.7124
  916MOL0     O23556   4.451   7.514   5.145  0.1010 -0.4452  0.2269
  916MOL0     C23557   4.346   7.539   5.058  0.1768  0.0784  1.3708
  916MOL0     C23558   4.375   7.573   4.928  0.9879 -0.3719  0.3142
  916MOL0     C23559   4.268   7.621   4.844 -0.2328 -0.3531  0.3487
  916MOL0     C23560   4.137   7.615   4.886 -0.3061  0.4854  0.4393
  916MOL0     O23561   4.049   7.650   4.789 -0.8659 -0.7947 -0.3009
  916MOL0     C23562   3.978   7.768   4.827  0.0583 -0.3713 -0.1519
  916MOL0     C23563   3.851   7.763   4.748 -1.3938  0.3825  0.2386
  916MOL0     C23564   3.749   7.865   4.792  0.2077 -0.0799 -0.0904
  916MOL0     C23565   3.615   7.850   4.720 -0.2373  0.6363 -0.6052
  916MOL0     C23566   3.507   7.928   4.796  0.5982  0.6487 -0.0321
  916MOL0     C23567   3.369   7.924   4.735 -0.5475 -0.1992 -0.6638
  916MOL0     C23568   3.265   8.020   4.791  0.1882 -0.1020 -0.3764
  916MOL0     C23569   3.127   7.985   4.743 -0.4084  0.3072  0.5404
  916MOL0    Cl23570   3.036   8.108   4.839  1.0289  0.1785  0.1528
  916MOL0     C23571   4.109   7.565   5.015  0.0135  0.3670 -0.0181
  916MOL0     C23572   4.211   7.537   5.102 -0.4755 -0.6384 -0.0746
  916MOL0     O23573   4.370   7.631   5.323 -0.6445  0.0414 -0.4754
  916MOL0     C23574   4.626   7.384   5.352 -0.3563  0.5043  0.0420
  916MOL0     C23575   4.743   7.354   5.420 -0.4341 -0.1342  0.6785
  916MOL0     N23576   5.439   7.502   5.946  0.6591  1.1266 -1.2285
  916MOL0     N23577   5.562   7.529   5.920 -1.0512  0.0057  0.2308
  916MOL0     C23578   6.305   7.314   5.758 -0.0911  0.0450 -0.3018
  916MOL0     C23579   6.439   7.319   5.729 -0.4282  0.7830 -1.0729
  916MOL0     C23580   6.877   7.371   5.795 -0.0708  0.0264  0.5434
  916MOL0     C23581   6.955   7.490   5.801  0.3100  0.2850  0.9786
  916MOL0     C23582   7.096   7.488   5.774 -0.6278 -0.1898 -1.1380
  916MOL0     C23583   7.156   7.367   5.725 -0.0572  0.1214 -0.2401
  916MOL0     O23584   7.290   7.360   5.688  0.4110  0.4883  0.1127
  916MOL0     C23585   7.392   7.444   5.740  0.5955 -0.7135  0.8326
  916MOL0     C23586   7.522   7.400   5.674 -0.0591  0.9212  0.2705
  916MOL0     C23587   7.641   7.495   5.693 -0.0647 -0.0785  0.6448
  916MOL0     C23588   7.730   7.469   5.571 -0.0094 -0.0239  1.2364
  916MOL0     C23589   7.836   7.561   5.550  0.3329 -0.0819 -0.1598
  916MOL0     C23590   7.921   7.643   5.544 -0.7552 -0.6334  0.2895
  916MOL0     C23591   7.074   7.257   5.705 -0.1676 -0.5954  0.2083
  916MOL0     C23592   6.938   7.255   5.743 -0.7308 -0.4596  0.0135
  916MOL0     H23593   6.547   7.143   6.003 -1.0914 -2.6595  0.1976
  916MOL0     H23594   6.314   7.161   6.053  0.3358  1.5287  0.0159
  916MOL0     H23595   5.921   7.285   5.843  0.7052 -1.4308 -0.1983
  916MOL0     H23596   6.029   7.402   5.781  0.2124  0.6237 -1.1748
  916MOL0     H23597   6.103   7.220   5.601  0.0140  1.2475  0.6847
  916MOL0     H23598   6.004   7.103   5.677 -3.2399  0.2043 -1.6547
  916MOL0     H23599   5.872   7.171   5.496  0.7687  0.3041 -1.1293
  916MOL0     H23600   5.799   7.256   5.632 -1.8121  0.8527 -2.5032
  916MOL0     H23601   5.973   7.451   5.544  0.9622  1.8371 -2.5654
  916MOL0     H23602   5.960   7.351   5.399 -0.9911  1.1508 -1.2743
  916MOL0     H23603   5.810   7.542   5.397  2.1198 -0.5191 -0.0705
  916MOL0     H23604   5.728   7.386   5.389  0.9872  0.1049 -1.0748
  916MOL0     H23605   5.633   7.572   5.517  0.9462  0.7080  1.0015
  916MOL0     H23606   5.649   7.425   5.622 -1.4510  0.1120 -2.8967
  916MOL0     H23607   5.820   7.511   5.738  0.8167 -0.6548 -0.8301
  916MOL0     H23608   5.848   7.642   5.622 -0.8178  2.7394  0.1467
  916MOL0     H23609   5.660   7.756   5.690  0.9612 -1.1530 -1.6520
  916MOL0     H23610   5.752   7.709   5.837 -0.1913  1.5130  0.2487
  916MOL0     H23611   5.408   7.697   5.698 -0.6426  0.4537  1.4335
  916MOL0     H23612   5.163   7.502   5.944 -1.2823 -3.1173 -1.9196
  916MOL0     H23613   5.159   7.660   5.874  0.0131 -0.2495  0.2200
  916MOL0     H23614   5.212   7.425   5.682  1.0122 -1.2724  1.6949
  916MOL0     H23615   5.162   7.585   5.644 -1.0668  0.2506  1.4853
  916MOL0     H23616   4.945   7.550   5.741  0.9583  0.4255 -0.0140
  916MOL0     H23617   5.007   7.415   5.843  1.4564  1.5280  0.4907
  916MOL0     H23618   4.856   7.321   5.672  0.1887 -0.1089  0.6795
  916MOL0     H23619   5.033   7.279   5.642  2.0753  1.4744  3.4815
  916MOL0     H23620   4.827   7.653   5.517  1.3421 -1.0967  0.5229
  916MOL0     H23621   4.670   7.821   5.470  0.4928 -0.5379 -2.0799
  916MOL0     H23622   4.560   7.801   5.341 -2.8638  2.4942  1.4081
  916MOL0     H23623   4.497   7.775   5.490  1.3841  1.1346  0.4649
  916MOL0     H23624   4.479   7.577   4.897  0.6632  0.3813 -0.7082
  916MOL0     H23625   4.280   7.641   4.738 -3.0599  0.3326  0.1047
  916MOL0     H23626   3.966   7.784   4.935 -0.3363  2.7501 -0.5541
  916MOL0     H23627   4.035   7.857   4.800  0.8687 -0.6599  0.5479
  916MOL0     H23628   3.878   7.777   4.643  4.6923 -1.1906  1.1937
  916MOL0     H23629   3.811   7.662   4.761 -2.3722  0.9219  1.6575
  916MOL0     H23630   3.793   7.965   4.779  1.7788 -0.9009 -1.2670
  916MOL0     H23631   3.725   7.843   4.896 -1.6503 -2.7955 -1.0035
  916MOL0     H23632   3.624   7.885   4.617 -0.8460 -0.1295 -0.9298
  916MOL0     H23633   3.589   7.744   4.712  0.5793  0.5079 -1.8698
  916MOL0     H23634   3.536   8.033   4.798  0.8144  0.6196 -0.9380
  916MOL0     H23635   3.498   7.890   4.898 -4.0652  0.7866 -0.1728
  916MOL0     H23636   3.383   7.946   4.629 -3.8422 -0.0163 -1.1629
  916MOL0     H23637   3.323   7.825   4.738  0.5760 -0.7345 -0.6496
  916MOL0     H23638   3.290   8.120   4.756 -0.3994  0.9563  1.9977
  916MOL0     H23639   3.263   8.016   4.900  2.6840  0.5922 -0.2422
  916MOL0     H23640   3.092   7.882   4.757 -1.6378  0.7004  0.4440
  916MOL0     H23641   3.123   8.008   4.636  0.4152 -0.3251  0.3613
  916MOL0     H23642   4.003   7.573   5.036 -0.2634  1.8868 -1.7637
  916MOL0     H23643   4.197   7.515   5.207 -1.5214 -0.0288 -0.0863
  916MOL0     H23644   4.581   7.298   5.302  0.5302 -1.3377  2.2392
  916MOL0     H23645   4.776   7.251   5.426 -2.2871 -0.8728 -0.8955
  916MOL0     H23646   6.243   7.366   5.686 -2.1771  1.1699  2.1714
  916MOL0     H23647   6.473   7.378   5.644  0.8324  1.3496 -0.2072
  916MOL0     H23648   6.908   7.578   5.844 -2.0307 -1.0740  1.3846
  916MOL0     H23649   7.157   7.576   5.789 -2.0980  0.4204  2.3237
  916MOL0     H23650   7.367   7.550   5.731  2.4208 -0.2115  1.1994
  916MOL0     H23651   7.411   7.427   5.846  0.5370 -0.0062  0.9634
  916MOL0     H23652   7.503   7.387   5.567 -0.2488  1.8309  0.1799
  916MOL0     H23653   7.562   7.311   5.723  0.1456  1.2864  0.7882
  916MOL0     H23654   7.695   7.482   5.787  1.8508  2.1913 -0.0516
  916MOL0     H23655   7.608   7.599   5.685 -2.5619 -0.8900 -1.0282
  916MOL0     H23656   7.675   7.465   5.476  1.1768  2.3251  0.3740
  916MOL0     H23657   7.764   7.366   5.586 -0.4166 -0.2103  0.9300
  916MOL0     H23658   8.003   7.713   5.540 -0.0364 -1.4950 -0.5231
  916MOL0     H23659   7.119   7.167   5.665  0.4839 -0.4463  0.5855
  916MOL0     H23660   6.875   7.167   5.737 -1.9999  0.4639 -0.6441
  917MOL0     O23661   2.778   7.336   1.797  0.4884  0.6772  0.1221
  917MOL0     C23662   2.897   7.317   1.779 -0.5072 -0.1860  0.5262
  917MOL0     O23663   2.955   7.246   1.673  0.2087 -0.4330 -0.0171
  917MOL0     C23664   2.858   7.199   1.591  0.4301 -0.5751  0.4682
  917MOL0     C23665   2.782   7.079   1.616  0.3038 -0.1814 -1.0099
  917MOL0     C23666   2.686   7.032   1.527  0.0455  0.6595  0.0304
  917MOL0     C23667   2.655   7.103   1.405  0.7036 -0.0065 -0.6322
  917MOL0     O23668   2.550   7.085   1.319 -0.0839  0.2071 -0.2358
  917MOL0     C23669   2.477   6.961   1.320 -0.1172  0.0945 -0.1816
  917MOL0     C23670   2.348   6.999   1.386  0.0079  0.3905  0.1819
  917MOL0     C23671   2.243   7.057   1.293 -0.8250  0.5194  0.3376
  917MOL0     C23672   2.118   7.078   1.362  0.3542 -0.0712 -0.9490
  917MOL0     C23673   2.048   6.952   1.413  1.1347  0.2614 -0.2226
  917MOL0     C23674   1.914   6.989   1.467 -0.5815 -0.2293 -0.2474
  917MOL0     C23675   1.840   6.860   1.487 -0.9833  0.6639  0.2327
  917MOL0     C23676   1.715   6.885   1.573  0.0228 -0.2451 -0.4291
  917MOL0     N23677   1.643   6.765   1.609 -0.0374  0.6434 -1.0749
  917MOL0     C23678   1.633   6.652   1.536 -0.7181 -1.4909  0.4122
  917MOL0     C23679   1.530   6.594   1.590  0.2022  0.4958  0.1168
  917MOL0     C23680   1.452   6.475   1.536 -0.5550  0.3387 -0.0811
  917MOL0     C23681   1.316   6.505   1.483 -0.7190  0.0749  0.8158
  917MOL0     C23682   1.232   6.379   1.455  0.5411 -0.4888 -0.0974
  917MOL0     C23683   1.157   6.327   1.573 -0.4661 -0.8791 -0.1155
  917MOL0     O23684   1.133   6.191   1.562  1.1221  0.0083 -0.2351
  917MOL0     C23685   1.014   6.172   1.496 -0.6092 -0.5365  0.5924
  917MOL0     C23686   1.009   6.161   1.354 -0.8070  0.7393 -0.4454
  917MOL0     C23687   0.885   6.146   1.291 -0.0803  0.1692  0.1855
  917MOL0     C23688   0.889   6.118   1.146 -0.6397 -0.1241  0.2847
  917MOL0     C23689   0.763   6.145   1.368  0.2672  0.6498 -0.4467
  917MOL0     C23690   0.626   6.130   1.309 -1.2539 -0.1382  0.2489
  917MOL0     O23691   0.614   6.113   1.168  0.6181  0.6796 -0.2749
  917MOL0     C23692   0.496   6.062   1.121 -0.0703 -0.0062  0.6103
  917MOL0     C23693   0.389   6.151   1.106 -0.8287  1.0484 -0.6983
  917MOL0     C23694   0.270   6.098   1.052  0.3931 -0.2411  0.2522
  917MOL0     C23695   0.255   5.968   1.014  0.3187  0.5135 -0.3554
  917MOL0     O23696   0.124   5.941   0.976  0.0788  0.3893  0.0246
  917MOL0     C23697   0.078   5.807   0.926  0.1910 -0.6619  0.2536
  917MOL0     C23698  -0.072   5.815   0.883  0.1438  0.8669  0.8512
  917MOL0     C23699  -0.131   5.670   0.846  0.1367 -0.1270  0.5288
  917MOL0     C23700  -0.283   5.697   0.824  0.0500 -0.0114 -0.3345
  917MOL0     C23701  -0.352   5.584   0.744 -0.7402  0.0445 -0.8276
  917MOL0     C23702  -0.384   5.455   0.814  0.0733  1.2110 -0.3399
  917MOL0     C23703  -0.507   5.389   0.752 -0.5937  0.1356  0.7470
  917MOL0     C23704  -0.539   5.259   0.829 -0.7426 -0.2733  0.1016
  917MOL0    Cl23705  -0.713   5.200   0.800 -0.1201  0.3625  0.3917
  917MOL0     C23706   0.367   5.880   1.018  0.3549 -0.7299 -0.2552
  917MOL0     C23707   0.483   5.932   1.067 -0.5821 -0.1674 -0.4275
  917MOL0     O23708   0.529   6.118   1.388 -0.5569 -0.0436 -0.1775
  917MOL0     C23709   0.775   6.161   1.501 -0.9586  0.4860 -0.6877
  917MOL0     C23710   0.896   6.179   1.561  0.5176  0.7380 -0.5673
  917MOL0     N23711   1.499   6.663   1.709 -0.0877 -0.2019  0.4868
  917MOL0     N23712   1.564   6.769   1.725 -0.0488  0.1917  0.8086
  917MOL0     C23713   2.735   7.211   1.369 -0.4092 -0.1297 -0.0292
  917MOL0     C23714   2.840   7.256   1.460 -0.1889 -0.0603 -0.4494
  917MOL0     C23715   2.997   7.358   1.882 -0.4970  0.1614  0.3790
  917MOL0     C23716   2.958   7.378   2.014  0.4029  0.1288  0.3440
  917MOL0     C23717   3.055   7.395   2.119  0.2702  0.1884  0.3806
  917MOL0     C23718   3.191   7.403   2.087  0.1597  0.4688 -0.2912
  917MOL0     O23719   3.285   7.397   2.182  0.6488  1.1727 -0.1641
  917MOL0     C23720   3.424   7.427   2.156  0.3069  1.0718 -1.0475
  917MOL0     C23721   3.493   7.442   2.298 -0.1146 -0.3916 -0.3608
  917MOL0     C23722   3.451   7.556   2.390 -0.3302  0.4387 -0.5960
  917MOL0     C23723   3.325   7.514   2.470  0.5904  0.6343  1.0111
  917MOL0     C23724   3.325   7.602   2.586 -0.8011 -0.2206 -0.6679
  917MOL0     C23725   3.331   7.682   2.681  0.1021  0.1330  0.6530
  917MOL0     C23726   3.229   7.375   1.958  0.8237  0.5642  0.4378
  917MOL0     C23727   3.138   7.342   1.853 -0.7276 -0.6158 -0.1715
  917MOL0     H23728   2.803   7.025   1.708  3.9342  0.6682 -1.1720
  917MOL0     H23729   2.644   6.937   1.558 -1.2796  1.1250 -0.2937
  917MOL0     H23730   2.467   6.934   1.214 -0.2922  1.4236 -0.5236
  917MOL0     H23731   2.527   6.883   1.379 -0.3689 -0.6437 -0.9274
  917MOL0     H23732   2.302   6.912   1.433  2.7879 -0.3902  1.6639
  917MOL0     H23733   2.379   7.070   1.463  2.5965 -1.1567  0.6838
  917MOL0     H23734   2.276   7.155   1.258 -3.6572  1.3706 -0.2228
  917MOL0     H23735   2.230   6.994   1.205  3.1020 -3.5035  2.2641
  917MOL0     H23736   2.137   7.149   1.443 -1.6565  0.0692 -0.5295
  917MOL0     H23737   2.045   7.124   1.294 -1.4265 -2.0533 -0.4640
  917MOL0     H23738   2.038   6.893   1.321  0.2733  0.2286 -0.1184
  917MOL0     H23739   2.098   6.893   1.491  2.4955 -0.7292 -1.7764
  917MOL0     H23740   1.918   7.043   1.562  1.5401  0.0470 -0.4503
  917MOL0     H23741   1.860   7.046   1.392 -0.7369  0.6561  0.5118
  917MOL0     H23742   1.809   6.826   1.388 -0.7518 -0.2196  0.4586
  917MOL0     H23743   1.893   6.779   1.537 -2.0390  0.3880  0.9311
  917MOL0     H23744   1.639   6.948   1.525 -0.2615 -1.1859 -1.2420
  917MOL0     H23745   1.748   6.922   1.671  0.4746 -4.1106  1.0231
  917MOL0     H23746   1.686   6.637   1.443 -1.7527 -0.0756 -0.4487
  917MOL0     H23747   1.510   6.439   1.451  0.7227 -0.5375  1.1166
  917MOL0     H23748   1.445   6.395   1.611  2.4343 -0.8111 -0.8755
  917MOL0     H23749   1.341   6.552   1.387  2.8513 -1.0023  1.0786
  917MOL0     H23750   1.265   6.582   1.542 -2.3079 -0.5502  0.3182
  917MOL0     H23751   1.298   6.297   1.427  0.7198  0.9898 -4.9446
  917MOL0     H23752   1.153   6.399   1.382 -0.6708 -1.7816  0.8394
  917MOL0     H23753   1.067   6.390   1.579 -0.8098 -1.1533 -1.7773
  917MOL0     H23754   1.215   6.338   1.665 -0.6081 -0.5830 -0.0600
  917MOL0     H23755   1.101   6.152   1.297 -1.6417  0.4705 -1.7981
  917MOL0     H23756   0.837   6.191   1.084 -0.4473 -2.3839 -2.7594
  917MOL0     H23757   0.990   6.119   1.105 -0.4367 -2.4799  0.5681
  917MOL0     H23758   0.846   6.020   1.123 -0.7956  0.1273 -0.5391
  917MOL0     H23759   0.393   6.251   1.147 -0.8293 -0.5149  3.6407
  917MOL0     H23760   0.184   6.165   1.045 -1.4143 -2.5208 -0.4885
  917MOL0     H23761   0.148   5.779   0.846  0.5554 -4.3249  1.6651
  917MOL0     H23762   0.080   5.724   0.998 -0.8632 -0.1455  0.9005
  917MOL0     H23763  -0.135   5.862   0.959  0.8302 -0.6358  2.3977
  917MOL0     H23764  -0.083   5.877   0.793 -1.7646 -2.0748 -1.1252
  917MOL0     H23765  -0.114   5.599   0.928  4.1622 -1.7410 -1.4172
  917MOL0     H23766  -0.079   5.626   0.760  0.0910 -2.1640  1.4763
  917MOL0     H23767  -0.336   5.705   0.920 -1.4648  0.2954 -1.1621
  917MOL0     H23768  -0.299   5.796   0.781  0.8506  0.7156  0.9653
  917MOL0     H23769  -0.285   5.552   0.663  0.0517  1.8516 -0.9376
  917MOL0     H23770  -0.446   5.615   0.698 -1.4264 -0.9770 -0.1670
  917MOL0     H23771  -0.296   5.390   0.821 -0.8539 -0.4234 -2.3543
  917MOL0     H23772  -0.410   5.478   0.917  2.9126 -2.3058  1.3761
  917MOL0     H23773  -0.496   5.361   0.647 -0.3078  2.1833  0.1878
  917MOL0     H23774  -0.595   5.452   0.760 -0.7271 -0.2795  4.2434
  917MOL0     H23775  -0.520   5.270   0.936  1.2464 -0.9305 -0.1475
  917MOL0     H23776  -0.461   5.191   0.792 -0.2970  1.3391 -2.1051
  917MOL0     H23777   0.351   5.777   0.989  1.4991 -1.1703  0.6000
  917MOL0     H23778   0.563   5.858   1.063 -0.2731  0.1710 -0.5403
  917MOL0     H23779   0.694   6.164   1.573  1.6444  1.1515  2.4620
  917MOL0     H23780   0.904   6.199   1.667 -3.0425  1.2012 -0.2807
  917MOL0     H23781   2.714   7.254   1.272  1.4781  0.1821 -0.3322
  917MOL0     H23782   2.912   7.336   1.449  1.4619 -1.4981 -0.5680
  917MOL0     H23783   2.851   7.373   2.032  0.5143 -2.3884  0.6904
  917MOL0     H23784   3.030   7.409   2.224  1.1200 -0.1405  0.6417
  917MOL0     H23785   3.459   7.334   2.110 -5.0889 -0.9863 -1.7348
  917MOL0     H23786   3.437   7.520   2.100  3.6159  1.8746  0.7477
  917MOL0     H23787   3.598   7.464   2.278  0.5197 -2.5080  0.3467
  917MOL0     H23788   3.488   7.344   2.346  0.8893 -0.3566 -0.1561
  917MOL0     H23789   3.423   7.648   2.338 -0.5706  1.1163  0.6919
  917MOL0     H23790   3.536   7.579   2.455 -0.2524  2.2152 -1.2881
  917MOL0     H23791   3.338   7.412   2.506  0.8358  1.0142  2.0376
  917MOL0     H23792   3.241   7.515   2.399  1.9640 -1.1067 -0.7563
  917MOL0     H23793   3.328   7.737   2.773  1.7850 -0.8365  1.3449
  917MOL0     H23794   3.334   7.360   1.934  0.9633 -0.4795  1.6313
  917MOL0     H23795   3.176   7.323   1.753  0.6245  3.0014 -0.5051
  918MOL0     O23796   2.763   9.040   9.410 -0.4394  0.5393  0.8849
  918MOL0     C23797   2.813   8.931   9.417  0.2566 -0.0186  0.9633
  918MOL0     O23798   2.765   8.815   9.361 -0.1494  0.8326 -0.1890
  918MOL0     C23799   2.629   8.810   9.324 -0.2507 -0.1217  0.2190
  918MOL0     C23800   2.524   8.876   9.389  0.3566  0.8047 -0.4231
  918MOL0     C23801   2.394   8.876   9.332  0.1573  0.3511 -0.1987
  918MOL0     C23802   2.371   8.792   9.224  0.6144  0.2648  1.1904
  918MOL0     O23803   2.247   8.767   9.180  0.2106 -0.4242  0.0544
  918MOL0     C23804   2.219   8.731   9.047 -0.8070 -0.3633  0.3730
  918MOL0     C23805   2.081   8.771   9.023  0.8700 -0.7743  0.0449
  918MOL0     C23806   2.018   8.687   8.913  0.1915 -0.2231 -0.3795
  918MOL0     C23807   1.876   8.725   8.879  0.4357 -0.2685  0.6648
  918MOL0     C23808   1.815   8.624   8.772  0.1566 -0.4775 -0.5057
  918MOL0     C23809   1.668   8.643   8.752 -0.4590  0.3707 -0.3970
  918MOL0     C23810   1.633   8.669   8.601 -1.2167  0.1665 -0.4664
  918MOL0     C23811   1.486   8.663   8.577  0.9696  0.3058 -0.0963
  918MOL0     N23812   1.420   8.786   8.574  0.0417 -0.2933 -0.4755
  918MOL0     C23813   1.307   8.822   8.646 -0.1295 -0.0900 -0.5462
  918MOL0     C23814   1.278   8.944   8.594 -0.0557 -0.8378  0.6142
  918MOL0     C23815   1.180   9.044   8.657  0.3648  0.1920 -0.4243
  918MOL0     C23816   1.038   9.028   8.601  0.2135  0.5750  0.6499
  918MOL0     C23817   1.027   9.090   8.461  0.3872 -0.2648  0.1210
  918MOL0     C23818   1.065   9.238   8.455  0.0211 -0.6246 -0.2064
  918MOL0     O23819   0.972   9.314   8.529  0.0311  0.8047 -0.3341
  918MOL0     C23820   0.837   9.304   8.494 -0.4718 -0.3336  0.2736
  918MOL0     C23821   0.790   9.354   8.375 -0.9494  0.2164  0.1671
  918MOL0     C23822   0.652   9.362   8.341  0.7381  0.2175 -0.9873
  918MOL0     C23823   0.623   9.446   8.213  0.3743 -0.6260  0.1923
  918MOL0     C23824   0.556   9.326   8.442 -0.6767 -0.6125  0.3445
  918MOL0     C23825   0.407   9.334   8.420  1.2223 -0.4964  0.0861
  918MOL0     O23826   0.364   9.335   8.290  0.3788 -0.0577  0.2326
  918MOL0     C23827   0.229   9.354   8.253 -0.9326  0.3313 -0.5339
  918MOL0     C23828   0.123   9.274   8.301 -0.3223  0.1932 -0.6449
  918MOL0     C23829  -0.011   9.312   8.261 -0.3635  0.2606  0.3315
  918MOL0     C23830  -0.031   9.397   8.151  0.3529 -0.9435 -0.0535
  918MOL0     O23831  -0.156   9.426   8.088 -0.5016 -0.5724  0.0271
  918MOL0     C23832  -0.271   9.377   8.166 -0.0277  0.4096  0.1295
  918MOL0     C23833  -0.404   9.444   8.099 -0.6132 -0.0174  0.1265
  918MOL0     C23834  -0.525   9.458   8.198 -0.3035  0.7329  0.5004
  918MOL0     C23835  -0.654   9.458   8.112  0.2635  0.7365  0.0097
  918MOL0     C23836  -0.788   9.484   8.198 -0.1765  0.1533  0.3266
  918MOL0     C23837  -0.912   9.474   8.110  0.6790 -0.5100 -1.0479
  918MOL0     C23838  -1.032   9.496   8.202  0.5133  0.9932  0.0440
  918MOL0     C23839  -1.158   9.543   8.129  0.4286 -0.0161  0.2737
  918MOL0    Cl23840  -1.217   9.433   8.010 -0.0132  0.0688  0.1625
  918MOL0     C23841   0.076   9.471   8.096 -0.7200 -0.0605 -0.3706
  918MOL0     C23842   0.204   9.448   8.144 -0.0375  0.1730 -0.5784
  918MOL0     O23843   0.329   9.340   8.517  0.0706 -0.2167  0.9998
  918MOL0     C23844   0.605   9.287   8.566  0.1075  0.8936  0.1705
  918MOL0     C23845   0.742   9.286   8.596 -0.4353  0.3335  0.4997
  918MOL0     N23846   1.356   8.968   8.485  0.0018 -0.5332 -0.1758
  918MOL0     N23847   1.442   8.878   8.481 -0.0360 -0.0126  0.7290
  918MOL0     C23848   2.472   8.715   9.166 -0.4018  0.3221  0.1589
  918MOL0     C23849   2.600   8.736   9.210  0.0414 -0.4250  0.1928
  918MOL0     C23850   2.955   8.941   9.447  0.5210  0.1956 -0.4720
  918MOL0     C23851   3.004   9.037   9.538 -0.6498  0.0063  0.1297
  918MOL0     C23852   3.140   9.029   9.561 -0.6084 -0.4951  0.4230
  918MOL0     C23853   3.222   8.933   9.498 -0.1419  1.1028  0.5410
  918MOL0     O23854   3.352   8.910   9.528 -0.1521  0.4471  0.1220
  918MOL0     C23855   3.424   9.025   9.566 -0.1017 -0.7457  0.2561
  918MOL0     C23856   3.573   8.992   9.596 -0.3281 -0.0749  0.0381
  918MOL0     C23857   3.602   8.901   9.722 -0.1141  0.4863  0.2598
  918MOL0     C23858   3.747   8.905   9.766 -0.2607 -0.0449  0.1796
  918MOL0     C23859   3.779   8.812   9.869  1.1513  0.0865  0.6058
  918MOL0     C23860   3.797   8.736   9.962 -0.5244 -0.2332 -0.7138
  918MOL0     C23861   3.176   8.849   9.403  0.7384 -0.1949  0.0816
  918MOL0     C23862   3.037   8.842   9.390  0.0903 -0.1630  0.2965
  918MOL0     H23863   2.535   8.919   9.489  0.4478  3.4675 -1.5061
  918MOL0     H23864   2.316   8.927   9.387 -0.2074 -1.8837  1.4516
  918MOL0     H23865   2.289   8.777   8.977 -1.3246 -2.1877 -1.4186
  918MOL0     H23866   2.224   8.622   9.036 -0.2731 -0.1748 -1.6863
  918MOL0     H23867   2.021   8.763   9.113  0.1602 -0.1633 -0.3636
  918MOL0     H23868   2.076   8.874   8.985 -2.6431 -0.2059  1.6824
  918MOL0     H23869   2.078   8.695   8.822  0.3497  1.6621 -0.1431
  918MOL0     H23870   2.016   8.581   8.940 -0.3964 -0.2556 -0.5182
  918MOL0     H23871   1.813   8.724   8.969 -1.5707  0.6809 -0.6368
  918MOL0     H23872   1.865   8.824   8.834  0.3815 -0.5702 -0.0008
  918MOL0     H23873   1.867   8.636   8.676 -0.2291  1.5020 -0.5136
  918MOL0     H23874   1.834   8.522   8.806  0.9424  0.7462  3.1712
  918MOL0     H23875   1.607   8.562   8.793  1.3162 -1.1730 -0.6712
  918MOL0     H23876   1.631   8.729   8.809 -2.9871 -0.8601 -0.0357
  918MOL0     H23877   1.664   8.768   8.569  1.9795 -0.2641  0.9675
  918MOL0     H23878   1.674   8.585   8.544 -2.4640  0.4041 -1.7745
  918MOL0     H23879   1.440   8.605   8.657 -0.2066  0.3319 -0.7388
  918MOL0     H23880   1.469   8.609   8.483 -2.0069  1.0946 -0.0844
  918MOL0     H23881   1.250   8.777   8.726  1.2999 -3.2993 -1.1958
  918MOL0     H23882   1.159   9.015   8.760 -4.3871 -1.6057 -1.6421
  918MOL0     H23883   1.213   9.148   8.651 -2.5871  1.1888 -1.2735
  918MOL0     H23884   0.965   9.067   8.673 -2.1379 -1.8839 -0.2296
  918MOL0     H23885   1.011   8.922   8.591  2.4281 -0.1810  1.9283
  918MOL0     H23886   0.927   9.068   8.422  0.8305 -3.0596  0.3574
  918MOL0     H23887   1.092   9.031   8.396  0.3483 -2.0284  1.6153
  918MOL0     H23888   1.069   9.275   8.352  2.2047 -1.4023 -0.4451
  918MOL0     H23889   1.159   9.256   8.507 -0.7760  2.2106  0.4354
  918MOL0     H23890   0.862   9.381   8.299  0.9293 -2.1979  0.9825
  918MOL0     H23891   0.544   9.516   8.239  0.2769 -0.3451 -0.8226
  918MOL0     H23892   0.708   9.501   8.171 -1.6559  0.3786 -2.9376
  918MOL0     H23893   0.585   9.372   8.142 -0.5690  1.4791 -1.5965
  918MOL0     H23894   0.134   9.202   8.382 -1.3631 -2.3453 -2.6064
  918MOL0     H23895  -0.097   9.252   8.290  0.7929 -2.4284 -1.3967
  918MOL0     H23896  -0.282   9.269   8.157  1.3701  0.3555 -1.6968
  918MOL0     H23897  -0.264   9.415   8.268  0.9706  0.8866 -0.1016
  918MOL0     H23898  -0.370   9.541   8.063  1.6886 -1.0508 -0.6699
  918MOL0     H23899  -0.434   9.383   8.014  0.4010 -0.5522  0.1466
  918MOL0     H23900  -0.506   9.548   8.259  1.6683  1.1154 -0.5755
  918MOL0     H23901  -0.520   9.371   8.265  1.9553 -0.2396 -0.8100
  918MOL0     H23902  -0.657   9.511   8.017 -3.1528 -2.5839 -2.0070
  918MOL0     H23903  -0.653   9.355   8.074  0.5133 -1.2323  4.6290
  918MOL0     H23904  -0.781   9.588   8.232  1.0209  0.4991 -0.9156
  918MOL0     H23905  -0.800   9.414   8.281 -1.7766  0.5194  0.4460
  918MOL0     H23906  -0.909   9.551   8.032  0.1953  0.2514 -0.3283
  918MOL0     H23907  -0.922   9.377   8.062  0.7989 -0.4601 -1.1730
  918MOL0     H23908  -1.013   9.575   8.275 -1.2315  2.6686 -1.2156
  918MOL0     H23909  -1.058   9.399   8.246  3.7517 -0.0875 -0.1625
  918MOL0     H23910  -1.135   9.628   8.064  3.3433 -1.5087 -0.7900
  918MOL0     H23911  -1.231   9.586   8.199  1.9064  2.5219  0.3781
  918MOL0     H23912   0.051   9.548   8.024  0.5567  0.5821 -0.1661
  918MOL0     H23913   0.291   9.506   8.118 -0.4981  2.4774  2.4851
  918MOL0     H23914   0.532   9.256   8.640 -0.9735  2.0398 -0.3736
  918MOL0     H23915   0.775   9.260   8.696  2.5535 -2.2302 -1.0097
  918MOL0     H23916   2.458   8.629   9.101 -0.6406  1.6044 -1.5357
  918MOL0     H23917   2.688   8.692   9.164 -0.1367 -1.4980  0.8417
  918MOL0     H23918   2.940   9.115   9.581 -0.3511  1.2295 -1.5249
  918MOL0     H23919   3.176   9.105   9.629  0.2548  1.1747 -1.7706
  918MOL0     H23920   3.416   9.103   9.489  1.3689  0.8605  1.6567
  918MOL0     H23921   3.380   9.063   9.658 -2.4523  0.1528 -1.1493
  918MOL0     H23922   3.618   9.089   9.620  0.9713 -0.5361 -0.4851
  918MOL0     H23923   3.613   8.960   9.499 -0.3456 -0.7914  0.2583
  918MOL0     H23924   3.575   8.797   9.700  1.2854  0.7486 -3.5020
  918MOL0     H23925   3.541   8.932   9.807 -0.7613  0.5112 -0.1975
  918MOL0     H23926   3.758   9.005   9.809 -2.0967 -1.0097  3.2633
  918MOL0     H23927   3.815   8.886   9.683 -0.9767  0.4889 -0.5470
  918MOL0     H23928   3.810   8.666  10.041  0.0658  1.0958  0.4210
  918MOL0     H23929   3.244   8.779   9.356 -1.2508 -1.9738 -0.2518
  918MOL0     H23930   2.991   8.766   9.328  0.0394 -0.3696  0.5856
  919MOL0     O23931   7.440   4.515   1.480  0.1366 -0.6995  0.5557
  919MOL0     C23932   7.499   4.421   1.430  0.7930  0.7350  0.7572
  919MOL0     O23933   7.436   4.310   1.378 -0.1904  0.4456 -0.2573
  919MOL0     C23934   7.310   4.281   1.421  0.6773  0.8717 -0.2327
  919MOL0     C23935   7.281   4.294   1.562  0.8759  0.0205  0.7131
  919MOL0     C23936   7.150   4.262   1.614 -0.3875  0.0405  0.0666
  919MOL0     C23937   7.051   4.215   1.533  0.4809  0.2213 -0.8598
  919MOL0     O23938   6.935   4.184   1.593  0.1169 -0.4065 -0.3187
  919MOL0     C23939   6.830   4.130   1.522  0.0338  0.3581  0.1278
  919MOL0     C23940   6.734   4.065   1.622  0.6531 -0.3773 -0.3808
  919MOL0     C23941   6.578   4.059   1.587 -0.3236  0.1034  0.1169
  919MOL0     C23942   6.500   3.996   1.706  0.0721 -0.1439  0.3878
  919MOL0     C23943   6.347   3.972   1.672 -0.4843 -0.0784  0.0874
  919MOL0     C23944   6.322   3.849   1.575  0.1230 -0.3394 -0.0706
  919MOL0     C23945   6.378   3.711   1.628  0.6248 -0.8282 -0.1243
  919MOL0     C23946   6.307   3.655   1.746 -0.9078  0.0232  1.1437
  919MOL0     N23947   6.166   3.645   1.717  0.6357 -0.1108  0.2302
  919MOL0     C23948   6.065   3.715   1.791  0.7352  0.3489  0.3368
  919MOL0     C23949   5.949   3.656   1.748  0.9425 -0.1211  1.2511
  919MOL0     C23950   5.810   3.702   1.788  1.0054 -0.3227  0.7662
  919MOL0     C23951   5.786   3.850   1.746  0.2446  0.3079 -0.0051
  919MOL0     C23952   5.809   3.871   1.596 -0.5367 -0.1916  0.1216
  919MOL0     C23953   5.792   4.016   1.571  0.2166 -0.8227  0.3089
  919MOL0     O23954   5.685   4.081   1.641 -0.2564  0.0366 -0.3675
  919MOL0     C23955   5.553   4.044   1.623  0.0929  0.4033 -0.1020
  919MOL0     C23956   5.456   4.100   1.709  0.1423 -0.7703 -0.3226
  919MOL0     C23957   5.320   4.060   1.692 -0.7953  0.9565  0.1374
  919MOL0     C23958   5.232   4.118   1.792  0.4173 -0.8318 -0.0108
  919MOL0     C23959   5.273   3.985   1.578  0.5339 -0.0302  0.6087
  919MOL0     C23960   5.129   3.953   1.563 -0.6272  0.1129  0.3522
  919MOL0     O23961   5.096   3.958   1.426  0.5070  0.3769  0.2903
  919MOL0     C23962   4.960   3.969   1.401 -0.0045  0.6231  0.3191
  919MOL0     C23963   4.904   3.872   1.322  0.3792 -0.1248  0.0670
  919MOL0     C23964   4.773   3.887   1.281  0.9734 -0.1916 -0.1350
  919MOL0     C23965   4.689   3.994   1.341 -1.0145 -0.0505  0.7542
  919MOL0     O23966   4.554   4.022   1.332  1.2404 -0.1944  0.2085
  919MOL0     C23967   4.486   3.953   1.227  0.2594 -0.1578  0.4191
  919MOL0     C23968   4.346   4.006   1.218  0.3663  0.3725 -0.0286
  919MOL0     C23969   4.348   4.157   1.190  0.0668  0.4188  0.0773
  919MOL0     C23970   4.211   4.228   1.190 -1.0362  0.0260  0.8822
  919MOL0     C23971   4.117   4.173   1.080 -0.1779  0.5626 -0.0043
  919MOL0     C23972   3.990   4.257   1.072 -0.2830 -0.6238 -0.2646
  919MOL0     C23973   3.902   4.209   0.963  1.0685  0.2499  0.0832
  919MOL0     C23974   3.836   4.068   0.984 -0.3502 -0.7864 -1.1675
  919MOL0    Cl23975   3.657   4.080   0.934  0.5351  0.2718  0.2234
  919MOL0     C23976   4.759   4.088   1.415 -0.0575  0.4609 -0.1675
  919MOL0     C23977   4.894   4.082   1.448  0.5752 -0.3568 -0.0523
  919MOL0     O23978   5.061   3.905   1.654  0.0057  0.0434  0.5607
  919MOL0     C23979   5.376   3.931   1.497  0.6249  0.1824 -0.3833
  919MOL0     C23980   5.507   3.955   1.519 -0.2358 -0.3924  0.3979
  919MOL0     N23981   5.975   3.560   1.652 -0.1153  0.2452 -0.0274
  919MOL0     N23982   6.106   3.567   1.629  0.4039 -0.3033 -0.0432
  919MOL0     C23983   7.081   4.197   1.393  0.3746  0.1761 -0.1849
  919MOL0     C23984   7.214   4.228   1.343  0.9426 -0.0950  0.3177
  919MOL0     C23985   7.639   4.427   1.420 -0.3312 -0.5346  0.2208
  919MOL0     C23986   7.722   4.323   1.366 -1.2872  0.0246  0.5191
  919MOL0     C23987   7.863   4.324   1.373 -0.3546 -0.1337 -0.3662
  919MOL0     C23988   7.927   4.434   1.433 -0.1803 -0.0277  0.2028
  919MOL0     O23989   8.068   4.435   1.429 -0.2061 -0.0453 -0.1061
  919MOL0     C23990   8.145   4.321   1.399  0.1056  0.4708  0.6791
  919MOL0     C23991   8.168   4.288   1.251  0.5515  0.4543  0.1008
  919MOL0     C23992   8.264   4.172   1.221  0.3696 -0.0613  0.9021
  919MOL0     C23993   8.195   4.042   1.221  0.0076  0.9391  1.0047
  919MOL0     C23994   8.273   3.933   1.161 -0.5522 -0.2579 -0.0684
  919MOL0     C23995   8.346   3.843   1.131  0.2444  0.1100 -0.0313
  919MOL0     C23996   7.847   4.531   1.491  0.1329  0.6282 -0.0804
  919MOL0     C23997   7.706   4.527   1.487 -0.2708 -0.5707 -0.5003
  919MOL0     H23998   7.353   4.339   1.629  0.2210  2.8216 -0.3257
  919MOL0     H23999   7.137   4.281   1.720 -0.0111 -1.9237  0.5088
  919MOL0     H24000   6.785   4.209   1.462  0.7746  1.8592  1.4523
  919MOL0     H24001   6.855   4.052   1.449 -2.7548  0.7703 -1.4004
  919MOL0     H24002   6.761   3.959   1.624  0.9715 -0.3145 -1.0916
  919MOL0     H24003   6.742   4.119   1.716 -0.3694  0.3766 -0.7042
  919MOL0     H24004   6.529   4.154   1.564  0.0535  0.5539  1.1336
  919MOL0     H24005   6.567   3.997   1.497  2.3257  0.4489 -0.5225
  919MOL0     H24006   6.556   3.913   1.751  1.3028 -0.0078 -0.8118
  919MOL0     H24007   6.497   4.077   1.779 -0.9722  0.1890 -0.0013
  919MOL0     H24008   6.298   3.939   1.764  1.8847  0.0536  1.4683
  919MOL0     H24009   6.314   4.065   1.624 -0.1146  3.0520  5.1714
  919MOL0     H24010   6.216   3.838   1.552 -0.7527 -0.5439  3.4411
  919MOL0     H24011   6.380   3.882   1.488  0.0413  1.8298  0.6354
  919MOL0     H24012   6.381   3.639   1.545 -2.4303 -3.3298  1.7109
  919MOL0     H24013   6.483   3.717   1.659  1.2560  3.6104 -2.2968
  919MOL0     H24014   6.329   3.717   1.833 -1.4576 -1.1789  2.1640
  919MOL0     H24015   6.361   3.562   1.765  0.0106 -0.5776 -3.3324
  919MOL0     H24016   6.074   3.794   1.866  0.2814  0.8564 -0.1369
  919MOL0     H24017   5.738   3.642   1.733  0.1192 -0.8996  2.4908
  919MOL0     H24018   5.793   3.683   1.894 -3.1196 -0.6429  0.1991
  919MOL0     H24019   5.851   3.918   1.802  1.9476 -1.7342  0.6406
  919MOL0     H24020   5.681   3.865   1.772 -0.9099 -4.2891 -1.0118
  919MOL0     H24021   5.734   3.813   1.541 -1.2363  0.0368  0.8247
  919MOL0     H24022   5.908   3.843   1.558 -0.8482  1.0494 -1.7872
  919MOL0     H24023   5.777   4.028   1.464  0.9258 -1.5609  0.1207
  919MOL0     H24024   5.885   4.071   1.584 -1.4199  2.9663 -2.2701
  919MOL0     H24025   5.482   4.154   1.800 -0.5262 -1.0451  0.0336
  919MOL0     H24026   5.285   4.152   1.881 -0.7742 -2.8351  1.5508
  919MOL0     H24027   5.165   4.193   1.751 -0.2527  0.2623  2.8914
  919MOL0     H24028   5.160   4.047   1.834 -1.4420  1.8138  1.5667
  919MOL0     H24029   4.962   3.798   1.269 -0.1192  1.5284 -3.0346
  919MOL0     H24030   4.725   3.822   1.209 -0.1781  0.0874  0.3394
  919MOL0     H24031   4.533   3.961   1.129 -3.5200  0.4759 -1.5306
  919MOL0     H24032   4.489   3.844   1.242 -0.3353 -0.3510 -0.6936
  919MOL0     H24033   4.284   3.951   1.146 -1.5997 -0.4049  2.1259
  919MOL0     H24034   4.302   4.001   1.318  1.3541  3.4441  0.6504
  919MOL0     H24035   4.394   4.186   1.095 -2.0927  0.0113 -1.1864
  919MOL0     H24036   4.402   4.215   1.264 -2.6144  3.7193 -0.3057
  919MOL0     H24037   4.152   4.214   1.281 -2.1935 -3.2719 -0.2155
  919MOL0     H24038   4.223   4.335   1.170 -4.2373  0.4506  0.7439
  919MOL0     H24039   4.091   4.069   1.104 -0.4679 -0.2534 -3.3492
  919MOL0     H24040   4.171   4.162   0.986  2.4528 -5.2881  1.6881
  919MOL0     H24041   3.936   4.256   1.167  2.6286  0.1538  1.5371
  919MOL0     H24042   4.026   4.357   1.045 -0.0536 -1.1428 -2.0320
  919MOL0     H24043   3.958   4.205   0.869  2.4831 -0.6582  0.9169
  919MOL0     H24044   3.825   4.285   0.946  1.6492  0.7760 -0.2269
  919MOL0     H24045   3.841   4.039   1.089 -2.0273  1.2174 -0.4656
  919MOL0     H24046   3.877   3.986   0.925  1.4723 -1.7725  1.2862
  919MOL0     H24047   4.711   4.174   1.462  1.3048 -0.0157  2.2847
  919MOL0     H24048   4.939   4.155   1.514  0.0700  0.4391 -0.5689
  919MOL0     H24049   5.351   3.865   1.414 -1.5719 -0.7268  0.9043
  919MOL0     H24050   5.577   3.921   1.443 -0.2095 -0.7451  0.5797
  919MOL0     H24051   7.004   4.150   1.334 -1.1312  0.1402  1.7187
  919MOL0     H24052   7.221   4.201   1.238  0.6221 -2.3575  0.8329
  919MOL0     H24053   7.674   4.242   1.313 -1.6541 -1.0702  2.4330
  919MOL0     H24054   7.910   4.232   1.338 -1.1479 -0.0231 -1.7955
  919MOL0     H24055   8.238   4.338   1.455  1.8881  1.2464 -2.3349
  919MOL0     H24056   8.092   4.234   1.439  0.6393 -1.2011 -2.0679
  919MOL0     H24057   8.219   4.373   1.204  0.4007 -0.3078 -1.5076
  919MOL0     H24058   8.073   4.275   1.198  1.5984  0.1030 -1.7580
  919MOL0     H24059   8.343   4.169   1.296  1.9802 -1.6081 -0.7517
  919MOL0     H24060   8.311   4.188   1.124 -1.3456 -1.4710 -0.2215
  919MOL0     H24061   8.103   4.057   1.164  1.1276  2.7527 -0.4647
  919MOL0     H24062   8.165   4.012   1.321  1.8844 -4.1244  0.3427
  919MOL0     H24063   8.397   3.749   1.128  0.3458  0.1692 -0.1769
  919MOL0     H24064   7.903   4.609   1.542 -2.1775  0.6491  2.6649
  919MOL0     H24065   7.660   4.602   1.550  1.0908 -2.1481  2.6025
  920MOL0     O24066   8.675  10.369   9.154  0.5500  0.3897 -0.6856
  920MOL0     C24067   8.741  10.404   9.252  0.8696  0.2734 -0.8454
  920MOL0     O24068   8.689  10.469   9.362  0.0310  0.0103 -0.4081
  920MOL0     C24069   8.554  10.467   9.366 -0.3545  0.2496 -0.3667
  920MOL0     C24070   8.493  10.399   9.467 -0.2130  0.1237 -0.4608
  920MOL0     C24071   8.347  10.387   9.477 -0.9385  0.2156 -0.2232
  920MOL0     C24072   8.258  10.447   9.385 -0.0971 -0.6323 -0.0282
  920MOL0     O24073   8.123  10.439   9.388  0.2096  0.1302 -0.1178
  920MOL0     C24074   8.060  10.401   9.515  0.1777 -0.2860  0.1670
  920MOL0     C24075   7.908  10.450   9.512  0.5123  0.3917  0.1250
  920MOL0     C24076   7.912  10.602   9.495  0.3382 -0.4679 -0.0050
  920MOL0     C24077   7.769  10.661   9.518  0.1682  0.6447  0.1915
  920MOL0     C24078   7.673  10.611   9.412 -0.5179 -0.3558 -0.1241
  920MOL0     C24079   7.550  10.701   9.389 -0.1070  0.4964 -0.4141
  920MOL0     C24080   7.493  10.692   9.253  0.7846  0.4431  0.2053
  920MOL0     C24081   7.405  10.562   9.222  0.3610 -0.0976 -0.6865
  920MOL0     N24082   7.256  10.579   9.249  0.2116  1.2044 -0.1198
  920MOL0     C24083   7.157  10.591   9.158 -0.0516 -0.0355  0.1271
  920MOL0     C24084   7.047  10.555   9.225  0.4353 -0.6516 -0.2410
  920MOL0     C24085   6.911  10.560   9.176  0.5432 -0.3160  0.1842
  920MOL0     C24086   6.827  10.676   9.235  0.3717  0.5572  0.0340
  920MOL0     C24087   6.683  10.668   9.168  0.6554 -0.8551  0.0378
  920MOL0     C24088   6.562  10.713   9.256 -0.8532 -0.1889 -0.3496
  920MOL0     O24089   6.519  10.608   9.347 -1.2631 -0.4885  0.3673
  920MOL0     C24090   6.417  10.636   9.437 -1.2664 -0.2500  0.2846
  920MOL0     C24091   6.306  10.543   9.442  0.0760 -0.9124 -0.8407
  920MOL0     C24092   6.188  10.573   9.518  0.2137 -0.3024 -0.7413
  920MOL0     C24093   6.082  10.462   9.519  0.0772  0.2099 -0.8527
  920MOL0     C24094   6.193  10.689   9.608  0.6597  1.0158 -0.1463
  920MOL0     C24095   6.097  10.711   9.719 -0.0361 -0.2428 -1.0526
  920MOL0     O24096   6.128  10.815   9.806 -0.5652 -0.2902  0.0346
  920MOL0     C24097   6.072  10.822   9.933  0.5767  0.2102 -0.3031
  920MOL0     C24098   5.940  10.787   9.962  0.1500  0.2026  0.3470
  920MOL0     C24099   5.897  10.783  10.091 -0.8723  0.0363  0.1718
  920MOL0     C24100   5.988  10.829  10.195  0.1775 -0.1049  0.9637
  920MOL0     O24101   5.933  10.809  10.319  0.2283  0.6872 -0.4825
  920MOL0     C24102   6.024  10.755  10.418  0.5108 -0.3187 -1.1824
  920MOL0     C24103   5.950  10.744  10.549 -0.4091 -0.8957  0.0032
  920MOL0     C24104   5.904  10.868  10.623 -0.8772 -0.3916  0.7605
  920MOL0     C24105   6.000  10.981  10.601  0.0112  0.1095  0.3108
  920MOL0     C24106   5.963  11.109  10.683 -0.8687  0.1041 -0.3854
  920MOL0     C24107   6.045  11.228  10.639 -0.3327  0.5448  0.2098
  920MOL0     C24108   5.998  11.356  10.716  0.3532  0.4443 -0.0557
  920MOL0     C24109   6.109  11.417  10.796 -0.8097 -0.1141  0.2244
  920MOL0    Cl24110   6.125  11.602  10.800 -0.3485 -0.2681 -0.0954
  920MOL0     C24111   6.117  10.880  10.159  0.2802 -0.1563  0.0771
  920MOL0     C24112   6.159  10.860  10.029 -1.0705 -0.3613 -0.8887
  920MOL0     O24113   5.992  10.655   9.724  0.3527  0.5958 -1.2095
  920MOL0     C24114   6.311  10.775   9.602  0.4616  0.5158  0.4069
  920MOL0     C24115   6.407  10.754   9.515 -1.7907 -0.0791  0.3547
  920MOL0     N24116   7.078  10.548   9.363  0.1037 -0.2500  0.2633
  920MOL0     N24117   7.202  10.577   9.374 -0.7036  0.5896  0.4107
  920MOL0     C24118   8.322  10.520   9.282  1.1014  0.5373  0.4033
  920MOL0     C24119   8.469  10.527   9.279  1.1152  0.5797  0.0057
  920MOL0     C24120   8.888  10.401   9.241 -0.1339 -0.0053  0.7442
  920MOL0     C24121   8.954  10.334   9.128  1.2075 -0.3192  0.8040
  920MOL0     C24122   9.087  10.320   9.120 -0.3636  0.3701  0.4597
  920MOL0     C24123   9.175  10.364   9.209 -0.5074  0.8342 -0.5263
  920MOL0     O24124   9.313  10.353   9.198 -0.2952  0.1017  0.3120
  920MOL0     C24125   9.369  10.254   9.108 -0.8648 -0.3889  0.4255
  920MOL0     C24126   9.510  10.218   9.145  0.2508  0.2467 -0.8824
  920MOL0     C24127   9.518  10.055   9.138  0.1207 -0.6553 -0.3958
  920MOL0     C24128   9.667  10.016   9.114 -0.9666 -0.1765 -0.2285
  920MOL0     C24129   9.760  10.059   9.222  0.0155  0.0049 -0.5332
  920MOL0     C24130   9.837  10.094   9.314 -0.1410 -0.0858  0.7539
  920MOL0     C24131   9.120  10.429   9.324  0.2095  0.6243 -0.1730
  920MOL0     C24132   8.977  10.448   9.341 -0.7004 -0.0410  0.2198
  920MOL0     H24133   8.554  10.346   9.539 -3.9638 -1.9511  1.5083
  920MOL0     H24134   8.309  10.332   9.563 -1.2779  1.6223  0.5451
  920MOL0     H24135   8.052  10.295   9.540 -2.4915  0.0404  0.9972
  920MOL0     H24136   8.111  10.446   9.600 -0.7822  1.9897 -0.3844
  920MOL0     H24137   7.853  10.409   9.426 -1.7244 -0.0162  1.6626
  920MOL0     H24138   7.860  10.419   9.605  0.8469  1.0573  0.5285
  920MOL0     H24139   7.978  10.644   9.572 -0.7023  1.8860 -0.2968
  920MOL0     H24140   7.930  10.638   9.393 -2.9585 -0.9197 -0.8286
  920MOL0     H24141   7.729  10.638   9.617  0.7224 -1.5847 -0.0581
  920MOL0     H24142   7.794  10.767   9.506  1.6348  0.2998  0.0048
  920MOL0     H24143   7.724  10.605   9.315 -1.6767  0.5460 -0.8198
  920MOL0     H24144   7.628  10.516   9.442  0.4329 -0.0774  2.3710
  920MOL0     H24145   7.471  10.677   9.461 -0.1471  1.8052  0.0111
  920MOL0     H24146   7.587  10.803   9.400  0.7282  0.2319 -0.7009
  920MOL0     H24147   7.422  10.775   9.251 -2.3116 -2.0079  0.1712
  920MOL0     H24148   7.574  10.711   9.182  2.4371 -1.9683  1.2967
  920MOL0     H24149   7.448  10.484   9.285 -1.2920  1.0174  1.9722
  920MOL0     H24150   7.410  10.536   9.116  0.3533  1.5324 -1.1216
  920MOL0     H24151   7.173  10.610   9.052 -1.5473  6.3625  0.6413
  920MOL0     H24152   6.920  10.553   9.067  4.3152 -4.5215  0.4827
  920MOL0     H24153   6.869  10.467   9.215  2.6442 -0.7115  1.6949
  920MOL0     H24154   6.879  10.770   9.212  0.9517  0.6229  1.5445
  920MOL0     H24155   6.820  10.657   9.342 -1.2714 -1.1651 -0.3290
  920MOL0     H24156   6.660  10.569   9.128 -0.8483  0.2740 -2.0711
  920MOL0     H24157   6.684  10.738   9.085  1.1812 -0.5257  0.3150
  920MOL0     H24158   6.492  10.740   9.177  0.9758  1.2461 -1.5532
  920MOL0     H24159   6.586  10.804   9.312 -1.8573 -1.1632  1.7908
  920MOL0     H24160   6.312  10.455   9.379 -0.7003 -3.2467  2.0716
  920MOL0     H24161   6.102  10.409   9.613 -0.5193  1.1589 -0.1633
  920MOL0     H24162   5.975  10.486   9.512 -0.2503  0.3090  2.6734
  920MOL0     H24163   6.097  10.384   9.444  0.4320 -0.0332 -0.5387
  920MOL0     H24164   5.869  10.764   9.884 -0.7434 -0.6141  1.3731
  920MOL0     H24165   5.806  10.734  10.125 -1.0078  1.3392  1.8090
  920MOL0     H24166   6.046  10.651  10.393  0.0475 -1.1433  1.5302
  920MOL0     H24167   6.119  10.808  10.429 -0.5385  1.3642  0.2632
  920MOL0     H24168   5.867  10.681  10.517 -1.3191  0.0127  0.5149
  920MOL0     H24169   6.004  10.680  10.619  1.1785 -2.3118 -2.3781
  920MOL0     H24170   5.887  10.852  10.730 -0.4694 -1.2190  0.7124
  920MOL0     H24171   5.809  10.894  10.575 -1.9641 -2.2014  1.7934
  920MOL0     H24172   6.100  10.954  10.637  1.0125  1.8877 -0.9967
  920MOL0     H24173   6.015  11.004  10.495 -0.2859 -0.1496  0.2126
  920MOL0     H24174   5.983  11.091  10.790 -2.3527 -0.9491 -0.2524
  920MOL0     H24175   5.858  11.130  10.661 -1.2570 -1.2915  0.0463
  920MOL0     H24176   6.152  11.211  10.655  0.6014  2.1604 -3.2740
  920MOL0     H24177   6.030  11.247  10.532 -1.0902  1.0335  0.3951
  920MOL0     H24178   5.917  11.333  10.786  0.2649 -0.4571 -0.4387
  920MOL0     H24179   5.955  11.421  10.640  3.6711 -2.8143 -5.4106
  920MOL0     H24180   6.199  11.372  10.754 -0.1714  2.0314 -0.8520
  920MOL0     H24181   6.099  11.388  10.902  1.5857  0.2849  0.6091
  920MOL0     H24182   6.201  10.901  10.225  0.9157  1.6879 -1.2277
  920MOL0     H24183   6.260  10.870   9.991 -0.8221  0.8857  0.0392
  920MOL0     H24184   6.309  10.862   9.667  1.4500  0.6580  0.2601
  920MOL0     H24185   6.496  10.816   9.526 -1.8993 -0.0730  1.2761
  920MOL0     H24186   8.262  10.569   9.206  1.6421  1.0990  0.3361
  920MOL0     H24187   8.510  10.589   9.201 -1.0128  1.3043 -0.6055
  920MOL0     H24188   8.888  10.290   9.054  1.1461  0.4766  0.3694
  920MOL0     H24189   9.141  10.272   9.039  2.9184  1.6120  1.7385
  920MOL0     H24190   9.311  10.162   9.121  0.4947 -1.2422  0.6254
  920MOL0     H24191   9.370  10.290   9.004 -3.7747 -2.6668 -0.5504
  920MOL0     H24192   9.531  10.250   9.248 -1.6159 -2.3444  0.4276
  920MOL0     H24193   9.574  10.258   9.066 -0.5595  0.8653 -1.2315
  920MOL0     H24194   9.467  10.014   9.050  3.4030  0.2999 -2.9803
  920MOL0     H24195   9.484  10.005   9.229 -0.5684  0.1840 -0.1801
  920MOL0     H24196   9.701  10.048   9.016  1.6704  0.1131  0.6967
  920MOL0     H24197   9.673   9.906   9.109  3.4352 -0.3667  3.2631
  920MOL0     H24198   9.906  10.146   9.378  1.9138  3.9169 -4.0782
  920MOL0     H24199   9.188  10.461   9.402 -2.1817 -1.6228  3.0910
  920MOL0     H24200   8.931  10.494   9.428 -3.0949 -0.3202 -0.8410
  921MOL0     O24201   3.465   7.986   2.015  0.0261  0.4662  0.1784
  921MOL0     C24202   3.502   7.878   1.959  0.1865 -0.2079 -0.1896
  921MOL0     O24203   3.418   7.791   1.897  0.3016  0.3502  0.1373
  921MOL0     C24204   3.282   7.820   1.892 -0.7549  0.1717  0.7053
  921MOL0     C24205   3.233   7.936   1.831  0.2294 -0.1999 -0.2113
  921MOL0     C24206   3.094   7.958   1.821  0.2478 -0.4314 -0.4736
  921MOL0     C24207   2.997   7.866   1.872 -0.3023 -0.4180 -0.3898
  921MOL0     O24208   2.864   7.895   1.879 -0.1150  0.3040  0.1300
  921MOL0     C24209   2.814   8.031   1.890 -1.0878 -0.6317 -0.1446
  921MOL0     C24210   2.665   8.027   1.921 -1.0049 -0.1061  0.2866
  921MOL0     C24211   2.566   7.942   1.830  0.2163 -0.3813  0.2177
  921MOL0     C24212   2.518   8.031   1.704  0.8252 -1.0699  0.3661
  921MOL0     C24213   2.430   7.943   1.611 -0.5513  0.0728 -0.6212
  921MOL0     C24214   2.360   8.013   1.490  0.4339 -0.0578 -0.6217
  921MOL0     C24215   2.256   7.924   1.413 -0.1735 -0.6449  0.7625
  921MOL0     C24216   2.160   7.998   1.328 -0.3049  0.1409 -0.4129
  921MOL0     N24217   2.072   8.081   1.410 -0.3299 -0.0274  0.7383
  921MOL0     C24218   1.955   8.027   1.452  0.0048 -0.6683 -0.8304
  921MOL0     C24219   1.884   8.142   1.471 -0.2450 -0.1186  0.6860
  921MOL0     C24220   1.750   8.150   1.537 -0.4999 -0.0864  0.5971
  921MOL0     C24221   1.644   8.196   1.432 -0.6776  0.0886 -0.3914
  921MOL0     C24222   1.502   8.203   1.497 -0.5820 -0.0070  1.1558
  921MOL0     C24223   1.449   8.067   1.534  0.4175 -0.0639  0.0214
  921MOL0     O24224   1.449   7.979   1.417  0.8592 -0.0984 -0.7110
  921MOL0     C24225   1.328   7.932   1.372 -0.2088 -0.0665 -0.1347
  921MOL0     C24226   1.327   7.815   1.297 -0.5959 -0.1359 -0.4171
  921MOL0     C24227   1.217   7.763   1.230 -0.2710  0.7279 -0.1866
  921MOL0     C24228   1.224   7.631   1.167  0.3454  0.3305  0.5832
  921MOL0     C24229   1.092   7.833   1.246  0.4555  0.0058 -0.0099
  921MOL0     C24230   0.962   7.802   1.181 -0.1041 -0.0806  0.4055
  921MOL0     O24231   0.858   7.881   1.212  0.3192 -0.1185 -0.7535
  921MOL0     C24232   0.740   7.890   1.149 -0.1278  0.2125  0.4271
  921MOL0     C24233   0.652   7.990   1.203 -0.9860 -0.5125  0.7176
  921MOL0     C24234   0.528   8.023   1.161  0.3886 -0.6234 -0.0089
  921MOL0     C24235   0.475   7.957   1.051 -0.2690 -0.5060  0.5287
  921MOL0     O24236   0.348   7.976   0.992 -0.0878 -0.3707  0.2832
  921MOL0     C24237   0.237   7.986   1.081 -0.5013  0.4432  0.3849
  921MOL0     C24238   0.135   7.885   1.038  0.5425  0.2091 -0.6815
  921MOL0     C24239   0.007   7.894   1.119 -0.5819 -0.1261 -1.1232
  921MOL0     C24240  -0.092   7.803   1.057 -0.0210  0.4169  0.7912
  921MOL0     C24241  -0.232   7.803   1.121 -0.1567  0.0712 -0.0576
  921MOL0     C24242  -0.308   7.692   1.066  0.0319 -0.5451  0.9445
  921MOL0     C24243  -0.440   7.647   1.140 -0.2069  0.1145 -0.2080
  921MOL0     C24244  -0.541   7.756   1.179  0.7549  0.7364 -1.1182
  921MOL0    Cl24245  -0.484   7.851   1.314  0.3227 -0.4711 -0.4638
  921MOL0     C24246   0.570   7.867   0.982 -0.0119  0.2887 -0.4903
  921MOL0     C24247   0.701   7.830   1.031 -0.4007  0.1517  1.0861
  921MOL0     O24248   0.958   7.707   1.102 -0.5781  0.7694 -0.0127
  921MOL0     C24249   1.096   7.959   1.315  0.2917  0.5414  0.2834
  921MOL0     C24250   1.207   8.006   1.373 -0.3276  0.2730  0.2451
  921MOL0     N24251   1.956   8.250   1.453 -0.4518  0.4837 -0.3648
  921MOL0     N24252   2.065   8.216   1.404 -0.0992  0.5450 -0.1070
  921MOL0     C24253   3.051   7.741   1.922  1.0883 -0.2820 -0.4644
  921MOL0     C24254   3.190   7.722   1.929  0.9846  0.9990  1.1929
  921MOL0     C24255   3.648   7.856   1.946 -0.6569  1.1832 -0.8460
  921MOL0     C24256   3.737   7.961   1.965 -0.8428  0.4462  0.1487
  921MOL0     C24257   3.875   7.947   1.947 -0.0001 -0.5786  0.5934
  921MOL0     C24258   3.926   7.817   1.906 -0.9624 -0.3790 -0.0592
  921MOL0     O24259   4.065   7.795   1.894  0.8432 -0.1283 -0.5808
  921MOL0     C24260   4.145   7.892   1.834 -0.3919  0.4813 -0.6938
  921MOL0     C24261   4.272   7.817   1.781  0.0231 -0.2566 -0.3391
  921MOL0     C24262   4.235   7.739   1.654 -0.3109  0.3823 -0.2614
  921MOL0     C24263   4.365   7.685   1.589 -0.6438 -0.3845  0.2853
  921MOL0     C24264   4.462   7.631   1.687 -0.6538  0.2424 -0.0600
  921MOL0     C24265   4.558   7.608   1.764 -0.0146 -0.2628 -0.0357
  921MOL0     C24266   3.839   7.705   1.905 -0.7352 -0.1640  0.8448
  921MOL0     C24267   3.706   7.726   1.928  0.6764 -0.4037  1.1686
  921MOL0     H24268   3.303   8.015   1.806 -0.5382  1.2216  1.8639
  921MOL0     H24269   3.055   8.044   1.768  1.8700  0.9947  0.5197
  921MOL0     H24270   2.856   8.086   1.975 -1.7055  1.7311 -1.2901
  921MOL0     H24271   2.826   8.096   1.803 -1.2562  0.4941  0.6528
  921MOL0     H24272   2.681   7.977   2.017  2.6263 -0.5647 -0.4297
  921MOL0     H24273   2.630   8.130   1.935 -0.3781  0.4310 -1.7985
  921MOL0     H24274   2.616   7.849   1.803 -2.8313 -1.4765 -2.2420
  921MOL0     H24275   2.474   7.917   1.883  0.9807  1.1634  2.3989
  921MOL0     H24276   2.465   8.122   1.729 -2.8069 -2.9603  0.2149
  921MOL0     H24277   2.613   8.045   1.651 -0.4826 -0.1522 -1.9276
  921MOL0     H24278   2.497   7.861   1.586  0.1572  0.2455  0.6166
  921MOL0     H24279   2.350   7.889   1.663  0.9972 -2.2759 -0.5098
  921MOL0     H24280   2.309   8.103   1.527 -2.9804 -1.5417 -1.3346
  921MOL0     H24281   2.429   8.047   1.413 -0.4014  1.5875 -0.6797
  921MOL0     H24282   2.312   7.867   1.339  0.6663  1.5855 -0.4327
  921MOL0     H24283   2.200   7.861   1.482 -0.3628 -1.0752  0.2194
  921MOL0     H24284   2.108   7.927   1.263 -2.1406 -0.4229  1.5575
  921MOL0     H24285   2.211   8.076   1.270 -1.0118  3.0950  2.6176
  921MOL0     H24286   1.917   7.926   1.462 -0.5727 -0.5945 -2.0545
  921MOL0     H24287   1.726   8.050   1.573  2.3336 -0.4734  1.6002
  921MOL0     H24288   1.752   8.224   1.617 -0.4082  0.7107 -0.1177
  921MOL0     H24289   1.659   8.147   1.336  2.7962  0.9785 -0.4406
  921MOL0     H24290   1.681   8.296   1.407  2.0080 -0.3688  1.3836
  921MOL0     H24291   1.445   8.255   1.420  0.6162  2.3759  1.7585
  921MOL0     H24292   1.498   8.274   1.581  1.0190  1.7560 -0.1822
  921MOL0     H24293   1.349   8.087   1.575  1.2076  3.5111  0.5330
  921MOL0     H24294   1.501   8.027   1.621 -2.1586 -1.4982  0.9976
  921MOL0     H24295   1.428   7.776   1.288  0.2158  2.1320 -2.1956
  921MOL0     H24296   1.329   7.603   1.173  0.5036  0.7536 -0.1872
  921MOL0     H24297   1.156   7.566   1.225  0.9468 -0.7414  0.1176
  921MOL0     H24298   1.194   7.636   1.062  0.1446 -0.4001  0.5975
  921MOL0     H24299   0.691   8.045   1.289 -3.3126 -1.1587  2.2776
  921MOL0     H24300   0.463   8.090   1.217  1.7183  0.5263  0.2125
  921MOL0     H24301   0.267   7.956   1.182 -1.1877 -2.2134 -0.1295
  921MOL0     H24302   0.196   8.088   1.083 -0.1616  0.6064 -0.4573
  921MOL0     H24303   0.113   7.902   0.933  2.9771  1.2167 -1.0945
  921MOL0     H24304   0.181   7.786   1.041  0.7299  0.2628 -1.5590
  921MOL0     H24305  -0.042   7.992   1.115  1.5761  1.1051  0.7903
  921MOL0     H24306   0.016   7.863   1.223 -0.2204 -0.3152 -1.2093
  921MOL0     H24307  -0.098   7.819   0.949  4.1715  2.4061  0.6623
  921MOL0     H24308  -0.052   7.702   1.067 -0.2047  0.1885 -0.5385
  921MOL0     H24309  -0.282   7.899   1.104  3.1462  1.4025 -4.1810
  921MOL0     H24310  -0.218   7.776   1.226 -2.5811  1.1554  0.6177
  921MOL0     H24311  -0.327   7.719   0.962  1.5255 -1.0257  0.5157
  921MOL0     H24312  -0.249   7.600   1.062  0.1331 -0.4199 -1.6129
  921MOL0     H24313  -0.422   7.586   1.229 -1.4684  1.6595  1.1544
  921MOL0     H24314  -0.483   7.574   1.071 -0.0513  0.2906 -0.4923
  921MOL0     H24315  -0.638   7.717   1.211  1.6673 -4.0014 -3.2583
  921MOL0     H24316  -0.554   7.830   1.099 -0.2192 -0.0565 -1.7195
  921MOL0     H24317   0.538   7.821   0.889 -1.1503  0.0993 -0.0272
  921MOL0     H24318   0.770   7.756   0.992  0.9673  0.3014  3.0700
  921MOL0     H24319   1.006   8.015   1.338  1.1256  2.1565 -0.2618
  921MOL0     H24320   1.208   8.106   1.415 -0.6591  0.2813  0.2363
  921MOL0     H24321   2.980   7.665   1.952 -0.9616  2.1302  1.1321
  921MOL0     H24322   3.235   7.631   1.969  0.7267  0.8623  1.1763
  921MOL0     H24323   3.696   8.056   1.998 -1.4921  0.9033 -1.8680
  921MOL0     H24324   3.942   8.032   1.961  1.1483 -0.6300 -3.3200
  921MOL0     H24325   4.092   7.955   1.762  1.0240  0.3908 -1.8589
  921MOL0     H24326   4.178   7.948   1.922 -0.0632 -1.3489  0.3996
  921MOL0     H24327   4.317   7.759   1.862  0.2638 -1.7476 -1.5108
  921MOL0     H24328   4.348   7.887   1.745  0.0355  0.7722  1.5508
  921MOL0     H24329   4.187   7.807   1.583  0.1334  0.4610 -0.4876
  921MOL0     H24330   4.172   7.652   1.677 -1.4923  1.0511 -0.8914
  921MOL0     H24331   4.401   7.771   1.532 -3.6460  0.0214 -1.2151
  921MOL0     H24332   4.328   7.605   1.524  0.0794 -0.4700 -0.0206
  921MOL0     H24333   4.639   7.593   1.833 -1.5995  1.1118  2.2554
  921MOL0     H24334   3.864   7.602   1.878  0.7577 -0.1549  2.1121
  921MOL0     H24335   3.641   7.638   1.929  0.9447 -0.6013  2.7800
  922MOL0     O24336   9.667   0.622   3.425  0.1570 -0.3005 -0.2140
  922MOL0     C24337   9.663   0.600   3.301  0.2082 -0.0468 -0.0901
  922MOL0     O24338   9.551   0.594   3.222 -0.2769  0.9935 -0.5738
  922MOL0     C24339   9.423   0.593   3.274 -1.3818  0.3801 -0.1446
  922MOL0     C24340   9.391   0.656   3.391  0.0377  0.4227  0.8405
  922MOL0     C24341   9.261   0.656   3.435 -0.1304  0.4490  0.1964
  922MOL0     C24342   9.156   0.595   3.363  0.2583 -0.0864 -0.4299
  922MOL0     O24343   9.034   0.584   3.430 -0.2865 -0.3705  0.3717
  922MOL0     C24344   8.936   0.692   3.392 -0.4799  0.2101 -1.2201
  922MOL0     C24345   8.927   0.797   3.499 -0.4497 -0.4515 -0.1257
  922MOL0     C24346   8.795   0.878   3.493 -0.2819 -0.7760  0.0713
  922MOL0     C24347   8.803   0.985   3.376 -0.3119 -0.5528  0.4292
  922MOL0     C24348   8.698   1.094   3.400 -0.6672 -0.6344  0.0061
  922MOL0     C24349   8.742   1.219   3.324  0.3963  0.2861 -0.4519
  922MOL0     C24350   8.619   1.311   3.308 -0.3267 -0.0095 -0.1022
  922MOL0     C24351   8.663   1.450   3.260  0.0155 -0.1756  0.7035
  922MOL0     N24352   8.555   1.537   3.221 -0.1758  0.3504 -0.5064
  922MOL0     C24353   8.466   1.531   3.113  0.9429 -0.4830  0.0456
  922MOL0     C24354   8.366   1.624   3.130 -0.4960 -0.5861 -0.2716
  922MOL0     C24355   8.244   1.662   3.038 -1.2623  0.3937  0.5098
  922MOL0     C24356   8.120   1.673   3.127  0.3046  0.4198 -0.7912
  922MOL0     C24357   8.018   1.751   3.050  0.3647  0.3319  0.5630
  922MOL0     C24358   7.875   1.737   3.121  0.1532  0.2968  0.2703
  922MOL0     O24359   7.785   1.817   3.050  0.1013 -0.2958  0.3657
  922MOL0     C24360   7.658   1.772   3.035  0.0757  0.1255  0.3490
  922MOL0     C24361   7.583   1.760   3.146 -0.1583 -0.3121  0.7196
  922MOL0     C24362   7.447   1.744   3.134 -0.8304  1.5784 -0.1437
  922MOL0     C24363   7.371   1.729   3.264  0.0155 -0.2507 -0.3162
  922MOL0     C24364   7.386   1.716   3.014 -0.2876  0.4193  0.6407
  922MOL0     C24365   7.241   1.695   2.987  0.0920 -1.0644  0.6794
  922MOL0     O24366   7.212   1.664   2.861  0.9621  0.1347 -0.4947
  922MOL0     C24367   7.092   1.703   2.807  0.3770 -0.2086  0.0736
  922MOL0     C24368   7.078   1.833   2.763 -0.3713 -0.0929  0.6029
  922MOL0     C24369   6.954   1.877   2.714 -0.2534  0.3855  0.1221
  922MOL0     C24370   6.842   1.792   2.716  0.0693  0.2562 -0.1459
  922MOL0     O24371   6.720   1.822   2.665  1.1170  0.9531 -0.6549
  922MOL0     C24372   6.697   1.929   2.580 -0.6467  0.2451 -0.4707
  922MOL0     C24373   6.546   1.927   2.559 -0.1057 -0.1685  0.2844
  922MOL0     C24374   6.513   1.825   2.450 -0.8446  0.3528  0.4989
  922MOL0     C24375   6.366   1.828   2.409  0.0335  0.7844  0.1140
  922MOL0     C24376   6.324   1.752   2.274  0.4892  0.5598  0.6106
  922MOL0     C24377   6.174   1.769   2.247 -0.3874  1.0653 -0.5141
  922MOL0     C24378   6.122   1.696   2.123  0.2828 -0.2800 -0.1879
  922MOL0     C24379   5.971   1.681   2.122 -0.0829  0.0815 -0.7870
  922MOL0    Cl24380   5.930   1.632   1.961 -0.2568  0.0632 -0.4146
  922MOL0     C24381   6.860   1.658   2.749 -0.4212  0.1210 -0.0224
  922MOL0     C24382   6.983   1.608   2.796 -0.3696 -0.5649  0.4357
  922MOL0     O24383   7.165   1.742   3.067  0.2209 -0.4215 -0.4124
  922MOL0     C24384   7.473   1.713   2.898 -0.5193 -0.0580 -0.3239
  922MOL0     C24385   7.610   1.749   2.914 -0.0176  0.1237  0.4804
  922MOL0     N24386   8.395   1.674   3.260  0.4699  0.2757  0.8561
  922MOL0     N24387   8.505   1.628   3.309 -0.6137  0.5088 -0.4857
  922MOL0     C24388   9.188   0.548   3.238 -0.1976 -0.2995  0.3191
  922MOL0     C24389   9.320   0.543   3.194 -0.1124  0.4399  0.6073
  922MOL0     C24390   9.788   0.589   3.233 -0.8279 -0.2941  0.6539
  922MOL0     C24391   9.789   0.560   3.104  0.0433 -0.2293  0.6419
  922MOL0     C24392   9.912   0.551   3.036 -0.7445 -0.9892 -0.0804
  922MOL0     C24393  10.037   0.562   3.101 -0.6809 -0.6704  0.1165
  922MOL0     O24394  10.147   0.530   3.027 -0.6671  0.2575  0.6201
  922MOL0     C24395  10.265   0.496   3.094 -0.4050 -0.2083 -1.6762
  922MOL0     C24396  10.368   0.466   2.988 -0.7043  0.1614 -0.5866
  922MOL0     C24397  10.499   0.429   3.041 -1.2289  0.1020  0.5618
  922MOL0     C24398  10.593   0.354   2.932  0.5999 -0.0638 -0.2585
  922MOL0     C24399  10.653   0.442   2.829 -0.0426 -0.4104 -0.7143
  922MOL0     C24400  10.695   0.513   2.743 -0.2571 -0.3230  0.3460
  922MOL0     C24401  10.034   0.577   3.240 -0.0515  0.8792 -0.0908
  922MOL0     C24402   9.909   0.602   3.303 -0.4804 -0.5287  1.2210
  922MOL0     H24403   9.466   0.702   3.455  2.4436 -0.1076 -1.4187
  922MOL0     H24404   9.231   0.699   3.529  0.1333 -3.1075  2.0918
  922MOL0     H24405   8.958   0.734   3.293  2.8044  0.8347 -0.3668
  922MOL0     H24406   8.836   0.650   3.378 -0.6989 -0.2504  1.1991
  922MOL0     H24407   8.940   0.753   3.598 -0.8103 -0.9643 -0.2974
  922MOL0     H24408   9.011   0.865   3.487 -0.8958 -0.1602 -1.9483
  922MOL0     H24409   8.703   0.819   3.494 -1.8165  1.5238  0.9879
  922MOL0     H24410   8.804   0.944   3.579 -0.7867 -0.9642  0.2705
  922MOL0     H24411   8.904   1.025   3.382 -0.9302  0.9826  1.5111
  922MOL0     H24412   8.786   0.950   3.274  0.3420  3.2113 -1.1357
  922MOL0     H24413   8.603   1.069   3.352  0.2158 -0.8719 -1.7120
  922MOL0     H24414   8.677   1.113   3.505 -3.6277 -0.3950 -0.5318
  922MOL0     H24415   8.825   1.276   3.366  1.4828 -1.5443 -0.0402
  922MOL0     H24416   8.772   1.182   3.226  1.3036 -0.8630  0.2416
  922MOL0     H24417   8.552   1.269   3.233 -0.6213  0.2979 -0.0136
  922MOL0     H24418   8.557   1.314   3.398  0.1835  1.3981  0.2384
  922MOL0     H24419   8.728   1.434   3.174 -0.0593  0.3479  0.5450
  922MOL0     H24420   8.728   1.501   3.332  0.2828  2.2178 -1.1185
  922MOL0     H24421   8.459   1.458   3.033 -2.3554 -1.8272  1.4062
  922MOL0     H24422   8.257   1.756   2.983 -1.2090 -1.0697 -2.1534
  922MOL0     H24423   8.230   1.587   2.960  0.8958  2.2124 -1.8069
  922MOL0     H24424   8.132   1.721   3.225 -2.7903 -0.4058  0.1142
  922MOL0     H24425   8.081   1.574   3.151  0.6639  0.7531  1.3734
  922MOL0     H24426   8.009   1.713   2.948 -1.8736 -0.6065  1.0673
  922MOL0     H24427   8.053   1.854   3.057 -2.1982  1.2569  0.7635
  922MOL0     H24428   7.884   1.768   3.225  2.5157  0.9648 -0.0667
  922MOL0     H24429   7.834   1.636   3.120 -1.0481  0.7647 -0.0997
  922MOL0     H24430   7.628   1.777   3.243  1.7922  3.3789 -0.6545
  922MOL0     H24431   7.319   1.824   3.279 -0.8808 -0.5401 -1.3992
  922MOL0     H24432   7.287   1.658   3.268  0.9164 -1.4170  5.0515
  922MOL0     H24433   7.431   1.698   3.350 -0.6770  0.4722  0.4446
  922MOL0     H24434   7.160   1.903   2.751  0.3503 -0.7029  1.8147
  922MOL0     H24435   6.957   1.979   2.677  1.1125  1.4548  2.8802
  922MOL0     H24436   6.734   2.024   2.618 -0.4822  0.7504 -1.8304
  922MOL0     H24437   6.764   1.919   2.494  2.5681  2.0989  1.6047
  922MOL0     H24438   6.498   1.913   2.657 -0.2421  0.4831  0.3099
  922MOL0     H24439   6.523   2.027   2.522  0.9283  0.8543  2.2114
  922MOL0     H24440   6.542   1.722   2.471 -1.6966 -0.3138 -1.3414
  922MOL0     H24441   6.576   1.855   2.366 -1.5946  3.2168  0.8291
  922MOL0     H24442   6.307   1.789   2.493  2.4881 -0.0343  1.5546
  922MOL0     H24443   6.337   1.933   2.404  0.0497  0.7565 -0.7757
  922MOL0     H24444   6.347   1.646   2.291 -0.5794  0.2852  0.3711
  922MOL0     H24445   6.372   1.801   2.188  1.8866  1.1849  1.7097
  922MOL0     H24446   6.115   1.734   2.332  1.6104  0.7345  0.7852
  922MOL0     H24447   6.151   1.876   2.241 -0.5729  1.0888  0.4466
  922MOL0     H24448   6.168   1.599   2.107  2.0246  0.8334 -2.5521
  922MOL0     H24449   6.130   1.759   2.034 -1.2789 -0.4360 -0.4602
  922MOL0     H24450   5.927   1.780   2.138  0.9995  1.0076 -3.0111
  922MOL0     H24451   5.939   1.610   2.199  1.9845  1.9162  1.9319
  922MOL0     H24452   6.788   1.579   2.730  0.7670 -0.9739 -0.1244
  922MOL0     H24453   7.005   1.502   2.808 -1.1560 -0.5331  2.4886
  922MOL0     H24454   7.436   1.698   2.797  1.7242 -0.7057 -1.1121
  922MOL0     H24455   7.669   1.758   2.824  0.5949 -1.5716  0.6947
  922MOL0     H24456   9.108   0.493   3.190 -1.3146  0.6483  1.0441
  922MOL0     H24457   9.342   0.496   3.098  3.1878  0.6442  1.1479
  922MOL0     H24458   9.704   0.527   3.044  1.8381  0.0700 -2.2870
  922MOL0     H24459   9.907   0.529   2.930 -0.9464  0.2175 -0.3336
  922MOL0     H24460  10.299   0.573   3.165  0.0942  0.2628 -2.4142
  922MOL0     H24461  10.241   0.407   3.153  0.7606 -1.8135 -3.4996
  922MOL0     H24462  10.379   0.551   2.920  0.7149 -0.0042 -0.5847
  922MOL0     H24463  10.338   0.379   2.929 -2.1963  0.9787 -1.0945
  922MOL0     H24464  10.482   0.355   3.119  1.3985  0.1253  1.2702
  922MOL0     H24465  10.549   0.518   3.081  0.0538 -0.1305 -0.4312
  922MOL0     H24466  10.543   0.270   2.884  1.8191 -0.8543 -0.1665
  922MOL0     H24467  10.678   0.316   2.988 -0.8456 -1.5413  1.0378
  922MOL0     H24468  10.729   0.570   2.659 -1.4288  1.2154  0.8679
  922MOL0     H24469  10.127   0.588   3.295 -0.2184 -1.8423  0.8567
  922MOL0     H24470   9.910   0.635   3.407 -2.5373  0.2482  1.0342
  923MOL0     O24471   3.305   8.481   1.301  0.0267 -0.4878 -0.2968
  923MOL0     C24472   3.300   8.493   1.174 -0.4430 -0.6740 -0.5598
  923MOL0     O24473   3.191   8.465   1.094  0.5284  0.2739 -0.1150
  923MOL0     C24474   3.073   8.428   1.144 -0.5853  0.8118 -0.5721
  923MOL0     C24475   3.021   8.473   1.270 -0.1812  0.5902  0.3764
  923MOL0     C24476   2.885   8.441   1.316  0.5438 -0.5037 -0.3168
  923MOL0     C24477   2.801   8.373   1.225 -0.2679 -0.7961  0.3681
  923MOL0     O24478   2.676   8.353   1.264  0.2216 -0.5096 -0.2906
  923MOL0     C24479   2.611   8.231   1.230 -0.8227 -0.0497  0.7314
  923MOL0     C24480   2.474   8.238   1.152  0.1329  0.3128 -0.4399
  923MOL0     C24481   2.383   8.343   1.217 -0.1926 -0.0798  0.4138
  923MOL0     C24482   2.387   8.473   1.151 -0.3020  0.0703  0.0937
  923MOL0     C24483   2.332   8.579   1.254  0.3573 -0.3968 -0.2777
  923MOL0     C24484   2.182   8.570   1.280  0.0330 -0.5608  0.1173
  923MOL0     C24485   2.135   8.655   1.391 -0.1886  0.4496 -0.0904
  923MOL0     C24486   2.144   8.568   1.521 -0.4763  0.5987 -1.0672
  923MOL0     N24487   2.066   8.609   1.642  0.2656  1.1548  0.5038
  923MOL0     C24488   1.953   8.543   1.682  0.0029 -0.2405  0.3458
  923MOL0     C24489   1.912   8.600   1.800 -1.2079  0.5615 -1.0454
  923MOL0     C24490   1.791   8.545   1.875 -0.6338 -0.1910 -0.4376
  923MOL0     C24491   1.652   8.553   1.805  0.0188  0.3226 -0.2880
  923MOL0     C24492   1.604   8.699   1.788 -0.2243 -0.4230  0.4543
  923MOL0     C24493   1.453   8.705   1.750 -0.2480 -0.3777  0.5891
  923MOL0     O24494   1.414   8.603   1.655 -0.7914  0.4408 -0.4470
  923MOL0     C24495   1.279   8.592   1.627 -0.4419 -0.3971 -0.4459
  923MOL0     C24496   1.225   8.476   1.577  0.4058  0.1692 -0.2647
  923MOL0     C24497   1.088   8.454   1.562 -0.6731 -0.8645  0.0720
  923MOL0     C24498   1.038   8.320   1.489  0.3067  0.3233 -0.9034
  923MOL0     C24499   0.998   8.559   1.606 -0.5705  0.5405 -0.3746
  923MOL0     C24500   0.849   8.550   1.617 -0.1693  0.0079 -0.3105
  923MOL0     O24501   0.769   8.662   1.661 -0.5644  0.4561 -0.1220
  923MOL0     C24502   0.634   8.643   1.660 -0.1264  0.5824  0.7799
  923MOL0     C24503   0.558   8.709   1.557  0.6765  0.7306  0.6096
  923MOL0     C24504   0.423   8.702   1.567  0.3612 -0.5085 -0.0492
  923MOL0     C24505   0.353   8.628   1.663  0.0234  0.3421 -0.0946
  923MOL0     O24506   0.217   8.609   1.654 -0.0794 -0.1626 -0.4375
  923MOL0     C24507   0.173   8.534   1.541 -1.2124  0.3475 -0.7389
  923MOL0     C24508   0.032   8.478   1.566  0.0799 -0.1083 -0.4345
  923MOL0     C24509  -0.066   8.585   1.620  0.9337 -0.1411 -1.1579
  923MOL0     C24510  -0.212   8.561   1.574 -0.4428 -0.0925 -0.4325
  923MOL0     C24511  -0.277   8.434   1.629 -0.4078  0.6594 -0.3165
  923MOL0     C24512  -0.420   8.421   1.578  0.1957 -0.2656  0.3363
  923MOL0     C24513  -0.474   8.275   1.576 -0.6304 -0.0742 -0.2566
  923MOL0     C24514  -0.501   8.229   1.719 -0.6955  0.5290 -0.0384
  923MOL0    Cl24515  -0.617   8.344   1.807 -0.1850 -0.4183 -1.2090
  923MOL0     C24516   0.427   8.562   1.762 -0.3244  0.3272 -0.0484
  923MOL0     C24517   0.568   8.572   1.758 -0.4233  0.2355  0.2862
  923MOL0     O24518   0.802   8.436   1.607 -0.7059 -0.1767  0.6674
  923MOL0     C24519   1.053   8.683   1.644 -1.0399  0.1559  0.0204
  923MOL0     C24520   1.194   8.701   1.650  0.2918 -0.6781  1.2012
  923MOL0     N24521   1.999   8.708   1.832  0.0093  0.1552  0.8600
  923MOL0     N24522   2.098   8.700   1.739  0.6137  0.1377 -0.3163
  923MOL0     C24523   2.845   8.352   1.092  0.2879 -0.0695 -0.5108
  923MOL0     C24524   2.980   8.365   1.054 -0.3931 -0.3610 -0.9484
  923MOL0     C24525   3.426   8.536   1.108 -0.1796 -0.1189 -0.2387
  923MOL0     C24526   3.425   8.536   0.968 -0.4718 -0.3119  0.0044
  923MOL0     C24527   3.540   8.572   0.898  0.9440 -1.0021  0.3289
  923MOL0     C24528   3.654   8.621   0.960 -0.0586 -0.0090 -0.0158
  923MOL0     O24529   3.754   8.668   0.867 -0.3265  0.9086  0.4859
  923MOL0     C24530   3.879   8.715   0.918  0.5858 -0.2318  0.6754
  923MOL0     C24531   3.987   8.602   0.943  0.5989  0.5362  0.0434
  923MOL0     C24532   4.012   8.521   0.816 -0.1636  0.0440  1.1615
  923MOL0     C24533   4.147   8.535   0.756 -0.1445 -0.5934  0.2253
  923MOL0     C24534   4.156   8.663   0.682  0.1910  0.2063 -0.6261
  923MOL0     C24535   4.154   8.767   0.616 -0.3525 -0.0368  0.2867
  923MOL0     C24536   3.665   8.615   1.099  1.0276 -0.2929  0.2637
  923MOL0     C24537   3.557   8.564   1.173  0.1763 -0.1711 -0.1097
  923MOL0     H24538   3.088   8.530   1.334 -0.8368 -0.9862  2.6093
  923MOL0     H24539   2.865   8.483   1.414 -1.0030 -1.6903 -0.0842
  923MOL0     H24540   2.674   8.174   1.161 -0.8709  1.1406 -0.3236
  923MOL0     H24541   2.600   8.169   1.319 -0.4614  0.1835  0.9365
  923MOL0     H24542   2.504   8.267   1.051  2.0078  0.2537  0.0700
  923MOL0     H24543   2.432   8.138   1.160  2.6429 -0.7885 -0.1185
  923MOL0     H24544   2.282   8.300   1.220 -0.6401  0.8557 -0.6081
  923MOL0     H24545   2.416   8.361   1.320  0.8844 -0.4713  0.1457
  923MOL0     H24546   2.488   8.493   1.114 -0.5136  0.2252 -0.4049
  923MOL0     H24547   2.333   8.467   1.056  1.0795 -0.8712 -0.6683
  923MOL0     H24548   2.379   8.580   1.352  1.7957 -2.8197 -0.8679
  923MOL0     H24549   2.345   8.686   1.232 -0.2396  0.5813  3.4755
  923MOL0     H24550   2.142   8.614   1.188  1.8931 -1.9378 -1.4576
  923MOL0     H24551   2.146   8.467   1.285 -1.7700  0.1069  2.9608
  923MOL0     H24552   2.189   8.750   1.395 -1.8465  1.6099 -2.7915
  923MOL0     H24553   2.030   8.678   1.371 -0.2944  1.0393  1.0412
  923MOL0     H24554   2.250   8.582   1.541 -0.5375 -0.1023 -0.2360
  923MOL0     H24555   2.133   8.460   1.506  1.8285  0.5764 -3.1369
  923MOL0     H24556   1.910   8.458   1.630 -1.7131 -0.2945  1.7386
  923MOL0     H24557   1.814   8.441   1.899  0.2073  0.3117  1.0867
  923MOL0     H24558   1.790   8.592   1.973  2.2419 -1.0321  0.0945
  923MOL0     H24559   1.583   8.502   1.873  2.4328  1.5117  3.3911
  923MOL0     H24560   1.655   8.508   1.706 -2.9170 -0.6353 -0.0165
  923MOL0     H24561   1.664   8.752   1.714  3.1770 -1.2925  2.3846
  923MOL0     H24562   1.610   8.758   1.880 -0.5831  1.6780 -0.7980
  923MOL0     H24563   1.435   8.805   1.707 -0.3507 -0.1432  1.1703
  923MOL0     H24564   1.397   8.689   1.843 -1.7955 -0.0051 -0.2405
  923MOL0     H24565   1.284   8.391   1.545  0.7694  1.0012 -1.8561
  923MOL0     H24566   0.952   8.345   1.426  1.1302 -2.2187 -3.2584
  923MOL0     H24567   1.120   8.273   1.433  2.3972  0.4502  1.8687
  923MOL0     H24568   1.006   8.240   1.556  0.5396  1.3474  0.4499
  923MOL0     H24569   0.609   8.764   1.479 -1.1280 -2.7918 -3.5000
  923MOL0     H24570   0.369   8.750   1.486 -0.0358  3.7029  2.4113
  923MOL0     H24571   0.176   8.591   1.448  1.5025  0.6588 -0.5558
  923MOL0     H24572   0.244   8.451   1.536  1.0540  2.1332 -0.1288
  923MOL0     H24573  -0.003   8.441   1.469  1.3710  0.5493 -1.1757
  923MOL0     H24574   0.032   8.389   1.630 -1.2008  1.2878  1.6245
  923MOL0     H24575  -0.021   8.680   1.588  0.5700  0.5919  0.4305
  923MOL0     H24576  -0.063   8.587   1.729 -2.9345 -2.0296 -0.8646
  923MOL0     H24577  -0.268   8.650   1.605 -2.3983 -0.7941 -1.7293
  923MOL0     H24578  -0.207   8.564   1.464  0.0579 -2.4314 -0.5186
  923MOL0     H24579  -0.276   8.426   1.738 -1.4742 -1.3744 -0.4215
  923MOL0     H24580  -0.222   8.347   1.592  0.6650  1.0857  0.2267
  923MOL0     H24581  -0.489   8.487   1.632 -0.1289 -2.2176  2.4942
  923MOL0     H24582  -0.416   8.457   1.475  2.5056  1.2604  0.8721
  923MOL0     H24583  -0.420   8.198   1.520  0.4738  1.4644 -1.3847
  923MOL0     H24584  -0.571   8.276   1.525 -0.4821 -4.4063 -0.9607
  923MOL0     H24585  -0.407   8.228   1.776 -2.2399 -0.1946  2.6684
  923MOL0     H24586  -0.528   8.123   1.715  1.8717 -0.2476  1.1406
  923MOL0     H24587   0.373   8.502   1.833 -2.2355  0.0991 -1.6111
  923MOL0     H24588   0.624   8.528   1.841 -1.0748 -1.7323 -0.2455
  923MOL0     H24589   0.991   8.769   1.669  0.1310  0.7207  1.0393
  923MOL0     H24590   1.243   8.794   1.675  1.3793 -0.8579 -0.1470
  923MOL0     H24591   2.775   8.328   1.012 -1.1878  0.4822  0.5842
  923MOL0     H24592   2.992   8.312   0.960 -2.5911 -3.6122  0.4179
  923MOL0     H24593   3.339   8.508   0.908  0.4526  0.7449 -1.9391
  923MOL0     H24594   3.513   8.593   0.795 -0.6259  1.6722  1.1938
  923MOL0     H24595   3.926   8.786   0.849  1.1205 -0.3105  0.9493
  923MOL0     H24596   3.855   8.779   1.004 -3.3797 -0.8227  0.1901
  923MOL0     H24597   3.944   8.532   1.014  1.3893 -2.0738 -1.9113
  923MOL0     H24598   4.075   8.638   0.997 -0.1699 -0.4296  2.0364
  923MOL0     H24599   3.937   8.534   0.737 -0.0599  0.7429  1.1740
  923MOL0     H24600   4.012   8.414   0.838 -0.4986 -0.7212 -2.0134
  923MOL0     H24601   4.172   8.452   0.689 -0.6882 -0.6025  0.0275
  923MOL0     H24602   4.229   8.533   0.828  1.5146 -1.3126 -1.5666
  923MOL0     H24603   4.155   8.853   0.553 -1.2518 -0.0560  0.2352
  923MOL0     H24604   3.753   8.640   1.158  2.0800 -2.0091 -0.4969
  923MOL0     H24605   3.557   8.546   1.280 -1.3048 -1.3957 -0.2846
  924MOL0     O24606   7.450   8.845   2.437 -0.1345 -0.3417  0.0256
  924MOL0     C24607   7.381   8.739   2.452 -0.4882 -0.3876  0.8570
  924MOL0     O24608   7.246   8.730   2.415  0.1054 -0.2073 -1.0453
  924MOL0     C24609   7.181   8.829   2.351  0.0582 -1.3636  0.0610
  924MOL0     C24610   7.097   8.806   2.235 -0.8958  0.5844 -0.2794
  924MOL0     C24611   7.011   8.901   2.182  0.6446  0.3380  0.2432
  924MOL0     C24612   7.006   9.033   2.236 -0.1445 -0.1298  1.1166
  924MOL0     O24613   6.914   9.114   2.181 -0.3244  0.0036 -0.2499
  924MOL0     C24614   6.962   9.247   2.183 -0.8861 -0.4557  0.9371
  924MOL0     C24615   6.870   9.347   2.107 -0.1250  0.3772 -0.0444
  924MOL0     C24616   6.731   9.359   2.180 -0.2068  0.3496  0.2932
  924MOL0     C24617   6.749   9.454   2.306 -0.1113  0.4086  1.0995
  924MOL0     C24618   6.621   9.487   2.387 -0.2521  1.3028 -0.0346
  924MOL0     C24619   6.521   9.544   2.290  0.1416 -0.4173 -0.7855
  924MOL0     C24620   6.393   9.596   2.361 -0.1173  0.8111  0.0871
  924MOL0     C24621   6.321   9.493   2.448  0.3638  0.2002  0.6575
  924MOL0     N24622   6.269   9.381   2.366  0.2924 -0.2427 -0.0773
  924MOL0     C24623   6.317   9.251   2.374  0.3660  0.9058  0.2598
  924MOL0     C24624   6.270   9.199   2.254 -0.8042 -0.4370 -0.3632
  924MOL0     C24625   6.295   9.069   2.195  0.4160  0.0625 -0.5567
  924MOL0     C24626   6.188   8.975   2.246  0.2149  0.3648 -0.7190
  924MOL0     C24627   6.168   8.865   2.145 -0.4725  0.6292  0.0328
  924MOL0     C24628   6.047   8.776   2.187 -0.2991 -0.2771 -0.1848
  924MOL0     O24629   6.026   8.673   2.091  0.1999  0.4712 -1.1043
  924MOL0     C24630   5.894   8.647   2.079  0.0494  1.1654  0.5459
  924MOL0     C24631   5.835   8.651   1.950  0.4091 -0.1130 -0.2773
  924MOL0     C24632   5.704   8.618   1.925  0.2941  0.3975  0.3149
  924MOL0     C24633   5.656   8.628   1.778 -0.9833 -0.4590  0.2227
  924MOL0     C24634   5.619   8.588   2.038 -1.2526  0.1269 -0.2442
  924MOL0     C24635   5.476   8.567   2.033  0.4643  0.2381  0.0653
  924MOL0     O24636   5.405   8.530   2.153 -0.2593 -0.1161 -1.0640
  924MOL0     C24637   5.267   8.536   2.136 -0.1622  0.2920  0.2220
  924MOL0     C24638   5.196   8.417   2.132  0.1498  0.3387 -0.7015
  924MOL0     C24639   5.058   8.412   2.123  0.4788  0.1776  0.2563
  924MOL0     C24640   4.986   8.533   2.123  0.8523  0.4544  0.2819
  924MOL0     O24641   4.847   8.543   2.106 -0.2883  0.8381  0.1918
  924MOL0     C24642   4.765   8.425   2.137  0.1100 -0.7291  0.9519
  924MOL0     C24643   4.734   8.424   2.281  0.8252 -0.0873 -1.1429
  924MOL0     C24644   4.631   8.316   2.324  0.2285 -0.1817  0.0608
  924MOL0     C24645   4.580   8.340   2.468 -0.1230 -0.7247  0.1851
  924MOL0     C24646   4.475   8.221   2.504 -0.8458 -0.2008 -0.1225
  924MOL0     C24647   4.338   8.265   2.450  0.3233  0.0465  0.1056
  924MOL0     C24648   4.228   8.173   2.501  0.0290  0.5080  0.6926
  924MOL0     C24649   4.091   8.223   2.466  0.5630  0.5362 -0.0268
  924MOL0    Cl24650   4.039   8.336   2.588 -0.0235  0.0391 -0.1345
  924MOL0     C24651   5.054   8.653   2.133 -0.6585 -0.5435  0.7403
  924MOL0     C24652   5.198   8.659   2.141 -0.4860  0.5041 -0.2537
  924MOL0     O24653   5.417   8.581   1.927 -1.1353 -0.6907  0.1310
  924MOL0     C24654   5.683   8.576   2.162  0.5530 -0.1676  0.0480
  924MOL0     C24655   5.817   8.611   2.184  0.0060  0.2082 -0.9473
  924MOL0     N24656   6.191   9.295   2.192 -0.0505 -0.0256  0.5102
  924MOL0     N24657   6.188   9.401   2.260  0.9011 -0.1148 -0.2984
  924MOL0     C24658   7.090   9.057   2.346  0.4812  0.7927 -1.1170
  924MOL0     C24659   7.175   8.959   2.400  0.0641  0.2199 -0.0156
  924MOL0     C24660   7.450   8.609   2.491  0.1156  0.5238 -0.5168
  924MOL0     C24661   7.379   8.487   2.493  0.0621  0.2775 -0.2717
  924MOL0     C24662   7.436   8.374   2.563 -0.0427 -0.4648 -0.2175
  924MOL0     C24663   7.565   8.386   2.613  0.0302  0.5289 -0.1524
  924MOL0     O24664   7.621   8.299   2.709 -0.3182  0.5492  0.5131
  924MOL0     C24665   7.542   8.194   2.756  0.0008 -0.7639  0.1515
  924MOL0     C24666   7.624   8.106   2.857 -0.2949 -0.1863 -0.7688
  924MOL0     C24667   7.533   7.994   2.918  0.1401  0.2202  0.7619
  924MOL0     C24668   7.493   7.886   2.813 -0.3199 -1.1194 -0.0208
  924MOL0     C24669   7.464   7.763   2.884 -0.3838  0.9862 -0.3379
  924MOL0     C24670   7.434   7.654   2.923  0.5183 -0.9141 -0.9211
  924MOL0     C24671   7.646   8.502   2.593 -0.5400 -0.3503  0.6524
  924MOL0     C24672   7.587   8.612   2.532 -0.4155 -0.8677  0.0296
  924MOL0     H24673   7.085   8.710   2.185 -0.3209  0.3921 -0.0593
  924MOL0     H24674   6.944   8.869   2.103  1.0682  0.3858 -0.1365
  924MOL0     H24675   6.972   9.275   2.288 -2.5294 -2.9991  1.8789
  924MOL0     H24676   7.057   9.257   2.130 -1.9866 -0.2481 -1.1400
  924MOL0     H24677   6.933   9.437   2.106 -0.9825  0.9874  0.3183
  924MOL0     H24678   6.848   9.310   2.006  0.6679 -0.8061  0.1964
  924MOL0     H24679   6.665   9.409   2.110  1.5620  0.0065 -1.7354
  924MOL0     H24680   6.700   9.258   2.208  3.6576 -1.4521 -1.1785
  924MOL0     H24681   6.822   9.407   2.372  0.8687  2.9210  1.9049
  924MOL0     H24682   6.795   9.549   2.278  4.1297 -0.8016  3.2150
  924MOL0     H24683   6.588   9.392   2.431  1.9370  0.2848 -0.4954
  924MOL0     H24684   6.641   9.555   2.470  0.5965 -2.1547  2.8019
  924MOL0     H24685   6.565   9.635   2.248 -1.7725  0.8369 -0.1683
  924MOL0     H24686   6.496   9.469   2.216  1.1733  0.1349 -1.7197
  924MOL0     H24687   6.422   9.676   2.431  4.1783 -0.3645 -0.0954
  924MOL0     H24688   6.314   9.631   2.294 -0.3876  0.9914  0.4910
  924MOL0     H24689   6.245   9.542   2.510  2.4187  2.9528  1.1852
  924MOL0     H24690   6.387   9.466   2.531 -0.1446  0.9659  1.3261
  924MOL0     H24691   6.377   9.200   2.449 -2.9659 -1.1994  1.7744
  924MOL0     H24692   6.291   9.074   2.085  1.8067 -1.7981 -0.7413
  924MOL0     H24693   6.396   9.039   2.223 -0.2031 -1.6675 -0.0344
  924MOL0     H24694   6.095   9.030   2.265 -0.1171  0.1028 -1.5139
  924MOL0     H24695   6.219   8.929   2.340 -0.2405  0.3804 -0.5603
  924MOL0     H24696   6.263   8.813   2.128 -1.0111 -0.2472 -0.3828
  924MOL0     H24697   6.133   8.899   2.047 -0.6929  2.0806  0.5898
  924MOL0     H24698   5.960   8.841   2.198 -0.1656  0.1024 -1.2649
  924MOL0     H24699   6.079   8.736   2.285  3.5309  1.5907 -0.4780
  924MOL0     H24700   5.894   8.675   1.862 -1.4091 -1.0201 -1.8254
  924MOL0     H24701   5.736   8.652   1.708 -0.4986 -1.7543  0.3102
  924MOL0     H24702   5.627   8.527   1.747 -0.5686 -0.4108 -0.3451
  924MOL0     H24703   5.573   8.699   1.761 -0.3750 -0.4621 -3.9856
  924MOL0     H24704   5.255   8.326   2.134  1.5158  1.1935  1.5584
  924MOL0     H24705   5.013   8.313   2.124  0.5636  0.0763 -1.9438
  924MOL0     H24706   4.682   8.433   2.067  1.1212 -2.4139 -0.5234
  924MOL0     H24707   4.806   8.328   2.105  0.7317 -0.6603  1.4953
  924MOL0     H24708   4.821   8.389   2.337 -0.2218 -0.7097  0.1657
  924MOL0     H24709   4.704   8.524   2.314  1.1989 -1.9381  6.4627
  924MOL0     H24710   4.668   8.213   2.324 -0.0777 -0.3166  2.0648
  924MOL0     H24711   4.544   8.317   2.259 -0.9625  2.7564  1.5088
  924MOL0     H24712   4.667   8.342   2.534 -0.1713 -2.2621  0.3350
  924MOL0     H24713   4.534   8.439   2.461 -0.2566 -0.8425 -0.7268
  924MOL0     H24714   4.464   8.211   2.612  2.3653  1.3260  0.4787
  924MOL0     H24715   4.516   8.127   2.467  2.6733  1.2710 -0.4307
  924MOL0     H24716   4.315   8.366   2.483 -1.4635  2.3285 -6.4890
  924MOL0     H24717   4.338   8.263   2.341 -0.0790  0.7499  0.0926
  924MOL0     H24718   4.231   8.151   2.608  1.8004 -1.0371  0.3848
  924MOL0     H24719   4.238   8.078   2.449  1.7501  2.5849 -3.1685
  924MOL0     H24720   4.022   8.138   2.469  0.7995  0.3388 -0.1278
  924MOL0     H24721   4.098   8.260   2.363  1.0364  0.6454  0.0404
  924MOL0     H24722   5.002   8.747   2.126 -0.3688 -0.4901 -2.3796
  924MOL0     H24723   5.259   8.748   2.132  1.9487 -1.1506 -1.2093
  924MOL0     H24724   5.643   8.517   2.244 -1.6770 -1.1725 -1.6644
  924MOL0     H24725   5.866   8.597   2.280 -1.8114  0.3531  0.0451
  924MOL0     H24726   7.080   9.158   2.385  2.3260  1.2237 -1.6669
  924MOL0     H24727   7.235   8.978   2.488 -0.0884 -0.1497  0.1721
  924MOL0     H24728   7.277   8.487   2.456 -0.4479  0.8837  1.0480
  924MOL0     H24729   7.369   8.295   2.595  0.5814 -0.2869  1.6845
  924MOL0     H24730   7.456   8.233   2.811  0.1866 -0.3198  0.1279
  924MOL0     H24731   7.512   8.141   2.665  0.3328 -1.1591  0.2658
  924MOL0     H24732   7.665   8.162   2.941  0.6218 -2.8985  0.7153
  924MOL0     H24733   7.703   8.068   2.791 -0.2487 -3.1936  0.8263
  924MOL0     H24734   7.441   8.042   2.950 -0.0868 -0.6831  1.5347
  924MOL0     H24735   7.584   7.944   3.002  0.9904 -0.1129  0.0656
  924MOL0     H24736   7.579   7.853   2.755 -0.9172 -1.3118 -0.8152
  924MOL0     H24737   7.407   7.908   2.748 -1.4006 -3.3402  0.5438
  924MOL0     H24738   7.428   7.553   2.960 -0.3809 -0.7050 -0.4654
  924MOL0     H24739   7.743   8.509   2.641 -0.4004  0.9103  0.2520
  924MOL0     H24740   7.654   8.697   2.529  2.6103 -2.9908  1.5548
  925MOL0     O24741   4.958   9.583   4.875  0.2610 -0.3602  0.7040
  925MOL0     C24742   4.935   9.602   4.989 -0.4728 -0.4780 -0.8573
  925MOL0     O24743   5.026   9.662   5.072  0.0933 -0.3435 -0.0930
  925MOL0     C24744   5.164   9.676   5.037  1.3830  0.8009  0.0146
  925MOL0     C24745   5.239   9.603   4.939 -0.0700 -0.3490 -0.0948
  925MOL0     C24746   5.377   9.614   4.917  0.4117  0.3866  0.6636
  925MOL0     C24747   5.451   9.704   4.998  0.7458  1.2969 -0.6082
  925MOL0     O24748   5.586   9.709   4.991 -0.5225 -0.2861  0.1919
  925MOL0     C24749   5.649   9.599   5.061  0.6448 -0.5788 -1.3385
  925MOL0     C24750   5.741   9.509   4.975  0.6603  0.7266 -0.1633
  925MOL0     C24751   5.803   9.395   5.058  0.1124  0.1976 -0.5307
  925MOL0     C24752   5.709   9.279   5.092 -0.1977 -0.4259 -1.0022
  925MOL0     C24753   5.773   9.180   5.202  0.0194 -0.5067 -0.2067
  925MOL0     C24754   5.653   9.093   5.239  0.1922  0.3239 -0.0397
  925MOL0     C24755   5.709   8.972   5.315  0.1068  0.3597  0.3228
  925MOL0     C24756   5.594   8.871   5.329  0.1224 -0.6021  1.0100
  925MOL0     N24757   5.623   8.771   5.432  0.2704 -0.4048 -0.1391
  925MOL0     C24758   5.540   8.718   5.527 -0.5514 -0.2753 -0.3969
  925MOL0     C24759   5.615   8.628   5.592  0.1847  1.3536  0.5291
  925MOL0     C24760   5.567   8.526   5.692  0.0632 -1.2983 -0.7085
  925MOL0     C24761   5.462   8.435   5.638  0.8033  0.9116 -0.3086
  925MOL0     C24762   5.449   8.310   5.728  0.6184 -0.2093 -0.7437
  925MOL0     C24763   5.310   8.251   5.739  0.1175  0.1958  0.0828
  925MOL0     O24764   5.308   8.152   5.831 -0.2261  0.0852 -0.4843
  925MOL0     C24765   5.191   8.090   5.834 -0.3848  0.4975 -0.1432
  925MOL0     C24766   5.157   7.997   5.734 -1.0557  0.1750  0.0848
  925MOL0     C24767   5.022   7.953   5.726 -0.1960  0.1341 -0.0675
  925MOL0     C24768   4.994   7.864   5.602  0.3948 -0.2353 -1.0757
  925MOL0     C24769   4.931   8.000   5.820 -0.3732  0.3238 -0.4139
  925MOL0     C24770   4.783   7.963   5.819  0.3361  0.2280 -0.7530
  925MOL0     O24771   4.715   8.014   5.913 -0.0134  0.0007  0.5407
  925MOL0     C24772   4.584   7.996   5.940 -0.4422  0.0188  1.2888
  925MOL0     C24773   4.535   8.051   6.056 -0.0254 -0.5127  0.7145
  925MOL0     C24774   4.407   8.042   6.102 -0.1460  0.4621 -0.9244
  925MOL0     C24775   4.324   7.974   6.017  0.6560  0.5006 -0.6394
  925MOL0     O24776   4.192   7.954   6.053  0.2886 -0.2394 -0.2778
  925MOL0     C24777   4.120   8.073   6.085  0.1995 -0.4959  0.1924
  925MOL0     C24778   3.982   8.048   6.033 -0.6142  0.2501  0.3260
  925MOL0     C24779   3.878   8.145   6.087  0.2242 -0.0805 -0.5947
  925MOL0     C24780   3.738   8.106   6.044  0.0178 -0.0894 -0.2694
  925MOL0     C24781   3.634   8.196   6.115 -0.4152 -0.7865  0.0658
  925MOL0     C24782   3.500   8.155   6.052  0.0970  0.6533  0.1654
  925MOL0     C24783   3.383   8.210   6.136 -0.2756 -0.4422  0.2964
  925MOL0     C24784   3.253   8.207   6.059 -0.1782  0.9698 -0.3987
  925MOL0    Cl24785   3.119   8.255   6.169  0.6656 -0.0274  0.1567
  925MOL0     C24786   4.356   7.912   5.896 -0.0210  0.3938  0.0152
  925MOL0     C24787   4.490   7.922   5.857  0.7801  0.3430 -0.1636
  925MOL0     O24788   4.735   7.892   5.729 -0.1681  0.1807  0.4900
  925MOL0     C24789   4.972   8.090   5.922  0.3073  0.1911  0.0938
  925MOL0     C24790   5.098   8.140   5.924  0.5887  0.7872  0.0203
  925MOL0     N24791   5.745   8.639   5.545 -0.5345  0.9137 -0.1354
  925MOL0     N24792   5.754   8.729   5.450  0.5107 -0.0554  0.6189
  925MOL0     C24793   5.376   9.778   5.088  0.1195 -0.6056 -0.1083
  925MOL0     C24794   5.239   9.761   5.110  0.0157  0.1020  0.3233
  925MOL0     C24795   4.804   9.572   5.051 -0.4676 -0.1292  0.2165
  925MOL0     C24796   4.713   9.483   4.992  0.2245 -0.6525 -0.4121
  925MOL0     C24797   4.586   9.464   5.051 -1.3363  0.5998  0.8440
  925MOL0     C24798   4.547   9.543   5.152  1.3183 -0.6946  0.1623
  925MOL0     O24799   4.418   9.532   5.189 -0.0212  0.1934  0.1293
  925MOL0     C24800   4.384   9.521   5.331  0.3235 -0.4990 -0.7968
  925MOL0     C24801   4.393   9.382   5.375  0.6349  0.3115 -0.9262
  925MOL0     C24802   4.289   9.297   5.316  1.1062  0.7210  0.0696
  925MOL0     C24803   4.309   9.153   5.356 -0.3807  0.4156 -0.2383
  925MOL0     C24804   4.227   9.065   5.280  0.2032 -0.4431  0.7207
  925MOL0     C24805   4.153   9.005   5.200 -0.1454 -0.2761  0.1529
  925MOL0     C24806   4.633   9.626   5.222 -0.7143  0.1020  0.0451
  925MOL0     C24807   4.763   9.637   5.167 -0.3998 -0.7217 -0.1747
  925MOL0     H24808   5.179   9.544   4.871 -0.5333  1.0762 -0.9585
  925MOL0     H24809   5.430   9.553   4.843 -0.8156 -1.8259  1.5107
  925MOL0     H24810   5.708   9.643   5.141  1.7359 -1.1947 -1.7869
  925MOL0     H24811   5.568   9.541   5.106  1.6454  0.4676  2.0691
  925MOL0     H24812   5.686   9.469   4.889  0.2630  3.0267 -1.0379
  925MOL0     H24813   5.823   9.570   4.935  2.4446 -1.2922  0.1766
  925MOL0     H24814   5.889   9.362   4.999  1.4542  2.8123 -0.1862
  925MOL0     H24815   5.845   9.432   5.152 -1.6411  1.7971 -0.3201
  925MOL0     H24816   5.612   9.312   5.129 -0.0359 -2.4893  1.5565
  925MOL0     H24817   5.685   9.212   5.009  0.1040 -0.7654 -0.8173
  925MOL0     H24818   5.861   9.123   5.171 -0.4700 -2.6785  2.0211
  925MOL0     H24819   5.798   9.244   5.287 -0.2900 -0.2281 -0.3243
  925MOL0     H24820   5.578   9.148   5.296 -1.4283 -0.2003 -1.5600
  925MOL0     H24821   5.609   9.056   5.145 -0.8885  2.2679 -0.3381
  925MOL0     H24822   5.793   8.940   5.253  0.9417  1.0993  1.0255
  925MOL0     H24823   5.747   8.989   5.417  0.9750  0.7756 -0.0599
  925MOL0     H24824   5.580   8.817   5.235 -0.9374 -3.0346  2.4739
  925MOL0     H24825   5.499   8.916   5.362 -0.5325 -1.4404  0.3125
  925MOL0     H24826   5.435   8.747   5.532 -0.8434 -1.3980  0.3108
  925MOL0     H24827   5.649   8.461   5.722  0.1354 -0.3200  1.3685
  925MOL0     H24828   5.527   8.592   5.770  3.2689  3.2212 -2.4227
  925MOL0     H24829   5.488   8.400   5.538  0.6983  0.6827 -0.2560
  925MOL0     H24830   5.365   8.486   5.633  0.9192  1.2249  0.5620
  925MOL0     H24831   5.475   8.335   5.831  1.0134 -1.7724 -0.4278
  925MOL0     H24832   5.524   8.235   5.703 -0.2699 -1.9031  1.2931
  925MOL0     H24833   5.270   8.221   5.641  0.8275  0.3886 -0.2668
  925MOL0     H24834   5.243   8.333   5.767 -0.8467 -0.4893 -0.1575
  925MOL0     H24835   5.231   7.947   5.672  1.2048  2.4938  0.7322
  925MOL0     H24836   5.072   7.844   5.528 -1.7438 -0.8387 -3.2997
  925MOL0     H24837   4.962   7.770   5.646  1.1163  0.9551  2.2356
  925MOL0     H24838   4.923   7.917   5.537 -0.1984 -0.6751 -0.7907
  925MOL0     H24839   4.603   8.111   6.116 -0.6746 -1.3221  2.2968
  925MOL0     H24840   4.372   8.083   6.196  2.2849 -0.1375  0.3454
  925MOL0     H24841   4.126   8.077   6.194  3.3768  0.8619  0.0787
  925MOL0     H24842   4.167   8.163   6.043  3.9618 -1.4132  2.0254
  925MOL0     H24843   3.993   8.047   5.924  1.9798  0.1336  0.5249
  925MOL0     H24844   3.944   7.949   6.059  2.7539 -1.2135  0.1702
  925MOL0     H24845   3.899   8.250   6.062 -1.8288  0.3492 -0.6766
  925MOL0     H24846   3.878   8.138   6.196 -1.5818 -1.9353 -0.6600
  925MOL0     H24847   3.745   8.137   5.940  2.3980  0.8129  0.1091
  925MOL0     H24848   3.710   8.001   6.054 -1.2585  0.2512 -0.0591
  925MOL0     H24849   3.654   8.302   6.096 -1.1259  0.0032  3.1618
  925MOL0     H24850   3.621   8.182   6.223 -2.2408  2.7515  0.4363
  925MOL0     H24851   3.484   8.167   5.945 -2.9016 -0.9992  0.3124
  925MOL0     H24852   3.486   8.048   6.065  1.1295  0.4413 -0.4189
  925MOL0     H24853   3.408   8.315   6.152 -0.0814 -0.5155  0.4780
  925MOL0     H24854   3.376   8.149   6.227 -1.2044 -0.2253  0.3815
  925MOL0     H24855   3.238   8.101   6.038  1.1346  0.3883  1.3839
  925MOL0     H24856   3.265   8.256   5.962  1.6048  0.9672 -0.2078
  925MOL0     H24857   4.283   7.869   5.829  0.1349 -0.3508  0.3083
  925MOL0     H24858   4.518   7.871   5.765  1.9289  1.4523 -0.4540
  925MOL0     H24859   4.903   8.118   6.001 -0.2901 -0.3203 -0.2306
  925MOL0     H24860   5.132   8.211   5.998 -2.6713  0.2714  2.2002
  925MOL0     H24861   5.434   9.855   5.139  1.7139 -0.8382 -1.4938
  925MOL0     H24862   5.192   9.821   5.187  1.4349  1.0672  0.4799
  925MOL0     H24863   4.743   9.442   4.896  0.5358 -0.7936 -0.2568
  925MOL0     H24864   4.514   9.391   5.015  0.0608  0.8546 -2.8168
  925MOL0     H24865   4.443   9.577   5.404 -0.0158  1.1694 -1.7619
  925MOL0     H24866   4.283   9.561   5.339 -0.0291 -1.4294 -0.3831
  925MOL0     H24867   4.377   9.386   5.483 -2.3801 -2.2590 -1.0904
  925MOL0     H24868   4.487   9.330   5.355 -0.8675 -3.3960  0.7115
  925MOL0     H24869   4.306   9.295   5.208  2.2201  1.5361  0.2154
  925MOL0     H24870   4.192   9.335   5.349  0.3719 -0.6220 -0.4169
  925MOL0     H24871   4.266   9.134   5.455  0.4197  0.9325  0.2180
  925MOL0     H24872   4.414   9.122   5.348 -0.5694 -1.4140  2.6968
  925MOL0     H24873   4.087   8.962   5.127 -1.8342  1.4808  0.5356
  925MOL0     H24874   4.605   9.696   5.300 -1.4836  2.6924 -2.3806
  925MOL0     H24875   4.823   9.706   5.225 -2.2781 -0.5389  1.7044
  926MOL0     O24876   5.199   5.495   6.590  0.7246  0.1259  0.1469
  926MOL0     C24877   5.244   5.596   6.637 -0.4769  0.1064 -0.3801
  926MOL0     O24878   5.169   5.686   6.695  0.2524 -0.8040  0.1994
  926MOL0     C24879   5.035   5.704   6.681  0.7839 -0.2984 -0.0580
  926MOL0     C24880   4.982   5.705   6.549 -0.2603 -0.0297 -0.0915
  926MOL0     C24881   4.861   5.764   6.539  0.4817  0.0437 -0.6901
  926MOL0     C24882   4.782   5.808   6.650 -0.5657 -0.0576  0.9425
  926MOL0     O24883   4.656   5.862   6.642 -0.0502 -0.1747 -0.0230
  926MOL0     C24884   4.600   5.881   6.508  0.4907 -0.0785  0.3171
  926MOL0     C24885   4.481   5.976   6.524 -0.5951  0.2266  0.7352
  926MOL0     C24886   4.542   6.122   6.538  0.6070  0.4006  0.4817
  926MOL0     C24887   4.435   6.221   6.567 -0.4915  0.9294 -0.6275
  926MOL0     C24888   4.491   6.371   6.581  0.3730  0.1829 -0.2696
  926MOL0     C24889   4.389   6.469   6.650 -0.1563 -1.7006 -0.5084
  926MOL0     C24890   4.419   6.614   6.625  0.8336 -0.1409  0.2425
  926MOL0     C24891   4.352   6.717   6.725  0.1254  0.4821  0.5502
  926MOL0     N24892   4.207   6.699   6.742  0.8046 -0.5556 -0.3527
  926MOL0     C24893   4.124   6.663   6.635  0.7589  0.4218 -0.6538
  926MOL0     C24894   3.996   6.698   6.669  0.1571  0.4800  0.3911
  926MOL0     C24895   3.886   6.672   6.567 -0.1641  0.5563 -0.5159
  926MOL0     C24896   3.770   6.768   6.573  0.6005  0.2813 -1.1682
  926MOL0     C24897   3.811   6.906   6.510 -0.5492 -0.2667  0.0827
  926MOL0     C24898   3.716   7.016   6.560 -0.1652  0.3880 -0.0740
  926MOL0     O24899   3.583   6.977   6.526  0.1831 -0.0576 -0.1478
  926MOL0     C24900   3.481   7.063   6.557  0.3239 -0.5583  0.8885
  926MOL0     C24901   3.358   7.018   6.523 -0.5548  0.0421  0.1964
  926MOL0     C24902   3.240   7.091   6.525  0.3867 -0.2880  0.2993
  926MOL0     C24903   3.116   7.018   6.494 -0.1090  0.4889 -0.0307
  926MOL0     C24904   3.244   7.225   6.569 -0.0627 -0.0595  0.1365
  926MOL0     C24905   3.124   7.310   6.587 -0.4486  0.3822 -0.2137
  926MOL0     O24906   3.080   7.350   6.711  0.2373  0.3235 -0.0762
  926MOL0     C24907   2.962   7.411   6.734  0.2822  0.3971 -1.0445
  926MOL0     C24908   2.906   7.395   6.865 -0.4321  0.3408 -0.2124
  926MOL0     C24909   2.788   7.466   6.900  0.1623 -0.1292  0.7268
  926MOL0     C24910   2.737   7.557   6.803  1.2960 -0.3146 -0.5887
  926MOL0     O24911   2.631   7.641   6.824  0.3242 -0.1592 -0.0177
  926MOL0     C24912   2.554   7.637   6.948 -0.2400  0.2136  0.6977
  926MOL0     C24913   2.439   7.727   6.939  0.8866 -0.3652 -0.1676
  926MOL0     C24914   2.386   7.760   7.081  0.2798 -0.4426  0.8222
  926MOL0     C24915   2.314   7.899   7.089 -0.2623  0.0508  0.7037
  926MOL0     C24916   2.295   7.953   7.232 -0.1630 -0.0101 -0.1192
  926MOL0     C24917   2.238   8.103   7.234 -0.0221  0.1585  0.9956
  926MOL0     C24918   2.197   8.161   7.371  0.4746  0.2532 -0.1478
  926MOL0     C24919   2.315   8.166   7.475  0.6072 -0.7191  0.3389
  926MOL0    Cl24920   2.245   8.202   7.637  0.2758 -0.5413 -0.0765
  926MOL0     C24921   2.793   7.573   6.681  0.7991 -0.1921 -0.1250
  926MOL0     C24922   2.912   7.505   6.644  0.5129  0.0431  0.4695
  926MOL0     O24923   3.075   7.342   6.481  0.4386  0.3921  0.2854
  926MOL0     C24924   3.368   7.268   6.616  1.0208 -0.6569 -0.6625
  926MOL0     C24925   3.485   7.193   6.613 -0.0864 -0.1076  0.5296
  926MOL0     N24926   4.006   6.744   6.803  0.2905 -0.0823 -0.1287
  926MOL0     N24927   4.128   6.751   6.841 -0.3813  0.0456 -0.5261
  926MOL0     C24928   4.834   5.793   6.776  0.0864 -0.4054 -0.0437
  926MOL0     C24929   4.964   5.741   6.793  0.4241 -0.6517  0.3060
  926MOL0     C24930   5.386   5.595   6.691  0.2223  0.1049 -1.2879
  926MOL0     C24931   5.488   5.506   6.647  0.6459  0.1874  0.0602
  926MOL0     C24932   5.620   5.507   6.686  0.3129 -0.3438 -0.2794
  926MOL0     C24933   5.661   5.602   6.778 -0.5678 -0.0193 -0.8517
  926MOL0     O24934   5.792   5.603   6.824 -0.3732 -0.3503  0.2718
  926MOL0     C24935   5.892   5.553   6.732  0.2127 -0.3426 -0.1151
  926MOL0     C24936   6.014   5.627   6.756  0.1280  0.9390 -0.6485
  926MOL0     C24937   6.126   5.568   6.677 -0.1753 -0.2327 -0.0924
  926MOL0     C24938   6.252   5.637   6.702 -0.1006 -0.0874 -0.1481
  926MOL0     C24939   6.351   5.614   6.595 -0.2885 -0.2493 -0.1926
  926MOL0     C24940   6.427   5.590   6.510  0.3975  0.5166  0.7279
  926MOL0     C24941   5.568   5.685   6.833  1.0638  0.7180 -0.2951
  926MOL0     C24942   5.434   5.690   6.794  0.6252 -0.1640  0.8329
  926MOL0     H24943   5.039   5.671   6.463 -0.3093  3.4589 -1.6809
  926MOL0     H24944   4.824   5.775   6.437 -0.6816  2.6054 -0.0536
  926MOL0     H24945   4.672   5.935   6.445 -0.7608  0.5012 -0.6480
  926MOL0     H24946   4.574   5.787   6.458  1.6025  0.2085 -0.8739
  926MOL0     H24947   4.409   5.966   6.442  0.3360  0.4281 -0.1245
  926MOL0     H24948   4.440   5.947   6.621  0.0482 -1.5856  0.4941
  926MOL0     H24949   4.617   6.100   6.614  0.4284 -0.1307  0.5124
  926MOL0     H24950   4.594   6.137   6.443  0.8151 -0.8668  0.3779
  926MOL0     H24951   4.353   6.199   6.498 -2.9946 -1.1686  2.7113
  926MOL0     H24952   4.409   6.190   6.668  3.1210  0.2038  0.2297
  926MOL0     H24953   4.586   6.366   6.636 -0.7616 -1.9890  1.6790
  926MOL0     H24954   4.508   6.418   6.484  2.5328  0.8459  0.3817
  926MOL0     H24955   4.287   6.442   6.620 -0.7750 -1.0477  0.8723
  926MOL0     H24956   4.400   6.445   6.756 -0.2075 -1.8617 -0.5392
  926MOL0     H24957   4.527   6.630   6.620  0.9708  0.4848  3.1804
  926MOL0     H24958   4.384   6.649   6.528 -0.6635  1.3107  1.2320
  926MOL0     H24959   4.375   6.823   6.707 -0.7108  0.6544  0.4516
  926MOL0     H24960   4.389   6.705   6.827 -2.8116 -2.1105  1.4661
  926MOL0     H24961   4.155   6.641   6.534  0.9544  2.7348 -1.1449
  926MOL0     H24962   3.935   6.657   6.470 -0.8534  0.3352 -0.8342
  926MOL0     H24963   3.833   6.578   6.582 -1.6896  1.3727 -0.5646
  926MOL0     H24964   3.727   6.786   6.672  0.7065  2.3459 -1.4516
  926MOL0     H24965   3.691   6.719   6.516 -1.0871  0.6652  0.7324
  926MOL0     H24966   3.806   6.900   6.401  1.6076 -1.6535 -0.0136
  926MOL0     H24967   3.913   6.920   6.546 -0.6403 -0.2463  0.3332
  926MOL0     H24968   3.735   7.107   6.502  1.0542 -0.8260 -1.6810
  926MOL0     H24969   3.722   7.035   6.667  1.1304 -3.0142  0.5910
  926MOL0     H24970   3.355   6.919   6.479 -2.1396  1.2534 -2.7307
  926MOL0     H24971   3.140   6.974   6.397  1.2255  0.5472  0.2525
  926MOL0     H24972   3.107   6.935   6.565 -1.3713  0.6429  0.0176
  926MOL0     H24973   3.016   7.062   6.494 -1.0585 -1.4134 -2.5110
  926MOL0     H24974   2.957   7.332   6.937  0.5200  0.4908 -0.7397
  926MOL0     H24975   2.753   7.439   6.999 -1.1483 -2.2229 -0.2498
  926MOL0     H24976   2.522   7.537   6.980  1.8631  0.2980  3.4139
  926MOL0     H24977   2.630   7.663   7.021  4.0710 -2.9261 -2.1327
  926MOL0     H24978   2.474   7.818   6.889  0.7431 -1.6511 -2.7802
  926MOL0     H24979   2.369   7.678   6.871  0.0743 -0.4938  0.7454
  926MOL0     H24980   2.466   7.766   7.154 -0.5026  0.0621  1.6548
  926MOL0     H24981   2.311   7.687   7.115 -0.6358  0.5797  1.0396
  926MOL0     H24982   2.381   7.966   7.036  1.9846 -2.7026 -0.1504
  926MOL0     H24983   2.220   7.884   7.035  0.5053  2.6900 -1.5940
  926MOL0     H24984   2.398   7.949   7.270  0.5778  3.0384 -1.4539
  926MOL0     H24985   2.225   7.891   7.289  1.3763 -1.3074  0.4404
  926MOL0     H24986   2.303   8.176   7.185  0.8314 -0.9236  0.4786
  926MOL0     H24987   2.143   8.092   7.181 -1.2604  0.8168  2.9480
  926MOL0     H24988   2.117   8.104   7.418  1.3138  1.6268  3.1891
  926MOL0     H24989   2.172   8.265   7.350  0.1224 -0.4261 -3.7248
  926MOL0     H24990   2.375   8.255   7.455 -4.0852  2.5029 -0.9089
  926MOL0     H24991   2.367   8.069   7.479  1.0185 -0.5915 -1.2559
  926MOL0     H24992   2.745   7.637   6.608  1.8296 -2.3446 -2.9016
  926MOL0     H24993   2.947   7.524   6.543 -1.6007 -0.2347 -0.3758
  926MOL0     H24994   3.381   7.367   6.659 -3.2945 -0.5556  0.8090
  926MOL0     H24995   3.579   7.230   6.653  0.0584  1.1833 -0.9204
  926MOL0     H24996   4.766   5.829   6.852 -1.8960 -1.3128 -1.3160
  926MOL0     H24997   5.008   5.737   6.892 -0.0804  3.8430  0.9077
  926MOL0     H24998   5.467   5.423   6.581  1.7059  1.5142 -2.0478
  926MOL0     H24999   5.675   5.428   6.635  0.9162  0.2564 -0.5733
  926MOL0     H25000   5.912   5.447   6.751  1.5303  0.1914  1.6838
  926MOL0     H25001   5.864   5.572   6.628 -1.7706  0.2500  0.4803
  926MOL0     H25002   6.040   5.611   6.862  0.7908 -1.2565 -1.0941
  926MOL0     H25003   6.006   5.734   6.736  3.7265  1.8636  1.7867
  926MOL0     H25004   6.099   5.585   6.572 -0.2252 -2.6648 -0.5373
  926MOL0     H25005   6.121   5.459   6.688  0.7046 -0.6442 -2.9751
  926MOL0     H25006   6.288   5.603   6.800  1.6668  3.1982  0.4912
  926MOL0     H25007   6.245   5.744   6.724  1.9343  0.0931 -0.2301
  926MOL0     H25008   6.504   5.560   6.441 -0.7249 -3.8455  1.0711
  926MOL0     H25009   5.599   5.752   6.913  0.2099  1.0869 -0.2630
  926MOL0     H25010   5.377   5.768   6.844  2.7855  1.7137  0.5264
  927MOL0     O25011   7.364  10.287   4.870  0.3598  0.1912  0.3418
  927MOL0     C25012   7.337  10.406   4.869 -1.0028  1.3250  0.5027
  927MOL0     O25013   7.223  10.469   4.905  1.2247  0.2647 -0.0156
  927MOL0     C25014   7.113  10.404   4.953  0.0249  0.1631 -0.1430
  927MOL0     C25015   6.984  10.449   4.923 -0.1032  0.3775 -0.1140
  927MOL0     C25016   6.873  10.403   4.991  0.3086 -0.3644 -0.3478
  927MOL0     C25017   6.893  10.309   5.097  0.2594  0.3834  0.1993
  927MOL0     O25018   6.802  10.259   5.183  0.1645 -0.4242 -0.1647
  927MOL0     C25019   6.676  10.333   5.202  0.0894 -0.6541 -0.1465
  927MOL0     C25020   6.601  10.257   5.301 -0.2647  0.3385 -0.0587
  927MOL0     C25021   6.469  10.325   5.322  1.0966  0.5998 -0.9206
  927MOL0     C25022   6.395  10.255   5.436 -0.0064  0.1344  0.0254
  927MOL0     C25023   6.270  10.317   5.479  0.3142  0.3456  0.8878
  927MOL0     C25024   6.166  10.300   5.366 -0.6001  0.4308 -0.9366
  927MOL0     C25025   6.027  10.325   5.428  0.4081 -0.7410  0.9574
  927MOL0     C25026   5.913  10.282   5.334 -0.5135 -0.1622  0.2907
  927MOL0     N25027   5.785  10.330   5.393  0.5001 -0.5958  0.4150
  927MOL0     C25028   5.747  10.465   5.400  0.3603 -0.4419  0.9846
  927MOL0     C25029   5.619  10.457   5.436 -0.0189  0.3818  0.2964
  927MOL0     C25030   5.525  10.571   5.426  0.4262 -0.9854  0.5061
  927MOL0     C25031   5.417  10.582   5.531 -0.3082  1.0671  0.4793
  927MOL0     C25032   5.345  10.719   5.530  0.0458  0.6269  0.4606
  927MOL0     C25033   5.243  10.731   5.643  0.9845  0.3334  0.6366
  927MOL0     O25034   5.174  10.864   5.646  0.3082 -0.2279  0.3509
  927MOL0     C25035   5.040  10.869   5.603 -0.4138 -0.5921 -0.8622
  927MOL0     C25036   4.958  10.765   5.552 -0.3856 -0.5390 -0.6865
  927MOL0     C25037   4.822  10.788   5.513 -0.7751 -0.6905  1.3871
  927MOL0     C25038   4.761  10.669   5.437 -0.1218 -0.6594 -0.0810
  927MOL0     C25039   4.766  10.910   5.532  0.2607  0.1915 -0.4220
  927MOL0     C25040   4.632  10.951   5.480  0.6230  0.3045  0.7670
  927MOL0     O25041   4.581  11.077   5.517 -0.3290  0.5535 -0.4997
  927MOL0     C25042   4.478  11.116   5.435 -0.4697  0.0500 -0.2193
  927MOL0     C25043   4.356  11.129   5.500 -0.2596  0.3745 -0.3495
  927MOL0     C25044   4.237  11.151   5.427 -0.8705  0.4006  0.7890
  927MOL0     C25045   4.240  11.159   5.286  0.2032  0.8143  0.2924
  927MOL0     O25046   4.120  11.193   5.225 -0.1018  0.4372 -0.1910
  927MOL0     C25047   4.122  11.253   5.091 -0.3051  0.4993  0.5690
  927MOL0     C25048   3.985  11.255   5.033 -0.3164 -0.2678 -0.6382
  927MOL0     C25049   3.952  11.371   4.942  0.3521  0.2255  0.5489
  927MOL0     C25050   3.830  11.326   4.847  0.0228  0.9108  0.2010
  927MOL0     C25051   3.751  11.441   4.792  0.1269 -0.3095  0.0813
  927MOL0     C25052   3.830  11.524   4.686  0.8631  0.2628 -0.0300
  927MOL0     C25053   3.864  11.444   4.555  0.3847  1.1788  1.5206
  927MOL0     C25054   3.968  11.500   4.461  0.0496 -0.9164  0.2567
  927MOL0    Cl25055   3.944  11.663   4.419  0.4274 -0.2695  0.0687
  927MOL0     C25056   4.363  11.158   5.221 -0.5832 -0.4159 -0.0590
  927MOL0     C25057   4.483  11.139   5.296 -0.4033 -0.8324  0.4783
  927MOL0     O25058   4.563  10.858   5.437  0.3880 -0.1232  0.3323
  927MOL0     C25059   4.839  11.009   5.603  0.2956 -0.7846  0.2801
  927MOL0     C25060   4.972  10.989   5.639 -0.7073  0.6646  0.3544
  927MOL0     N25061   5.588  10.322   5.443 -0.3805  1.3181 -0.0834
  927MOL0     N25062   5.694  10.248   5.423  0.3957 -0.0711  1.2513
  927MOL0     C25063   7.018  10.263   5.117  0.1768 -0.5348 -0.5047
  927MOL0     C25064   7.126  10.299   5.041 -0.1402 -0.1953  1.2213
  927MOL0     C25065   7.443  10.496   4.802 -0.3604  0.7201  0.2658
  927MOL0     C25066   7.408  10.629   4.769 -0.3228  0.2602 -0.2142
  927MOL0     C25067   7.504  10.710   4.725 -0.0326  0.4932 -0.0987
  927MOL0     C25068   7.635  10.671   4.710  0.0928 -1.0145 -0.7265
  927MOL0     O25069   7.732  10.768   4.681 -0.0275 -0.6981 -0.0267
  927MOL0     C25070   7.869  10.728   4.669  0.4862  0.4266  0.1106
  927MOL0     C25071   7.959  10.841   4.625 -0.1522 -0.2663  0.2446
  927MOL0     C25072   7.986  10.933   4.742 -0.0880 -0.6215 -0.1722
  927MOL0     C25073   7.873  11.034   4.747 -0.3957  0.1769 -0.0247
  927MOL0     C25074   7.914  11.141   4.841 -0.3809 -0.0342 -0.5058
  927MOL0     C25075   7.948  11.227   4.913 -0.2563 -0.2498 -0.1490
  927MOL0     C25076   7.671  10.544   4.739  0.1990 -0.0601  0.0965
  927MOL0     C25077   7.579  10.449   4.780  0.5878 -0.0665 -0.0511
  927MOL0     H25078   6.981  10.516   4.838  4.0818  1.4043  0.3343
  927MOL0     H25079   6.773  10.436   4.964  0.0727 -1.5412 -0.9364
  927MOL0     H25080   6.694  10.435   5.238  2.0862 -0.9736 -0.1280
  927MOL0     H25081   6.614  10.328   5.112 -1.9996 -1.1057  1.2480
  927MOL0     H25082   6.582  10.156   5.265  0.4568  0.9703 -2.3355
  927MOL0     H25083   6.659  10.261   5.394  0.1904 -4.9210  0.1582
  927MOL0     H25084   6.474  10.430   5.352 -0.1408  0.0203  1.5822
  927MOL0     H25085   6.411  10.316   5.230 -0.1560  3.4195 -0.5056
  927MOL0     H25086   6.386  10.151   5.401  1.0617  0.7826 -2.3760
  927MOL0     H25087   6.460  10.270   5.522 -0.6958  3.8499  0.0362
  927MOL0     H25088   6.238  10.269   5.572 -1.4189  0.9717  0.6378
  927MOL0     H25089   6.277  10.424   5.501  1.2233  0.5736 -0.4061
  927MOL0     H25090   6.183  10.366   5.281 -0.2295  0.2535 -1.0022
  927MOL0     H25091   6.171  10.201   5.320 -1.6014 -0.0705 -0.0170
  927MOL0     H25092   6.026  10.259   5.515 -1.0252 -3.6629 -1.0895
  927MOL0     H25093   6.011  10.431   5.448 -2.9092 -0.3049 -2.7411
  927MOL0     H25094   5.921  10.176   5.311 -1.5129 -0.2295  0.2022
  927MOL0     H25095   5.920  10.336   5.239 -0.0475 -0.9768 -0.1433
  927MOL0     H25096   5.810  10.550   5.376 -0.8881  0.4109  0.6585
  927MOL0     H25097   5.581  10.665   5.432  1.2376 -1.4854  1.0829
  927MOL0     H25098   5.478  10.572   5.328 -2.2617  0.1149  1.6942
  927MOL0     H25099   5.451  10.567   5.634 -1.9507 -1.0877  0.7829
  927MOL0     H25100   5.349  10.503   5.497  1.0193  0.0305  0.1103
  927MOL0     H25101   5.297  10.742   5.434  0.1050 -3.0375 -0.6068
  927MOL0     H25102   5.428  10.790   5.542  1.0374 -0.6340  1.3271
  927MOL0     H25103   5.310  10.730   5.730 -0.7361  1.4041  2.0526
  927MOL0     H25104   5.176  10.644   5.643  0.4277  0.7171  2.7452
  927MOL0     H25105   5.006  10.671   5.527  2.9261  1.0046 -0.6475
  927MOL0     H25106   4.834  10.588   5.427  1.8811  0.6448  2.5063
  927MOL0     H25107   4.676  10.617   5.482 -1.0468 -1.4080 -2.5629
  927MOL0     H25108   4.731  10.694   5.335  2.6429  0.0713 -0.7903
  927MOL0     H25109   4.351  11.111   5.607  0.1341  0.1594 -0.3643
  927MOL0     H25110   4.141  11.157   5.478  0.5553  0.5726  3.6876
  927MOL0     H25111   4.176  11.348   5.096 -0.1959  0.4904 -0.3320
  927MOL0     H25112   4.185  11.197   5.020 -0.7973 -0.7129  1.0596
  927MOL0     H25113   3.968  11.160   4.981 -0.6841  0.0884 -1.1834
  927MOL0     H25114   3.913  11.267   5.115  1.2845  2.6244  0.4711
  927MOL0     H25115   4.041  11.389   4.882  2.1821 -1.3240  2.6062
  927MOL0     H25116   3.930  11.468   4.988  2.2906  1.0418 -0.1890
  927MOL0     H25117   3.868  11.256   4.772 -0.4611  0.6197  0.2211
  927MOL0     H25118   3.753  11.271   4.901 -0.2842  0.4431 -0.6942
  927MOL0     H25119   3.714  11.498   4.877  1.2433  0.1054  0.3151
  927MOL0     H25120   3.659  11.408   4.744  0.8564  0.8741 -2.2828
  927MOL0     H25121   3.770  11.608   4.649  0.1876 -0.3040 -0.2496
  927MOL0     H25122   3.924  11.570   4.716  1.8863  0.5341 -3.2654
  927MOL0     H25123   3.769  11.432   4.503  1.0453  1.1853  0.2766
  927MOL0     H25124   3.890  11.342   4.585  0.9921  1.0655  0.6486
  927MOL0     H25125   3.953  11.435   4.375 -4.1644  0.1906 -0.0553
  927MOL0     H25126   4.067  11.489   4.507 -0.3404  0.8566  1.6240
  927MOL0     H25127   4.362  11.161   5.112 -0.7840 -0.8663 -0.0719
  927MOL0     H25128   4.571  11.154   5.236 -0.9638  2.2462  0.2502
  927MOL0     H25129   4.792  11.105   5.619 -3.8036 -2.0894 -2.3563
  927MOL0     H25130   5.033  11.063   5.690  0.7963 -0.3894  0.1321
  927MOL0     H25131   7.041  10.202   5.204  0.3920  1.7573  1.1272
  927MOL0     H25132   7.224  10.259   5.065  1.0156  1.3035 -0.6216
  927MOL0     H25133   7.317  10.682   4.794 -0.0288  0.1280  1.1960
  927MOL0     H25134   7.492  10.817   4.708 -0.4534  1.0548  3.1498
  927MOL0     H25135   7.895  10.686   4.767 -1.5143  1.1877  1.0250
  927MOL0     H25136   7.889  10.644   4.602  1.2743  1.7291 -1.3374
  927MOL0     H25137   7.933  10.889   4.530  1.0615  2.5987  1.2470
  927MOL0     H25138   8.056  10.797   4.603  0.1238  0.8690 -0.9025
  927MOL0     H25139   8.090  10.967   4.737  0.4625 -2.1418  0.3345
  927MOL0     H25140   7.985  10.873   4.834  0.7188  1.7199  1.4767
  927MOL0     H25141   7.789  10.981   4.793  1.0665  1.2951  4.4399
  927MOL0     H25142   7.851  11.067   4.645 -2.2895 -0.4840  0.1296
  927MOL0     H25143   7.992  11.288   4.989 -0.2426 -0.5741  0.1066
  927MOL0     H25144   7.773  10.510   4.724  0.1301 -0.2213 -0.0020
  927MOL0     H25145   7.618  10.354   4.813  0.1112  0.1384  1.1586
  928MOL0     O25146   8.841   3.315   3.911 -0.1228  0.7034 -1.2256
  928MOL0     C25147   8.845   3.267   4.023  1.0200  0.4221 -0.2393
  928MOL0     O25148   8.944   3.191   4.076 -0.5433 -0.4791 -0.4847
  928MOL0     C25149   9.061   3.192   3.995 -0.2259 -0.4395 -0.9802
  928MOL0     C25150   9.174   3.264   4.036 -0.0232 -0.2618  0.8507
  928MOL0     C25151   9.286   3.260   3.959  0.4018  0.0953 -0.8669
  928MOL0     C25152   9.295   3.192   3.843  0.3206 -0.3198  0.6432
  928MOL0     O25153   9.403   3.213   3.759  0.4332 -0.0193 -0.4310
  928MOL0     C25154   9.441   3.094   3.689 -0.4177 -0.7442 -0.7769
  928MOL0     C25155   9.584   3.118   3.644  0.2980  0.1668  0.2145
  928MOL0     C25156   9.652   2.992   3.588 -0.0451  0.6001 -0.0081
  928MOL0     C25157   9.802   3.027   3.576 -0.1035  0.3983  0.8386
  928MOL0     C25158   9.871   2.907   3.529  0.4713 -0.2867 -0.8484
  928MOL0     C25159  10.017   2.949   3.486  0.6414  0.1969 -0.2294
  928MOL0     C25160  10.117   2.843   3.518  0.0374  0.6613  0.5158
  928MOL0     C25161  10.257   2.901   3.496  0.6068  0.3001 -0.2135
  928MOL0     N25162  10.312   2.914   3.361  0.0710  0.0013  0.0568
  928MOL0     C25163  10.312   2.823   3.259  0.5914  0.3991 -0.2902
  928MOL0     C25164  10.400   2.877   3.166  0.4866  0.3626  0.8809
  928MOL0     C25165  10.428   2.811   3.033 -0.5034  0.4835  0.1204
  928MOL0     C25166  10.488   2.673   3.044 -0.7817 -0.4130 -0.9886
  928MOL0     C25167  10.510   2.592   2.916  0.3019  0.1521  0.2871
  928MOL0     C25168  10.647   2.627   2.853 -0.2587  0.4926  0.1432
  928MOL0     O25169  10.740   2.568   2.947 -0.1294  0.4171  0.0285
  928MOL0     C25170  10.866   2.530   2.909  0.0964 -0.4050  0.2695
  928MOL0     C25171  10.950   2.481   3.006  0.4347 -0.3564  0.5732
  928MOL0     C25172  11.088   2.434   2.993 -0.2855  0.0142  0.2346
  928MOL0     C25173  11.155   2.382   3.121 -0.6777  0.2346 -0.0337
  928MOL0     C25174  11.138   2.434   2.863  0.7191  0.0613  0.5748
  928MOL0     C25175  11.279   2.397   2.828 -0.4434 -0.9785 -0.5318
  928MOL0     O25176  11.377   2.398   2.927 -0.3409 -0.6528  0.3438
  928MOL0     C25177  11.501   2.348   2.895  0.0733 -0.4630 -0.2355
  928MOL0     C25178  11.579   2.383   2.781  1.3159 -0.5444  0.3030
  928MOL0     C25179  11.709   2.350   2.767 -0.0252 -0.5735 -0.0567
  928MOL0     C25180  11.767   2.258   2.862 -0.0100 -0.2381  1.0227
  928MOL0     O25181  11.893   2.201   2.843 -0.5491 -0.6461  0.0302
  928MOL0     C25182  11.976   2.249   2.738 -1.3612 -0.1621 -0.2317
  928MOL0     C25183  12.120   2.215   2.749  0.4372  0.6258 -0.1145
  928MOL0     C25184  12.175   2.227   2.894  0.4843  0.4031 -0.2335
  928MOL0     C25185  12.318   2.172   2.902  0.4489  0.8225 -0.2044
  928MOL0     C25186  12.422   2.261   2.825 -0.4253  0.6043  0.1175
  928MOL0     C25187  12.564   2.223   2.877  1.2147  0.4635  0.0432
  928MOL0     C25188  12.594   2.077   2.850  0.2986 -0.2102 -0.1883
  928MOL0     C25189  12.736   2.033   2.888  0.3087  0.3579  0.6213
  928MOL0    Cl25190  12.856   2.125   2.794 -0.1188  0.0989 -0.1348
  928MOL0     C25191  11.690   2.215   2.965  0.3400  0.6655 -0.1203
  928MOL0     C25192  11.558   2.249   2.982  0.7718 -0.2638 -0.2054
  928MOL0     O25193  11.309   2.375   2.709 -0.4571  0.1914 -0.3061
  928MOL0     C25194  11.049   2.480   2.755 -0.3839 -1.0863 -0.2679
  928MOL0     C25195  10.922   2.530   2.783 -0.8677  0.8390 -0.0231
  928MOL0     N25196  10.438   2.998   3.213  0.2414 -0.2006 -0.5170
  928MOL0     N25197  10.390   3.017   3.331 -0.6961  0.4554 -0.3803
  928MOL0     C25198   9.191   3.105   3.811 -0.2298  0.1570 -0.5746
  928MOL0     C25199   9.074   3.103   3.895 -0.1035  0.7871 -0.5371
  928MOL0     C25200   8.720   3.277   4.096 -0.7571 -0.2236 -0.5724
  928MOL0     C25201   8.600   3.328   4.038  0.6515 -0.0683 -0.8771
  928MOL0     C25202   8.491   3.352   4.126  0.1739  0.1077  1.3310
  928MOL0     C25203   8.484   3.318   4.250  1.1534 -0.0500 -0.6231
  928MOL0     O25204   8.375   3.371   4.319  0.2013  0.1974  0.3908
  928MOL0     C25205   8.333   3.287   4.426 -0.4182  0.4761  0.7602
  928MOL0     C25206   8.212   3.349   4.495 -0.3856  0.6430 -0.5631
  928MOL0     C25207   8.170   3.268   4.619 -0.0090 -1.1437  0.4625
  928MOL0     C25208   8.024   3.299   4.661  0.2209  0.2054 -0.4711
  928MOL0     C25209   8.000   3.438   4.706 -0.3433  0.3725  0.2335
  928MOL0     C25210   7.985   3.558   4.741  0.1564  0.2571  0.8800
  928MOL0     C25211   8.593   3.252   4.306  0.4592 -0.2535 -0.9159
  928MOL0     C25212   8.709   3.238   4.234 -0.9656 -0.4300  0.5891
  928MOL0     H25213   9.157   3.328   4.122 -0.0489 -1.4806  1.7767
  928MOL0     H25214   9.369   3.318   3.998 -2.6465  4.7829 -0.5267
  928MOL0     H25215   9.455   3.009   3.757  0.2895  2.3704  3.4244
  928MOL0     H25216   9.379   3.067   3.603 -0.5881 -3.8028  0.1726
  928MOL0     H25217   9.599   3.189   3.562 -0.6423  1.4705  1.1457
  928MOL0     H25218   9.641   3.152   3.731  1.8019  1.1602 -1.1042
  928MOL0     H25219   9.641   2.910   3.660  0.6163  2.6959  2.6102
  928MOL0     H25220   9.607   2.965   3.492 -0.4432  0.1343  0.3048
  928MOL0     H25221   9.815   3.101   3.497  2.7818 -2.5263 -1.7301
  928MOL0     H25222   9.844   3.061   3.672 -1.4098 -2.0683  2.4089
  928MOL0     H25223   9.876   2.838   3.613 -0.2281  1.7331  0.9454
  928MOL0     H25224   9.824   2.849   3.448  0.5739 -2.1886  0.3881
  928MOL0     H25225  10.021   2.966   3.378  0.1335 -2.0084 -0.6341
  928MOL0     H25226  10.045   3.037   3.544  1.3590 -0.8830  1.1114
  928MOL0     H25227  10.106   2.831   3.627  1.0067  2.7354  0.9001
  928MOL0     H25228  10.100   2.747   3.470 -2.2818  0.7961  0.9456
  928MOL0     H25229  10.320   2.849   3.569 -0.5006 -1.1291 -0.2282
  928MOL0     H25230  10.253   3.002   3.539 -0.9859 -0.3487  1.2973
  928MOL0     H25231  10.252   2.733   3.245  0.6686  0.1693  0.7621
  928MOL0     H25232  10.338   2.806   2.972  0.6738  0.9292 -1.7327
  928MOL0     H25233  10.499   2.875   2.979 -0.5414  1.8473  1.5962
  928MOL0     H25234  10.416   2.607   3.093 -0.1977 -0.6778 -0.4806
  928MOL0     H25235  10.581   2.679   3.101  0.4723 -5.3496 -2.0703
  928MOL0     H25236  10.434   2.616   2.841 -1.7108 -2.7520  1.1787
  928MOL0     H25237  10.506   2.483   2.930  2.1205 -0.0149 -0.2956
  928MOL0     H25238  10.662   2.736   2.850  0.2938  0.3905 -1.4479
  928MOL0     H25239  10.656   2.588   2.752 -0.0875  1.4410 -0.2200
  928MOL0     H25240  10.904   2.488   3.104 -0.6308 -2.1304  0.2540
  928MOL0     H25241  11.072   2.349   3.184 -1.5141  0.6822 -0.8703
  928MOL0     H25242  11.212   2.293   3.092 -2.0522 -0.2097 -1.5439
  928MOL0     H25243  11.218   2.460   3.163 -3.0812  1.7721  0.8947
  928MOL0     H25244  11.535   2.468   2.730  0.8619 -1.7893 -1.4785
  928MOL0     H25245  11.766   2.391   2.684 -2.9902  1.0024 -1.4386
  928MOL0     H25246  11.941   2.207   2.643  2.7060 -0.1964 -1.9219
  928MOL0     H25247  11.973   2.357   2.748  0.7743 -0.0514 -0.1385
  928MOL0     H25248  12.133   2.111   2.718 -0.7140 -0.1921  1.9153
  928MOL0     H25249  12.172   2.283   2.681  0.8901 -0.0782 -0.4825
  928MOL0     H25250  12.110   2.172   2.963 -1.9296  3.1633 -0.1012
  928MOL0     H25251  12.162   2.334   2.913  0.6915  0.7431 -1.9051
  928MOL0     H25252  12.349   2.164   3.006  0.9174  0.5105 -0.3666
  928MOL0     H25253  12.326   2.070   2.862 -0.3677  0.6572  0.0246
  928MOL0     H25254  12.407   2.365   2.857 -0.5124  0.8448 -0.6688
  928MOL0     H25255  12.428   2.248   2.716 -3.7548 -0.3847 -0.0387
  928MOL0     H25256  12.627   2.290   2.818 -1.4463  2.5170 -0.6392
  928MOL0     H25257  12.573   2.243   2.984  2.1646  0.2840  0.0116
  928MOL0     H25258  12.585   2.059   2.742 -0.5318  0.4207 -0.2320
  928MOL0     H25259  12.530   2.008   2.905 -1.9976  1.1647 -1.0193
  928MOL0     H25260  12.743   1.926   2.865  3.3927  0.3180  1.2974
  928MOL0     H25261  12.758   2.042   2.994 -3.4241 -1.6998  1.7448
  928MOL0     H25262  11.733   2.143   3.034  1.1367  1.7740  0.5720
  928MOL0     H25263  11.514   2.212   3.074 -1.2540  0.2338 -0.9193
  928MOL0     H25264  11.089   2.490   2.655  1.4808 -1.3761  0.4176
  928MOL0     H25265  10.870   2.558   2.692  0.4286  0.4849 -0.9018
  928MOL0     H25266   9.192   3.046   3.720 -1.7536  1.9459 -1.8082
  928MOL0     H25267   8.987   3.045   3.864 -0.0308  1.5982 -2.4192
  928MOL0     H25268   8.590   3.350   3.933 -0.6515 -2.8423 -1.4308
  928MOL0     H25269   8.415   3.414   4.079  0.9340 -1.5660 -2.4777
  928MOL0     H25270   8.322   3.187   4.383  1.3083  0.6004 -0.0647
  928MOL0     H25271   8.415   3.286   4.499  0.8579 -0.2722 -0.6185
  928MOL0     H25272   8.125   3.350   4.428 -1.5963 -2.2756  0.7462
  928MOL0     H25273   8.223   3.453   4.527  0.3434  1.0206 -1.9811
  928MOL0     H25274   8.231   3.306   4.702 -2.4482  2.4240  0.8319
  928MOL0     H25275   8.181   3.161   4.596 -0.4787 -0.6778 -2.1967
  928MOL0     H25276   7.994   3.226   4.737 -1.5405 -0.6949 -1.9504
  928MOL0     H25277   7.956   3.280   4.578  0.1329 -1.3399 -0.0879
  928MOL0     H25278   7.998   3.662   4.764  2.0600  0.3311 -0.3341
  928MOL0     H25279   8.599   3.211   4.407  0.0789  2.9023  0.5001
  928MOL0     H25280   8.800   3.208   4.286 -2.3773 -2.0655  2.2420
  929MOL0     O25281   0.496  10.165   6.665  0.4266  0.0827 -0.2638
  929MOL0     C25282   0.510  10.176   6.542  0.2725  0.0637  0.1917
  929MOL0     O25283   0.411  10.230   6.456  0.0447 -0.7345  0.8517
  929MOL0     C25284   0.295  10.275   6.506  0.5116  0.5367  0.1409
  929MOL0     C25285   0.283  10.395   6.566  0.4456 -0.3553 -0.2780
  929MOL0     C25286   0.159  10.446   6.615  0.1171  0.0653  0.0990
  929MOL0     C25287   0.039  10.390   6.595  0.2841 -0.4585  0.2688
  929MOL0     O25288  -0.087  10.435   6.620  0.1952 -0.8086  0.1632
  929MOL0     C25289  -0.133  10.529   6.509 -0.4785  0.6685 -0.6040
  929MOL0     C25290  -0.245  10.631   6.560  0.0047  0.1587 -0.2456
  929MOL0     C25291  -0.345  10.656   6.447 -0.5024  0.7725  0.3808
  929MOL0     C25292  -0.415  10.788   6.469 -0.3581 -0.2780  0.0291
  929MOL0     C25293  -0.509  10.779   6.598  0.5105  0.3274 -0.7440
  929MOL0     C25294  -0.642  10.857   6.587  1.1352 -0.2554 -0.1468
  929MOL0     C25295  -0.605  11.010   6.570 -0.5976 -0.0927 -0.5690
  929MOL0     C25296  -0.711  11.096   6.639 -0.0699 -0.5287  0.0722
  929MOL0     N25297  -0.834  11.099   6.559  0.1584  0.9162 -0.5348
  929MOL0     C25298  -0.959  11.078   6.610 -0.0603  1.1339 -0.2716
  929MOL0     C25299  -1.039  11.057   6.505 -0.0263 -0.0431  0.2729
  929MOL0     C25300  -1.186  11.040   6.502  0.5289  0.5376 -0.1944
  929MOL0     C25301  -1.267  11.164   6.544  0.1966  0.5065  0.0808
  929MOL0     C25302  -1.387  11.182   6.447  0.9408 -0.5243  0.1604
  929MOL0     C25303  -1.498  11.075   6.466 -0.2395  0.4888  0.2544
  929MOL0     O25304  -1.572  11.081   6.593 -0.0074 -0.6663  0.4761
  929MOL0     C25305  -1.644  10.968   6.633  0.1669 -0.3287 -0.4467
  929MOL0     C25306  -1.696  10.980   6.762  0.0695  0.1898  0.6845
  929MOL0     C25307  -1.782  10.884   6.822 -0.3247  0.2301  0.1960
  929MOL0     C25308  -1.832  10.923   6.962  0.4142  1.2225 -0.3328
  929MOL0     C25309  -1.820  10.764   6.755  0.7352  0.4778  0.5468
  929MOL0     C25310  -1.926  10.665   6.805 -0.3958  0.7401 -0.0658
  929MOL0     O25311  -1.969  10.581   6.703 -0.3230  0.6816  0.1902
  929MOL0     C25312  -2.073  10.497   6.722  0.4755 -0.8481 -0.4355
  929MOL0     C25313  -2.182  10.521   6.800  0.0883 -0.2091 -0.5125
  929MOL0     C25314  -2.279  10.423   6.816  0.0418  0.4941 -0.2933
  929MOL0     C25315  -2.263  10.290   6.753  0.2904  0.1868  0.4031
  929MOL0     O25316  -2.338  10.180   6.776  0.0004 -0.3671  0.3785
  929MOL0     C25317  -2.430  10.184   6.886 -0.8225 -0.1390  0.7569
  929MOL0     C25318  -2.521  10.056   6.864 -0.3690  0.1107 -0.2936
  929MOL0     C25319  -2.579  10.006   6.993  0.1132  0.4601  0.3123
  929MOL0     C25320  -2.659   9.881   6.962  0.3180  0.4370  0.4195
  929MOL0     C25321  -2.772   9.840   7.065 -0.4925  0.1389  0.0557
  929MOL0     C25322  -2.843   9.711   7.020 -0.0917 -0.0187  0.0882
  929MOL0     C25323  -2.993   9.702   7.050 -0.7239 -0.1112  0.0404
  929MOL0     C25324  -3.059   9.595   6.964  0.4614 -0.4648 -0.3973
  929MOL0    Cl25325  -3.235   9.634   6.966  0.1029  0.1776  0.4547
  929MOL0     C25326  -2.148  10.272   6.669 -0.8258 -0.0968  0.2551
  929MOL0     C25327  -2.055  10.375   6.654 -0.2087 -0.5302 -0.2349
  929MOL0     O25328  -1.970  10.670   6.918 -0.0950  0.2653 -0.4197
  929MOL0     C25329  -1.766  10.750   6.629 -1.0658 -0.1876  0.1532
  929MOL0     C25330  -1.684  10.854   6.564 -0.1097  0.0230  0.1981
  929MOL0     N25331  -0.965  11.079   6.390  0.3635  0.9126 -0.0834
  929MOL0     N25332  -0.840  11.093   6.427  0.6224  0.9850  0.7451
  929MOL0     C25333   0.049  10.259   6.547  0.0679 -0.7000  1.1678
  929MOL0     C25334   0.175  10.201   6.503  0.8096 -0.1348 -0.0259
  929MOL0     C25335   0.634  10.132   6.476 -0.7442  0.8479  1.0729
  929MOL0     C25336   0.718  10.029   6.515 -0.3053 -0.3128 -0.7250
  929MOL0     C25337   0.835   9.985   6.443  0.9296 -0.1880 -0.7904
  929MOL0     C25338   0.870  10.046   6.328 -0.3791 -0.5464  0.2239
  929MOL0     O25339   0.988  10.006   6.258  0.5139  0.1304  0.1213
  929MOL0     C25340   1.073  10.119   6.212 -0.5718 -0.0260  0.4346
  929MOL0     C25341   1.202  10.062   6.156  0.9171  1.0734  0.5078
  929MOL0     C25342   1.206   9.986   6.019 -0.0438  0.0029  0.2241
  929MOL0     C25343   1.102   9.875   5.995  0.2734  0.2242 -0.1604
  929MOL0     C25344   1.137   9.759   6.067  0.4474 -0.8924 -0.5046
  929MOL0     C25345   1.157   9.661   6.143 -0.5401 -0.0954  1.1305
  929MOL0     C25346   0.788  10.152   6.281  0.0899 -0.0941 -0.8598
  929MOL0     C25347   0.671  10.197   6.353  0.1843  0.8455  0.1872
  929MOL0     H25348   0.363  10.468   6.572 -2.0613  2.7840 -2.0426
  929MOL0     H25349   0.173  10.543   6.663  3.1939 -0.3980  0.3808
  929MOL0     H25350  -0.050  10.594   6.480 -0.3787  0.1916 -1.4479
  929MOL0     H25351  -0.156  10.478   6.415  0.6823  1.7147 -1.4921
  929MOL0     H25352  -0.308  10.584   6.635 -1.5439 -2.4598 -2.9637
  929MOL0     H25353  -0.193  10.721   6.594 -2.8350  1.3825  1.0840
  929MOL0     H25354  -0.295  10.661   6.349  1.0793  1.9284  1.2045
  929MOL0     H25355  -0.407  10.567   6.431  0.0158  0.1795  1.6207
  929MOL0     H25356  -0.336  10.860   6.493  0.2586 -1.6205  2.4386
  929MOL0     H25357  -0.466  10.822   6.379 -1.1013 -0.9332  0.1891
  929MOL0     H25358  -0.526  10.672   6.613  2.9946 -0.1820 -1.0422
  929MOL0     H25359  -0.454  10.813   6.686 -1.2040  2.0655 -0.2883
  929MOL0     H25360  -0.702  10.819   6.504  2.4995  0.9275 -1.7427
  929MOL0     H25361  -0.695  10.835   6.680  0.5225 -1.2755 -0.7204
  929MOL0     H25362  -0.512  11.028   6.624 -1.8772  0.4854  1.5948
  929MOL0     H25363  -0.604  11.030   6.463 -3.6184 -2.6480 -1.2698
  929MOL0     H25364  -0.661  11.192   6.634  0.2594 -0.6731  0.5323
  929MOL0     H25365  -0.730  11.078   6.745 -1.7518  1.4132  0.1439
  929MOL0     H25366  -0.983  11.089   6.716  2.3134  2.4395  0.2086
  929MOL0     H25367  -1.216  11.018   6.399  3.1393  2.8551 -1.5910
  929MOL0     H25368  -1.212  10.963   6.576  0.9189  0.1596 -0.4445
  929MOL0     H25369  -1.206  11.255   6.545 -0.3164  0.8799 -1.4162
  929MOL0     H25370  -1.294  11.146   6.649  3.3500 -2.5259  0.5694
  929MOL0     H25371  -1.350  11.188   6.344  0.6598  1.4401  0.1309
  929MOL0     H25372  -1.432  11.278   6.477 -2.9298 -1.5887 -1.5295
  929MOL0     H25373  -1.448  10.977   6.468  1.5345  1.2999  3.4965
  929MOL0     H25374  -1.569  11.067   6.384 -0.8848  0.3538  0.8166
  929MOL0     H25375  -1.667  11.070   6.814  0.1709  0.9408 -0.6239
  929MOL0     H25376  -1.921  10.987   6.953 -0.2272  0.1696 -2.0846
  929MOL0     H25377  -1.843  10.839   7.030  1.8273  0.9635 -0.3959
  929MOL0     H25378  -1.756  10.981   7.015 -0.5374  3.7872 -1.5727
  929MOL0     H25379  -2.193  10.616   6.851 -1.9810  1.1505 -3.2284
  929MOL0     H25380  -2.369  10.435   6.877 -0.2326  2.1105 -0.9725
  929MOL0     H25381  -2.379  10.183   6.983  2.2908  1.0710 -0.7272
  929MOL0     H25382  -2.495  10.270   6.868 -0.7947 -0.4040 -0.7537
  929MOL0     H25383  -2.605  10.086   6.801 -2.6426 -1.8359  1.6481
  929MOL0     H25384  -2.458   9.983   6.813 -1.5255 -0.0973 -1.4812
  929MOL0     H25385  -2.644  10.075   7.048 -0.6132 -0.2615  0.3880
  929MOL0     H25386  -2.495   9.987   7.061 -0.0240 -1.6718 -0.0530
  929MOL0     H25387  -2.701   9.879   6.861  2.7324  1.3406 -0.6766
  929MOL0     H25388  -2.589   9.797   6.957  1.0752  1.1386 -2.3195
  929MOL0     H25389  -2.841   9.923   7.086 -4.1711 -2.5245 -0.5628
  929MOL0     H25390  -2.722   9.827   7.162 -1.4603 -1.2119  0.3934
  929MOL0     H25391  -2.818   9.693   6.915  0.5389  1.7771 -0.1053
  929MOL0     H25392  -2.802   9.622   7.069  0.3835 -1.0956 -2.1272
  929MOL0     H25393  -3.047   9.795   7.029 -1.3625 -0.6652 -0.8387
  929MOL0     H25394  -3.006   9.679   7.156 -0.0835  2.4416  0.7339
  929MOL0     H25395  -3.045   9.493   7.002  0.4508  0.5004  2.3757
  929MOL0     H25396  -3.022   9.602   6.861 -0.3581 -1.0595 -0.7451
  929MOL0     H25397  -2.139  10.189   6.599  3.6382  1.1030 -0.9092
  929MOL0     H25398  -1.965  10.365   6.593 -0.1699  0.8239 -0.4371
  929MOL0     H25399  -1.780  10.665   6.563  1.0386 -0.1823 -0.3960
  929MOL0     H25400  -1.648  10.846   6.462  4.3069  1.3549  1.4395
  929MOL0     H25401  -0.044  10.206   6.529  1.2190 -3.3974  2.5994
  929MOL0     H25402   0.173  10.100   6.463  1.5371  0.0441 -0.5297
  929MOL0     H25403   0.685   9.993   6.612 -0.0987  1.8801  0.2074
  929MOL0     H25404   0.892   9.903   6.487 -2.6846 -1.7330  1.4404
  929MOL0     H25405   1.023  10.165   6.125 -0.9831 -0.4612  0.4372
  929MOL0     H25406   1.104  10.183   6.295 -2.0460  0.9025  0.3250
  929MOL0     H25407   1.239   9.991   6.230 -1.5351 -0.5418  0.3007
  929MOL0     H25408   1.281  10.138   6.165 -0.1767  2.2442  0.5901
  929MOL0     H25409   1.303   9.941   5.997 -1.1952 -2.1766 -0.7483
  929MOL0     H25410   1.197  10.059   5.938  4.2893  2.0430  1.2744
  929MOL0     H25411   1.097   9.856   5.888 -0.0758  2.2448 -0.5482
  929MOL0     H25412   1.003   9.904   6.030 -0.0801  0.3094 -1.2009
  929MOL0     H25413   1.159   9.582   6.215 -1.3552 -0.0443  1.2133
  929MOL0     H25414   0.804  10.218   6.196 -1.3603  0.9834 -0.3276
  929MOL0     H25415   0.618  10.285   6.318 -0.5412 -0.2225 -1.4992
  930MOL0     O25416   0.223  10.486   8.493  0.0753  0.1213 -0.9639
  930MOL0     C25417   0.146  10.509   8.590  0.5445  0.5984 -0.0555
  930MOL0     O25418   0.054  10.416   8.641 -0.1534  0.3508 -0.0458
  930MOL0     C25419   0.013  10.318   8.561  0.2241  0.3470 -0.3824
  930MOL0     C25420  -0.035  10.329   8.432 -0.1076 -0.3819  0.0708
  930MOL0     C25421  -0.077  10.222   8.353  1.2186 -0.0283  0.3143
  930MOL0     C25422  -0.074  10.100   8.418 -0.9156 -0.0667  0.6702
  930MOL0     O25423  -0.112   9.993   8.329  0.1164 -0.3516 -0.0178
  930MOL0     C25424  -0.146   9.867   8.384  0.7883 -0.6837 -1.2361
  930MOL0     C25425  -0.214   9.795   8.271 -0.7653  0.1342  0.0553
  930MOL0     C25426  -0.360   9.849   8.253  0.0985 -0.3814  0.4561
  930MOL0     C25427  -0.416   9.840   8.118 -0.3056  0.0096 -0.1988
  930MOL0     C25428  -0.561   9.876   8.133 -0.0449  0.1650 -0.7057
  930MOL0     C25429  -0.635   9.849   8.009  0.1321  0.3844 -0.2636
  930MOL0     C25430  -0.654   9.982   7.934 -0.5464  0.5024  0.0912
  930MOL0     C25431  -0.741   9.962   7.802  0.1379  0.4057  0.5428
  930MOL0     N25432  -0.876   9.915   7.838 -0.0722  0.1214  0.9105
  930MOL0     C25433  -0.984  10.002   7.864  0.4144 -0.6434  0.2351
  930MOL0     C25434  -1.084   9.926   7.890  0.0216  0.5397  0.0925
  930MOL0     C25435  -1.220   9.964   7.925 -0.5083  0.1928 -1.0132
  930MOL0     C25436  -1.279   9.879   8.042 -0.1016 -0.3378 -0.7220
  930MOL0     C25437  -1.395   9.972   8.105  0.4379  0.4242 -0.2070
  930MOL0     C25438  -1.476   9.898   8.220  0.3678  0.7340 -0.3681
  930MOL0     O25439  -1.541   9.776   8.163 -0.0630 -0.1268  0.5826
  930MOL0     C25440  -1.651   9.718   8.218 -0.1272  0.0165  0.1615
  930MOL0     C25441  -1.721   9.641   8.131 -0.3636  1.1716  0.0776
  930MOL0     C25442  -1.855   9.587   8.160  0.4784  0.2564 -0.6130
  930MOL0     C25443  -1.936   9.508   8.054  0.2441 -0.0917 -0.0466
  930MOL0     C25444  -1.913   9.624   8.294 -1.2233  0.6078  0.0823
  930MOL0     C25445  -2.040   9.578   8.352  0.6264 -0.1074  0.0325
  930MOL0     O25446  -2.075   9.651   8.464 -0.3523 -0.4233  0.3504
  930MOL0     C25447  -2.184   9.612   8.532 -0.1692  0.4464 -0.0188
  930MOL0     C25448  -2.294   9.694   8.569 -0.8233  0.5032 -0.1702
  930MOL0     C25449  -2.382   9.668   8.673  0.1535  0.1876 -0.1200
  930MOL0     C25450  -2.369   9.550   8.744 -0.0242 -0.4571  0.3692
  930MOL0     O25451  -2.448   9.524   8.848  0.9346 -0.0701  0.0251
  930MOL0     C25452  -2.505   9.391   8.860  0.2600 -0.1344 -0.5030
  930MOL0     C25453  -2.634   9.375   8.784  0.7949 -0.9504 -0.3409
  930MOL0     C25454  -2.749   9.454   8.847  0.4250 -0.2108 -0.2599
  930MOL0     C25455  -2.881   9.438   8.768 -0.6230  0.4947  0.0097
  930MOL0     C25456  -2.992   9.530   8.824  0.0547 -0.1566  1.0076
  930MOL0     C25457  -2.950   9.677   8.817  0.1554  0.4561 -0.4618
  930MOL0     C25458  -3.068   9.773   8.841  0.2882  0.7493  0.2265
  930MOL0     C25459  -3.025   9.909   8.786 -0.2193  0.0830  0.1264
  930MOL0    Cl25460  -2.941  10.002   8.908 -0.0441  0.3217  0.2948
  930MOL0     C25461  -2.266   9.464   8.715 -0.2565  0.4573 -0.1904
  930MOL0     C25462  -2.169   9.496   8.615  0.2420 -0.1579 -0.5993
  930MOL0     O25463  -2.098   9.471   8.314 -0.1254  0.4913 -0.2505
  930MOL0     C25464  -1.823   9.683   8.389  0.0749  0.3687  0.2588
  930MOL0     C25465  -1.698   9.739   8.348  0.0651  0.8182 -0.7864
  930MOL0     N25466  -1.044   9.793   7.895 -0.2209  0.6306 -0.8304
  930MOL0     N25467  -0.928   9.790   7.856 -0.9485 -0.7769 -0.1281
  930MOL0     C25468  -0.037  10.088   8.549 -0.1531  0.8425 -0.4188
  930MOL0     C25469   0.019  10.193   8.615 -0.5174  0.7643  0.1196
  930MOL0     C25470   0.164  10.620   8.672 -0.2364 -0.0413  0.1185
  930MOL0     C25471   0.099  10.646   8.791  0.5107 -0.3405  0.4666
  930MOL0     C25472   0.133  10.754   8.866  0.0669  0.8276  0.4595
  930MOL0     C25473   0.239  10.840   8.829 -0.6627 -0.6312  0.1241
  930MOL0     O25474   0.290  10.933   8.925 -0.9220  0.3839 -0.6997
  930MOL0     C25475   0.273  11.064   8.892 -0.3560  0.0107  0.6495
  930MOL0     C25476   0.371  11.141   8.980 -0.1009 -0.6847 -0.2267
  930MOL0     C25477   0.519  11.110   8.935 -0.5900  0.3632 -0.3944
  930MOL0     C25478   0.616  11.210   9.012 -0.3552  0.4172 -0.5948
  930MOL0     C25479   0.756  11.171   8.994 -0.0958  0.5431  0.0351
  930MOL0     C25480   0.868  11.124   8.983 -0.4196 -0.6329 -1.0770
  930MOL0     C25481   0.307  10.813   8.714 -0.2206  0.4962 -0.1476
  930MOL0     C25482   0.262  10.715   8.626  0.0904  0.2057 -0.4432
  930MOL0     H25483  -0.044  10.429   8.390 -0.5485  1.0756  3.3151
  930MOL0     H25484  -0.100  10.227   8.247  0.3922 -0.2035  0.4813
  930MOL0     H25485  -0.055   9.822   8.425  1.4363  0.7326 -1.0218
  930MOL0     H25486  -0.208   9.877   8.474  1.6291  3.2233 -0.9084
  930MOL0     H25487  -0.150   9.802   8.182 -1.3670  0.9050 -0.3331
  930MOL0     H25488  -0.210   9.688   8.291 -0.4313 -0.3944 -2.4271
  930MOL0     H25489  -0.429   9.787   8.311 -2.9393  0.7924 -1.6173
  930MOL0     H25490  -0.365   9.953   8.284 -1.1004 -0.1435 -0.4407
  930MOL0     H25491  -0.370   9.910   8.047  4.2474 -2.1446  0.2594
  930MOL0     H25492  -0.417   9.740   8.073 -0.2790  1.2290 -3.1377
  930MOL0     H25493  -0.607   9.809   8.207  0.1858 -0.6387 -1.2680
  930MOL0     H25494  -0.582   9.974   8.175  3.5026  1.3945 -1.4484
  930MOL0     H25495  -0.582   9.787   7.936 -0.0765  1.7631 -1.6456
  930MOL0     H25496  -0.732   9.809   8.039 -0.2870  0.6177 -1.2481
  930MOL0     H25497  -0.713  10.049   7.996 -0.8841  0.2423  0.0520
  930MOL0     H25498  -0.559  10.031   7.908 -0.4035  1.5614  2.3494
  930MOL0     H25499  -0.694   9.891   7.734 -0.8097 -1.7243  2.0095
  930MOL0     H25500  -0.756  10.061   7.758 -1.3418  0.2275  0.5841
  930MOL0     H25501  -0.969  10.110   7.868 -3.0441 -0.0974  1.5349
  930MOL0     H25502  -1.213  10.066   7.962  1.0519  0.0377 -0.8434
  930MOL0     H25503  -1.293   9.954   7.843 -1.4067  1.4456 -0.3929
  930MOL0     H25504  -1.197   9.856   8.111  0.0296 -0.1066 -0.7996
  930MOL0     H25505  -1.331   9.788   8.012 -1.9712 -0.0086  1.2931
  930MOL0     H25506  -1.469  10.004   8.032 -0.4042 -2.7197 -0.8886
  930MOL0     H25507  -1.349  10.061   8.149 -0.1313  1.0731 -0.9140
  930MOL0     H25508  -1.544   9.973   8.263  1.6617  1.8156 -0.1224
  930MOL0     H25509  -1.400   9.869   8.292 -0.7247  1.5088  1.1535
  930MOL0     H25510  -1.690   9.629   8.028 -0.1850 -1.5025  0.3623
  930MOL0     H25511  -1.878   9.515   7.962  1.3725  0.9760  0.7152
  930MOL0     H25512  -1.953   9.404   8.083 -0.2144 -0.3678 -1.2485
  930MOL0     H25513  -2.037   9.548   8.040 -0.8572 -1.7144  2.4039
  930MOL0     H25514  -2.305   9.789   8.516  1.2806  0.6574 -0.4402
  930MOL0     H25515  -2.471   9.729   8.686 -0.1238  0.3061 -2.2956
  930MOL0     H25516  -2.443   9.316   8.810  0.8735  0.5923 -0.8525
  930MOL0     H25517  -2.522   9.355   8.962  1.4183 -0.4035 -0.3985
  930MOL0     H25518  -2.614   9.403   8.680  1.3288 -1.5064 -0.3898
  930MOL0     H25519  -2.660   9.269   8.782 -0.4391 -0.6651 -0.4180
  930MOL0     H25520  -2.716   9.558   8.847 -2.4497  0.7988  0.8906
  930MOL0     H25521  -2.755   9.432   8.954  3.0837  2.4548  0.5937
  930MOL0     H25522  -2.855   9.443   8.662  0.8759 -5.0749 -0.2211
  930MOL0     H25523  -2.915   9.335   8.783  0.6906  0.2330  1.4478
  930MOL0     H25524  -3.016   9.502   8.927 -1.5340 -1.3389  0.3444
  930MOL0     H25525  -3.089   9.517   8.776  1.4460 -1.9847 -1.5404
  930MOL0     H25526  -2.874   9.702   8.891 -0.5418  0.1669  0.3752
  930MOL0     H25527  -2.912   9.695   8.716  0.1993 -0.6285 -0.6570
  930MOL0     H25528  -3.103   9.772   8.944  1.5682 -0.0859  0.6808
  930MOL0     H25529  -3.157   9.740   8.786  0.7039 -0.6329  0.3286
  930MOL0     H25530  -3.113   9.966   8.754  0.0785 -0.4477 -1.7249
  930MOL0     H25531  -2.960   9.905   8.699  2.0365  0.3818  1.7202
  930MOL0     H25532  -2.243   9.375   8.772  1.3543  0.0580 -1.3775
  930MOL0     H25533  -2.079   9.435   8.611  1.4992  1.5677  0.2016
  930MOL0     H25534  -1.849   9.699   8.493 -0.1712 -0.6661  0.3720
  930MOL0     H25535  -1.642   9.795   8.422  1.7112  0.7747 -1.9567
  930MOL0     H25536  -0.028   9.986   8.586  0.7579  0.5876 -1.3001
  930MOL0     H25537   0.065  10.168   8.711 -0.5738  1.7854  0.4350
  930MOL0     H25538   0.019  10.577   8.815 -1.4169  2.2344  1.9391
  930MOL0     H25539   0.076  10.771   8.957  0.0020  1.4525  0.3096
  930MOL0     H25540   0.297  11.082   8.786 -2.2176  2.2401  0.5223
  930MOL0     H25541   0.169  11.095   8.904  0.2644  2.9591 -0.6660
  930MOL0     H25542   0.355  11.115   9.085  2.8712 -3.5481 -0.3091
  930MOL0     H25543   0.347  11.248   8.977 -0.5360 -0.6880  1.6380
  930MOL0     H25544   0.542  11.120   8.828  4.2857  3.9408  0.6363
  930MOL0     H25545   0.547  11.010   8.970 -2.3645  0.6672  2.1867
  930MOL0     H25546   0.588  11.188   9.116 -0.6328 -0.3788 -0.8388
  930MOL0     H25547   0.601  11.314   8.982  0.3507  0.6300 -0.2485
  930MOL0     H25548   0.967  11.086   8.968 -0.4102 -0.8440 -0.4913
  930MOL0     H25549   0.403  10.861   8.693  0.9178 -1.5405  0.1663
  930MOL0     H25550   0.316  10.701   8.533 -1.6642  2.2659 -1.8655
  931MOL0     O25551  10.858   8.680   6.376 -0.5014 -0.2719 -0.4380
  931MOL0     C25552  10.847   8.776   6.452  0.4227 -0.1643  0.1860
  931MOL0     O25553  10.774   8.887   6.430  0.5441  0.4089 -0.8911
  931MOL0     C25554  10.670   8.879   6.345  1.2223 -0.4720 -0.2391
  931MOL0     C25555  10.550   8.819   6.387  0.2221 -0.7916  1.1185
  931MOL0     C25556  10.444   8.801   6.297  0.3438  0.0808 -1.0060
  931MOL0     C25557  10.444   8.851   6.166  0.0430 -0.3697 -0.3799
  931MOL0     O25558  10.337   8.844   6.078 -0.0298  0.5626  0.3294
  931MOL0     C25559  10.208   8.826   6.134 -0.3657 -0.4346 -0.4976
  931MOL0     C25560  10.106   8.862   6.025  0.7720 -0.2659  0.2905
  931MOL0     C25561   9.967   8.852   6.091  1.4715 -0.4776  0.1774
  931MOL0     C25562   9.846   8.839   5.987 -1.2083  0.0945  0.4057
  931MOL0     C25563   9.863   8.727   5.880  0.4004 -0.7571  0.3093
  931MOL0     C25564   9.735   8.693   5.810  0.2944 -0.9343  0.4930
  931MOL0     C25565   9.749   8.635   5.669 -0.2552  0.5189 -0.0711
  931MOL0     C25566   9.620   8.643   5.583 -0.0303 -0.2620 -0.2998
  931MOL0     N25567   9.658   8.599   5.445  0.4249 -0.4226 -0.7878
  931MOL0     C25568   9.671   8.467   5.409 -0.4517  0.0212  0.5061
  931MOL0     C25569   9.750   8.463   5.302  0.2088  0.0769 -0.4276
  931MOL0     C25570   9.793   8.352   5.213  0.2370 -0.0340  0.7174
  931MOL0     C25571   9.679   8.267   5.164 -0.0593  0.3602 -0.3534
  931MOL0     C25572   9.562   8.354   5.110  0.3145  0.1792 -0.5140
  931MOL0     C25573   9.445   8.267   5.053 -0.2545  0.8990 -0.3811
  931MOL0     O25574   9.350   8.336   4.980 -0.7896  0.7419 -0.5839
  931MOL0     C25575   9.244   8.262   4.926 -0.5187 -0.8747  0.7234
  931MOL0     C25576   9.179   8.318   4.814 -0.1005  0.2829 -0.2150
  931MOL0     C25577   9.057   8.261   4.762 -0.5232  0.3485  0.3301
  931MOL0     C25578   8.978   8.354   4.667  0.4681 -0.0789 -0.3133
  931MOL0     C25579   9.012   8.135   4.803  0.0272  0.2601  0.1064
  931MOL0     C25580   8.894   8.076   4.745  0.0487 -0.0170  0.4434
  931MOL0     O25581   8.831   7.986   4.830 -0.6464 -0.6000  0.0146
  931MOL0     C25582   8.699   7.939   4.802  0.4479 -0.0433 -0.4588
  931MOL0     C25583   8.678   7.808   4.792 -0.6598  0.1278 -0.2712
  931MOL0     C25584   8.550   7.755   4.766 -0.1751 -0.7272  0.3367
  931MOL0     C25585   8.436   7.842   4.752 -0.3280  1.1300 -0.3785
  931MOL0     O25586   8.308   7.797   4.727 -0.7535 -0.3601 -0.1922
  931MOL0     C25587   8.293   7.650   4.706 -0.3943 -0.0851 -0.5945
  931MOL0     C25588   8.150   7.611   4.665 -0.3237 -0.6309  0.2566
  931MOL0     C25589   8.056   7.632   4.777  0.6500 -0.1802 -0.1466
  931MOL0     C25590   7.917   7.599   4.723  0.1794  0.6187 -0.4407
  931MOL0     C25591   7.824   7.598   4.845 -0.6691  0.7515 -0.2999
  931MOL0     C25592   7.812   7.478   4.932 -0.1131  0.8246 -0.2020
  931MOL0     C25593   7.725   7.366   4.863 -0.8261  0.0974 -0.3484
  931MOL0     C25594   7.576   7.395   4.835 -0.3612  1.1717  0.5443
  931MOL0    Cl25595   7.492   7.236   4.784  0.0919  0.1106  0.2705
  931MOL0     C25596   8.461   7.982   4.776  0.7009  0.5906  0.5023
  931MOL0     C25597   8.588   8.026   4.797 -0.1396  0.4184  0.0004
  931MOL0     O25598   8.868   8.091   4.632 -0.7323  0.5606  0.2935
  931MOL0     C25599   9.079   8.078   4.907 -0.0634 -0.4364 -0.4606
  931MOL0     C25600   9.193   8.137   4.966  1.0128 -0.5037  0.3639
  931MOL0     N25601   9.783   8.593   5.274  0.2621 -1.3159 -0.4889
  931MOL0     N25602   9.727   8.679   5.357 -0.2111  0.0768  0.6595
  931MOL0     C25603  10.556   8.918   6.131  0.6458 -0.1862  0.0866
  931MOL0     C25604  10.664   8.931   6.216  0.0027 -0.4549  0.2957
  931MOL0     C25605  10.906   8.744   6.580 -0.2325 -0.9664  0.1564
  931MOL0     C25606  10.934   8.857   6.664  0.9138  0.0080  0.1423
  931MOL0     C25607  10.990   8.841   6.787 -0.2408 -1.6592 -0.3903
  931MOL0     C25608  11.010   8.712   6.840  0.1991 -0.1058 -1.1709
  931MOL0     O25609  11.061   8.678   6.967  0.1523 -0.2939 -0.0316
  931MOL0     C25610  11.139   8.758   7.056 -0.3373 -0.7789  0.2171
  931MOL0     C25611  11.290   8.750   7.012  0.0888 -0.1352  0.2082
  931MOL0     C25612  11.359   8.619   7.037 -0.1733 -0.5628 -0.1371
  931MOL0     C25613  11.517   8.610   7.039  0.4323  0.0419  0.4725
  931MOL0     C25614  11.583   8.679   7.144 -0.4526 -0.3279  0.1346
  931MOL0     C25615  11.636   8.740   7.234 -0.1235 -0.5222 -0.7727
  931MOL0     C25616  10.972   8.605   6.760 -0.2800  0.2227 -0.7407
  931MOL0     C25617  10.918   8.616   6.634  0.2028 -0.8539 -1.1159
  931MOL0     H25618  10.542   8.785   6.490 -0.3301  0.6530  1.5798
  931MOL0     H25619  10.365   8.737   6.336  1.4772 -0.1258  1.1235
  931MOL0     H25620  10.203   8.722   6.167  0.9783 -0.2940  0.2527
  931MOL0     H25621  10.199   8.901   6.214 -1.3675 -0.3809 -0.6472
  931MOL0     H25622  10.125   8.961   5.981 -0.5127 -1.0687 -2.1945
  931MOL0     H25623  10.111   8.783   5.950 -2.1958 -1.8775  1.6286
  931MOL0     H25624   9.972   8.766   6.158  1.6644 -1.8627 -1.5414
  931MOL0     H25625   9.948   8.942   6.151 -0.2156 -1.6331  1.4674
  931MOL0     H25626   9.755   8.813   6.041 -1.7657  1.4672  0.1707
  931MOL0     H25627   9.826   8.932   5.932 -2.6173 -1.4650 -1.8904
  931MOL0     H25628   9.931   8.767   5.804  0.4763 -0.3950  0.5655
  931MOL0     H25629   9.910   8.637   5.919 -0.3596 -1.0747  0.5052
  931MOL0     H25630   9.670   8.635   5.876 -0.1756 -0.2415  0.6550
  931MOL0     H25631   9.696   8.793   5.789 -0.2334 -1.5544 -1.7757
  931MOL0     H25632   9.834   8.679   5.616  0.9830 -1.9968 -0.3341
  931MOL0     H25633   9.778   8.530   5.679 -0.0540  0.5512 -0.2927
  931MOL0     H25634   9.586   8.746   5.578  0.0596 -0.1808  0.6192
  931MOL0     H25635   9.537   8.585   5.625  0.2536 -1.9585 -1.9328
  931MOL0     H25636   9.617   8.384   5.453 -1.2080 -1.4352 -2.8512
  931MOL0     H25637   9.840   8.401   5.128 -0.9266  0.2623  0.2293
  931MOL0     H25638   9.867   8.288   5.263  1.7558  0.7870 -0.3712
  931MOL0     H25639   9.646   8.211   5.251  0.1631  4.0907  2.3459
  931MOL0     H25640   9.712   8.199   5.085  1.1201  0.8023 -0.2580
  931MOL0     H25641   9.593   8.424   5.032 -0.8030  1.3836  0.0705
  931MOL0     H25642   9.534   8.411   5.199 -1.8448  0.6864 -1.4671
  931MOL0     H25643   9.399   8.205   5.130 -1.4915  1.2785 -0.7871
  931MOL0     H25644   9.487   8.194   4.983 -3.0082 -0.0995 -1.0826
  931MOL0     H25645   9.202   8.420   4.783 -1.8214  0.9117  0.4609
  931MOL0     H25646   9.010   8.459   4.671  0.7549 -0.1796  0.0903
  931MOL0     H25647   8.985   8.325   4.562 -1.6850 -2.5145  0.1259
  931MOL0     H25648   8.872   8.349   4.693 -0.2787  0.7656 -2.8798
  931MOL0     H25649   8.762   7.742   4.813 -1.1764 -0.1815  0.9106
  931MOL0     H25650   8.549   7.647   4.753  1.7699 -0.6525 -0.8064
  931MOL0     H25651   8.364   7.630   4.625  0.9082  1.7024  0.0482
  931MOL0     H25652   8.326   7.599   4.796 -4.2403  0.8778  1.6027
  931MOL0     H25653   8.123   7.674   4.580 -2.0969  1.0659  1.9503
  931MOL0     H25654   8.151   7.505   4.638 -0.6937 -0.7675  0.7618
  931MOL0     H25655   8.055   7.740   4.789  0.0971 -0.1455 -0.4806
  931MOL0     H25656   8.093   7.581   4.867  1.4864 -0.5346 -0.6824
  931MOL0     H25657   7.889   7.672   4.647  0.0154  1.4429  0.4011
  931MOL0     H25658   7.907   7.505   4.668  3.0242 -0.9727  1.4819
  931MOL0     H25659   7.728   7.624   4.798 -0.7128  1.8327  0.3518
  931MOL0     H25660   7.864   7.674   4.912  0.8120  1.7180 -2.1871
  931MOL0     H25661   7.912   7.437   4.948  0.1246  0.5787 -2.0666
  931MOL0     H25662   7.762   7.497   5.027 -0.4761  1.2339 -0.4703
  931MOL0     H25663   7.738   7.276   4.924  2.1506  0.4279 -0.3340
  931MOL0     H25664   7.770   7.331   4.770  0.4434  0.8840 -0.0668
  931MOL0     H25665   7.560   7.477   4.764 -0.3904  1.3454  0.7493
  931MOL0     H25666   7.540   7.422   4.935  2.5375  0.4995  1.8565
  931MOL0     H25667   8.373   8.043   4.764  0.7691  0.8452  1.2359
  931MOL0     H25668   8.612   8.132   4.793 -4.2768  1.4879 -2.8074
  931MOL0     H25669   9.046   7.992   4.965 -0.7980 -0.9772 -1.6423
  931MOL0     H25670   9.233   8.078   5.047  0.6468 -0.2256  0.7524
  931MOL0     H25671  10.578   8.960   6.034  1.2567  1.1893  0.7800
  931MOL0     H25672  10.745   8.992   6.175 -0.4557  0.8755  1.3103
  931MOL0     H25673  10.922   8.954   6.617 -1.2056 -0.8055 -1.1264
  931MOL0     H25674  11.003   8.934   6.841  0.8244 -0.5853 -2.3737
  931MOL0     H25675  11.101   8.861   7.061  0.3641 -0.4807 -0.4773
  931MOL0     H25676  11.128   8.719   7.158 -1.7390  0.2521  0.4900
  931MOL0     H25677  11.349   8.824   7.067  1.4060 -0.9884 -0.0175
  931MOL0     H25678  11.296   8.775   6.906 -1.6546  0.3244  0.1760
  931MOL0     H25679  11.334   8.553   6.954 -0.8077  1.0758 -1.2823
  931MOL0     H25680  11.324   8.570   7.129 -1.2850  0.7373  0.1581
  931MOL0     H25681  11.547   8.654   6.943 -1.2266  2.0928  0.8232
  931MOL0     H25682  11.534   8.502   7.042  0.2293 -0.0876 -1.6854
  931MOL0     H25683  11.704   8.778   7.308  0.4066 -1.7315 -0.6127
  931MOL0     H25684  10.990   8.512   6.813  1.6500  1.2376  0.4881
  931MOL0     H25685  10.893   8.521   6.586 -0.8377 -1.9232  1.3832
  932MOL0     O25686  10.512   9.275   5.125 -0.1535  0.5991  0.2513
  932MOL0     C25687  10.573   9.180   5.174 -0.4131 -0.5675  0.5948
  932MOL0     O25688  10.520   9.076   5.245  0.2011  0.0005  0.0429
  932MOL0     C25689  10.386   9.089   5.264  0.5249  0.0703  0.6092
  932MOL0     C25690  10.344   9.172   5.373  0.6657 -0.4073 -0.2982
  932MOL0     C25691  10.197   9.177   5.404  0.2105  0.7263 -0.3569
  932MOL0     C25692  10.117   9.082   5.341  0.7395  1.8017  0.1326
  932MOL0     O25693   9.981   9.062   5.373 -0.7029  0.5046 -0.0252
  932MOL0     C25694   9.954   9.074   5.512 -0.1634  0.5752 -0.5193
  932MOL0     C25695   9.816   9.013   5.551  0.7230 -0.5694 -0.7359
  932MOL0     C25696   9.744   9.092   5.657  0.0242 -0.3380  0.1941
  932MOL0     C25697   9.589   9.064   5.687 -0.6135  0.5358  0.0386
  932MOL0     C25698   9.499   9.103   5.572 -1.1612 -0.8213  0.1304
  932MOL0     C25699   9.355   9.027   5.565  0.2337  0.0462  0.7004
  932MOL0     C25700   9.262   9.091   5.670 -0.2589  0.9390 -0.3587
  932MOL0     C25701   9.222   9.237   5.667  0.1618 -0.1673 -0.0980
  932MOL0     N25702   9.204   9.291   5.536  0.7498 -0.3033 -0.2800
  932MOL0     C25703   9.092   9.249   5.462 -0.0590 -0.0054 -0.1998
  932MOL0     C25704   9.093   9.357   5.367  0.1728  0.5357 -0.5145
  932MOL0     C25705   8.989   9.380   5.258  0.9477 -0.5069 -0.1759
  932MOL0     C25706   9.068   9.388   5.129 -0.1674  0.8629  1.2050
  932MOL0     C25707   9.143   9.271   5.061 -0.6761 -0.5032 -0.3249
  932MOL0     C25708   9.089   9.128   5.096 -0.3815  0.0294 -0.9072
  932MOL0     O25709   8.955   9.122   5.048  0.4886 -0.1295 -0.2381
  932MOL0     C25710   8.863   9.068   5.133  0.0211  0.6442  0.5904
  932MOL0     C25711   8.738   9.105   5.112 -0.1875 -0.3879 -0.6792
  932MOL0     C25712   8.631   9.035   5.185 -0.2607 -1.0722  0.6811
  932MOL0     C25713   8.487   9.085   5.162 -0.0259  0.1992 -0.3374
  932MOL0     C25714   8.653   8.941   5.287  0.2849  0.3508  0.5264
  932MOL0     C25715   8.543   8.859   5.364 -0.8469 -0.7429 -0.2418
  932MOL0     O25716   8.422   8.910   5.383 -0.4345 -0.1403 -0.1682
  932MOL0     C25717   8.337   8.836   5.463 -0.5191  0.0703  0.8056
  932MOL0     C25718   8.361   8.828   5.604  1.2185  0.1133  0.4057
  932MOL0     C25719   8.268   8.740   5.681  1.0715  0.2912  0.4052
  932MOL0     C25720   8.147   8.700   5.623  0.8353  0.4208 -0.3123
  932MOL0     O25721   8.059   8.642   5.710  0.3715  0.4292 -0.8110
  932MOL0     C25722   7.925   8.614   5.668  0.0641 -0.7326  0.3908
  932MOL0     C25723   7.917   8.481   5.592 -1.3157 -0.8351  0.2674
  932MOL0     C25724   7.789   8.452   5.527  1.1493  0.1743 -0.7505
  932MOL0     C25725   7.668   8.428   5.629 -0.6390  0.7002 -0.3201
  932MOL0     C25726   7.550   8.361   5.566 -0.3579 -0.9429 -0.3297
  932MOL0     C25727   7.436   8.347   5.659  0.0774  0.0900 -0.0605
  932MOL0     C25728   7.468   8.280   5.791 -0.1093  0.0154 -0.0564
  932MOL0     C25729   7.340   8.218   5.855  1.0844 -0.2428 -0.1574
  932MOL0    Cl25730   7.234   8.350   5.932  0.1698 -0.1504 -0.0806
  932MOL0     C25731   8.124   8.721   5.492 -1.3701  0.9427 -0.0662
  932MOL0     C25732   8.215   8.784   5.408 -0.1690 -0.1468  0.2000
  932MOL0     O25733   8.586   8.754   5.405  0.5252 -0.0361  0.0277
  932MOL0     C25734   8.790   8.914   5.307 -0.0226 -0.4715  0.3646
  932MOL0     C25735   8.893   8.978   5.235  0.4405  0.3041  0.8198
  932MOL0     N25736   9.199   9.446   5.391  0.1683  0.1137  0.5380
  932MOL0     N25737   9.264   9.404   5.487  0.0614  0.7875  0.5018
  932MOL0     C25738  10.161   9.008   5.230 -0.3585 -0.8355 -0.3783
  932MOL0     C25739  10.298   9.009   5.201 -0.0740  0.0833 -0.5687
  932MOL0     C25740  10.716   9.166   5.152  0.0096  0.0862 -0.0555
  932MOL0     C25741  10.789   9.240   5.062  0.5939 -0.2380  0.2011
  932MOL0     C25742  10.929   9.226   5.044  0.6082  0.1608 -1.1529
  932MOL0     C25743  11.005   9.135   5.126 -0.0976 -0.9481  0.3812
  932MOL0     O25744  11.144   9.116   5.124 -0.0258  0.1148  0.2135
  932MOL0     C25745  11.227   9.193   5.036 -0.1942  0.2668  0.5741
  932MOL0     C25746  11.365   9.135   5.018 -0.0303 -0.7384 -0.2304
  932MOL0     C25747  11.432   9.104   5.162  0.3440 -0.5694 -0.6877
  932MOL0     C25748  11.573   9.045   5.162  0.0677  0.2641 -0.0755
  932MOL0     C25749  11.679   9.145   5.131  0.8404  0.0792 -0.3609
  932MOL0     C25750  11.759   9.229   5.097 -0.2566  0.4788 -0.5156
  932MOL0     C25751  10.928   9.066   5.223  0.0011  0.5861  0.3261
  932MOL0     C25752  10.785   9.077   5.241  0.4158 -0.4749  0.1166
  932MOL0     H25753  10.418   9.225   5.432  1.2417 -0.1206 -1.2672
  932MOL0     H25754  10.164   9.232   5.491 -0.8569 -1.4354  0.6808
  932MOL0     H25755  10.041   9.032   5.563 -1.8773 -1.3652  0.9703
  932MOL0     H25756   9.949   9.179   5.541 -3.1596 -0.1219  1.9622
  932MOL0     H25757   9.761   9.022   5.456 -0.6897 -1.9137 -0.0810
  932MOL0     H25758   9.821   8.907   5.577 -3.5184 -0.4316  1.6742
  932MOL0     H25759   9.803   9.079   5.748 -0.1035 -2.1527  0.0552
  932MOL0     H25760   9.736   9.191   5.611  1.1878 -1.0949 -1.7664
  932MOL0     H25761   9.581   8.959   5.715 -0.5089 -0.0233 -1.8860
  932MOL0     H25762   9.556   9.135   5.764 -1.6831  0.2965 -0.1787
  932MOL0     H25763   9.483   9.211   5.566  0.6335 -0.4998  0.4559
  932MOL0     H25764   9.547   9.079   5.477 -3.9062  0.8361 -1.8277
  932MOL0     H25765   9.307   9.034   5.467  0.5108  2.8294  0.6668
  932MOL0     H25766   9.372   8.920   5.576 -1.3211 -0.2466  0.3652
  932MOL0     H25767   9.167   9.037   5.654  0.0998  0.7487 -2.1052
  932MOL0     H25768   9.293   9.056   5.768 -1.4095 -2.0434 -0.9465
  932MOL0     H25769   9.290   9.300   5.726 -1.0336  0.2192  0.8994
  932MOL0     H25770   9.126   9.248   5.718  0.0834 -0.5391 -0.1630
  932MOL0     H25771   9.022   9.168   5.476  0.1488  0.0680  1.5464
  932MOL0     H25772   8.913   9.302   5.246  1.8254 -1.3651 -0.2981
  932MOL0     H25773   8.933   9.467   5.292  0.0539 -2.1758  3.0234
  932MOL0     H25774   9.140   9.469   5.139 -0.7184  1.3650  1.1952
  932MOL0     H25775   8.996   9.418   5.052  1.4741  0.8208 -0.4174
  932MOL0     H25776   9.244   9.269   5.103 -1.7885 -3.2023  2.6301
  932MOL0     H25777   9.142   9.288   4.953 -2.3840 -0.4267 -0.3260
  932MOL0     H25778   9.109   9.122   5.203 -0.2100  0.6233 -0.9018
  932MOL0     H25779   9.152   9.055   5.044  1.3977 -0.8785  2.2629
  932MOL0     H25780   8.712   9.188   5.048  0.0575  0.9798  0.9207
  932MOL0     H25781   8.464   9.154   5.244  2.1767  1.7354 -0.9130
  932MOL0     H25782   8.478   9.149   5.074  0.2117  0.4090 -0.2096
  932MOL0     H25783   8.412   9.006   5.156  1.7386 -1.4436 -1.9911
  932MOL0     H25784   8.448   8.866   5.658  0.3028 -0.1258  2.1315
  932MOL0     H25785   8.284   8.724   5.787 -3.5010  4.0365  2.0255
  932MOL0     H25786   7.854   8.611   5.752  0.9714  2.3442  1.4183
  932MOL0     H25787   7.884   8.699   5.612 -2.0540 -1.1641  1.1852
  932MOL0     H25788   7.994   8.493   5.515 -1.5412 -0.2830  0.1230
  932MOL0     H25789   7.936   8.406   5.669  2.7431  2.1558  2.5676
  932MOL0     H25790   7.784   8.368   5.457 -1.6095  1.8704 -2.8333
  932MOL0     H25791   7.765   8.533   5.457 -1.0118 -0.0222 -0.3041
  932MOL0     H25792   7.705   8.362   5.709  0.0464 -1.6174 -2.4172
  932MOL0     H25793   7.634   8.528   5.656  0.9895  1.5918 -1.4368
  932MOL0     H25794   7.583   8.270   5.514  1.1541  0.3076 -1.6915
  932MOL0     H25795   7.510   8.421   5.484  1.5737 -2.0745 -2.2260
  932MOL0     H25796   7.395   8.447   5.675 -1.5058  0.3789 -4.6148
  932MOL0     H25797   7.355   8.290   5.612 -3.4450  5.1005 -0.7967
  932MOL0     H25798   7.505   8.347   5.869  0.4493 -0.4088  0.0491
  932MOL0     H25799   7.553   8.212   5.779  0.8113  0.4166  3.2451
  932MOL0     H25800   7.379   8.154   5.935  2.1500 -1.2976 -1.4694
  932MOL0     H25801   7.289   8.162   5.777 -1.8472  1.4752  0.3732
  932MOL0     H25802   8.035   8.676   5.450 -1.8794  2.2980 -0.4546
  932MOL0     H25803   8.201   8.795   5.301  2.1155 -2.4492 -0.4232
  932MOL0     H25804   8.823   8.831   5.368  0.7109 -2.2111 -2.2158
  932MOL0     H25805   8.993   8.937   5.245 -0.0288 -0.8852  0.6815
  932MOL0     H25806  10.100   8.936   5.176 -1.2431  0.8237 -1.6762
  932MOL0     H25807  10.327   8.941   5.121 -0.6072 -0.2875 -0.4542
  932MOL0     H25808  10.733   9.306   4.996 -0.2355 -0.1638  0.9603
  932MOL0     H25809  10.968   9.278   4.957 -0.2867  0.5421 -1.3355
  932MOL0     H25810  11.179   9.191   4.938 -1.0585 -4.7520  0.8300
  932MOL0     H25811  11.242   9.293   5.077 -1.0728  1.5143 -1.9490
  932MOL0     H25812  11.419   9.212   4.962 -1.1895  0.7493  0.6258
  932MOL0     H25813  11.352   9.043   4.959  1.5596 -1.6845  0.8359
  932MOL0     H25814  11.364   9.033   5.210  1.6347 -1.7258 -0.5181
  932MOL0     H25815  11.439   9.203   5.208 -1.7479 -0.2405 -0.9849
  932MOL0     H25816  11.583   8.978   5.077 -1.8547  2.2730 -2.0171
  932MOL0     H25817  11.597   8.986   5.251 -1.0414 -1.5544 -0.9181
  932MOL0     H25818  11.835   9.304   5.090 -0.9900  1.4235  1.0254
  932MOL0     H25819  10.972   8.990   5.289  0.4107 -0.1142 -0.7208
  932MOL0     H25820  10.751   9.000   5.310  2.9595 -2.9810 -1.1809
  933MOL0     O25821   6.104   3.306   3.883  0.0859  0.5051  0.4660
  933MOL0     C25822   6.102   3.207   3.800  0.8044  0.6527  0.3563
  933MOL0     O25823   5.993   3.160   3.737  0.0236 -0.1550 -0.1677
  933MOL0     C25824   5.872   3.221   3.751 -0.5905  0.2050 -0.7711
  933MOL0     C25825   5.762   3.142   3.782  0.4858  0.2449 -0.5506
  933MOL0     C25826   5.633   3.199   3.792  0.2177 -0.2005  0.6734
  933MOL0     C25827   5.616   3.335   3.781  0.4620 -0.9281  0.0194
  933MOL0     O25828   5.489   3.398   3.793 -0.0343  1.0293 -0.2281
  933MOL0     C25829   5.389   3.344   3.715 -0.7000  0.0039  0.1005
  933MOL0     C25830   5.400   3.370   3.572 -1.0423 -0.6534 -0.2688
  933MOL0     C25831   5.417   3.525   3.542 -0.6167  0.2250 -0.0897
  933MOL0     C25832   5.395   3.545   3.394 -0.3445 -0.3767 -0.2910
  933MOL0     C25833   5.261   3.576   3.334 -0.7596  0.4241 -0.2510
  933MOL0     C25834   5.170   3.451   3.324  1.0586  0.0157  0.2400
  933MOL0     C25835   5.034   3.488   3.261 -0.1120  0.0789 -0.2275
  933MOL0     C25836   4.933   3.383   3.298 -0.5869  0.3654  0.0178
  933MOL0     N25837   4.810   3.404   3.224 -0.3476  0.4299 -0.3006
  933MOL0     C25838   4.787   3.356   3.101  0.8170  0.2589 -0.5224
  933MOL0     C25839   4.678   3.420   3.063 -0.2648 -0.3702 -0.0245
  933MOL0     C25840   4.597   3.404   2.938  0.4492  0.3441 -0.4407
  933MOL0     C25841   4.474   3.312   2.950 -0.2245  0.3118  0.9706
  933MOL0     C25842   4.372   3.380   3.049  0.1222 -0.5598  0.1286
  933MOL0     C25843   4.244   3.289   3.045 -0.2642 -0.9458  0.5494
  933MOL0     O25844   4.149   3.327   3.152  0.0819 -0.1149 -0.5928
  933MOL0     C25845   4.033   3.386   3.112  0.7343  0.4000  0.5886
  933MOL0     C25846   3.977   3.491   3.190 -0.0065 -0.8337  0.6429
  933MOL0     C25847   3.852   3.542   3.175 -0.7399  1.1865  0.5051
  933MOL0     C25848   3.798   3.625   3.291 -0.3784  0.5104  0.1669
  933MOL0     C25849   3.781   3.500   3.055 -0.7911  0.0033  0.4904
  933MOL0     C25850   3.651   3.555   3.009  0.3491  0.2471  0.2765
  933MOL0     O25851   3.597   3.667   3.073  0.5330 -0.1683 -0.3549
  933MOL0     C25852   3.473   3.720   3.041 -0.0218 -0.5128  0.8804
  933MOL0     C25853   3.414   3.724   2.915  0.1537 -0.7125  0.3450
  933MOL0     C25854   3.294   3.782   2.884 -0.3071  0.4918 -0.2370
  933MOL0     C25855   3.219   3.848   2.984 -1.5142 -0.5368  0.4941
  933MOL0     O25856   3.101   3.902   2.940 -0.2584  0.4908 -0.4843
  933MOL0     C25857   3.026   3.969   3.040 -0.7704 -0.1596  0.3008
  933MOL0     C25858   2.884   3.985   2.989  0.0021 -0.4677  0.2874
  933MOL0     C25859   2.866   4.039   2.845 -0.1886  0.0257 -0.5316
  933MOL0     C25860   2.728   4.082   2.819  0.9629  0.7193 -0.2675
  933MOL0     C25861   2.704   4.173   2.694  0.4154  0.1033  0.4266
  933MOL0     C25862   2.563   4.180   2.637  0.1049 -0.3678 -0.0529
  933MOL0     C25863   2.477   4.252   2.739 -0.1630  0.2399 -0.1291
  933MOL0     C25864   2.340   4.290   2.681 -0.3771 -0.5586  1.0440
  933MOL0    Cl25865   2.338   4.455   2.622  0.0375 -0.0901 -0.3406
  933MOL0     C25866   3.281   3.869   3.112  0.6850  0.8436  0.5377
  933MOL0     C25867   3.411   3.800   3.136  0.0573 -0.1092 -0.0449
  933MOL0     O25868   3.593   3.494   2.922  0.5242  0.0506  0.1953
  933MOL0     C25869   3.839   3.404   2.969  0.6211 -0.1120 -0.7411
  933MOL0     C25870   3.958   3.335   3.010  0.5487 -0.0024 -0.3237
  933MOL0     N25871   4.647   3.505   3.166  0.7175  0.2629  0.1505
  933MOL0     N25872   4.726   3.491   3.262  0.5346 -0.1389  0.2479
  933MOL0     C25873   5.725   3.412   3.746  0.8693 -0.0084 -0.8336
  933MOL0     C25874   5.849   3.360   3.740 -0.1593 -0.1304  0.0197
  933MOL0     C25875   6.231   3.143   3.769  0.2777 -0.7288 -0.2184
  933MOL0     C25876   6.352   3.219   3.801 -0.9798 -0.7326 -0.1763
  933MOL0     C25877   6.479   3.172   3.776  0.6388 -0.1882  0.3574
  933MOL0     C25878   6.491   3.037   3.740 -0.4193  0.2206 -0.3730
  933MOL0     O25879   6.612   2.993   3.693 -0.4072  0.1160 -0.6086
  933MOL0     C25880   6.722   2.982   3.789 -0.4210 -0.5860 -0.2569
  933MOL0     C25881   6.850   2.990   3.714  0.3209 -1.0436  0.0501
  933MOL0     C25882   6.890   3.140   3.690 -0.9398 -0.2519  0.0235
  933MOL0     C25883   7.031   3.146   3.626  0.8343 -0.4130 -0.5645
  933MOL0     C25884   7.073   3.284   3.591 -0.7590  0.4345  0.8076
  933MOL0     C25885   7.113   3.396   3.564  0.3459 -0.3028  0.2154
  933MOL0     C25886   6.375   2.963   3.709 -0.5952  0.3120 -0.1072
  933MOL0     C25887   6.243   3.014   3.713 -0.8166  1.0007 -0.3322
  933MOL0     H25888   5.766   3.034   3.791  0.3988  0.4250  2.8709
  933MOL0     H25889   5.548   3.134   3.807 -0.9052  1.1031  0.2017
  933MOL0     H25890   5.383   3.235   3.716  1.4565 -0.1504  1.0709
  933MOL0     H25891   5.292   3.377   3.754 -0.8518 -0.1928 -0.1125
  933MOL0     H25892   5.488   3.316   3.537 -0.3099 -0.3068  0.9721
  933MOL0     H25893   5.317   3.333   3.511 -2.1636 -0.5450  1.1387
  933MOL0     H25894   5.347   3.591   3.594 -0.3718  1.9916 -1.8708
  933MOL0     H25895   5.518   3.565   3.556 -0.1812  0.0248 -2.3636
  933MOL0     H25896   5.455   3.628   3.357 -1.0622 -0.4663 -1.7333
  933MOL0     H25897   5.437   3.455   3.346 -2.1614 -0.5568 -1.6277
  933MOL0     H25898   5.220   3.646   3.407  0.4965 -2.1472  3.1811
  933MOL0     H25899   5.267   3.617   3.233 -1.7413  2.6016  0.5130
  933MOL0     H25900   5.215   3.369   3.266 -4.4685 -2.8619 -0.6316
  933MOL0     H25901   5.156   3.413   3.425  0.0887  1.1470  0.5551
  933MOL0     H25902   5.007   3.587   3.298  0.5645  0.6937 -1.3091
  933MOL0     H25903   5.048   3.500   3.153 -0.2244  3.7856  0.0320
  933MOL0     H25904   4.915   3.383   3.406 -0.4304 -1.1931  0.0713
  933MOL0     H25905   4.966   3.283   3.268 -1.1998  0.1596  0.0308
  933MOL0     H25906   4.841   3.279   3.046  0.7315  1.4655 -2.3878
  933MOL0     H25907   4.559   3.499   2.899 -3.0407  0.7259  3.2453
  933MOL0     H25908   4.663   3.362   2.861  2.3876  1.8488  0.3262
  933MOL0     H25909   4.500   3.213   2.989  0.1197  1.4378  3.8507
  933MOL0     H25910   4.431   3.302   2.850  2.0366  0.7901 -0.0861
  933MOL0     H25911   4.347   3.476   3.003  0.9220  0.8581  2.4891
  933MOL0     H25912   4.413   3.390   3.150 -2.9237 -0.9559  1.4944
  933MOL0     H25913   4.281   3.186   3.050  1.8984 -0.1547  2.9232
  933MOL0     H25914   4.198   3.307   2.947  0.1632 -0.3504  0.4463
  933MOL0     H25915   4.034   3.521   3.277  0.1307  0.3402  0.1681
  933MOL0     H25916   3.720   3.566   3.340 -0.3496  0.5933  0.3144
  933MOL0     H25917   3.882   3.645   3.358  0.1054 -1.2807  0.1476
  933MOL0     H25918   3.753   3.720   3.259 -1.2338 -0.6355 -2.2973
  933MOL0     H25919   3.470   3.679   2.834 -0.8824  1.2389 -1.5411
  933MOL0     H25920   3.255   3.780   2.783 -0.7374  1.5161 -0.0963
  933MOL0     H25921   3.010   3.895   3.119 -0.4288  0.6366  1.1328
  933MOL0     H25922   3.074   4.061   3.076  1.7020 -0.5498 -1.6944
  933MOL0     H25923   2.837   3.886   2.991 -0.5726 -0.2300 -0.6709
  933MOL0     H25924   2.829   4.047   3.060  0.2649 -1.4691  1.3842
  933MOL0     H25925   2.892   3.969   2.765  4.1985  2.8624 -1.9531
  933MOL0     H25926   2.928   4.124   2.815  0.2730 -0.1352 -0.0466
  933MOL0     H25927   2.674   3.988   2.809 -0.5849  1.4739  0.6563
  933MOL0     H25928   2.683   4.137   2.902  0.2458 -1.6785  1.0344
  933MOL0     H25929   2.768   4.144   2.610 -0.9721  3.0075 -1.8132
  933MOL0     H25930   2.742   4.274   2.711 -0.1588  0.4892 -0.5420
  933MOL0     H25931   2.564   4.237   2.543  1.6671  0.5697  0.4827
  933MOL0     H25932   2.518   4.085   2.606 -0.9844  0.6281 -1.6948
  933MOL0     H25933   2.541   4.330   2.782 -0.3577 -0.0618  0.7284
  933MOL0     H25934   2.466   4.181   2.821  4.5962  1.1963  1.6658
  933MOL0     H25935   2.260   4.286   2.755  1.2198  2.4346  3.1247
  933MOL0     H25936   2.318   4.226   2.595 -0.8085  0.0058  0.7328
  933MOL0     H25937   3.253   3.946   3.184  1.9985  1.7975  0.0799
  933MOL0     H25938   3.468   3.820   3.226  0.2043 -1.1702  0.1089
  933MOL0     H25939   3.792   3.360   2.882 -0.1216 -2.2098  0.6401
  933MOL0     H25940   3.997   3.248   2.959 -1.1348 -2.1907  1.8900
  933MOL0     H25941   5.717   3.521   3.746 -1.4408 -0.0557 -3.6577
  933MOL0     H25942   5.938   3.421   3.738  2.3173 -3.3213  2.3449
  933MOL0     H25943   6.343   3.320   3.839 -1.5225 -1.8904  3.1696
  933MOL0     H25944   6.560   3.240   3.799 -0.2751  0.3759  2.0478
  933MOL0     H25945   6.712   3.055   3.870  2.4260 -0.4250  0.0759
  933MOL0     H25946   6.718   2.882   3.832 -0.7614 -0.4936 -0.0747
  933MOL0     H25947   6.831   2.945   3.616  1.6464  0.4387 -0.9454
  933MOL0     H25948   6.928   2.939   3.771  4.0525  3.4910 -0.3015
  933MOL0     H25949   6.872   3.195   3.782 -1.3487 -0.8683  0.3146
  933MOL0     H25950   6.829   3.197   3.620  0.4182  2.6733  1.0360
  933MOL0     H25951   7.019   3.071   3.547 -3.1896 -4.3128  3.1310
  933MOL0     H25952   7.112   3.107   3.689  0.6481 -1.6651 -1.0713
  933MOL0     H25953   7.154   3.495   3.568 -0.8546  0.1778  1.3873
  933MOL0     H25954   6.373   2.859   3.676  0.9061  0.2551 -0.0994
  933MOL0     H25955   6.163   2.946   3.689 -2.4371  3.1573 -1.3863
  934MOL0     O25956  10.949   1.581   3.116 -0.1671  0.6293  0.1837
  934MOL0     C25957  10.896   1.470   3.117  0.3963  0.1287  0.1221
  934MOL0     O25958  10.773   1.445   3.071  0.4126  0.4083 -1.1415
  934MOL0     C25959  10.700   1.549   3.026  1.1752 -0.1689 -1.5414
  934MOL0     C25960  10.629   1.637   3.107 -0.3897  0.4399 -0.4121
  934MOL0     C25961  10.544   1.734   3.043  0.1440  0.0988 -0.5034
  934MOL0     C25962  10.526   1.737   2.901 -0.0390 -0.3655 -0.0755
  934MOL0     O25963  10.456   1.839   2.833 -0.5030  0.3947 -0.8610
  934MOL0     C25964  10.319   1.831   2.862  0.5686  0.2981 -0.8579
  934MOL0     C25965  10.260   1.938   2.771 -0.0278 -0.6684  0.1227
  934MOL0     C25966  10.112   1.966   2.783 -0.0227 -0.5059 -0.5413
  934MOL0     C25967  10.080   2.004   2.927  0.7682 -0.2536  0.0567
  934MOL0     C25968   9.939   2.063   2.944 -0.0341  0.1933 -1.0697
  934MOL0     C25969   9.914   2.088   3.096  0.3936 -0.0867 -0.1538
  934MOL0     C25970   9.767   2.136   3.102 -0.1055 -0.1238  0.0866
  934MOL0     C25971   9.711   2.151   3.242 -0.2055 -0.3882 -0.3467
  934MOL0     N25972   9.581   2.223   3.230  0.5546 -0.1321  0.0192
  934MOL0     C25973   9.492   2.227   3.329  0.7061 -0.2428  0.5889
  934MOL0     C25974   9.390   2.290   3.271 -0.2300  0.0174 -0.3814
  934MOL0     C25975   9.259   2.308   3.342  0.0303  0.4707 -0.1977
  934MOL0     C25976   9.143   2.379   3.264 -0.1172  0.4919  0.2610
  934MOL0     C25977   9.021   2.397   3.347 -0.4323  0.2335 -0.0359
  934MOL0     C25978   9.004   2.534   3.421  0.5122  0.3767 -0.4207
  934MOL0     O25979   8.968   2.507   3.553 -0.0720  0.5738  0.1750
  934MOL0     C25980   8.835   2.505   3.592 -1.1085  0.5124  0.4069
  934MOL0     C25981   8.802   2.495   3.725  0.3216 -0.2325 -0.5813
  934MOL0     C25982   8.671   2.521   3.773 -0.0073  0.2770  0.6202
  934MOL0     C25983   8.661   2.537   3.923 -1.0727  0.3586 -0.2387
  934MOL0     C25984   8.568   2.544   3.674  0.0061 -1.8346 -0.9143
  934MOL0     C25985   8.428   2.591   3.713 -0.4375  0.1064  0.0784
  934MOL0     O25986   8.333   2.585   3.612 -0.3871  0.6108  0.2816
  934MOL0     C25987   8.220   2.648   3.633 -0.1319 -0.5043  0.0550
  934MOL0     C25988   8.120   2.594   3.714 -0.7683 -0.1801  0.5876
  934MOL0     C25989   7.995   2.653   3.724  0.0165  0.8567 -0.2730
  934MOL0     C25990   7.976   2.777   3.670 -0.8016  0.0192 -0.2018
  934MOL0     O25991   7.872   2.864   3.679 -0.4671 -0.5443 -0.6368
  934MOL0     C25992   7.771   2.842   3.777  0.2629  0.1331 -0.0178
  934MOL0     C25993   7.817   2.880   3.914 -0.2158  0.1903  0.1728
  934MOL0     C25994   7.700   2.881   4.010  0.7245  1.1430 -0.6579
  934MOL0     C25995   7.751   2.880   4.150  0.0753 -0.2571  0.5147
  934MOL0     C25996   7.646   2.912   4.253  0.5786 -0.0294  0.2104
  934MOL0     C25997   7.544   2.801   4.275 -0.6986  0.7667 -1.2636
  934MOL0     C25998   7.461   2.815   4.408 -0.1180  0.2590 -0.3843
  934MOL0     C25999   7.443   2.677   4.466  1.1922 -0.5883 -0.0871
  934MOL0    Cl26000   7.302   2.688   4.581  0.4334  0.2363 -0.1560
  934MOL0     C26001   8.071   2.827   3.580 -0.7163 -0.7529 -0.1496
  934MOL0     C26002   8.192   2.764   3.563  0.0976  0.1413  0.4013
  934MOL0     O26003   8.406   2.609   3.837  0.8547 -0.0909  0.3508
  934MOL0     C26004   8.595   2.535   3.536  0.7007 -0.6978  0.9127
  934MOL0     C26005   8.731   2.512   3.497  0.4095 -0.1044  0.3750
  934MOL0     N26006   9.415   2.328   3.144  0.6272 -0.3508  0.9699
  934MOL0     N26007   9.529   2.283   3.113  0.5261  0.1534  0.5669
  934MOL0     C26008  10.600   1.647   2.822  1.0313 -0.0606 -1.1928
  934MOL0     C26009  10.680   1.557   2.895  0.3351 -0.0847  0.4867
  934MOL0     C26010  10.958   1.352   3.179  0.1675 -0.6695  0.1763
  934MOL0     C26011  11.074   1.360   3.263 -0.5082 -0.2648 -0.3398
  934MOL0     C26012  11.134   1.248   3.323  0.2000  0.5452  0.4413
  934MOL0     C26013  11.093   1.115   3.301  0.2371 -0.4662 -0.5591
  934MOL0     O26014  11.144   1.005   3.370 -0.1107 -0.1842 -0.9565
  934MOL0     C26015  11.044   0.904   3.412  0.4002 -0.1388  0.2576
  934MOL0     C26016  11.055   0.881   3.554 -0.3048 -0.2819 -0.0176
  934MOL0     C26017  10.939   0.786   3.587 -0.2707  0.2308 -0.3618
  934MOL0     C26018  10.953   0.723   3.726  0.5307  0.6230 -0.9620
  934MOL0     C26019  10.920   0.801   3.838 -0.1145  0.0565  0.2569
  934MOL0     C26020  10.893   0.858   3.940  0.2282 -0.0517  0.4800
  934MOL0     C26021  10.985   1.109   3.202 -0.0386 -0.3268 -0.3497
  934MOL0     C26022  10.918   1.217   3.149 -0.0158 -0.6938 -0.7745
  934MOL0     H26023  10.644   1.638   3.215 -2.0207 -1.8904 -0.0883
  934MOL0     H26024  10.505   1.814   3.106 -0.2604  0.2953 -0.9973
  934MOL0     H26025  10.267   1.739   2.834 -0.2145  1.4835 -3.6655
  934MOL0     H26026  10.305   1.855   2.968  1.1358 -0.7701 -0.5347
  934MOL0     H26027  10.319   2.030   2.780  0.8515 -1.2514  0.4812
  934MOL0     H26028  10.275   1.903   2.669  0.9902  0.6820 -0.2303
  934MOL0     H26029  10.085   2.040   2.707  2.9926 -0.8733 -2.0910
  934MOL0     H26030  10.067   1.870   2.755  2.0470 -1.8764  0.6164
  934MOL0     H26031  10.082   1.912   2.986  1.0654  0.5779  1.3944
  934MOL0     H26032  10.148   2.079   2.969  2.3257 -1.5852 -0.0267
  934MOL0     H26033   9.906   2.151   2.888 -1.5281 -0.8683 -1.9441
  934MOL0     H26034   9.875   1.984   2.904 -0.7051  1.1015 -1.8221
  934MOL0     H26035   9.938   2.000   3.156  2.4196  1.2689  1.1751
  934MOL0     H26036   9.982   2.170   3.124  2.7979 -0.6696 -3.6695
  934MOL0     H26037   9.758   2.228   3.045 -1.3243 -0.3300 -0.0997
  934MOL0     H26038   9.711   2.061   3.044 -0.7385 -1.0285  1.7813
  934MOL0     H26039   9.784   2.205   3.303 -0.1880 -1.2898  0.4593
  934MOL0     H26040   9.703   2.053   3.290 -1.8863 -1.1305 -2.0279
  934MOL0     H26041   9.488   2.185   3.429 -2.6178 -0.3631  0.5225
  934MOL0     H26042   9.228   2.206   3.368 -2.0870  1.6363  2.2538
  934MOL0     H26043   9.265   2.353   3.442 -1.9931 -1.7045  1.0044
  934MOL0     H26044   9.118   2.318   3.176 -1.1070  0.4893  0.5352
  934MOL0     H26045   9.193   2.473   3.240  2.0834 -0.3751  1.1620
  934MOL0     H26046   9.023   2.324   3.428  0.5577  0.9114  0.5748
  934MOL0     H26047   8.932   2.367   3.290 -0.6917  0.6919  0.1186
  934MOL0     H26048   8.936   2.604   3.371 -1.3497 -0.4758  0.8257
  934MOL0     H26049   9.099   2.589   3.416  0.9689 -0.4774 -1.8778
  934MOL0     H26050   8.892   2.496   3.785  1.2821  1.8795 -1.9512
  934MOL0     H26051   8.666   2.643   3.950 -1.1117  0.0994  0.8647
  934MOL0     H26052   8.573   2.486   3.964 -2.5108  1.9328 -1.2478
  934MOL0     H26053   8.746   2.488   3.971 -1.3722  2.0904  2.2380
  934MOL0     H26054   8.123   2.493   3.754  0.4308 -1.8592 -3.2565
  934MOL0     H26055   7.919   2.607   3.785  0.9628  0.7520  0.8624
  934MOL0     H26056   7.688   2.906   3.743  0.8073  0.4807 -0.7198
  934MOL0     H26057   7.746   2.736   3.775  0.5581  0.0174  1.5507
  934MOL0     H26058   7.894   2.811   3.948 -1.5765 -0.1867  2.6636
  934MOL0     H26059   7.862   2.979   3.898 -0.5690  0.1342 -1.3672
  934MOL0     H26060   7.643   2.790   3.992 -0.0937  1.7790 -1.3605
  934MOL0     H26061   7.627   2.962   4.001 -2.2405 -0.9955  2.0428
  934MOL0     H26062   7.794   2.782   4.171  0.8605 -0.6826 -2.6444
  934MOL0     H26063   7.823   2.961   4.163 -0.7194  0.4993  0.3054
  934MOL0     H26064   7.585   2.999   4.228  0.3754 -0.2846 -0.1981
  934MOL0     H26065   7.698   2.927   4.348 -2.9011  0.4721  2.2076
  934MOL0     H26066   7.473   2.803   4.191 -2.9465 -0.4421  0.4701
  934MOL0     H26067   7.589   2.702   4.259 -1.6915  0.1859 -0.5901
  934MOL0     H26068   7.365   2.863   4.387 -0.5166 -0.3437  0.0561
  934MOL0     H26069   7.519   2.873   4.480  0.5652  1.5824 -1.9369
  934MOL0     H26070   7.535   2.641   4.513  1.8750 -0.5694 -1.3683
  934MOL0     H26071   7.407   2.608   4.389 -2.3775  1.6570 -0.6621
  934MOL0     H26072   8.055   2.915   3.518  0.2963 -1.1095 -0.9524
  934MOL0     H26073   8.262   2.815   3.498  1.5431 -1.1935  0.8461
  934MOL0     H26074   8.526   2.545   3.453  1.7202 -0.2150  0.0897
  934MOL0     H26075   8.755   2.521   3.392 -0.2487 -1.6247  0.0575
  934MOL0     H26076  10.602   1.647   2.713 -0.5270 -0.2744 -1.2366
  934MOL0     H26077  10.736   1.494   2.828 -1.2939  1.2546 -2.3112
  934MOL0     H26078  11.117   1.456   3.292  0.7134 -1.2106  1.1317
  934MOL0     H26079  11.222   1.252   3.385 -2.0177 -0.5491  3.9372
  934MOL0     H26080  10.941   0.933   3.392 -1.5065 -3.3185  4.0905
  934MOL0     H26081  11.069   0.811   3.360  3.4096 -0.4759  2.1040
  934MOL0     H26082  11.050   0.974   3.611  1.7427 -0.0057 -0.2152
  934MOL0     H26083  11.153   0.835   3.571 -1.1993 -1.4912  2.2574
  934MOL0     H26084  10.937   0.696   3.526 -1.5163 -0.3486  0.5221
  934MOL0     H26085  10.849   0.847   3.581  0.5642  1.3734 -2.2193
  934MOL0     H26086  11.054   0.684   3.740  0.5040  0.3937 -1.3887
  934MOL0     H26087  10.886   0.636   3.734  1.3411 -0.0522 -1.3559
  934MOL0     H26088  10.849   0.922   4.014 -0.7803  0.9469 -0.9285
  934MOL0     H26089  10.943   1.014   3.170 -0.2550 -0.1990 -0.4428
  934MOL0     H26090  10.837   1.205   3.078  0.1414  0.5582 -1.1946
  935MOL0     O26091   5.864   0.743   7.622 -0.5653  0.9791 -0.2709
  935MOL0     C26092   5.881   0.617   7.639  0.4109  0.1460 -0.1668
  935MOL0     O26093   5.786   0.538   7.695 -0.0069  0.9720  0.3899
  935MOL0     C26094   5.665   0.605   7.713 -0.8951 -0.4485 -0.4566
  935MOL0     C26095   5.636   0.662   7.838  0.9239 -0.7252  0.6826
  935MOL0     C26096   5.532   0.755   7.855  0.2989 -0.0837  0.6025
  935MOL0     C26097   5.436   0.762   7.756 -0.6546 -0.8486  0.7351
  935MOL0     O26098   5.327   0.842   7.773 -0.0930  0.2336 -0.3250
  935MOL0     C26099   5.207   0.767   7.767  0.0153 -0.1182  0.2579
  935MOL0     C26100   5.103   0.869   7.716 -0.0789 -0.2380 -0.8267
  935MOL0     C26101   4.966   0.806   7.719  0.3999 -0.1840 -0.9555
  935MOL0     C26102   4.857   0.903   7.677  0.1690  0.0110 -0.6415
  935MOL0     C26103   4.709   0.843   7.692  0.7942  0.1518  0.3424
  935MOL0     C26104   4.615   0.950   7.727  0.4550 -1.1230 -0.9069
  935MOL0     C26105   4.565   1.031   7.612  0.1189  0.1091 -0.0234
  935MOL0     C26106   4.471   1.144   7.648 -0.5946 -0.3582 -0.5064
  935MOL0     N26107   4.343   1.098   7.699  0.5910  0.0615  0.0829
  935MOL0     C26108   4.266   1.007   7.634 -0.3907  0.2251 -1.4465
  935MOL0     C26109   4.166   0.977   7.724 -0.0289  0.1541 -0.3139
  935MOL0     C26110   4.053   0.870   7.688  0.0554  0.1144 -0.1484
  935MOL0     C26111   3.927   0.932   7.624  0.1873 -0.0207 -0.0829
  935MOL0     C26112   3.853   1.039   7.697  0.5771  0.3615 -0.1726
  935MOL0     C26113   3.814   1.010   7.842 -0.5141  0.2497 -0.2735
  935MOL0     O26114   3.716   0.910   7.866  0.1874 -0.8305 -0.5167
  935MOL0     C26115   3.589   0.945   7.870 -0.4871 -0.4091 -0.2143
  935MOL0     C26116   3.524   0.941   7.745 -0.5012  0.1859 -0.6336
  935MOL0     C26117   3.389   0.984   7.738  1.1316 -0.5007  0.7194
  935MOL0     C26118   3.320   0.962   7.604  0.3675 -0.3410 -0.2460
  935MOL0     C26119   3.325   1.028   7.857 -0.9703  0.0797  0.1385
  935MOL0     C26120   3.184   1.076   7.869 -0.0503 -0.0279 -0.2065
  935MOL0     O26121   3.154   1.145   7.985 -0.0167 -0.0182  0.2586
  935MOL0     C26122   3.027   1.195   8.006  1.0362 -0.0173  0.6410
  935MOL0     C26123   2.983   1.305   7.932  0.4293 -0.2138  0.1360
  935MOL0     C26124   2.848   1.350   7.950  0.2688  0.0945  0.1112
  935MOL0     C26125   2.760   1.280   8.045 -0.1120  0.4939 -0.1743
  935MOL0     O26126   2.632   1.307   8.078  0.3020  0.3400  0.7002
  935MOL0     C26127   2.573   1.409   7.988  0.1324  0.1158 -0.0776
  935MOL0     C26128   2.424   1.411   8.019 -0.3850 -0.8671  0.5027
  935MOL0     C26129   2.366   1.507   7.911  0.3786  0.7861  0.5926
  935MOL0     C26130   2.218   1.522   7.928 -0.5885  0.4228 -1.1534
  935MOL0     C26131   2.139   1.620   7.831  0.5122  0.1928 -0.2135
  935MOL0     C26132   2.118   1.562   7.694 -0.0747 -0.3611 -0.5904
  935MOL0     C26133   2.006   1.629   7.621  0.3196 -0.1554  0.3657
  935MOL0     C26134   2.010   1.595   7.467  0.2951  0.2019  0.0520
  935MOL0    Cl26135   1.984   1.422   7.452 -0.0549  0.0769  0.1302
  935MOL0     C26136   2.808   1.163   8.101 -0.1109  0.3430 -0.6374
  935MOL0     C26137   2.937   1.116   8.078  0.4798  0.5128 -0.8630
  935MOL0     O26138   3.103   1.054   7.780 -0.4175 -0.7886  0.6419
  935MOL0     C26139   3.399   1.031   7.976 -0.5424 -0.0888  0.2148
  935MOL0     C26140   3.537   0.997   7.981 -0.6643  0.2040 -0.5592
  935MOL0     N26141   4.196   1.040   7.850 -0.0813  0.9347  0.0538
  935MOL0     N26142   4.297   1.120   7.826 -0.3931 -0.2071  0.8024
  935MOL0     C26143   5.450   0.697   7.638 -0.5236  0.4514  0.4491
  935MOL0     C26144   5.564   0.613   7.610 -0.1913 -0.3296 -0.5438
  935MOL0     C26145   6.017   0.559   7.614 -0.3315 -0.8866 -0.4040
  935MOL0     C26146   6.030   0.417   7.606 -0.2461  0.1560  0.0120
  935MOL0     C26147   6.157   0.361   7.588  0.3988  0.4429 -0.1547
  935MOL0     C26148   6.265   0.444   7.552  0.2012 -0.0463 -0.6978
  935MOL0     O26149   6.387   0.386   7.524  0.1226  1.4245  0.1180
  935MOL0     C26150   6.499   0.457   7.580 -1.1217 -0.1697 -0.1249
  935MOL0     C26151   6.602   0.354   7.638  0.7285 -0.2258  0.7428
  935MOL0     C26152   6.729   0.419   7.691  0.4719  0.3741 -0.8302
  935MOL0     C26153   6.837   0.323   7.717 -0.7957  0.1772 -0.2623
  935MOL0     C26154   6.819   0.252   7.845  0.1018 -1.2908  0.8380
  935MOL0     C26155   6.831   0.194   7.956  0.5172 -0.5767 -0.0316
  935MOL0     C26156   6.250   0.585   7.558 -1.2414  0.2660  0.4030
  935MOL0     C26157   6.129   0.639   7.586 -0.4834  0.7020 -0.9795
  935MOL0     H26158   5.715   0.656   7.912  0.4282 -1.0988  1.1966
  935MOL0     H26159   5.526   0.819   7.942 -0.2547  3.2736 -1.6952
  935MOL0     H26160   5.217   0.686   7.694  1.2128  0.5893 -0.3991
  935MOL0     H26161   5.181   0.722   7.863  0.8303  0.7797  0.9090
  935MOL0     H26162   5.107   0.954   7.785  0.2797 -1.6594  1.0145
  935MOL0     H26163   5.148   0.896   7.620  1.0058  0.7799 -0.0661
  935MOL0     H26164   4.970   0.717   7.655  1.0204 -0.2299 -0.8611
  935MOL0     H26165   4.950   0.772   7.822  0.4256  1.9887 -0.1817
  935MOL0     H26166   4.854   0.993   7.740  0.3283 -0.0084 -0.6046
  935MOL0     H26167   4.874   0.939   7.575  1.9116  2.3838  0.3814
  935MOL0     H26168   4.679   0.789   7.602 -1.4511  1.2782  0.3465
  935MOL0     H26169   4.718   0.774   7.776 -1.0215 -0.3707  0.1499
  935MOL0     H26170   4.531   0.901   7.777  0.2228 -0.5122 -0.6976
  935MOL0     H26171   4.663   1.019   7.796 -0.8074  0.2789 -1.3673
  935MOL0     H26172   4.658   1.066   7.567  1.0223 -2.5528 -0.3900
  935MOL0     H26173   4.507   0.970   7.542  1.1762 -0.8604 -0.0793
  935MOL0     H26174   4.460   1.198   7.553 -2.7530 -3.3064 -2.0975
  935MOL0     H26175   4.509   1.207   7.729 -1.9440 -2.7161  2.1382
  935MOL0     H26176   4.287   0.963   7.537  1.5574 -1.5858 -0.3019
  935MOL0     H26177   4.091   0.792   7.623  2.1879  1.8607 -1.1265
  935MOL0     H26178   4.024   0.829   7.785 -3.2716  1.5647 -0.3779
  935MOL0     H26179   3.856   0.852   7.602 -0.4569  0.7562 -0.9088
  935MOL0     H26180   3.956   0.974   7.527  0.3901 -0.7936 -0.3639
  935MOL0     H26181   3.759   1.065   7.648  0.3527  1.5250  0.8164
  935MOL0     H26182   3.924   1.121   7.682  1.4323  0.1501  2.3914
  935MOL0     H26183   3.789   1.108   7.884  1.1153  0.6128 -0.0484
  935MOL0     H26184   3.903   0.976   7.896 -1.1367 -2.1758 -0.6526
  935MOL0     H26185   3.578   0.919   7.654 -2.6378 -1.0817 -1.6853
  935MOL0     H26186   3.387   0.923   7.528  0.1835 -0.0809 -0.5423
  935MOL0     H26187   3.237   0.894   7.625  1.5593 -1.8025 -0.1272
  935MOL0     H26188   3.287   1.060   7.567  1.4119  0.5874  1.1564
  935MOL0     H26189   3.056   1.346   7.863  0.3100 -0.9497 -0.4270
  935MOL0     H26190   2.821   1.429   7.880  2.1797  0.4441 -0.2816
  935MOL0     H26191   2.621   1.504   8.013  0.2615 -0.1151  0.5830
  935MOL0     H26192   2.587   1.395   7.881 -1.5497 -1.0298 -0.1798
  935MOL0     H26193   2.365   1.320   8.012 -2.9946  0.5207  2.5696
  935MOL0     H26194   2.418   1.447   8.122  3.3973 -0.2819  0.6568
  935MOL0     H26195   2.393   1.477   7.809  0.5039  4.4123 -0.6213
  935MOL0     H26196   2.407   1.608   7.923 -0.2970  0.8561  2.6051
  935MOL0     H26197   2.176   1.421   7.935  0.5814  0.0131  0.7829
  935MOL0     H26198   2.207   1.559   8.030 -3.7213 -0.9163 -0.8971
  935MOL0     H26199   2.188   1.718   7.831 -1.0366  1.0020 -0.6465
  935MOL0     H26200   2.038   1.637   7.870  1.0345  1.3890  0.6944
  935MOL0     H26201   2.207   1.572   7.630 -1.6106  2.0319 -2.5412
  935MOL0     H26202   2.093   1.456   7.703 -4.0325  0.5386  1.2673
  935MOL0     H26203   2.009   1.738   7.630 -3.9518  0.1789  0.0449
  935MOL0     H26204   1.913   1.588   7.662  0.0284  0.3715  0.2462
  935MOL0     H26205   2.108   1.621   7.426 -0.4397  1.1020 -1.1756
  935MOL0     H26206   1.937   1.653   7.411  1.8161  0.0175 -2.2643
  935MOL0     H26207   2.738   1.101   8.157  0.0950  0.9609  0.3366
  935MOL0     H26208   2.974   1.019   8.107  2.5653  1.4817 -0.1213
  935MOL0     H26209   3.353   1.078   8.063 -0.1775 -0.6522  0.7196
  935MOL0     H26210   3.598   1.003   8.070 -3.2939 -2.8301  1.6797
  935MOL0     H26211   5.378   0.705   7.558  0.9828 -0.3339 -1.0622
  935MOL0     H26212   5.560   0.566   7.512 -2.1264 -0.5246 -0.4047
  935MOL0     H26213   5.942   0.356   7.624 -1.4119  2.0151  0.9486
  935MOL0     H26214   6.181   0.255   7.590 -0.4107  0.2511 -0.1984
  935MOL0     H26215   6.552   0.515   7.503  1.8958  0.4477  2.2124
  935MOL0     H26216   6.467   0.528   7.657  0.5405  1.2093 -0.6283
  935MOL0     H26217   6.614   0.281   7.557  0.0363  0.7300 -0.2482
  935MOL0     H26218   6.551   0.290   7.711 -0.2435 -2.2847 -1.5767
  935MOL0     H26219   6.709   0.470   7.785  1.6182 -1.7847  0.6757
  935MOL0     H26220   6.771   0.482   7.612 -0.2859 -1.9560 -3.2395
  935MOL0     H26221   6.935   0.370   7.726  0.2535 -1.8768 -0.3876
  935MOL0     H26222   6.841   0.260   7.628 -1.4792 -1.7813  1.0384
  935MOL0     H26223   6.859   0.143   8.046  0.2791 -0.4330  0.1259
  935MOL0     H26224   6.335   0.649   7.535 -1.3069  0.8441  1.6593
  935MOL0     H26225   6.105   0.745   7.593 -2.2162  0.2251  2.3901
  936MOL0     O26226   4.964   6.168   6.482  0.3459  0.0291 -0.0070
  936MOL0     C26227   5.046   6.186   6.389 -0.1520  0.2283 -0.0607
  936MOL0     O26228   5.036   6.268   6.282  0.2928  0.1233  0.7350
  936MOL0     C26229   4.941   6.356   6.268  1.1675 -0.4501  0.8319
  936MOL0     C26230   4.808   6.333   6.301 -0.2064 -0.0970  0.1794
  936MOL0     C26231   4.711   6.438   6.278 -0.2006  0.5952  0.1436
  936MOL0     C26232   4.756   6.559   6.228  0.4790 -0.1145  0.7283
  936MOL0     O26233   4.667   6.656   6.201  1.0982  0.4415  0.3539
  936MOL0     C26234   4.559   6.676   6.302 -0.9615 -0.4006  0.7454
  936MOL0     C26235   4.506   6.817   6.291 -0.0631 -0.1828  0.0837
  936MOL0     C26236   4.411   6.832   6.173  0.3366 -0.1949 -0.6144
  936MOL0     C26237   4.372   6.982   6.150  0.0020 -0.5164 -0.5230
  936MOL0     C26238   4.257   6.995   6.054 -0.2106  0.7978  0.6104
  936MOL0     C26239   4.212   7.139   6.039 -1.1891 -0.3746  0.4227
  936MOL0     C26240   4.087   7.144   5.960  0.5860  0.2328  0.2023
  936MOL0     C26241   4.048   7.285   5.927  0.0103 -0.2183 -0.7289
  936MOL0     N26242   3.931   7.274   5.844  0.5846  0.7542  0.0102
  936MOL0     C26243   3.798   7.297   5.883  0.1707 -0.2414  0.0326
  936MOL0     C26244   3.722   7.285   5.770  0.6384 -0.1434 -0.4942
  936MOL0     C26245   3.570   7.283   5.778 -0.2812 -0.4209 -0.1586
  936MOL0     C26246   3.495   7.367   5.673 -0.2258  0.0180  0.3237
  936MOL0     C26247   3.476   7.518   5.700  0.3887 -0.0138 -0.2574
  936MOL0     C26248   3.375   7.579   5.595  0.0474  0.1600 -0.1682
  936MOL0     O26249   3.250   7.534   5.643 -0.6592 -0.7831  0.0352
  936MOL0     C26250   3.134   7.562   5.564 -0.7701 -0.9638 -0.0064
  936MOL0     C26251   3.050   7.673   5.608  0.3056 -0.1988 -0.2059
  936MOL0     C26252   2.926   7.700   5.539 -0.1937  0.4053 -1.0555
  936MOL0     C26253   2.861   7.827   5.584 -0.7216 -0.4510 -0.2932
  936MOL0     C26254   2.883   7.616   5.436 -0.0562 -1.0855 -0.4950
  936MOL0     C26255   2.746   7.636   5.362 -0.7952 -0.0517 -0.5742
  936MOL0     O26256   2.719   7.578   5.245  0.8579 -0.1282 -0.6156
  936MOL0     C26257   2.596   7.543   5.209 -0.2192  0.3658 -0.3397
  936MOL0     C26258   2.508   7.628   5.147  0.0091 -0.6753  0.7335
  936MOL0     C26259   2.372   7.584   5.123  0.5889  0.6241  0.4109
  936MOL0     C26260   2.330   7.450   5.166 -0.4271 -0.4800 -0.1559
  936MOL0     O26261   2.198   7.400   5.160  0.2800  0.4222  0.1556
  936MOL0     C26262   2.116   7.461   5.055  0.5139  0.6287  0.1293
  936MOL0     C26263   1.982   7.383   5.046 -0.3180  0.3305  0.0552
  936MOL0     C26264   1.977   7.232   5.013 -0.3053 -0.0353  0.1321
  936MOL0     C26265   2.005   7.135   5.134  0.3878 -0.2790  0.4436
  936MOL0     C26266   2.050   6.998   5.079  0.1697  0.2842  0.1026
  936MOL0     C26267   1.942   6.925   5.000 -0.5787 -0.3446  0.1019
  936MOL0     C26268   1.981   6.777   4.979 -0.1698 -1.1991 -0.1011
  936MOL0     C26269   1.919   6.734   4.854 -0.4088 -0.3691  0.5377
  936MOL0    Cl26270   1.753   6.679   4.893  0.3794 -0.3074  0.3663
  936MOL0     C26271   2.427   7.375   5.226 -0.2399  0.2303 -0.2369
  936MOL0     C26272   2.557   7.413   5.248  0.2047  0.8977  0.6232
  936MOL0     O26273   2.662   7.697   5.425  0.4237  0.6700 -0.1622
  936MOL0     C26274   2.969   7.516   5.388 -0.0148 -0.1078 -0.9422
  936MOL0     C26275   3.095   7.488   5.455  0.1229 -0.2633  0.4333
  936MOL0     N26276   3.810   7.243   5.674 -0.1889 -0.2920  0.3772
  936MOL0     N26277   3.931   7.238   5.710 -0.9412 -0.0720  0.1799
  936MOL0     C26278   4.884   6.573   6.177  0.3844 -0.0918  0.4553
  936MOL0     C26279   4.975   6.472   6.195  0.4824  0.1986  0.4491
  936MOL0     C26280   5.176   6.116   6.406  0.9640  0.4910  0.8146
  936MOL0     C26281   5.184   6.006   6.487  0.9789  0.6718  0.0949
  936MOL0     C26282   5.304   5.937   6.501  1.3694  0.6528 -0.0635
  936MOL0     C26283   5.414   5.966   6.424 -0.8485  0.7041 -0.3097
  936MOL0     O26284   5.529   5.894   6.430 -0.4784  0.2421 -0.4098
  936MOL0     C26285   5.628   5.977   6.489 -0.6770  0.4542 -0.3289
  936MOL0     C26286   5.759   5.892   6.467  0.3831  0.0991 -0.6157
  936MOL0     C26287   5.874   5.980   6.522 -1.0470 -0.5918  0.3964
  936MOL0     C26288   6.005   5.962   6.436 -0.6540 -0.0410  0.4027
  936MOL0     C26289   6.087   6.082   6.461  0.1924 -0.3340  0.0097
  936MOL0     C26290   6.152   6.182   6.482  0.4890  0.0580  1.3455
  936MOL0     C26291   5.400   6.064   6.331  0.5099  0.0730 -0.5258
  936MOL0     C26292   5.283   6.146   6.321  0.0411 -0.0528 -0.5234
  936MOL0     H26293   4.771   6.234   6.327 -1.5434  0.4164  0.3610
  936MOL0     H26294   4.604   6.421   6.279 -0.0445 -0.3656  0.7526
  936MOL0     H26295   4.480   6.602   6.289 -2.5596  1.2419  0.8124
  936MOL0     H26296   4.598   6.661   6.403  1.0566 -0.0813  0.0646
  936MOL0     H26297   4.456   6.857   6.379  0.9323 -1.6017  1.3405
  936MOL0     H26298   4.583   6.892   6.274 -1.8208  1.3288 -1.7811
  936MOL0     H26299   4.464   6.793   6.086  1.4409  0.5323 -0.2886
  936MOL0     H26300   4.324   6.768   6.187  0.0980  0.3868  0.6797
  936MOL0     H26301   4.327   7.034   6.236 -3.7146  2.5625 -3.9182
  936MOL0     H26302   4.459   7.037   6.115 -0.0515  0.2816  0.5421
  936MOL0     H26303   4.290   6.957   5.957 -2.9152  1.8190 -0.8145
  936MOL0     H26304   4.178   6.925   6.084  0.1823 -0.0951 -0.3959
  936MOL0     H26305   4.196   7.196   6.132  2.8612  1.2309  0.3230
  936MOL0     H26306   4.290   7.196   5.988  1.1196 -5.1845 -2.0472
  936MOL0     H26307   4.106   7.105   5.859  0.4918  2.3465 -0.6785
  936MOL0     H26308   4.004   7.088   6.004 -0.4312  1.6938  0.2160
  936MOL0     H26309   4.125   7.331   5.863  0.4534 -0.5591 -0.4467
  936MOL0     H26310   4.017   7.338   6.017 -2.4395 -1.0599 -1.0005
  936MOL0     H26311   3.761   7.328   5.980  1.1604  0.8030  0.0929
  936MOL0     H26312   3.542   7.180   5.755 -1.5457  0.3179 -2.2992
  936MOL0     H26313   3.535   7.314   5.876  0.5409  0.1854 -0.0366
  936MOL0     H26314   3.394   7.324   5.676 -0.8981  1.5105  2.6050
  936MOL0     H26315   3.536   7.345   5.574 -0.3563  4.5051 -0.9660
  936MOL0     H26316   3.574   7.562   5.683  0.3924  0.9813  2.0061
  936MOL0     H26317   3.454   7.539   5.805 -1.0114  0.2808 -0.5856
  936MOL0     H26318   3.378   7.531   5.497  1.2200 -2.6899  1.1405
  936MOL0     H26319   3.382   7.688   5.590  0.9588  0.2091  1.5500
  936MOL0     H26320   3.090   7.741   5.683  0.4676 -1.1597  0.5961
  936MOL0     H26321   2.765   7.802   5.630 -0.3269 -1.4113  0.0297
  936MOL0     H26322   2.927   7.876   5.656  1.7235  0.1645 -2.7379
  936MOL0     H26323   2.838   7.896   5.502 -1.7765 -0.0774  0.3008
  936MOL0     H26324   2.543   7.726   5.117  0.1570 -1.7308 -3.1751
  936MOL0     H26325   2.302   7.650   5.074 -2.0023 -1.3824  1.2052
  936MOL0     H26326   2.074   7.557   5.088 -0.4925  0.1059  0.4021
  936MOL0     H26327   2.173   7.479   4.964 -0.4153 -0.6624 -0.7481
  936MOL0     H26328   1.922   7.390   5.137  1.5477 -0.0843  1.3965
  936MOL0     H26329   1.919   7.432   4.972  0.1667  1.5114  0.3979
  936MOL0     H26330   2.065   7.221   4.950  0.3324  1.1192  0.7855
  936MOL0     H26331   1.882   7.215   4.961 -1.3191 -0.7019  2.0778
  936MOL0     H26332   2.085   7.181   5.192  0.9801  0.5537 -0.9794
  936MOL0     H26333   1.916   7.135   5.196  0.6340  0.0505  0.7984
  936MOL0     H26334   2.090   6.939   5.162 -2.6211 -0.1858  1.2260
  936MOL0     H26335   2.133   7.024   5.012  1.3353  0.8207  1.6744
  936MOL0     H26336   1.847   6.924   5.054 -1.5409  1.7494 -1.3767
  936MOL0     H26337   1.929   6.985   4.910 -1.5585 -1.1381 -0.3056
  936MOL0     H26338   1.946   6.719   5.065 -3.4420  0.3315 -0.2126
  936MOL0     H26339   2.089   6.768   4.985 -0.3031 -2.1395  1.3258
  936MOL0     H26340   1.981   6.656   4.809  0.6616  0.5773  0.3140
  936MOL0     H26341   1.919   6.810   4.775  2.2276 -1.9481 -1.1439
  936MOL0     H26342   2.389   7.278   5.259 -1.3261 -0.1440 -2.4155
  936MOL0     H26343   2.627   7.338   5.283 -3.7997 -2.3803  2.4918
  936MOL0     H26344   2.946   7.461   5.297 -0.0628  1.4293 -1.8973
  936MOL0     H26345   3.151   7.406   5.411  1.0881  0.5034  0.2048
  936MOL0     H26346   4.912   6.668   6.133  2.5293 -0.0219  1.8405
  936MOL0     H26347   5.075   6.479   6.152  1.4618 -0.6274  2.4726
  936MOL0     H26348   5.096   5.979   6.544  2.0451  0.7294  1.8505
  936MOL0     H26349   5.319   5.857   6.573  1.3789  2.7115  2.3859
  936MOL0     H26350   5.629   6.075   6.441 -2.8974  2.0789  2.6255
  936MOL0     H26351   5.602   5.985   6.594 -2.1245  1.1132 -0.7190
  936MOL0     H26352   5.767   5.897   6.358 -2.5901  0.1524 -0.9034
  936MOL0     H26353   5.757   5.796   6.519 -0.3061 -1.0009 -2.5921
  936MOL0     H26354   5.913   5.957   6.622  1.9054 -0.5614 -0.6603
  936MOL0     H26355   5.844   6.085   6.517 -1.6611 -0.7500  0.6323
  936MOL0     H26356   5.985   5.953   6.329 -0.6360 -1.0460  0.4837
  936MOL0     H26357   6.059   5.874   6.472  1.0476  0.4609 -0.7621
  936MOL0     H26358   6.217   6.267   6.486  1.0819 -0.1605 -1.7034
  936MOL0     H26359   5.485   6.081   6.265 -0.0346  3.9495 -0.4885
  936MOL0     H26360   5.282   6.233   6.256  0.4525  1.4763  1.4073
  937MOL0     O26361   9.746   8.280   0.953 -0.1937 -0.0833  0.2746
  937MOL0     C26362   9.750   8.278   1.075 -0.5572  0.5388  0.7470
  937MOL0     O26363   9.652   8.213   1.147 -0.4111  0.4307  0.5326
  937MOL0     C26364   9.549   8.152   1.077 -0.3866 -0.5726  0.3976
  937MOL0     C26365   9.453   8.226   1.015 -0.4139 -0.2863  0.2341
  937MOL0     C26366   9.360   8.172   0.931 -0.2515 -0.6022 -1.2400
  937MOL0     C26367   9.357   8.033   0.906 -1.2108  0.2236  0.1423
  937MOL0     O26368   9.272   7.986   0.814 -0.0297  0.2012 -0.1119
  937MOL0     C26369   9.233   8.060   0.700 -1.0262 -0.1378  0.2442
  937MOL0     C26370   9.158   7.969   0.610  0.7080  0.4510 -0.5344
  937MOL0     C26371   9.250   7.847   0.564 -0.0623  0.2741 -0.2458
  937MOL0     C26372   9.184   7.762   0.464  0.7498  0.0640  0.2303
  937MOL0     C26373   9.230   7.618   0.472 -0.6662 -0.5032 -0.0931
  937MOL0     C26374   9.168   7.522   0.359 -0.6598  0.4489 -0.4227
  937MOL0     C26375   9.047   7.451   0.411  0.6535  0.6803  0.5082
  937MOL0     C26376   8.965   7.374   0.296 -0.6721 -0.1037 -0.1752
  937MOL0     N26377   8.956   7.232   0.347 -0.7820 -0.2741  0.0930
  937MOL0     C26378   8.845   7.169   0.404 -0.0679 -0.1148  0.1167
  937MOL0     C26379   8.855   7.038   0.381 -0.0140  0.6320 -0.6326
  937MOL0     C26380   8.756   6.938   0.430  0.6452  0.5356 -0.4622
  937MOL0     C26381   8.635   6.902   0.343  0.2911 -0.1410  1.2973
  937MOL0     C26382   8.674   6.883   0.196  0.0734  0.1664  0.0567
  937MOL0     C26383   8.573   6.783   0.137 -0.1810 -0.2542  0.2535
  937MOL0     O26384   8.601   6.729   0.005 -0.4725 -0.2036  0.4228
  937MOL0     C26385   8.488   6.688  -0.054  0.8156  0.2585  0.3132
  937MOL0     C26386   8.422   6.574  -0.020  0.6024  0.6261 -0.6292
  937MOL0     C26387   8.296   6.546  -0.092 -0.5438 -0.0105  0.5688
  937MOL0     C26388   8.235   6.399  -0.062 -0.3927 -0.5284 -0.8644
  937MOL0     C26389   8.240   6.645  -0.175  0.9021  0.2741  0.1738
  937MOL0     C26390   8.106   6.618  -0.240 -0.4938  0.8265 -0.0132
  937MOL0     O26391   8.048   6.728  -0.269  0.4939  0.3943  0.5517
  937MOL0     C26392   7.917   6.727  -0.307  0.4516  0.2364  0.2316
  937MOL0     C26393   7.817   6.630  -0.272  0.0050 -0.1951 -0.3233
  937MOL0     C26394   7.692   6.651  -0.316 -1.0755  0.7075  0.8296
  937MOL0     C26395   7.646   6.764  -0.383 -0.5830  0.5107  0.3786
  937MOL0     O26396   7.506   6.773  -0.398 -1.3682 -0.4768 -0.1204
  937MOL0     C26397   7.469   6.850  -0.511  1.0166 -0.6684 -0.1041
  937MOL0     C26398   7.317   6.861  -0.527 -1.0786 -0.7568  0.0306
  937MOL0     C26399   7.244   6.727  -0.505  0.6155  0.1689  0.1096
  937MOL0     C26400   7.197   6.677  -0.645  0.4855  0.6677  0.2430
  937MOL0     C26401   7.148   6.528  -0.625  0.2444  0.1647  0.2199
  937MOL0     C26402   7.253   6.429  -0.574 -0.3842  0.0436 -0.7422
  937MOL0     C26403   7.390   6.440  -0.645  0.4719 -0.0884  0.5181
  937MOL0     C26404   7.503   6.356  -0.580 -0.1470 -0.2194 -0.6272
  937MOL0    Cl26405   7.643   6.353  -0.694 -0.4973 -0.1488 -0.4018
  937MOL0     C26406   7.746   6.855  -0.420 -0.7875 -0.2019 -0.4911
  937MOL0     C26407   7.881   6.839  -0.385  0.6633  0.9169  0.1724
  937MOL0     O26408   8.059   6.506  -0.250  0.4789  0.1042  0.1402
  937MOL0     C26409   8.321   6.750  -0.208  0.6121 -1.3072 -0.1173
  937MOL0     C26410   8.441   6.781  -0.145 -0.1881 -0.2336 -0.9514
  937MOL0     N26411   8.971   7.010   0.312  0.3126 -0.4519 -0.3431
  937MOL0     N26412   9.023   7.125   0.287 -0.0774  0.1563  0.6385
  937MOL0     C26413   9.457   7.955   0.971 -0.2813  0.8325 -0.1922
  937MOL0     C26414   9.550   8.008   1.062  0.0931 -0.2536 -0.0107
  937MOL0     C26415   9.859   8.344   1.154 -0.2088 -0.2464 -0.1270
  937MOL0     C26416   9.863   8.363   1.302  0.5289 -0.4457 -0.3957
  937MOL0     C26417   9.978   8.422   1.356 -0.2709  0.1552 -0.6956
  937MOL0     C26418  10.076   8.478   1.283  0.8739  0.0827 -0.1190
  937MOL0     O26419  10.169   8.528   1.362  0.0305 -0.1914  0.2605
  937MOL0     C26420  10.254   8.631   1.311 -0.2286  0.2555  0.5229
  937MOL0     C26421  10.186   8.759   1.351  0.3617 -0.3729 -0.6179
  937MOL0     C26422  10.280   8.884   1.342  0.7115  1.3146 -0.0147
  937MOL0     C26423  10.376   8.900   1.462 -0.6778  0.4755 -0.5792
  937MOL0     C26424  10.311   8.941   1.586  0.0357 -0.0152 -0.1272
  937MOL0     C26425  10.260   8.964   1.695  0.0331  0.7933  0.3414
  937MOL0     C26426  10.070   8.473   1.147  0.2142 -0.0039 -1.1862
  937MOL0     C26427   9.970   8.403   1.087  0.8512 -0.3078 -0.3693
  937MOL0     H26428   9.456   8.334   1.030 -1.1000 -0.2924  0.4460
  937MOL0     H26429   9.292   8.240   0.880 -1.7897 -0.2570  1.1309
  937MOL0     H26430   9.163   8.141   0.724 -2.3966 -1.1292 -0.2695
  937MOL0     H26431   9.326   8.094   0.656 -0.2711 -1.2562  0.9137
  937MOL0     H26432   9.073   7.924   0.662 -0.8308  1.3643 -2.0955
  937MOL0     H26433   9.127   8.032   0.525 -1.9784  2.1846  1.5638
  937MOL0     H26434   9.346   7.882   0.526 -0.1159 -1.6343 -2.3516
  937MOL0     H26435   9.264   7.774   0.644 -4.2798  0.3743  0.8367
  937MOL0     H26436   9.075   7.774   0.469  0.4752  0.8977 -3.8967
  937MOL0     H26437   9.208   7.795   0.363  4.0432 -2.3566  0.0587
  937MOL0     H26438   9.337   7.624   0.450 -0.3786 -0.1488  1.3386
  937MOL0     H26439   9.220   7.569   0.569  0.0567 -1.4099 -0.4592
  937MOL0     H26440   9.143   7.583   0.272 -2.9725 -0.0629 -0.1822
  937MOL0     H26441   9.242   7.449   0.326 -2.2521 -1.1153 -0.7046
  937MOL0     H26442   9.074   7.376   0.487  2.8789 -1.5190 -2.2077
  937MOL0     H26443   8.976   7.524   0.451  0.6022  2.0039 -1.8294
  937MOL0     H26444   9.018   7.375   0.201 -1.4993  1.9531 -0.6635
  937MOL0     H26445   8.868   7.422   0.283 -0.6722 -0.0960 -0.1494
  937MOL0     H26446   8.757   7.221   0.440  0.3977  0.2142  0.7927
  937MOL0     H26447   8.817   6.847   0.433  0.3753  0.3691  0.5878
  937MOL0     H26448   8.724   6.965   0.531 -0.9012 -2.1598 -0.1003
  937MOL0     H26449   8.567   6.987   0.347  2.4232  1.6203  2.1195
  937MOL0     H26450   8.581   6.819   0.389 -2.4281  0.6098 -0.3086
  937MOL0     H26451   8.776   6.844   0.190  0.3995  1.0511 -0.3633
  937MOL0     H26452   8.677   6.975   0.137 -0.3941  0.7677  0.9523
  937MOL0     H26453   8.475   6.832   0.139 -0.1755 -0.2140 -0.5065
  937MOL0     H26454   8.567   6.702   0.210 -1.1881  0.9133  1.5433
  937MOL0     H26455   8.453   6.499   0.052 -0.4159 -1.1413 -1.9486
  937MOL0     H26456   8.302   6.334  -0.005  1.5388  3.6284  2.0971
  937MOL0     H26457   8.141   6.414  -0.008 -0.8167 -0.2506 -1.6674
  937MOL0     H26458   8.204   6.346  -0.153  1.3892 -0.9702 -1.2470
  937MOL0     H26459   7.831   6.540  -0.214  1.2650 -0.2177 -0.6264
  937MOL0     H26460   7.624   6.566  -0.320 -0.4230  0.2167 -0.2230
  937MOL0     H26461   7.504   6.953  -0.518 -2.9032  0.8406 -0.1906
  937MOL0     H26462   7.505   6.785  -0.591  0.1144 -2.7240  1.0910
  937MOL0     H26463   7.275   6.939  -0.462 -1.2368  0.0973 -1.0754
  937MOL0     H26464   7.283   6.905  -0.621 -0.6077  3.8763  1.7388
  937MOL0     H26465   7.157   6.748  -0.442 -0.5384  1.0652 -1.6969
  937MOL0     H26466   7.296   6.645  -0.454  1.6884 -0.0082 -1.2098
  937MOL0     H26467   7.123   6.746  -0.686  0.7574 -0.0845 -1.6030
  937MOL0     H26468   7.283   6.681  -0.712 -0.8612  0.8116 -1.5513
  937MOL0     H26469   7.106   6.488  -0.718  1.2695  0.6351 -0.4693
  937MOL0     H26470   7.065   6.537  -0.555 -2.2485  1.4826 -2.6432
  937MOL0     H26471   7.263   6.432  -0.465 -0.7480 -3.8250 -0.4478
  937MOL0     H26472   7.219   6.325  -0.585  3.3801 -1.8484  2.6520
  937MOL0     H26473   7.426   6.543  -0.645 -0.0992  0.1795 -1.7114
  937MOL0     H26474   7.382   6.406  -0.749  2.5579  0.2792  0.1933
  937MOL0     H26475   7.463   6.260  -0.549 -3.1486  0.2887 -2.5268
  937MOL0     H26476   7.531   6.403  -0.485 -1.7907 -3.6457  1.7508
  937MOL0     H26477   7.733   6.951  -0.470 -0.5698  0.5047  0.7672
  937MOL0     H26478   7.942   6.928  -0.404 -0.7637  1.6847 -0.9359
  937MOL0     H26479   8.281   6.814  -0.286  0.9614  2.9057  2.8159
  937MOL0     H26480   8.495   6.873  -0.166 -0.1775 -0.0104  0.0036
  937MOL0     H26481   9.458   7.847   0.954  1.4252  0.9386 -0.9385
  937MOL0     H26482   9.628   7.944   1.103  1.4881 -0.1544 -2.3051
  937MOL0     H26483   9.782   8.331   1.367  0.2266  0.8914 -0.0812
  937MOL0     H26484   9.990   8.421   1.464 -0.5763  1.0672 -0.6416
  937MOL0     H26485  10.338   8.625   1.381 -1.1332 -1.8103  1.5112
  937MOL0     H26486  10.293   8.639   1.209 -1.0545 -1.4948  0.0273
  937MOL0     H26487  10.143   8.752   1.451  1.1228  0.6736 -0.1955
  937MOL0     H26488  10.103   8.771   1.281  0.5336 -2.8384 -1.3612
  937MOL0     H26489  10.203   8.962   1.340 -0.0935  0.5398 -0.0459
  937MOL0     H26490  10.335   8.879   1.248 -0.2637  2.4512 -0.6829
  937MOL0     H26491  10.439   8.987   1.440  0.2127  0.1745  0.7107
  937MOL0     H26492  10.441   8.815   1.482  1.7999  2.3477 -0.1367
  937MOL0     H26493  10.226   8.973   1.796  2.1036  2.1218  0.9841
  937MOL0     H26494  10.160   8.517   1.104  0.6745  2.2457  1.7701
  937MOL0     H26495   9.970   8.391   0.979 -0.4249 -2.6577 -0.1935
  938MOL0     O26496  11.188   2.127   0.567  0.5360 -0.1842 -0.0767
  938MOL0     C26497  11.221   2.209   0.481  0.5001 -0.6648 -0.2224
  938MOL0     O26498  11.133   2.289   0.422 -0.1101  0.0373 -0.0463
  938MOL0     C26499  10.998   2.262   0.441 -0.2767 -0.2414 -0.4512
  938MOL0     C26500  10.931   2.198   0.340  0.3556  0.4054  0.5734
  938MOL0     C26501  10.791   2.212   0.327 -0.0923 -0.3322 -0.0291
  938MOL0     C26502  10.719   2.277   0.425  0.2690  0.2547  0.2370
  938MOL0     O26503  10.583   2.293   0.423  0.8348  0.3930 -0.4476
  938MOL0     C26504  10.510   2.176   0.464 -0.5866  1.0194  0.1788
  938MOL0     C26505  10.373   2.168   0.410 -0.0613  0.7394  0.4481
  938MOL0     C26506  10.302   2.034   0.443 -0.3751 -0.0998 -0.5577
  938MOL0     C26507  10.246   2.043   0.587 -0.7811 -0.5139 -0.5437
  938MOL0     C26508  10.212   1.909   0.643 -0.6049  0.0870  0.4694
  938MOL0     C26509  10.335   1.823   0.656 -0.6324  0.0639 -0.4348
  938MOL0     C26510  10.307   1.723   0.770 -0.0403 -0.9063 -0.2590
  938MOL0     C26511  10.385   1.591   0.757  0.3035 -0.0786 -0.3066
  938MOL0     N26512  10.357   1.489   0.862  0.2020  0.0989  0.3850
  938MOL0     C26513  10.426   1.475   0.983  0.5922  0.4836  0.1180
  938MOL0     C26514  10.383   1.348   1.018  1.0936 -0.7975 -0.1798
  938MOL0     C26515  10.408   1.276   1.148 -0.6640 -0.2721 -0.2423
  938MOL0     C26516  10.294   1.312   1.245 -1.0593  0.8270 -0.2647
  938MOL0     C26517  10.261   1.458   1.271 -0.2687 -0.4765  0.3402
  938MOL0     C26518  10.135   1.459   1.359 -0.9249 -0.4535  0.2416
  938MOL0     O26519  10.079   1.595   1.345  0.3509 -0.0406  0.0137
  938MOL0     C26520   9.976   1.634   1.426  0.6061  0.5324 -0.9087
  938MOL0     C26521   9.951   1.770   1.452 -0.5557 -0.7872  0.2949
  938MOL0     C26522   9.850   1.808   1.538  0.5160  0.0252 -0.9902
  938MOL0     C26523   9.835   1.954   1.542 -0.5830  0.8879  0.5985
  938MOL0     C26524   9.760   1.719   1.604  0.2833  0.0859 -0.5225
  938MOL0     C26525   9.652   1.748   1.698 -0.6935 -0.6803  0.1348
  938MOL0     O26526   9.598   1.645   1.771  0.3296  0.0698 -0.2945
  938MOL0     C26527   9.523   1.689   1.882 -0.0063  0.6825  0.4456
  938MOL0     C26528   9.589   1.734   1.998  0.4024 -0.6487  0.4814
  938MOL0     C26529   9.515   1.776   2.109  0.3687  0.7217  0.7563
  938MOL0     C26530   9.376   1.796   2.099  0.7442  0.0489 -0.5018
  938MOL0     O26531   9.306   1.842   2.212 -0.1503 -0.5925  0.1211
  938MOL0     C26532   9.164   1.813   2.223  0.2093 -1.2345 -0.5751
  938MOL0     C26533   9.113   1.859   2.351  0.4039  0.0290  0.2915
  938MOL0     C26534   9.157   1.766   2.463 -0.2638 -0.2997 -0.0375
  938MOL0     C26535   9.086   1.795   2.597  0.4967  0.3667  0.9317
  938MOL0     C26536   9.139   1.687   2.694 -0.3908 -0.2131 -0.5308
  938MOL0     C26537   9.069   1.705   2.826  1.2490 -0.7491 -0.2610
  938MOL0     C26538   8.916   1.681   2.830 -0.3040  0.2486  0.9559
  938MOL0     C26539   8.856   1.685   2.967  0.0830  0.1248  0.2796
  938MOL0    Cl26540   8.687   1.663   2.912  0.4985  0.1569 -0.4360
  938MOL0     C26541   9.309   1.760   1.981 -0.2241 -0.5682  0.4209
  938MOL0     C26542   9.385   1.701   1.880 -0.3718  0.0035  1.0423
  938MOL0     O26543   9.622   1.864   1.702  0.6425  0.8237 -0.3766
  938MOL0     C26544   9.778   1.588   1.571 -0.3507  0.2447  0.0595
  938MOL0     C26545   9.885   1.546   1.493  0.4727 -0.1153  0.2046
  938MOL0     N26546  10.286   1.298   0.926  0.8406 -0.0657 -0.0755
  938MOL0     N26547  10.281   1.381   0.828  0.4613  0.1070 -0.3897
  938MOL0     C26548  10.787   2.335   0.530  0.0652 -0.8193 -0.2998
  938MOL0     C26549  10.926   2.330   0.541 -0.6771  1.5030 -0.8100
  938MOL0     C26550  11.357   2.207   0.437 -0.3700  0.3760  0.5253
  938MOL0     C26551  11.413   2.292   0.343  0.1385 -0.4591  0.3108
  938MOL0     C26552  11.555   2.309   0.313 -0.8288 -0.1387 -0.0645
  938MOL0     C26553  11.635   2.209   0.369  0.2582 -0.3896 -0.2413
  938MOL0     O26554  11.774   2.189   0.357  0.9148 -0.7802  0.4287
  938MOL0     C26555  11.847   2.262   0.262 -0.1999 -0.3879  0.6239
  938MOL0     C26556  11.983   2.200   0.244 -0.0454  0.7701  0.5600
  938MOL0     C26557  12.076   2.291   0.156 -0.5114  0.6958  0.2063
  938MOL0     C26558  12.197   2.210   0.106 -0.2736  0.0833  0.7528
  938MOL0     C26559  12.289   2.298   0.034  0.3301 -0.2766  0.0966
  938MOL0     C26560  12.365   2.373  -0.032 -0.0652 -0.0021 -0.4791
  938MOL0     C26561  11.582   2.122   0.462 -0.4945  0.0638 -0.2672
  938MOL0     C26562  11.452   2.124   0.499 -0.9675 -0.3323 -0.2802
  938MOL0     H26563  10.974   2.153   0.251 -0.0872 -2.1633  1.5646
  938MOL0     H26564  10.740   2.164   0.244  4.5734 -4.3118 -1.0747
  938MOL0     H26565  10.568   2.088   0.434 -0.8840 -0.1485  2.7787
  938MOL0     H26566  10.515   2.172   0.573  0.1851  1.3356  0.1682
  938MOL0     H26567  10.313   2.251   0.449 -1.0178  0.7110 -0.8896
  938MOL0     H26568  10.388   2.177   0.302  0.9820  0.7796  0.5874
  938MOL0     H26569  10.225   2.021   0.366  1.5120 -1.5200 -2.3189
  938MOL0     H26570  10.374   1.955   0.418  0.5056  0.7504 -0.7493
  938MOL0     H26571  10.320   2.093   0.649 -0.0660 -1.3845 -0.6767
  938MOL0     H26572  10.167   2.118   0.594  2.2388  3.4696 -4.0328
  938MOL0     H26573  10.175   1.927   0.744  0.4691 -0.8077  1.0334
  938MOL0     H26574  10.139   1.860   0.578  1.1940 -3.0900  0.6372
  938MOL0     H26575  10.346   1.770   0.560  0.0510 -0.6876  0.0404
  938MOL0     H26576  10.431   1.874   0.672 -0.4097  0.7939 -3.4636
  938MOL0     H26577  10.336   1.771   0.865 -1.9224  2.6200 -1.2827
  938MOL0     H26578  10.202   1.695   0.766 -0.0822 -0.7647 -0.1738
  938MOL0     H26579  10.492   1.609   0.763  0.3832 -0.7515  0.4899
  938MOL0     H26580  10.353   1.550   0.660 -1.0624 -0.8036  0.4140
  938MOL0     H26581  10.493   1.538   1.041  2.4839  0.5409 -2.0041
  938MOL0     H26582  10.413   1.167   1.135  2.4558 -0.2470 -0.0401
  938MOL0     H26583  10.506   1.300   1.190 -1.4171 -0.4626  1.7802
  938MOL0     H26584  10.317   1.260   1.339  1.3341 -0.7303 -1.5976
  938MOL0     H26585  10.200   1.269   1.209 -1.3446  1.8835 -0.8098
  938MOL0     H26586  10.243   1.514   1.178 -1.3859  1.1076  1.4596
  938MOL0     H26587  10.344   1.507   1.322  1.9284 -0.2757 -3.1295
  938MOL0     H26588  10.156   1.423   1.460  0.8391  2.1427  0.8967
  938MOL0     H26589  10.057   1.398   1.311 -3.2887  2.1602  0.4586
  938MOL0     H26590  10.015   1.844   1.407  2.5182 -3.5854 -0.2985
  938MOL0     H26591   9.920   2.003   1.494 -0.3808 -0.4430 -0.4621
  938MOL0     H26592   9.743   1.984   1.491 -0.2238 -2.5814 -2.5393
  938MOL0     H26593   9.834   1.996   1.643 -0.5304  0.8895  0.5986
  938MOL0     H26594   9.698   1.727   2.000  0.7958  1.0295 -3.6570
  938MOL0     H26595   9.574   1.799   2.197  1.5072 -1.9678  0.8044
  938MOL0     H26596   9.100   1.852   2.143 -1.4747 -2.3470  0.1930
  938MOL0     H26597   9.158   1.704   2.222  1.7899 -1.3471 -1.1212
  938MOL0     H26598   9.151   1.957   2.382 -1.6549 -0.0604  3.5568
  938MOL0     H26599   9.004   1.868   2.344  0.3590 -0.6547  0.0917
  938MOL0     H26600   9.266   1.775   2.474  0.0902 -2.6772 -0.9599
  938MOL0     H26601   9.135   1.665   2.428 -1.7645  0.2203 -0.6641
  938MOL0     H26602   9.113   1.892   2.639  0.5458 -0.3254  2.5837
  938MOL0     H26603   8.980   1.800   2.572  0.6714  1.1496  0.2963
  938MOL0     H26604   9.246   1.706   2.704  0.0325 -3.2916  2.8718
  938MOL0     H26605   9.129   1.585   2.658 -1.5169 -0.6403  0.9169
  938MOL0     H26606   9.114   1.630   2.891  0.4597 -1.2155 -0.2494
  938MOL0     H26607   9.084   1.808   2.860 -3.1946  0.9795 -2.7449
  938MOL0     H26608   8.905   1.581   2.788  1.2324  0.0883  0.8556
  938MOL0     H26609   8.873   1.763   2.772  1.9838  2.7131  2.5255
  938MOL0     H26610   8.866   1.779   3.022 -0.4268  1.2608 -1.4437
  938MOL0     H26611   8.894   1.609   3.035 -0.0594 -0.4668 -0.2872
  938MOL0     H26612   9.202   1.772   1.968 -0.1436  6.6085  1.9070
  938MOL0     H26613   9.350   1.682   1.779  1.0463 -0.9996  0.7037
  938MOL0     H26614   9.713   1.514   1.616  3.0274 -2.2334  1.3433
  938MOL0     H26615   9.880   1.438   1.488  0.2998 -0.0978 -0.0217
  938MOL0     H26616  10.737   2.395   0.606 -1.6444  0.0072 -1.9847
  938MOL0     H26617  10.977   2.387   0.618  0.8297  1.0104 -1.4048
  938MOL0     H26618  11.341   2.363   0.303  2.5502  1.7776 -0.3553
  938MOL0     H26619  11.603   2.395   0.266 -0.3170  0.2251  1.1048
  938MOL0     H26620  11.797   2.281   0.166  0.1956  0.9588  0.6559
  938MOL0     H26621  11.862   2.365   0.297  0.0074 -0.2360  0.1017
  938MOL0     H26622  11.988   2.096   0.211 -1.5217  0.7049  0.4692
  938MOL0     H26623  12.018   2.200   0.348 -2.0254 -0.4685  1.2915
  938MOL0     H26624  12.116   2.375   0.214 -0.6485  1.3106 -0.5718
  938MOL0     H26625  12.021   2.329   0.070  0.7899 -2.3070 -2.1365
  938MOL0     H26626  12.171   2.132   0.034 -0.6710 -1.7017  2.7148
  938MOL0     H26627  12.257   2.163   0.184  1.4343 -0.8794 -1.0819
  938MOL0     H26628  12.425   2.446  -0.082  1.3499  1.2143  2.7094
  938MOL0     H26629  11.656   2.057   0.508 -0.2003  0.7623  0.2792
  938MOL0     H26630  11.420   2.064   0.584  2.8428  2.0543  3.1877
  939MOL0     O26631   8.931   4.021   8.864 -0.1178 -0.1189  1.0610
  939MOL0     C26632   8.924   4.144   8.849 -0.3098 -0.4386 -0.1577
  939MOL0     O26633   8.811   4.213   8.806 -0.7878  0.1259  0.0978
  939MOL0     C26634   8.691   4.160   8.778  0.6274 -0.2861  0.4583
  939MOL0     C26635   8.580   4.241   8.801 -0.3092 -0.4378 -0.0689
  939MOL0     C26636   8.449   4.199   8.762 -0.9789  0.2005 -0.1833
  939MOL0     C26637   8.429   4.070   8.712 -0.4147  1.3345  0.1318
  939MOL0     O26638   8.311   4.019   8.681  0.3723 -0.0285  0.4137
  939MOL0     C26639   8.249   3.939   8.791 -0.2756 -0.2135 -0.5480
  939MOL0     C26640   8.101   3.927   8.777  0.6341 -0.0299 -0.5054
  939MOL0     C26641   8.058   3.891   8.629  0.0141 -0.1247 -0.2949
  939MOL0     C26642   7.912   3.865   8.617  1.3708 -0.7238  0.1825
  939MOL0     C26643   7.889   3.817   8.471 -0.1223  0.6559 -0.2850
  939MOL0     C26644   7.953   3.679   8.425 -0.3442  0.4443 -0.5714
  939MOL0     C26645   7.857   3.607   8.349  0.5084 -0.5902 -0.3379
  939MOL0     C26646   7.907   3.478   8.288 -0.3040  0.7083  0.0047
  939MOL0     N26647   7.793   3.411   8.222 -0.4723 -0.3549  1.3367
  939MOL0     C26648   7.700   3.323   8.273 -1.1849  0.2898  0.1832
  939MOL0     C26649   7.601   3.318   8.188 -0.0005  0.2004 -0.5453
  939MOL0     C26650   7.470   3.242   8.190  0.3553 -0.3224  1.3149
  939MOL0     C26651   7.343   3.333   8.242 -0.2795  0.3887 -0.2549
  939MOL0     C26652   7.218   3.241   8.207 -0.6195 -0.0750 -0.0888
  939MOL0     C26653   7.083   3.315   8.218  0.5422  0.5921  0.5611
  939MOL0     O26654   6.967   3.238   8.209  0.2585  0.4693  0.9201
  939MOL0     C26655   6.855   3.296   8.152 -0.3018 -0.3721 -0.1765
  939MOL0     C26656   6.830   3.436   8.147 -0.6964  0.0074 -0.3235
  939MOL0     C26657   6.703   3.488   8.114 -0.4306 -0.4046  0.2128
  939MOL0     C26658   6.703   3.639   8.121 -0.2087 -0.3912  0.6520
  939MOL0     C26659   6.592   3.405   8.082 -0.6062 -0.1805  0.6115
  939MOL0     C26660   6.452   3.453   8.046 -0.2378 -0.2609 -0.0514
  939MOL0     O26661   6.383   3.369   7.976  0.0178  0.7153 -0.2940
  939MOL0     C26662   6.253   3.392   7.947 -0.0912  0.6951 -0.1617
  939MOL0     C26663   6.156   3.444   8.039 -0.3666 -0.2603 -0.1682
  939MOL0     C26664   6.025   3.464   7.996 -0.9608 -0.1759 -0.1003
  939MOL0     C26665   5.982   3.424   7.869  0.6412  0.2279  0.1634
  939MOL0     O26666   5.850   3.428   7.839 -0.5165 -0.3558  0.6939
  939MOL0     C26667   5.788   3.309   7.783 -0.1913  1.4813 -0.3569
  939MOL0     C26668   5.647   3.348   7.738 -0.5767 -0.0808 -0.5792
  939MOL0     C26669   5.562   3.421   7.847  1.3517 -0.0602 -0.5030
  939MOL0     C26670   5.420   3.413   7.799 -0.3946 -0.8951  0.7964
  939MOL0     C26671   5.325   3.485   7.900 -0.8409 -0.5152  0.0030
  939MOL0     C26672   5.181   3.467   7.854  0.6413 -0.2229 -1.1371
  939MOL0     C26673   5.142   3.313   7.874 -0.3477  1.0044 -0.4740
  939MOL0     C26674   4.992   3.304   7.859  0.5206 -0.3890 -0.3131
  939MOL0    Cl26675   4.946   3.378   7.705 -0.3174 -0.6206 -0.1255
  939MOL0     C26676   6.077   3.367   7.783  0.2795  0.3968  0.2352
  939MOL0     C26677   6.209   3.348   7.828  1.0242 -1.2010  0.6376
  939MOL0     O26678   6.401   3.566   8.076 -1.5658  0.2067 -0.6792
  939MOL0     C26679   6.618   3.267   8.081  0.0421  0.6169  0.2843
  939MOL0     C26680   6.745   3.213   8.118  0.2798  0.6524  0.0649
  939MOL0     N26681   7.628   3.409   8.088  0.0097  1.7107  0.4669
  939MOL0     N26682   7.746   3.457   8.099 -0.1273 -0.2419  1.0400
  939MOL0     C26683   8.546   3.991   8.684 -0.0785  1.0009 -0.5197
  939MOL0     C26684   8.675   4.037   8.715  0.7933  0.5392  0.5923
  939MOL0     C26685   9.047   4.213   8.883  0.4211 -0.0593  0.6640
  939MOL0     C26686   9.045   4.351   8.897 -0.8040  0.1461 -0.1969
  939MOL0     C26687   9.172   4.418   8.907 -0.7593  0.3571  0.1082
  939MOL0     C26688   9.294   4.348   8.924 -1.3842 -0.6878  0.4860
  939MOL0     O26689   9.412   4.419   8.946  0.0807  0.0820  0.3367
  939MOL0     C26690   9.416   4.559   8.986  0.1940  0.0574  0.0823
  939MOL0     C26691   9.561   4.612   9.025  0.6020 -0.6410 -0.0109
  939MOL0     C26692   9.621   4.531   9.142 -0.2452 -0.0751  0.8371
  939MOL0     C26693   9.757   4.601   9.187 -0.0346  0.3071  0.5990
  939MOL0     C26694   9.856   4.590   9.081 -0.8848 -0.7747  0.9641
  939MOL0     C26695   9.938   4.590   8.988 -0.1436 -0.8116  0.7473
  939MOL0     C26696   9.291   4.215   8.906 -0.3998  0.7454  0.7294
  939MOL0     C26697   9.172   4.143   8.887 -0.6292  0.0236 -0.1491
  939MOL0     H26698   8.610   4.341   8.831 -1.7818  0.3118 -0.9922
  939MOL0     H26699   8.369   4.262   8.800 -0.6797  0.3855  0.1479
  939MOL0     H26700   8.293   3.839   8.789 -0.1714 -0.1595 -1.1552
  939MOL0     H26701   8.273   3.988   8.886 -0.2851 -0.4296 -0.4342
  939MOL0     H26702   8.066   3.844   8.839  0.4413  0.6575  0.3293
  939MOL0     H26703   8.060   4.024   8.806  0.8455  0.4866 -1.8700
  939MOL0     H26704   8.082   3.979   8.569  0.2975  0.9602  1.3431
  939MOL0     H26705   8.110   3.804   8.588 -0.7396 -0.3912 -0.7166
  939MOL0     H26706   7.886   3.787   8.690  0.5194 -1.9266 -1.3287
  939MOL0     H26707   7.852   3.953   8.642 -1.0435 -1.1163 -3.4277
  939MOL0     H26708   7.780   3.810   8.473 -0.0579 -0.3802  1.8852
  939MOL0     H26709   7.919   3.896   8.401  1.5742  0.9033  0.6751
  939MOL0     H26710   8.049   3.678   8.373 -0.8911 -1.7127 -1.6610
  939MOL0     H26711   7.987   3.621   8.512  0.7132  2.5649  0.5185
  939MOL0     H26712   7.764   3.590   8.404 -0.6386  0.3798 -1.8870
  939MOL0     H26713   7.824   3.674   8.269  0.3305  1.8577  1.6445
  939MOL0     H26714   7.948   3.412   8.365 -0.1765  0.4657 -0.2697
  939MOL0     H26715   7.988   3.509   8.221  0.4999  1.7683  1.4184
  939MOL0     H26716   7.726   3.268   8.362  0.2394  1.4195  0.5104
  939MOL0     H26717   7.447   3.198   8.092 -0.8648 -1.3236  2.0101
  939MOL0     H26718   7.486   3.155   8.254  2.9569  0.4333  1.8008
  939MOL0     H26719   7.333   3.430   8.191 -0.3421 -0.4674 -1.9175
  939MOL0     H26720   7.350   3.341   8.351 -0.0358 -0.7636 -0.1751
  939MOL0     H26721   7.206   3.156   8.275  1.1893  1.0143  1.6989
  939MOL0     H26722   7.228   3.215   8.101 -2.3470 -0.8299 -0.1072
  939MOL0     H26723   7.081   3.392   8.139  0.4140 -2.3957 -2.6056
  939MOL0     H26724   7.067   3.361   8.316 -3.6136  1.7062 -0.4136
  939MOL0     H26725   6.898   3.505   8.195 -0.4123 -0.0118 -0.6932
  939MOL0     H26726   6.636   3.680   8.044  0.5821 -0.8890 -0.3236
  939MOL0     H26727   6.661   3.665   8.218 -0.3190 -0.0843  0.5247
  939MOL0     H26728   6.804   3.680   8.110 -0.8196  1.5136  1.5926
  939MOL0     H26729   6.183   3.476   8.139 -1.9266  0.4794  0.0491
  939MOL0     H26730   5.958   3.515   8.065 -0.6377  1.5677 -0.9936
  939MOL0     H26731   5.854   3.278   7.702  1.2644  0.6748  1.0727
  939MOL0     H26732   5.787   3.233   7.862  2.2442  3.1467  1.4496
  939MOL0     H26733   5.649   3.418   7.655  1.4288 -0.6532 -1.0566
  939MOL0     H26734   5.599   3.253   7.709 -3.1877  0.5799  1.1572
  939MOL0     H26735   5.606   3.520   7.863  3.5828 -1.4122  2.6189
  939MOL0     H26736   5.567   3.360   7.938  0.3935  0.0283 -0.3783
  939MOL0     H26737   5.411   3.463   7.702  1.4863 -3.3388 -0.7366
  939MOL0     H26738   5.390   3.310   7.776 -3.0429 -0.1340  0.4489
  939MOL0     H26739   5.343   3.592   7.907  0.8688 -0.8140  0.6874
  939MOL0     H26740   5.326   3.438   7.999 -2.3976 -1.6518 -0.4731
  939MOL0     H26741   5.117   3.527   7.919  0.7422 -0.7275 -0.5637
  939MOL0     H26742   5.174   3.502   7.751 -0.0506 -0.5655 -1.2129
  939MOL0     H26743   5.168   3.285   7.976  0.4079  1.1926 -0.6130
  939MOL0     H26744   5.203   3.262   7.799  0.5297  0.7607  0.3920
  939MOL0     H26745   4.955   3.353   7.950 -2.2417 -3.4646  0.4018
  939MOL0     H26746   4.957   3.201   7.863 -2.4234  0.4438 -1.3432
  939MOL0     H26747   6.052   3.331   7.683  1.3731 -1.8942  0.7235
  939MOL0     H26748   6.279   3.293   7.766  0.4696 -2.6218  1.2199
  939MOL0     H26749   6.542   3.190   8.073  0.9544 -0.2865  0.1253
  939MOL0     H26750   6.769   3.107   8.126  1.5013  0.9480  0.5372
  939MOL0     H26751   8.532   3.893   8.639 -0.4535 -0.1001  1.8816
  939MOL0     H26752   8.763   3.975   8.707  0.2124 -0.4549  1.5979
  939MOL0     H26753   8.950   4.404   8.892  0.1536  2.2135  1.5625
  939MOL0     H26754   9.167   4.526   8.895 -1.3249  0.3535  0.2811
  939MOL0     H26755   9.371   4.620   8.907 -3.9802 -0.8791  1.4658
  939MOL0     H26756   9.348   4.566   9.071 -1.8579 -0.8763 -1.3896
  939MOL0     H26757   9.548   4.719   9.047 -0.0080 -0.2003 -2.2371
  939MOL0     H26758   9.612   4.608   8.928 -1.5777  1.1804 -1.3592
  939MOL0     H26759   9.635   4.432   9.097 -2.3716 -0.1276  0.1607
  939MOL0     H26760   9.562   4.524   9.233 -0.1245  0.3167  0.9476
  939MOL0     H26761   9.798   4.553   9.276  0.7618  0.0020  0.0846
  939MOL0     H26762   9.740   4.704   9.220  0.4231  0.0262  1.7432
  939MOL0     H26763  10.007   4.582   8.907  1.2739 -0.7482  1.9051
  939MOL0     H26764   9.383   4.157   8.899  0.8998  2.8844 -2.8516
  939MOL0     H26765   9.190   4.037   8.869  2.4969 -0.1535  2.8569
  940MOL0     O26766   2.589   0.815   9.246 -0.4342 -0.4236 -0.0144
  940MOL0     C26767   2.614   0.697   9.248  0.3509  1.3686 -0.2766
  940MOL0     O26768   2.530   0.599   9.193 -0.4370 -0.5767  0.2532
  940MOL0     C26769   2.421   0.622   9.117 -0.7717 -0.6928  0.6778
  940MOL0     C26770   2.405   0.737   9.034  0.2896  0.2478 -0.8942
  940MOL0     C26771   2.279   0.755   8.960 -1.7068  0.1172  0.7032
  940MOL0     C26772   2.178   0.661   8.954  0.2218  0.1768  0.1893
  940MOL0     O26773   2.068   0.667   8.881 -0.0047 -0.4260  0.2436
  940MOL0     C26774   2.071   0.594   8.764  0.1696 -0.0794 -0.5071
  940MOL0     C26775   2.143   0.675   8.647  0.3142  0.3303  0.3425
  940MOL0     C26776   2.076   0.806   8.614  0.4490 -0.1503 -0.6168
  940MOL0     C26777   2.000   0.798   8.480 -0.3314  0.3121 -0.5166
  940MOL0     C26778   1.866   0.720   8.469 -0.4032 -0.1407 -0.4333
  940MOL0     C26779   1.764   0.790   8.549 -0.8100 -0.4073  0.3170
  940MOL0     C26780   1.655   0.694   8.583 -0.7758 -0.6048 -0.5061
  940MOL0     C26781   1.534   0.766   8.638  0.0619 -0.4105 -0.2765
  940MOL0     N26782   1.455   0.814   8.520 -0.5269  0.1704  0.0666
  940MOL0     C26783   1.381   0.730   8.445 -0.4245 -0.4322 -0.2055
  940MOL0     C26784   1.275   0.811   8.413  0.0705 -0.4598  0.3000
  940MOL0     C26785   1.135   0.774   8.348 -0.5900  0.2703  0.4290
  940MOL0     C26786   1.079   0.645   8.425  1.0234 -0.0879 -0.8200
  940MOL0     C26787   0.989   0.566   8.326  0.1237 -0.6751 -0.2233
  940MOL0     C26788   0.853   0.626   8.309 -0.5629 -0.0259 -0.7112
  940MOL0     O26789   0.852   0.754   8.243 -0.3506  0.4016  0.0497
  940MOL0     C26790   0.735   0.828   8.232 -0.2863 -0.2689 -0.1472
  940MOL0     C26791   0.749   0.962   8.186 -0.1401 -0.7903 -0.8146
  940MOL0     C26792   0.640   1.046   8.176 -0.0826 -0.1243  0.5571
  940MOL0     C26793   0.672   1.184   8.132 -0.0851 -0.3400  0.4202
  940MOL0     C26794   0.512   0.994   8.201 -0.1793 -0.7817  0.2535
  940MOL0     C26795   0.382   1.063   8.186 -0.2644 -0.4527 -0.9953
  940MOL0     O26796   0.370   1.172   8.114 -0.2051 -0.9160  0.2147
  940MOL0     C26797   0.241   1.208   8.094  1.4300  0.3464  0.3908
  940MOL0     C26798   0.164   1.152   7.988  0.4937 -0.3181 -0.3177
  940MOL0     C26799   0.030   1.182   7.980  0.0054  0.3219  0.5903
  940MOL0     C26800  -0.029   1.280   8.063  0.1600 -0.3067  0.7508
  940MOL0     O26801  -0.152   1.321   8.045  0.4742 -0.0316 -0.1001
  940MOL0     C26802  -0.256   1.234   8.010  0.5656  0.0375 -0.0129
  940MOL0     C26803  -0.399   1.292   8.037 -0.8323  0.4173 -0.4603
  940MOL0     C26804  -0.437   1.426   7.973  0.9133 -0.2413  0.4211
  940MOL0     C26805  -0.471   1.415   7.817  0.4451  0.7916  0.9784
  940MOL0     C26806  -0.528   1.543   7.750 -1.1069  0.1523 -0.5746
  940MOL0     C26807  -0.674   1.570   7.800 -0.4387  0.1174 -0.4301
  940MOL0     C26808  -0.748   1.703   7.747  0.5604 -0.1603  0.7503
  940MOL0     C26809  -0.781   1.703   7.596  0.1970 -0.0176 -0.8389
  940MOL0    Cl26810  -0.931   1.604   7.571  0.0186  0.2817  0.2090
  940MOL0     C26811   0.052   1.344   8.158  0.6743 -0.1942  0.6279
  940MOL0     C26812   0.189   1.307   8.171  0.7607  0.1640 -0.9309
  940MOL0     O26813   0.289   1.011   8.257  1.1634  0.4597 -0.6931
  940MOL0     C26814   0.500   0.860   8.242  0.3406  0.9812 -0.1665
  940MOL0     C26815   0.612   0.781   8.267 -0.1909  0.2649  0.4285
  940MOL0     N26816   1.286   0.939   8.464 -1.0196 -0.1259  0.2467
  940MOL0     N26817   1.401   0.935   8.527 -0.3609 -0.2098 -0.1158
  940MOL0     C26818   2.213   0.539   9.020  0.1739  0.3131  1.3399
  940MOL0     C26819   2.321   0.522   9.105 -0.1996  0.1134  0.3413
  940MOL0     C26820   2.738   0.653   9.322  0.3014  0.1732  0.1477
  940MOL0     C26821   2.844   0.747   9.341  0.8146 -1.6950 -0.1498
  940MOL0     C26822   2.966   0.715   9.394  0.0561 -0.0800  0.5700
  940MOL0     C26823   2.992   0.581   9.428  0.4000 -0.9758  0.0739
  940MOL0     O26824   3.118   0.552   9.484 -0.5323 -0.1967  0.5791
  940MOL0     C26825   3.122   0.434   9.577  0.1184 -0.3714  0.8320
  940MOL0     C26826   3.253   0.429   9.647  0.0579  0.6018  0.5492
  940MOL0     C26827   3.252   0.517   9.762  0.3830  0.0629  0.5626
  940MOL0     C26828   3.391   0.508   9.821 -0.1714 -0.2884  0.1820
  940MOL0     C26829   3.426   0.384   9.883 -0.2752  0.3955  0.5800
  940MOL0     C26830   3.446   0.273   9.925 -0.7890 -0.0824 -1.7128
  940MOL0     C26831   2.894   0.480   9.406  0.2638  0.4126  0.8988
  940MOL0     C26832   2.766   0.516   9.349  0.4219 -0.4870  1.2660
  940MOL0     H26833   2.479   0.817   9.033  0.8547 -0.0637  2.7799
  940MOL0     H26834   2.272   0.841   8.894  0.3136 -0.0901  0.1405
  940MOL0     H26835   2.124   0.498   8.773 -2.5351 -1.6756 -0.3815
  940MOL0     H26836   1.968   0.587   8.728  0.7592  1.4440 -2.6847
  940MOL0     H26837   2.249   0.694   8.667 -0.1634  0.7649  2.8924
  940MOL0     H26838   2.142   0.610   8.559 -2.0277 -1.6621  1.6970
  940MOL0     H26839   2.002   0.827   8.691  2.2621 -0.1096  1.2092
  940MOL0     H26840   2.151   0.886   8.616  0.3106 -0.0250  0.7870
  940MOL0     H26841   1.981   0.901   8.450  0.5587 -0.1249 -2.8154
  940MOL0     H26842   2.062   0.749   8.404 -0.5202  1.1695 -1.2436
  940MOL0     H26843   1.837   0.719   8.363 -2.7164  3.4744 -0.0117
  940MOL0     H26844   1.870   0.615   8.496  1.1926  0.0895  0.3353
  940MOL0     H26845   1.806   0.835   8.639  1.9314 -0.7151 -0.6951
  940MOL0     H26846   1.726   0.870   8.486  0.0104 -0.2971 -0.0571
  940MOL0     H26847   1.626   0.638   8.493  2.7342 -0.9798 -1.5576
  940MOL0     H26848   1.686   0.622   8.659 -0.7771 -1.1583 -1.0160
  940MOL0     H26849   1.561   0.851   8.702 -5.6542  0.6690  1.3639
  940MOL0     H26850   1.465   0.710   8.702 -3.9073  1.2663 -2.6632
  940MOL0     H26851   1.387   0.625   8.418 -0.2118  0.0468 -2.1606
  940MOL0     H26852   1.071   0.863   8.356 -0.6360  0.1796  1.1711
  940MOL0     H26853   1.156   0.753   8.243  0.2333  1.9802  0.2239
  940MOL0     H26854   1.012   0.678   8.504 -1.8195  0.1090 -3.1351
  940MOL0     H26855   1.155   0.572   8.455 -0.4513 -1.3480 -0.0071
  940MOL0     H26856   0.992   0.462   8.359  2.4813 -0.7215 -0.4242
  940MOL0     H26857   1.030   0.576   8.226  0.1418  0.6498 -0.1008
  940MOL0     H26858   0.815   0.637   8.411 -1.6177  0.1198 -1.0961
  940MOL0     H26859   0.793   0.555   8.252 -4.1782 -1.1715  3.8758
  940MOL0     H26860   0.849   0.992   8.155 -0.1427  1.1283  0.8765
  940MOL0     H26861   0.701   1.184   8.027  1.7180  2.1320  0.8161
  940MOL0     H26862   0.594   1.260   8.142  1.5736  1.5408 -0.3951
  940MOL0     H26863   0.754   1.228   8.189  0.0458  2.4220 -1.6905
  940MOL0     H26864   0.218   1.082   7.925  2.7561  0.9164  0.1510
  940MOL0     H26865  -0.025   1.132   7.901  0.5068  1.7253 -0.7038
  940MOL0     H26866  -0.254   1.202   7.905  1.8141 -2.5131  0.7142
  940MOL0     H26867  -0.248   1.142   8.068  0.1884  1.7381  2.9603
  940MOL0     H26868  -0.476   1.219   8.011 -2.2139  1.8967 -0.6502
  940MOL0     H26869  -0.409   1.312   8.144 -3.2610 -2.0480 -0.0950
  940MOL0     H26870  -0.363   1.506   7.980  0.7657 -0.0260 -0.3899
  940MOL0     H26871  -0.529   1.455   8.025 -0.1535 -0.5565 -1.2357
  940MOL0     H26872  -0.384   1.382   7.760  0.2695 -0.4268  1.3945
  940MOL0     H26873  -0.548   1.339   7.804  1.2067  0.3444 -1.5061
  940MOL0     H26874  -0.530   1.516   7.644 -1.4788 -1.4343 -0.1911
  940MOL0     H26875  -0.473   1.631   7.783 -2.2681 -0.3436  3.1554
  940MOL0     H26876  -0.737   1.485   7.774 -1.1866  0.1607  1.1560
  940MOL0     H26877  -0.678   1.574   7.909  0.1251 -0.9031 -0.3594
  940MOL0     H26878  -0.680   1.789   7.751 -0.1267  0.7577 -3.0007
  940MOL0     H26879  -0.842   1.724   7.798 -0.4232  0.1164 -1.0697
  940MOL0     H26880  -0.693   1.666   7.543  3.1016  2.7396  1.6065
  940MOL0     H26881  -0.789   1.805   7.558  0.5451  1.3404  2.4228
  940MOL0     H26882   0.010   1.420   8.222  1.2502  0.7414 -0.0672
  940MOL0     H26883   0.254   1.359   8.241  0.5017 -1.1193  0.3208
  940MOL0     H26884   0.408   0.803   8.255  2.0123 -1.9926 -0.4689
  940MOL0     H26885   0.612   0.678   8.301  1.4384  0.6882  1.8798
  940MOL0     H26886   2.151   0.452   9.001  0.9119  0.1667 -0.6242
  940MOL0     H26887   2.336   0.426   9.153 -3.3281  0.9336  3.4692
  940MOL0     H26888   2.833   0.852   9.319  1.2554 -1.3929  1.0216
  940MOL0     H26889   3.035   0.797   9.412 -1.0223  1.4284 -1.6193
  940MOL0     H26890   3.038   0.436   9.647  0.5088 -0.3962  1.3098
  940MOL0     H26891   3.114   0.338   9.527  4.3459 -0.4305 -0.1241
  940MOL0     H26892   3.323   0.473   9.576 -2.8921  3.2156 -0.9910
  940MOL0     H26893   3.279   0.325   9.672  0.2167  1.1072  2.7276
  940MOL0     H26894   3.176   0.483   9.833 -0.8811  2.4722  0.4681
  940MOL0     H26895   3.222   0.618   9.732 -1.4453 -0.3024  1.0278
  940MOL0     H26896   3.390   0.579   9.904 -2.8076  0.6503 -0.5259
  940MOL0     H26897   3.468   0.534   9.748 -0.9918 -0.7349 -0.8757
  940MOL0     H26898   3.478   0.180   9.967 -1.2767  0.3321 -0.3901
  940MOL0     H26899   2.917   0.375   9.420  0.0249  0.0757 -0.9956
  940MOL0     H26900   2.676   0.456   9.341 -0.3103  0.8106 -3.9296
  941MOL0     O26901   4.073   3.456   3.969  0.5731 -0.9088 -0.4865
  941MOL0     C26902   4.107   3.573   4.005  0.1604  0.3823  0.4821
  941MOL0     O26903   4.035   3.686   3.997 -0.0073  0.0782 -0.5262
  941MOL0     C26904   3.912   3.681   3.925 -0.3006 -0.5551 -0.2094
  941MOL0     C26905   3.821   3.784   3.959  1.1067  0.4167  0.3471
  941MOL0     C26906   3.707   3.800   3.882 -0.1653  0.2103 -0.6804
  941MOL0     C26907   3.673   3.720   3.777 -0.3419 -0.8976 -0.5671
  941MOL0     O26908   3.557   3.739   3.711  1.3106  0.6574  1.2811
  941MOL0     C26909   3.515   3.638   3.613 -0.0750 -0.0875 -0.0459
  941MOL0     C26910   3.369   3.672   3.560  0.2495  0.5864 -0.6079
  941MOL0     C26911   3.254   3.660   3.670  0.8231 -0.0907  0.9952
  941MOL0     C26912   3.119   3.695   3.605 -0.4439 -0.0484  0.1070
  941MOL0     C26913   2.992   3.671   3.684  0.0049  0.1695 -0.2550
  941MOL0     C26914   2.979   3.758   3.808  0.0081 -0.2834  0.9299
  941MOL0     C26915   2.839   3.741   3.879  0.4960 -0.0118  0.1998
  941MOL0     C26916   2.717   3.803   3.804  0.6402 -0.1764 -0.0630
  941MOL0     N26917   2.702   3.943   3.857 -0.3432 -0.1586  0.3496
  941MOL0     C26918   2.704   4.055   3.780 -0.4094 -0.0662 -0.9485
  941MOL0     C26919   2.658   4.155   3.857 -0.0615 -0.4641 -0.4126
  941MOL0     C26920   2.649   4.297   3.815  0.7585 -0.2909  0.1995
  941MOL0     C26921   2.506   4.362   3.847 -0.1817 -0.8018 -0.3858
  941MOL0     C26922   2.473   4.504   3.796  0.5301  0.1892 -0.0619
  941MOL0     C26923   2.330   4.554   3.826  0.1258 -0.6534  0.1665
  941MOL0     O26924   2.235   4.472   3.751  0.4449 -0.5017 -0.1186
  941MOL0     C26925   2.101   4.499   3.784 -0.8093  0.2175  0.8618
  941MOL0     C26926   2.014   4.418   3.726  0.7161 -0.7253  0.4325
  941MOL0     C26927   1.879   4.425   3.748 -0.4172 -0.2726  0.4546
  941MOL0     C26928   1.796   4.320   3.665  0.3707  0.9306  0.1120
  941MOL0     C26929   1.828   4.509   3.853 -0.0203  0.9182 -0.1317
  941MOL0     C26930   1.690   4.498   3.904  0.2819 -0.1483 -0.0180
  941MOL0     O26931   1.611   4.407   3.858  0.1509  0.2970  0.0167
  941MOL0     C26932   1.474   4.422   3.870 -0.8795  0.3547  0.1055
  941MOL0     C26933   1.408   4.486   3.772  0.7147 -0.5638  0.7745
  941MOL0     C26934   1.274   4.504   3.769 -0.0970 -0.0251 -0.5029
  941MOL0     C26935   1.190   4.445   3.864 -0.5608  0.0218 -0.8004
  941MOL0     O26936   1.055   4.447   3.871  0.4137  0.1964 -0.2420
  941MOL0     C26937   0.991   4.503   3.760  0.3615 -0.0680 -0.6644
  941MOL0     C26938   0.842   4.472   3.772  0.3471 -0.3831  0.6273
  941MOL0     C26939   0.758   4.573   3.695 -0.5851  0.2006 -0.2329
  941MOL0     C26940   0.613   4.536   3.731  0.5373  0.2988  0.8164
  941MOL0     C26941   0.523   4.652   3.670 -0.2236 -0.4256  0.3081
  941MOL0     C26942   0.376   4.619   3.704  0.1671 -0.4846  0.2242
  941MOL0     C26943   0.292   4.725   3.654  0.5954 -0.2975  0.3727
  941MOL0     C26944   0.159   4.701   3.719  0.7515  0.5333 -0.7263
  941MOL0    Cl26945   0.015   4.811   3.671  0.2136  0.0066  0.1463
  941MOL0     C26946   1.264   4.381   3.976  0.5249 -0.2009  0.0888
  941MOL0     C26947   1.400   4.379   3.980  0.3638  0.0944  0.0500
  941MOL0     O26948   1.662   4.582   3.986  0.1187 -0.4525 -0.3684
  941MOL0     C26949   1.914   4.597   3.918 -0.2553  0.0040 -0.2508
  941MOL0     C26950   2.046   4.598   3.873  0.7713  0.7301  0.4786
  941MOL0     N26951   2.636   4.098   3.979  0.4908 -0.2847  0.6949
  941MOL0     N26952   2.656   3.970   3.977 -0.4936  0.0770  0.1385
  941MOL0     C26953   3.771   3.629   3.739 -0.1316  0.4273 -0.0995
  941MOL0     C26954   3.891   3.602   3.810  0.3391  0.6558  0.0694
  941MOL0     C26955   4.226   3.580   4.095 -0.3442 -0.0954 -0.0268
  941MOL0     C26956   4.237   3.689   4.185 -0.0116  0.1370  0.0277
  941MOL0     C26957   4.357   3.699   4.258 -0.7535  0.2263 -0.2929
  941MOL0     C26958   4.467   3.610   4.251 -0.6524 -0.5959  0.1822
  941MOL0     O26959   4.566   3.620   4.345 -0.0478 -0.5192  0.2294
  941MOL0     C26960   4.683   3.545   4.328  0.0104 -0.0689  0.2734
  941MOL0     C26961   4.651   3.411   4.387  0.3751  0.4390  0.2896
  941MOL0     C26962   4.655   3.399   4.536 -0.5432 -0.4708  0.0119
  941MOL0     C26963   4.515   3.420   4.609 -0.0834 -0.4679  0.4937
  941MOL0     C26964   4.547   3.433   4.746 -0.0756 -0.6098  0.1930
  941MOL0     C26965   4.575   3.438   4.856 -0.5841 -0.1758 -0.1356
  941MOL0     C26966   4.448   3.507   4.153  0.2637  0.0852 -0.2525
  941MOL0     C26967   4.331   3.496   4.072 -0.0329  0.8624  0.2471
  941MOL0     H26968   3.835   3.851   4.043 -1.2496  0.0118  1.1327
  941MOL0     H26969   3.647   3.885   3.913 -0.0601  0.1233 -0.2292
  941MOL0     H26970   3.589   3.642   3.533  0.2319 -0.5679  0.2092
  941MOL0     H26971   3.526   3.536   3.650  2.1487  0.6761  1.6147
  941MOL0     H26972   3.372   3.773   3.518  1.0826 -0.1987 -2.5695
  941MOL0     H26973   3.348   3.615   3.468  5.9096 -0.3399 -1.7143
  941MOL0     H26974   3.250   3.556   3.704 -1.3619 -0.2815  0.3072
  941MOL0     H26975   3.276   3.718   3.760  1.3991 -1.0409  1.4858
  941MOL0     H26976   3.134   3.799   3.574 -4.0143  0.0488 -1.9035
  941MOL0     H26977   3.097   3.651   3.507  0.5138  1.0848 -0.6367
  941MOL0     H26978   2.908   3.673   3.615  0.7101 -1.7629 -1.2564
  941MOL0     H26979   2.993   3.574   3.734 -0.0322 -0.1289 -0.8297
  941MOL0     H26980   3.055   3.736   3.884 -2.4275 -1.3465  3.1942
  941MOL0     H26981   2.994   3.863   3.780 -0.7946 -0.5890 -0.7761
  941MOL0     H26982   2.808   3.636   3.886 -0.3758  0.3641  3.0065
  941MOL0     H26983   2.835   3.783   3.980 -0.4438  2.8221 -0.9085
  941MOL0     H26984   2.635   3.740   3.838 -0.2196  0.4413 -0.9351
  941MOL0     H26985   2.733   3.797   3.696 -0.9289  0.2777 -0.3433
  941MOL0     H26986   2.735   4.065   3.677 -1.2948 -0.3104 -1.2462
  941MOL0     H26987   2.729   4.348   3.869  0.2794  0.6987  0.0050
  941MOL0     H26988   2.667   4.308   3.708 -1.1710  1.5519 -0.0000
  941MOL0     H26989   2.487   4.362   3.955 -0.4483  1.9557 -0.3518
  941MOL0     H26990   2.434   4.292   3.804 -1.0300 -1.7642  2.3663
  941MOL0     H26991   2.487   4.515   3.688  1.6161 -0.5473 -0.0113
  941MOL0     H26992   2.542   4.574   3.843  0.6381  0.7417 -1.0387
  941MOL0     H26993   2.314   4.659   3.803 -0.3418 -0.4035  1.5657
  941MOL0     H26994   2.309   4.534   3.932 -2.2584 -0.4823 -0.2059
  941MOL0     H26995   2.055   4.341   3.661 -0.2525  0.4668 -1.6833
  941MOL0     H26996   1.690   4.340   3.649  0.2585  1.7896  1.7781
  941MOL0     H26997   1.828   4.319   3.560  1.5332 -2.3201  0.3681
  941MOL0     H26998   1.816   4.215   3.692 -0.5533  0.5052 -0.7753
  941MOL0     H26999   1.454   4.540   3.690 -2.1632  3.2304  1.3485
  941MOL0     H27000   1.229   4.573   3.698  2.3701  0.7280 -1.4383
  941MOL0     H27001   1.014   4.610   3.762  2.0916 -0.2992 -2.9761
  941MOL0     H27002   1.029   4.459   3.667  1.9808 -1.3800  0.5530
  941MOL0     H27003   0.820   4.368   3.746 -2.1361  0.2619 -0.1559
  941MOL0     H27004   0.808   4.492   3.874 -0.6075  1.6065 -0.0265
  941MOL0     H27005   0.782   4.564   3.588  0.1660 -0.9466  0.0156
  941MOL0     H27006   0.776   4.676   3.726 -0.1868 -0.5012  2.0674
  941MOL0     H27007   0.584   4.450   3.670  0.0920  0.9797  0.0547
  941MOL0     H27008   0.589   4.516   3.836  0.0933  0.2654  0.7116
  941MOL0     H27009   0.525   4.649   3.560  0.4714  0.1428  0.2981
  941MOL0     H27010   0.544   4.753   3.704 -1.6901 -0.1982  0.5936
  941MOL0     H27011   0.339   4.523   3.669 -0.1883  0.3253 -1.7736
  941MOL0     H27012   0.364   4.606   3.812  0.8411 -1.2816  0.2104
  941MOL0     H27013   0.274   4.720   3.546 -1.3950  4.7782  0.2266
  941MOL0     H27014   0.341   4.820   3.672 -1.3077  1.3284 -2.2663
  941MOL0     H27015   0.171   4.722   3.825  0.6267  0.3349 -0.6716
  941MOL0     H27016   0.137   4.594   3.709  1.4318  0.2598  0.5714
  941MOL0     H27017   1.217   4.323   4.055  1.3211 -1.9331 -0.6609
  941MOL0     H27018   1.461   4.335   4.058  2.1569 -0.3529 -1.5239
  941MOL0     H27019   1.885   4.667   3.996 -1.4682  0.1855 -0.8429
  941MOL0     H27020   2.109   4.675   3.915  1.4824 -0.1310  1.0229
  941MOL0     H27021   3.774   3.583   3.641 -1.1705  1.2696 -0.5476
  941MOL0     H27022   3.974   3.540   3.778  0.2873  0.5716  0.0975
  941MOL0     H27023   4.151   3.752   4.209  0.4972  1.0336 -0.4574
  941MOL0     H27024   4.355   3.772   4.338 -0.2813 -1.3115  1.2017
  941MOL0     H27025   4.714   3.542   4.223 -3.4033 -1.0046 -0.8260
  941MOL0     H27026   4.757   3.592   4.394 -0.2099 -2.2653  2.2429
  941MOL0     H27027   4.711   3.331   4.342 -2.9005 -1.8064 -0.4749
  941MOL0     H27028   4.557   3.370   4.349  0.2767  1.2685 -0.3954
  941MOL0     H27029   4.733   3.469   4.567 -1.5834  0.8121 -0.1862
  941MOL0     H27030   4.690   3.297   4.555 -1.7616 -0.7493  0.8798
  941MOL0     H27031   4.434   3.350   4.591 -2.4630  2.5026 -1.4036
  941MOL0     H27032   4.461   3.510   4.579  1.7877  0.4787 -0.1901
  941MOL0     H27033   4.605   3.415   4.956 -2.1180  0.9472  0.6284
  941MOL0     H27034   4.529   3.436   4.136 -2.3909 -2.9834 -0.9554
  941MOL0     H27035   4.327   3.430   3.986  0.6716 -0.0033  0.8659
  942MOL0     O27036   5.702   6.424   6.513  0.9107 -0.1394 -0.7473
  942MOL0     C27037   5.649   6.436   6.402  0.0753  0.3631  0.5451
  942MOL0     O27038   5.518   6.441   6.383 -0.7371 -0.3841 -0.8835
  942MOL0     C27039   5.416   6.443   6.470  0.9599 -0.4584 -0.4205
  942MOL0     C27040   5.422   6.393   6.598 -0.3237 -0.9538  0.3488
  942MOL0     C27041   5.306   6.400   6.677 -0.1656 -0.6293 -0.2888
  942MOL0     C27042   5.186   6.458   6.621 -0.1553 -0.5548 -0.0930
  942MOL0     O27043   5.082   6.469   6.704 -0.0048  0.0968 -0.1650
  942MOL0     C27044   4.968   6.539   6.662  0.4939 -0.0420  0.2552
  942MOL0     C27045   4.852   6.536   6.757  0.3491 -0.3750 -0.8434
  942MOL0     C27046   4.890   6.563   6.913  0.0289 -0.0224 -0.2191
  942MOL0     C27047   4.766   6.532   7.005  0.4049 -0.6552  0.4729
  942MOL0     C27048   4.653   6.637   7.000  0.3837  0.1866  0.8408
  942MOL0     C27049   4.542   6.613   7.099 -0.5454 -0.7773 -1.3183
  942MOL0     C27050   4.460   6.742   7.106 -0.3645 -0.2030  0.2940
  942MOL0     C27051   4.306   6.714   7.133 -0.4614  0.1716 -0.3758
  942MOL0     N27052   4.297   6.661   7.268 -0.7166 -0.6723 -0.2047
  942MOL0     C27053   4.308   6.725   7.387  0.5283  0.2992 -0.5758
  942MOL0     C27054   4.286   6.625   7.476 -0.5099  0.0270  0.7808
  942MOL0     C27055   4.280   6.634   7.630 -0.3590 -0.6450  0.2533
  942MOL0     C27056   4.144   6.712   7.668 -0.3325  1.0700 -0.7452
  942MOL0     C27057   4.017   6.630   7.644 -0.1247  0.3733  0.8749
  942MOL0     C27058   3.899   6.727   7.624 -0.6273  0.6589  0.0955
  942MOL0     O27059   3.783   6.651   7.590 -0.0136 -0.5583  0.7210
  942MOL0     C27060   3.660   6.707   7.614  0.2560  0.0528 -0.0629
  942MOL0     C27061   3.638   6.843   7.624  0.5867 -0.2517  0.1093
  942MOL0     C27062   3.504   6.900   7.626 -0.2948 -0.1154  0.3899
  942MOL0     C27063   3.484   7.049   7.626 -0.4202 -0.5269 -0.5049
  942MOL0     C27064   3.389   6.809   7.617 -0.7204  0.3971  0.7719
  942MOL0     C27065   3.249   6.855   7.623  0.1824  0.2067  0.3340
  942MOL0     O27066   3.222   6.984   7.607 -0.1715 -0.1798  0.2082
  942MOL0     C27067   3.095   7.034   7.636  0.1841  0.6062  0.3260
  942MOL0     C27068   2.997   7.004   7.549 -0.5776 -0.1332  0.2180
  942MOL0     C27069   2.869   7.031   7.570  0.0714 -1.3152 -0.3158
  942MOL0     C27070   2.835   7.117   7.676 -0.3363  0.5165  1.0698
  942MOL0     O27071   2.711   7.159   7.669  0.2810 -0.3660 -0.6270
  942MOL0     C27072   2.645   7.239   7.770  0.2678 -0.3626 -0.3618
  942MOL0     C27073   2.494   7.217   7.760  0.1653  0.2876 -0.1023
  942MOL0     C27074   2.457   7.081   7.800  0.8057  0.1903 -0.4057
  942MOL0     C27075   2.387   7.086   7.947 -0.4254 -0.4256 -0.1247
  942MOL0     C27076   2.376   6.940   7.993  0.1551 -0.6758  0.2913
  942MOL0     C27077   2.263   6.913   8.097 -0.9128 -0.2625  0.8695
  942MOL0     C27078   2.261   6.760   8.120  0.2777 -0.1277 -0.2267
  942MOL0     C27079   2.158   6.720   8.232 -0.3944 -0.6218  0.3609
  942MOL0    Cl27080   1.977   6.763   8.203 -0.0651 -0.1582  0.1235
  942MOL0     C27081   2.929   7.151   7.778 -0.4856  0.3128  0.3166
  942MOL0     C27082   3.061   7.102   7.759 -0.1145 -0.2552  0.1029
  942MOL0     O27083   3.166   6.765   7.639 -0.1107  0.2481 -0.2122
  942MOL0     C27084   3.418   6.669   7.599  1.0983 -0.2144  0.2547
  942MOL0     C27085   3.548   6.620   7.606 -0.6224  0.5714  0.0731
  942MOL0     N27086   4.264   6.511   7.405  0.8593  0.2065  0.5951
  942MOL0     N27087   4.274   6.530   7.273 -0.3591  0.4959 -0.1460
  942MOL0     C27088   5.180   6.503   6.489 -0.8038 -0.4611 -0.6774
  942MOL0     C27089   5.294   6.489   6.413  0.8961  0.1519 -0.5246
  942MOL0     C27090   5.744   6.419   6.291 -0.4056 -0.9273 -0.0168
  942MOL0     C27091   5.706   6.471   6.166  0.0651  0.1728  0.3971
  942MOL0     C27092   5.780   6.467   6.055 -0.4106  0.0937 -0.1088
  942MOL0     C27093   5.909   6.408   6.071 -0.0340 -1.3721 -0.1049
  942MOL0     O27094   6.000   6.378   5.970 -0.6993 -0.0565 -0.8404
  942MOL0     C27095   5.963   6.402   5.833  0.3313  0.6755 -0.4579
  942MOL0     C27096   5.999   6.537   5.774 -0.0019 -0.2016  0.2188
  942MOL0     C27097   5.962   6.540   5.628 -0.1766 -0.5249 -0.1093
  942MOL0     C27098   5.997   6.676   5.564 -0.0631 -1.2812 -0.5149
  942MOL0     C27099   5.893   6.773   5.617 -0.5710 -0.3198 -0.2063
  942MOL0     C27100   5.810   6.853   5.666  0.1600  0.7987  0.3373
  942MOL0     C27101   5.954   6.357   6.194  0.2386  0.2014  0.4515
  942MOL0     C27102   5.873   6.359   6.304 -0.0071  0.6244 -0.3719
  942MOL0     H27103   5.510   6.335   6.625 -0.6252 -1.4616  0.2600
  942MOL0     H27104   5.316   6.359   6.777  3.1181  0.0534 -0.2215
  942MOL0     H27105   5.011   6.639   6.646  1.5006 -0.5407 -0.2443
  942MOL0     H27106   4.931   6.506   6.565  0.7891  1.0832 -0.2634
  942MOL0     H27107   4.782   6.614   6.725  1.1763  1.2449  1.0693
  942MOL0     H27108   4.797   6.443   6.741  1.9960 -1.4463 -0.4935
  942MOL0     H27109   4.972   6.494   6.937  2.4678  1.8619 -2.5271
  942MOL0     H27110   4.926   6.666   6.929  3.0827 -0.6331 -2.2497
  942MOL0     H27111   4.724   6.438   6.968  0.1424  0.1863 -1.4870
  942MOL0     H27112   4.785   6.524   7.112 -3.0423  0.6775  1.3057
  942MOL0     H27113   4.700   6.731   7.029  2.4273 -1.1660  2.1842
  942MOL0     H27114   4.625   6.649   6.895  3.2668 -1.0365 -0.1811
  942MOL0     H27115   4.471   6.538   7.062 -2.3245  0.9241 -1.5082
  942MOL0     H27116   4.576   6.588   7.200  0.6122  2.6585 -0.7217
  942MOL0     H27117   4.499   6.808   7.184 -0.6170 -1.7586  1.7903
  942MOL0     H27118   4.471   6.804   7.016  1.2745  0.9829  1.2451
  942MOL0     H27119   4.267   6.645   7.058  0.6562 -0.5270 -0.3311
  942MOL0     H27120   4.234   6.797   7.134  1.2601  1.7575 -1.6787
  942MOL0     H27121   4.325   6.828   7.418 -1.0312 -0.3488  2.9332
  942MOL0     H27122   4.280   6.533   7.671  1.8836  0.1766  2.5379
  942MOL0     H27123   4.367   6.691   7.663  1.1285 -1.5208 -1.9583
  942MOL0     H27124   4.135   6.805   7.612 -0.8373  0.3889 -1.8303
  942MOL0     H27125   4.153   6.742   7.773  0.4900  0.5475 -0.6521
  942MOL0     H27126   3.989   6.561   7.724  0.6664 -0.0308  0.8238
  942MOL0     H27127   4.038   6.585   7.546  2.3562 -1.8391  2.2707
  942MOL0     H27128   3.906   6.801   7.544 -2.6651  1.6078  0.7373
  942MOL0     H27129   3.888   6.789   7.714 -0.0701  1.6241 -0.4842
  942MOL0     H27130   3.722   6.911   7.627 -0.9157  1.7080  0.0712
  942MOL0     H27131   3.579   7.101   7.646 -0.2612  0.2804 -2.9591
  942MOL0     H27132   3.452   7.076   7.525 -0.8860  2.7764  0.3873
  942MOL0     H27133   3.422   7.077   7.711 -0.0931 -1.9316  0.2230
  942MOL0     H27134   3.012   6.947   7.457 -2.9191 -1.2628  0.4571
  942MOL0     H27135   2.791   6.993   7.504 -1.4724  0.6290  0.2764
  942MOL0     H27136   2.679   7.219   7.872  2.5613  4.3384  0.0646
  942MOL0     H27137   2.666   7.346   7.763 -3.2481  0.3548 -2.0721
  942MOL0     H27138   2.455   7.296   7.824 -0.4336 -1.3818  1.6751
  942MOL0     H27139   2.457   7.229   7.657 -2.0726 -0.1325  0.6136
  942MOL0     H27140   2.545   7.016   7.803  0.0551 -0.8550 -0.6397
  942MOL0     H27141   2.383   7.042   7.730  0.5367 -1.7272  0.8672
  942MOL0     H27142   2.443   7.131   8.029  0.0359  0.0526 -0.6976
  942MOL0     H27143   2.288   7.131   7.944 -0.9663 -1.4505  1.0803
  942MOL0     H27144   2.477   6.913   8.026  1.1011 -0.7237 -2.4157
  942MOL0     H27145   2.348   6.888   7.902 -3.2887  1.3940 -0.0144
  942MOL0     H27146   2.283   6.962   8.193 -3.0304  1.3568  0.5628
  942MOL0     H27147   2.166   6.949   8.060  0.1355  0.5531 -1.2487
  942MOL0     H27148   2.363   6.732   8.147  0.7764  0.1243 -1.7781
  942MOL0     H27149   2.224   6.702   8.035 -0.9711 -2.7100  1.9140
  942MOL0     H27150   2.183   6.757   8.332 -1.6861  2.4676 -0.3367
  942MOL0     H27151   2.160   6.610   8.239  2.3817 -0.6247  0.5562
  942MOL0     H27152   2.894   7.210   7.862 -1.1523  0.6540 -0.1838
  942MOL0     H27153   3.136   7.151   7.821  0.6438  3.1961 -3.1595
  942MOL0     H27154   3.341   6.600   7.566  0.4756  0.0622  1.0946
  942MOL0     H27155   3.557   6.512   7.600 -2.5179  0.3516  0.4664
  942MOL0     H27156   5.099   6.550   6.435  1.6693  2.0456 -2.5240
  942MOL0     H27157   5.287   6.511   6.307  1.1491 -1.3803 -0.8851
  942MOL0     H27158   5.604   6.508   6.158 -1.1236 -2.9064 -0.1532
  942MOL0     H27159   5.744   6.504   5.960  0.2203  3.7311  0.8944
  942MOL0     H27160   6.029   6.337   5.774  4.5075  4.3143 -0.3010
  942MOL0     H27161   5.856   6.389   5.815  0.2341  2.4086 -1.3305
  942MOL0     H27162   6.107   6.548   5.784  0.1506 -1.5841  0.3996
  942MOL0     H27163   5.931   6.605   5.826 -1.9211  0.0423 -2.4231
  942MOL0     H27164   5.858   6.521   5.603  0.1527  0.3583 -2.3399
  942MOL0     H27165   6.025   6.472   5.569 -1.0013  0.0979 -1.7757
  942MOL0     H27166   5.987   6.659   5.457  0.4506 -0.5339 -0.6914
  942MOL0     H27167   6.101   6.702   5.582 -0.0724 -2.9855  2.8406
  942MOL0     H27168   5.737   6.917   5.712 -1.8805 -1.5927  0.6281
  942MOL0     H27169   6.054   6.317   6.200  0.5641  0.4767 -2.0369
  942MOL0     H27170   5.912   6.324   6.399  0.8469  1.4651 -0.4043
  943MOL0     O27171   8.597  10.558   5.304 -0.9055 -0.4599 -0.0392
  943MOL0     C27172   8.646  10.644   5.387 -0.6296 -0.6099 -1.0223
  943MOL0     O27173   8.622  10.658   5.517 -0.4124  0.7853  0.1151
  943MOL0     C27174   8.543  10.572   5.595  0.3017 -0.4473  0.3098
  943MOL0     C27175   8.457  10.464   5.551  0.0440 -0.0672  0.5180
  943MOL0     C27176   8.392  10.380   5.644 -0.2697  0.4404  0.1238
  943MOL0     C27177   8.413  10.395   5.784  0.0636 -0.0714 -0.2138
  943MOL0     O27178   8.348  10.318   5.883  0.2200  0.2783  0.6285
  943MOL0     C27179   8.271  10.199   5.846  0.1514  0.0997 -0.5106
  943MOL0     C27180   8.241  10.111   5.965 -0.5869 -0.3925 -0.3031
  943MOL0     C27181   8.126  10.155   6.052  0.4436  0.1879  0.1357
  943MOL0     C27182   8.089  10.051   6.159 -0.5082  0.4958 -0.0745
  943MOL0     C27183   7.970  10.098   6.238  1.1072  0.5624 -0.8091
  943MOL0     C27184   7.911   9.981   6.313  0.3763 -0.4747  0.1535
  943MOL0     C27185   8.001   9.884   6.402  0.8545  0.0725  0.1514
  943MOL0     C27186   8.027   9.947   6.539  0.4337  0.8369  0.0200
  943MOL0     N27187   7.900   9.928   6.618 -0.0043 -0.2042 -0.2128
  943MOL0     C27188   7.872   9.817   6.698  0.3417 -0.0586 -0.6623
  943MOL0     C27189   7.744   9.846   6.748 -0.1543 -0.7672 -0.0946
  943MOL0     C27190   7.660   9.750   6.823  0.1701  0.1147  0.4925
  943MOL0     C27191   7.510   9.790   6.812 -1.1970  0.6646 -0.3074
  943MOL0     C27192   7.412   9.712   6.898  0.9486  0.0036 -0.1536
  943MOL0     C27193   7.314   9.804   6.973  0.5344 -0.1990 -0.2512
  943MOL0     O27194   7.236   9.889   6.885  0.0945  0.2343  0.5411
  943MOL0     C27195   7.110   9.924   6.929  0.3208  0.0760 -0.7624
  943MOL0     C27196   7.089   9.948   7.076 -0.5757 -0.0797  0.5593
  943MOL0     C27197   6.966   9.994   7.121 -0.3712 -0.1281  0.0570
  943MOL0     C27198   6.953  10.030   7.261 -0.7291  0.2961  0.2451
  943MOL0     C27199   6.855  10.017   7.036  0.1093 -0.2283  0.8032
  943MOL0     C27200   6.722  10.069   7.056  0.3716  0.6234  0.0723
  943MOL0     O27201   6.623  10.022   6.972  0.4499  0.0082 -0.7322
  943MOL0     C27202   6.496  10.030   7.021 -0.1375  0.1524  0.2031
  943MOL0     C27203   6.421  10.147   7.039  0.4252 -0.0163  0.7740
  943MOL0     C27204   6.291  10.149   7.096 -0.3041 -0.3816 -0.0548
  943MOL0     C27205   6.227  10.028   7.123 -0.4229  0.2579 -0.7362
  943MOL0     O27206   6.104  10.001   7.188 -0.6685  0.1471  0.5145
  943MOL0     C27207   5.989  10.072   7.152  0.1014 -0.6200 -0.1132
  943MOL0     C27208   5.864  10.015   7.222  0.3977 -0.6707  0.0503
  943MOL0     C27209   5.831   9.869   7.183 -0.4339 -0.8979 -0.7807
  943MOL0     C27210   5.698   9.827   7.246  0.1623 -0.1530 -0.6290
  943MOL0     C27211   5.581   9.913   7.229  0.7971 -0.9521 -0.5127
  943MOL0     C27212   5.447   9.845   7.281 -0.3956 -0.1189  0.3770
  943MOL0     C27213   5.328   9.932   7.264 -0.3212  0.3348  0.0509
  943MOL0     C27214   5.306   9.976   7.115 -0.5284  0.0885  1.1756
  943MOL0    Cl27215   5.137   9.948   7.073  0.0005  0.4813  0.5691
  943MOL0     C27216   6.304   9.910   7.096 -0.4326  0.6795  0.1140
  943MOL0     C27217   6.440   9.905   7.059 -0.3115 -0.4454  0.2441
  943MOL0     O27218   6.707  10.147   7.152 -0.2366  0.3051 -0.2277
  943MOL0     C27219   6.876   9.972   6.897  0.4934 -0.2779  0.0326
  943MOL0     C27220   6.995   9.925   6.846  0.0160  1.0164 -0.5645
  943MOL0     N27221   7.714   9.977   6.705 -0.2917  0.3455 -0.1396
  943MOL0     N27222   7.797  10.023   6.624 -0.1738  0.6106 -0.9271
  943MOL0     C27223   8.495  10.499   5.829  0.7527  0.0399 -0.9934
  943MOL0     C27224   8.572  10.577   5.736 -0.0076  0.0493  0.0660
  943MOL0     C27225   8.735  10.760   5.338  0.1055 -0.6184 -0.2472
  943MOL0     C27226   8.753  10.778   5.199 -0.0234  0.1076 -0.3143
  943MOL0     C27227   8.814  10.895   5.157 -0.4528  0.1990  0.3747
  943MOL0     C27228   8.880  10.982   5.242  0.0380 -0.3746 -0.8236
  943MOL0     O27229   8.938  11.110   5.208 -0.2284  0.1959 -0.4389
  943MOL0     C27230   8.973  11.135   5.071  0.5247  0.6263 -0.5624
  943MOL0     C27231   9.068  11.254   5.084 -0.6837  0.4655 -0.1099
  943MOL0     C27232   9.195  11.219   5.163 -0.6830  0.2048  0.4028
  943MOL0     C27233   9.271  11.349   5.202  0.7501 -0.2761 -0.6255
  943MOL0     C27234   9.344  11.406   5.092 -1.0611  0.6613 -0.2137
  943MOL0     C27235   9.389  11.448   4.988  0.1340  0.0142  0.1958
  943MOL0     C27236   8.862  10.966   5.375 -0.3208 -0.6185  0.8830
  943MOL0     C27237   8.798  10.856   5.422  0.7198  0.1605 -0.1288
  943MOL0     H27238   8.460  10.433   5.447  2.2728  0.4463  0.3722
  943MOL0     H27239   8.324  10.303   5.609  1.5387 -1.4230  0.4729
  943MOL0     H27240   8.178  10.232   5.799 -0.0823 -0.8780 -0.7639
  943MOL0     H27241   8.313  10.144   5.762 -0.2979 -1.3670  0.1861
  943MOL0     H27242   8.225  10.007   5.932  2.4069 -1.2280  0.5651
  943MOL0     H27243   8.332  10.091   6.023 -1.6589  0.6644  1.8207
  943MOL0     H27244   8.142  10.249   6.106 -0.2383 -0.9199  2.3900
  943MOL0     H27245   8.036  10.164   5.991  0.7896 -1.8177 -0.7599
  943MOL0     H27246   8.053   9.960   6.110  1.9631  0.3901 -1.8967
  943MOL0     H27247   8.170  10.027   6.229  0.2114  2.1465 -0.2962
  943MOL0     H27248   8.005  10.177   6.305 -1.9563  2.7254 -1.5246
  943MOL0     H27249   7.895  10.137   6.168 -0.9190 -2.4438 -0.5268
  943MOL0     H27250   7.831  10.018   6.378  1.0799  0.4181  0.5390
  943MOL0     H27251   7.851   9.926   6.240 -0.7236 -0.2319  0.8559
  943MOL0     H27252   7.947   9.789   6.406  0.8746 -0.0103 -1.1823
  943MOL0     H27253   8.098   9.865   6.354 -0.0639 -1.8116 -1.0998
  943MOL0     H27254   8.051  10.053   6.525  2.2033  0.4499 -0.0380
  943MOL0     H27255   8.106   9.907   6.602 -1.5065 -0.8353  1.5118
  943MOL0     H27256   7.927   9.724   6.710  0.4164  0.1505  0.7630
  943MOL0     H27257   7.673   9.653   6.772  1.3966  0.1876  0.6226
  943MOL0     H27258   7.707   9.744   6.921  1.2764 -0.9165 -0.0688
  943MOL0     H27259   7.483   9.787   6.706 -2.5049  3.4528 -0.1660
  943MOL0     H27260   7.497   9.896   6.839  0.2266  0.3779  1.7982
  943MOL0     H27261   7.469   9.663   6.977 -0.1458  0.8371  1.2080
  943MOL0     H27262   7.357   9.641   6.836  0.3569 -1.1815  1.6560
  943MOL0     H27263   7.371   9.872   7.038 -0.4717  0.3459  0.0894
  943MOL0     H27264   7.250   9.745   7.039  1.0929 -1.3463 -0.7142
  943MOL0     H27265   7.175   9.950   7.141  0.7461  1.9256 -1.1361
  943MOL0     H27266   7.046  10.008   7.315 -1.6382  0.0888  1.7919
  943MOL0     H27267   6.943  10.139   7.264 -2.1920  0.1966 -0.5613
  943MOL0     H27268   6.863   9.979   7.295 -1.7087  1.7468 -0.1080
  943MOL0     H27269   6.460  10.241   7.003 -2.0281 -0.2971 -3.2888
  943MOL0     H27270   6.250  10.246   7.121 -0.0693 -0.5694  1.0927
  943MOL0     H27271   5.998  10.180   7.161 -3.2192 -0.3488  1.9635
  943MOL0     H27272   5.976  10.052   7.045 -4.5304  2.1793 -0.3249
  943MOL0     H27273   5.874  10.021   7.331  1.1249  0.8201 -0.0844
  943MOL0     H27274   5.779  10.076   7.192  0.4909 -0.5723 -0.0139
  943MOL0     H27275   5.908   9.802   7.222 -1.6443 -0.8816  1.8757
  943MOL0     H27276   5.829   9.864   7.074 -0.9069 -0.2932 -0.8075
  943MOL0     H27277   5.674   9.732   7.198 -1.1349  0.3655 -1.0696
  943MOL0     H27278   5.705   9.809   7.353  1.2599 -0.9234 -0.8083
  943MOL0     H27279   5.582   9.934   7.122 -0.1361  0.8297 -0.2160
  943MOL0     H27280   5.594  10.009   7.280 -0.4861 -1.2575  0.4355
  943MOL0     H27281   5.437   9.766   7.206  2.0579 -0.8793  0.7706
  943MOL0     H27282   5.455   9.788   7.373 -1.6544 -1.7568 -0.4892
  943MOL0     H27283   5.330  10.024   7.323  1.5475  0.3782 -0.0378
  943MOL0     H27284   5.242   9.868   7.286  0.3432 -0.4837  0.3029
  943MOL0     H27285   5.367   9.923   7.042 -1.1025  0.8853  0.0887
  943MOL0     H27286   5.325  10.083   7.102 -1.9949  0.0950 -1.5189
  943MOL0     H27287   6.256   9.817   7.125 -2.5447  1.4632 -0.6795
  943MOL0     H27288   6.482   9.805   7.063 -0.1635 -0.6692 -3.2611
  943MOL0     H27289   6.798   9.986   6.823  2.4027  0.9171 -1.8691
  943MOL0     H27290   7.009   9.908   6.740 -2.2059 -1.5723 -0.5323
  943MOL0     H27291   8.491  10.505   5.937 -2.5452 -0.7483 -0.9623
  943MOL0     H27292   8.648  10.646   5.771  0.4021 -0.9519  1.1967
  943MOL0     H27293   8.697  10.721   5.126 -2.0615  0.1613  1.1144
  943MOL0     H27294   8.812  10.915   5.050 -1.0674 -0.2646  0.2962
  943MOL0     H27295   9.022  11.047   5.028  1.3621  1.7687 -2.0179
  943MOL0     H27296   8.882  11.159   5.016 -0.3866 -1.0376  0.1355
  943MOL0     H27297   9.022  11.342   5.130 -3.1820  0.3884 -2.2786
  943MOL0     H27298   9.098  11.286   4.984 -2.7371 -1.7030 -1.5174
  943MOL0     H27299   9.254  11.152   5.100 -0.4983  1.3416 -0.6654
  943MOL0     H27300   9.167  11.168   5.256 -1.2508 -1.0296 -0.4285
  943MOL0     H27301   9.338  11.327   5.285 -0.7440 -1.3770  0.3403
  943MOL0     H27302   9.202  11.426   5.238  1.1099 -0.9138  1.5377
  943MOL0     H27303   9.435  11.471   4.894  1.1360  0.3483  0.7507
  943MOL0     H27304   8.923  11.027   5.441  0.2158 -0.5642  0.3387
  943MOL0     H27305   8.796  10.843   5.530 -4.8856  0.2941  0.0883
  944MOL0     O27306   5.637  10.088  10.728  0.1198 -0.2361 -0.7496
  944MOL0     C27307   5.685  10.118  10.832 -0.1175  0.1450  0.1522
  944MOL0     O27308   5.680  10.240  10.902  0.1897 -0.0879 -0.2501
  944MOL0     C27309   5.628  10.347  10.838 -0.9498 -0.1045 -0.1296
  944MOL0     C27310   5.721  10.446  10.794  0.0177  0.0382 -0.2136
  944MOL0     C27311   5.681  10.564  10.735  0.3974  0.5010 -0.0010
  944MOL0     C27312   5.546  10.587  10.718 -0.7179  0.0158 -0.5762
  944MOL0     O27313   5.498  10.699  10.658  0.3848  0.3579  0.2377
  944MOL0     C27314   5.520  10.821  10.733  0.2762 -0.1446 -0.0549
  944MOL0     C27315   5.412  10.923  10.697 -1.0403 -0.4725 -0.3376
  944MOL0     C27316   5.438  11.064  10.761  0.4198  0.6754 -0.0681
  944MOL0     C27317   5.558  11.143  10.705 -0.4022 -0.1938 -0.6161
  944MOL0     C27318   5.533  11.290  10.685  0.6897 -0.5686 -0.1228
  944MOL0     C27319   5.669  11.357  10.697  0.0525  0.4981 -0.1989
  944MOL0     C27320   5.660  11.506  10.680 -0.1307 -0.4559 -0.7398
  944MOL0     C27321   5.635  11.552  10.534 -0.2998 -0.6756  0.4696
  944MOL0     N27322   5.754  11.529  10.454  0.6270  0.8523 -0.1058
  944MOL0     C27323   5.867  11.607  10.437  0.6345 -0.3519  0.3101
  944MOL0     C27324   5.954  11.531  10.371 -0.7085 -0.3895 -0.3590
  944MOL0     C27325   6.089  11.580  10.331  0.2698  0.5479 -1.2136
  944MOL0     C27326   6.175  11.644  10.439 -0.1912  1.1445 -0.3392
  944MOL0     C27327   6.309  11.691  10.394 -0.1114 -1.0500  0.7055
  944MOL0     C27328   6.394  11.761  10.504  0.2650  0.2394  0.0059
  944MOL0     O27329   6.497  11.831  10.436  0.1318  1.0736 -0.0658
  944MOL0     C27330   6.611  11.766  10.390 -0.0568 -0.6286 -0.2809
  944MOL0     C27331   6.666  11.651  10.442 -0.1598 -0.3253 -1.2565
  944MOL0     C27332   6.790  11.595  10.391 -0.3322 -0.3205 -0.2891
  944MOL0     C27333   6.834  11.464  10.458  0.1310 -0.7298 -0.1937
  944MOL0     C27334   6.856  11.674  10.292  0.0311  0.2037  0.2832
  944MOL0     C27335   7.006  11.651  10.260  0.7581 -0.6149  0.3748
  944MOL0     O27336   7.074  11.753  10.202 -0.4796  0.4421 -0.5770
  944MOL0     C27337   7.205  11.745  10.232 -0.6837 -0.0948  0.6553
  944MOL0     C27338   7.257  11.813  10.347  0.0635 -0.3612 -0.0966
  944MOL0     C27339   7.393  11.804  10.376 -0.3682 -0.7696  0.1374
  944MOL0     C27340   7.488  11.747  10.281  0.9293 -0.3240 -0.5465
  944MOL0     O27341   7.618  11.738  10.303  0.0328 -0.0832 -0.1744
  944MOL0     C27342   7.673  11.820  10.412 -0.6445 -0.4106 -0.3053
  944MOL0     C27343   7.836  11.816  10.401 -0.4128 -0.0952 -0.1904
  944MOL0     C27344   7.896  11.814  10.260 -0.3333 -0.7541  0.7729
  944MOL0     C27345   8.054  11.826  10.261  0.1371 -0.2165 -0.3728
  944MOL0     C27346   8.112  11.688  10.284 -0.6111  0.9173 -0.0854
  944MOL0     C27347   8.257  11.664  10.230 -0.3416 -0.3192 -0.6195
  944MOL0     C27348   8.349  11.791  10.216 -0.1831  0.4139  0.4306
  944MOL0     C27349   8.376  11.857  10.339  0.1330  0.2725  0.5591
  944MOL0    Cl27350   8.474  12.006  10.314  0.1248  0.3001 -0.1406
  944MOL0     C27351   7.438  11.689  10.168  0.2693 -0.1259 -0.6827
  944MOL0     C27352   7.304  11.689  10.139  0.4141 -0.3832 -0.0912
  944MOL0     O27353   7.048  11.537  10.284  0.6391  0.4336 -0.4140
  944MOL0     C27354   6.800  11.791  10.246  0.3496  0.1163  0.5104
  944MOL0     C27355   6.681  11.844  10.296 -0.1836  0.9711 -0.0492
  944MOL0     N27356   5.904  11.408  10.365 -0.2826 -0.6227  0.0573
  944MOL0     N27357   5.785  11.405  10.407 -0.0270  0.0252 -0.1442
  944MOL0     C27358   5.448  10.489  10.753  0.8363 -0.0814 -0.3731
  944MOL0     C27359   5.496  10.371  10.812  0.4286  0.8674 -0.9112
  944MOL0     C27360   5.779  10.015  10.880  0.0879 -0.0137  0.6237
  944MOL0     C27361   5.801   9.892  10.814 -0.6088 -0.0819  0.9462
  944MOL0     C27362   5.898   9.805  10.862  0.3993 -0.1172 -1.0456
  944MOL0     C27363   5.966   9.832  10.975  1.1210 -1.0185 -0.4105
  944MOL0     O27364   6.048   9.743  11.041 -0.5228 -0.6308 -0.8016
  944MOL0     C27365   6.069   9.615  10.990  0.6146 -0.0013  0.8202
  944MOL0     C27366   6.120   9.528  11.103 -0.4929  0.0122  0.3227
  944MOL0     C27367   6.030   9.499  11.222  0.2008 -0.2095 -0.6260
  944MOL0     C27368   6.087   9.532  11.364 -0.3935  0.2413  0.7652
  944MOL0     C27369   6.099   9.680  11.384 -0.0572 -0.2475  0.0658
  944MOL0     C27370   6.122   9.800  11.392 -0.7045 -0.6432 -0.2447
  944MOL0     C27371   5.945   9.952  11.040 -0.2662 -0.4406 -0.5375
  944MOL0     C27372   5.852  10.049  10.997 -0.4168  0.0405  1.5866
  944MOL0     H27373   5.826  10.428  10.817 -0.8343 -1.5416  2.9444
  944MOL0     H27374   5.760  10.631  10.702  0.7998 -0.5916 -1.3369
  944MOL0     H27375   5.506  10.804  10.840  0.1457  0.1599 -0.0217
  944MOL0     H27376   5.614  10.875  10.721  0.1925  0.4128  1.6159
  944MOL0     H27377   5.421  10.937  10.589  2.9059  2.0759  0.1268
  944MOL0     H27378   5.317  10.876  10.726 -0.8867 -1.3461 -1.1964
  944MOL0     H27379   5.349  11.120  10.735 -0.4810 -0.5281  0.3147
  944MOL0     H27380   5.458  11.048  10.867  1.7859  1.7035 -0.1394
  944MOL0     H27381   5.642  11.127  10.773  1.3237  2.0535 -2.0298
  944MOL0     H27382   5.589  11.101  10.609  0.0471 -3.1245  0.7121
  944MOL0     H27383   5.498  11.305  10.582  0.4890  2.5648  0.2864
  944MOL0     H27384   5.460  11.333  10.753  0.4017 -0.9697 -0.1766
  944MOL0     H27385   5.702  11.339  10.800  0.8618 -0.3373 -0.5907
  944MOL0     H27386   5.742  11.315  10.627 -0.5944  0.7819 -1.0684
  944MOL0     H27387   5.580  11.542  10.744  1.1422 -0.5254  0.9806
  944MOL0     H27388   5.749  11.555  10.722 -0.1140  1.0529 -2.4062
  944MOL0     H27389   5.617  11.659  10.525 -1.4740 -0.8931 -0.0656
  944MOL0     H27390   5.544  11.502  10.498  1.2705 -3.0564 -0.4101
  944MOL0     H27391   5.885  11.712  10.461  0.4430  0.9641 -4.4414
  944MOL0     H27392   6.144  11.490  10.300  1.3750  0.2673  1.2863
  944MOL0     H27393   6.069  11.644  10.245 -1.9884 -1.7855 -2.5980
  944MOL0     H27394   6.191  11.574  10.521 -0.6378 -0.7507 -1.7907
  944MOL0     H27395   6.100  11.719  10.469 -1.3355  0.3497 -1.1107
  944MOL0     H27396   6.285  11.760  10.312 -2.0856 -0.7345  1.4887
  944MOL0     H27397   6.371  11.615  10.344  0.8335  1.5044 -2.4020
  944MOL0     H27398   6.425  11.692  10.583 -1.2672  0.0130  0.4375
  944MOL0     H27399   6.336  11.835  10.559  2.5463  1.1157  1.3904
  944MOL0     H27400   6.618  11.584  10.513  3.8021 -1.1235  0.9706
  944MOL0     H27401   6.895  11.405  10.389 -0.5667  0.8137 -2.2409
  944MOL0     H27402   6.893  11.500  10.542 -0.3139  0.2345 -0.2813
  944MOL0     H27403   6.754  11.401  10.498  1.9067 -2.5947  0.5996
  944MOL0     H27404   7.191  11.851  10.424  0.7130  2.6027 -0.8762
  944MOL0     H27405   7.427  11.845  10.471  0.0438 -0.2769 -0.2182
  944MOL0     H27406   7.636  11.922  10.401 -2.9018 -0.9246  1.6472
  944MOL0     H27407   7.642  11.791  10.512  1.6602  0.1102  0.6197
  944MOL0     H27408   7.879  11.904  10.449  1.8900 -0.4196 -1.4767
  944MOL0     H27409   7.875  11.724  10.447  1.8759  0.4627 -0.8788
  944MOL0     H27410   7.861  11.897  10.197  0.0329 -0.1927  1.2965
  944MOL0     H27411   7.851  11.729  10.208 -2.7668  0.2247  1.1532
  944MOL0     H27412   8.088  11.863  10.164  1.6866 -0.8034 -0.0966
  944MOL0     H27413   8.081  11.903  10.334 -0.1628 -0.5652  0.1107
  944MOL0     H27414   8.038  11.613  10.257 -1.0065  0.4873  2.0629
  944MOL0     H27415   8.125  11.685  10.392  1.6984 -1.6424 -0.3271
  944MOL0     H27416   8.296  11.596  10.306 -0.1450 -2.3377 -2.4178
  944MOL0     H27417   8.254  11.605  10.138  0.2191 -1.8332  0.2987
  944MOL0     H27418   8.309  11.861  10.142  0.8899  0.1405 -0.4261
  944MOL0     H27419   8.446  11.766  10.172  0.0371 -0.4762  1.4026
  944MOL0     H27420   8.437  11.782  10.391  1.1565  0.2599 -0.6236
  944MOL0     H27421   8.284  11.871  10.397  0.4760  1.1341  0.9070
  944MOL0     H27422   7.516  11.644  10.107  0.1410 -0.1645 -0.8195
  944MOL0     H27423   7.273  11.634  10.051  0.1729 -2.5708  1.2650
  944MOL0     H27424   6.847  11.854  10.171  0.5182 -2.3210 -1.5865
  944MOL0     H27425   6.634  11.924  10.238 -1.8211 -1.4920 -2.3589
  944MOL0     H27426   5.342  10.502  10.734  0.7799  1.3018  0.7375
  944MOL0     H27427   5.421  10.296  10.836 -0.0838  1.0823 -1.7754
  944MOL0     H27428   5.743   9.866  10.726  0.0001  1.9309 -0.0978
  944MOL0     H27429   5.924   9.716  10.805 -1.0499 -1.4945  0.3331
  944MOL0     H27430   5.973   9.570  10.962  0.5522  0.7444 -0.2111
  944MOL0     H27431   6.141   9.628  10.909  0.8982 -0.7573  0.9407
  944MOL0     H27432   6.209   9.577  11.143  0.3766 -1.7473  0.6288
  944MOL0     H27433   6.155   9.439  11.051  0.4835  0.2711  0.5236
  944MOL0     H27434   5.992   9.396  11.220  2.1116 -0.9435 -1.4086
  944MOL0     H27435   5.949   9.572  11.214  1.1808  0.9063 -0.4813
  944MOL0     H27436   6.182   9.482  11.385  0.0731  0.4924 -0.6771
  944MOL0     H27437   6.015   9.491  11.436 -0.2697  0.6005  1.0958
  944MOL0     H27438   6.137   9.906  11.391  2.0661 -0.9591 -0.6480
  944MOL0     H27439   6.016   9.971  11.120  1.6308 -3.8535 -1.2487
  944MOL0     H27440   5.845  10.139  11.058  1.7239  1.2808  0.1293
  945MOL0     O27441  10.799   4.536   6.312 -0.4977  0.0673 -0.0032
  945MOL0     C27442  10.777   4.503   6.190  0.6300  0.7187  0.0602
  945MOL0     O27443  10.675   4.545   6.117  0.0631 -0.2681  0.0415
  945MOL0     C27444  10.574   4.626   6.173  0.2277 -0.2387  0.6875
  945MOL0     C27445  10.442   4.580   6.161 -0.1711  0.1976  0.3527
  945MOL0     C27446  10.335   4.652   6.211 -0.3884 -0.2567  0.9431
  945MOL0     C27447  10.366   4.773   6.269  0.6862  1.4253 -0.5277
  945MOL0     O27448  10.269   4.855   6.316  0.2386  0.3449 -0.0452
  945MOL0     C27449  10.136   4.810   6.328 -0.9344 -1.5407  0.0758
  945MOL0     C27450  10.078   4.921   6.416 -0.6023  0.3106  0.1329
  945MOL0     C27451   9.945   4.880   6.471  0.5890  1.4417 -0.5425
  945MOL0     C27452   9.888   4.990   6.563  0.8237 -0.5877 -0.0266
  945MOL0     C27453   9.745   4.968   6.611 -0.2929 -0.8830  0.4628
  945MOL0     C27454   9.699   5.078   6.699  0.1953 -1.3224 -1.1080
  945MOL0     C27455   9.551   5.097   6.714 -1.1466 -0.2926 -0.3737
  945MOL0     C27456   9.511   5.215   6.796 -0.1553 -0.0802 -0.2279
  945MOL0     N27457   9.370   5.254   6.767 -0.3819 -0.2941  0.2711
  945MOL0     C27458   9.319   5.317   6.649 -0.0996  0.5861 -0.9788
  945MOL0     C27459   9.186   5.304   6.657 -0.5729 -0.1685 -0.0509
  945MOL0     C27460   9.087   5.345   6.550 -0.9475  0.6656  0.3992
  945MOL0     C27461   8.951   5.330   6.607  0.6131 -0.2372 -0.3616
  945MOL0     C27462   8.840   5.364   6.503 -0.9694  0.2139  0.0059
  945MOL0     C27463   8.694   5.354   6.552  0.6345 -0.4041 -0.3110
  945MOL0     O27464   8.669   5.227   6.603 -0.3150 -0.1923 -0.3893
  945MOL0     C27465   8.537   5.201   6.602  0.6104 -0.0178  0.4656
  945MOL0     C27466   8.460   5.241   6.718 -0.3278 -0.6890  0.5095
  945MOL0     C27467   8.321   5.216   6.718  0.4714  0.6349 -0.2358
  945MOL0     C27468   8.240   5.259   6.830  0.1828  1.4041 -0.6750
  945MOL0     C27469   8.260   5.150   6.607 -0.1219  0.0678  0.5395
  945MOL0     C27470   8.112   5.118   6.596  0.5583  0.1655  0.3210
  945MOL0     O27471   8.028   5.122   6.709 -0.3430 -0.4149  0.7616
  945MOL0     C27472   7.894   5.096   6.693 -0.9812 -0.1212 -0.2384
  945MOL0     C27473   7.853   4.972   6.735 -0.2136 -0.3598  0.0286
  945MOL0     C27474   7.714   4.942   6.716 -0.3207 -0.5333 -0.1875
  945MOL0     C27475   7.624   5.030   6.657 -0.5446  0.0548  0.9535
  945MOL0     O27476   7.497   4.994   6.632  0.8009  0.9463  0.1764
  945MOL0     C27477   7.473   4.979   6.495 -0.8844  0.8819  0.5698
  945MOL0     C27478   7.364   4.871   6.474 -0.6804  1.1123  0.6448
  945MOL0     C27479   7.315   4.867   6.323  0.6359 -1.1740 -0.2481
  945MOL0     C27480   7.225   4.748   6.297  0.2528 -0.1975  0.0212
  945MOL0     C27481   7.135   4.776   6.176 -0.2502  0.0490 -0.0187
  945MOL0     C27482   7.000   4.813   6.227 -0.3339  0.2868  0.1407
  945MOL0     C27483   6.901   4.846   6.108 -0.3938 -0.1390 -0.2009
  945MOL0     C27484   6.786   4.913   6.166  0.1643  0.6719 -0.0224
  945MOL0    Cl27485   6.836   5.076   6.213 -0.4392 -0.2245 -0.0251
  945MOL0     C27486   7.665   5.154   6.616  0.1477 -0.2222  0.9554
  945MOL0     C27487   7.804   5.191   6.641 -0.6453  0.7402 -0.4030
  945MOL0     O27488   8.075   5.082   6.485 -0.6879 -0.6342  0.2837
  945MOL0     C27489   8.343   5.114   6.499  0.0152 -0.4608 -0.3039
  945MOL0     C27490   8.480   5.137   6.494  0.4698  0.3284 -0.3180
  945MOL0     N27491   9.154   5.240   6.774 -0.9260 -0.8512 -0.0347
  945MOL0     N27492   9.264   5.202   6.827 -0.1638  0.1650 -0.5727
  945MOL0     C27493  10.486   4.829   6.278 -0.7904  0.2254  0.0452
  945MOL0     C27494  10.593   4.749   6.239  0.2488 -0.4913  0.2322
  945MOL0     C27495  10.873   4.414   6.130  0.1797  0.5166 -1.1392
  945MOL0     C27496  11.007   4.410   6.175 -0.6327  0.9806  0.2296
  945MOL0     C27497  11.096   4.305   6.124 -0.0998 -0.3771 -0.2883
  945MOL0     C27498  11.046   4.208   6.032  0.7162  0.0567  0.1675
  945MOL0     O27499  11.123   4.103   5.998 -0.0218  0.4175  0.7887
  945MOL0     C27500  11.178   4.013   6.097  0.1069 -0.3679  0.0660
  945MOL0     C27501  11.118   3.876   6.075 -0.5363  0.4714 -0.7348
  945MOL0     C27502  11.152   3.824   5.933 -0.5927 -0.2522  0.7346
  945MOL0     C27503  11.157   3.663   5.918  0.0161 -0.1254 -0.5788
  945MOL0     C27504  11.290   3.623   5.968  0.3431 -0.3757  0.0418
  945MOL0     C27505  11.394   3.577   6.011  0.6262  0.3657 -0.4116
  945MOL0     C27506  10.914   4.214   6.001 -0.3277  0.1869  0.4269
  945MOL0     C27507  10.825   4.310   6.053  0.0947 -0.6379  0.3616
  945MOL0     H27508  10.430   4.482   6.115 -0.4221 -0.4061  1.6287
  945MOL0     H27509  10.234   4.615   6.195 -0.1024 -0.7427  0.2483
  945MOL0     H27510  10.095   4.818   6.227  0.5521  0.3450 -0.4383
  945MOL0     H27511  10.131   4.710   6.371  0.7252 -1.3975  0.6834
  945MOL0     H27512  10.145   4.918   6.502  2.9025 -1.5924 -2.3983
  945MOL0     H27513  10.071   5.018   6.367  0.2096  1.5038  2.2352
  945MOL0     H27514   9.884   4.865   6.381  0.4347 -2.2585  0.0391
  945MOL0     H27515   9.949   4.784   6.522 -0.6201  0.0300 -2.9546
  945MOL0     H27516   9.958   4.998   6.646  0.5496  1.6406  0.0421
  945MOL0     H27517   9.878   5.083   6.507  0.5384 -0.4111  0.3175
  945MOL0     H27518   9.699   4.968   6.512  1.2125  0.0126 -0.2755
  945MOL0     H27519   9.730   4.878   6.671  0.2655 -1.4656 -0.2582
  945MOL0     H27520   9.733   5.066   6.803 -1.3212  3.0382  0.1140
  945MOL0     H27521   9.740   5.166   6.649  0.0721  0.2345  1.3237
  945MOL0     H27522   9.516   5.123   6.614  0.6525 -0.1696 -1.0221
  945MOL0     H27523   9.508   5.011   6.765  0.4069 -2.0011 -1.7919
  945MOL0     H27524   9.578   5.300   6.784 -0.2696  0.3772  1.9783
  945MOL0     H27525   9.527   5.214   6.904  0.9276  1.3716 -0.3447
  945MOL0     H27526   9.378   5.348   6.564  3.1146 -0.7204  0.5955
  945MOL0     H27527   9.112   5.447   6.521  1.3911 -0.3000 -1.3173
  945MOL0     H27528   9.099   5.277   6.465 -0.0931  0.6286  0.5363
  945MOL0     H27529   8.932   5.395   6.693 -2.0291 -0.8179 -0.4440
  945MOL0     H27530   8.942   5.225   6.636  0.6985 -0.6480 -1.7601
  945MOL0     H27531   8.844   5.302   6.413  0.6129  0.2651  0.0145
  945MOL0     H27532   8.855   5.469   6.476  3.2013 -0.5246 -1.2676
  945MOL0     H27533   8.623   5.387   6.475 -0.8317  2.5648  2.1081
  945MOL0     H27534   8.673   5.417   6.638 -1.5099 -0.0727 -1.0091
  945MOL0     H27535   8.507   5.293   6.800 -0.1769  0.5796 -0.3502
  945MOL0     H27536   8.151   5.313   6.798 -0.6331  0.6793  0.3023
  945MOL0     H27537   8.203   5.172   6.886  0.1547  1.0440 -1.2449
  945MOL0     H27538   8.297   5.324   6.897  1.3189  0.3728 -0.5973
  945MOL0     H27539   7.918   4.908   6.794 -0.6763 -1.2663 -0.4329
  945MOL0     H27540   7.665   4.846   6.732 -1.9565  0.5771  2.2674
  945MOL0     H27541   7.439   5.062   6.433 -3.1840 -0.3171  0.1151
  945MOL0     H27542   7.563   4.937   6.450 -0.5638  2.0950  0.0438
  945MOL0     H27543   7.411   4.773   6.490 -1.3448  0.7462  0.3953
  945MOL0     H27544   7.281   4.898   6.540 -2.1237  0.2293 -0.7460
  945MOL0     H27545   7.401   4.861   6.255  1.0534 -0.5799  0.2100
  945MOL0     H27546   7.248   4.953   6.308  0.4147 -0.9426  1.8659
  945MOL0     H27547   7.290   4.662   6.283  3.0116  1.6869  0.4899
  945MOL0     H27548   7.161   4.721   6.381 -1.0483 -3.4291 -1.8050
  945MOL0     H27549   7.131   4.689   6.111 -0.5515 -0.8811  1.2249
  945MOL0     H27550   7.175   4.862   6.122 -1.8997  0.0653 -1.2848
  945MOL0     H27551   6.963   4.739   6.298  1.3352 -0.4600  0.2719
  945MOL0     H27552   7.019   4.909   6.277 -1.6825  0.0902  1.0847
  945MOL0     H27553   6.863   4.755   6.062 -2.2746 -1.3488  3.4039
  945MOL0     H27554   6.952   4.908   6.033  2.0974 -1.9861 -0.1358
  945MOL0     H27555   6.757   4.869   6.262  3.3924  1.6670  1.5680
  945MOL0     H27556   6.702   4.912   6.095 -1.5797 -2.0690  1.8723
  945MOL0     H27557   7.590   5.221   6.576  1.2503  0.5265  0.0567
  945MOL0     H27558   7.855   5.280   6.609  0.8972  0.8387  2.0668
  945MOL0     H27559   8.286   5.068   6.419 -1.4211  0.5371  0.0964
  945MOL0     H27560   8.531   5.103   6.405  0.9659  1.1305 -0.3450
  945MOL0     H27561  10.486   4.924   6.330 -1.1679 -1.3625  3.1705
  945MOL0     H27562  10.694   4.786   6.256  1.1377 -0.7283 -3.5782
  945MOL0     H27563  11.043   4.483   6.246  1.9203 -0.8464  0.9683
  945MOL0     H27564  11.199   4.287   6.153 -0.4146 -2.9297 -0.5314
  945MOL0     H27565  11.287   4.004   6.089  0.3075  0.0468  1.9294
  945MOL0     H27566  11.161   4.049   6.199  1.9358 -0.8724  0.5928
  945MOL0     H27567  11.010   3.892   6.088 -0.6898 -2.0408  2.4516
  945MOL0     H27568  11.141   3.803   6.153 -1.9529  0.4590 -0.3044
  945MOL0     H27569  11.253   3.860   5.910 -0.2237 -2.7275 -2.1388
  945MOL0     H27570  11.087   3.860   5.853  0.4793 -3.2561 -1.6963
  945MOL0     H27571  11.144   3.630   5.814  2.5038 -1.8930 -0.4207
  945MOL0     H27572  11.089   3.621   5.992  1.0106  1.3171  1.2488
  945MOL0     H27573  11.491   3.549   6.046  1.1836 -1.6955 -3.1877
  945MOL0     H27574  10.860   4.142   5.941  1.0926 -2.1018  1.7136
  945MOL0     H27575  10.718   4.315   6.030  0.0069  2.0742  1.0179
  946MOL0     O27576  11.175   5.338   9.927 -0.3382 -0.8351 -1.0619
  946MOL0     C27577  11.260   5.260   9.877  0.8698 -0.5859  0.1111
  946MOL0     O27578  11.238   5.169   9.780 -0.0442  0.0028 -0.6510
  946MOL0     C27579  11.114   5.138   9.743 -0.2101 -0.3447  0.6434
  946MOL0     C27580  11.035   5.067   9.836  0.1158  0.6959  0.6296
  946MOL0     C27581  10.902   5.053   9.807 -0.5191  0.3120 -1.2574
  946MOL0     C27582  10.845   5.109   9.694 -0.1440 -0.2651  0.1332
  946MOL0     O27583  10.709   5.078   9.681 -0.3561 -0.5716  0.5458
  946MOL0     C27584  10.645   5.134   9.560 -0.1635  0.3954 -0.1370
  946MOL0     C27585  10.490   5.106   9.577  0.0327 -0.4082 -0.7477
  946MOL0     C27586  10.404   5.145   9.462 -0.0243  0.9767 -0.6030
  946MOL0     C27587  10.252   5.140   9.486  0.0346  0.4952  0.0224
  946MOL0     C27588  10.181   5.223   9.378  0.4871 -0.0219 -0.1830
  946MOL0     C27589  10.030   5.189   9.384 -0.3449 -0.5717  0.2692
  946MOL0     C27590   9.964   5.275   9.270 -0.1278 -0.1688  0.9759
  946MOL0     C27591   9.815   5.248   9.251  0.4579 -0.1242 -0.2336
  946MOL0     N27592   9.735   5.307   9.359 -0.4288  0.8641  0.4434
  946MOL0     C27593   9.726   5.440   9.400 -0.1008  0.1380  0.0550
  946MOL0     C27594   9.660   5.440   9.517 -0.9502 -0.5813 -0.6117
  946MOL0     C27595   9.641   5.557   9.602  0.0526  0.5097  0.3361
  946MOL0     C27596   9.687   5.537   9.746 -0.5126  0.9383 -0.2083
  946MOL0     C27597   9.621   5.641   9.834 -0.4678  0.1373 -0.5424
  946MOL0     C27598   9.704   5.650   9.967  0.5921  1.4953 -0.5941
  946MOL0     O27599   9.822   5.714   9.945  0.2299 -0.3203  0.2119
  946MOL0     C27600   9.915   5.742  10.040 -0.3336  0.9131 -0.7054
  946MOL0     C27601   9.914   5.686  10.168  1.2685 -0.4843  0.3601
  946MOL0     C27602  10.003   5.736  10.263 -0.5119  0.3336 -0.7854
  946MOL0     C27603   9.985   5.698  10.405 -0.0339  0.4475  0.3138
  946MOL0     C27604  10.109   5.818  10.221  0.0393  0.2462  1.0240
  946MOL0     C27605  10.219   5.866  10.315  1.1028  0.2543 -0.6722
  946MOL0     O27606  10.236   5.807  10.433  0.6201 -0.6419 -0.1432
  946MOL0     C27607  10.361   5.818  10.488 -0.5126 -0.3672 -0.5314
  946MOL0     C27608  10.464   5.729  10.465  0.3152 -0.1775  0.0017
  946MOL0     C27609  10.585   5.739  10.537 -0.7494  0.7315 -0.9895
  946MOL0     C27610  10.602   5.838  10.631  0.4489  0.5396  0.2013
  946MOL0     O27611  10.716   5.846  10.707 -0.6195  0.8727 -0.0253
  946MOL0     C27612  10.845   5.800  10.657  0.4182 -0.1401 -0.1555
  946MOL0     C27613  10.951   5.831  10.767 -0.1029 -0.4639 -0.0706
  946MOL0     C27614  10.937   5.964  10.832 -0.8083  0.0242  0.0953
  946MOL0     C27615  11.070   6.010  10.890  0.2222 -0.4526 -0.3381
  946MOL0     C27616  11.074   6.157  10.934  0.8141 -0.6232 -0.1570
  946MOL0     C27617  10.990   6.177  11.058 -0.5925 -0.0744  0.1649
  946MOL0     C27618  11.008   6.325  11.090  0.4581 -0.4140 -0.3306
  946MOL0     C27619  10.904   6.377  11.173  0.0362  0.2293 -0.4286
  946MOL0    Cl27620  10.914   6.553  11.167  0.0394  0.5929 -0.2827
  946MOL0     C27621  10.495   5.921  10.671  0.1574  0.1385 -0.0581
  946MOL0     C27622  10.378   5.917  10.591  0.8759 -0.4808  0.4766
  946MOL0     O27623  10.285   5.958  10.263  0.5894  0.5402 -0.0026
  946MOL0     C27624  10.113   5.859  10.087  0.7924 -0.1294 -0.6592
  946MOL0     C27625  10.013   5.832  10.006 -0.5029 -0.2711  0.0888
  946MOL0     N27626   9.633   5.312   9.549 -0.3094  0.0387 -0.1345
  946MOL0     N27627   9.677   5.224   9.456 -0.1961 -0.6948  0.0826
  946MOL0     C27628  10.927   5.175   9.597  0.1204 -0.0633 -0.6428
  946MOL0     C27629  11.061   5.188   9.620  0.2410 -0.4027  0.0168
  946MOL0     C27630  11.401   5.280   9.936  0.4389  0.6513 -0.2537
  946MOL0     C27631  11.427   5.375  10.036 -0.6109  0.1387  0.5227
  946MOL0     C27632  11.561   5.425  10.064  0.1995  0.0885  0.4718
  946MOL0     C27633  11.675   5.366  10.014 -0.4556  1.3682  0.2439
  946MOL0     O27634  11.807   5.403  10.028  0.5647  0.0051  0.3145
  946MOL0     C27635  11.833   5.494  10.137  0.4869  1.1200 -0.0111
  946MOL0     C27636  11.979   5.466  10.165  0.0235 -0.3635 -0.0061
  946MOL0     C27637  12.046   5.548  10.281  0.4660 -0.2473 -0.1687
  946MOL0     C27638  11.997   5.694  10.289 -0.0629 -0.1001  0.0274
  946MOL0     C27639  11.868   5.711  10.356 -0.4090  0.7819 -0.1312
  946MOL0     C27640  11.769   5.726  10.425  0.2716 -0.2362 -0.0256
  946MOL0     C27641  11.648   5.267   9.916 -0.6534 -0.2152 -0.0383
  946MOL0     C27642  11.512   5.227   9.874 -0.3600  0.4699  0.9416
  946MOL0     H27643  11.075   5.020   9.925  1.4460 -2.0369 -1.2549
  946MOL0     H27644  10.854   4.995   9.885  0.6905  1.8000  0.7197
  946MOL0     H27645  10.669   5.240   9.551  2.5086 -0.1842 -0.8312
  946MOL0     H27646  10.668   5.091   9.462 -2.4007 -1.3665  0.0297
  946MOL0     H27647  10.473   5.001   9.605  0.1655 -0.6845 -1.6655
  946MOL0     H27648  10.461   5.173   9.658 -0.1810  2.2284 -2.8791
  946MOL0     H27649  10.428   5.248   9.436  0.8861  0.8916 -0.1665
  946MOL0     H27650  10.430   5.087   9.372  0.6280 -0.7458  0.6417
  946MOL0     H27651  10.204   5.041   9.480 -1.3748  1.2559 -2.2450
  946MOL0     H27652  10.220   5.196   9.574  1.7711  1.9580 -0.2224
  946MOL0     H27653  10.197   5.330   9.398 -0.0425  0.0124  0.0700
  946MOL0     H27654  10.204   5.199   9.274  2.0371  2.6050 -0.5397
  946MOL0     H27655  10.012   5.083   9.362 -0.9074  0.0371 -2.6091
  946MOL0     H27656   9.985   5.206   9.482  1.4583  0.3828  0.9657
  946MOL0     H27657   9.971   5.383   9.283 -1.8040  0.2243 -0.8675
  946MOL0     H27658  10.014   5.249   9.176  1.3624 -1.7705  2.1411
  946MOL0     H27659   9.788   5.144   9.232 -3.1662  0.9884 -2.0821
  946MOL0     H27660   9.788   5.304   9.160  1.8452 -0.2058 -0.7329
  946MOL0     H27661   9.766   5.519   9.338 -1.7993  0.8467 -0.2065
  946MOL0     H27662   9.700   5.636   9.555  0.8852  1.4682  2.8080
  946MOL0     H27663   9.537   5.592   9.613  0.7522  2.2644  1.8250
  946MOL0     H27664   9.794   5.557   9.741 -0.3711  0.0265 -1.2370
  946MOL0     H27665   9.658   5.439   9.784  3.7364 -0.5031 -0.2353
  946MOL0     H27666   9.523   5.600   9.859 -0.2956  0.8745  1.5735
  946MOL0     H27667   9.592   5.738   9.792  0.1071  1.1941  1.3483
  946MOL0     H27668   9.715   5.551  10.011 -0.7201  1.0127 -1.3082
  946MOL0     H27669   9.646   5.709  10.038  2.3602  2.0553  0.4561
  946MOL0     H27670   9.835   5.613  10.181  1.4033 -0.8958 -1.0556
  946MOL0     H27671  10.061   5.625  10.435 -0.4275 -0.4590 -0.7946
  946MOL0     H27672   9.977   5.787  10.469  0.4396  1.2946 -0.7893
  946MOL0     H27673   9.895   5.635  10.414  1.8950 -2.7288 -0.8716
  946MOL0     H27674  10.457   5.654  10.387  1.7554 -0.2987 -0.0331
  946MOL0     H27675  10.666   5.667  10.528  0.6671  2.2314 -0.9158
  946MOL0     H27676  10.836   5.694  10.632 -2.9992  0.6696 -3.1154
  946MOL0     H27677  10.871   5.847  10.562  0.8438  0.4852  0.2606
  946MOL0     H27678  10.955   5.749  10.840  2.5562 -0.4907 -0.1631
  946MOL0     H27679  11.046   5.828  10.714 -0.0497 -0.4715  0.0251
  946MOL0     H27680  10.854   5.951  10.902 -1.4020 -2.4872 -0.9382
  946MOL0     H27681  10.903   6.027  10.749  3.4691  1.7360 -0.5897
  946MOL0     H27682  11.089   5.953  10.981  0.3290 -3.8205 -2.3223
  946MOL0     H27683  11.152   6.001  10.819  0.7571 -0.0008  0.2092
  946MOL0     H27684  11.034   6.214  10.849  0.3790  0.2493  0.6121
  946MOL0     H27685  11.173   6.192  10.961  0.5402  2.9712 -3.0726
  946MOL0     H27686  10.884   6.150  11.050 -0.4501 -1.0493  1.3540
  946MOL0     H27687  11.030   6.112  11.136  1.1802  1.3989  0.5490
  946MOL0     H27688  11.014   6.379  10.996 -0.3081 -0.9952 -0.7292
  946MOL0     H27689  11.103   6.342  11.141  0.8504 -3.8269  0.3432
  946MOL0     H27690  10.905   6.344  11.278  2.3420 -0.9850 -0.7467
  946MOL0     H27691  10.807   6.346  11.134  0.0144 -1.4456  0.8175
  946MOL0     H27692  10.497   5.987  10.757 -1.5210 -0.4020  0.4426
  946MOL0     H27693  10.298   5.990  10.600  0.1261 -1.0638 -1.0804
  946MOL0     H27694  10.198   5.919  10.056  2.4116 -1.4821  0.9370
  946MOL0     H27695  10.015   5.885   9.911  2.5253 -0.3154  0.0397
  946MOL0     H27696  10.892   5.212   9.501  0.4014  1.2517 -0.2619
  946MOL0     H27697  11.131   5.236   9.552 -1.4915 -0.9178 -2.2830
  946MOL0     H27698  11.341   5.424  10.080 -1.7119  1.4062 -2.8011
  946MOL0     H27699  11.559   5.517  10.123 -1.7931  0.2363  0.2470
  946MOL0     H27700  11.810   5.596  10.106  0.7507  1.2604  0.2543
  946MOL0     H27701  11.772   5.477  10.226  0.5987 -0.1901 -0.1709
  946MOL0     H27702  12.035   5.484  10.073  0.0148 -3.1682 -0.6434
  946MOL0     H27703  11.994   5.358  10.170 -2.1849 -0.6656  1.1408
  946MOL0     H27704  12.152   5.553  10.258  0.3977 -0.9410 -0.7012
  946MOL0     H27705  12.038   5.510  10.383  0.7007  1.4347  0.5040
  946MOL0     H27706  11.984   5.720  10.183 -1.1520  0.5207  0.2967
  946MOL0     H27707  12.059   5.763  10.347 -0.3817 -2.2556  3.1469
  946MOL0     H27708  11.681   5.740  10.485  1.7260 -0.3682  2.2668
  946MOL0     H27709  11.724   5.209   9.865 -2.9531 -2.1353 -1.5097
  946MOL0     H27710  11.504   5.153   9.795 -1.7481  2.5283 -0.9439
  947MOL0     O27711   5.587   1.601   3.721 -0.7610  0.4097  0.3105
  947MOL0     C27712   5.641   1.491   3.702 -0.4326 -0.0890  0.8812
  947MOL0     O27713   5.574   1.390   3.649 -0.0488 -0.1516 -0.2046
  947MOL0     C27714   5.454   1.401   3.577  0.0266 -1.1464 -0.7842
  947MOL0     C27715   5.332   1.443   3.629  0.4184  0.8610 -0.3146
  947MOL0     C27716   5.215   1.452   3.562  0.7279 -0.7586  0.0509
  947MOL0     C27717   5.207   1.401   3.432  0.3218 -0.1017  0.0382
  947MOL0     O27718   5.090   1.417   3.364  0.7481 -0.0481  0.0425
  947MOL0     C27719   5.047   1.290   3.310 -0.3639 -0.6595 -0.4290
  947MOL0     C27720   4.953   1.204   3.397 -0.4001  0.2705  0.4246
  947MOL0     C27721   4.894   1.089   3.313  0.1841  0.1579 -0.2289
  947MOL0     C27722   4.825   0.985   3.401 -0.8969  0.1700 -0.4540
  947MOL0     C27723   4.803   0.841   3.338 -0.6288  0.2572 -0.1139
  947MOL0     C27724   4.692   0.861   3.222  0.2469  0.2603 -0.4546
  947MOL0     C27725   4.674   0.727   3.141  0.6449 -0.3928 -0.8664
  947MOL0     C27726   4.552   0.661   3.202  0.2612 -0.2133  0.4230
  947MOL0     N27727   4.521   0.537   3.124 -0.0128  0.4510 -0.0516
  947MOL0     C27728   4.614   0.435   3.101 -0.1735 -0.7636 -0.1233
  947MOL0     C27729   4.546   0.346   3.027  0.1819 -0.5001 -0.3836
  947MOL0     C27730   4.596   0.214   2.980  0.1772  0.0634  0.7016
  947MOL0     C27731   4.732   0.207   2.911  0.6648 -0.4924 -0.0403
  947MOL0     C27732   4.705   0.242   2.764 -0.0529 -0.3565 -0.0143
  947MOL0     C27733   4.684   0.393   2.758  0.4956 -0.8208 -0.1367
  947MOL0     O27734   4.700   0.430   2.622  0.5231  0.3065  1.1645
  947MOL0     C27735   4.765   0.550   2.587 -0.3583 -0.6477 -0.4395
  947MOL0     C27736   4.795   0.648   2.676  0.0738  0.0005  0.0225
  947MOL0     C27737   4.867   0.767   2.649 -0.7368 -0.3181 -0.4528
  947MOL0     C27738   4.889   0.866   2.761  0.0240 -0.4433 -0.3862
  947MOL0     C27739   4.918   0.775   2.520 -0.3292  0.8153  0.1130
  947MOL0     C27740   5.026   0.877   2.472  0.1160  0.7343  0.4668
  947MOL0     O27741   5.086   0.847   2.353  0.5138  0.1044 -0.0660
  947MOL0     C27742   5.190   0.932   2.314 -0.1471  0.2566 -0.3891
  947MOL0     C27743   5.200   0.996   2.197 -1.1717 -0.6147  1.4917
  947MOL0     C27744   5.296   1.096   2.175 -1.1008 -0.6278 -0.7465
  947MOL0     C27745   5.397   1.131   2.265  0.1054 -0.3282 -0.6191
  947MOL0     O27746   5.502   1.224   2.242 -0.3436 -0.0977 -1.0581
  947MOL0     C27747   5.494   1.323   2.136 -0.0542  0.4919 -0.4031
  947MOL0     C27748   5.616   1.412   2.125 -0.1397 -0.3790 -0.4265
  947MOL0     C27749   5.745   1.324   2.095  0.2735 -0.4776  1.0277
  947MOL0     C27750   5.825   1.321   2.224 -0.9652  0.2919 -0.7832
  947MOL0     C27751   5.965   1.253   2.208 -0.2236 -0.2024  0.0066
  947MOL0     C27752   6.090   1.335   2.169  0.5822 -0.4151 -0.0352
  947MOL0     C27753   6.228   1.269   2.169 -0.1492  0.3295 -0.5364
  947MOL0     C27754   6.338   1.367   2.169  0.6222 -0.0751  0.4481
  947MOL0    Cl27755   6.495   1.293   2.156  0.0348 -0.0167  0.1701
  947MOL0     C27756   5.392   1.054   2.378 -0.4099 -0.4771  0.2015
  947MOL0     C27757   5.294   0.950   2.404 -0.7037 -0.6982  0.3457
  947MOL0     O27758   5.046   0.977   2.541 -0.2884 -0.2311  0.2287
  947MOL0     C27759   4.887   0.678   2.427 -0.5245  0.8064  0.0192
  947MOL0     C27760   4.816   0.562   2.459  1.1712  0.0238  0.1644
  947MOL0     N27761   4.414   0.380   3.021 -0.7133  1.2892 -0.3619
  947MOL0     N27762   4.394   0.494   3.077  0.2832 -0.3842 -0.8601
  947MOL0     C27763   5.330   1.350   3.375  0.5004  0.3957 -1.2811
  947MOL0     C27764   5.448   1.355   3.444  0.3283 -0.0979  0.0246
  947MOL0     C27765   5.779   1.473   3.753 -0.4767  1.2032  1.5052
  947MOL0     C27766   5.847   1.568   3.832  0.0558  0.6456  0.2276
  947MOL0     C27767   5.971   1.545   3.882 -0.6805 -0.0368  0.3700
  947MOL0     C27768   6.044   1.427   3.841  0.7675  0.0973  0.8933
  947MOL0     O27769   6.170   1.385   3.875  0.3640 -0.4610  0.0764
  947MOL0     C27770   6.235   1.475   3.973  0.1793  0.2195 -0.1981
  947MOL0     C27771   6.392   1.433   3.972  1.1266 -0.5897  0.0799
  947MOL0     C27772   6.407   1.284   4.026  0.5241  0.5835  0.5818
  947MOL0     C27773   6.553   1.256   4.054 -0.1968  0.6375 -0.5945
  947MOL0     C27774   6.596   1.342   4.165 -0.1773 -0.2997  0.7369
  947MOL0     C27775   6.645   1.421   4.232  0.5862 -0.5578 -0.6359
  947MOL0     C27776   5.976   1.334   3.755 -0.1679  0.3525 -0.7686
  947MOL0     C27777   5.842   1.354   3.711  0.5347  0.4311  0.2484
  947MOL0     H27778   5.340   1.471   3.733  0.2527  1.7489 -0.5322
  947MOL0     H27779   5.122   1.478   3.611 -0.2079  0.5603 -2.2391
  947MOL0     H27780   4.988   1.322   3.224 -1.0254  1.6198  0.7781
  947MOL0     H27781   5.135   1.236   3.275  1.8465 -0.3296  3.8744
  947MOL0     H27782   5.001   1.156   3.483  1.0399 -2.4729 -1.7714
  947MOL0     H27783   4.872   1.267   3.435 -0.3980  0.0774  0.7519
  947MOL0     H27784   4.827   1.133   3.238 -0.6378  2.4365  1.7078
  947MOL0     H27785   4.971   1.037   3.255  0.0316 -0.0909 -0.2070
  947MOL0     H27786   4.879   0.974   3.496  0.7907 -1.0436 -1.5121
  947MOL0     H27787   4.726   1.028   3.417 -0.4912  0.8154  0.4132
  947MOL0     H27788   4.897   0.813   3.290 -0.1621  0.4726  0.6539
  947MOL0     H27789   4.775   0.763   3.410 -3.1538  3.2922  2.5266
  947MOL0     H27790   4.593   0.888   3.261 -0.5108 -0.8438 -1.5484
  947MOL0     H27791   4.713   0.943   3.153 -2.9156  2.1918  0.6378
  947MOL0     H27792   4.651   0.748   3.036  0.5615 -0.7625 -0.9222
  947MOL0     H27793   4.766   0.668   3.149 -0.5054 -1.9695  3.2294
  947MOL0     H27794   4.463   0.724   3.209 -0.7042 -1.5180  0.3216
  947MOL0     H27795   4.575   0.633   3.305 -0.0927 -1.3675  0.2054
  947MOL0     H27796   4.715   0.429   3.140 -0.5540  2.5850  1.7373
  947MOL0     H27797   4.604   0.152   3.069  0.3902 -0.6759  0.1729
  947MOL0     H27798   4.526   0.163   2.914  0.1582 -0.5718  1.2013
  947MOL0     H27799   4.772   0.105   2.921  2.3244  0.2906  2.3948
  947MOL0     H27800   4.798   0.276   2.965 -1.7553 -0.9124  3.8663
  947MOL0     H27801   4.625   0.199   2.703 -0.8798  0.1093  0.7181
  947MOL0     H27802   4.789   0.215   2.699 -2.3789  1.2274 -4.1099
  947MOL0     H27803   4.754   0.446   2.823  0.1101 -3.8206  3.0179
  947MOL0     H27804   4.582   0.416   2.791 -0.2160  0.1002 -2.7364
  947MOL0     H27805   4.766   0.645   2.781  0.5800 -0.1384  0.1666
  947MOL0     H27806   4.996   0.864   2.782 -0.2173  1.9267  1.6403
  947MOL0     H27807   4.859   0.960   2.714  0.6107 -0.2881 -0.4589
  947MOL0     H27808   4.832   0.860   2.854 -1.0012 -0.0618 -0.9748
  947MOL0     H27809   5.126   0.977   2.120 -2.0166 -2.1405  2.6188
  947MOL0     H27810   5.279   1.148   2.081 -1.6919 -1.9680 -1.4072
  947MOL0     H27811   5.487   1.270   2.040 -1.4078  0.0354 -0.0783
  947MOL0     H27812   5.405   1.386   2.149 -1.7987 -2.0101  0.6677
  947MOL0     H27813   5.599   1.494   2.054  1.0579  0.0892 -0.1998
  947MOL0     H27814   5.625   1.464   2.221  4.1418 -0.1882 -0.7248
  947MOL0     H27815   5.804   1.367   2.014  0.4482 -0.2594  1.2689
  947MOL0     H27816   5.728   1.221   2.063  3.5339 -0.5555 -0.8089
  947MOL0     H27817   5.839   1.416   2.275  2.1591 -1.0731  1.2267
  947MOL0     H27818   5.772   1.257   2.296  0.1258  0.2590  0.0142
  947MOL0     H27819   5.959   1.173   2.133  0.4482 -2.0519  1.8281
  947MOL0     H27820   5.980   1.200   2.303 -1.4435  0.6422  0.6936
  947MOL0     H27821   6.065   1.368   2.067 -0.2852 -1.0727 -0.0502
  947MOL0     H27822   6.104   1.420   2.236 -0.0444 -0.2964 -0.0432
  947MOL0     H27823   6.238   1.203   2.082  0.5411  1.6476 -1.4859
  947MOL0     H27824   6.237   1.207   2.258 -1.5235 -1.5826 -1.6496
  947MOL0     H27825   6.337   1.431   2.258  3.1061  1.3446 -0.4604
  947MOL0     H27826   6.320   1.429   2.081  1.0647  0.6314  0.8425
  947MOL0     H27827   5.468   1.059   2.455 -0.2385  0.7005 -0.0179
  947MOL0     H27828   5.296   0.898   2.499 -0.0714 -0.4583  0.4708
  947MOL0     H27829   4.913   0.667   2.323  0.8868  0.7477  0.3598
  947MOL0     H27830   4.791   0.485   2.387 -2.0032  1.8974 -0.9388
  947MOL0     H27831   5.338   1.314   3.273  1.2715  1.7527 -1.7355
  947MOL0     H27832   5.539   1.322   3.396  1.0649  2.9807 -0.9098
  947MOL0     H27833   5.800   1.658   3.872  0.9970 -0.0674  3.2017
  947MOL0     H27834   6.021   1.621   3.941 -1.4417  1.6339 -1.0360
  947MOL0     H27835   6.228   1.577   3.935  2.1810  0.6535  0.4799
  947MOL0     H27836   6.184   1.470   4.069 -0.3853 -1.5319 -0.5418
  947MOL0     H27837   6.434   1.513   4.034 -0.9751 -0.9086  2.0382
  947MOL0     H27838   6.425   1.452   3.870  0.7660  0.6168  0.1667
  947MOL0     H27839   6.362   1.214   3.955  1.3694  1.0343 -0.4252
  947MOL0     H27840   6.350   1.297   4.119  0.9712  2.3238  0.6586
  947MOL0     H27841   6.616   1.270   3.965  0.8981 -0.3512  0.0008
  947MOL0     H27842   6.574   1.163   4.107  1.6538  1.8218  0.9060
  947MOL0     H27843   6.682   1.498   4.297 -2.4320  1.6152 -1.2865
  947MOL0     H27844   6.031   1.248   3.718 -0.1743  0.4234 -0.9437
  947MOL0     H27845   5.794   1.268   3.666 -0.3184  1.5298 -1.0544
  948MOL0     O27846   6.087  11.291   5.164 -0.1690  0.1235 -1.0113
  948MOL0     C27847   6.142  11.352   5.074 -0.5619  1.3114  0.1687
  948MOL0     O27848   6.099  11.357   4.938  0.6360 -0.1698  0.3625
  948MOL0     C27849   5.966  11.332   4.914  1.0358  0.5008 -0.4492
  948MOL0     C27850   5.938  11.286   4.788  0.5066  1.1787  0.0081
  948MOL0     C27851   5.808  11.253   4.744  0.8929 -0.3085  0.5950
  948MOL0     C27852   5.697  11.291   4.824  0.5684 -0.3027  0.0331
  948MOL0     O27853   5.570  11.265   4.778 -0.3864  0.0402  0.1832
  948MOL0     C27854   5.464  11.351   4.811  0.9313 -0.4694  0.4118
  948MOL0     C27855   5.349  11.285   4.901  0.1121 -0.5658 -0.5166
  948MOL0     C27856   5.298  11.144   4.844 -0.1286  0.1096 -0.1584
  948MOL0     C27857   5.250  11.150   4.697 -0.0776 -0.2512  0.5653
  948MOL0     C27858   5.130  11.252   4.666 -0.4367  0.5368  0.4725
  948MOL0     C27859   5.008  11.224   4.756  0.6070  0.0376  0.1173
  948MOL0     C27860   4.887  11.294   4.682  0.0546 -0.2911 -0.1744
  948MOL0     C27861   4.752  11.255   4.760  0.4869 -0.1251 -0.5482
  948MOL0     N27862   4.724  11.326   4.885  0.7269 -0.8092  0.3177
  948MOL0     C27863   4.706  11.460   4.892  0.0290 -0.2292  0.6324
  948MOL0     C27864   4.665  11.484   5.017 -0.2820 -1.4344  0.8828
  948MOL0     C27865   4.629  11.618   5.060  0.0245  0.4581 -0.3524
  948MOL0     C27866   4.484  11.653   5.061 -0.7884 -0.4678 -0.0287
  948MOL0     C27867   4.456  11.803   5.061 -0.6687 -0.8050  0.5104
  948MOL0     C27868   4.310  11.820   5.028 -0.5284  0.1545 -0.5745
  948MOL0     O27869   4.225  11.763   5.142  0.6481  0.9798  0.1617
  948MOL0     C27870   4.087  11.747   5.111 -0.4520  1.4619  0.2989
  948MOL0     C27871   4.019  11.644   5.174  0.3311  0.0267  0.0392
  948MOL0     C27872   3.885  11.637   5.170  1.2314 -0.5396 -0.0144
  948MOL0     C27873   3.806  11.538   5.260 -0.1321  0.0813 -0.5007
  948MOL0     C27874   3.807  11.724   5.091 -1.3201 -0.9894  0.9536
  948MOL0     C27875   3.655  11.740   5.104  0.1806  0.1272 -0.7145
  948MOL0     O27876   3.603  11.719   5.222  0.5167 -0.0037  0.7822
  948MOL0     C27877   3.473  11.769   5.242 -0.2070 -0.3056  0.0178
  948MOL0     C27878   3.362  11.690   5.253  0.1756 -0.4108 -0.3706
  948MOL0     C27879   3.230  11.743   5.258 -0.0631  0.1224  0.3730
  948MOL0     C27880   3.215  11.886   5.263 -0.1007  0.0587  0.2287
  948MOL0     O27881   3.104  11.949   5.266  0.6453 -0.2421 -1.0088
  948MOL0     C27882   2.979  11.878   5.277  1.1685 -0.4713 -0.5274
  948MOL0     C27883   2.862  11.984   5.295 -0.1929 -0.0484 -0.5927
  948MOL0     C27884   2.743  11.912   5.358 -0.7055  0.5813 -0.4092
  948MOL0     C27885   2.625  12.008   5.385 -0.6002  0.6748 -0.3241
  948MOL0     C27886   2.527  11.947   5.481 -0.6286 -0.1401 -0.0229
  948MOL0     C27887   2.581  11.939   5.627  0.3223 -0.1991 -0.0349
  948MOL0     C27888   2.462  11.948   5.729 -0.4650 -0.1028  0.8006
  948MOL0     C27889   2.335  11.864   5.694  0.4617 -0.1533  0.8519
  948MOL0    Cl27890   2.388  11.697   5.671 -0.0057  0.2915 -0.0098
  948MOL0     C27891   3.328  11.968   5.271  0.4359  0.8540 -0.0509
  948MOL0     C27892   3.455  11.909   5.251  0.0341 -0.0449 -1.2131
  948MOL0     O27893   3.598  11.771   4.995  0.1448 -0.3970  0.0686
  948MOL0     C27894   3.879  11.810   5.004 -0.7648  0.3063 -0.5343
  948MOL0     C27895   4.012  11.824   5.020 -0.7064 -0.4028 -0.0317
  948MOL0     N27896   4.644  11.361   5.084  0.4065 -0.3028 -0.4811
  948MOL0     N27897   4.680  11.270   4.998 -0.0284 -0.0273  0.2523
  948MOL0     C27898   5.719  11.332   4.962  0.1106 -0.3220  0.4243
  948MOL0     C27899   5.855  11.361   5.000 -0.0572  0.6314  0.8116
  948MOL0     C27900   6.266  11.416   5.091  0.5207 -1.8506 -0.1679
  948MOL0     C27901   6.337  11.466   4.978 -0.4518  0.1651  0.0403
  948MOL0     C27902   6.465  11.527   4.988 -0.6867  0.0379 -0.1358
  948MOL0     C27903   6.527  11.519   5.115 -0.1637 -0.0430  0.3216
  948MOL0     O27904   6.659  11.562   5.137 -0.2812  0.4974 -0.6585
  948MOL0     C27905   6.723  11.643   5.030 -0.3806  0.1666 -0.6658
  948MOL0     C27906   6.855  11.685   5.085  0.1214  0.1976 -0.2442
  948MOL0     C27907   6.841  11.797   5.192 -0.2273 -0.7766  0.1815
  948MOL0     C27908   6.964  11.835   5.265  0.0120  0.2838 -0.7747
  948MOL0     C27909   7.074  11.856   5.173 -0.0129  0.3979  1.3098
  948MOL0     C27910   7.174  11.881   5.102  1.1193 -0.0586  0.5040
  948MOL0     C27911   6.449  11.470   5.225 -0.2850 -0.2085 -1.2048
  948MOL0     C27912   6.322  11.419   5.214 -0.5053 -0.2357  0.6498
  948MOL0     H27913   6.017  11.273   4.714  0.9169  0.9166  0.4874
  948MOL0     H27914   5.791  11.216   4.644 -3.1469  3.4342 -0.4207
  948MOL0     H27915   5.508  11.436   4.864  2.3923 -1.6231  1.1646
  948MOL0     H27916   5.422  11.387   4.717  0.7788  0.6574  0.8990
  948MOL0     H27917   5.379  11.276   5.006  0.5400  0.8586 -0.4897
  948MOL0     H27918   5.274  11.365   4.897  2.7243  2.0645 -0.4926
  948MOL0     H27919   5.387  11.080   4.848  2.1309  2.9541 -0.9237
  948MOL0     H27920   5.219  11.106   4.909  0.0525  1.4661  0.9193
  948MOL0     H27921   5.334  11.163   4.629 -1.6795 -1.5121 -1.8413
  948MOL0     H27922   5.209  11.049   4.681  1.7515 -1.0006  0.3970
  948MOL0     H27923   5.154  11.358   4.684  1.9537  0.2378 -0.4868
  948MOL0     H27924   5.097  11.235   4.563  0.5196  0.1645  0.2182
  948MOL0     H27925   4.990  11.116   4.755 -1.1227  0.2590  1.7374
  948MOL0     H27926   5.026  11.263   4.857 -1.4369 -0.0260  0.5499
  948MOL0     H27927   4.910  11.400   4.670  1.7355 -0.7176 -1.0214
  948MOL0     H27928   4.866  11.257   4.581 -1.1591  1.3208 -0.5379
  948MOL0     H27929   4.754  11.145   4.761  0.0092 -0.2414 -3.6014
  948MOL0     H27930   4.676  11.285   4.688 -0.1985  2.4953  1.1406
  948MOL0     H27931   4.724  11.538   4.819  2.4460  1.1928  2.5838
  948MOL0     H27932   4.678  11.642   5.155 -2.8862 -0.2719  1.4474
  948MOL0     H27933   4.672  11.688   4.987 -2.8531  0.6132 -2.0290
  948MOL0     H27934   4.433  11.609   5.147  2.1512  0.1335  2.1834
  948MOL0     H27935   4.433  11.610   4.974 -1.6418  1.7065 -0.6763
  948MOL0     H27936   4.520  11.854   4.988  1.1995  0.4851  2.9244
  948MOL0     H27937   4.468  11.859   5.154 -0.6068  1.2846 -0.6813
  948MOL0     H27938   4.295  11.773   4.931 -1.0885 -1.7755  0.3879
  948MOL0     H27939   4.298  11.927   5.014 -1.3401  0.7462  3.3931
  948MOL0     H27940   4.079  11.585   5.242  0.0086 -1.1056 -0.6266
  948MOL0     H27941   3.863  11.447   5.284 -0.8220  0.1066  1.3618
  948MOL0     H27942   3.786  11.585   5.356 -1.2835 -0.0771 -0.6442
  948MOL0     H27943   3.709  11.501   5.226  0.0721  1.6382 -3.0625
  948MOL0     H27944   3.388  11.585   5.259  1.3769 -0.0392  1.6095
  948MOL0     H27945   3.139  11.683   5.262 -1.6186  2.1393 -1.5503
  948MOL0     H27946   2.966  11.802   5.199 -1.9354  0.7078 -1.3062
  948MOL0     H27947   2.991  11.827   5.373 -0.7487 -0.9695 -0.4984
  948MOL0     H27948   2.898  12.070   5.351 -1.1911  0.8576 -1.2911
  948MOL0     H27949   2.833  12.016   5.194 -2.4486 -0.6842 -0.2148
  948MOL0     H27950   2.781  11.851   5.441  0.5533  0.9304 -0.7124
  948MOL0     H27951   2.718  11.837   5.282  2.7985  0.9521 -2.1405
  948MOL0     H27952   2.668  12.099   5.427  1.1831 -0.3340  0.1495
  948MOL0     H27953   2.582  12.026   5.286  0.5624 -0.6009 -1.1081
  948MOL0     H27954   2.492  11.847   5.454  1.7406 -0.9895 -0.2454
  948MOL0     H27955   2.440  12.013   5.483 -1.6531 -1.4501 -0.1640
  948MOL0     H27956   2.635  11.846   5.644  0.8834  0.5638  2.9537
  948MOL0     H27957   2.656  12.016   5.649 -0.2416  0.7207 -1.2043
  948MOL0     H27958   2.430  12.053   5.727  3.8745  1.4809 -2.3541
  948MOL0     H27959   2.496  11.910   5.826  0.2373 -1.8782 -0.0954
  948MOL0     H27960   2.294  11.899   5.598  0.8931 -2.8374 -0.4068
  948MOL0     H27961   2.267  11.874   5.778  0.9092  1.4844  1.0592
  948MOL0     H27962   3.315  12.076   5.279  1.6139  0.9557  0.5795
  948MOL0     H27963   3.534  11.980   5.232  0.4606 -0.0818  0.2286
  948MOL0     H27964   3.821  11.883   4.949  0.8648  0.8439 -1.6213
  948MOL0     H27965   4.062  11.910   4.977  1.0558 -0.6604  1.3339
  948MOL0     H27966   5.646  11.354   5.039 -0.6167  2.1002 -0.8671
  948MOL0     H27967   5.881  11.413   5.092  3.3066  0.7726 -0.0697
  948MOL0     H27968   6.299  11.462   4.877  2.4481  2.4838 -1.2888
  948MOL0     H27969   6.520  11.563   4.902  1.0952 -0.1191  0.9085
  948MOL0     H27970   6.761  11.583   4.946 -0.8534  0.8669 -1.3984
  948MOL0     H27971   6.665  11.726   4.987 -0.0804 -0.1126 -1.6437
  948MOL0     H27972   6.905  11.735   5.002 -0.6279 -0.9770 -1.4503
  948MOL0     H27973   6.911  11.595   5.112 -0.1385  0.0422 -0.2173
  948MOL0     H27974   6.765  11.766   5.264 -0.4479  2.0130  1.2774
  948MOL0     H27975   6.792  11.877   5.136 -1.2999 -1.4914  0.0635
  948MOL0     H27976   6.993  11.764   5.343 -3.1197  0.7831  1.0301
  948MOL0     H27977   6.949  11.934   5.309  2.1467  0.5080 -0.4422
  948MOL0     H27978   7.258  11.900   5.039  0.8695  2.7280  0.9108
  948MOL0     H27979   6.494  11.472   5.323 -3.2231  0.3002  0.2450
  948MOL0     H27980   6.280  11.385   5.308  1.3993  1.9178  2.3995
  949MOL0     O27981   8.265   3.409  11.199 -0.0590  0.6504 -1.1090
  949MOL0     C27982   8.297   3.302  11.161  0.4606 -0.7693 -0.1975
  949MOL0     O27983   8.213   3.211  11.110  0.0436  0.5894 -0.2230
  949MOL0     C27984   8.080   3.216  11.147 -1.2514 -0.2280 -0.5139
  949MOL0     C27985   8.033   3.149  11.256  0.6335  0.6387 -0.3917
  949MOL0     C27986   7.897   3.157  11.282  0.0956 -0.1468  0.1978
  949MOL0     C27987   7.802   3.231  11.206  0.3564 -0.0597  0.5972
  949MOL0     O27988   7.666   3.228  11.223 -0.0174  0.0733  0.0704
  949MOL0     C27989   7.599   3.183  11.342 -0.9490 -0.0410 -0.0058
  949MOL0     C27990   7.455   3.161  11.311 -0.4888 -1.2455  0.6325
  949MOL0     C27991   7.357   3.129  11.426 -0.0948  0.2164 -0.6783
  949MOL0     C27992   7.218   3.098  11.374  1.0813 -0.4973  0.6836
  949MOL0     C27993   7.119   3.045  11.474  0.0317  0.1135  1.1691
  949MOL0     C27994   6.981   3.011  11.409 -1.1929  0.6091 -0.6343
  949MOL0     C27995   6.863   2.980  11.508  0.1928  0.1260  0.8515
  949MOL0     C27996   6.721   2.963  11.460  0.4836 -0.5194  0.8408
  949MOL0     N27997   6.703   2.833  11.399 -0.4450 -0.6786  1.5505
  949MOL0     C27998   6.620   2.734  11.454 -0.0688 -0.3083  0.2451
  949MOL0     C27999   6.601   2.646  11.351  0.3904  0.4408 -0.7133
  949MOL0     C28000   6.515   2.523  11.363 -0.3439  0.4162  0.3154
  949MOL0     C28001   6.378   2.543  11.307 -0.0869 -0.4867 -0.1053
  949MOL0     C28002   6.305   2.665  11.345  0.0820 -0.6384  0.3104
  949MOL0     C28003   6.179   2.680  11.249 -1.1221  0.7251  0.3288
  949MOL0     O28004   6.087   2.561  11.252  0.0291  0.0525 -0.5498
  949MOL0     C28005   5.992   2.542  11.145  0.4843 -0.0181  0.7578
  949MOL0     C28006   5.972   2.625  11.033  0.3371 -0.3480 -0.5743
  949MOL0     C28007   5.862   2.614  10.946 -0.5445  0.3364  0.5515
  949MOL0     C28008   5.859   2.720  10.838  0.2669 -0.8069 -0.4666
  949MOL0     C28009   5.784   2.495  10.961 -0.0751  0.0680 -1.0038
  949MOL0     C28010   5.666   2.465  10.871 -0.4213 -0.5637 -0.8779
  949MOL0     O28011   5.615   2.333  10.877 -0.0290 -0.2163 -0.2222
  949MOL0     C28012   5.506   2.309  10.795 -1.5249 -0.8467  0.0214
  949MOL0     C28013   5.377   2.354  10.832  0.5208  0.6545  0.8366
  949MOL0     C28014   5.264   2.341  10.751  0.0280  0.5436  1.2885
  949MOL0     C28015   5.261   2.252  10.638  0.3843  0.0790  0.4055
  949MOL0     O28016   5.148   2.227  10.561  0.0041 -0.3342  0.7267
  949MOL0     C28017   5.017   2.248  10.618  0.7803  0.2735 -0.0155
  949MOL0     C28018   4.916   2.225  10.511  0.7002  0.1234 -0.6335
  949MOL0     C28019   4.775   2.241  10.572 -0.3690  0.5815  0.0757
  949MOL0     C28020   4.668   2.197  10.478  0.1746  0.2785  0.1917
  949MOL0     C28021   4.534   2.256  10.528 -0.1311 -0.1498  0.0776
  949MOL0     C28022   4.427   2.211  10.426 -0.4503 -0.3003 -0.1964
  949MOL0     C28023   4.305   2.300  10.442 -0.4742 -0.5533 -0.0588
  949MOL0     C28024   4.179   2.229  10.389 -0.1251  0.1474  1.6445
  949MOL0    Cl28025   4.029   2.328  10.423  0.3698  0.1021  0.3144
  949MOL0     C28026   5.384   2.198  10.604 -0.4725 -0.2463 -0.1110
  949MOL0     C28027   5.503   2.217  10.683 -0.4669  0.3046 -0.5863
  949MOL0     O28028   5.625   2.554  10.797  0.4268 -0.4243  0.7614
  949MOL0     C28029   5.826   2.400  11.060  0.4773  0.3692 -0.6760
  949MOL0     C28030   5.930   2.425  11.147  0.1511 -0.3211  0.2385
  949MOL0     N28031   6.673   2.686  11.246 -0.7339 -0.2583 -0.5666
  949MOL0     N28032   6.730   2.797  11.275 -0.5066  0.0717  0.3398
  949MOL0     C28033   7.857   3.301  11.099  0.6998 -0.6990 -0.2624
  949MOL0     C28034   7.993   3.291  11.069  1.0085 -0.1126  0.0745
  949MOL0     C28035   8.439   3.261  11.180  0.5558 -0.1691  0.1543
  949MOL0     C28036   8.496   3.153  11.117 -0.3566  0.2198  0.8307
  949MOL0     C28037   8.633   3.121  11.115 -0.1130  0.1286 -0.5258
  949MOL0     C28038   8.720   3.200  11.196 -0.3941  0.2418 -0.4833
  949MOL0     O28039   8.859   3.184  11.196 -0.1182  0.3535  0.4442
  949MOL0     C28040   8.923   3.075  11.125  0.8717 -0.0528 -0.0512
  949MOL0     C28041   9.063   3.045  11.187  0.0843 -0.9860 -0.0211
  949MOL0     C28042   9.134   2.925  11.119  0.4267  0.6022 -0.2094
  949MOL0     C28043   9.282   2.932  11.145  1.2469 -0.8068  0.2173
  949MOL0     C28044   9.297   2.911  11.289 -0.0176 -0.2200  0.3881
  949MOL0     C28045   9.316   2.901  11.410  0.9017 -0.0089  0.9525
  949MOL0     C28046   8.665   3.300  11.274 -0.1495  0.6863 -0.0844
  949MOL0     C28047   8.527   3.331  11.261  0.3963 -0.7573  0.5362
  949MOL0     H28048   8.114   3.098  11.307  3.0145  4.1555 -0.3107
  949MOL0     H28049   7.871   3.104  11.373  2.7119 -0.7424  0.6944
  949MOL0     H28050   7.648   3.099  11.391  0.0730 -0.2961 -1.3952
  949MOL0     H28051   7.602   3.261  11.419  5.3241  1.7343 -1.4181
  949MOL0     H28052   7.404   3.243  11.259 -0.5930 -0.6183  1.7089
  949MOL0     H28053   7.466   3.073  11.246 -2.2840  0.2698 -1.9474
  949MOL0     H28054   7.401   3.042  11.475 -2.2990 -0.8921 -0.5467
  949MOL0     H28055   7.365   3.216  11.491  0.1884 -0.7446  0.5970
  949MOL0     H28056   7.177   3.194  11.343 -1.8809 -1.5932  0.9085
  949MOL0     H28057   7.228   3.029  11.289 -0.3940  0.5528 -0.3888
  949MOL0     H28058   7.166   2.961  11.527  2.7565 -2.0124 -3.8901
  949MOL0     H28059   7.090   3.128  11.538 -1.9580  1.0938 -0.8907
  949MOL0     H28060   6.943   3.094  11.348 -2.7368 -0.1349 -0.7189
  949MOL0     H28061   6.991   2.922  11.348 -1.2484 -0.3056  0.6545
  949MOL0     H28062   6.891   2.885  11.556 -0.4463 -0.2489  0.4941
  949MOL0     H28063   6.873   3.065  11.577  0.6607  1.9618 -1.3736
  949MOL0     H28064   6.697   3.043  11.390  0.2505 -1.1707  0.1556
  949MOL0     H28065   6.651   2.968  11.545 -0.5048  1.7856 -0.0460
  949MOL0     H28066   6.588   2.741  11.557 -0.2778  0.9758  0.1181
  949MOL0     H28067   6.570   2.445  11.310  1.1154  1.4884  0.1802
  949MOL0     H28068   6.519   2.497  11.469  0.7769  1.9744  0.6795
  949MOL0     H28069   6.317   2.453  11.323  1.2451 -1.6728 -1.3923
  949MOL0     H28070   6.407   2.549  11.202  3.0789 -1.5616  0.6143
  949MOL0     H28071   6.358   2.758  11.323 -1.9751 -0.0106 -2.7600
  949MOL0     H28072   6.278   2.674  11.450 -2.9833  1.6750 -0.5454
  949MOL0     H28073   6.223   2.698  11.150  0.1234  1.0853  0.9281
  949MOL0     H28074   6.116   2.763  11.282  0.6556  1.4508  2.1017
  949MOL0     H28075   6.043   2.705  11.014 -1.3977  1.2564 -0.5412
  949MOL0     H28076   5.806   2.809  10.874 -2.0861 -2.1800 -0.3578
  949MOL0     H28077   5.959   2.752  10.805  1.1230 -2.0679  0.7846
  949MOL0     H28078   5.808   2.681  10.750 -2.7551 -0.1319  0.8561
  949MOL0     H28079   5.360   2.413  10.922  1.9576  1.4422  0.6287
  949MOL0     H28080   5.178   2.397  10.787  0.6407  2.2438  0.2491
  949MOL0     H28081   4.999   2.187  10.706  1.2047 -0.5824 -0.5129
  949MOL0     H28082   5.004   2.352  10.652  0.3612 -0.4304  2.1191
  949MOL0     H28083   4.928   2.300  10.432 -2.2875  1.2744 -0.1212
  949MOL0     H28084   4.931   2.128  10.462 -1.6292 -0.0588 -1.0860
  949MOL0     H28085   4.754   2.344  10.601 -1.5257 -0.0787  1.7534
  949MOL0     H28086   4.759   2.177  10.660 -1.6386  1.1087  0.2460
  949MOL0     H28087   4.686   2.226  10.374  1.5860 -2.2749 -0.3548
  949MOL0     H28088   4.662   2.088  10.476  4.0262 -0.1056  1.6571
  949MOL0     H28089   4.533   2.364  10.516 -2.3690 -0.4338 -3.9343
  949MOL0     H28090   4.511   2.229  10.632 -1.6280 -0.9558 -0.4386
  949MOL0     H28091   4.459   2.211  10.322  1.5965 -0.4437  0.3939
  949MOL0     H28092   4.402   2.106  10.443 -3.8252  0.2816 -0.7974
  949MOL0     H28093   4.313   2.401  10.400 -2.9934  0.2783  1.2110
  949MOL0     H28094   4.291   2.314  10.549 -0.4183  0.6468 -0.1934
  949MOL0     H28095   4.167   2.130  10.433 -3.4636 -1.6160 -2.4924
  949MOL0     H28096   4.192   2.213  10.281 -2.6501  3.2719  0.7268
  949MOL0     H28097   5.398   2.125  10.524  0.9435  0.1238 -0.2284
  949MOL0     H28098   5.594   2.169  10.648  1.4762  1.7540  2.0696
  949MOL0     H28099   5.764   2.312  11.072  0.0870  0.6449 -0.6409
  949MOL0     H28100   5.962   2.344  11.212 -1.1641 -0.4766  0.7250
  949MOL0     H28101   7.790   3.351  11.029 -0.0199 -2.7625 -1.1390
  949MOL0     H28102   8.026   3.313  10.968  2.6364  2.7680  1.1238
  949MOL0     H28103   8.440   3.090  11.049 -0.5382  0.2166  0.9788
  949MOL0     H28104   8.678   3.040  11.058 -1.5484 -2.9509  2.3823
  949MOL0     H28105   8.857   2.989  11.126  0.1838  0.4001 -1.8517
  949MOL0     H28106   8.926   3.103  11.019  1.1719  2.2360  0.5075
  949MOL0     H28107   9.042   3.022  11.292  1.9771 -1.3139  0.3077
  949MOL0     H28108   9.128   3.132  11.186 -0.9408 -0.1920 -0.8666
  949MOL0     H28109   9.113   2.931  11.012 -1.7875 -1.0836  0.0697
  949MOL0     H28110   9.091   2.830  11.151 -0.6587  0.2894 -2.4507
  949MOL0     H28111   9.321   3.030  11.117 -1.7782  1.6947  3.7801
  949MOL0     H28112   9.349   2.855  11.105  0.5679 -1.6591  0.6903
  949MOL0     H28113   9.341   2.907  11.514  0.7495 -1.1161  1.0621
  949MOL0     H28114   8.726   3.366  11.335  1.4765 -0.2385 -0.6739
  949MOL0     H28115   8.492   3.413  11.323 -0.1409 -0.8844  0.4054
  950MOL0     O28116   4.277   9.344   6.715  0.5525 -0.3372 -0.0737
  950MOL0     C28117   4.321   9.254   6.648  0.6685  0.9593  0.5747
  950MOL0     O28118   4.263   9.190   6.549  0.2519 -0.4359 -0.1237
  950MOL0     C28119   4.143   9.238   6.500  0.1530  0.0987  0.3755
  950MOL0     C28120   4.129   9.262   6.361 -0.2451 -0.4033 -0.6729
  950MOL0     C28121   4.007   9.313   6.305 -0.0661  0.2128  0.2218
  950MOL0     C28122   3.889   9.303   6.381  0.0068 -0.5682 -0.4528
  950MOL0     O28123   3.774   9.318   6.310 -0.3378 -0.4238 -0.1027
  950MOL0     C28124   3.660   9.379   6.375 -0.4248  0.3929  0.0903
  950MOL0     C28125   3.544   9.375   6.278 -0.6471 -0.3346  0.0894
  950MOL0     C28126   3.406   9.395   6.343  0.5665 -0.8527 -0.4854
  950MOL0     C28127   3.391   9.536   6.403 -0.6135 -0.5629 -0.0631
  950MOL0     C28128   3.249   9.569   6.454  0.0056 -0.2408  0.8728
  950MOL0     C28129   3.144   9.562   6.339  0.2583  0.5189 -0.2078
  950MOL0     C28130   3.017   9.630   6.371 -0.4447 -0.0197 -0.8655
  950MOL0     C28131   2.919   9.526   6.429  0.2287 -0.1367 -0.2642
  950MOL0     N28132   2.800   9.595   6.470  0.4883  0.7609  0.8955
  950MOL0     C28133   2.681   9.566   6.404  0.4370  0.3496  0.1987
  950MOL0     C28134   2.587   9.617   6.480 -0.1020  0.6174 -0.4460
  950MOL0     C28135   2.440   9.624   6.457 -0.0457  0.7002 -0.6697
  950MOL0     C28136   2.409   9.740   6.365  0.4809  0.2156  0.1420
  950MOL0     C28137   2.261   9.759   6.326  0.5990 -0.1301 -0.1771
  950MOL0     C28138   2.258   9.890   6.246  0.7026  0.3739  0.0040
  950MOL0     O28139   2.130   9.943   6.228  0.0443  0.1394 -0.5805
  950MOL0     C28140   2.112  10.081   6.203 -0.1442 -0.7128 -0.5398
  950MOL0     C28141   2.213  10.176   6.202 -0.1725  0.1785 -0.1314
  950MOL0     C28142   2.176  10.319   6.204 -0.1717  1.1226  0.1137
  950MOL0     C28143   2.286  10.427   6.227  0.5146 -0.1337  0.6278
  950MOL0     C28144   2.044  10.358   6.202 -0.6004  0.1199 -0.2534
  950MOL0     C28145   1.993  10.503   6.214 -0.9746  0.0653 -0.1325
  950MOL0     O28146   1.866  10.515   6.269 -0.1587  0.0007  0.4267
  950MOL0     C28147   1.803  10.634   6.277  0.6954  0.1623 -0.9238
  950MOL0     C28148   1.813  10.748   6.190 -0.8417  0.2756  0.2394
  950MOL0     C28149   1.724  10.855   6.193 -0.5474 -0.1843  0.5031
  950MOL0     C28150   1.641  10.863   6.302  0.5522  0.3645  0.6498
  950MOL0     O28151   1.563  10.969   6.322  0.5522  0.2380  0.0722
  950MOL0     C28152   1.632  11.096   6.298 -0.1441  0.5869 -0.1749
  950MOL0     C28153   1.576  11.229   6.358  0.1207  0.0577  0.6661
  950MOL0     C28154   1.422  11.220   6.360 -1.1047 -0.5355  0.4025
  950MOL0     C28155   1.362  11.347   6.413 -0.0495 -1.0947  0.1787
  950MOL0     C28156   1.215  11.326   6.429 -0.5732 -0.1248  0.6421
  950MOL0     C28157   1.139  11.439   6.491  0.6630  0.1899  0.0711
  950MOL0     C28158   0.998  11.440   6.428  0.2252  0.1641  0.1333
  950MOL0     C28159   0.900  11.516   6.518 -0.2327 -0.0218 -0.7019
  950MOL0    Cl28160   0.730  11.502   6.462 -0.3208  0.5990 -0.0476
  950MOL0     C28161   1.618  10.757   6.383 -0.4041  0.2662 -0.7898
  950MOL0     C28162   1.694  10.643   6.369  0.2058 -0.5168 -0.3167
  950MOL0     O28163   2.063  10.594   6.165  0.4832 -0.6099  0.0662
  950MOL0     C28164   1.949  10.260   6.196  0.1282  0.4893 -0.4065
  950MOL0     C28165   1.978  10.127   6.198  0.4225 -0.4840  0.5146
  950MOL0     N28166   2.650   9.666   6.592 -0.3565 -0.8917 -0.6681
  950MOL0     N28167   2.778   9.657   6.587 -0.4464 -0.4780  0.2188
  950MOL0     C28168   3.895   9.269   6.520  0.1384 -0.0892  0.0874
  950MOL0     C28169   4.021   9.239   6.573  0.8758 -0.4356  0.1709
  950MOL0     C28170   4.457   9.209   6.677 -0.3122  0.7913 -0.6885
  950MOL0     C28171   4.535   9.271   6.773  0.0910 -0.1720 -0.2884
  950MOL0     C28172   4.660   9.226   6.807 -1.0858  0.1208 -0.4114
  950MOL0     C28173   4.717   9.110   6.744  0.2691 -0.3167  0.8500
  950MOL0     O28174   4.847   9.091   6.766  0.2811 -0.2183 -0.8869
  950MOL0     C28175   4.894   9.071   6.902  0.3010 -0.1359  0.4342
  950MOL0     C28176   5.037   9.022   6.920 -1.5817 -0.3084 -0.3834
  950MOL0     C28177   5.153   9.095   6.833 -0.3188  0.8009  0.3132
  950MOL0     C28178   5.270   9.140   6.923 -0.5821  0.3020  0.9184
  950MOL0     C28179   5.392   9.168   6.847 -0.0082  0.0559  0.2700
  950MOL0     C28180   5.502   9.171   6.789  0.6284 -0.0920  0.6794
  950MOL0     C28181   4.643   9.049   6.642 -0.2905  0.3000  0.0664
  950MOL0     C28182   4.513   9.095   6.619 -1.0401  0.0224  0.1226
  950MOL0     H28183   4.228   9.259   6.317  1.4960  1.8160  2.6356
  950MOL0     H28184   4.003   9.351   6.203  1.7233 -1.0929 -0.3978
  950MOL0     H28185   3.622   9.332   6.465  0.4942 -0.5749 -0.0011
  950MOL0     H28186   3.684   9.481   6.407 -0.0687  0.1858  0.4897
  950MOL0     H28187   3.567   9.451   6.202 -0.3807 -0.4345  0.0698
  950MOL0     H28188   3.545   9.272   6.242 -2.1735 -2.1584  4.5420
  950MOL0     H28189   3.334   9.392   6.261  1.7799 -1.5436 -1.5714
  950MOL0     H28190   3.384   9.316   6.415 -3.3991  0.2345 -0.2853
  950MOL0     H28191   3.463   9.539   6.484  0.7028  1.3136 -1.2344
  950MOL0     H28192   3.434   9.607   6.332 -0.5496  0.4189  0.9403
  950MOL0     H28193   3.210   9.506   6.534  0.5348 -0.5450  0.8995
  950MOL0     H28194   3.259   9.673   6.487 -0.4355  1.0050 -2.5429
  950MOL0     H28195   3.172   9.620   6.251 -0.2101  0.5580 -0.3340
  950MOL0     H28196   3.116   9.464   6.299  0.2812  1.5306 -2.8472
  950MOL0     H28197   3.029   9.700   6.455 -1.3012 -0.9628  0.0809
  950MOL0     H28198   2.975   9.697   6.295  2.9048  3.3982 -0.0370
  950MOL0     H28199   2.974   9.484   6.513  1.0487 -0.8262 -1.1221
  950MOL0     H28200   2.903   9.462   6.341  3.5488 -0.7501 -0.5288
  950MOL0     H28201   2.670   9.510   6.311 -0.1340 -1.4220  1.2821
  950MOL0     H28202   2.413   9.527   6.417  2.1437  0.3326 -1.3729
  950MOL0     H28203   2.395   9.647   6.555  1.7715 -1.0136  0.6438
  950MOL0     H28204   2.471   9.721   6.276  3.5745  1.8850  1.7751
  950MOL0     H28205   2.445   9.837   6.399  1.6935  0.9018 -2.8182
  950MOL0     H28206   2.197   9.776   6.413  0.3453  1.6206 -0.6604
  950MOL0     H28207   2.231   9.672   6.267  0.0154 -0.1487  0.1400
  950MOL0     H28208   2.303   9.892   6.147  1.0023  1.3564  0.1445
  950MOL0     H28209   2.312   9.960   6.311  0.4886 -0.9113  1.6498
  950MOL0     H28210   2.318  10.150   6.201  0.6063  2.9436 -0.0377
  950MOL0     H28211   2.251  10.482   6.315 -0.7819  2.5556 -1.4121
  950MOL0     H28212   2.386  10.390   6.249  1.9859  2.6338 -0.8557
  950MOL0     H28213   2.287  10.505   6.151 -2.8292 -1.1909 -0.6947
  950MOL0     H28214   1.882  10.734   6.107 -0.2937 -2.6792  1.0830
  950MOL0     H28215   1.721  10.923   6.109 -1.2731 -0.8581 -0.0315
  950MOL0     H28216   1.731  11.086   6.344 -0.0135 -0.5459 -0.6681
  950MOL0     H28217   1.628  11.121   6.191 -1.2642 -0.5078 -0.4150
  950MOL0     H28218   1.610  11.227   6.462  1.1134  1.2257  0.3857
  950MOL0     H28219   1.607  11.317   6.302  0.9989  0.5516  1.8773
  950MOL0     H28220   1.402  11.137   6.427  1.5208 -0.5786  1.2466
  950MOL0     H28221   1.376  11.199   6.263  0.5515  0.2863 -0.6161
  950MOL0     H28222   1.410  11.374   6.508 -0.9560  4.8972 -0.6831
  950MOL0     H28223   1.386  11.431   6.348 -1.8908 -1.1501 -0.6459
  950MOL0     H28224   1.208  11.242   6.500  1.2920 -2.6137 -1.8703
  950MOL0     H28225   1.168  11.295   6.335  0.8074  0.5633 -0.3162
  950MOL0     H28226   1.121  11.418   6.597  0.1733 -2.1126 -0.4016
  950MOL0     H28227   1.182  11.537   6.469 -0.9745  0.7359 -0.8427
  950MOL0     H28228   0.964  11.341   6.397  2.7621 -0.5509 -0.5916
  950MOL0     H28229   1.019  11.503   6.342  0.9191  0.6202  0.6205
  950MOL0     H28230   0.922  11.623   6.513 -2.5329  0.8505  3.6329
  950MOL0     H28231   0.906  11.485   6.622 -1.2424  2.5353  0.2134
  950MOL0     H28232   1.553  10.779   6.467  1.5072  0.0802  0.8081
  950MOL0     H28233   1.678  10.548   6.419 -0.0136 -2.1118 -3.1501
  950MOL0     H28234   1.841  10.276   6.197  0.0102  0.1370 -2.7191
  950MOL0     H28235   1.903  10.049   6.202 -0.1490  0.0974  3.6805
  950MOL0     H28236   3.805   9.270   6.581  0.8409  0.9899  1.1620
  950MOL0     H28237   4.020   9.209   6.677 -1.2503 -0.0731  0.3058
  950MOL0     H28238   4.484   9.356   6.816  0.7005  0.7405 -1.3235
  950MOL0     H28239   4.730   9.275   6.873  0.2842  0.0981 -1.7687
  950MOL0     H28240   4.899   9.171   6.946  0.6801  1.2108 -2.4332
  950MOL0     H28241   4.821   9.020   6.964 -0.7430  0.3532 -0.3508
  950MOL0     H28242   5.055   8.915   6.910  2.9762  0.2362 -0.1323
  950MOL0     H28243   5.065   9.035   7.025 -0.6793 -2.8492 -0.2453
  950MOL0     H28244   5.118   9.186   6.783 -0.6338 -0.5901 -2.1675
  950MOL0     H28245   5.179   9.017   6.761  2.3300  0.0155  1.9954
  950MOL0     H28246   5.296   9.071   7.004  3.2407  2.2349  1.5763
  950MOL0     H28247   5.228   9.232   6.963 -1.3807  1.1694 -1.7114
  950MOL0     H28248   5.596   9.159   6.739 -0.2681 -0.7710 -0.9320
  950MOL0     H28249   4.674   8.960   6.590  0.4422  0.1408  0.7636
  950MOL0     H28250   4.452   9.037   6.551 -1.8438 -2.6854  2.9419
  951MOL0     O28251   7.333   5.661   8.540  0.5502 -0.9724 -0.6736
  951MOL0     C28252   7.341   5.780   8.557  0.5550 -0.2248  0.0478
  951MOL0     O28253   7.234   5.868   8.546 -0.0092  0.6922 -0.2940
  951MOL0     C28254   7.119   5.814   8.522 -0.1744 -0.1951 -0.0855
  951MOL0     C28255   7.071   5.823   8.391  0.2593 -0.5634 -0.0379
  951MOL0     C28256   6.957   5.751   8.361 -0.1606  0.0646  0.2204
  951MOL0     C28257   6.888   5.666   8.453 -0.0205 -0.3412 -0.3567
  951MOL0     O28258   6.768   5.614   8.410  0.1564  0.1726 -1.1384
  951MOL0     C28259   6.681   5.567   8.512 -0.3310  0.7348 -0.8003
  951MOL0     C28260   6.552   5.527   8.446  0.0237  0.9168  0.2538
  951MOL0     C28261   6.479   5.411   8.500 -0.0893 -0.4685  0.1492
  951MOL0     C28262   6.410   5.433   8.637 -0.0570 -0.1531  0.5431
  951MOL0     C28263   6.355   5.318   8.716 -0.0454  0.5128 -0.4327
  951MOL0     C28264   6.273   5.219   8.633  0.0861 -0.7742 -0.5058
  951MOL0     C28265   6.206   5.104   8.716  0.1165 -0.0288 -0.2424
  951MOL0     C28266   6.122   5.016   8.622  1.4336 -0.0231  0.2320
  951MOL0     N28267   6.079   4.889   8.680 -0.0203 -0.1916 -0.6371
  951MOL0     C28268   5.954   4.862   8.731 -0.3817  0.8967  0.1010
  951MOL0     C28269   5.963   4.728   8.766 -0.7501 -0.5769  0.5573
  951MOL0     C28270   5.861   4.631   8.817  0.6287 -0.1377  0.5848
  951MOL0     C28271   5.714   4.682   8.806  0.5146 -0.4946  0.2723
  951MOL0     C28272   5.652   4.680   8.661  0.0136 -0.5386  0.0065
  951MOL0     C28273   5.527   4.750   8.661 -0.5986 -0.5064 -0.1539
  951MOL0     O28274   5.441   4.657   8.728 -0.2002  0.4155 -0.5706
  951MOL0     C28275   5.330   4.719   8.790  0.5252  0.5121 -0.0570
  951MOL0     C28276   5.249   4.625   8.852  0.7205 -0.3086  0.8547
  951MOL0     C28277   5.124   4.660   8.913  0.3033 -0.1458  0.3128
  951MOL0     C28278   5.043   4.557   8.979  0.2315 -0.2024  0.2978
  951MOL0     C28279   5.084   4.797   8.908 -0.3571 -0.3744  0.5060
  951MOL0     C28280   4.958   4.852   8.971  0.3351 -0.2040  0.7456
  951MOL0     O28281   4.905   4.963   8.906  0.2234 -0.0647 -0.4828
  951MOL0     C28282   4.799   5.036   8.957  0.0954 -0.4968  0.5533
  951MOL0     C28283   4.691   4.991   9.039 -0.7511  0.0872  0.1309
  951MOL0     C28284   4.594   5.077   9.078  0.1365 -0.0534 -0.1756
  951MOL0     C28285   4.591   5.208   9.043 -0.1308  0.4737  0.5454
  951MOL0     O28286   4.508   5.300   9.102 -0.6447 -0.1051 -0.1149
  951MOL0     C28287   4.397   5.257   9.195 -0.0700  0.0823  0.5011
  951MOL0     C28288   4.306   5.386   9.199  0.0196  1.3464 -1.3881
  951MOL0     C28289   4.376   5.496   9.291 -0.0637 -0.2484  0.3149
  951MOL0     C28290   4.322   5.505   9.429 -0.0930  0.3256 -0.4983
  951MOL0     C28291   4.283   5.652   9.459  0.5448  0.0776 -0.3953
  951MOL0     C28292   4.210   5.695   9.587 -0.5661 -0.4661  0.0205
  951MOL0     C28293   4.316   5.692   9.700  0.1212  0.2479  0.1945
  951MOL0     C28294   4.270   5.753   9.827 -0.7470 -0.6056  0.9998
  951MOL0    Cl28295   4.123   5.666   9.889 -0.1155  0.1052  0.4374
  951MOL0     C28296   4.691   5.262   8.968 -0.3884  0.0594 -0.2818
  951MOL0     C28297   4.795   5.176   8.921 -0.2264  0.0106 -0.7052
  951MOL0     O28298   4.918   4.807   9.077 -0.3944 -0.0151  0.3923
  951MOL0     C28299   5.168   4.892   8.840 -0.2085 -0.4348 -0.2536
  951MOL0     C28300   5.288   4.853   8.787 -0.6378  0.0669 -0.0947
  951MOL0     N28301   6.096   4.684   8.754 -0.4408 -0.5600 -0.0501
  951MOL0     N28302   6.155   4.782   8.701 -0.5149  0.5293 -0.4628
  951MOL0     C28303   6.943   5.662   8.584  0.1249  0.0273  0.7588
  951MOL0     C28304   7.054   5.738   8.619  0.6543  1.2763  0.2567
  951MOL0     C28305   7.484   5.831   8.589  0.4973 -0.7183 -0.0451
  951MOL0     C28306   7.585   5.734   8.621  0.0310  0.1587 -0.3361
  951MOL0     C28307   7.711   5.782   8.647 -0.1644 -0.1944  0.8332
  951MOL0     C28308   7.740   5.921   8.650 -0.1688 -0.7915  0.2639
  951MOL0     O28309   7.867   5.979   8.674 -0.1504 -0.1616  0.7468
  951MOL0     C28310   7.969   5.916   8.748  0.5416  0.5232 -0.6760
  951MOL0     C28311   8.082   6.008   8.746  0.1282 -0.5794 -0.5303
  951MOL0     C28312   8.196   5.942   8.816  0.4074  0.1737 -0.0087
  951MOL0     C28313   8.291   6.048   8.874 -0.1571 -0.4985  0.5147
  951MOL0     C28314   8.344   6.140   8.772 -0.6893  0.4433 -0.3326
  951MOL0     C28315   8.394   6.208   8.683 -0.0596  0.9132  0.0028
  951MOL0     C28316   7.637   6.012   8.616 -0.0066  0.1063 -0.5204
  951MOL0     C28317   7.509   5.965   8.581  0.5879 -0.2822  0.6829
  951MOL0     H28318   7.119   5.870   8.306  0.6514 -0.6582  0.1280
  951MOL0     H28319   6.933   5.753   8.255  2.2110 -0.1065 -0.3830
  951MOL0     H28320   6.724   5.474   8.552  2.1009  2.9739  2.3019
  951MOL0     H28321   6.663   5.627   8.602  0.8982 -2.1938  1.5775
  951MOL0     H28322   6.483   5.610   8.427 -0.1069  0.0982 -3.6393
  951MOL0     H28323   6.572   5.497   8.343  0.9796  1.3770  0.2940
  951MOL0     H28324   6.409   5.366   8.429 -0.6724 -1.3577  1.2423
  951MOL0     H28325   6.556   5.338   8.526  2.3287  2.2214  1.1069
  951MOL0     H28326   6.472   5.497   8.701  0.0766  0.9488 -0.6690
  951MOL0     H28327   6.325   5.492   8.603  0.5663 -0.9518 -2.7290
  951MOL0     H28328   6.426   5.264   8.780 -1.1126 -0.9135 -0.3914
  951MOL0     H28329   6.282   5.361   8.785 -1.6884 -1.0414 -1.1170
  951MOL0     H28330   6.200   5.278   8.577  0.9376 -0.3460 -1.1877
  951MOL0     H28331   6.348   5.173   8.568  0.3770 -2.6451  1.0581
  951MOL0     H28332   6.273   5.037   8.771 -1.5986 -2.2760 -0.7432
  951MOL0     H28333   6.147   5.159   8.790  0.4595  1.3126 -0.9344
  951MOL0     H28334   6.191   5.001   8.538  0.2262 -1.4879 -0.5274
  951MOL0     H28335   6.027   5.061   8.591  2.0966  0.4711 -1.1922
  951MOL0     H28336   5.860   4.917   8.738 -0.7987  0.0030  3.2564
  951MOL0     H28337   5.861   4.546   8.747  0.4461  2.3387 -2.6976
  951MOL0     H28338   5.875   4.592   8.918  2.2574 -2.1923 -0.3380
  951MOL0     H28339   5.705   4.780   8.854  1.8571  0.0653 -0.5598
  951MOL0     H28340   5.641   4.621   8.861 -1.4418  1.7477  0.3426
  951MOL0     H28341   5.636   4.578   8.627 -0.7892 -0.4709  0.1614
  951MOL0     H28342   5.707   4.742   8.589 -0.6632 -0.3224 -0.3381
  951MOL0     H28343   5.489   4.771   8.560 -1.7819 -2.7365 -0.2391
  951MOL0     H28344   5.542   4.840   8.721  0.5913 -2.8576  3.3379
  951MOL0     H28345   5.271   4.518   8.856 -0.8157 -0.7482 -0.8936
  951MOL0     H28346   5.079   4.455   8.967  1.6792  0.5500 -2.7798
  951MOL0     H28347   5.021   4.581   9.084 -2.9000 -0.8889 -0.1046
  951MOL0     H28348   4.944   4.538   8.937  0.7819  1.2221 -1.7888
  951MOL0     H28349   4.694   4.885   9.059 -1.0366  0.2756  1.2717
  951MOL0     H28350   4.517   5.042   9.146  1.1644  0.3248  1.2097
  951MOL0     H28351   4.340   5.170   9.163 -1.3922  0.5415  1.5250
  951MOL0     H28352   4.430   5.235   9.297 -1.5974 -1.3802  0.7059
  951MOL0     H28353   4.298   5.436   9.102 -1.8362  0.3578 -1.7835
  951MOL0     H28354   4.203   5.369   9.231  0.2069  0.7561 -1.0732
  951MOL0     H28355   4.360   5.590   9.238 -2.5097 -0.4159  0.6549
  951MOL0     H28356   4.484   5.479   9.303 -0.2411 -1.1173  0.7208
  951MOL0     H28357   4.228   5.450   9.444 -0.1683  0.7051  0.5570
  951MOL0     H28358   4.397   5.460   9.494 -0.3287  0.0533 -0.4106
  951MOL0     H28359   4.208   5.676   9.383  0.2168  1.1491  0.2427
  951MOL0     H28360   4.377   5.707   9.451 -0.4976  1.8156 -1.5381
  951MOL0     H28361   4.166   5.795   9.579  0.4022  0.0687  1.2054
  951MOL0     H28362   4.129   5.626   9.613 -1.8099 -0.2280 -2.8049
  951MOL0     H28363   4.410   5.733   9.663 -0.3368  3.5640  2.2970
  951MOL0     H28364   4.339   5.588   9.728  0.1946  0.3141  0.3778
  951MOL0     H28365   4.258   5.861   9.828 -0.1464 -0.5167 -0.2060
  951MOL0     H28366   4.354   5.742   9.896  0.5881 -1.7760 -0.7389
  951MOL0     H28367   4.688   5.370   8.952 -1.4411  0.8256  3.8863
  951MOL0     H28368   4.870   5.236   8.870 -1.0590  0.2465 -1.6696
  951MOL0     H28369   5.139   4.996   8.834  0.5505 -0.1425  0.8376
  951MOL0     H28370   5.356   4.921   8.737 -1.3226  1.0796  0.3202
  951MOL0     H28371   6.895   5.593   8.653  0.7098 -1.4013 -0.1983
  951MOL0     H28372   7.096   5.730   8.719 -4.1400 -0.4854  2.4092
  951MOL0     H28373   7.560   5.629   8.635  0.1911  0.4650  3.2930
  951MOL0     H28374   7.782   5.701   8.653 -0.9245 -0.9439  0.1329
  951MOL0     H28375   7.946   5.900   8.853  1.6603  1.6486 -0.2466
  951MOL0     H28376   7.991   5.819   8.701  0.9438  1.0232 -1.5434
  951MOL0     H28377   8.052   6.104   8.790  1.4231 -1.2276  1.9628
  951MOL0     H28378   8.110   6.039   8.645  0.7697  1.6065  0.2643
  951MOL0     H28379   8.256   5.868   8.763  0.2668 -2.7532  3.4480
  951MOL0     H28380   8.158   5.877   8.896  3.4561 -0.3921  1.1408
  951MOL0     H28381   8.377   6.007   8.928 -1.3370  0.4026  3.2792
  951MOL0     H28382   8.231   6.101   8.948 -0.4382  0.9117 -0.6884
  951MOL0     H28383   8.457   6.257   8.611  0.3935 -0.4298 -0.5380
  951MOL0     H28384   7.662   6.118   8.616  0.7047 -0.0423  0.7087
  951MOL0     H28385   7.422   6.022   8.552 -0.3872 -1.1862  1.7201
  952MOL0     O28386   9.081   7.958   1.879 -0.3734  0.4596 -0.4865
  952MOL0     C28387   9.158   7.963   1.971 -0.1745  0.1309 -0.6011
  952MOL0     O28388   9.141   7.915   2.086  0.0800  0.5255 -0.1308
  952MOL0     C28389   9.037   7.824   2.117  0.0281  0.1347 -0.0361
  952MOL0     C28390   8.998   7.718   2.031  0.4865  0.0458 -0.7307
  952MOL0     C28391   8.892   7.633   2.068  1.2572  0.1426  0.1144
  952MOL0     C28392   8.845   7.640   2.201  0.5789 -0.0878 -0.0003
  952MOL0     O28393   8.754   7.552   2.255 -0.0149 -0.2076 -0.2710
  952MOL0     C28394   8.735   7.415   2.218  0.1208  0.3296  0.5751
  952MOL0     C28395   8.586   7.385   2.248  0.2575  0.1422 -0.0100
  952MOL0     C28396   8.554   7.235   2.233 -0.2912  1.0073 -0.0976
  952MOL0     C28397   8.405   7.210   2.214  0.6141 -1.0042  0.0797
  952MOL0     C28398   8.373   7.076   2.275  0.7906 -0.4857  0.5633
  952MOL0     C28399   8.224   7.043   2.255  0.2700  0.1809 -0.5815
  952MOL0     C28400   8.129   7.119   2.348 -0.1661  0.7287  0.1393
  952MOL0     C28401   7.988   7.098   2.299  0.3977 -0.1299  0.2903
  952MOL0     N28402   7.932   7.210   2.231 -0.1421 -0.8327  0.6927
  952MOL0     C28403   7.911   7.219   2.093  0.6311 -0.3252 -0.3421
  952MOL0     C28404   7.875   7.348   2.077 -0.0311  0.4220 -0.0572
  952MOL0     C28405   7.844   7.425   1.947 -0.2947  0.1399  0.6409
  952MOL0     C28406   7.715   7.357   1.879 -0.0976  0.1653  0.0434
  952MOL0     C28407   7.724   7.406   1.733 -0.1720  0.4005  0.5562
  952MOL0     C28408   7.612   7.359   1.641  0.0746  0.4850 -0.5058
  952MOL0     O28409   7.674   7.304   1.535 -0.0770 -0.2968  0.4038
  952MOL0     C28410   7.598   7.268   1.427 -0.5397 -0.1200 -0.3035
  952MOL0     C28411   7.673   7.222   1.320 -0.0202  0.5545  0.2165
  952MOL0     C28412   7.611   7.184   1.203 -0.1005  0.9367 -0.4211
  952MOL0     C28413   7.705   7.141   1.098 -0.2882  0.6964 -0.7188
  952MOL0     C28414   7.471   7.202   1.191  0.0261 -0.0521 -0.5049
  952MOL0     C28415   7.402   7.172   1.072  0.4108  0.0007  0.1764
  952MOL0     O28416   7.282   7.243   1.065  0.4311 -0.1123 -0.3087
  952MOL0     C28417   7.213   7.231   0.946 -0.4323  0.2895 -0.5144
  952MOL0     C28418   7.261   7.262   0.823  0.0998 -0.6367 -0.0489
  952MOL0     C28419   7.181   7.264   0.706  0.4512 -0.0566  0.4245
  952MOL0     C28420   7.053   7.227   0.717  1.0055 -0.4413  0.6291
  952MOL0     O28421   6.979   7.236   0.597 -0.4085  0.1366  0.3463
  952MOL0     C28422   6.845   7.186   0.606  0.4406  0.1439  0.1450
  952MOL0     C28423   6.778   7.229   0.472  0.7040 -0.7365 -0.2076
  952MOL0     C28424   6.634   7.179   0.488  0.0325  0.9774 -0.2718
  952MOL0     C28425   6.553   7.173   0.366 -0.1325 -0.1165  0.2005
  952MOL0     C28426   6.402   7.148   0.399 -0.8285 -0.4497 -0.4314
  952MOL0     C28427   6.324   7.070   0.293  0.1926 -0.6592 -0.4853
  952MOL0     C28428   6.334   7.145   0.159  0.6107 -0.9537  0.4004
  952MOL0     C28429   6.226   7.085   0.068  0.9214 -0.5390  0.0545
  952MOL0    Cl28430   6.265   6.917   0.019 -0.5397  0.2677 -0.0998
  952MOL0     C28431   6.999   7.181   0.837 -0.3069 -0.5958 -1.2046
  952MOL0     C28432   7.083   7.184   0.952  0.6783  0.1415 -0.3760
  952MOL0     O28433   7.443   7.098   0.987  0.1440  0.0590 -0.1311
  952MOL0     C28434   7.392   7.236   1.312 -0.2208  0.1590  0.1770
  952MOL0     C28435   7.457   7.274   1.428  0.2965  0.2462 -0.6830
  952MOL0     N28436   7.856   7.406   2.198 -0.2070  0.1559 -0.8837
  952MOL0     N28437   7.887   7.327   2.296  0.3065 -0.3594  0.7700
  952MOL0     C28438   8.877   7.747   2.286 -0.0594  0.2575  0.2382
  952MOL0     C28439   8.980   7.832   2.240 -0.4507  0.1289 -0.5360
  952MOL0     C28440   9.285   8.037   1.967  0.1545 -0.0749 -0.3367
  952MOL0     C28441   9.366   8.086   2.071 -0.4715 -0.7014 -0.8119
  952MOL0     C28442   9.484   8.153   2.047 -0.5234  0.3233  0.2636
  952MOL0     C28443   9.518   8.190   1.917  0.4694  0.3673  0.1053
  952MOL0     O28444   9.631   8.265   1.898  0.0185  0.1492  0.1120
  952MOL0     C28445   9.745   8.227   1.962 -0.2681  0.1646 -0.1312
  952MOL0     C28446   9.873   8.270   1.890 -0.4468 -0.3690  0.1047
  952MOL0     C28447   9.873   8.254   1.738  0.1989 -0.7292 -0.4025
  952MOL0     C28448   9.864   8.105   1.713 -0.1239 -0.5053  0.0987
  952MOL0     C28449   9.846   8.072   1.571  0.0376  0.5529  0.0964
  952MOL0     C28450   9.817   8.071   1.456  0.1580  0.1934 -0.2052
  952MOL0     C28451   9.437   8.135   1.815 -0.5900 -0.1152  0.1023
  952MOL0     C28452   9.329   8.059   1.841 -0.3936  0.1036 -0.3099
  952MOL0     H28453   9.036   7.712   1.930 -0.0388  3.5474 -1.2699
  952MOL0     H28454   8.863   7.559   1.995  1.0608 -0.1309  0.4621
  952MOL0     H28455   8.743   7.407   2.110 -0.8216 -0.2339  0.5342
  952MOL0     H28456   8.798   7.338   2.264 -2.7262 -2.0942  0.7539
  952MOL0     H28457   8.566   7.431   2.345  0.6636 -0.5851  0.4242
  952MOL0     H28458   8.522   7.433   2.172 -1.1756  0.7963  1.5579
  952MOL0     H28459   8.595   7.194   2.141 -0.0522  0.9227  0.0462
  952MOL0     H28460   8.593   7.195   2.327 -3.9143  2.0100  2.0381
  952MOL0     H28461   8.346   7.289   2.262  2.3181 -0.8844  2.1032
  952MOL0     H28462   8.377   7.211   2.108  1.2167  0.1547 -0.0964
  952MOL0     H28463   8.439   7.003   2.226  0.0112  0.6535 -2.4273
  952MOL0     H28464   8.393   7.085   2.382 -1.6422 -0.3805  1.0629
  952MOL0     H28465   8.206   7.054   2.148  3.5066 -0.8983 -1.3637
  952MOL0     H28466   8.211   6.936   2.274  0.8274  0.1177 -0.5363
  952MOL0     H28467   8.148   7.064   2.440 -0.7773 -1.5503 -1.0139
  952MOL0     H28468   8.143   7.228   2.350 -2.1278  1.0295 -0.3373
  952MOL0     H28469   7.927   7.089   2.390 -0.1002 -2.2829 -0.1931
  952MOL0     H28470   7.975   6.998   2.255 -0.5035 -1.0860  2.5691
  952MOL0     H28471   7.943   7.147   2.018 -0.5796 -0.7038 -0.5180
  952MOL0     H28472   7.836   7.532   1.965 -0.2918  0.0554  1.1769
  952MOL0     H28473   7.925   7.420   1.873 -0.3572  1.7165  0.4393
  952MOL0     H28474   7.621   7.378   1.930 -1.0500 -0.5201 -1.3799
  952MOL0     H28475   7.736   7.250   1.882  0.6693  0.3116  0.1514
  952MOL0     H28476   7.822   7.385   1.690 -0.5989 -0.3561 -0.0603
  952MOL0     H28477   7.718   7.516   1.737 -1.4551  0.3891 -0.3517
  952MOL0     H28478   7.564   7.454   1.615 -2.3952 -0.4796  0.3117
  952MOL0     H28479   7.536   7.300   1.692  0.1354  1.5967  0.9361
  952MOL0     H28480   7.780   7.207   1.330 -0.3022 -2.4245 -0.1444
  952MOL0     H28481   7.693   7.044   1.049  1.8424  0.6435 -1.2112
  952MOL0     H28482   7.703   7.217   1.020  0.4904  2.8282  1.2346
  952MOL0     H28483   7.808   7.145   1.136  0.7979 -2.8209 -2.8363
  952MOL0     H28484   7.363   7.299   0.823 -0.5675  1.4440  1.9897
  952MOL0     H28485   7.234   7.297   0.617 -1.0311 -0.9660 -0.8452
  952MOL0     H28486   6.853   7.078   0.618 -0.1351 -0.2088 -2.1599
  952MOL0     H28487   6.784   7.236   0.682 -1.1691 -0.3921 -0.7489
  952MOL0     H28488   6.783   7.338   0.466  0.7780 -0.8261 -4.0248
  952MOL0     H28489   6.828   7.195   0.381  1.0478 -2.0415  0.4411
  952MOL0     H28490   6.589   7.240   0.567  2.6794 -0.3392  2.4448
  952MOL0     H28491   6.632   7.080   0.533 -0.4589  0.6561 -0.9774
  952MOL0     H28492   6.560   7.263   0.304 -0.1232 -0.7953 -0.8120
  952MOL0     H28493   6.603   7.099   0.302  1.2842 -1.9063  3.1688
  952MOL0     H28494   6.341   7.235   0.425 -0.0759 -0.0092 -0.1044
  952MOL0     H28495   6.410   7.087   0.490  1.5052 -1.1319 -1.0103
  952MOL0     H28496   6.356   6.965   0.287  0.1322 -0.7082 -0.0117
  952MOL0     H28497   6.221   7.064   0.331  1.9814 -1.4351  5.1893
  952MOL0     H28498   6.428   7.141   0.103  1.3329  0.8825  1.3681
  952MOL0     H28499   6.312   7.251   0.175  3.9728  0.0667 -0.8365
  952MOL0     H28500   6.220   7.142  -0.026  0.1191 -1.7087 -0.6322
  952MOL0     H28501   6.136   7.088   0.129  2.1951 -0.1550  2.0261
  952MOL0     H28502   6.896   7.150   0.855 -0.4430  0.3568 -0.2127
  952MOL0     H28503   7.042   7.178   1.052  1.0177  1.7003 -0.1117
  952MOL0     H28504   7.285   7.252   1.316 -0.7600 -2.4787 -1.2270
  952MOL0     H28505   7.399   7.316   1.508  0.7754 -0.5016  0.0768
  952MOL0     H28506   8.832   7.766   2.383 -1.9519  2.0071 -0.8943
  952MOL0     H28507   9.003   7.915   2.305  2.3092 -1.0130  0.1105
  952MOL0     H28508   9.331   8.075   2.173  2.5289 -4.8340  0.0595
  952MOL0     H28509   9.555   8.173   2.126 -1.6649 -3.5301  2.5391
  952MOL0     H28510   9.730   8.267   2.062 -2.4502  1.5220 -0.9436
  952MOL0     H28511   9.754   8.118   1.972  4.0171  0.1426 -2.0506
  952MOL0     H28512   9.954   8.219   1.943 -0.8154 -0.8908  0.1764
  952MOL0     H28513   9.893   8.376   1.908  0.8434 -0.5324 -0.2657
  952MOL0     H28514   9.961   8.293   1.686 -1.0876 -0.0382 -2.1622
  952MOL0     H28515   9.781   8.299   1.699  0.1587 -0.3828  0.0753
  952MOL0     H28516   9.785   8.052   1.767 -1.0754  1.6199  0.8997
  952MOL0     H28517   9.959   8.061   1.746 -1.0709 -2.7237  0.0180
  952MOL0     H28518   9.789   8.072   1.352 -0.8102  2.2874  0.0229
  952MOL0     H28519   9.461   8.172   1.716 -0.3459  0.2797  0.3068
  952MOL0     H28520   9.294   8.025   1.744 -1.3433  2.1662 -0.7471
  953MOL0     O28521   5.624   6.327  10.299  0.2696  0.2483  0.2576
  953MOL0     C28522   5.617   6.303  10.418 -0.6036  0.0006 -0.3312
  953MOL0     O28523   5.724   6.303  10.506 -0.6257  0.3374  0.4375
  953MOL0     C28524   5.849   6.333  10.457  0.0680 -0.6922 -0.1119
  953MOL0     C28525   5.873   6.463  10.415 -0.1425 -0.2354  0.2987
  953MOL0     C28526   6.001   6.510  10.386  0.2823  0.9767 -1.0178
  953MOL0     C28527   6.103   6.422  10.361 -0.6000  0.6907 -0.4587
  953MOL0     O28528   6.223   6.474  10.335 -0.5025 -0.1705  0.3263
  953MOL0     C28529   6.342   6.404  10.380 -0.6427  0.1884  0.0056
  953MOL0     C28530   6.343   6.419  10.537  0.5387 -0.2846  0.1672
  953MOL0     C28531   6.477   6.389  10.599 -0.0613  0.3649 -0.3884
  953MOL0     C28532   6.530   6.247  10.570 -0.5313  0.1210  0.4899
  953MOL0     C28533   6.647   6.211  10.661 -0.7314  0.4828 -0.4224
  953MOL0     C28534   6.619   6.205  10.810  0.1899 -0.8563 -0.3304
  953MOL0     C28535   6.735   6.137  10.877  1.4450 -1.0153 -1.2382
  953MOL0     C28536   6.722   6.137  11.027 -0.2497  0.2275  0.5348
  953MOL0     N28537   6.615   6.052  11.076  0.4343 -0.0468 -0.6167
  953MOL0     C28538   6.506   6.093  11.153 -0.5698  0.0156 -0.3178
  953MOL0     C28539   6.447   5.975  11.192  0.3022 -0.6226  0.2412
  953MOL0     C28540   6.325   5.955  11.273  0.5355  0.2094 -1.1422
  953MOL0     C28541   6.204   5.930  11.177 -0.6621  0.3993  0.2241
  953MOL0     C28542   6.177   6.063  11.101  0.1868  0.5669  0.3360
  953MOL0     C28543   6.028   6.069  11.051  0.7476 -0.3799  0.0426
  953MOL0     O28544   6.015   5.960  10.962  0.6070 -0.2769 -0.5643
  953MOL0     C28545   5.938   5.845  10.986 -0.2708 -0.5059 -0.3595
  953MOL0     C28546   5.966   5.732  10.910 -0.2055 -0.6008  0.6135
  953MOL0     C28547   5.881   5.624  10.914 -0.2255  1.4414  0.7128
  953MOL0     C28548   5.901   5.515  10.806 -0.1800 -0.0230  0.0551
  953MOL0     C28549   5.774   5.615  11.005  0.8926 -0.6998 -0.2023
  953MOL0     C28550   5.675   5.499  11.012  0.1060 -0.1405 -0.1245
  953MOL0     O28551   5.632   5.461  11.130 -0.4863  0.6615 -0.3188
  953MOL0     C28552   5.561   5.342  11.125 -0.4530  0.4398  0.6016
  953MOL0     C28553   5.624   5.237  11.197 -0.3452 -0.2485  0.7521
  953MOL0     C28554   5.552   5.117  11.211 -0.4199  0.8998  0.1233
  953MOL0     C28555   5.435   5.092  11.143 -0.1614 -0.2038 -0.0075
  953MOL0     O28556   5.374   4.972  11.160  0.5193 -0.0870 -0.4486
  953MOL0     C28557   5.359   4.925  11.292 -0.2548 -0.2518 -0.4582
  953MOL0     C28558   5.233   4.843  11.302  0.3461  0.2201  0.0906
  953MOL0     C28559   5.117   4.921  11.245  0.4367  0.0345  0.4029
  953MOL0     C28560   5.075   5.043  11.332  0.3302 -0.4687  0.0168
  953MOL0     C28561   4.923   5.063  11.326  1.0869 -0.2636 -0.0970
  953MOL0     C28562   4.873   5.182  11.406 -0.6818 -0.1950  0.4751
  953MOL0     C28563   4.723   5.185  11.409  0.4042  0.2489  0.0910
  953MOL0     C28564   4.659   5.290  11.316  0.4280 -0.4350 -0.0306
  953MOL0    Cl28565   4.664   5.440  11.396 -0.0061  0.0046  0.1963
  953MOL0     C28566   5.385   5.195  11.062  0.5018  0.0322 -0.0092
  953MOL0     C28567   5.444   5.315  11.058 -0.1984 -0.7434  0.5974
  953MOL0     O28568   5.657   5.438  10.908  0.3496  0.2642  1.0265
  953MOL0     C28569   5.759   5.722  11.089  0.2199  0.5476 -0.1390
  953MOL0     C28570   5.827   5.843  11.084 -0.4748 -0.7867  0.4283
  953MOL0     N28571   6.522   5.866  11.157  0.2697 -0.6809  0.3329
  953MOL0     N28572   6.611   5.915  11.074 -0.1202 -0.3020  0.4261
  953MOL0     C28573   6.079   6.279  10.381 -1.2279 -0.0255  0.1756
  953MOL0     C28574   5.957   6.236  10.422  0.1297  0.0775 -0.3126
  953MOL0     C28575   5.483   6.291  10.478  0.2586 -0.1548  0.4692
  953MOL0     C28576   5.466   6.211  10.594 -0.1059  0.1327  0.2100
  953MOL0     C28577   5.344   6.172  10.640 -0.5815  0.1782 -0.9637
  953MOL0     C28578   5.227   6.201  10.575 -0.0352  0.2226  0.3089
  953MOL0     O28579   5.107   6.156  10.618  0.3884 -0.1952 -0.8374
  953MOL0     C28580   5.094   6.037  10.694 -0.5063  1.3175  0.1589
  953MOL0     C28581   4.950   5.985  10.698  0.3528 -0.0869 -0.0529
  953MOL0     C28582   4.893   5.947  10.561 -0.6903  0.3025 -0.9348
  953MOL0     C28583   4.835   6.069  10.491 -0.2915  0.0555  1.0463
  953MOL0     C28584   4.687   6.056  10.466 -0.4262 -0.0974 -0.6801
  953MOL0     C28585   4.565   6.044  10.480 -0.0010  0.5266 -0.4548
  953MOL0     C28586   5.242   6.293  10.463  0.5118 -0.6298 -0.9461
  953MOL0     C28587   5.364   6.334  10.410  0.3630  0.2857 -0.4276
  953MOL0     H28588   5.807   6.549  10.420 -0.3561 -0.2685 -1.3346
  953MOL0     H28589   6.029   6.615  10.382  1.0511  0.7383 -2.3933
  953MOL0     H28590   6.355   6.296  10.370 -0.9358  0.1893 -0.4179
  953MOL0     H28591   6.428   6.466  10.352 -0.5163  1.9629  3.6961
  953MOL0     H28592   6.326   6.527  10.549  1.1912 -0.0882 -0.5906
  953MOL0     H28593   6.263   6.360  10.581  1.4872 -2.2878 -0.6776
  953MOL0     H28594   6.558   6.455  10.568  0.8099 -0.8656 -0.7947
  953MOL0     H28595   6.472   6.400  10.708  2.0224  3.0167 -0.4587
  953MOL0     H28596   6.458   6.166  10.584  1.1403 -1.3779  0.7440
  953MOL0     H28597   6.561   6.249  10.465 -0.4885 -1.5390  0.4501
  953MOL0     H28598   6.698   6.116  10.641  2.0675  0.7383  4.1886
  953MOL0     H28599   6.716   6.294  10.642 -1.8612  1.1705 -1.7513
  953MOL0     H28600   6.592   6.299  10.860 -1.9143 -1.6491  0.1095
  953MOL0     H28601   6.525   6.152  10.825  0.5149 -1.8052 -1.5346
  953MOL0     H28602   6.747   6.029  10.862 -0.2700 -1.7507  1.8256
  953MOL0     H28603   6.824   6.193  10.847  0.6542  0.3926 -1.0377
  953MOL0     H28604   6.705   6.236  11.071 -0.0554 -0.8804  3.3349
  953MOL0     H28605   6.817   6.105  11.070  0.1844  2.9281  1.7655
  953MOL0     H28606   6.452   6.183  11.178 -1.3208 -0.5664  0.1925
  953MOL0     H28607   6.321   5.878  11.350  0.6347  1.5430  0.2482
  953MOL0     H28608   6.304   6.042  11.336  1.6112 -1.9120  2.3875
  953MOL0     H28609   6.120   5.889  11.234  0.3100 -3.4752 -0.8246
  953MOL0     H28610   6.229   5.854  11.103 -1.1273 -1.2268  1.6779
  953MOL0     H28611   6.244   6.061  11.014 -0.3510  0.9676 -0.0935
  953MOL0     H28612   6.191   6.146  11.171  0.0145  1.6335 -0.8546
  953MOL0     H28613   6.014   6.158  10.989  2.4597 -1.1224 -1.5010
  953MOL0     H28614   5.951   6.064  11.127 -1.0328  0.7796 -1.5891
  953MOL0     H28615   6.044   5.731  10.835  0.6376 -0.8865  1.4741
  953MOL0     H28616   5.887   5.416  10.849 -1.1550  0.7400  1.5654
  953MOL0     H28617   5.834   5.525  10.720  1.6364 -0.4614 -1.5162
  953MOL0     H28618   6.001   5.518  10.761 -0.9683  0.7387 -1.7609
  953MOL0     H28619   5.718   5.247  11.250  0.1383 -0.7731  0.0280
  953MOL0     H28620   5.599   5.042  11.273 -1.5923  0.8002  0.9289
  953MOL0     H28621   5.442   4.867  11.334 -1.0675  1.2844  3.6661
  953MOL0     H28622   5.343   5.012  11.356 -2.1100 -0.7167 -0.2198
  953MOL0     H28623   5.248   4.750  11.248  1.3252  0.8646 -0.7852
  953MOL0     H28624   5.210   4.813  11.405 -2.1707  1.8698  0.1226
  953MOL0     H28625   5.033   4.852  11.236 -1.0002  1.7783 -0.0473
  953MOL0     H28626   5.129   4.959  11.143  0.7832 -3.1888 -0.8814
  953MOL0     H28627   5.105   5.018  11.434  0.7543 -0.9550 -0.2191
  953MOL0     H28628   5.128   5.133  11.299  1.5804 -1.6707 -1.3967
  953MOL0     H28629   4.868   4.974  11.358  0.6765 -0.4913 -1.3546
  953MOL0     H28630   4.884   5.079  11.225 -3.5469 -1.7085  1.1731
  953MOL0     H28631   4.908   5.194  11.509 -1.8820  2.7417  0.6617
  953MOL0     H28632   4.910   5.266  11.347 -0.7369 -0.5466 -0.0665
  953MOL0     H28633   4.693   5.218  11.509  0.9481  1.5534 -0.1477
  953MOL0     H28634   4.673   5.090  11.392  2.3249 -0.7415 -0.3650
  953MOL0     H28635   4.554   5.265  11.300  0.0876  1.8173 -1.6823
  953MOL0     H28636   4.712   5.294  11.221 -2.1493 -0.4695 -1.5395
  953MOL0     H28637   5.302   5.167  10.998  1.3663 -1.1546 -0.6539
  953MOL0     H28638   5.396   5.390  10.995  2.3575 -0.0377 -0.6298
  953MOL0     H28639   5.666   5.729  11.143  0.5857 -1.2571  0.8178
  953MOL0     H28640   5.799   5.928  11.146  1.2892  0.2361 -0.0848
  953MOL0     H28641   6.165   6.214  10.369 -0.7214  0.8634 -1.2114
  953MOL0     H28642   5.938   6.129  10.432  2.0864 -0.2469  0.3373
  953MOL0     H28643   5.556   6.190  10.651  0.7380 -0.6026 -1.3376
  953MOL0     H28644   5.341   6.120  10.735 -0.8419  1.8348 -0.0094
  953MOL0     H28645   5.164   5.962  10.657  0.4782  2.0398  0.5211
  953MOL0     H28646   5.123   6.063  10.797  3.9349  0.5455 -0.7222
  953MOL0     H28647   4.888   6.060  10.747 -1.5279 -1.6862  0.0962
  953MOL0     H28648   4.950   5.894  10.757  3.7797 -0.9871 -1.2003
  953MOL0     H28649   4.826   5.863  10.580  1.1031 -0.5784  2.3855
  953MOL0     H28650   4.978   5.910  10.502  1.7498  2.5739  0.9018
  953MOL0     H28651   4.876   6.078  10.390 -0.7704 -0.5234  0.7925
  953MOL0     H28652   4.855   6.161  10.545 -1.6538  3.1237 -3.1572
  953MOL0     H28653   4.463   6.019  10.502 -0.1726  1.2375 -0.4057
  953MOL0     H28654   5.151   6.307  10.406 -0.5271 -0.8673  0.5727
  953MOL0     H28655   5.380   6.403  10.327  1.1392 -1.1121 -1.4839
  954MOL0     O28656   2.971   3.768   5.580  0.4559  0.2632  0.0421
  954MOL0     C28657   3.005   3.841   5.674  0.1150  0.2242  0.9077
  954MOL0     O28658   3.132   3.857   5.715  0.5388  0.3347 -0.0855
  954MOL0     C28659   3.240   3.807   5.650 -1.0557 -0.3568 -0.3089
  954MOL0     C28660   3.322   3.890   5.572  0.0609  0.0793 -0.1884
  954MOL0     C28661   3.439   3.847   5.517  0.2264 -1.0885  0.2012
  954MOL0     C28662   3.488   3.719   5.524 -0.6615  0.2953 -0.7115
  954MOL0     O28663   3.614   3.684   5.487  0.2507 -0.1632  0.7862
  954MOL0     C28664   3.729   3.740   5.555  0.4987  0.6574 -0.2481
  954MOL0     C28665   3.858   3.663   5.502  0.0676  0.0040  0.2353
  954MOL0     C28666   3.971   3.669   5.605 -0.8978 -0.2333  0.3272
  954MOL0     C28667   4.061   3.794   5.586  0.4396 -0.4637 -0.3614
  954MOL0     C28668   4.186   3.771   5.669 -0.2852  0.3957 -1.3574
  954MOL0     C28669   4.265   3.901   5.705  0.3321 -0.2195  0.8094
  954MOL0     C28670   4.402   3.866   5.765 -0.1478 -0.1343  0.1437
  954MOL0     C28671   4.387   3.814   5.904 -1.0836 -0.8201  0.3553
  954MOL0     N28672   4.510   3.836   5.980  0.0027  0.0089 -0.5412
  954MOL0     C28673   4.546   3.950   6.045 -1.0834 -0.7796 -0.3965
  954MOL0     C28674   4.664   3.911   6.114  1.1066  0.4205  0.7164
  954MOL0     C28675   4.731   4.004   6.207 -0.2955  0.7985 -0.0284
  954MOL0     C28676   4.874   3.967   6.241 -0.3876  0.6560  0.8818
  954MOL0     C28677   4.913   4.022   6.390  0.5000  0.0581 -0.0306
  954MOL0     C28678   4.944   4.173   6.383  0.1517 -0.6177 -0.9374
  954MOL0     O28679   4.840   4.255   6.336  0.4707 -0.0430 -0.4848
  954MOL0     C28680   4.732   4.294   6.416 -0.1308  0.1986  0.4191
  954MOL0     C28681   4.635   4.363   6.355  0.2390 -0.2741  0.3968
  954MOL0     C28682   4.511   4.394   6.422 -0.4617 -0.2703 -0.1142
  954MOL0     C28683   4.408   4.441   6.329  0.6498 -0.0458 -0.0946
  954MOL0     C28684   4.487   4.351   6.556  0.5663 -0.5114 -0.1222
  954MOL0     C28685   4.361   4.392   6.623  0.7526 -0.7334 -0.9557
  954MOL0     O28686   4.281   4.297   6.673  0.1531 -0.3133  0.2274
  954MOL0     C28687   4.176   4.326   6.758 -0.4271 -0.8425  0.1742
  954MOL0     C28688   4.050   4.291   6.725 -0.3363  0.0519  0.7484
  954MOL0     C28689   3.944   4.334   6.806 -0.5209  0.4941  0.2351
  954MOL0     C28690   3.969   4.399   6.925  0.0716 -0.3975  1.1637
  954MOL0     O28691   3.858   4.428   6.997  0.2793  0.6933  0.4037
  954MOL0     C28692   3.873   4.499   7.122 -0.6136  0.4205  0.3885
  954MOL0     C28693   3.735   4.483   7.186  0.8507 -0.7135  0.1446
  954MOL0     C28694   3.646   4.600   7.130 -0.2076 -0.1523  0.9046
  954MOL0     C28695   3.505   4.582   7.180 -0.5060  0.3871 -0.4099
  954MOL0     C28696   3.413   4.710   7.163  0.3730  0.2342 -0.6146
  954MOL0     C28697   3.272   4.669   7.197 -0.1109  0.6091  0.2729
  954MOL0     C28698   3.185   4.786   7.233  0.2667 -0.3557  0.3549
  954MOL0     C28699   3.204   4.905   7.132 -0.0869 -0.5683  0.4408
  954MOL0    Cl28700   3.068   5.001   7.134  0.2359  0.1612 -0.4452
  954MOL0     C28701   4.103   4.421   6.972 -0.0311  0.6733  0.1391
  954MOL0     C28702   4.205   4.378   6.885 -0.7223 -1.2282 -0.4596
  954MOL0     O28703   4.339   4.514   6.633  0.3239  0.8127  0.3179
  954MOL0     C28704   4.588   4.276   6.611 -0.2429  0.4331  0.1054
  954MOL0     C28705   4.715   4.254   6.546 -0.1774 -0.4269 -0.1163
  954MOL0     N28706   4.682   3.777   6.089  0.2287  0.0316  0.0557
  954MOL0     N28707   4.602   3.740   5.998  0.1834  0.0587  0.2482
  954MOL0     C28708   3.406   3.627   5.596 -0.9749 -0.3321 -0.3750
  954MOL0     C28709   3.287   3.669   5.652 -0.1656  0.2440 -0.0525
  954MOL0     C28710   2.909   3.909   5.750  0.2495 -0.1381  0.6211
  954MOL0     C28711   2.935   3.996   5.863 -0.5913 -0.8533 -0.5404
  954MOL0     C28712   2.846   4.063   5.937 -0.6075 -0.4115  0.2427
  954MOL0     C28713   2.708   4.046   5.912 -0.1488  0.4499 -0.2243
  954MOL0     O28714   2.615   4.118   5.995 -0.1734  0.5630 -0.1151
  954MOL0     C28715   2.519   4.032   6.055  0.3539 -0.7800  0.5540
  954MOL0     C28716   2.388   4.107   6.076 -0.1069 -1.1685  0.6523
  954MOL0     C28717   2.399   4.208   6.191 -0.5267  0.7320  0.2886
  954MOL0     C28718   2.385   4.355   6.150  0.2557  0.2301 -0.7272
  954MOL0     C28719   2.391   4.432   6.279  0.0661 -0.6438  0.1722
  954MOL0     C28720   2.371   4.500   6.377 -0.0194 -0.0749 -0.5276
  954MOL0     C28721   2.670   3.972   5.799 -0.1842 -0.0863  0.3221
  954MOL0     C28722   2.767   3.905   5.718 -0.7620  0.2944 -0.3670
  954MOL0     H28723   3.291   3.993   5.568  0.2670  0.1096 -1.4050
  954MOL0     H28724   3.499   3.924   5.468  0.2390 -1.0024  0.3511
  954MOL0     H28725   3.735   3.848   5.539  2.3987  0.3361 -2.1963
  954MOL0     H28726   3.709   3.716   5.660 -2.7049  0.6799 -0.7600
  954MOL0     H28727   3.835   3.556   5.505 -1.0976  0.2260 -0.1761
  954MOL0     H28728   3.890   3.689   5.401 -0.5454 -2.7424 -0.7514
  954MOL0     H28729   3.931   3.666   5.707 -1.4738 -1.0239  0.0904
  954MOL0     H28730   4.035   3.582   5.591 -2.9688 -1.8174  0.3060
  954MOL0     H28731   4.074   3.828   5.483  1.0484 -2.4158 -0.9729
  954MOL0     H28732   4.006   3.872   5.638  2.4622 -0.0250  1.2333
  954MOL0     H28733   4.161   3.717   5.761 -1.6313  1.7312 -0.8916
  954MOL0     H28734   4.243   3.706   5.603 -1.3423 -0.1735 -1.7337
  954MOL0     H28735   4.284   3.960   5.616  0.5018 -1.4252  0.0204
  954MOL0     H28736   4.214   3.960   5.781  0.8945  0.6149  0.5471
  954MOL0     H28737   4.456   3.795   5.701  0.1723  0.7383 -0.5669
  954MOL0     H28738   4.444   3.967   5.767 -2.3592  0.8305  1.5086
  954MOL0     H28739   4.360   3.708   5.902  3.9670 -2.3707 -2.0266
  954MOL0     H28740   4.321   3.885   5.954  0.3587  1.7000 -1.0851
  954MOL0     H28741   4.502   4.048   6.062 -0.9465 -1.0814  2.2336
  954MOL0     H28742   4.724   4.103   6.161  0.3449  0.2301 -1.3986
  954MOL0     H28743   4.672   3.987   6.298  0.3244  0.9165  0.4053
  954MOL0     H28744   4.941   4.015   6.170  0.5221  0.5794  1.6738
  954MOL0     H28745   4.892   3.859   6.240  1.9637  0.9984  1.2865
  954MOL0     H28746   5.001   3.962   6.414  0.3774 -2.5410 -4.8873
  954MOL0     H28747   4.840   4.008   6.470 -1.3962  0.7604 -1.5346
  954MOL0     H28748   5.038   4.186   6.330 -0.2037  3.7894 -0.8486
  954MOL0     H28749   4.976   4.217   6.478  0.3420 -1.9407 -0.3578
  954MOL0     H28750   4.642   4.386   6.249 -0.0584 -1.5204  0.0879
  954MOL0     H28751   4.323   4.485   6.383 -0.7666 -1.4926 -1.0425
  954MOL0     H28752   4.453   4.508   6.256  1.7288 -2.6647 -1.9713
  954MOL0     H28753   4.365   4.356   6.275  1.7815  1.3841 -3.5578
  954MOL0     H28754   4.023   4.236   6.636 -1.7105  1.1366  0.4672
  954MOL0     H28755   3.839   4.313   6.785  0.4564 -3.0748 -1.8602
  954MOL0     H28756   3.937   4.444   7.192  0.6152  1.8787  0.4462
  954MOL0     H28757   3.930   4.591   7.110  2.3253 -1.3861 -0.6015
  954MOL0     H28758   3.694   4.386   7.156  0.4563 -0.5443  0.1365
  954MOL0     H28759   3.724   4.485   7.294 -2.9679  0.1160 -0.1458
  954MOL0     H28760   3.640   4.603   7.021 -0.7352 -3.1244  0.7762
  954MOL0     H28761   3.675   4.699   7.168  0.0438  0.7341 -1.4572
  954MOL0     H28762   3.451   4.513   7.114 -0.1772  0.4254 -0.7195
  954MOL0     H28763   3.504   4.555   7.286 -0.4442  0.9673 -0.2532
  954MOL0     H28764   3.423   4.737   7.058  3.0306 -0.4959 -0.6401
  954MOL0     H28765   3.457   4.782   7.233  1.7675 -0.0712 -1.1363
  954MOL0     H28766   3.235   4.625   7.104  2.6280  0.3231 -0.7463
  954MOL0     H28767   3.269   4.592   7.275  0.6503 -0.9928 -1.2131
  954MOL0     H28768   3.203   4.823   7.335  0.7889  1.7067 -0.4363
  954MOL0     H28769   3.080   4.755   7.238 -0.9023  3.2772  2.6625
  954MOL0     H28770   3.232   4.874   7.031  2.7325 -0.0525  0.9869
  954MOL0     H28771   3.288   4.962   7.173  1.2184 -1.9913 -0.1315
  954MOL0     H28772   4.116   4.473   7.067 -2.4376  1.1483  0.2786
  954MOL0     H28773   4.307   4.397   6.915 -2.0495  0.1635  3.8212
  954MOL0     H28774   4.579   4.236   6.712 -0.2480 -0.0004 -0.0639
  954MOL0     H28775   4.782   4.190   6.601  0.8183 -0.4597 -1.3147
  954MOL0     H28776   3.438   3.524   5.607 -3.6037 -1.1056  0.7803
  954MOL0     H28777   3.234   3.591   5.706 -1.3522  0.2055 -1.2437
  954MOL0     H28778   3.037   4.018   5.892 -1.4959  1.8575  0.8983
  954MOL0     H28779   2.888   4.124   6.017 -0.4603  1.5987 -1.2725
  954MOL0     H28780   2.506   3.938   6.003 -1.6704 -0.9563  1.2893
  954MOL0     H28781   2.548   3.992   6.153  1.1188 -1.1660  0.1736
  954MOL0     H28782   2.314   4.028   6.093 -0.8096 -0.8788 -0.7964
  954MOL0     H28783   2.359   4.162   5.985 -0.0887  0.1510  1.4202
  954MOL0     H28784   2.485   4.192   6.256 -0.7142  0.5728  0.4999
  954MOL0     H28785   2.319   4.183   6.261  2.2491 -1.8460  2.7975
  954MOL0     H28786   2.287   4.372   6.105  0.6325 -0.4492 -1.8472
  954MOL0     H28787   2.475   4.383   6.095  0.3960 -0.3695 -0.8045
  954MOL0     H28788   2.352   4.550   6.470  1.3807  2.4773 -1.5119
  954MOL0     H28789   2.571   3.983   5.754 -0.2494 -2.4599 -0.2196
  954MOL0     H28790   2.727   3.863   5.627 -0.0282  1.4784 -1.2672
  955MOL0     O28791   1.983   5.466   8.069  0.5651 -0.3504 -0.2009
  955MOL0     C28792   1.993   5.349   8.097  0.0730  0.3767 -1.6036
  955MOL0     O28793   1.898   5.277   8.154  0.2772 -0.9055 -0.0222
  955MOL0     C28794   1.800   5.344   8.222  0.6531 -0.1679  0.3640
  955MOL0     C28795   1.775   5.299   8.353 -0.8223 -0.0736  0.2748
  955MOL0     C28796   1.665   5.348   8.424 -0.2245  0.4184 -0.6024
  955MOL0     C28797   1.576   5.441   8.370 -0.8517 -1.2032  0.2666
  955MOL0     O28798   1.482   5.480   8.458  0.6068  0.0924 -1.0073
  955MOL0     C28799   1.351   5.506   8.398 -0.0571  0.6340  0.8227
  955MOL0     C28800   1.244   5.518   8.499  0.4500 -0.4951 -0.1964
  955MOL0     C28801   1.103   5.528   8.436 -0.3448  0.0736 -0.1062
  955MOL0     C28802   1.003   5.540   8.545  0.2517  0.3100  0.4773
  955MOL0     C28803   0.853   5.531   8.494 -0.5001 -0.2256  0.0590
  955MOL0     C28804   0.753   5.575   8.596 -0.5960 -0.6868 -0.2865
  955MOL0     C28805   0.627   5.619   8.524  0.1045  0.2452 -0.1554
  955MOL0     C28806   0.532   5.689   8.625 -0.3883 -0.0460  0.0434
  955MOL0     N28807   0.399   5.691   8.563  0.0520 -0.3874 -0.6401
  955MOL0     C28808   0.345   5.801   8.506  0.8741 -0.5854 -0.0745
  955MOL0     C28809   0.221   5.757   8.478 -0.7081 -0.0802 -0.1168
  955MOL0     C28810   0.134   5.842   8.390  0.4406 -0.1009  0.4871
  955MOL0     C28811   0.013   5.881   8.472 -0.2722  0.0326  0.7316
  955MOL0     C28812  -0.086   5.766   8.449 -0.1990 -0.1143  0.2061
  955MOL0     C28813  -0.207   5.786   8.541  0.0869  0.1908 -0.2092
  955MOL0     O28814  -0.317   5.859   8.508 -0.4096  0.4455  0.3026
  955MOL0     C28815  -0.414   5.849   8.605 -0.1752 -0.3078 -0.1237
  955MOL0     C28816  -0.424   5.950   8.708  0.2443  0.1140 -0.5783
  955MOL0     C28817  -0.535   5.960   8.794  0.0806 -0.0917  0.2908
  955MOL0     C28818  -0.546   6.077   8.892 -0.1163 -0.8277 -0.0584
  955MOL0     C28819  -0.639   5.865   8.772 -1.1883 -0.6301 -0.0870
  955MOL0     C28820  -0.760   5.887   8.849  0.1422 -0.0190  0.3086
  955MOL0     O28821  -0.868   5.936   8.773 -0.2795 -0.1304  0.7900
  955MOL0     C28822  -0.996   5.955   8.821 -0.1369 -1.2733 -0.1045
  955MOL0     C28823  -1.036   5.937   8.954 -0.8956 -0.2902  0.5304
  955MOL0     C28824  -1.172   5.964   8.985 -0.0591  0.5000 -0.7174
  955MOL0     C28825  -1.267   6.011   8.900 -0.2659 -0.2682  1.1698
  955MOL0     O28826  -1.391   6.038   8.944 -0.2173  0.2053 -0.7950
  955MOL0     C28827  -1.501   6.034   8.844 -0.1569 -1.0380  0.2848
  955MOL0     C28828  -1.639   6.052   8.922 -1.1013  0.3128 -0.4127
  955MOL0     C28829  -1.663   6.186   8.990  0.5259  0.3646  0.0571
  955MOL0     C28830  -1.799   6.191   9.065 -0.0465  1.0732 -0.5155
  955MOL0     C28831  -1.821   6.102   9.187 -0.6660 -1.0455  0.3554
  955MOL0     C28832  -1.951   6.147   9.253  0.7075 -0.6565 -0.4271
  955MOL0     C28833  -1.983   6.056   9.376 -0.1261 -0.0538 -0.9801
  955MOL0     C28834  -1.903   6.081   9.503  0.4419 -0.7846  0.7552
  955MOL0    Cl28835  -1.954   5.975   9.627  0.0627 -0.0848 -0.1478
  955MOL0     C28836  -1.219   6.045   8.778  0.1754 -0.0619 -0.1440
  955MOL0     C28837  -1.093   6.008   8.729 -0.1914  0.2837  0.0649
  955MOL0     O28838  -0.753   5.870   8.969 -0.0586  0.3215  0.7418
  955MOL0     C28839  -0.624   5.760   8.677  0.1460  0.1080 -0.8457
  955MOL0     C28840  -0.518   5.763   8.594 -0.7724  0.8825  0.0734
  955MOL0     N28841   0.211   5.624   8.516  0.6001 -0.4183  0.3862
  955MOL0     N28842   0.318   5.581   8.564  0.3445  0.1699 -0.1788
  955MOL0     C28843   1.601   5.492   8.241  0.0694 -0.1687 -0.2542
  955MOL0     C28844   1.703   5.435   8.165 -0.4911 -0.6102 -0.0415
  955MOL0     C28845   2.120   5.281   8.081 -0.0351 -0.7561  0.5822
  955MOL0     C28846   2.156   5.184   8.176 -0.6829  0.4508  0.0708
  955MOL0     C28847   2.292   5.127   8.167 -0.0115 -0.7296  0.1353
  955MOL0     C28848   2.377   5.157   8.059 -0.0008 -1.4804  0.2688
  955MOL0     O28849   2.494   5.103   8.043  0.5097  0.6663 -0.4491
  955MOL0     C28850   2.497   4.962   8.095 -0.3772 -0.0970 -0.0491
  955MOL0     C28851   2.638   4.908   8.080  0.0572  0.2911  0.6317
  955MOL0     C28852   2.685   4.859   7.941 -0.4312  0.1787  0.1786
  955MOL0     C28853   2.838   4.849   7.937 -0.2682  0.1895 -0.2221
  955MOL0     C28854   2.884   4.750   8.034  0.1219 -0.5093 -0.3037
  955MOL0     C28855   2.904   4.655   8.119  0.2998 -0.1174  0.5814
  955MOL0     C28856   2.340   5.267   7.983  0.0717  0.5763  0.2050
  955MOL0     C28857   2.217   5.332   7.997  0.2868 -0.1213 -0.2427
  955MOL0     H28858   1.856   5.238   8.392  0.9053 -1.8624 -5.1854
  955MOL0     H28859   1.639   5.316   8.524 -4.2660  0.9626 -1.3366
  955MOL0     H28860   1.364   5.601   8.345  0.5855 -0.6078 -1.3664
  955MOL0     H28861   1.325   5.429   8.325  2.1340  1.8842 -1.4070
  955MOL0     H28862   1.252   5.432   8.565  0.2337 -0.4194 -0.0693
  955MOL0     H28863   1.261   5.611   8.555 -1.6253  0.1998 -0.6095
  955MOL0     H28864   1.104   5.614   8.368 -0.3620  0.3360  0.2209
  955MOL0     H28865   1.073   5.444   8.373 -4.3805  1.6071 -0.5209
  955MOL0     H28866   1.023   5.475   8.631  0.5210 -0.2411  0.0107
  955MOL0     H28867   1.007   5.646   8.571 -2.7420  0.6915 -0.2286
  955MOL0     H28868   0.856   5.601   8.409  0.1718 -0.7119 -0.3243
  955MOL0     H28869   0.837   5.432   8.451 -1.2110  1.1279 -3.1118
  955MOL0     H28870   0.727   5.497   8.668  1.6023 -0.5292  0.7501
  955MOL0     H28871   0.802   5.661   8.641  0.8153 -0.6495 -1.7775
  955MOL0     H28872   0.652   5.684   8.440 -0.0717  0.7395  0.1708
  955MOL0     H28873   0.581   5.528   8.482 -0.5838  0.4169  0.2119
  955MOL0     H28874   0.577   5.784   8.654 -0.7917  0.3395 -0.5645
  955MOL0     H28875   0.510   5.637   8.718 -0.2650 -0.7868 -0.3344
  955MOL0     H28876   0.383   5.902   8.495 -1.4988  0.6394  1.9023
  955MOL0     H28877   0.193   5.927   8.354  0.6806 -1.7498 -3.5390
  955MOL0     H28878   0.112   5.798   8.292  1.2183  1.6413 -0.5038
  955MOL0     H28879  -0.027   5.977   8.441 -0.2988 -0.7696 -1.9273
  955MOL0     H28880   0.034   5.882   8.580  0.2493 -1.9701  0.6976
  955MOL0     H28881  -0.046   5.665   8.454 -2.4563 -1.2248 -2.2369
  955MOL0     H28882  -0.121   5.780   8.346  1.0342  2.2660  0.0308
  955MOL0     H28883  -0.173   5.822   8.639 -1.5144  1.8809 -0.2164
  955MOL0     H28884  -0.238   5.681   8.551 -2.1189  0.7082 -0.9445
  955MOL0     H28885  -0.350   6.029   8.703  3.5506 -2.7559 -0.8639
  955MOL0     H28886  -0.619   6.154   8.865 -1.9844 -1.7601  1.9834
  955MOL0     H28887  -0.578   6.045   8.992 -1.7796  0.8392  0.0097
  955MOL0     H28888  -0.453   6.134   8.885  1.0707 -2.5986  0.5448
  955MOL0     H28889  -0.968   5.903   9.031 -1.6076  0.7502  1.6484
  955MOL0     H28890  -1.203   5.949   9.088 -1.7748  0.7443 -1.1623
  955MOL0     H28891  -1.493   6.111   8.767  3.5395  0.4146  1.8926
  955MOL0     H28892  -1.502   5.939   8.790  0.3925 -0.7674 -0.2084
  955MOL0     H28893  -1.723   6.030   8.855 -1.5675 -1.0911  0.5808
  955MOL0     H28894  -1.628   5.976   9.000  1.4942 -0.9831 -1.9067
  955MOL0     H28895  -1.665   6.268   8.918 -0.9656  1.0608  0.8419
  955MOL0     H28896  -1.576   6.209   9.053  0.3071 -3.6059  2.1574
  955MOL0     H28897  -1.800   6.294   9.101 -1.1241  0.6567  0.7249
  955MOL0     H28898  -1.881   6.173   8.994 -0.4461  1.1048 -0.0650
  955MOL0     H28899  -1.740   6.125   9.257 -1.5523  1.8116  0.5655
  955MOL0     H28900  -1.824   5.996   9.161 -2.0576 -1.0677  0.5340
  955MOL0     H28901  -1.928   6.243   9.300 -1.4210  0.8699 -2.2568
  955MOL0     H28902  -2.028   6.148   9.175  2.3934  2.1646 -2.2160
  955MOL0     H28903  -1.970   5.948   9.364 -1.0882 -0.5996  1.9504
  955MOL0     H28904  -2.087   6.069   9.408  1.0724  1.7301  2.7134
  955MOL0     H28905  -1.926   6.183   9.535 -0.9741 -1.0784  0.7197
  955MOL0     H28906  -1.796   6.078   9.483  0.7984  1.8487  1.8164
  955MOL0     H28907  -1.287   6.103   8.715  0.1525  1.0618  0.8883
  955MOL0     H28908  -1.062   6.040   8.630  3.2083  1.0614  1.2129
  955MOL0     H28909  -0.694   5.676   8.678 -0.5976  0.6981 -1.5345
  955MOL0     H28910  -0.500   5.688   8.518 -1.0238 -1.3979  2.1441
  955MOL0     H28911   1.526   5.563   8.207  0.2022  1.2185  2.1164
  955MOL0     H28912   1.712   5.465   8.061 -0.8858  0.0943  0.1166
  955MOL0     H28913   2.094   5.152   8.259 -2.1403  1.4693 -0.5790
  955MOL0     H28914   2.321   5.063   8.250  0.2073  0.6967  1.1822
  955MOL0     H28915   2.478   4.958   8.202 -0.7687 -3.0575 -0.1483
  955MOL0     H28916   2.425   4.901   8.039 -1.6491  0.5818  0.8237
  955MOL0     H28917   2.649   4.815   8.136 -1.0555 -0.0301  0.3458
  955MOL0     H28918   2.709   4.977   8.126 -2.3768  1.8578  2.2814
  955MOL0     H28919   2.659   4.937   7.869 -0.4921 -0.6404 -0.7058
  955MOL0     H28920   2.638   4.763   7.920  1.1666 -1.5530  3.6895
  955MOL0     H28921   2.882   4.949   7.945  0.7334 -0.1083 -1.5870
  955MOL0     H28922   2.873   4.832   7.834 -0.5914  2.1694 -0.7111
  955MOL0     H28923   2.905   4.571   8.186  2.4328 -1.1797 -0.6901
  955MOL0     H28924   2.415   5.306   7.914  0.8195  1.0249  1.2374
  955MOL0     H28925   2.197   5.423   7.942  0.2232 -0.5553 -0.9516
  956MOL0     O28926   5.943   1.032  10.222  0.5331 -0.2328  0.4131
  956MOL0     C28927   6.029   0.946  10.209  0.3230  0.5942  0.2598
  956MOL0     O28928   6.023   0.847  10.115 -0.0039 -0.2880  1.0303
  956MOL0     C28929   5.905   0.811  10.047 -0.3607  0.0607 -0.2344
  956MOL0     C28930   5.915   0.723   9.940  0.1858  0.1102 -0.1980
  956MOL0     C28931   5.807   0.681   9.864  0.7301  0.2132  0.1988
  956MOL0     C28932   5.673   0.707   9.898 -0.7607  0.5920 -0.4749
  956MOL0     O28933   5.563   0.667   9.824 -0.6185 -0.1479  0.0074
  956MOL0     C28934   5.437   0.658   9.899 -0.2461  1.0118 -0.2979
  956MOL0     C28935   5.346   0.593   9.788  0.6885 -0.2554  0.5981
  956MOL0     C28936   5.195   0.588   9.835  0.5825 -0.0305  0.1966
  956MOL0     C28937   5.160   0.484   9.943  0.7931  0.6286 -0.3297
  956MOL0     C28938   5.008   0.462   9.952  0.3266 -0.3550  0.4268
  956MOL0     C28939   4.980   0.344  10.046  0.6470  0.4025  0.8573
  956MOL0     C28940   4.826   0.309  10.026  0.2540 -0.8311 -0.7960
  956MOL0     C28941   4.749   0.396  10.128 -0.0081 -1.0244 -0.2228
  956MOL0     N28942   4.604   0.381  10.121  0.3560 -0.0741 -0.0970
  956MOL0     C28943   4.535   0.409  10.002  0.4499 -0.2604 -0.1799
  956MOL0     C28944   4.402   0.393  10.031  0.2873 -0.3415 -0.1870
  956MOL0     C28945   4.279   0.426   9.943  0.7105  0.3745 -0.3735
  956MOL0     C28946   4.193   0.301   9.934  0.2254 -0.1563 -0.5353
  956MOL0     C28947   4.050   0.339   9.963 -0.5589 -0.5808 -0.9121
  956MOL0     C28948   3.977   0.432   9.866  0.7229  0.1531  0.2373
  956MOL0     O28949   3.987   0.380   9.732  0.3951 -0.3714 -0.3667
  956MOL0     C28950   3.890   0.302   9.678 -0.3446  0.7143 -0.3437
  956MOL0     C28951   3.928   0.254   9.549  0.0570 -0.3757  0.8049
  956MOL0     C28952   3.842   0.181   9.467  0.2062 -0.4290 -0.1282
  956MOL0     C28953   3.903   0.140   9.333  1.0804  0.0319  0.6455
  956MOL0     C28954   3.717   0.136   9.518  0.0836 -0.5005 -0.0767
  956MOL0     C28955   3.629   0.047   9.461  1.2357  0.9202  0.5429
  956MOL0     O28956   3.491   0.077   9.476 -1.1104 -0.0704 -0.0143
  956MOL0     C28957   3.390   0.013   9.410 -0.4302 -0.2213  0.1200
  956MOL0     C28958   3.257   0.028   9.456 -0.6684  1.0554  0.4693
  956MOL0     C28959   3.147  -0.019   9.375 -0.1064  0.2677  0.0078
  956MOL0     C28960   3.160  -0.073   9.253 -0.3803  0.4498  0.3240
  956MOL0     O28961   3.044  -0.112   9.185  0.4095  0.4077  0.2812
  956MOL0     C28962   3.065  -0.181   9.062 -0.3689  0.0177  0.9709
  956MOL0     C28963   2.923  -0.196   9.009 -0.5616  0.4402 -0.5693
  956MOL0     C28964   2.928  -0.242   8.867 -0.1060  0.3733 -0.0620
  956MOL0     C28965   2.798  -0.218   8.789 -0.3201  0.1619 -0.7246
  956MOL0     C28966   2.691  -0.313   8.830 -0.2925 -0.2094 -0.0224
  956MOL0     C28967   2.575  -0.307   8.729 -0.1320 -0.5741  0.4056
  956MOL0     C28968   2.472  -0.411   8.762 -0.4101  1.0249  0.2627
  956MOL0     C28969   2.382  -0.372   8.878  0.7326 -1.2159  0.0630
  956MOL0    Cl28970   2.234  -0.469   8.865  0.1660 -0.0166 -0.1343
  956MOL0     C28971   3.296  -0.083   9.209  0.3211  0.0061 -0.7918
  956MOL0     C28972   3.404  -0.036   9.284 -0.5545  0.3366  0.0608
  956MOL0     O28973   3.668  -0.061   9.422  0.1281 -0.7146  0.7079
  956MOL0     C28974   3.674   0.194   9.642  0.3592  0.4732 -0.9948
  956MOL0     C28975   3.761   0.268   9.721  0.9906 -0.3228 -0.3887
  956MOL0     N28976   4.396   0.343  10.160  0.6862  0.1007 -0.5870
  956MOL0     N28977   4.517   0.339  10.209  0.4466  0.3812  0.0066
  956MOL0     C28978   5.665   0.790  10.018  0.4329  0.1503  0.0304
  956MOL0     C28979   5.778   0.834  10.091  0.7004 -0.6105  0.1316
  956MOL0     C28980   6.157   0.962  10.285  0.1463 -0.5336 -0.2587
  956MOL0     C28981   6.162   1.059  10.382  0.6543 -0.1982 -0.1816
  956MOL0     C28982   6.287   1.079  10.452  0.1552  0.8332 -0.3467
  956MOL0     C28983   6.398   1.002  10.416  0.8289  0.2303 -0.3498
  956MOL0     O28984   6.509   1.032  10.488  0.1026  0.5449 -0.6495
  956MOL0     C28985   6.637   1.024  10.427  0.7585 -0.2619 -0.1842
  956MOL0     C28986   6.753   0.949  10.487  0.3988  0.1803 -0.4725
  956MOL0     C28987   6.754   0.808  10.455  0.4584  0.3272  0.8487
  956MOL0     C28988   6.877   0.731  10.514 -1.2302 -0.5325 -0.3032
  956MOL0     C28989   7.008   0.762  10.458  0.1796  0.8165  0.4520
  956MOL0     C28990   7.108   0.794  10.394 -0.0172  0.0412  0.3579
  956MOL0     C28991   6.392   0.901  10.320  0.4147 -0.4567  0.7058
  956MOL0     C28992   6.266   0.873  10.263 -0.6332 -0.6327 -0.0597
  956MOL0     H28993   6.016   0.686   9.927  0.5209  0.6853  0.7093
  956MOL0     H28994   5.824   0.612   9.782 -1.7298  0.3435 -0.4892
  956MOL0     H28995   5.449   0.585   9.980  2.7841  0.3314 -1.2082
  956MOL0     H28996   5.395   0.754   9.928 -0.4297  0.2695  2.1176
  956MOL0     H28997   5.359   0.648   9.695  0.8641  0.3163  0.9542
  956MOL0     H28998   5.379   0.490   9.772  1.0023 -0.5472  2.7077
  956MOL0     H28999   5.157   0.687   9.866 -1.1191 -0.2211 -1.1520
  956MOL0     H29000   5.152   0.547   9.744  2.4466 -2.5675  0.3483
  956MOL0     H29001   5.210   0.389   9.919  1.4816  0.8726  0.1257
  956MOL0     H29002   5.210   0.517  10.034  4.3598  0.0914 -1.9289
  956MOL0     H29003   4.962   0.559   9.977  2.2228  1.6607 -3.1279
  956MOL0     H29004   4.965   0.441   9.854 -0.1560  2.2318  0.0032
  956MOL0     H29005   5.041   0.261  10.010 -0.4485 -0.7357  1.5482
  956MOL0     H29006   5.017   0.340  10.149  3.0583 -1.0272  0.0022
  956MOL0     H29007   4.793   0.323   9.923  1.1470 -0.8916 -1.0920
  956MOL0     H29008   4.814   0.203  10.049  1.2819 -1.0580 -1.2464
  956MOL0     H29009   4.761   0.505  10.122 -3.7296 -0.4530  0.1623
  956MOL0     H29010   4.779   0.362  10.228  3.3515 -2.9596 -1.7276
  956MOL0     H29011   4.570   0.451   9.909 -1.6874  0.6616 -0.6356
  956MOL0     H29012   4.220   0.511   9.978 -1.1727  0.4618 -3.3786
  956MOL0     H29013   4.322   0.444   9.844  1.9857 -0.4735  0.0042
  956MOL0     H29014   4.218   0.223  10.007  0.6494 -1.0071 -1.5551
  956MOL0     H29015   4.208   0.249   9.838  3.3993 -3.2774  1.4150
  956MOL0     H29016   4.050   0.367  10.069  0.6091  1.5089 -1.4191
  956MOL0     H29017   3.995   0.244   9.962 -0.1867 -0.7956 -1.3501
  956MOL0     H29018   4.028   0.529   9.871 -0.1346  0.6627 -0.4595
  956MOL0     H29019   3.873   0.448   9.897  0.4465  1.1095 -1.0924
  956MOL0     H29020   4.021   0.281   9.500 -0.7766  1.3196  0.0904
  956MOL0     H29021   3.966   0.052   9.350 -0.5009 -1.1613  0.5939
  956MOL0     H29022   3.819   0.111   9.270 -1.2357  1.3396  2.9415
  956MOL0     H29023   3.948   0.230   9.290  0.5691 -0.5211 -1.1209
  956MOL0     H29024   3.222   0.067   9.551 -2.5850  1.8669 -0.5129
  956MOL0     H29025   3.041  -0.023   9.399 -0.1646  0.0612 -0.2785
  956MOL0     H29026   3.121  -0.113   8.997 -0.5289 -1.4088 -0.7390
  956MOL0     H29027   3.113  -0.279   9.071  2.8017  1.0820 -1.8834
  956MOL0     H29028   2.853  -0.263   9.061 -2.0826 -0.0074 -3.0188
  956MOL0     H29029   2.881  -0.095   9.007 -0.8504  0.3055 -1.6087
  956MOL0     H29030   2.946  -0.350   8.859 -3.1079 -0.1113 -2.7180
  956MOL0     H29031   3.006  -0.190   8.811 -1.0256 -0.3496 -2.1340
  956MOL0     H29032   2.770  -0.112   8.794  0.3624  0.3038  0.3430
  956MOL0     H29033   2.820  -0.236   8.684  2.5089  2.3439 -0.6115
  956MOL0     H29034   2.661  -0.281   8.930  1.1162 -0.2111  0.4265
  956MOL0     H29035   2.739  -0.410   8.817  1.4878  0.4453  1.2510
  956MOL0     H29036   2.533  -0.206   8.725  1.0910 -0.0818 -0.4748
  956MOL0     H29037   2.606  -0.327   8.626  1.5786  0.5098  0.6678
  956MOL0     H29038   2.532  -0.501   8.779  0.1645  1.4104  0.2600
  956MOL0     H29039   2.404  -0.425   8.677 -1.0052 -1.2633  1.0188
  956MOL0     H29040   2.343  -0.272   8.857 -3.0782 -2.4547  0.3562
  956MOL0     H29041   2.433  -0.372   8.975  1.3413 -1.7802 -0.2481
  956MOL0     H29042   3.323  -0.130   9.115  0.3647 -2.5183  0.3914
  956MOL0     H29043   3.502  -0.031   9.239 -1.5329  1.0829 -2.0988
  956MOL0     H29044   3.577   0.180   9.689  0.6218  2.0258  0.0938
  956MOL0     H29045   3.717   0.310   9.811  1.7147 -2.3115  0.9513
  956MOL0     H29046   5.570   0.827  10.057  1.7383  2.6013  1.1136
  956MOL0     H29047   5.762   0.877  10.190  1.9233 -1.5577  0.7764
  956MOL0     H29048   6.067   1.105  10.409  0.3390 -0.4019 -0.9271
  956MOL0     H29049   6.297   1.146  10.537  2.1887 -1.6195  1.4977
  956MOL0     H29050   6.632   0.984  10.326 -0.3064 -1.6843  0.3953
  956MOL0     H29051   6.676   1.126  10.420  1.6393 -0.4322  1.4875
  956MOL0     H29052   6.758   0.962  10.595  1.4332  2.2530 -0.7179
  956MOL0     H29053   6.843   1.001  10.453 -0.3486  0.3012 -2.3869
  956MOL0     H29054   6.762   0.801  10.346  1.7525  1.3378  0.8481
  956MOL0     H29055   6.660   0.758  10.480 -0.9036  2.1576 -0.3494
  956MOL0     H29056   6.867   0.622  10.505  3.3704 -1.2858  1.0315
  956MOL0     H29057   6.880   0.765  10.618  0.1401 -0.7150 -0.2694
  956MOL0     H29058   7.191   0.846  10.352  1.1041  0.1336  2.5297
  956MOL0     H29059   6.475   0.832  10.307  0.0594 -1.0226  1.3505
  956MOL0     H29060   6.244   0.782  10.207  0.9925 -1.4454  0.5674
  957MOL0     O29061   7.876   0.234   0.006  0.0734 -0.3124  0.4155
  957MOL0     C29062   7.880   0.183  -0.104  0.3410 -0.1285 -0.2109
  957MOL0     O29063   7.784   0.200  -0.198  0.6935 -0.0747 -0.3010
  957MOL0     C29064   7.647   0.178  -0.173  0.8579  0.0334  0.0202
  957MOL0     C29065   7.553   0.282  -0.190 -0.0757 -0.3847 -0.1942
  957MOL0     C29066   7.415   0.265  -0.171 -0.0308  0.6385 -0.0830
  957MOL0     C29067   7.362   0.146  -0.107 -0.0798 -0.4079  0.0741
  957MOL0     O29068   7.231   0.109  -0.094  0.0499 -0.2486  0.0672
  957MOL0     C29069   7.135   0.212  -0.089  0.6101 -0.5902 -0.6623
  957MOL0     C29070   7.000   0.153  -0.041  0.3750 -0.5768  0.6296
  957MOL0     C29071   7.011   0.091   0.092  0.6035  0.1342 -0.8585
  957MOL0     C29072   6.881   0.070   0.161  0.6386  0.2401 -0.1017
  957MOL0     C29073   6.890   0.027   0.305 -0.1626 -0.3774 -0.7142
  957MOL0     C29074   6.911  -0.126   0.306  0.1103  0.1159 -0.2544
  957MOL0     C29075   6.951  -0.186   0.434 -0.1482 -0.8786  0.0408
  957MOL0     C29076   6.857  -0.150   0.547  0.2978  0.6429 -0.4804
  957MOL0     N29077   6.712  -0.176   0.515 -0.4330  0.0723  0.0777
  957MOL0     C29078   6.662  -0.298   0.484 -0.8203 -0.0626  0.1479
  957MOL0     C29079   6.532  -0.280   0.463  0.0980 -0.2327  0.1213
  957MOL0     C29080   6.426  -0.388   0.424 -0.4729 -0.1814 -0.3127
  957MOL0     C29081   6.455  -0.527   0.494  0.1388 -0.3146  0.2994
  957MOL0     C29082   6.342  -0.622   0.454  0.5235 -0.1898 -0.1471
  957MOL0     C29083   6.358  -0.747   0.536  0.4961 -0.4107  0.8530
  957MOL0     O29084   6.289  -0.850   0.468  0.2469  0.0596  0.5391
  957MOL0     C29085   6.150  -0.847   0.467 -0.3193 -0.5154  0.5558
  957MOL0     C29086   6.087  -0.938   0.383 -0.1599 -0.3999  0.8549
  957MOL0     C29087   5.948  -0.955   0.376  0.2443 -0.1757 -0.1608
  957MOL0     C29088   5.903  -1.077   0.295  0.2003  1.3395 -0.3051
  957MOL0     C29089   5.863  -0.871   0.460 -0.1104  0.1375 -0.1277
  957MOL0     C29090   5.709  -0.866   0.455  0.3962 -0.3014  0.0594
  957MOL0     O29091   5.642  -0.804   0.561 -0.2131 -0.2916 -0.3567
  957MOL0     C29092   5.512  -0.781   0.550  0.2936 -0.6932 -0.5121
  957MOL0     C29093   5.440  -0.716   0.453  0.4125 -0.4092  0.1127
  957MOL0     C29094   5.307  -0.691   0.469  0.8034 -0.6387  0.2912
  957MOL0     C29095   5.237  -0.717   0.584 -0.4611  0.1106  0.0089
  957MOL0     O29096   5.110  -0.694   0.586  1.0109 -0.2394 -0.0408
  957MOL0     C29097   5.071  -0.609   0.700  0.8088  0.0309  1.0360
  957MOL0     C29098   4.925  -0.638   0.750  0.5505 -0.0634  0.0384
  957MOL0     C29099   4.811  -0.661   0.645  0.8727  0.1526  0.4648
  957MOL0     C29100   4.730  -0.787   0.679  0.2283 -0.1945  0.3399
  957MOL0     C29101   4.629  -0.812   0.567  0.8383  0.6194  0.2335
  957MOL0     C29102   4.515  -0.913   0.604  0.6881 -0.4113  0.3567
  957MOL0     C29103   4.431  -0.858   0.721 -0.0138 -0.3966 -0.0979
  957MOL0     C29104   4.304  -0.947   0.748 -0.9903  0.8299  0.0191
  957MOL0    Cl29105   4.186  -0.944   0.611  0.2764 -0.3845  0.1226
  957MOL0     C29106   5.312  -0.775   0.688  0.2243  0.4937  0.3502
  957MOL0     C29107   5.440  -0.815   0.663 -0.4995 -0.0232  0.5517
  957MOL0     O29108   5.660  -0.899   0.351 -0.6728 -0.0574 -0.2743
  957MOL0     C29109   5.924  -0.769   0.534 -0.1436  0.1859 -0.3005
  957MOL0     C29110   6.068  -0.763   0.535  0.0449 -0.0982  0.2495
  957MOL0     N29111   6.502  -0.149   0.497  0.3049  1.1063  0.6152
  957MOL0     N29112   6.605  -0.090   0.537 -0.5441  0.4734  0.5855
  957MOL0     C29113   7.459   0.051  -0.079  0.0217  0.2842 -0.0701
  957MOL0     C29114   7.591   0.064  -0.109 -0.5227  0.1743  0.4432
  957MOL0     C29115   8.017   0.145  -0.149  1.4716  0.0198 -0.1134
  957MOL0     C29116   8.031   0.076  -0.274 -0.5282  0.3369 -0.8898
  957MOL0     C29117   8.152   0.020  -0.319 -0.1946  0.0623  0.4344
  957MOL0     C29118   8.261   0.036  -0.230  0.8090 -0.2217  0.5003
  957MOL0     O29119   8.383  -0.010  -0.267 -0.5049  0.3892 -0.1508
  957MOL0     C29120   8.410  -0.079  -0.392  0.4007 -0.3987  0.2673
  957MOL0     C29121   8.558  -0.114  -0.407  0.0154  0.8642 -0.0672
  957MOL0     C29122   8.644   0.014  -0.443  0.6845  0.2513 -0.1085
  957MOL0     C29123   8.790  -0.020  -0.475  0.1291 -0.3259  0.1992
  957MOL0     C29124   8.811  -0.112  -0.592  0.0055  0.7193 -0.3361
  957MOL0     C29125   8.821  -0.186  -0.689 -0.6133  0.7251  0.1469
  957MOL0     C29126   8.254   0.126  -0.118 -0.4729  0.1825 -0.0175
  957MOL0     C29127   8.136   0.179  -0.075  0.5195 -0.6645 -0.0314
  957MOL0     H29128   7.595   0.373  -0.231 -0.7185  0.5742  1.2221
  957MOL0     H29129   7.351   0.342  -0.212  0.9343  0.6976 -1.5364
  957MOL0     H29130   7.161   0.294  -0.022 -4.3946  1.8764 -1.3186
  957MOL0     H29131   7.107   0.252  -0.187 -0.5246 -0.2038 -0.1981
  957MOL0     H29132   6.930   0.236  -0.029  0.5932 -0.5456  1.8645
  957MOL0     H29133   6.961   0.086  -0.118 -3.5450  1.3182  0.7095
  957MOL0     H29134   7.053  -0.009   0.079  2.9585  1.0229 -0.5835
  957MOL0     H29135   7.074   0.150   0.159  0.1251  0.3106 -0.5585
  957MOL0     H29136   6.823   0.163   0.162  2.0177  1.1297 -0.5406
  957MOL0     H29137   6.816   0.001   0.106 -1.0364  0.2141  1.7869
  957MOL0     H29138   6.966   0.083   0.360 -3.3181  0.3678  3.3354
  957MOL0     H29139   6.800   0.050   0.362  2.4236  2.0689  2.7192
  957MOL0     H29140   6.816  -0.164   0.270 -0.0158 -0.0304  0.2309
  957MOL0     H29141   6.986  -0.152   0.231  1.4825 -0.8744  1.3868
  957MOL0     H29142   6.956  -0.294   0.415 -2.6222 -1.1906  0.7719
  957MOL0     H29143   7.051  -0.152   0.463 -0.4616  1.3072 -1.2735
  957MOL0     H29144   6.865  -0.045   0.575  1.7029  0.0845  1.3578
  957MOL0     H29145   6.887  -0.214   0.630 -2.0481 -0.4707 -0.4018
  957MOL0     H29146   6.695  -0.398   0.459 -3.2795 -0.9999  0.3237
  957MOL0     H29147   6.326  -0.350   0.447  0.1235  0.3390  1.6756
  957MOL0     H29148   6.435  -0.402   0.316  1.1629  0.2082 -0.2611
  957MOL0     H29149   6.464  -0.505   0.601  1.9252  0.8180 -0.0465
  957MOL0     H29150   6.549  -0.569   0.460 -0.6219 -1.6660 -0.2060
  957MOL0     H29151   6.361  -0.645   0.349 -1.9595 -0.3436 -0.6043
  957MOL0     H29152   6.246  -0.571   0.463  0.8715  0.5734 -0.6771
  957MOL0     H29153   6.320  -0.748   0.639 -3.9661 -4.2065 -0.4673
  957MOL0     H29154   6.463  -0.776   0.529  0.5957  0.1032  0.1484
  957MOL0     H29155   6.154  -1.000   0.324  0.5195  1.0258  0.0705
  957MOL0     H29156   5.985  -1.128   0.244  1.4594  0.7514  2.1682
  957MOL0     H29157   5.867  -1.141   0.376  0.4523  1.0614 -0.4155
  957MOL0     H29158   5.821  -1.055   0.226 -1.2125  1.5316  1.3560
  957MOL0     H29159   5.488  -0.699   0.357 -1.0142  0.4784 -0.4702
  957MOL0     H29160   5.256  -0.628   0.396 -0.6896 -0.6164  1.2945
  957MOL0     H29161   5.133  -0.631   0.788 -2.4994 -2.4087  2.9616
  957MOL0     H29162   5.081  -0.505   0.667  1.0687 -0.5323 -0.7348
  957MOL0     H29163   4.934  -0.730   0.809  0.9991 -0.5883 -0.8413
  957MOL0     H29164   4.878  -0.564   0.816  0.4714 -1.2849  1.4029
  957MOL0     H29165   4.845  -0.683   0.543 -2.1330 -0.4635 -0.5145
  957MOL0     H29166   4.750  -0.570   0.647 -0.4538 -0.6939  0.4720
  957MOL0     H29167   4.796  -0.874   0.682 -0.7491 -0.9479  0.8059
  957MOL0     H29168   4.691  -0.786   0.781 -0.2388 -1.4939  0.2037
  957MOL0     H29169   4.681  -0.839   0.475  0.0614 -0.5560  0.1213
  957MOL0     H29170   4.588  -0.712   0.549  1.9845  1.0237 -0.2140
  957MOL0     H29171   4.454  -0.925   0.514 -1.0744  0.6606  1.3454
  957MOL0     H29172   4.551  -1.009   0.642 -1.2032 -0.6370  1.7087
  957MOL0     H29173   4.402  -0.760   0.683 -0.0038 -0.8264 -1.2563
  957MOL0     H29174   4.499  -0.836   0.804  2.6847 -1.5810 -1.8532
  957MOL0     H29175   4.260  -0.924   0.846 -0.1690 -0.9035  0.8283
  957MOL0     H29176   4.341  -1.047   0.774 -0.7045  1.2224  1.2021
  957MOL0     H29177   5.274  -0.807   0.784  1.9642 -4.4643 -0.3127
  957MOL0     H29178   5.488  -0.867   0.745  1.8539  0.3848 -0.4813
  957MOL0     H29179   5.868  -0.705   0.601 -0.9890 -1.3776  0.5472
  957MOL0     H29180   6.098  -0.678   0.595 -0.0290  0.0246  0.1114
  957MOL0     H29181   7.431  -0.039  -0.026 -2.3888 -0.1899 -1.9595
  957MOL0     H29182   7.645  -0.025  -0.081 -3.6079 -1.1635  2.7403
  957MOL0     H29183   7.939   0.060  -0.331 -1.0852 -1.1030  0.3442
  957MOL0     H29184   8.169  -0.034  -0.411  2.6409 -0.0591  0.9515
  957MOL0     H29185   8.359  -0.174  -0.408  2.3802 -1.3958 -0.3006
  957MOL0     H29186   8.387  -0.010  -0.474  1.8413 -0.2577 -0.0463
  957MOL0     H29187   8.555  -0.189  -0.487  0.4324  1.4641 -0.6596
  957MOL0     H29188   8.595  -0.162  -0.317 -0.5973 -0.5417 -0.5386
  957MOL0     H29189   8.633   0.088  -0.364 -1.1140  0.1360 -0.1951
  957MOL0     H29190   8.598   0.075  -0.522  0.2055  0.7978  0.5825
  957MOL0     H29191   8.848  -0.057  -0.390 -3.1057 -1.7356  1.9285
  957MOL0     H29192   8.842   0.071  -0.508  0.3205 -0.4578  0.1351
  957MOL0     H29193   8.831  -0.256  -0.769 -0.4482  2.9519 -1.9050
  957MOL0     H29194   8.354   0.140  -0.079 -1.1869  3.7305  0.8686
  957MOL0     H29195   8.130   0.248   0.009  1.2914  0.8447 -1.1652
  958MOL0     O29196   5.431   6.381   0.482 -0.1690  0.8624 -0.9727
  958MOL0     C29197   5.447   6.376   0.362  0.1139 -0.7845  0.7856
  958MOL0     O29198   5.537   6.298   0.293 -0.5828  0.5020 -0.8054
  958MOL0     C29199   5.604   6.200   0.364  0.3308 -0.2853 -0.7970
  958MOL0     C29200   5.607   6.078   0.301 -0.6292 -0.0900  0.5592
  958MOL0     C29201   5.679   5.972   0.364  0.4696  0.1227  0.0129
  958MOL0     C29202   5.750   5.996   0.482 -0.8251 -0.8093  0.1256
  958MOL0     O29203   5.810   5.889   0.544  0.2166 -0.0313 -0.5811
  958MOL0     C29204   5.756   5.848   0.672 -0.1822  0.8393  0.8354
  958MOL0     C29205   5.852   5.739   0.742 -0.3507 -0.1987  0.0465
  958MOL0     C29206   5.990   5.800   0.763  0.2131 -0.9904  0.6207
  958MOL0     C29207   6.063   5.706   0.851 -0.4989 -0.0121 -0.4502
  958MOL0     C29208   6.212   5.733   0.863  0.3299  0.6711  0.0143
  958MOL0     C29209   6.275   5.740   0.721  0.2337 -0.7240  0.2144
  958MOL0     C29210   6.429   5.717   0.721  0.8035  0.7387  0.1035
  958MOL0     C29211   6.500   5.810   0.809 -0.1789 -0.5933 -0.6079
  958MOL0     N29212   6.521   5.954   0.773  0.9273 -0.9655 -0.0285
  958MOL0     C29213   6.428   6.050   0.750 -0.1170  0.0830  0.3737
  958MOL0     C29214   6.479   6.174   0.771  0.4071  0.5897 -0.4706
  958MOL0     C29215   6.412   6.309   0.770 -0.7098 -0.4018  0.1955
  958MOL0     C29216   6.383   6.368   0.906 -0.0055  0.6322 -0.3285
  958MOL0     C29217   6.303   6.495   0.897  0.0540 -0.4009  0.2952
  958MOL0     C29218   6.156   6.473   0.840 -0.2206  0.0053 -0.6049
  958MOL0     O29219   6.097   6.599   0.872  0.4911 -1.3052 -0.4473
  958MOL0     C29220   5.973   6.642   0.828 -0.3200  0.5688 -0.1026
  958MOL0     C29221   5.943   6.774   0.851 -0.4970 -0.0860 -0.1730
  958MOL0     C29222   5.811   6.828   0.826 -1.2980 -0.3811 -0.2126
  958MOL0     C29223   5.788   6.979   0.855 -0.2913  0.2391 -0.6659
  958MOL0     C29224   5.706   6.750   0.766 -0.7899  0.9512  0.3850
  958MOL0     C29225   5.562   6.783   0.745  0.0068 -0.3336 -0.1358
  958MOL0     O29226   5.470   6.683   0.761  0.7726  0.2294 -0.1923
  958MOL0     C29227   5.337   6.704   0.740  0.3365  0.4616 -0.0743
  958MOL0     C29228   5.257   6.824   0.752 -0.3666 -0.4046  0.7502
  958MOL0     C29229   5.117   6.816   0.745  0.1328  0.0221 -0.7504
  958MOL0     C29230   5.048   6.700   0.691  0.3806  0.3074 -0.1212
  958MOL0     O29231   4.909   6.692   0.672  0.0410  0.1099  0.1378
  958MOL0     C29232   4.835   6.813   0.712  0.1304 -0.0787  0.1042
  958MOL0     C29233   4.685   6.806   0.687 -0.3520 -0.0768  0.1043
  958MOL0     C29234   4.611   6.867   0.812 -0.7590 -0.3396  0.4896
  958MOL0     C29235   4.464   6.842   0.793 -0.0246  1.3249 -1.0079
  958MOL0     C29236   4.384   6.920   0.889  0.0039 -0.7695  0.1418
  958MOL0     C29237   4.233   6.897   0.861 -0.1718 -0.6195 -0.0793
  958MOL0     C29238   4.185   6.937   0.716  0.3394 -0.5556  0.2310
  958MOL0     C29239   4.042   6.912   0.697  0.5951  0.2696 -0.3625
  958MOL0    Cl29240   3.924   7.029   0.767 -0.1086 -0.3544 -0.8176
  958MOL0     C29241   5.132   6.593   0.661 -0.1507 -0.1030 -0.5086
  958MOL0     C29242   5.267   6.588   0.689 -0.4849 -0.1899  0.6832
  958MOL0     O29243   5.533   6.900   0.707  0.0952  0.8856 -0.0169
  958MOL0     C29244   5.743   6.616   0.741  0.5560 -0.5659 -0.0117
  958MOL0     C29245   5.868   6.571   0.767 -0.6056  0.3187  0.5663
  958MOL0     N29246   6.606   6.144   0.818 -0.5469  0.6437  0.1847
  958MOL0     N29247   6.633   6.019   0.808  0.9344 -0.3729 -0.5094
  958MOL0     C29248   5.759   6.126   0.532 -1.2326 -0.1464  0.0393
  958MOL0     C29249   5.671   6.227   0.480 -0.0142 -0.6443  0.1114
  958MOL0     C29250   5.356   6.466   0.266  0.3924  0.8489 -0.4853
  958MOL0     C29251   5.257   6.558   0.322 -0.6595  0.5350 -0.0864
  958MOL0     C29252   5.171   6.638   0.243  0.3348 -1.1096  0.2627
  958MOL0     C29253   5.182   6.625   0.098  0.9664 -0.9157 -0.1773
  958MOL0     O29254   5.098   6.707   0.027 -0.3998  0.1621 -1.0754
  958MOL0     C29255   5.149   6.755  -0.096  0.4293 -0.1037  0.2379
  958MOL0     C29256   5.065   6.881  -0.136  0.0765  1.0531  0.7697
  958MOL0     C29257   4.911   6.825  -0.155 -0.9274  0.2183 -0.7826
  958MOL0     C29258   4.822   6.925  -0.232  0.6879  0.2020  0.5116
  958MOL0     C29259   4.687   6.864  -0.231  0.7888  0.5000 -1.2124
  958MOL0     C29260   4.575   6.816  -0.222  0.2766 -0.3424  0.3088
  958MOL0     C29261   5.286   6.546   0.048  0.0419 -0.0356  0.4210
  958MOL0     C29262   5.378   6.477   0.127  0.6930 -0.0378  0.3186
  958MOL0     H29263   5.557   6.056   0.207 -1.4632 -0.2851  1.0384
  958MOL0     H29264   5.694   5.869   0.336 -0.6997  0.2679 -1.2588
  958MOL0     H29265   5.728   5.941   0.721 -0.6402  0.4101  1.4025
  958MOL0     H29266   5.660   5.796   0.662  1.6802 -3.2624  2.1016
  958MOL0     H29267   5.810   5.714   0.840 -0.8230  1.2191  0.2365
  958MOL0     H29268   5.871   5.651   0.680  2.1491 -0.6679  1.3594
  958MOL0     H29269   6.034   5.812   0.663  1.8183 -2.0653  1.1596
  958MOL0     H29270   5.992   5.900   0.807  3.4967 -0.0492 -1.3151
  958MOL0     H29271   6.012   5.705   0.948 -1.2201 -0.6406 -0.8222
  958MOL0     H29272   6.049   5.601   0.821 -0.3066  0.2699 -1.5423
  958MOL0     H29273   6.228   5.822   0.925 -1.3360  0.7596  0.3678
  958MOL0     H29274   6.254   5.645   0.914  0.4329  0.7357  0.0415
  958MOL0     H29275   6.228   5.667   0.655 -2.6454  1.9920 -1.0037
  958MOL0     H29276   6.253   5.841   0.686 -0.0301 -0.0752  2.0872
  958MOL0     H29277   6.436   5.609   0.742 -3.9819 -0.4137 -2.6897
  958MOL0     H29278   6.457   5.740   0.618 -0.8375  2.8315  0.0838
  958MOL0     H29279   6.599   5.767   0.829 -0.0530 -0.1401 -0.2365
  958MOL0     H29280   6.463   5.824   0.911  2.0907 -0.1269  0.2014
  958MOL0     H29281   6.330   6.029   0.709  1.4489  0.6947 -4.2429
  958MOL0     H29282   6.473   6.374   0.707 -1.2702 -2.0302 -2.1356
  958MOL0     H29283   6.318   6.298   0.716 -0.7608 -1.1515  0.4220
  958MOL0     H29284   6.475   6.397   0.957 -1.1555 -0.4983  2.5537
  958MOL0     H29285   6.328   6.296   0.968  0.9544  0.3803  0.2386
  958MOL0     H29286   6.353   6.568   0.832 -2.4581  0.0543 -1.2866
  958MOL0     H29287   6.292   6.544   0.994 -1.0637 -0.0383  0.0073
  958MOL0     H29288   6.111   6.390   0.895  1.5069 -0.6172 -0.0658
  958MOL0     H29289   6.153   6.452   0.733  1.0509 -2.1153 -0.2718
  958MOL0     H29290   6.013   6.827   0.915  0.7350 -1.2944 -0.4834
  958MOL0     H29291   5.876   7.043   0.866 -1.0766  1.0677  1.0950
  958MOL0     H29292   5.730   7.015   0.769 -3.0379 -1.6131  0.2819
  958MOL0     H29293   5.719   6.984   0.939 -0.7598 -1.3724 -0.9142
  958MOL0     H29294   5.284   6.927   0.774 -1.7285 -0.2115  1.6265
  958MOL0     H29295   5.064   6.908   0.768 -0.7517 -1.0145  1.5638
  958MOL0     H29296   4.845   6.813   0.820  1.1253  0.0690  0.0168
  958MOL0     H29297   4.874   6.910   0.678  1.7783 -1.7365 -3.2943
  958MOL0     H29298   4.669   6.855   0.591 -2.0032 -1.1573 -0.2201
  958MOL0     H29299   4.652   6.702   0.682 -1.8023  0.3945 -0.5188
  958MOL0     H29300   4.626   6.974   0.799 -1.3144  0.1036  2.9153
  958MOL0     H29301   4.649   6.834   0.909 -1.2371 -0.6648  0.5696
  958MOL0     H29302   4.449   6.884   0.693  1.8462 -0.4842 -2.1530
  958MOL0     H29303   4.437   6.736   0.794  3.0452  0.4346 -1.6160
  958MOL0     H29304   4.413   7.026   0.891  5.8934 -1.9186 -2.3643
  958MOL0     H29305   4.410   6.896   0.993  0.6012  1.5938  0.6063
  958MOL0     H29306   4.205   6.794   0.885  0.7705 -0.3904  2.2471
  958MOL0     H29307   4.172   6.950   0.935 -1.1953 -0.9937 -0.6358
  958MOL0     H29308   4.231   6.870   0.643  0.5876 -0.3578  0.2048
  958MOL0     H29309   4.213   7.040   0.693  2.5583 -0.9131  1.0774
  958MOL0     H29310   4.012   6.814   0.735  0.1161 -0.3786 -2.3108
  958MOL0     H29311   4.027   6.913   0.588 -0.5201 -1.3703 -0.2427
  958MOL0     H29312   5.097   6.501   0.615 -1.8877  1.0507 -1.5968
  958MOL0     H29313   5.312   6.493   0.660 -1.7148 -0.8602  0.9150
  958MOL0     H29314   5.672   6.542   0.703 -1.5072  0.9960  0.6367
  958MOL0     H29315   5.874   6.465   0.742  1.2809  0.4868  0.1507
  958MOL0     H29316   5.823   6.160   0.613 -1.7223  2.2749 -0.5140
  958MOL0     H29317   5.670   6.327   0.524  0.9783  0.0645 -1.3784
  958MOL0     H29318   5.250   6.584   0.427 -0.8592 -0.0976  0.0580
  958MOL0     H29319   5.093   6.699   0.287 -0.5933 -1.3902 -0.9464
  958MOL0     H29320   5.252   6.790  -0.090 -0.6295  3.0201  2.4979
  958MOL0     H29321   5.148   6.668  -0.162  3.4580 -0.7424  0.8918
  958MOL0     H29322   5.100   6.917  -0.233  0.1289 -0.7380  0.0678
  958MOL0     H29323   5.067   6.963  -0.065  2.5270  2.1881 -0.4621
  958MOL0     H29324   4.865   6.813  -0.056 -1.0182  1.9678 -0.5682
  958MOL0     H29325   4.908   6.732  -0.212 -0.2793  0.1792 -0.7554
  958MOL0     H29326   4.851   6.935  -0.337  1.2691 -2.6173  0.3196
  958MOL0     H29327   4.813   7.024  -0.187 -0.7959  1.4500 -2.2974
  958MOL0     H29328   4.474   6.784  -0.238  0.2334  1.2346 -3.9913
  958MOL0     H29329   5.309   6.549  -0.058 -1.0685  0.6734  0.1795
  958MOL0     H29330   5.461   6.425   0.080  3.6845  4.0289  0.5828
  959MOL0     O29331   4.143   5.632   8.857 -0.6421 -0.6259 -0.1739
  959MOL0     C29332   4.182   5.513   8.839 -0.5041 -0.0333 -0.2518
  959MOL0     O29333   4.098   5.410   8.834 -0.3203  0.3500  0.1267
  959MOL0     C29334   3.973   5.435   8.896 -0.6941  0.1943  0.0273
  959MOL0     C29335   3.940   5.373   9.023 -0.6942 -0.0226 -0.3326
  959MOL0     C29336   3.809   5.369   9.069  0.4819 -1.3706 -0.6163
  959MOL0     C29337   3.708   5.433   9.005 -0.4487 -0.6599  0.0381
  959MOL0     O29338   3.587   5.455   9.073  1.1676  0.7084 -0.7461
  959MOL0     C29339   3.466   5.497   9.008  0.2929 -0.4998  0.4050
  959MOL0     C29340   3.341   5.492   9.099  0.1351 -0.3525  0.3303
  959MOL0     C29341   3.234   5.580   9.038  0.9560  0.4820 -0.2626
  959MOL0     C29342   3.141   5.493   8.945  0.3450  0.0369  0.4808
  959MOL0     C29343   3.011   5.573   8.955 -0.5145  0.1154  0.2855
  959MOL0     C29344   2.903   5.513   8.870  1.1411 -0.7916 -0.5597
  959MOL0     C29345   2.771   5.587   8.884  0.4158  0.3833 -0.6738
  959MOL0     C29346   2.677   5.563   8.767  0.8088 -0.2595 -0.2448
  959MOL0     N29347   2.553   5.632   8.806 -0.0767  0.3095 -0.3588
  959MOL0     C29348   2.460   5.586   8.896  0.1099  0.0451 -0.4715
  959MOL0     C29349   2.347   5.657   8.880  0.1716  0.2511 -0.3746
  959MOL0     C29350   2.219   5.644   8.961  0.0500 -0.1564  0.2664
  959MOL0     C29351   2.238   5.627   9.107  0.1688  0.3774 -0.6604
  959MOL0     C29352   2.294   5.757   9.157  0.1695 -0.1225 -0.3916
  959MOL0     C29353   2.345   5.750   9.301 -0.6016  0.3253  0.0840
  959MOL0     O29354   2.265   5.681   9.402 -0.0785 -0.1973 -0.6235
  959MOL0     C29355   2.144   5.729   9.437  0.0929 -0.3505  0.3706
  959MOL0     C29356   2.109   5.867   9.413 -0.2056  0.0308  0.1883
  959MOL0     C29357   1.990   5.910   9.467 -0.8810 -0.7801 -0.0247
  959MOL0     C29358   1.969   6.066   9.454 -0.1988 -0.4156 -0.0893
  959MOL0     C29359   1.904   5.822   9.532  0.8404 -0.2037  0.3832
  959MOL0     C29360   1.773   5.869   9.591  1.1220  0.8415  0.1507
  959MOL0     O29361   1.753   5.814   9.716 -0.1340  0.8217  0.8044
  959MOL0     C29362   1.629   5.821   9.777  1.2208  0.0791  0.2319
  959MOL0     C29363   1.542   5.931   9.777 -0.5433  0.0515 -0.1053
  959MOL0     C29364   1.426   5.924   9.850  0.0742 -0.9664 -1.1155
  959MOL0     C29365   1.406   5.806   9.937 -0.0961 -0.4869  0.0898
  959MOL0     O29366   1.285   5.797  10.004 -0.1641 -0.3025 -0.4861
  959MOL0     C29367   1.280   5.703  10.114  1.0126 -0.6829  1.1880
  959MOL0     C29368   1.139   5.726  10.175 -1.1455  0.6847  0.0200
  959MOL0     C29369   1.132   5.855  10.252 -0.1711 -0.4334  0.3740
  959MOL0     C29370   0.994   5.903  10.285 -0.2528 -0.1806  0.9776
  959MOL0     C29371   1.002   6.015  10.388 -0.5197  1.0942  0.3056
  959MOL0     C29372   0.878   6.108  10.381 -0.2611 -0.0205 -0.3252
  959MOL0     C29373   0.898   6.234  10.467 -0.3049 -0.2463  0.4742
  959MOL0     C29374   0.772   6.324  10.490 -0.6900 -0.6959 -0.6987
  959MOL0    Cl29375   0.778   6.458  10.373 -0.1262 -0.3411 -0.2546
  959MOL0     C29376   1.498   5.693   9.944 -0.1375 -0.2249  0.6970
  959MOL0     C29377   1.605   5.711   9.859  0.6831 -0.6377 -0.0872
  959MOL0     O29378   1.693   5.949   9.530  0.6595  0.0499  0.0557
  959MOL0     C29379   1.939   5.685   9.553  0.1730 -0.9509 -0.0444
  959MOL0     C29380   2.059   5.638   9.510 -0.2620 -0.1012  0.1343
  959MOL0     N29381   2.367   5.743   8.779 -0.2138 -0.3043 -0.3452
  959MOL0     N29382   2.493   5.737   8.741 -1.1113 -0.1019  0.7277
  959MOL0     C29383   3.740   5.501   8.883 -0.5576  0.1982 -0.2398
  959MOL0     C29384   3.873   5.504   8.829  0.1923  0.4038  0.1700
  959MOL0     C29385   4.316   5.486   8.785 -0.3211 -0.0419 -0.5300
  959MOL0     C29386   4.349   5.362   8.733  0.4569 -0.1188 -0.4107
  959MOL0     C29387   4.473   5.330   8.688  0.0139  0.3472 -0.5160
  959MOL0     C29388   4.571   5.427   8.682 -0.1822 -0.6363 -0.4020
  959MOL0     O29389   4.696   5.396   8.648 -0.3910  0.6233  0.1109
  959MOL0     C29390   4.705   5.332   8.520 -0.3990 -0.7704 -0.6209
  959MOL0     C29391   4.818   5.234   8.496 -0.0008 -0.4077 -0.3384
  959MOL0     C29392   4.796   5.096   8.556 -0.7685 -0.2798 -0.8686
  959MOL0     C29393   4.925   5.010   8.560 -0.2678  0.0904 -0.1589
  959MOL0     C29394   4.981   4.966   8.428  0.2214 -0.6739 -0.3330
  959MOL0     C29395   5.038   4.943   8.325 -0.4977 -0.0023  0.4198
  959MOL0     C29396   4.541   5.550   8.748 -0.7709  0.9383  0.3960
  959MOL0     C29397   4.415   5.575   8.787  0.7160 -0.7877 -0.5374
  959MOL0     H29398   4.018   5.305   9.057  0.6024  1.5265 -0.0650
  959MOL0     H29399   3.789   5.321   9.164 -3.6712  1.0234 -0.0560
  959MOL0     H29400   3.474   5.601   8.975  0.4474 -0.0006  1.9477
  959MOL0     H29401   3.439   5.440   8.919 -0.0547  1.2775 -0.6802
  959MOL0     H29402   3.315   5.386   9.111  0.5473 -0.4452  0.4158
  959MOL0     H29403   3.371   5.533   9.196 -1.8352 -0.2935  0.9715
  959MOL0     H29404   3.177   5.620   9.122 -0.8816 -0.9362 -0.7559
  959MOL0     H29405   3.266   5.670   8.986  3.9772 -1.3841 -1.9594
  959MOL0     H29406   3.182   5.480   8.845  3.1993  0.9988  1.4153
  959MOL0     H29407   3.143   5.390   8.982 -2.2977 -0.0142  0.6471
  959MOL0     H29408   2.977   5.572   9.059 -1.9080  0.5579 -0.1394
  959MOL0     H29409   3.039   5.676   8.934  0.3476  0.0548  1.0545
  959MOL0     H29410   2.931   5.510   8.764  1.9242  0.3055 -0.3970
  959MOL0     H29411   2.885   5.406   8.888 -0.4740 -0.4791 -0.1144
  959MOL0     H29412   2.713   5.552   8.970  0.3853  1.2689 -0.3208
  959MOL0     H29413   2.795   5.694   8.887 -1.2156  0.7598  0.3885
  959MOL0     H29414   2.665   5.456   8.752  0.4450 -0.4160  1.0630
  959MOL0     H29415   2.716   5.606   8.675 -0.6829  2.9424  0.4717
  959MOL0     H29416   2.474   5.506   8.968 -0.2977 -1.5392 -2.0784
  959MOL0     H29417   2.144   5.723   8.951 -1.1837 -1.5551 -2.8526
  959MOL0     H29418   2.181   5.550   8.919  3.1107 -1.3804  0.0402
  959MOL0     H29419   2.312   5.548   9.117 -0.0065  0.4685  1.9278
  959MOL0     H29420   2.144   5.598   9.156  0.5368  2.7574  1.6995
  959MOL0     H29421   2.212   5.829   9.150 -1.3963 -1.6284  1.2244
  959MOL0     H29422   2.373   5.798   9.094  2.3609 -3.4261 -0.0478
  959MOL0     H29423   2.380   5.849   9.331  3.3737 -0.6722 -0.7100
  959MOL0     H29424   2.437   5.692   9.307 -1.3489 -0.9343 -0.3689
  959MOL0     H29425   2.170   5.936   9.356  0.1730 -0.8074 -0.4291
  959MOL0     H29426   1.891   6.080   9.378 -0.2991  1.1317  0.2597
  959MOL0     H29427   1.945   6.116   9.548  1.3133  2.8401 -1.2712
  959MOL0     H29428   2.060   6.105   9.407 -1.2743  0.2423 -1.7217
  959MOL0     H29429   1.569   6.026   9.733  2.4851 -0.3191  0.6990
  959MOL0     H29430   1.350   6.001   9.859  0.4309 -0.8508  2.0321
  959MOL0     H29431   1.282   5.607  10.061 -2.5732 -1.2364  1.7477
  959MOL0     H29432   1.360   5.718  10.187  1.3369 -2.5812  1.2629
  959MOL0     H29433   1.065   5.729  10.094 -0.7682  0.8187 -0.3257
  959MOL0     H29434   1.118   5.640  10.239  0.1840  1.9859  2.3438
  959MOL0     H29435   1.159   5.935  10.182 -2.9607  0.7814  0.5410
  959MOL0     H29436   1.198   5.865  10.339  2.2605  0.7880 -1.4876
  959MOL0     H29437   0.937   5.942  10.200  0.9827 -1.6908 -0.6038
  959MOL0     H29438   0.925   5.827  10.324 -1.5062  0.9914  1.1418
  959MOL0     H29439   1.089   6.079  10.372  0.8813 -0.7712  0.1027
  959MOL0     H29440   1.019   5.971  10.486 -0.9015  3.7696  1.6553
  959MOL0     H29441   0.844   6.138  10.281 -2.7305  1.4679  0.8761
  959MOL0     H29442   0.803   6.049  10.433  0.2231  2.7324  4.0124
  959MOL0     H29443   0.974   6.288  10.409 -2.4044  0.8487 -1.4254
  959MOL0     H29444   0.935   6.210  10.567 -2.1769  2.4697  1.9363
  959MOL0     H29445   0.771   6.364  10.592 -1.0780  1.4691 -1.4950
  959MOL0     H29446   0.676   6.272  10.487 -1.5005  0.6748  0.1879
  959MOL0     H29447   1.491   5.602  10.003  2.7543 -1.3844 -0.5152
  959MOL0     H29448   1.667   5.622   9.857  1.1109 -0.3375 -1.0185
  959MOL0     H29449   1.878   5.629   9.624  2.5389  0.0851  3.0398
  959MOL0     H29450   2.090   5.538   9.536 -3.1121 -1.0958  0.0229
  959MOL0     H29451   3.668   5.569   8.839  0.8008  1.3886 -0.6946
  959MOL0     H29452   3.900   5.559   8.739 -0.1138 -1.6398 -1.2319
  959MOL0     H29453   4.273   5.286   8.720  1.6229 -1.7793  1.9884
  959MOL0     H29454   4.510   5.229   8.674  6.1337  1.8004  1.9707
  959MOL0     H29455   4.611   5.291   8.482 -0.3533  0.8535 -2.6869
  959MOL0     H29456   4.720   5.419   8.455  1.0344  0.2837  1.0426
  959MOL0     H29457   4.908   5.278   8.537  0.0987 -2.5750  2.0203
  959MOL0     H29458   4.822   5.224   8.387  0.7023  0.5087 -0.4109
  959MOL0     H29459   4.720   5.047   8.496 -2.2154 -0.4552  1.0161
  959MOL0     H29460   4.761   5.111   8.658  0.3093 -2.1267 -0.1806
  959MOL0     H29461   4.907   4.923   8.622 -1.6456  1.1453  0.9928
  959MOL0     H29462   4.999   5.073   8.610 -0.3487  0.2760 -0.2717
  959MOL0     H29463   5.103   4.928   8.241 -2.2466 -3.1768 -0.5069
  959MOL0     H29464   4.619   5.625   8.747  2.0537 -1.8212 -0.9098
  959MOL0     H29465   4.380   5.670   8.825  1.0323 -1.2474  0.9730
  960MOL0     O29466   8.024   2.260   3.811 -0.0718  0.1645  0.4288
  960MOL0     C29467   8.036   2.152   3.743 -0.4649 -0.3388  0.1520
  960MOL0     O29468   7.967   2.038   3.771 -0.6567  0.0469  0.3371
  960MOL0     C29469   7.865   2.034   3.863 -0.8202 -0.5705 -0.3081
  960MOL0     C29470   7.899   2.002   3.996 -0.1053 -1.0088 -0.0765
  960MOL0     C29471   7.796   1.973   4.094  0.0727  0.6900 -0.2183
  960MOL0     C29472   7.665   1.979   4.069  0.1818  0.1327  0.0456
  960MOL0     O29473   7.565   1.961   4.168 -1.0924 -0.0280 -0.2215
  960MOL0     C29474   7.431   1.973   4.126  0.9834  0.5922 -0.0722
  960MOL0     C29475   7.379   2.124   4.112  0.5531 -0.5412  0.5204
  960MOL0     C29476   7.236   2.114   4.053  0.1117 -0.2043 -0.0331
  960MOL0     C29477   7.165   2.252   4.042 -0.2806  0.4785  0.0048
  960MOL0     C29478   7.013   2.242   4.016  0.3335  0.1006  0.2144
  960MOL0     C29479   6.941   2.232   4.142  0.1644 -0.1581 -0.1589
  960MOL0     C29480   6.797   2.192   4.109  0.0483  0.5089 -0.5128
  960MOL0     C29481   6.706   2.185   4.228 -0.6529 -0.3109  0.0474
  960MOL0     N29482   6.573   2.150   4.181 -0.1973 -0.1497  0.0833
  960MOL0     C29483   6.478   2.241   4.142 -0.3266 -0.2017 -0.0129
  960MOL0     C29484   6.389   2.176   4.074  0.2029 -0.9013  0.4932
  960MOL0     C29485   6.270   2.222   4.003  0.4785 -0.3330 -0.0602
  960MOL0     C29486   6.176   2.288   4.119 -0.8360 -0.0644 -0.5100
  960MOL0     C29487   6.096   2.180   4.205 -0.3514  0.2180  0.7830
  960MOL0     C29488   6.013   2.101   4.109 -0.4930 -0.2312 -0.2548
  960MOL0     O29489   5.908   2.046   4.188  1.0222 -1.1309 -0.1977
  960MOL0     C29490   5.785   2.031   4.124 -0.8208  0.7455 -0.0571
  960MOL0     C29491   5.668   2.006   4.204  0.7855 -0.5191 -0.1257
  960MOL0     C29492   5.538   2.001   4.141  0.3511  0.4657 -0.4919
  960MOL0     C29493   5.415   1.984   4.229 -0.1474  0.4576  0.0762
  960MOL0     C29494   5.521   1.999   3.997 -0.5419  0.2306 -0.9479
  960MOL0     C29495   5.397   1.994   3.925  0.0065  0.0196 -0.3280
  960MOL0     O29496   5.392   1.894   3.822  0.0773 -0.5948  0.1201
  960MOL0     C29497   5.275   1.850   3.776 -0.0601  0.2744 -0.2965
  960MOL0     C29498   5.267   1.817   3.635  0.1746 -0.6377  0.0028
  960MOL0     C29499   5.152   1.768   3.572 -0.6226 -0.4828 -0.3174
  960MOL0     C29500   5.036   1.773   3.645  1.7164 -0.0402  0.2585
  960MOL0     O29501   4.921   1.734   3.579  0.0714 -0.1686  0.8788
  960MOL0     C29502   4.805   1.815   3.601 -0.5378  0.5119  0.2102
  960MOL0     C29503   4.706   1.805   3.480  0.7391 -0.1161  0.0139
  960MOL0     C29504   4.562   1.854   3.515 -0.6884 -0.1608 -0.2063
  960MOL0     C29505   4.485   1.864   3.378 -0.1623  0.6347 -0.2526
  960MOL0     C29506   4.352   1.943   3.397  0.4795 -0.5534 -0.8867
  960MOL0     C29507   4.258   1.953   3.275  0.7285 -0.5078  0.6353
  960MOL0     C29508   4.137   2.039   3.305 -0.4748 -0.2870 -0.4973
  960MOL0     C29509   4.022   2.017   3.209 -0.2115 -0.1503  0.4332
  960MOL0    Cl29510   3.968   1.843   3.240  0.3982 -0.0555  0.1359
  960MOL0     C29511   5.035   1.808   3.779  0.1590  0.1618 -0.2775
  960MOL0     C29512   5.157   1.841   3.848  0.3820  0.7935  0.4977
  960MOL0     O29513   5.306   2.076   3.951 -0.1304  0.0211 -0.1512
  960MOL0     C29514   5.646   2.010   3.930  0.4514  0.8316 -0.3155
  960MOL0     C29515   5.774   2.030   3.987  0.1388  0.7466 -0.3766
  960MOL0     N29516   6.426   2.042   4.070 -1.3851 -0.5558 -0.2871
  960MOL0     N29517   6.532   2.028   4.141 -0.1535  0.2951 -0.4802
  960MOL0     C29518   7.632   2.002   3.932  0.0563 -1.1845  0.3875
  960MOL0     C29519   7.724   2.029   3.833  0.2706 -0.2730  0.7204
  960MOL0     C29520   8.124   2.150   3.621  0.5400  0.4873 -0.0564
  960MOL0     C29521   8.127   2.041   3.533 -0.4339 -0.3994  0.7933
  960MOL0     C29522   8.217   2.028   3.434 -0.0164  0.8240 -0.0974
  960MOL0     C29523   8.306   2.132   3.412 -0.2948 -0.8892 -0.8824
  960MOL0     O29524   8.405   2.136   3.319 -0.7987 -0.3580 -0.1107
  960MOL0     C29525   8.455   2.010   3.263 -0.3270  0.1174  0.6621
  960MOL0     C29526   8.590   2.030   3.208  0.2352 -1.2067  0.3284
  960MOL0     C29527   8.690   2.086   3.314  0.5621 -0.5006  0.5451
  960MOL0     C29528   8.822   2.018   3.347 -0.1508  0.5131  0.2105
  960MOL0     C29529   8.916   2.030   3.235  0.0124 -0.1061 -0.5041
  960MOL0     C29530   8.997   2.048   3.144 -0.0550  0.7310 -0.4706
  960MOL0     C29531   8.280   2.262   3.480 -0.0982  1.0054 -0.2022
  960MOL0     C29532   8.202   2.264   3.594 -0.3823 -0.4374  0.2862
  960MOL0     H29533   8.005   1.999   4.019  0.2550  3.5852 -0.2899
  960MOL0     H29534   7.831   1.945   4.193  0.7776 -0.1009 -0.6785
  960MOL0     H29535   7.421   1.912   4.036 -0.1394  0.5847  0.0407
  960MOL0     H29536   7.363   1.923   4.196  0.0852  1.4634 -0.3053
  960MOL0     H29537   7.388   2.186   4.202  2.7275  0.2806 -0.1980
  960MOL0     H29538   7.435   2.182   4.038  0.4870  0.7447  1.4305
  960MOL0     H29539   7.229   2.064   3.956 -1.3724  1.3571 -0.7832
  960MOL0     H29540   7.182   2.041   4.115 -2.0474  1.5147  0.2545
  960MOL0     H29541   7.178   2.311   4.134 -2.2611  1.2170 -0.1241
  960MOL0     H29542   7.218   2.310   3.967 -1.3678  0.2035 -1.0084
  960MOL0     H29543   6.997   2.328   3.950  0.8819  0.0102 -0.0413
  960MOL0     H29544   6.992   2.155   3.954  0.0207  0.6449 -0.4506
  960MOL0     H29545   6.981   2.149   4.200  0.3005  1.1973  1.7517
  960MOL0     H29546   6.952   2.320   4.205 -0.2402  0.3984 -0.8407
  960MOL0     H29547   6.759   2.270   4.042  1.9908  1.0641 -1.0429
  960MOL0     H29548   6.792   2.101   4.048  3.0300  1.1512 -1.8795
  960MOL0     H29549   6.710   2.277   4.286  0.2580 -1.1764  1.4005
  960MOL0     H29550   6.739   2.104   4.293 -0.2043  0.4146  0.7336
  960MOL0     H29551   6.476   2.346   4.169  1.3356 -0.2952  0.5843
  960MOL0     H29552   6.312   2.296   3.935  0.1921  2.9942  3.0879
  960MOL0     H29553   6.215   2.142   3.951  2.2007  0.2499 -3.0048
  960MOL0     H29554   6.106   2.348   4.061  0.0719  0.4258 -1.1174
  960MOL0     H29555   6.230   2.353   4.189  2.0636 -2.2273 -0.5418
  960MOL0     H29556   6.040   2.224   4.288 -1.8503  1.2936 -0.7289
  960MOL0     H29557   6.168   2.111   4.250  1.8020  1.8351 -0.0165
  960MOL0     H29558   6.062   2.015   4.064  1.8392  1.0683 -0.3558
  960MOL0     H29559   5.984   2.167   4.026  0.5234 -0.0308 -0.4702
  960MOL0     H29560   5.671   2.002   4.313 -0.1065 -1.9407 -0.1339
  960MOL0     H29561   5.319   2.029   4.202 -1.1743 -1.7793 -0.2230
  960MOL0     H29562   5.392   1.877   4.228  1.2544  0.0810  2.0627
  960MOL0     H29563   5.430   2.006   4.335 -0.2055  0.1364  0.1529
  960MOL0     H29564   5.364   1.817   3.586  0.1576  1.4382 -0.1260
  960MOL0     H29565   5.144   1.737   3.469  0.4992 -0.5787 -0.3896
  960MOL0     H29566   4.762   1.772   3.692 -2.8028  1.4177 -0.3691
  960MOL0     H29567   4.832   1.919   3.618 -0.4833  0.1749  2.3841
  960MOL0     H29568   4.756   1.851   3.394 -1.3455  0.7330 -0.8112
  960MOL0     H29569   4.709   1.702   3.444 -0.4204 -0.0094 -0.4133
  960MOL0     H29570   4.562   1.949   3.570  0.4616 -0.1625 -0.1762
  960MOL0     H29571   4.518   1.773   3.573 -3.3143 -0.3806 -2.3093
  960MOL0     H29572   4.552   1.913   3.307 -1.7719  1.5199 -1.1887
  960MOL0     H29573   4.460   1.763   3.345  2.6249 -0.3817  0.3908
  960MOL0     H29574   4.380   2.041   3.436 -2.8963  0.2034 -0.0533
  960MOL0     H29575   4.294   1.901   3.480  0.7738  3.5340  1.6569
  960MOL0     H29576   4.309   2.006   3.195  0.3260 -0.9492  0.0775
  960MOL0     H29577   4.234   1.852   3.241 -0.1614 -0.0268 -0.2124
  960MOL0     H29578   4.154   2.147   3.317  0.1751 -0.4902  0.5239
  960MOL0     H29579   4.104   2.011   3.405  0.3484 -2.3946 -0.7682
  960MOL0     H29580   4.049   2.040   3.106 -1.5005  3.3694  0.7529
  960MOL0     H29581   3.940   2.088   3.220  0.6368  0.9121  0.0432
  960MOL0     H29582   4.949   1.786   3.841 -0.3744 -1.3918 -1.4995
  960MOL0     H29583   5.159   1.860   3.955 -2.0692  1.8165  0.4402
  960MOL0     H29584   5.643   2.015   3.821  0.7615 -4.1776 -0.7915
  960MOL0     H29585   5.858   2.042   3.919  1.1283 -0.6888  0.5432
  960MOL0     H29586   7.530   2.005   3.895 -0.7133 -0.5612  2.4223
  960MOL0     H29587   7.678   2.049   3.736 -0.6778 -0.7186  1.0740
  960MOL0     H29588   8.073   1.947   3.544 -0.9506 -0.1179  0.7103
  960MOL0     H29589   8.225   1.936   3.376 -0.5086 -0.4471  1.7593
  960MOL0     H29590   8.458   1.930   3.337 -1.4189 -1.0640 -0.5105
  960MOL0     H29591   8.384   1.967   3.191  0.4177 -1.2421  0.7018
  960MOL0     H29592   8.590   2.099   3.122  2.1588  0.0446  1.2504
  960MOL0     H29593   8.615   1.927   3.179  0.9189 -1.4353  1.6579
  960MOL0     H29594   8.636   2.078   3.409 -1.7296 -1.9998 -0.7884
  960MOL0     H29595   8.726   2.186   3.288  0.3390 -1.1192 -2.4799
  960MOL0     H29596   8.810   1.910   3.358  2.0914  0.3223  1.2822
  960MOL0     H29597   8.861   2.041   3.446  2.1273 -1.6701 -0.0930
  960MOL0     H29598   9.058   2.070   3.059  2.5289 -1.4579  0.6594
  960MOL0     H29599   8.350   2.343   3.462  0.9595 -0.2957 -2.3585
  960MOL0     H29600   8.209   2.345   3.666 -3.6423  1.1023 -0.9230
  961MOL0     O29601   0.687   2.407   5.249 -0.3867 -0.1063  0.1570
  961MOL0     C29602   0.780   2.475   5.284  0.0965 -0.1654 -0.1459
  961MOL0     O29603   0.771   2.613   5.309 -0.3543 -0.3097 -0.3948
  961MOL0     C29604   0.660   2.688   5.293  0.2034  0.0018 -0.3620
  961MOL0     C29605   0.606   2.707   5.171 -0.6330  0.7284 -0.4389
  961MOL0     C29606   0.493   2.789   5.146 -0.6337 -0.1499 -0.2623
  961MOL0     C29607   0.442   2.873   5.243 -0.5033 -0.0054 -1.0231
  961MOL0     O29608   0.338   2.950   5.216 -0.0048  0.2767  0.4508
  961MOL0     C29609   0.215   2.931   5.293 -0.4036 -0.2493 -0.3800
  961MOL0     C29610   0.114   3.019   5.235 -0.4830 -0.4928  0.0720
  961MOL0     C29611  -0.026   2.999   5.298  0.2309 -0.5316  0.8792
  961MOL0     C29612  -0.124   3.115   5.270  0.4456  0.7925  0.2091
  961MOL0     C29613  -0.263   3.074   5.313  0.5160  0.3194  0.0619
  961MOL0     C29614  -0.369   3.167   5.255  0.0709 -0.4683 -0.3412
  961MOL0     C29615  -0.513   3.144   5.318 -0.3333  0.0883  0.2916
  961MOL0     C29616  -0.506   3.210   5.452 -0.0689 -1.2284 -0.5099
  961MOL0     N29617  -0.636   3.220   5.520  0.1191  0.6491 -0.7093
  961MOL0     C29618  -0.699   3.107   5.570 -0.1239 -0.0089  0.0093
  961MOL0     C29619  -0.823   3.153   5.606 -1.0776 -0.6141  0.2229
  961MOL0     C29620  -0.942   3.080   5.657 -0.4893  0.7780  0.0928
  961MOL0     C29621  -1.036   3.156   5.749  0.0288  0.5076  0.0230
  961MOL0     C29622  -0.987   3.169   5.892  0.1030 -0.0391  0.3738
  961MOL0     C29623  -1.092   3.227   5.986  0.0307 -0.0942 -0.3934
  961MOL0     O29624  -1.167   3.128   6.050 -0.1739 -0.5653 -0.3759
  961MOL0     C29625  -1.297   3.151   6.086 -0.1276 -0.7523 -0.3581
  961MOL0     C29626  -1.338   3.063   6.185 -0.5169 -0.8103  0.3044
  961MOL0     C29627  -1.461   3.076   6.254 -0.4710 -0.6276  1.0639
  961MOL0     C29628  -1.483   2.987   6.373 -0.3999  0.0098  1.3728
  961MOL0     C29629  -1.557   3.172   6.218  0.0425  0.1485 -0.4592
  961MOL0     C29630  -1.690   3.187   6.278 -0.1543 -0.0162 -0.3650
  961MOL0     O29631  -1.775   3.251   6.197  0.7979 -0.6474  0.1355
  961MOL0     C29632  -1.915   3.261   6.213 -0.0772  0.6090 -1.4193
  961MOL0     C29633  -1.995   3.171   6.279 -0.2217  0.3713 -0.3648
  961MOL0     C29634  -2.134   3.187   6.276 -0.6792 -0.3773 -0.2677
  961MOL0     C29635  -2.186   3.294   6.199  0.4776 -0.5412 -0.2369
  961MOL0     O29636  -2.317   3.318   6.193  0.2058 -0.4466  0.7015
  961MOL0     C29637  -2.369   3.394   6.304 -0.0821 -0.1616 -0.5858
  961MOL0     C29638  -2.498   3.472   6.281 -0.1459  0.6507  0.2374
  961MOL0     C29639  -2.610   3.363   6.233  0.9116 -0.0419  0.1995
  961MOL0     C29640  -2.752   3.411   6.271 -0.2877 -0.9647  1.1146
  961MOL0     C29641  -2.868   3.332   6.215  0.0121 -0.4882 -1.3418
  961MOL0     C29642  -3.002   3.412   6.220 -0.1010  0.6505  0.5069
  961MOL0     C29643  -3.046   3.437   6.367 -0.5440  0.6804 -0.2112
  961MOL0     C29644  -3.196   3.455   6.388 -0.5087 -0.1975 -0.0779
  961MOL0    Cl29645  -3.274   3.298   6.361 -0.6260 -0.2512  0.1051
  961MOL0     C29646  -2.106   3.383   6.124  0.0474 -0.4375 -1.1474
  961MOL0     C29647  -1.969   3.364   6.128 -1.2484 -0.4634 -0.2154
  961MOL0     O29648  -1.720   3.141   6.389  0.0520  0.2696 -0.1596
  961MOL0     C29649  -1.510   3.260   6.117  0.0347 -0.3653  0.2364
  961MOL0     C29650  -1.389   3.256   6.059 -0.5460  0.3176 -0.1999
  961MOL0     N29651  -0.823   3.292   5.582 -0.4881 -0.6746 -0.4982
  961MOL0     N29652  -0.714   3.329   5.530  0.0528  0.7093 -0.5275
  961MOL0     C29653   0.502   2.867   5.366 -0.2663 -0.0083 -0.5106
  961MOL0     C29654   0.607   2.775   5.395  0.5849  0.1360 -0.0349
  961MOL0     C29655   0.907   2.399   5.309  0.2151 -0.5398  0.5399
  961MOL0     C29656   0.998   2.442   5.403  0.5408  0.0044  0.6814
  961MOL0     C29657   1.125   2.377   5.399  0.4604  0.1720  0.0613
  961MOL0     C29658   1.148   2.267   5.315 -0.4424 -0.2110  0.7825
  961MOL0     O29659   1.271   2.199   5.315  1.1911 -0.5688  0.4399
  961MOL0     C29660   1.379   2.270   5.365 -0.3578  0.6800 -0.1736
  961MOL0     C29661   1.512   2.206   5.323 -0.4462  0.3461 -0.0938
  961MOL0     C29662   1.605   2.165   5.440  0.1167 -0.1130 -0.4418
  961MOL0     C29663   1.680   2.271   5.516  0.3761  0.7684 -0.0712
  961MOL0     C29664   1.803   2.310   5.441  0.1894  0.2311 -0.7554
  961MOL0     C29665   1.909   2.314   5.382  0.1229 -0.1033 -0.3194
  961MOL0     C29666   1.054   2.225   5.221 -0.5285 -0.7567  0.1813
  961MOL0     C29667   0.936   2.291   5.214 -0.5832  0.3792  0.1466
  961MOL0     H29668   0.647   2.651   5.087  3.9871 -0.3025  2.2211
  961MOL0     H29669   0.451   2.784   5.046 -0.0533  1.9860 -0.6551
  961MOL0     H29670   0.181   2.828   5.284 -2.7391  0.6608 -4.1865
  961MOL0     H29671   0.230   2.962   5.397 -1.6245  1.5250 -0.6826
  961MOL0     H29672   0.149   3.119   5.261 -0.6780 -0.6080  0.8158
  961MOL0     H29673   0.109   2.997   5.128  2.1533 -0.1880 -0.1680
  961MOL0     H29674  -0.067   2.911   5.248  0.2014  0.1676 -0.3765
  961MOL0     H29675  -0.013   2.990   5.406  4.3706  2.1138  0.8260
  961MOL0     H29676  -0.092   3.209   5.316  0.6135  1.0025 -0.3228
  961MOL0     H29677  -0.131   3.123   5.161 -1.4120  0.5446  0.2858
  961MOL0     H29678  -0.288   2.976   5.272  0.6218  2.0015 -4.5986
  961MOL0     H29679  -0.258   3.079   5.422  0.2548 -1.1429  0.1611
  961MOL0     H29680  -0.336   3.270   5.271  1.8752 -1.2892  1.5685
  961MOL0     H29681  -0.376   3.154   5.147 -0.9323 -0.5668 -0.2826
  961MOL0     H29682  -0.591   3.196   5.261 -0.3785  0.1830  0.4406
  961MOL0     H29683  -0.536   3.037   5.324 -1.8350  0.3338 -0.5202
  961MOL0     H29684  -0.479   3.316   5.447  1.5200 -1.5143  1.0072
  961MOL0     H29685  -0.434   3.165   5.521 -0.2803  0.5166  0.9477
  961MOL0     H29686  -0.668   3.003   5.562 -1.1856 -0.5756  2.3306
  961MOL0     H29687  -0.988   3.052   5.562  0.3165  2.3687 -0.8129
  961MOL0     H29688  -0.919   2.983   5.702  0.5680  0.5216 -0.9251
  961MOL0     H29689  -1.138   3.116   5.749 -0.1616  0.9665 -1.2499
  961MOL0     H29690  -1.048   3.258   5.712  1.4542  0.7344  0.1368
  961MOL0     H29691  -0.905   3.241   5.883  1.4283 -1.5390  0.0040
  961MOL0     H29692  -0.952   3.079   5.944  1.1216  0.3276  0.3471
  961MOL0     H29693  -1.158   3.299   5.937 -0.2582 -0.0705  0.0199
  961MOL0     H29694  -1.049   3.291   6.064 -1.2866  2.7479 -1.8495
  961MOL0     H29695  -1.271   2.990   6.231 -0.8765 -0.9303  0.6420
  961MOL0     H29696  -1.493   3.045   6.466 -0.5532 -0.3121  1.5602
  961MOL0     H29697  -1.570   2.920   6.366 -1.5577  1.4159  1.7938
  961MOL0     H29698  -1.394   2.926   6.392 -1.0528 -0.9840  1.3334
  961MOL0     H29699  -1.958   3.081   6.329  3.0334  2.1993  0.8100
  961MOL0     H29700  -2.189   3.105   6.320  1.7359 -2.3278 -0.6220
  961MOL0     H29701  -2.380   3.329   6.390 -2.3712  2.2923  1.1436
  961MOL0     H29702  -2.292   3.470   6.321 -0.3220 -0.1560  0.5372
  961MOL0     H29703  -2.523   3.518   6.378  3.2033  0.0413  1.5011
  961MOL0     H29704  -2.487   3.535   6.193  0.0134 -2.2021 -1.9170
  961MOL0     H29705  -2.594   3.268   6.284  1.9965  0.7811  1.4582
  961MOL0     H29706  -2.585   3.341   6.129 -1.3953  1.7148 -0.8222
  961MOL0     H29707  -2.767   3.397   6.378 -3.0185  2.6738  1.3958
  961MOL0     H29708  -2.778   3.511   6.236 -0.7317 -1.8827 -1.4244
  961MOL0     H29709  -2.883   3.239   6.271 -0.0080 -0.6713 -1.6499
  961MOL0     H29710  -2.839   3.300   6.114  0.1051  0.6114 -1.6774
  961MOL0     H29711  -2.995   3.513   6.179 -1.6313  0.5481 -0.1003
  961MOL0     H29712  -3.081   3.358   6.167  1.6805 -0.2940 -1.3340
  961MOL0     H29713  -2.992   3.527   6.399  0.0674  0.0477  0.5730
  961MOL0     H29714  -2.996   3.362   6.428  2.7100  2.8424  0.0567
  961MOL0     H29715  -3.232   3.526   6.314  0.0251  1.5961  1.3133
  961MOL0     H29716  -3.218   3.497   6.487  0.7160  1.4030 -0.4529
  961MOL0     H29717  -2.148   3.462   6.063  0.5394  1.8022  1.1871
  961MOL0     H29718  -1.898   3.428   6.077 -4.1128  2.0423 -1.4152
  961MOL0     H29719  -1.570   3.348   6.098  0.7828 -0.4535 -3.1854
  961MOL0     H29720  -1.363   3.325   5.980 -0.4608  0.9473  0.3678
  961MOL0     H29721   0.457   2.936   5.438 -2.2028 -1.3895 -0.3253
  961MOL0     H29722   0.653   2.771   5.493 -4.2744  2.6147  2.7388
  961MOL0     H29723   0.990   2.517   5.481 -2.4303  2.4058 -1.6363
  961MOL0     H29724   1.200   2.397   5.475 -1.4867  0.9243  1.9075
  961MOL0     H29725   1.382   2.367   5.314  0.7654  1.3950  1.2107
  961MOL0     H29726   1.379   2.289   5.472 -2.2394  2.1936 -0.3874
  961MOL0     H29727   1.570   2.287   5.278  0.2549  1.0742  1.9940
  961MOL0     H29728   1.502   2.118   5.258  2.3780 -2.6805  3.1114
  961MOL0     H29729   1.685   2.094   5.416 -0.0423 -0.6453  0.5549
  961MOL0     H29730   1.545   2.108   5.512  0.7072 -1.7432 -1.1793
  961MOL0     H29731   1.712   2.226   5.610 -1.5574  0.4639  0.4705
  961MOL0     H29732   1.617   2.358   5.537 -1.7605 -1.1082  1.8650
  961MOL0     H29733   2.005   2.295   5.340  0.4165 -0.9190  0.6977
  961MOL0     H29734   1.083   2.142   5.157  0.6747  0.6360 -1.1740
  961MOL0     H29735   0.863   2.264   5.138 -1.1643  1.3096  0.3523
  962MOL0     O29736   3.233   5.135   8.919 -0.1402  0.3168 -0.7144
  962MOL0     C29737   3.293   5.091   8.823 -0.0143  0.0809 -0.2451
  962MOL0     O29738   3.261   5.118   8.693  0.2668  0.0187  0.0117
  962MOL0     C29739   3.135   5.178   8.670  0.3099  0.7889  0.3237
  962MOL0     C29740   3.130   5.243   8.549  0.5745 -1.0856 -0.1822
  962MOL0     C29741   3.004   5.287   8.500 -0.6412 -0.2693 -0.3821
  962MOL0     C29742   2.881   5.270   8.574 -0.0562 -0.2240  0.4576
  962MOL0     O29743   2.755   5.302   8.546  0.7626  0.1999 -0.6973
  962MOL0     C29744   2.724   5.391   8.440  0.6187 -0.2973  0.3652
  962MOL0     C29745   2.580   5.372   8.379 -0.1804 -0.8001 -0.4940
  962MOL0     C29746   2.470   5.432   8.480 -0.3245  0.2144  0.4257
  962MOL0     C29747   2.336   5.442   8.409 -0.5331 -0.0795  1.1427
  962MOL0     C29748   2.226   5.493   8.487  0.3338 -0.4009 -0.0551
  962MOL0     C29749   2.098   5.510   8.399  0.2103  0.0237 -0.0032
  962MOL0     C29750   1.971   5.546   8.473 -0.2648 -0.7518  0.8039
  962MOL0     C29751   1.978   5.684   8.532 -0.3379 -0.0967 -0.4914
  962MOL0     N29752   1.849   5.721   8.601  1.3703 -0.1331  0.0239
  962MOL0     C29753   1.720   5.694   8.563 -0.1374  0.5039 -0.6227
  962MOL0     C29754   1.645   5.739   8.669 -0.2329  0.8497  0.4842
  962MOL0     C29755   1.495   5.737   8.679  0.7106  0.1218  0.1269
  962MOL0     C29756   1.429   5.799   8.805  1.0658 -0.0738 -0.1949
  962MOL0     C29757   1.282   5.850   8.781  1.0057 -0.6219 -0.2630
  962MOL0     C29758   1.203   5.859   8.909 -0.5652 -0.5031 -0.6934
  962MOL0     O29759   1.290   5.915   9.013  0.5469  0.2947 -0.2892
  962MOL0     C29760   1.235   5.929   9.137 -0.6089 -0.1287 -0.1895
  962MOL0     C29761   1.100   5.900   9.173  0.0965 -0.2449 -0.0175
  962MOL0     C29762   1.055   5.920   9.304 -0.0755 -0.2487 -0.6319
  962MOL0     C29763   0.911   5.876   9.336  0.5829  0.5075 -0.0562
  962MOL0     C29764   1.148   5.977   9.399  0.3019  0.8339 -0.0469
  962MOL0     C29765   1.109   5.989   9.539 -0.5255  1.3168  0.7001
  962MOL0     O29766   1.033   5.887   9.595  0.2675  0.1710 -0.3685
  962MOL0     C29767   0.957   5.912   9.702  0.6143  0.1125 -0.8625
  962MOL0     C29768   0.824   5.863   9.694 -0.8125 -0.3187 -0.6008
  962MOL0     C29769   0.748   5.880   9.809  0.3611  0.3893 -0.0644
  962MOL0     C29770   0.796   5.940   9.924 -0.0387  0.0633  0.5372
  962MOL0     O29771   0.723   5.959  10.037 -0.2012 -0.3774  0.9036
  962MOL0     C29772   0.601   6.037  10.023 -1.2528  0.2294 -0.7033
  962MOL0     C29773   0.508   6.010  10.139 -0.2925 -0.3833 -0.0637
  962MOL0     C29774   0.388   6.095  10.120  0.2573 -1.3602 -0.0303
  962MOL0     C29775   0.266   6.041  10.192  0.7554 -0.3305 -0.5008
  962MOL0     C29776   0.160   6.149  10.216 -0.9097 -0.0294 -0.7745
  962MOL0     C29777   0.067   6.148  10.103  0.2453 -0.2285  0.1581
  962MOL0     C29778  -0.053   6.241  10.123  1.4313 -0.8681 -0.0324
  962MOL0     C29779  -0.136   6.252   9.998  0.5542  0.6904 -0.0934
  962MOL0    Cl29780  -0.210   6.097   9.975  0.0835 -0.2433 -0.3770
  962MOL0     C29781   0.926   5.992   9.926 -0.6443  0.4754 -0.0558
  962MOL0     C29782   1.010   5.968   9.816  0.5374  0.1211  0.6625
  962MOL0     O29783   1.153   6.087   9.591  0.2706 -0.2461 -0.4265
  962MOL0     C29784   1.275   6.020   9.356  0.8280  0.4346  0.0137
  962MOL0     C29785   1.322   5.988   9.234  0.6353 -0.3913  0.1913
  962MOL0     N29786   1.727   5.789   8.765  0.7980  0.6789  0.9959
  962MOL0     N29787   1.845   5.777   8.726 -0.0755 -0.9455  0.8180
  962MOL0     C29788   2.897   5.210   8.696  0.0766  0.4198 -1.3385
  962MOL0     C29789   3.019   5.158   8.747  0.0576 -0.5285 -0.1499
  962MOL0     C29790   3.394   4.976   8.843  0.5724 -0.6028 -0.5963
  962MOL0     C29791   3.459   4.961   8.966  0.4986  0.7316 -0.0175
  962MOL0     C29792   3.558   4.866   8.973 -0.2498 -0.0899  0.2327
  962MOL0     C29793   3.597   4.785   8.860  0.3238 -0.1211  0.1489
  962MOL0     O29794   3.707   4.698   8.861  0.3952  0.2073  0.2102
  962MOL0     C29795   3.822   4.752   8.905 -0.1040  0.0941 -0.3455
  962MOL0     C29796   3.938   4.686   8.836  0.0909  0.6291  0.1873
  962MOL0     C29797   3.965   4.540   8.895 -0.5193 -0.1973 -0.8589
  962MOL0     C29798   4.117   4.526   8.906 -0.2798  0.3508  0.1339
  962MOL0     C29799   4.148   4.384   8.945  0.7853 -0.4850 -0.0633
  962MOL0     C29800   4.199   4.281   8.989  0.0807  0.1398  0.2301
  962MOL0     C29801   3.526   4.807   8.744  0.0727 -0.0079 -0.0224
  962MOL0     C29802   3.427   4.899   8.732  0.8025  0.1535 -0.4325
  962MOL0     H29803   3.213   5.258   8.482 -0.6410  1.3511 -1.2483
  962MOL0     H29804   3.010   5.321   8.397  2.2643  3.2779  0.7294
  962MOL0     H29805   2.722   5.493   8.479 -1.0019  0.1669 -0.8239
  962MOL0     H29806   2.806   5.392   8.368 -0.7719  1.9951 -1.3547
  962MOL0     H29807   2.571   5.430   8.287 -1.7760  1.7360  1.1454
  962MOL0     H29808   2.563   5.265   8.362 -1.5983 -1.0067  1.7773
  962MOL0     H29809   2.458   5.370   8.570  0.1818  3.2527  2.7449
  962MOL0     H29810   2.499   5.531   8.516 -0.0109 -0.3012  1.6521
  962MOL0     H29811   2.334   5.507   8.321 -1.2157 -2.6790 -0.9098
  962MOL0     H29812   2.315   5.339   8.376 -2.8509  1.0973 -1.5116
  962MOL0     H29813   2.193   5.433   8.572 -3.1937  1.4171  0.0443
  962MOL0     H29814   2.256   5.592   8.523  3.0473 -1.0203 -0.3625
  962MOL0     H29815   2.113   5.576   8.313 -3.1730 -0.1379 -0.8687
  962MOL0     H29816   2.077   5.408   8.364  1.4656 -1.4566  3.1386
  962MOL0     H29817   1.887   5.534   8.405  0.3700  0.9508 -0.3333
  962MOL0     H29818   1.957   5.477   8.557  1.0568 -2.3351 -0.2219
  962MOL0     H29819   1.997   5.761   8.457  0.4658  0.4113  0.2197
  962MOL0     H29820   2.063   5.685   8.600 -1.4834  2.6284  1.0347
  962MOL0     H29821   1.694   5.645   8.470  1.5725 -1.7130 -0.0231
  962MOL0     H29822   1.469   5.798   8.592  3.3482 -0.3136 -1.0487
  962MOL0     H29823   1.462   5.633   8.665  2.2427 -0.3750  0.0306
  962MOL0     H29824   1.485   5.886   8.842  1.8904 -1.3536  1.7718
  962MOL0     H29825   1.431   5.727   8.888 -0.5871  0.1834  0.1080
  962MOL0     H29826   1.230   5.785   8.709 -0.2152 -1.9069  1.6995
  962MOL0     H29827   1.297   5.952   8.745  2.9481  0.2017  2.5473
  962MOL0     H29828   1.185   5.754   8.934  0.7817 -1.1124 -2.1213
  962MOL0     H29829   1.116   5.924   8.901 -0.1979  0.1917  0.7468
  962MOL0     H29830   1.033   5.849   9.105  1.2998  0.6297 -1.9328
  962MOL0     H29831   0.865   5.942   9.410 -3.0439  0.2545 -1.9007
  962MOL0     H29832   0.850   5.882   9.245  2.2833 -0.9703 -1.3707
  962MOL0     H29833   0.909   5.775   9.376 -1.5671 -0.4761 -2.3961
  962MOL0     H29834   0.796   5.806   9.606 -1.3144 -2.1208  0.6724
  962MOL0     H29835   0.653   5.827   9.805 -0.2092  1.4016 -3.0492
  962MOL0     H29836   0.642   6.139  10.021  3.9060 -1.5209 -1.0429
  962MOL0     H29837   0.538   6.023   9.935  0.0925 -3.0820 -1.2990
  962MOL0     H29838   0.481   5.904  10.140 -1.7513 -0.0263  0.0613
  962MOL0     H29839   0.557   6.035  10.233 -1.5436  1.2539  0.1911
  962MOL0     H29840   0.358   6.105  10.015 -0.9367 -0.6502  0.3570
  962MOL0     H29841   0.412   6.197  10.151 -2.6294 -0.7861  0.5715
  962MOL0     H29842   0.215   5.957  10.143 -0.3236  1.0154 -1.7648
  962MOL0     H29843   0.293   6.010  10.294 -0.4006  0.1344 -0.0334
  962MOL0     H29844   0.221   6.239  10.231 -1.4539  0.1007  0.8686
  962MOL0     H29845   0.122   6.127  10.316 -0.6747  1.2920 -0.3769
  962MOL0     H29846   0.120   6.177  10.012 -0.4850 -0.5656 -0.3824
  962MOL0     H29847   0.030   6.045  10.095 -0.5125 -0.0074  0.7770
  962MOL0     H29848  -0.019   6.344  10.137 -4.2603  1.7789 -2.2992
  962MOL0     H29849  -0.106   6.214  10.215  0.6606  2.3305  0.5853
  962MOL0     H29850  -0.067   6.285   9.921  1.9773  0.8999  1.2239
  962MOL0     H29851  -0.205   6.335  10.014 -1.9802 -1.7245  3.1196
  962MOL0     H29852   0.973   6.032  10.015 -0.5619 -0.6791  0.4502
  962MOL0     H29853   1.114   5.992   9.834  0.1137  0.5111  2.8275
  962MOL0     H29854   1.336   6.071   9.429  0.3560 -1.0038  1.4651
  962MOL0     H29855   1.421   6.016   9.200  0.0542 -2.2025 -3.5009
  962MOL0     H29856   2.815   5.178   8.760 -0.7552  0.8773 -2.1448
  962MOL0     H29857   3.013   5.100   8.839 -0.4845  0.5238  0.4890
  962MOL0     H29858   3.431   5.015   9.056  1.6791 -2.2479  2.3025
  962MOL0     H29859   3.617   4.853   9.063  0.3941 -2.6152 -0.4785
  962MOL0     H29860   3.834   4.853   8.865  2.6099  0.6151  1.4804
  962MOL0     H29861   3.817   4.763   9.014 -1.3281 -1.3592 -0.2359
  962MOL0     H29862   4.020   4.756   8.853 -0.0658  0.5959  1.0837
  962MOL0     H29863   3.935   4.694   8.727 -3.0692  2.2967  0.2984
  962MOL0     H29864   3.927   4.461   8.830 -0.7971 -0.2483 -0.6395
  962MOL0     H29865   3.912   4.553   8.990 -1.1352 -1.4310 -1.0087
  962MOL0     H29866   4.159   4.601   8.974  0.3080 -0.3722  0.5851
  962MOL0     H29867   4.174   4.535   8.813 -0.9871 -2.4272 -0.6707
  962MOL0     H29868   4.241   4.194   9.034 -0.1459  1.4952  3.2764
  962MOL0     H29869   3.557   4.752   8.655  3.9526 -2.6315  2.5755
  962MOL0     H29870   3.366   4.898   8.642  0.3620  0.2677 -0.1349
  963MOL0     O29871   4.680   2.224  10.928  0.1545 -0.5257 -0.0311
  963MOL0     C29872   4.677   2.339  10.894  0.7867 -0.4236 -0.3560
  963MOL0     O29873   4.573   2.403  10.831  0.1240 -0.3642  0.1411
  963MOL0     C29874   4.446   2.381  10.881 -0.3530  0.1410  0.7186
  963MOL0     C29875   4.348   2.415  10.788  0.0538 -0.3529 -0.5846
  963MOL0     C29876   4.210   2.409  10.814 -0.0747  0.1739  0.4331
  963MOL0     C29877   4.174   2.364  10.941 -0.7718 -0.4049 -0.1613
  963MOL0     O29878   4.048   2.336  10.984 -0.2388 -0.4807  0.4347
  963MOL0     C29879   3.941   2.353  10.889  0.6199  0.1451 -0.5319
  963MOL0     C29880   3.807   2.367  10.957 -0.6825 -0.3802  0.1758
  963MOL0     C29881   3.807   2.491  11.044 -0.4404  0.3037  0.8141
  963MOL0     C29882   3.668   2.519  11.109 -0.5586 -0.0382 -0.3188
  963MOL0     C29883   3.642   2.657  11.171 -0.7940 -0.7632 -0.5065
  963MOL0     C29884   3.501   2.651  11.238 -0.3432 -0.4123  0.1100
  963MOL0     C29885   3.460   2.779  11.313 -0.4977 -0.5072  0.2275
  963MOL0     C29886   3.315   2.775  11.352 -0.9493  0.2499  0.1578
  963MOL0     N29887   3.269   2.903  11.422  0.2454  0.2649  0.9530
  963MOL0     C29888   3.235   2.915  11.556  0.0439  0.5374  0.7824
  963MOL0     C29889   3.195   3.049  11.575  0.7846  0.1842 -0.3429
  963MOL0     C29890   3.149   3.125  11.704  0.3902  0.4868  0.0793
  963MOL0     C29891   2.998   3.178  11.695 -0.1236 -0.0042  0.9591
  963MOL0     C29892   2.945   3.208  11.833  1.0428  0.5055 -0.0555
  963MOL0     C29893   2.793   3.242  11.824 -0.2787 -0.3532 -0.5942
  963MOL0     O29894   2.776   3.350  11.735  0.9186  0.2359  0.3972
  963MOL0     C29895   2.654   3.405  11.727  0.2135  0.0001 -0.1376
  963MOL0     C29896   2.532   3.353  11.781 -0.0270  0.1499  0.3329
  963MOL0     C29897   2.416   3.422  11.762  0.3402  0.3535 -0.5766
  963MOL0     C29898   2.290   3.362  11.824 -0.5417 -0.7551 -0.6089
  963MOL0     C29899   2.412   3.550  11.690 -0.1611  0.8322  0.3077
  963MOL0     C29900   2.291   3.634  11.672 -0.0303 -0.6302  1.4907
  963MOL0     O29901   2.196   3.633  11.767 -0.9597  0.4944  0.5683
  963MOL0     C29902   2.091   3.721  11.748 -0.5476 -0.0094  0.6521
  963MOL0     C29903   1.971   3.669  11.701  0.4641  0.4028 -0.4301
  963MOL0     C29904   1.854   3.734  11.696 -0.8052 -0.2947 -0.5151
  963MOL0     C29905   1.852   3.879  11.740  0.5377 -0.9640  0.5842
  963MOL0     O29906   1.736   3.946  11.730  0.2423 -0.5460  0.0892
  963MOL0     C29907   1.630   3.905  11.816  0.0710 -0.0425 -0.6178
  963MOL0     C29908   1.501   3.953  11.760 -0.3142 -0.2669  0.3102
  963MOL0     C29909   1.378   3.908  11.838 -0.2011 -0.0049 -0.0660
  963MOL0     C29910   1.260   3.989  11.797  0.4334 -0.1774 -0.0658
  963MOL0     C29911   1.125   3.937  11.871  0.6007 -0.2712 -0.4585
  963MOL0     C29912   1.007   4.025  11.843 -0.3119 -0.3634  0.3262
  963MOL0     C29913   0.890   3.961  11.915 -0.4275 -0.2155 -0.7744
  963MOL0     C29914   0.752   4.013  11.864 -0.2291  0.4889 -0.6535
  963MOL0    Cl29915   0.747   4.196  11.883  0.2589 -0.1481 -0.6402
  963MOL0     C29916   1.977   3.935  11.779 -0.3195 -1.2659 -1.3987
  963MOL0     C29917   2.091   3.855  11.788 -0.0721 -0.3186 -0.5220
  963MOL0     O29918   2.293   3.703  11.574 -0.2385 -0.6417  0.5849
  963MOL0     C29919   2.526   3.583  11.621 -0.5953 -0.5294  0.3148
  963MOL0     C29920   2.648   3.516  11.648  0.6254 -0.2618  0.9390
  963MOL0     N29921   3.205   3.109  11.451  0.3512  0.0512  1.1176
  963MOL0     N29922   3.250   3.028  11.363 -0.3511 -0.2889  0.2341
  963MOL0     C29923   4.271   2.334  11.033  0.4062  0.4166 -0.1286
  963MOL0     C29924   4.408   2.337  10.999  0.3706  0.4838 -0.2627
  963MOL0     C29925   4.799   2.424  10.918  0.1300 -0.3002  0.5187
  963MOL0     C29926   4.919   2.364  10.963 -0.0312  0.5410  0.5477
  963MOL0     C29927   5.031   2.443  10.992 -0.6701  1.4140  0.9244
  963MOL0     C29928   5.025   2.581  10.974 -0.6999 -0.7503  0.3761
  963MOL0     O29929   5.134   2.654  11.013 -0.8236 -0.3097 -0.2136
  963MOL0     C29930   5.238   2.691  10.914 -0.1680 -0.4600  0.7177
  963MOL0     C29931   5.260   2.845  10.919 -0.0584 -0.1319 -0.2930
  963MOL0     C29932   5.364   2.895  10.819  0.4202  0.1122  0.4676
  963MOL0     C29933   5.379   3.051  10.835  0.0974 -0.6775  0.3145
  963MOL0     C29934   5.442   3.093  10.961 -0.2984  0.0624  0.7527
  963MOL0     C29935   5.508   3.141  11.049  0.4805 -0.0340 -0.2531
  963MOL0     C29936   4.911   2.641  10.930 -0.2647  0.3012  0.7656
  963MOL0     C29937   4.802   2.563  10.893  0.2611  0.6970 -0.9986
  963MOL0     H29938   4.385   2.459  10.696 -2.1496  1.2627 -0.7901
  963MOL0     H29939   4.145   2.449  10.737  0.3470  0.5256  0.2560
  963MOL0     H29940   3.945   2.443  10.827 -2.5718  2.2216  1.9667
  963MOL0     H29941   3.938   2.264  10.825  2.0549 -1.8962  2.0256
  963MOL0     H29942   3.727   2.370  10.884  0.6697  1.8674 -1.3396
  963MOL0     H29943   3.793   2.284  11.027 -0.2609 -0.2741  0.3931
  963MOL0     H29944   3.882   2.474  11.123 -0.2471 -2.7078  0.1165
  963MOL0     H29945   3.842   2.573  10.981  1.0115  0.8608  2.2677
  963MOL0     H29946   3.588   2.492  11.040 -3.7957  0.1868  3.0256
  963MOL0     H29947   3.655   2.439  11.183 -2.1642 -0.7042 -1.2716
  963MOL0     H29948   3.721   2.703  11.230 -1.2031  1.9521 -1.9130
  963MOL0     H29949   3.645   2.722  11.083  1.9627 -0.5571 -0.3372
  963MOL0     H29950   3.427   2.606  11.171  3.4959 -6.1996 -0.9250
  963MOL0     H29951   3.517   2.577  11.317  0.3969  0.8562  1.1876
  963MOL0     H29952   3.516   2.784  11.407 -0.9101  1.2518  0.4187
  963MOL0     H29953   3.482   2.867  11.252  1.7346  0.3283  2.0649
  963MOL0     H29954   3.294   2.683  11.406 -1.1532  0.1079 -0.1636
  963MOL0     H29955   3.257   2.761  11.260  2.6603 -0.2393 -2.2631
  963MOL0     H29956   3.243   2.833  11.626  2.0502  1.4887  1.7274
  963MOL0     H29957   3.174   3.058  11.787  0.6419 -0.1364 -0.4838
  963MOL0     H29958   3.215   3.212  11.705 -0.6689  1.4632 -2.9739
  963MOL0     H29959   2.926   3.110  11.649  0.7766 -1.1256  1.1610
  963MOL0     H29960   2.986   3.268  11.635 -2.4496 -2.7857 -3.2535
  963MOL0     H29961   2.995   3.295  11.875 -1.0619  2.3899 -1.2278
  963MOL0     H29962   2.962   3.125  11.902  1.5203  0.1566 -0.5837
  963MOL0     H29963   2.762   3.267  11.926  0.2165  4.3504 -1.3440
  963MOL0     H29964   2.744   3.148  11.798  0.2018 -0.5144 -0.9210
  963MOL0     H29965   2.534   3.260  11.836  0.2517  0.1970  0.4053
  963MOL0     H29966   2.209   3.367  11.751 -1.1523  0.9802  0.1285
  963MOL0     H29967   2.297   3.258  11.858 -1.9299 -0.7733 -0.3280
  963MOL0     H29968   2.268   3.418  11.916 -0.3500 -2.4509  0.5226
  963MOL0     H29969   1.962   3.566  11.668  2.3135 -0.5551  1.8104
  963MOL0     H29970   1.762   3.687  11.663 -1.5793 -0.1206  1.2856
  963MOL0     H29971   1.628   3.795  11.820  1.3260 -0.0832  2.6989
  963MOL0     H29972   1.637   3.930  11.922  2.2339  1.4690 -1.0612
  963MOL0     H29973   1.503   4.062  11.753  0.6791 -0.1719  1.6494
  963MOL0     H29974   1.488   3.907  11.661 -2.4546 -0.0910  0.4698
  963MOL0     H29975   1.378   3.909  11.947 -2.6066  0.3195 -0.0224
  963MOL0     H29976   1.355   3.814  11.788  0.6989  0.3457 -1.1792
  963MOL0     H29977   1.267   4.097  11.814 -1.4209  0.0819 -0.7536
  963MOL0     H29978   1.253   3.987  11.688 -2.5431  0.5849  0.0406
  963MOL0     H29979   1.141   3.923  11.978 -2.1259 -0.4137 -0.0160
  963MOL0     H29980   1.119   3.831  11.844 -0.0218 -0.7589  1.4907
  963MOL0     H29981   1.033   4.121  11.889  0.9317 -0.4558 -0.1604
  963MOL0     H29982   0.997   4.028  11.735  3.0931 -0.2323 -0.1058
  963MOL0     H29983   0.902   3.994  12.019 -0.6423 -0.3396 -0.7103
  963MOL0     H29984   0.891   3.852  11.919  0.1992 -0.1887  0.4563
  963MOL0     H29985   0.680   3.962  11.928 -0.2101 -3.5203 -3.4365
  963MOL0     H29986   0.738   3.986  11.759  3.1458  0.7863 -1.3031
  963MOL0     H29987   1.983   4.038  11.814  1.0400 -1.7110 -0.2004
  963MOL0     H29988   2.184   3.900  11.823 -0.7850 -0.3544  1.5428
  963MOL0     H29989   2.539   3.673  11.560  0.7559  0.3812  1.8626
  963MOL0     H29990   2.731   3.538  11.581 -0.4887  1.1135 -0.0533
  963MOL0     H29991   4.247   2.296  11.132  2.5197 -1.0352 -0.0818
  963MOL0     H29992   4.488   2.312  11.069 -0.2632  0.0370  0.3213
  963MOL0     H29993   4.916   2.256  10.973 -0.0437  0.6533  2.0980
  963MOL0     H29994   5.121   2.401  11.035 -0.8112 -1.3982 -1.2154
  963MOL0     H29995   5.332   2.636  10.917  1.0207  1.4990  2.8388
  963MOL0     H29996   5.190   2.673  10.818  0.0815  1.8193  0.1065
  963MOL0     H29997   5.277   2.879  11.022  0.3093 -0.2752 -0.3025
  963MOL0     H29998   5.165   2.889  10.886  0.8326  0.5760 -2.0377
  963MOL0     H29999   5.338   2.883  10.714  0.8931  1.3827  0.1879
  963MOL0     H30000   5.467   2.858  10.824  1.4596  2.8734  1.0915
  963MOL0     H30001   5.278   3.092  10.846  0.7644  0.9383  0.6959
  963MOL0     H30002   5.434   3.113  10.764 -2.3515  0.7630 -0.4413
  963MOL0     H30003   5.573   3.186  11.122 -1.5111  1.8311  0.4783
  963MOL0     H30004   4.911   2.749  10.928 -1.3847  0.3639 -2.6472
  963MOL0     H30005   4.710   2.606  10.855  0.3346  2.5619  0.7659
  964MOL0     O30006   8.030   3.350   0.842 -0.1248 -0.1918 -0.2335
  964MOL0     C30007   8.122   3.278   0.881 -0.9526  0.1695  0.1341
  964MOL0     O30008   8.113   3.139   0.892  0.5468  0.5260 -0.5308
  964MOL0     C30009   7.989   3.075   0.875  0.4637 -0.1528  0.4350
  964MOL0     C30010   7.870   3.133   0.900  0.2357  0.4598 -1.1139
  964MOL0     C30011   7.754   3.057   0.875  0.5679  0.9835 -1.0123
  964MOL0     C30012   7.757   2.919   0.846 -0.1871 -0.0003  0.3634
  964MOL0     O30013   7.637   2.858   0.836 -0.1537 -0.0018 -0.4063
  964MOL0     C30014   7.636   2.715   0.815  0.3606  0.3735 -0.1575
  964MOL0     C30015   7.500   2.665   0.843 -0.2993  0.1359 -0.1193
  964MOL0     C30016   7.449   2.674   0.987  0.3576  0.4699 -0.3690
  964MOL0     C30017   7.302   2.628   1.013 -0.7657 -0.6106  0.6302
  964MOL0     C30018   7.263   2.644   1.160 -0.0538  0.2893  0.1821
  964MOL0     C30019   7.117   2.610   1.166  0.7076  0.0198  0.4248
  964MOL0     C30020   7.070   2.584   1.315 -0.8561  0.1253 -0.2767
  964MOL0     C30021   6.926   2.554   1.313  0.6285 -0.3008 -0.4927
  964MOL0     N30022   6.881   2.442   1.233 -0.4329  0.3305 -0.3368
  964MOL0     C30023   6.854   2.447   1.098 -0.0053  0.2917 -0.7552
  964MOL0     C30024   6.824   2.318   1.061 -0.2604  0.7524 -0.1215
  964MOL0     C30025   6.791   2.269   0.916 -0.1042 -0.1293 -0.7021
  964MOL0     C30026   6.671   2.342   0.870  0.1583 -0.2832 -0.0218
  964MOL0     C30027   6.530   2.272   0.885  0.2332  0.4989  0.3725
  964MOL0     C30028   6.476   2.282   1.026  0.5355 -0.4578 -0.4045
  964MOL0     O30029   6.473   2.412   1.075 -0.1972  0.0938  0.5024
  964MOL0     C30030   6.377   2.489   1.018  0.4101  0.2213 -1.1186
  964MOL0     C30031   6.404   2.608   0.959 -0.4102  0.3576 -0.2361
  964MOL0     C30032   6.305   2.696   0.925 -0.2053  0.4244  0.5213
  964MOL0     C30033   6.353   2.823   0.862  0.5051 -0.8388 -0.5965
  964MOL0     C30034   6.172   2.658   0.950  0.3521 -0.5468  0.2207
  964MOL0     C30035   6.056   2.739   0.931 -0.0313 -0.1249 -0.2851
  964MOL0     O30036   5.970   2.748   1.037  0.5845  0.2980 -0.1950
  964MOL0     C30037   5.835   2.774   1.023 -0.4716  0.2053 -0.2378
  964MOL0     C30038   5.757   2.736   0.915  0.3840 -0.4725 -0.2550
  964MOL0     C30039   5.620   2.749   0.920 -0.3145  0.2001  0.0168
  964MOL0     C30040   5.553   2.802   1.036  0.0178  0.2766  0.0183
  964MOL0     O30041   5.420   2.798   1.063  0.2139  0.2836 -0.1892
  964MOL0     C30042   5.332   2.714   0.972 -0.5928  0.2408 -0.3260
  964MOL0     C30043   5.191   2.697   1.017 -0.1637 -0.8931 -0.7623
  964MOL0     C30044   5.108   2.819   1.000  0.3008  0.5125 -0.9275
  964MOL0     C30045   4.965   2.783   1.050  0.1484 -0.9285 -0.5106
  964MOL0     C30046   4.870   2.909   1.046 -0.2697  0.6822 -0.3711
  964MOL0     C30047   4.872   2.968   0.911 -0.1076 -0.6080  0.1798
  964MOL0     C30048   4.751   3.063   0.894  1.2053 -0.1446 -0.3590
  964MOL0     C30049   4.743   3.093   0.745 -0.5871 -0.2032  0.0337
  964MOL0    Cl30050   4.607   3.200   0.715 -0.2837  0.2471 -0.3086
  964MOL0     C30051   5.635   2.831   1.144  0.6087  0.0754 -0.6812
  964MOL0     C30052   5.777   2.817   1.141 -0.6828 -0.2120  0.9806
  964MOL0     O30053   6.042   2.795   0.822  0.4681  0.3244  0.0062
  964MOL0     C30054   6.144   2.535   1.017 -0.2877 -0.9400  0.4933
  964MOL0     C30055   6.248   2.450   1.045 -0.1150 -0.7387  0.2262
  964MOL0     N30056   6.862   2.238   1.167 -0.1963 -0.0060 -0.0054
  964MOL0     N30057   6.893   2.312   1.273 -0.7349 -0.1335 -0.1579
  964MOL0     C30058   7.888   2.858   0.822  0.3057  0.2294 -0.1922
  964MOL0     C30059   8.003   2.938   0.840 -0.0317 -0.4442 -0.5217
  964MOL0     C30060   8.246   3.343   0.933 -0.4793 -0.5576 -0.7215
  964MOL0     C30061   8.270   3.478   0.901 -0.8407 -1.1258 -0.5688
  964MOL0     C30062   8.391   3.542   0.938 -1.1308 -0.0657 -0.0821
  964MOL0     C30063   8.493   3.470   1.009  0.0731 -0.0424 -0.6075
  964MOL0     O30064   8.617   3.533   1.034  0.2393  0.4796  0.1844
  964MOL0     C30065   8.712   3.461   1.110 -0.6546  0.3911 -0.4429
  964MOL0     C30066   8.835   3.543   1.125 -0.5438 -0.1393 -0.0099
  964MOL0     C30067   8.834   3.655   1.229 -0.1238 -0.4595  1.9993
  964MOL0     C30068   8.966   3.737   1.212  0.0678  0.1827 -1.3342
  964MOL0     C30069   9.009   3.813   1.330 -0.0440  0.0974  0.0161
  964MOL0     C30070   9.033   3.874   1.434 -0.9963 -0.0122  0.0294
  964MOL0     C30071   8.461   3.344   1.050  0.0813  0.1403 -0.9632
  964MOL0     C30072   8.342   3.283   1.012 -0.0727  0.8896 -0.0189
  964MOL0     H30073   7.856   3.232   0.942  1.4177 -0.7529  2.5392
  964MOL0     H30074   7.653   3.094   0.888 -0.0220 -0.5179 -1.0489
  964MOL0     H30075   7.656   2.693   0.710  1.1570 -2.7505  0.5351
  964MOL0     H30076   7.709   2.657   0.873  1.6765  0.4956 -1.6244
  964MOL0     H30077   7.435   2.720   0.775 -2.0052  0.2103  1.5064
  964MOL0     H30078   7.507   2.560   0.814 -0.7073 -0.6146  2.3172
  964MOL0     H30079   7.519   2.615   1.046  1.1822  1.0669 -0.7340
  964MOL0     H30080   7.448   2.777   1.023  0.8372 -0.0202  1.1040
  964MOL0     H30081   7.231   2.684   0.950 -0.9424  0.9228  2.1278
  964MOL0     H30082   7.299   2.519   0.998  0.8476 -0.7130  0.9039
  964MOL0     H30083   7.329   2.578   1.217 -0.4231 -0.7401 -0.5475
  964MOL0     H30084   7.274   2.749   1.190 -0.6914  0.4131 -0.0134
  964MOL0     H30085   7.054   2.693   1.130  0.3552 -0.6692 -0.5988
  964MOL0     H30086   7.097   2.523   1.102  1.4094 -0.3726  0.7333
  964MOL0     H30087   7.128   2.502   1.358  0.4525  1.1754  0.0455
  964MOL0     H30088   7.093   2.672   1.376 -0.3342 -1.9454  2.7126
  964MOL0     H30089   6.872   2.643   1.280  0.5566 -0.6014 -1.1940
  964MOL0     H30090   6.900   2.532   1.417  1.3952  0.6080 -0.0963
  964MOL0     H30091   6.859   2.538   1.041 -1.0770 -0.2152 -1.6879
  964MOL0     H30092   6.879   2.291   0.856 -0.0704 -2.1688 -1.4590
  964MOL0     H30093   6.775   2.162   0.903  0.5767 -0.4051  0.6212
  964MOL0     H30094   6.696   2.342   0.763  1.5037 -1.0325  0.2681
  964MOL0     H30095   6.657   2.445   0.903 -1.4258 -0.6459  0.4911
  964MOL0     H30096   6.527   2.168   0.851  2.3075  1.0903 -1.9836
  964MOL0     H30097   6.461   2.323   0.817  1.1751 -1.0632 -1.8733
  964MOL0     H30098   6.549   2.231   1.090 -1.4634 -0.8723  1.6539
  964MOL0     H30099   6.377   2.235   1.030  0.0336  0.6583  2.0145
  964MOL0     H30100   6.507   2.638   0.947 -0.2047  1.7193  3.5690
  964MOL0     H30101   6.286   2.872   0.791  1.0561  0.8448 -0.0060
  964MOL0     H30102   6.372   2.894   0.943 -1.1622  1.1694 -1.8488
  964MOL0     H30103   6.444   2.818   0.801 -1.0938 -1.3884 -3.0870
  964MOL0     H30104   5.800   2.693   0.825 -2.2082  0.3152 -1.9978
  964MOL0     H30105   5.558   2.725   0.835 -2.0069  1.3021  0.8957
  964MOL0     H30106   5.349   2.756   0.873  1.7600  1.7100  0.6045
  964MOL0     H30107   5.383   2.618   0.976  0.2141  0.4866 -2.8394
  964MOL0     H30108   5.145   2.609   0.970 -2.2084 -0.9010  1.0591
  964MOL0     H30109   5.210   2.673   1.122  0.1585  1.5315 -0.2086
  964MOL0     H30110   5.093   2.857   0.898 -2.5974  5.1529  0.8991
  964MOL0     H30111   5.149   2.907   1.051 -2.3512  1.6198 -0.5828
  964MOL0     H30112   4.921   2.712   0.980 -3.0272 -0.6012  0.9523
  964MOL0     H30113   4.970   2.730   1.145 -0.7243 -0.7940 -0.3723
  964MOL0     H30114   4.900   2.972   1.131  1.5641  0.0109 -0.4641
  964MOL0     H30115   4.772   2.863   1.061  0.6482 -2.7247 -3.3700
  964MOL0     H30116   4.967   3.020   0.894 -0.8235  0.5392 -0.3814
  964MOL0     H30117   4.867   2.887   0.838 -1.2869 -1.9300  1.6506
  964MOL0     H30118   4.764   3.146   0.964  1.6421 -0.2809 -0.2772
  964MOL0     H30119   4.660   3.011   0.926  1.9068 -1.9328 -1.1328
  964MOL0     H30120   4.728   3.005   0.681  1.2327 -0.6361  0.1479
  964MOL0     H30121   4.839   3.130   0.709 -0.3870 -2.6167 -2.2377
  964MOL0     H30122   5.589   2.863   1.237  0.9806 -2.2759  0.3959
  964MOL0     H30123   5.840   2.839   1.226 -0.6754 -1.0352  1.1969
  964MOL0     H30124   6.044   2.503   1.045  0.1004 -1.1876  1.6918
  964MOL0     H30125   6.220   2.363   1.103 -0.3562  0.1350  1.4513
  964MOL0     H30126   7.902   2.754   0.796 -0.3768 -0.9724  3.6484
  964MOL0     H30127   8.102   2.902   0.815 -1.8705 -5.2761 -2.0631
  964MOL0     H30128   8.195   3.534   0.846 -1.6657 -0.3601  1.2607
  964MOL0     H30129   8.404   3.649   0.923 -0.2699 -0.0246  0.8420
  964MOL0     H30130   8.680   3.437   1.212  1.6645 -3.2741 -0.3656
  964MOL0     H30131   8.729   3.365   1.060  2.1171  0.4474  0.2097
  964MOL0     H30132   8.859   3.569   1.021  1.6580 -0.7108  0.3143
  964MOL0     H30133   8.917   3.479   1.160  1.6332  2.6422  0.3370
  964MOL0     H30134   8.823   3.618   1.331 -0.3133 -0.1968  2.0740
  964MOL0     H30135   8.752   3.726   1.211 -0.5558 -1.1565  1.1089
  964MOL0     H30136   8.958   3.811   1.132  0.0887 -1.9431 -3.4077
  964MOL0     H30137   9.046   3.666   1.193 -0.2123 -0.3091 -0.7213
  964MOL0     H30138   9.052   3.938   1.518 -0.8340 -0.3998  0.2914
  964MOL0     H30139   8.518   3.291   1.125  0.8649  1.1982 -0.7865
  964MOL0     H30140   8.329   3.182   1.050  1.0359  1.2262  1.3397
  965MOL0     O30141   3.736  10.424   6.139  0.2484 -0.0981  0.1053
  965MOL0     C30142   3.854  10.436   6.104  0.5217 -0.5144  0.8590
  965MOL0     O30143   3.906  10.529   6.011 -1.1078 -0.4723 -0.1814
  965MOL0     C30144   3.814  10.594   5.943 -0.9391  0.8601  0.3436
  965MOL0     C30145   3.825  10.731   5.946  0.5263 -0.8027 -0.6420
  965MOL0     C30146   3.732  10.808   5.858  0.2597  0.2861 -0.1830
  965MOL0     C30147   3.636  10.740   5.783  0.1483 -0.5617 -0.1777
  965MOL0     O30148   3.555  10.821   5.702 -0.4668 -0.1290  0.2012
  965MOL0     C30149   3.575  10.781   5.566 -0.1020 -0.1200 -0.8413
  965MOL0     C30150   3.521  10.878   5.464  0.2925 -0.5858  0.1069
  965MOL0     C30151   3.376  10.867   5.418 -0.3609 -0.4325 -0.0962
  965MOL0     C30152   3.331  10.984   5.330  0.1420  0.6329 -0.9236
  965MOL0     C30153   3.186  11.016   5.331 -0.1419  0.4386  0.3080
  965MOL0     C30154   3.166  11.139   5.233 -0.2125  0.5328 -0.8181
  965MOL0     C30155   3.013  11.163   5.253 -0.6122 -0.2133 -0.2541
  965MOL0     C30156   2.979  11.299   5.182 -0.3782 -0.5615 -0.3306
  965MOL0     N30157   2.914  11.399   5.272  0.0927  0.1154  0.2128
  965MOL0     C30158   2.779  11.384   5.299  0.1055 -0.6406 -0.8830
  965MOL0     C30159   2.754  11.480   5.395 -0.9088 -0.8511  0.0505
  965MOL0     C30160   2.616  11.508   5.449 -0.9518 -0.2037  0.1530
  965MOL0     C30161   2.577  11.417   5.566 -0.5239 -0.7810 -0.4590
  965MOL0     C30162   2.525  11.273   5.530  0.2595  0.7781  0.5393
  965MOL0     C30163   2.375  11.272   5.486  0.1110  0.2503  0.3398
  965MOL0     O30164   2.360  11.329   5.359  0.3422  0.2972  0.4161
  965MOL0     C30165   2.223  11.331   5.334  0.4109 -0.4613 -1.2755
  965MOL0     C30166   2.156  11.225   5.275 -1.0810  0.5441 -0.1091
  965MOL0     C30167   2.015  11.217   5.270 -0.6211 -0.1782  0.7530
  965MOL0     C30168   1.949  11.084   5.246  0.0245  0.1222  0.2764
  965MOL0     C30169   1.944  11.325   5.321  0.3372 -0.1959 -0.0183
  965MOL0     C30170   1.796  11.313   5.366 -0.4285  0.2952  0.5014
  965MOL0     O30171   1.765  11.394   5.471 -0.5364 -0.7253 -0.7833
  965MOL0     C30172   1.641  11.446   5.474  0.5213  0.4908  0.0703
  965MOL0     C30173   1.560  11.405   5.581  0.5384  0.6341  0.0461
  965MOL0     C30174   1.423  11.432   5.582  0.2054 -0.6385  0.4675
  965MOL0     C30175   1.361  11.481   5.463 -0.6424 -0.4781  0.0305
  965MOL0     O30176   1.225  11.489   5.468  0.1000  0.6689 -0.0101
  965MOL0     C30177   1.151  11.511   5.340 -0.8152  0.3246 -1.3508
  965MOL0     C30178   1.117  11.665   5.329  0.0540  1.1558 -0.6862
  965MOL0     C30179   1.045  11.711   5.204 -0.3359  0.0586  0.9963
  965MOL0     C30180   1.142  11.710   5.092 -0.2990 -0.7206 -0.1703
  965MOL0     C30181   1.076  11.723   4.962 -0.5775 -0.7093 -0.4878
  965MOL0     C30182   0.996  11.867   4.952  0.0450 -0.8266  0.4246
  965MOL0     C30183   0.979  11.923   4.815  0.0497 -1.0457  0.0984
  965MOL0     C30184   0.916  11.813   4.712  0.0481 -0.2251 -0.1520
  965MOL0    Cl30185   0.742  11.790   4.744  0.1139  0.2989  0.1466
  965MOL0     C30186   1.440  11.530   5.359 -0.4612 -0.8257  0.3811
  965MOL0     C30187   1.583  11.513   5.366 -0.1766 -0.0131 -0.0877
  965MOL0     O30188   1.709  11.249   5.305  0.2677  0.6111  0.1760
  965MOL0     C30189   2.009  11.435   5.361  0.3755 -1.1856 -0.4101
  965MOL0     C30190   2.148  11.440   5.369  0.8467 -0.3935 -0.5505
  965MOL0     N30191   2.871  11.553   5.423  0.4547  0.3279  0.2833
  965MOL0     N30192   2.966  11.494   5.356  1.0105 -0.0588 -0.2448
  965MOL0     C30193   3.639  10.602   5.776  0.3520 -0.3304  0.0110
  965MOL0     C30194   3.733  10.528   5.851  0.2643 -0.3869 -0.0034
  965MOL0     C30195   3.955  10.353   6.163 -0.0580 -0.3492 -0.1522
  965MOL0     C30196   3.923  10.255   6.252  0.4780  0.5859 -0.8146
  965MOL0     C30197   4.016  10.174   6.313 -0.1175 -0.0042 -0.4684
  965MOL0     C30198   4.150  10.184   6.281  0.5549 -0.1019  0.9166
  965MOL0     O30199   4.236  10.095   6.337 -0.9515 -0.9523 -0.2961
  965MOL0     C30200   4.320  10.157   6.436 -0.8006  0.9821  0.7462
  965MOL0     C30201   4.441  10.217   6.360  0.2661  0.4412 -0.4360
  965MOL0     C30202   4.558  10.231   6.453 -0.3267 -0.6583 -0.4059
  965MOL0     C30203   4.664  10.341   6.414 -0.6967  0.0303  0.8037
  965MOL0     C30204   4.750  10.288   6.299  0.1622 -1.2124 -0.7309
  965MOL0     C30205   4.831  10.255   6.210  0.7639 -0.0343 -0.5085
  965MOL0     C30206   4.187  10.289   6.195 -0.0496  0.8194 -0.5898
  965MOL0     C30207   4.094  10.371   6.134  0.8478 -0.1870 -0.3894
  965MOL0     H30208   3.904  10.785   5.997  1.6856 -1.7841 -1.3470
  965MOL0     H30209   3.734  10.917   5.854 -0.6629  0.2851 -1.2368
  965MOL0     H30210   3.683  10.775   5.552  0.8800  1.8001  3.8323
  965MOL0     H30211   3.533  10.683   5.545  0.9223 -0.7722  0.0728
  965MOL0     H30212   3.533  10.977   5.508  0.0917 -1.4527  2.1960
  965MOL0     H30213   3.589  10.867   5.378 -1.3727  0.1226 -1.3709
  965MOL0     H30214   3.363  10.766   5.378  0.2312 -1.7729  2.8046
  965MOL0     H30215   3.312  10.858   5.506 -0.6169  1.1938 -0.0845
  965MOL0     H30216   3.389  11.072   5.361 -1.1373  1.2443 -0.1708
  965MOL0     H30217   3.364  10.959   5.229  2.9127  1.2962 -0.2695
  965MOL0     H30218   3.133  10.932   5.285 -1.1186  1.0723  0.2469
  965MOL0     H30219   3.153  11.040   5.433  2.1832  2.2514  0.7334
  965MOL0     H30220   3.233  11.215   5.274 -0.8677 -0.4767  2.4529
  965MOL0     H30221   3.197  11.106   5.134 -1.5005 -1.8031 -0.5163
  965MOL0     H30222   2.951  11.082   5.212  1.8787 -2.8246  0.8067
  965MOL0     H30223   2.984  11.176   5.357 -0.2833  0.7567 -0.2783
  965MOL0     H30224   2.909  11.274   5.102  1.7128 -2.8921 -1.5874
  965MOL0     H30225   3.071  11.343   5.142 -0.1781  0.4033  1.0875
  965MOL0     H30226   2.709  11.308   5.268 -0.7784  0.0643 -0.6440
  965MOL0     H30227   2.601  11.612   5.480 -3.0019  0.1740 -1.8325
  965MOL0     H30228   2.542  11.490   5.370 -1.1039 -0.5709  0.3779
  965MOL0     H30229   2.494  11.466   5.617  0.5375  1.3641 -0.6610
  965MOL0     H30230   2.662  11.422   5.635 -0.6377  0.4903 -0.3945
  965MOL0     H30231   2.521  11.216   5.623  0.0843  2.4961  1.6189
  965MOL0     H30232   2.595  11.223   5.461 -0.0045 -2.2518  2.2791
  965MOL0     H30233   2.307  11.320   5.557 -0.5731 -1.0040  0.5589
  965MOL0     H30234   2.342  11.168   5.476 -2.1762  1.1395 -2.4186
  965MOL0     H30235   2.214  11.147   5.227  0.2862  0.8436  0.9650
  965MOL0     H30236   2.018  11.009   5.206 -0.2613  0.4488 -0.8685
  965MOL0     H30237   1.910  11.048   5.342 -0.0754 -0.4761  0.0153
  965MOL0     H30238   1.871  11.088   5.170  2.3786 -0.5857 -2.3298
  965MOL0     H30239   1.601  11.342   5.660  0.5400  1.4628  0.7182
  965MOL0     H30240   1.360  11.394   5.662 -0.4281 -0.9791 -0.1746
  965MOL0     H30241   1.203  11.472   5.252 -0.7000  1.2666 -1.7170
  965MOL0     H30242   1.061  11.453   5.361 -0.1549  0.1607  1.4528
  965MOL0     H30243   1.051  11.692   5.412  0.1685 -2.0135  0.5998
  965MOL0     H30244   1.209  11.722   5.341  0.2787  0.3881  1.7536
  965MOL0     H30245   1.023  11.818   5.214  1.9293  0.5394  1.4425
  965MOL0     H30246   0.952  11.656   5.189 -0.5015 -0.9631  4.7954
  965MOL0     H30247   1.216  11.786   5.115  0.5447 -1.9231  1.2604
  965MOL0     H30248   1.206  11.621   5.097  1.1281  0.1648 -1.6621
  965MOL0     H30249   1.004  11.643   4.942  0.4392 -1.7725 -0.0240
  965MOL0     H30250   1.157  11.724   4.889 -0.4299 -1.1124 -0.3341
  965MOL0     H30251   0.906  11.863   5.015  0.8460  0.7893  1.7515
  965MOL0     H30252   1.055  11.943   5.005 -2.0113  0.1370  1.4647
  965MOL0     H30253   1.074  11.964   4.780  0.5148 -1.0056  1.3563
  965MOL0     H30254   0.913  12.010   4.813  1.2612 -0.1127 -1.1252
  965MOL0     H30255   0.961  11.714   4.721  0.5551 -0.2110 -2.1655
  965MOL0     H30256   0.929  11.840   4.607  0.0632 -1.7990 -0.5761
  965MOL0     H30257   1.401  11.579   5.270  0.0364 -4.2723 -1.9366
  965MOL0     H30258   1.657  11.561   5.303 -0.8843 -1.8146 -2.3961
  965MOL0     H30259   1.957  11.523   5.396  1.9353 -0.8501  1.2146
  965MOL0     H30260   2.205  11.525   5.405  0.1258  0.7962 -2.1156
  965MOL0     H30261   3.571  10.545   5.714  0.6505  0.8186 -1.4411
  965MOL0     H30262   3.749  10.421   5.845  1.0671 -0.2898  0.3292
  965MOL0     H30263   3.819  10.250   6.283 -0.0777  2.1982 -2.2364
  965MOL0     H30264   3.981  10.101   6.385  0.9840  0.4231  0.5470
  965MOL0     H30265   4.268  10.234   6.495 -0.3532  0.8029  1.3858
  965MOL0     H30266   4.361  10.081   6.504 -0.0146  0.4850 -0.2706
  965MOL0     H30267   4.412  10.318   6.329  0.6696  0.4978 -0.6352
  965MOL0     H30268   4.469  10.148   6.280 -1.7310  0.9164 -1.5931
  965MOL0     H30269   4.597  10.131   6.472 -0.9712 -0.6040  1.4536
  965MOL0     H30270   4.521  10.262   6.551  0.5272  0.8158 -0.5184
  965MOL0     H30271   4.729  10.354   6.501  0.1253 -2.4977  0.6589
  965MOL0     H30272   4.614  10.430   6.377 -0.2137 -0.3768 -0.9473
  965MOL0     H30273   4.903  10.231   6.134  0.4902 -1.6704 -0.2939
  965MOL0     H30274   4.292  10.296   6.171 -0.1887  0.6303 -1.2651
  965MOL0     H30275   4.110  10.451   6.062 -1.5587 -2.2337 -3.4400
  966MOL0     O30276   6.660   9.726   1.158 -0.0255 -0.4116 -0.3691
  966MOL0     C30277   6.709   9.692   1.266 -0.1562  0.6470 -0.1175
  966MOL0     O30278   6.633   9.666   1.381  0.1475  0.6634 -0.6746
  966MOL0     C30279   6.501   9.691   1.401 -0.1324 -0.4129 -0.5585
  966MOL0     C30280   6.417   9.754   1.306  0.6293  0.2659 -0.1724
  966MOL0     C30281   6.285   9.775   1.328  0.6227  1.1688 -0.1565
  966MOL0     C30282   6.223   9.726   1.441 -0.5481 -0.2693 -0.8376
  966MOL0     O30283   6.085   9.745   1.465  0.4310  0.4126 -0.1913
  966MOL0     C30284   6.020   9.707   1.594 -0.0870 -0.3135 -0.0819
  966MOL0     C30285   5.956   9.565   1.586 -0.7291  0.4234  0.3718
  966MOL0     C30286   5.829   9.580   1.501  0.3217  0.5946  0.3875
  966MOL0     C30287   5.748   9.448   1.488  0.2600 -0.7886 -0.1173
  966MOL0     C30288   5.618   9.477   1.404 -0.4097 -0.1609 -0.4126
  966MOL0     C30289   5.504   9.526   1.482 -0.9036  0.3060 -0.1390
  966MOL0     C30290   5.428   9.623   1.398 -0.1458 -0.5988  0.2131
  966MOL0     C30291   5.296   9.686   1.465 -0.5733  0.2481  0.1931
  966MOL0     N30292   5.191   9.712   1.365  0.0407  0.8857 -0.6501
  966MOL0     C30293   5.064   9.696   1.377  0.3459  0.2475  0.5913
  966MOL0     C30294   5.007   9.765   1.271  0.4074  0.9312 -0.1095
  966MOL0     C30295   4.859   9.773   1.232  0.1375  0.4191  0.4561
  966MOL0     C30296   4.808   9.652   1.146 -0.7083 -0.5451  0.0210
  966MOL0     C30297   4.687   9.691   1.056 -0.9547  0.3273 -0.2533
  966MOL0     C30298   4.560   9.688   1.136  0.1289  0.5137  0.0570
  966MOL0     O30299   4.450   9.710   1.047  0.0455  0.3842 -0.6990
  966MOL0     C30300   4.317   9.722   1.095 -0.7250 -0.0505  0.9478
  966MOL0     C30301   4.282   9.720   1.238  0.2309 -0.0293 -0.0285
  966MOL0     C30302   4.148   9.722   1.277 -0.0418 -0.7509 -0.4207
  966MOL0     C30303   4.096   9.698   1.410  0.4503 -0.0964 -1.0233
  966MOL0     C30304   4.057   9.757   1.172 -0.8978 -0.0604  1.1670
  966MOL0     C30305   3.914   9.755   1.188  0.1237 -0.3999 -0.0615
  966MOL0     O30306   3.863   9.809   1.304 -0.6901  0.3190  0.5600
  966MOL0     C30307   3.730   9.805   1.338  0.1157  0.3778 -0.0144
  966MOL0     C30308   3.623   9.781   1.252  0.1803 -0.7721 -1.1646
  966MOL0     C30309   3.496   9.773   1.303 -0.5623 -0.0266 -0.0548
  966MOL0     C30310   3.477   9.777   1.439  0.7347  0.1446 -1.5506
  966MOL0     O30311   3.357   9.741   1.503 -0.4042 -0.5184 -0.6868
  966MOL0     C30312   3.234   9.749   1.433  0.1448 -0.4882  0.6206
  966MOL0     C30313   3.124   9.725   1.536 -0.6865 -0.2673  0.2932
  966MOL0     C30314   2.991   9.741   1.471 -0.4827 -0.4347  0.0390
  966MOL0     C30315   2.882   9.748   1.583  0.8047  0.0047 -0.4218
  966MOL0     C30316   2.734   9.767   1.529  0.8901  0.2044 -0.2573
  966MOL0     C30317   2.659   9.633   1.528 -0.8532 -0.0478 -0.3817
  966MOL0     C30318   2.531   9.656   1.460 -0.1180  0.4687  0.5691
  966MOL0     C30319   2.427   9.752   1.523  0.6579 -0.1581  0.4087
  966MOL0    Cl30320   2.274   9.756   1.436  0.3155  0.7046  0.7382
  966MOL0     C30321   3.581   9.802   1.528  0.3739 -0.6613  0.0377
  966MOL0     C30322   3.709   9.823   1.478  0.2362  0.5166 -0.6494
  966MOL0     O30323   3.849   9.706   1.100 -0.5634  0.2731 -0.7054
  966MOL0     C30324   4.104   9.773   1.040  0.1508  1.7489  0.3137
  966MOL0     C30325   4.228   9.754   0.999  0.3939  0.6515 -0.4185
  966MOL0     N30326   5.108   9.803   1.193  0.2887  0.2364 -0.0640
  966MOL0     N30327   5.221   9.774   1.242 -0.8587 -0.1243 -0.2197
  966MOL0     C30328   6.302   9.650   1.537 -0.3965  0.5735  0.1321
  966MOL0     C30329   6.436   9.639   1.513  1.1999 -0.3490  0.0647
  966MOL0     C30330   6.855   9.657   1.263 -0.3010 -0.2016  0.2486
  966MOL0     C30331   6.934   9.672   1.148  0.4513  0.0955  1.0055
  966MOL0     C30332   7.073   9.639   1.151  0.5900  0.4940 -0.3502
  966MOL0     C30333   7.134   9.584   1.265 -0.7219  0.6506 -0.4590
  966MOL0     O30334   7.264   9.549   1.267 -1.2267  0.7400  0.3531
  966MOL0     C30335   7.360   9.562   1.158 -0.0775  0.1557  0.1618
  966MOL0     C30336   7.494   9.504   1.199 -0.2982  0.6905  0.5218
  966MOL0     C30337   7.559   9.544   1.332  0.4318 -0.1043  0.4773
  966MOL0     C30338   7.577   9.690   1.353 -0.3903 -0.2714  0.6496
  966MOL0     C30339   7.692   9.730   1.434 -1.1702  1.3075  0.4885
  966MOL0     C30340   7.793   9.754   1.502 -0.0876 -0.1175 -0.6971
  966MOL0     C30341   7.054   9.579   1.385 -0.1733  0.9561  0.2845
  966MOL0     C30342   6.922   9.622   1.383  0.4231 -0.4687 -0.2680
  966MOL0     H30343   6.462   9.799   1.218  2.7952 -0.8375  0.3117
  966MOL0     H30344   6.217   9.826   1.261  0.0258 -1.9616 -2.1402
  966MOL0     H30345   6.092   9.708   1.676  0.0552  0.0684 -0.2142
  966MOL0     H30346   5.948   9.786   1.617  0.5351  1.1470 -2.8302
  966MOL0     H30347   6.036   9.502   1.547 -0.3081  0.9414  0.3940
  966MOL0     H30348   5.928   9.514   1.678  0.2758 -2.7575 -0.9626
  966MOL0     H30349   5.766   9.656   1.547 -0.1995  1.6474 -1.9505
  966MOL0     H30350   5.853   9.620   1.402 -0.8861 -4.4248 -2.3189
  966MOL0     H30351   5.796   9.366   1.435 -0.5906 -1.6315  0.3745
  966MOL0     H30352   5.720   9.398   1.582  1.2105 -1.1574 -0.0266
  966MOL0     H30353   5.652   9.540   1.322  0.3171 -1.1557 -0.9000
  966MOL0     H30354   5.584   9.388   1.351  0.2546 -1.6095  1.4515
  966MOL0     H30355   5.433   9.448   1.511 -1.8588  1.4026  0.5503
  966MOL0     H30356   5.534   9.579   1.573 -2.0635  1.7908 -0.5671
  966MOL0     H30357   5.493   9.703   1.363  0.8242 -2.0910 -1.5705
  966MOL0     H30358   5.390   9.565   1.314 -0.2585  1.6281 -1.3432
  966MOL0     H30359   5.327   9.783   1.502 -0.7717 -0.3470  2.0253
  966MOL0     H30360   5.260   9.627   1.550  0.7049 -0.5147  0.2277
  966MOL0     H30361   5.011   9.646   1.458  1.1999  0.3633  1.2367
  966MOL0     H30362   4.795   9.786   1.320 -3.7277 -1.3993 -1.8410
  966MOL0     H30363   4.840   9.860   1.169  2.4620  0.9695  0.4246
  966MOL0     H30364   4.782   9.561   1.202  0.7591 -0.3495  1.0859
  966MOL0     H30365   4.892   9.623   1.083 -0.8608 -0.5636 -0.1768
  966MOL0     H30366   4.678   9.609   0.984 -1.1765  0.7469 -0.7060
  966MOL0     H30367   4.705   9.785   1.005  1.6019  1.3313  2.2079
  966MOL0     H30368   4.552   9.756   1.221  0.6307  0.3444  0.2388
  966MOL0     H30369   4.542   9.590   1.182 -0.6827  1.4397  1.8348
  966MOL0     H30370   4.361   9.697   1.309  0.4056  2.2005  0.5873
  966MOL0     H30371   4.073   9.792   1.461 -0.5271 -0.8955  0.0607
  966MOL0     H30372   4.003   9.642   1.399 -0.7200  0.8532  2.5481
  966MOL0     H30373   4.163   9.646   1.479  0.0076 -0.3316 -0.7663
  966MOL0     H30374   3.644   9.761   1.148  1.4397 -0.3055 -1.0191
  966MOL0     H30375   3.410   9.746   1.241 -0.7648  0.0135  0.2079
  966MOL0     H30376   3.213   9.846   1.387  2.2430  0.2304  1.0941
  966MOL0     H30377   3.230   9.678   1.350 -0.6448 -0.2644  0.4525
  966MOL0     H30378   3.136   9.623   1.574 -0.6095 -1.2783 -2.2511
  966MOL0     H30379   3.131   9.794   1.620  1.5823  0.9930 -0.8364
  966MOL0     H30380   2.962   9.659   1.405 -1.1924  0.8646 -1.3099
  966MOL0     H30381   2.992   9.836   1.418  2.9695 -0.5591 -0.3553
  966MOL0     H30382   2.886   9.665   1.654  1.3297  0.4990  0.1319
  966MOL0     H30383   2.897   9.844   1.634 -1.4440  0.5371 -0.6703
  966MOL0     H30384   2.722   9.818   1.433 -1.5771 -0.2640 -0.2607
  966MOL0     H30385   2.680   9.827   1.603 -1.6068 -2.2516  0.0766
  966MOL0     H30386   2.730   9.571   1.474  2.7500  1.3295  2.4024
  966MOL0     H30387   2.641   9.591   1.627  1.6171  1.1190  0.6551
  966MOL0     H30388   2.481   9.560   1.443 -1.7170  1.4027 -0.3176
  966MOL0     H30389   2.540   9.691   1.357 -2.6073  0.4604  0.2691
  966MOL0     H30390   2.462   9.855   1.509  0.7816 -0.0639  1.3710
  966MOL0     H30391   2.413   9.736   1.630  0.0504 -0.9259  0.2217
  966MOL0     H30392   3.557   9.806   1.634  0.5225  1.7515  0.0448
  966MOL0     H30393   3.802   9.837   1.533  0.0150  1.6106 -0.5226
  966MOL0     H30394   4.031   9.792   0.961 -0.4948 -1.1420  0.1199
  966MOL0     H30395   4.277   9.747   0.902 -0.4344 -4.5586 -0.7109
  966MOL0     H30396   6.257   9.598   1.621 -1.7601 -0.7894 -1.3658
  966MOL0     H30397   6.510   9.597   1.580  2.5304 -0.4742 -1.4044
  966MOL0     H30398   6.898   9.708   1.053  1.1262 -0.4799  0.5197
  966MOL0     H30399   7.140   9.659   1.068  0.8052  0.1376 -0.2600
  966MOL0     H30400   7.315   9.510   1.073 -1.3104  0.2714  0.7192
  966MOL0     H30401   7.383   9.662   1.121  0.6117 -0.8430 -2.2618
  966MOL0     H30402   7.568   9.523   1.120 -0.2526  0.3517  0.4789
  966MOL0     H30403   7.484   9.397   1.219  2.0154  0.1904 -0.5723
  966MOL0     H30404   7.655   9.491   1.335  0.9160  0.6364 -1.0739
  966MOL0     H30405   7.504   9.521   1.424 -2.1849  0.5090 -0.8491
  966MOL0     H30406   7.489   9.746   1.388 -0.3091  2.4455 -2.9437
  966MOL0     H30407   7.613   9.726   1.257  0.0994 -0.2681  0.8295
  966MOL0     H30408   7.884   9.774   1.555  0.1560 -0.1960 -1.0832
  966MOL0     H30409   7.099   9.546   1.479 -0.5876 -2.5271 -0.5847
  966MOL0     H30410   6.868   9.618   1.477  1.3772  1.0217  0.3812
  967MOL0     O30411  11.220   8.766   7.411  0.2811  0.1070 -0.4341
  967MOL0     C30412  11.190   8.787   7.525 -0.6875 -0.6323  0.2211
  967MOL0     O30413  11.069   8.778   7.576 -0.2481  0.0334  0.0214
  967MOL0     C30414  10.964   8.750   7.493 -0.1746 -0.3487  0.0728
  967MOL0     C30415  10.926   8.837   7.391 -0.0004 -0.2019  0.3277
  967MOL0     C30416  10.828   8.795   7.295 -0.5433 -0.3571 -0.1509
  967MOL0     C30417  10.742   8.677   7.314  0.2937  0.1550 -0.3827
  967MOL0     O30418  10.646   8.622   7.231  0.6534  0.2404 -0.4694
  967MOL0     C30419  10.605   8.710   7.128  0.3854  0.0697 -0.0320
  967MOL0     C30420  10.485   8.664   7.040  1.1153 -0.4807 -0.0488
  967MOL0     C30421  10.350   8.710   7.093 -0.0904 -0.8282 -0.4147
  967MOL0     C30422  10.291   8.609   7.187 -0.9077  0.2106 -0.2016
  967MOL0     C30423  10.146   8.637   7.220 -0.0423  0.2208 -0.4995
  967MOL0     C30424  10.110   8.530   7.332 -0.4238  0.2025  0.7815
  967MOL0     C30425   9.961   8.562   7.372  0.6414  0.0174 -0.1668
  967MOL0     C30426   9.854   8.533   7.273 -0.5109 -1.2042  0.8645
  967MOL0     N30427   9.825   8.391   7.252 -0.2165  0.0384  0.2243
  967MOL0     C30428   9.781   8.286   7.337 -0.4091  0.2218  0.1741
  967MOL0     C30429   9.746   8.184   7.259  0.0613  0.8503 -0.3391
  967MOL0     C30430   9.664   8.055   7.283 -0.0873 -0.2985  0.1667
  967MOL0     C30431   9.558   8.037   7.173 -0.5147 -0.6385 -0.1560
  967MOL0     C30432   9.475   7.909   7.198  0.5243 -0.1535  0.6864
  967MOL0     C30433   9.375   7.889   7.086 -0.1838 -0.4673  0.3465
  967MOL0     O30434   9.260   7.968   7.122 -0.5151  0.1629  0.1388
  967MOL0     C30435   9.137   7.911   7.098 -0.4515 -0.0753 -0.7361
  967MOL0     C30436   9.089   7.877   6.972  0.1969 -0.9454 -0.5730
  967MOL0     C30437   8.952   7.845   6.956  0.9478 -0.9156 -1.1960
  967MOL0     C30438   8.902   7.840   6.816 -0.1134  0.4982  0.2458
  967MOL0     C30439   8.870   7.813   7.072  0.1800  0.4802  0.1420
  967MOL0     C30440   8.721   7.792   7.067  0.3501  0.9308 -0.2833
  967MOL0     O30441   8.663   7.759   7.191  0.1695  0.2129  0.2209
  967MOL0     C30442   8.534   7.704   7.184  0.0302 -0.0041  0.4405
  967MOL0     C30443   8.422   7.790   7.175 -0.3092  1.1540 -0.5612
  967MOL0     C30444   8.296   7.737   7.178 -0.3111 -0.0733 -0.2194
  967MOL0     C30445   8.276   7.597   7.183  0.4724  0.1371  0.1903
  967MOL0     O30446   8.160   7.536   7.178  0.4743  0.2190  0.0421
  967MOL0     C30447   8.038   7.619   7.191 -0.2211 -0.1919  0.3291
  967MOL0     C30448   8.006   7.669   7.332 -0.3791  0.9522 -0.1089
  967MOL0     C30449   7.866   7.744   7.339  0.7952 -0.5688  0.4207
  967MOL0     C30450   7.848   7.835   7.462  0.7632 -0.0335 -0.4659
  967MOL0     C30451   7.702   7.894   7.474 -0.5377  0.8769 -0.0387
  967MOL0     C30452   7.597   7.777   7.515  0.4667  0.6652  0.3545
  967MOL0     C30453   7.454   7.835   7.534  0.4108 -0.9265  0.2811
  967MOL0     C30454   7.336   7.744   7.513  0.3477 -0.4003  0.2890
  967MOL0    Cl30455   7.347   7.605   7.623  0.1088 -0.5718  0.4386
  967MOL0     C30456   8.389   7.512   7.198  0.5066 -0.3210 -0.0957
  967MOL0     C30457   8.522   7.569   7.203  0.8926  0.0869  0.4895
  967MOL0     O30458   8.666   7.796   6.959  0.2731 -0.2861 -0.3227
  967MOL0     C30459   8.931   7.831   7.201  0.5113 -0.3520 -0.0135
  967MOL0     C30460   9.057   7.885   7.209 -0.0159  1.1353 -0.3208
  967MOL0     N30461   9.779   8.222   7.125 -0.3459 -0.8369 -0.3932
  967MOL0     N30462   9.822   8.343   7.123 -0.5671 -0.0690 -0.0241
  967MOL0     C30463  10.775   8.605   7.432 -0.1060 -0.6780 -0.2716
  967MOL0     C30464  10.886   8.633   7.510 -0.3961  0.1323 -0.1064
  967MOL0     C30465  11.300   8.841   7.615  0.3908 -1.2811 -0.6207
  967MOL0     C30466  11.254   8.909   7.730  0.5836  0.2209 -0.1984
  967MOL0     C30467  11.346   8.948   7.830 -0.1913  0.5770  0.4679
  967MOL0     C30468  11.484   8.945   7.808  0.1380  0.9617 -0.2725
  967MOL0     O30469  11.572   8.996   7.901  0.1996  0.4568 -0.7109
  967MOL0     C30470  11.715   8.973   7.894 -0.4485  0.9076  0.7145
  967MOL0     C30471  11.776   9.030   8.023  0.2042 -0.2302 -0.1890
  967MOL0     C30472  11.918   8.982   8.035 -0.0134 -0.0249  0.6240
  967MOL0     C30473  11.986   9.049   8.156  0.5955 -0.4431  0.1347
  967MOL0     C30474  12.094   8.968   8.198 -0.2354 -1.7597  0.1435
  967MOL0     C30475  12.173   8.897   8.242  0.2129  0.2781 -0.0983
  967MOL0     C30476  11.529   8.886   7.687  0.4417  0.9832 -0.3449
  967MOL0     C30477  11.440   8.830   7.592  0.1035  0.4165  0.3034
  967MOL0     H30478  10.970   8.929   7.354  1.5813 -0.1159  2.2610
  967MOL0     H30479  10.804   8.853   7.206 -1.3493  0.2381  0.4465
  967MOL0     H30480  10.592   8.811   7.170  0.2538  0.7625 -1.6365
  967MOL0     H30481  10.690   8.721   7.060 -0.8286  0.9118 -1.4908
  967MOL0     H30482  10.496   8.723   6.949 -4.1300  2.2694  0.7149
  967MOL0     H30483  10.491   8.557   7.015  1.1482 -0.6159  0.5166
  967MOL0     H30484  10.356   8.808   7.140  0.8308 -0.9920 -0.1692
  967MOL0     H30485  10.282   8.717   7.007 -0.7184  0.2036  0.1418
  967MOL0     H30486  10.304   8.508   7.147  2.2028 -0.4918  2.1808
  967MOL0     H30487  10.345   8.617   7.281 -2.3807  2.3403  0.5458
  967MOL0     H30488  10.130   8.735   7.265 -2.8309 -0.5450  0.4154
  967MOL0     H30489  10.081   8.632   7.132 -1.7983  2.1361  0.6121
  967MOL0     H30490  10.120   8.423   7.310 -1.6126  0.5550 -1.8221
  967MOL0     H30491  10.164   8.547   7.425 -0.9069 -1.9007  1.4997
  967MOL0     H30492   9.954   8.505   7.466  0.2357 -0.6875 -0.6120
  967MOL0     H30493   9.962   8.667   7.403 -0.8159 -0.3363  1.2274
  967MOL0     H30494   9.863   8.585   7.177  1.4227 -1.1898  1.0310
  967MOL0     H30495   9.761   8.580   7.308  0.4163 -0.2806  2.1698
  967MOL0     H30496   9.769   8.282   7.445  0.1449 -0.1158  0.2264
  967MOL0     H30497   9.736   7.973   7.280 -0.5776 -0.7128 -0.4071
  967MOL0     H30498   9.630   8.054   7.387  1.3093  1.7227  0.7041
  967MOL0     H30499   9.603   8.032   7.073 -0.6657 -0.7398 -0.2198
  967MOL0     H30500   9.502   8.131   7.184  1.1040  0.3227  0.1753
  967MOL0     H30501   9.419   7.923   7.291  0.2643  2.1073  0.2545
  967MOL0     H30502   9.551   7.831   7.195  1.9835  1.2257  0.5606
  967MOL0     H30503   9.354   7.782   7.089 -0.0969 -0.5832 -1.6192
  967MOL0     H30504   9.408   7.921   6.987  0.6066 -0.9139  0.4531
  967MOL0     H30505   9.147   7.901   6.883  3.3444  1.2662  1.8597
  967MOL0     H30506   8.843   7.749   6.805  1.4371 -0.6072  0.6580
  967MOL0     H30507   8.840   7.926   6.790 -1.9992 -0.2880  1.8482
  967MOL0     H30508   8.987   7.821   6.749  1.0734  4.9112  0.2049
  967MOL0     H30509   8.452   7.893   7.190 -0.5188  1.3752 -1.5510
  967MOL0     H30510   8.207   7.799   7.177 -1.4761 -1.6978 -0.7505
  967MOL0     H30511   8.038   7.706   7.125 -0.3251 -0.2977  0.1880
  967MOL0     H30512   7.959   7.552   7.155 -0.1413  0.4914 -1.1925
  967MOL0     H30513   8.003   7.587   7.404 -2.1262  1.2847  0.2521
  967MOL0     H30514   8.080   7.748   7.350  0.1046 -0.0556  2.6756
  967MOL0     H30515   7.789   7.667   7.335  1.2805 -1.4118  3.8108
  967MOL0     H30516   7.859   7.815   7.256  1.1516 -0.4358  0.5032
  967MOL0     H30517   7.884   7.771   7.543  1.6797  1.4553  0.3424
  967MOL0     H30518   7.916   7.921   7.458 -4.0249  4.1739 -1.5521
  967MOL0     H30519   7.679   7.942   7.379  0.6428  0.0347 -0.7912
  967MOL0     H30520   7.698   7.963   7.559 -0.7790 -0.4461  1.0772
  967MOL0     H30521   7.588   7.711   7.428 -0.4779  1.1748  0.0474
  967MOL0     H30522   7.625   7.731   7.610 -0.2786 -1.9453 -0.5924
  967MOL0     H30523   7.446   7.912   7.457  0.1009 -1.0202  0.2194
  967MOL0     H30524   7.451   7.882   7.633  0.4974  0.6589 -0.4375
  967MOL0     H30525   7.318   7.704   7.412 -2.5525  3.1258 -0.8388
  967MOL0     H30526   7.240   7.794   7.529  1.1142  1.2272  0.0064
  967MOL0     H30527   8.394   7.406   7.177 -0.0442  0.1776 -3.2844
  967MOL0     H30528   8.614   7.513   7.221  0.3812 -0.8367  0.2997
  967MOL0     H30529   8.874   7.823   7.294 -2.6026  0.6151 -1.6996
  967MOL0     H30530   9.100   7.906   7.307 -0.9903 -2.0450  0.9371
  967MOL0     H30531  10.728   8.510   7.455 -0.8829 -0.2967 -0.2562
  967MOL0     H30532  10.913   8.574   7.597  0.3294  1.8236  0.8571
  967MOL0     H30533  11.148   8.917   7.749  0.6611  0.0844  0.2876
  967MOL0     H30534  11.306   9.002   7.915 -1.5693 -0.3452  0.4489
  967MOL0     H30535  11.731   8.865   7.894  1.2533  1.0018  4.4026
  967MOL0     H30536  11.760   9.024   7.808 -0.9868  0.2162  0.0113
  967MOL0     H30537  11.710   8.996   8.103  1.0434  1.0473  1.1032
  967MOL0     H30538  11.772   9.140   8.016  2.3454 -0.0653  0.4370
  967MOL0     H30539  11.966   9.008   7.940  0.3177  6.7027  2.1653
  967MOL0     H30540  11.922   8.872   8.033  3.1589 -0.0288  1.1453
  967MOL0     H30541  11.923   9.062   8.245  2.3514  3.6775  0.9917
  967MOL0     H30542  12.016   9.147   8.120 -0.4052  0.6367  2.0873
  967MOL0     H30543  12.244   8.824   8.276  1.4299  0.6948 -1.6153
  967MOL0     H30544  11.637   8.874   7.680  0.1459 -1.3686 -1.5326
  967MOL0     H30545  11.490   8.779   7.510 -0.2412 -1.7757  1.3639
  968MOL0     O30546   5.968   4.079   7.654 -0.0954  0.4269  0.5145
  968MOL0     C30547   6.053   4.017   7.586  0.0092 -0.0098  0.3347
  968MOL0     O30548   6.030   3.896   7.512  0.5385  0.4129 -0.3259
  968MOL0     C30549   5.896   3.856   7.536  0.3997  0.1115 -0.4036
  968MOL0     C30550   5.794   3.907   7.463 -1.0570 -0.5871 -0.2252
  968MOL0     C30551   5.660   3.872   7.485 -0.2235  0.1770  0.1107
  968MOL0     C30552   5.621   3.789   7.592  0.0769 -0.1971 -0.6108
  968MOL0     O30553   5.497   3.745   7.598  0.0382 -0.9229 -0.0058
  968MOL0     C30554   5.401   3.815   7.684 -0.5727 -0.8756 -0.1081
  968MOL0     C30555   5.256   3.782   7.635 -0.3440 -0.8641  0.4021
  968MOL0     C30556   5.231   3.855   7.495  0.1384  0.1626 -0.0894
  968MOL0     C30557   5.091   3.813   7.446 -0.9536 -1.0268 -0.2526
  968MOL0     C30558   5.059   3.878   7.310 -0.8873 -0.4329 -0.1628
  968MOL0     C30559   4.915   3.923   7.309  1.0637  0.5183  0.2194
  968MOL0     C30560   4.890   4.042   7.217 -0.5042  1.2838 -0.3428
  968MOL0     C30561   4.744   4.066   7.195 -0.1008 -0.2208 -0.5243
  968MOL0     N30562   4.724   4.189   7.111 -0.6032  0.0977  0.1992
  968MOL0     C30563   4.688   4.316   7.148 -0.9511 -0.2107 -0.6745
  968MOL0     C30564   4.718   4.388   7.032  0.1565  0.7999  0.4503
  968MOL0     C30565   4.728   4.537   7.022 -0.2769 -0.7336 -0.4499
  968MOL0     C30566   4.597   4.607   7.068  0.1933 -0.3006 -0.7570
  968MOL0     C30567   4.597   4.758   7.047 -0.0232  0.4844 -0.0295
  968MOL0     C30568   4.465   4.820   7.075 -0.1646 -0.0405  0.0856
  968MOL0     O30569   4.361   4.761   6.994 -0.2135 -0.1533 -0.2066
  968MOL0     C30570   4.236   4.804   7.011 -0.4876  0.2870  0.0616
  968MOL0     C30571   4.148   4.765   6.917  0.8726  0.4704 -0.3360
  968MOL0     C30572   4.007   4.796   6.919 -0.0005  0.3286 -0.1298
  968MOL0     C30573   3.914   4.739   6.817  1.2754 -0.2425 -0.1119
  968MOL0     C30574   3.950   4.876   7.025 -0.1227 -0.0682  0.5827
  968MOL0     C30575   3.807   4.926   7.042 -0.8156 -0.4253 -0.2890
  968MOL0     O30576   3.783   5.023   7.139  0.5821  0.4450 -0.9431
  968MOL0     C30577   3.672   5.087   7.165  0.4559 -0.4627  0.1772
  968MOL0     C30578   3.667   5.138   7.299  0.2599 -0.0868  0.3834
  968MOL0     C30579   3.556   5.222   7.338  0.2220  0.5302  0.7412
  968MOL0     C30580   3.447   5.245   7.253 -0.2352  0.0354  0.0934
  968MOL0     O30581   3.349   5.337   7.293  0.3821  0.2994 -0.2638
  968MOL0     C30582   3.227   5.328   7.220  0.0765  0.0186 -0.7583
  968MOL0     C30583   3.123   5.395   7.312  0.1674 -0.1510 -0.8922
  968MOL0     C30584   2.979   5.334   7.279 -0.5833 -0.3055 -0.1964
  968MOL0     C30585   2.950   5.354   7.126  0.0765 -0.4553 -0.0405
  968MOL0     C30586   2.819   5.303   7.086 -0.1744  0.3293  0.5178
  968MOL0     C30587   2.692   5.381   7.130  0.2292  0.0094 -0.0844
  968MOL0     C30588   2.584   5.362   7.027 -0.8947 -0.5602 -0.0878
  968MOL0     C30589   2.450   5.419   7.076 -0.4299  0.7887  0.1066
  968MOL0    Cl30590   2.440   5.598   7.098  0.1862  0.1692 -0.4830
  968MOL0     C30591   3.450   5.184   7.122  0.0752  0.1132  0.2087
  968MOL0     C30592   3.558   5.106   7.077  0.3828  0.5256 -0.5107
  968MOL0     O30593   3.721   4.890   6.957 -1.0041 -0.1711 -0.4709
  968MOL0     C30594   4.044   4.906   7.132 -0.1486 -0.0879  0.1083
  968MOL0     C30595   4.179   4.880   7.118  0.1384  0.6012 -0.1925
  968MOL0     N30596   4.744   4.299   6.927  0.2927 -0.1536 -0.2463
  968MOL0     N30597   4.750   4.187   6.980  0.1823 -0.2235  0.3493
  968MOL0     C30598   5.729   3.735   7.670  0.3739 -0.2916 -0.5411
  968MOL0     C30599   5.859   3.769   7.645  0.0016 -0.3491  0.1443
  968MOL0     C30600   6.180   4.082   7.573 -0.1114 -0.7768 -0.0808
  968MOL0     C30601   6.187   4.217   7.600 -0.8970 -0.7471  0.1949
  968MOL0     C30602   6.314   4.292   7.591 -0.6260 -0.5857  0.0349
  968MOL0     C30603   6.419   4.225   7.525 -0.4975  0.0530  0.9610
  968MOL0     O30604   6.543   4.277   7.503 -0.0836  0.0356  0.5977
  968MOL0     C30605   6.569   4.406   7.538 -0.3633  0.4127  0.4653
  968MOL0     C30606   6.729   4.431   7.548 -0.3610  0.1680  0.7162
  968MOL0     C30607   6.791   4.493   7.419 -0.2964 -0.1661 -0.6573
  968MOL0     C30608   6.937   4.535   7.460 -0.1126  0.9550  0.0565
  968MOL0     C30609   6.996   4.599   7.351 -0.2465  0.0830  0.0406
  968MOL0     C30610   7.055   4.642   7.254  0.1397  0.5408 -0.0811
  968MOL0     C30611   6.409   4.087   7.490  0.3687 -0.4073  0.3658
  968MOL0     C30612   6.286   4.016   7.513 -1.2635  0.2900  0.0188
  968MOL0     H30613   5.802   3.978   7.382 -2.4901 -3.3321 -2.9651
  968MOL0     H30614   5.578   3.903   7.421  0.7593 -3.0856 -3.0834
  968MOL0     H30615   5.433   3.794   7.787 -0.7889  0.2834  0.2198
  968MOL0     H30616   5.424   3.922   7.695  1.9347 -1.4530  1.2864
  968MOL0     H30617   5.253   3.673   7.619  0.9393 -0.3777 -5.3745
  968MOL0     H30618   5.182   3.814   7.709  1.1082  2.5887  0.5572
  968MOL0     H30619   5.237   3.962   7.515 -0.8386  0.4480 -1.1991
  968MOL0     H30620   5.302   3.822   7.418  1.4394  2.7634 -0.1254
  968MOL0     H30621   5.085   3.704   7.434  0.1995 -1.2790  1.0532
  968MOL0     H30622   5.014   3.839   7.519  0.1654  1.1062  0.2330
  968MOL0     H30623   5.125   3.965   7.304  1.8864 -1.9196  4.1347
  968MOL0     H30624   5.081   3.806   7.230 -0.7787 -0.1123 -0.4246
  968MOL0     H30625   4.839   3.852   7.275 -0.6789  2.0157  0.7942
  968MOL0     H30626   4.893   3.964   7.408  2.4368  0.9736  0.3457
  968MOL0     H30627   4.939   4.124   7.270  0.5572 -0.6545  1.8529
  968MOL0     H30628   4.949   4.034   7.126 -0.1448 -0.0786 -0.0288
  968MOL0     H30629   4.687   4.079   7.287  0.5318  1.8132 -0.3884
  968MOL0     H30630   4.697   3.982   7.143 -0.3544 -0.0722 -0.5320
  968MOL0     H30631   4.677   4.357   7.248  3.1012 -3.4580  1.4355
  968MOL0     H30632   4.804   4.573   7.091 -1.5027  3.0648 -0.8629
  968MOL0     H30633   4.733   4.569   6.918 -2.0117  0.2015 -0.2872
  968MOL0     H30634   4.574   4.581   7.172  0.3872 -0.3758 -0.7330
  968MOL0     H30635   4.523   4.568   6.997  1.0898 -1.3933 -1.1185
  968MOL0     H30636   4.632   4.780   6.945  0.2037 -0.8169 -0.2530
  968MOL0     H30637   4.664   4.796   7.124 -0.8660  1.0266  0.4489
  968MOL0     H30638   4.465   4.928   7.055  0.9681  0.1885  1.1884
  968MOL0     H30639   4.442   4.805   7.181 -2.3606  0.2661 -0.2994
  968MOL0     H30640   4.187   4.700   6.840 -1.0727 -1.5008  0.2444
  968MOL0     H30641   3.882   4.818   6.748  1.7225  0.5038  0.5176
  968MOL0     H30642   3.959   4.661   6.755  1.0181  0.5336 -1.3350
  968MOL0     H30643   3.826   4.700   6.867  0.1990  2.7946  0.5852
  968MOL0     H30644   3.751   5.111   7.362  1.3429 -3.2379 -2.1314
  968MOL0     H30645   3.550   5.274   7.432  0.4690  0.0653  1.0223
  968MOL0     H30646   3.224   5.383   7.126 -0.7488  3.2391  1.0098
  968MOL0     H30647   3.219   5.220   7.205  0.4504 -0.1675  0.3014
  968MOL0     H30648   3.148   5.370   7.415  0.2976  3.3810  0.0718
  968MOL0     H30649   3.120   5.504   7.317  1.9684 -0.1002 -0.1442
  968MOL0     H30650   2.901   5.379   7.340  0.0216  1.1349 -0.4391
  968MOL0     H30651   2.971   5.228   7.305  1.1940 -0.0983  1.4793
  968MOL0     H30652   2.957   5.458   7.092 -1.3720  0.3686  1.9905
  968MOL0     H30653   3.015   5.289   7.066 -2.2122 -2.5483 -0.3981
  968MOL0     H30654   2.810   5.197   7.111  2.1058  0.2205  1.0583
  968MOL0     H30655   2.818   5.305   6.976 -2.1198 -0.1595  0.4893
  968MOL0     H30656   2.663   5.342   7.228  0.8396 -1.4545 -0.4525
  968MOL0     H30657   2.720   5.486   7.138  3.0153 -0.6476 -0.1695
  968MOL0     H30658   2.576   5.255   7.002  1.9207 -1.1509  1.1819
  968MOL0     H30659   2.625   5.409   6.937  1.7396  0.6674  1.6346
  968MOL0     H30660   2.425   5.364   7.167  1.4700  0.6837  0.6235
  968MOL0     H30661   2.373   5.402   7.000 -0.9083  1.9822  0.3060
  968MOL0     H30662   3.369   5.198   7.051 -0.4144  1.0885  0.9294
  968MOL0     H30663   3.551   5.059   6.979 -2.9199  0.1585 -0.2400
  968MOL0     H30664   4.023   4.969   7.217  1.2230  0.2419  0.2241
  968MOL0     H30665   4.241   4.908   7.203 -1.1583 -1.1228  1.4043
  968MOL0     H30666   5.719   3.660   7.748  0.0052 -0.7361 -1.0092
  968MOL0     H30667   5.933   3.730   7.713  1.4950  1.6585 -0.2345
  968MOL0     H30668   6.103   4.263   7.652 -0.6738 -3.0179  2.8198
  968MOL0     H30669   6.334   4.396   7.614 -1.0450  0.3664 -3.2904
  968MOL0     H30670   6.511   4.474   7.475 -0.3972 -1.9644 -2.3197
  968MOL0     H30671   6.543   4.418   7.643  2.1125 -0.7742  1.2821
  968MOL0     H30672   6.797   4.348   7.569 -0.5501 -1.3675 -3.7635
  968MOL0     H30673   6.733   4.508   7.626 -1.9225 -1.6864  2.7880
  968MOL0     H30674   6.729   4.578   7.390  0.7971  0.4005 -1.4211
  968MOL0     H30675   6.787   4.423   7.335 -0.6861  1.5988 -2.1820
  968MOL0     H30676   6.996   4.445   7.480 -1.0817  0.4320  0.6678
  968MOL0     H30677   6.931   4.595   7.551 -1.5916 -0.3229  0.8457
  968MOL0     H30678   7.122   4.664   7.174  1.0475 -1.1615  0.1835
  968MOL0     H30679   6.498   4.036   7.456  0.4839 -0.1424  0.2662
  968MOL0     H30680   6.282   3.916   7.470  1.2839  0.3226 -0.4622
  969MOL0     O30681   3.707   6.132   8.888 -0.2413  0.4767 -0.1991
  969MOL0     C30682   3.775   6.029   8.877 -0.1572 -0.1481  0.2851
  969MOL0     O30683   3.729   5.901   8.902 -0.2652  0.6070  0.8451
  969MOL0     C30684   3.614   5.897   8.970  0.9650 -0.1668  0.8987
  969MOL0     C30685   3.482   5.920   8.910  0.1339 -0.1115 -0.0761
  969MOL0     C30686   3.378   5.927   8.998 -0.1317  0.3227  0.5895
  969MOL0     C30687   3.395   5.887   9.129  0.4157  0.5483 -0.0003
  969MOL0     O30688   3.283   5.900   9.202 -0.2584  0.2002 -1.1596
  969MOL0     C30689   3.282   5.846   9.338 -0.7681 -0.2254  0.2255
  969MOL0     C30690   3.148   5.810   9.394 -0.2789 -0.4976  0.2327
  969MOL0     C30691   3.155   5.701   9.502  0.6807  0.3976 -0.5137
  969MOL0     C30692   3.040   5.705   9.603  0.6353  0.6287  0.7184
  969MOL0     C30693   2.911   5.665   9.525  0.7006 -0.6052 -0.2012
  969MOL0     C30694   2.794   5.642   9.619 -0.0434  0.6314  0.4444
  969MOL0     C30695   2.679   5.609   9.536 -0.5569  0.1394  0.7669
  969MOL0     C30696   2.547   5.598   9.611 -0.1156  0.0398  0.2665
  969MOL0     N30697   2.480   5.729   9.643 -0.2568 -0.8428 -0.5599
  969MOL0     C30698   2.349   5.739   9.692  0.0337 -0.2355  0.0704
  969MOL0     C30699   2.331   5.873   9.696  0.5241  0.3511 -0.7093
  969MOL0     C30700   2.198   5.944   9.724 -0.7973  0.5097 -0.3789
  969MOL0     C30701   2.209   6.052   9.830  1.2798  0.2550 -0.1505
  969MOL0     C30702   2.080   6.145   9.839 -0.1138 -0.9969  1.3817
  969MOL0     C30703   1.960   6.074   9.890  0.2393  0.5139 -0.9773
  969MOL0     O30704   1.991   5.991  10.008 -0.4036 -0.4057  0.4360
  969MOL0     C30705   1.893   6.007  10.107 -0.6111 -0.3375 -0.9398
  969MOL0     C30706   1.809   5.903  10.145 -1.1798  0.8852  0.3323
  969MOL0     C30707   1.716   5.913  10.251  0.1411 -0.0276 -0.8318
  969MOL0     C30708   1.633   5.796  10.277 -0.5110 -0.0648  0.1620
  969MOL0     C30709   1.701   6.041  10.312 -0.1405 -0.2589 -0.4070
  969MOL0     C30710   1.605   6.085  10.414 -0.3382  0.0566  0.2956
  969MOL0     O30711   1.565   6.219  10.418  0.3214  0.7962 -0.0070
  969MOL0     C30712   1.479   6.250  10.513 -0.7562  0.1458 -0.5463
  969MOL0     C30713   1.529   6.266  10.639 -0.1777 -0.7007 -0.2436
  969MOL0     C30714   1.441   6.274  10.744  0.1628  0.7629 -0.2461
  969MOL0     C30715   1.301   6.285  10.717 -0.1023  0.6890 -0.1641
  969MOL0     O30716   1.200   6.302  10.807 -0.1611 -0.1992  0.1314
  969MOL0     C30717   1.240   6.294  10.942 -0.4565  0.6038  0.1836
  969MOL0     C30718   1.119   6.317  11.037 -0.8416  0.3556  0.5279
  969MOL0     C30719   1.070   6.454  11.037  0.2711  0.7761 -0.4805
  969MOL0     C30720   0.932   6.446  11.081 -0.2147 -0.7637  0.0246
  969MOL0     C30721   0.880   6.591  11.078  0.2650 -0.3883 -0.5308
  969MOL0     C30722   0.727   6.591  11.121  1.1884 -0.8904  0.1088
  969MOL0     C30723   0.678   6.738  11.143 -0.0144 -0.5297  0.0153
  969MOL0     C30724   0.532   6.745  11.172 -0.6310  0.1994 -1.0716
  969MOL0    Cl30725   0.430   6.712  11.027  0.3489 -0.1516  0.2137
  969MOL0     C30726   1.256   6.277  10.582 -0.2094 -0.4083  0.0708
  969MOL0     C30727   1.346   6.257  10.483 -0.9700  0.1347  0.0817
  969MOL0     O30728   1.559   5.994  10.493 -0.0513  0.4493 -0.9976
  969MOL0     C30729   1.787   6.143  10.269 -0.5255 -1.3462 -0.0406
  969MOL0     C30730   1.881   6.122  10.172 -1.2035  0.6723 -0.8836
  969MOL0     N30731   2.447   5.942   9.671  0.7044 -0.3871 -0.5670
  969MOL0     N30732   2.531   5.854   9.626  0.3960 -0.0998 -1.4160
  969MOL0     C30733   3.518   5.856   9.181  1.0128  0.7590  0.3693
  969MOL0     C30734   3.624   5.850   9.100  0.4650 -0.3909 -1.0082
  969MOL0     C30735   3.918   6.050   8.836  0.3852 -0.3401  0.5532
  969MOL0     C30736   3.992   5.935   8.805  0.2021  0.3945  0.9937
  969MOL0     C30737   4.126   5.946   8.769 -0.6367  0.7573  0.5140
  969MOL0     C30738   4.191   6.067   8.775 -0.4678 -0.2039 -0.1501
  969MOL0     O30739   4.321   6.075   8.742 -0.1901  0.4173 -0.4958
  969MOL0     C30740   4.389   6.200   8.766  0.2847  0.5038 -0.6653
  969MOL0     C30741   4.539   6.178   8.743 -0.7944 -0.1211  0.1450
  969MOL0     C30742   4.552   6.105   8.612  0.5368 -0.0803  0.5391
  969MOL0     C30743   4.705   6.094   8.579  0.0515  0.0674  0.2556
  969MOL0     C30744   4.760   5.973   8.637  0.4722  0.0174  0.2316
  969MOL0     C30745   4.797   5.870   8.687 -0.3340 -0.2720  0.3414
  969MOL0     C30746   4.114   6.181   8.801 -0.4235  0.2067 -0.7822
  969MOL0     C30747   3.978   6.177   8.828 -0.0045 -0.1800 -0.0824
  969MOL0     H30748   3.466   5.963   8.812  2.1934  2.0396  0.4297
  969MOL0     H30749   3.281   5.954   8.957  0.4142 -1.4469 -2.1394
  969MOL0     H30750   3.339   5.752   9.332  0.7005  0.4738  2.0345
  969MOL0     H30751   3.338   5.911   9.406  0.9092 -1.0786 -0.2820
  969MOL0     H30752   3.110   5.906   9.431 -2.1419 -1.1922  0.2144
  969MOL0     H30753   3.086   5.779   9.310 -0.4388  2.8542 -1.0486
  969MOL0     H30754   3.158   5.600   9.461 -0.6449 -0.5439  1.5709
  969MOL0     H30755   3.250   5.718   9.555 -0.4808  1.8929  1.2189
  969MOL0     H30756   3.062   5.627   9.677  1.1135  0.5451  0.4899
  969MOL0     H30757   3.044   5.799   9.659 -0.1003  1.5869 -0.7632
  969MOL0     H30758   2.878   5.748   9.462  2.1839 -0.8380 -1.3387
  969MOL0     H30759   2.920   5.573   9.466 -0.6402 -2.2551  2.0188
  969MOL0     H30760   2.816   5.559   9.686  2.1340 -1.4722 -2.5898
  969MOL0     H30761   2.771   5.729   9.682 -0.7005  2.5225 -2.2135
  969MOL0     H30762   2.654   5.689   9.465  0.1768 -0.6118 -0.3704
  969MOL0     H30763   2.712   5.522   9.479  1.3143  2.1061 -1.3821
  969MOL0     H30764   2.561   5.559   9.712  1.7369  3.8861  1.6845
  969MOL0     H30765   2.477   5.533   9.558 -1.5439  1.8921 -0.2545
  969MOL0     H30766   2.274   5.663   9.710  0.8078 -0.8652  0.7372
  969MOL0     H30767   2.171   5.991   9.630  1.3481 -0.8028 -1.7320
  969MOL0     H30768   2.124   5.870   9.758  0.2722  0.4123  1.9844
  969MOL0     H30769   2.296   6.119   9.824  1.8568 -0.0778  2.8601
  969MOL0     H30770   2.222   5.991   9.920  2.6745  0.4876 -0.1664
  969MOL0     H30771   2.060   6.193   9.743 -2.6406 -0.0279  2.3214
  969MOL0     H30772   2.097   6.228   9.909  3.5417  0.3019 -0.7345
  969MOL0     H30773   1.931   6.011   9.805 -2.6909  2.6155 -1.7050
  969MOL0     H30774   1.874   6.139   9.911  0.4400 -0.5874  4.6061
  969MOL0     H30775   1.816   5.805  10.100  2.5642  1.4485 -0.6261
  969MOL0     H30776   1.534   5.831  10.308  0.7092  1.4545  2.7138
  969MOL0     H30777   1.625   5.721  10.198 -1.8072 -0.0663  0.2721
  969MOL0     H30778   1.677   5.743  10.363 -2.1982  0.4750  1.3975
  969MOL0     H30779   1.635   6.260  10.662 -0.1248  2.0573  0.5898
  969MOL0     H30780   1.481   6.298  10.842 -0.1807  0.7332 -0.0962
  969MOL0     H30781   1.278   6.194  10.961 -1.3417  0.7460  3.0715
  969MOL0     H30782   1.312   6.375  10.961 -1.5240  0.8111  3.9986
  969MOL0     H30783   1.040   6.250  11.001  0.1256 -1.0014  0.8444
  969MOL0     H30784   1.155   6.298  11.139  0.0619  2.7049  0.7010
  969MOL0     H30785   1.083   6.491  10.935  2.7670  1.1564 -0.0885
  969MOL0     H30786   1.129   6.522  11.099 -1.8121  2.6399 -0.4011
  969MOL0     H30787   0.867   6.378  11.024  1.0278 -2.2851  0.3433
  969MOL0     H30788   0.932   6.415  11.186  0.4530  2.5707  1.1338
  969MOL0     H30789   0.879   6.638  10.979 -4.2283 -0.0142 -0.5245
  969MOL0     H30790   0.942   6.652  11.144  1.4758  2.0906 -3.6678
  969MOL0     H30791   0.673   6.546  11.037 -1.3321  0.6925  0.7471
  969MOL0     H30792   0.704   6.535  11.212  0.4907  0.2583  0.6699
  969MOL0     H30793   0.716   6.795  11.058  1.7901 -2.3210 -0.4728
  969MOL0     H30794   0.725   6.781  11.232 -0.3675 -0.7534  0.3108
  969MOL0     H30795   0.503   6.846  11.204  0.4189 -0.2206  1.4642
  969MOL0     H30796   0.491   6.683  11.252 -1.9182  1.0165 -1.0524
  969MOL0     H30797   1.149   6.285  10.566 -0.1846 -0.2975 -0.0427
  969MOL0     H30798   1.321   6.261  10.377  0.4295 -0.2357 -0.2845
  969MOL0     H30799   1.787   6.242  10.313 -2.4994  0.7804 -4.1993
  969MOL0     H30800   1.949   6.204  10.152  1.0686 -0.9483 -0.2346
  969MOL0     H30801   3.536   5.827   9.284  0.2390  0.5612  0.4568
  969MOL0     H30802   3.721   5.814   9.135  0.1132  0.4824  1.0447
  969MOL0     H30803   3.947   5.837   8.798  1.2605  0.0039 -1.4928
  969MOL0     H30804   4.197   5.869   8.740  1.2522  2.7935 -0.5170
  969MOL0     H30805   4.347   6.286   8.714  0.2915  0.5752 -0.5539
  969MOL0     H30806   4.371   6.230   8.870 -1.2266 -0.1071 -0.7250
  969MOL0     H30807   4.579   6.117   8.825  1.0351  1.9276  0.8761
  969MOL0     H30808   4.588   6.275   8.739 -1.8697  0.5587  1.8923
  969MOL0     H30809   4.504   6.159   8.530  2.3740 -0.5551 -0.9257
  969MOL0     H30810   4.500   6.010   8.622  0.6105 -0.0920  0.8129
  969MOL0     H30811   4.751   6.186   8.618 -3.1696  1.0290  2.2240
  969MOL0     H30812   4.718   6.080   8.472 -2.0906 -1.6947  0.1474
  969MOL0     H30813   4.823   5.775   8.729 -2.8967 -0.5333  1.5398
  969MOL0     H30814   4.157   6.280   8.816  0.2544 -0.2377  0.3086
  969MOL0     H30815   3.941   6.277   8.851  1.2442 -0.0061  1.4294
  970MOL0     O30816   9.008  10.682   5.921 -0.1698 -0.2640 -0.1345
  970MOL0     C30817   8.993  10.567   5.968 -0.4737  0.1750 -0.5991
  970MOL0     O30818   9.084  10.462   5.962  0.4355  0.1454 -0.2319
  970MOL0     C30819   9.214  10.468   5.921 -0.1975  0.4178  0.4535
  970MOL0     C30820   9.270  10.349   5.876 -0.6729 -0.0607  0.5085
  970MOL0     C30821   9.409  10.343   5.862  0.0543  0.1900  0.0244
  970MOL0     C30822   9.474  10.461   5.848 -1.0571  0.2277  0.0700
  970MOL0     O30823   9.597  10.440   5.781  0.0383 -0.6950  0.7164
  970MOL0     C30824   9.706  10.528   5.820 -0.1458  0.4524  0.3862
  970MOL0     C30825   9.833  10.448   5.768 -0.4309  0.0404 -0.1637
  970MOL0     C30826   9.862  10.336   5.868 -0.9844 -0.3925 -0.7085
  970MOL0     C30827   9.789  10.198   5.840 -0.1366  0.8332 -0.1456
  970MOL0     C30828   9.781  10.117   5.972  1.2597 -0.5144 -0.5199
  970MOL0     C30829   9.664  10.010   5.957 -0.4563  0.0204 -0.6594
  970MOL0     C30830   9.666   9.913   5.847  0.5956  0.2697  0.5654
  970MOL0     C30831   9.789   9.818   5.854  0.4696  0.4329 -0.0018
  970MOL0     N30832   9.809   9.763   5.984  0.3997 -0.1869  0.0673
  970MOL0     C30833   9.733   9.671   6.054 -0.3578 -0.2667  0.3371
  970MOL0     C30834   9.793   9.662   6.179  0.0102  0.0027 -0.4071
  970MOL0     C30835   9.745   9.598   6.314  0.2755  0.5269  0.0324
  970MOL0     C30836   9.648   9.483   6.288  1.0337  0.7279 -0.6076
  970MOL0     C30837   9.604   9.431   6.434  0.3914  0.2616 -1.2660
  970MOL0     C30838   9.509   9.318   6.431 -0.0065  0.1072 -0.2151
  970MOL0     O30839   9.559   9.203   6.353  0.8110  0.0950 -0.3775
  970MOL0     C30840   9.463   9.106   6.314 -0.8078 -0.0956 -0.5381
  970MOL0     C30841   9.496   9.016   6.215 -0.2668  0.8926  0.0035
  970MOL0     C30842   9.397   8.927   6.170  1.0361  0.8649 -0.7121
  970MOL0     C30843   9.426   8.847   6.043  0.1781 -0.3803  0.2892
  970MOL0     C30844   9.269   8.916   6.231 -0.2064 -0.6697 -0.0059
  970MOL0     C30845   9.158   8.824   6.193  0.0680 -0.2001  0.7575
  970MOL0     O30846   9.079   8.863   6.090  0.2850 -0.0456  0.6197
  970MOL0     C30847   8.970   8.790   6.041  0.2863 -0.7992 -0.4143
  970MOL0     C30848   8.953   8.651   6.071  0.3841 -0.5333  0.2344
  970MOL0     C30849   8.848   8.571   6.025 -0.8697  0.3339 -0.5521
  970MOL0     C30850   8.761   8.627   5.929  0.2797 -0.5393 -0.1873
  970MOL0     O30851   8.654   8.561   5.869 -0.8153  0.7012  0.2505
  970MOL0     C30852   8.673   8.424   5.822 -1.4602 -0.3121 -0.7005
  970MOL0     C30853   8.572   8.385   5.723  0.6923 -0.2375  0.1377
  970MOL0     C30854   8.576   8.472   5.590  0.5342  0.0896 -0.3329
  970MOL0     C30855   8.670   8.427   5.481 -1.2450  0.7088  0.5931
  970MOL0     C30856   8.824   8.434   5.512 -0.6012 -0.5722 -0.7137
  970MOL0     C30857   8.865   8.579   5.558 -0.0872  0.0859 -1.0110
  970MOL0     C30858   9.018   8.581   5.602  0.6278 -0.3695 -0.3106
  970MOL0     C30859   9.077   8.718   5.650 -0.2397  0.1821  0.0061
  970MOL0    Cl30860   9.113   8.813   5.512  0.1854  0.3701 -0.1010
  970MOL0     C30861   8.764   8.771   5.902  0.6545 -0.0761 -0.3697
  970MOL0     C30862   8.872   8.851   5.955  0.3181 -0.8241 -0.6014
  970MOL0     O30863   9.128   8.740   6.278  0.1624 -0.6704 -0.1009
  970MOL0     C30864   9.242   9.003   6.342 -0.4223 -0.1546  0.3823
  970MOL0     C30865   9.338   9.096   6.376  0.6793 -0.2178 -0.3851
  970MOL0     N30866   9.906   9.737   6.166  0.5021  0.0248  0.6044
  970MOL0     N30867   9.916   9.801   6.053  0.7446 -0.4260  0.2722
  970MOL0     C30868   9.423  10.577   5.895 -0.3628  0.5200  0.6738
  970MOL0     C30869   9.293  10.585   5.929  0.3418 -0.4498  0.3438
  970MOL0     C30870   8.864  10.547   6.033  0.1385  0.5892 -1.4040
  970MOL0     C30871   8.773  10.648   6.068 -0.3087  0.4078  0.0058
  970MOL0     C30872   8.646  10.634   6.136  0.0435 -0.4727  0.4755
  970MOL0     C30873   8.599  10.511   6.186  0.4382 -0.2566  0.3207
  970MOL0     O30874   8.480  10.500   6.253  0.9496 -0.7940 -0.3169
  970MOL0     C30875   8.402  10.620   6.268  0.3650  0.1835 -0.6092
  970MOL0     C30876   8.284  10.599   6.370 -0.4974 -0.5311  0.4796
  970MOL0     C30877   8.179  10.482   6.331  0.4629 -0.1619  0.0958
  970MOL0     C30878   8.084  10.466   6.450  0.0233 -0.4816 -0.5413
  970MOL0     C30879   7.978  10.574   6.461 -0.1602  0.8251  0.7613
  970MOL0     C30880   7.895  10.672   6.459 -0.5002  0.3761  0.6910
  970MOL0     C30881   8.679  10.395   6.149  0.2811  0.9267 -0.5349
  970MOL0     C30882   8.813  10.415   6.077  0.2950 -0.5001 -0.8469
  970MOL0     H30883   9.205  10.263   5.865 -0.4567 -0.0731 -0.9177
  970MOL0     H30884   9.464  10.256   5.827  2.3357  1.2906  0.6685
  970MOL0     H30885   9.698  10.630   5.781  1.0141  1.4758  2.6517
  970MOL0     H30886   9.703  10.544   5.928 -0.7304 -1.1748  0.6413
  970MOL0     H30887   9.809  10.418   5.666  1.6338 -1.1589 -0.3618
  970MOL0     H30888   9.913  10.522   5.770 -0.9083  0.5754 -0.6505
  970MOL0     H30889   9.970  10.319   5.864 -0.7084 -0.5132  3.2923
  970MOL0     H30890   9.835  10.361   5.971  0.1098 -0.1975 -0.4473
  970MOL0     H30891   9.685  10.222   5.816 -0.6486  0.0771  1.2331
  970MOL0     H30892   9.829  10.145   5.753 -1.9854  0.5079 -0.8307
  970MOL0     H30893   9.872  10.059   5.990  0.5680 -1.4205  0.1289
  970MOL0     H30894   9.757  10.185   6.054 -1.5209  0.1989 -1.8332
  970MOL0     H30895   9.655   9.946   6.046 -0.2319 -1.1254 -1.4382
  970MOL0     H30896   9.578  10.077   5.949 -0.5048  0.0567  0.0884
  970MOL0     H30897   9.573   9.859   5.867 -0.8405  2.6529  0.7069
  970MOL0     H30898   9.636   9.973   5.760 -4.9545  0.1636  1.9890
  970MOL0     H30899   9.879   9.869   5.820  0.6541 -0.5330 -1.0004
  970MOL0     H30900   9.774   9.736   5.783 -0.9330  1.1344 -0.5744
  970MOL0     H30901   9.640   9.620   6.032 -1.2729  0.7390  1.7581
  970MOL0     H30902   9.836   9.571   6.368 -0.4392  1.2941  1.7077
  970MOL0     H30903   9.685   9.666   6.376  0.1653  0.9249 -0.5097
  970MOL0     H30904   9.693   9.395   6.241 -2.0185 -1.1474 -0.2966
  970MOL0     H30905   9.556   9.513   6.236  1.1924  3.0004  0.3063
  970MOL0     H30906   9.540   9.506   6.481  1.2183  0.1760  0.0264
  970MOL0     H30907   9.683   9.414   6.507  0.3888 -0.7484 -1.4908
  970MOL0     H30908   9.413   9.360   6.401 -0.1965  1.3584  1.9293
  970MOL0     H30909   9.509   9.278   6.533 -0.3637  0.5199 -0.0525
  970MOL0     H30910   9.598   9.006   6.180 -0.1327  2.2866 -0.0523
  970MOL0     H30911   9.486   8.909   5.977  1.6233 -1.6581  0.3359
  970MOL0     H30912   9.478   8.758   6.082  0.5240  1.1816  3.7532
  970MOL0     H30913   9.338   8.814   5.989  0.7543  1.2101 -1.7172
  970MOL0     H30914   9.021   8.605   6.142  0.0174  1.7761  2.1888
  970MOL0     H30915   8.854   8.467   6.054  0.2851  0.6106  0.2760
  970MOL0     H30916   8.777   8.420   5.785 -0.8390  2.6111  0.4379
  970MOL0     H30917   8.653   8.355   5.905  2.5850 -1.4884 -0.4816
  970MOL0     H30918   8.574   8.280   5.692 -0.2838 -0.3585  0.4597
  970MOL0     H30919   8.470   8.385   5.763 -0.8508 -3.7605 -3.0960
  970MOL0     H30920   8.604   8.575   5.612 -0.5466  1.2192 -3.5286
  970MOL0     H30921   8.470   8.479   5.561 -0.0956 -0.0026  1.8279
  970MOL0     H30922   8.639   8.328   5.447  1.9144 -0.7621  1.6392
  970MOL0     H30923   8.661   8.506   5.406 -0.0202  1.1546  0.8912
  970MOL0     H30924   8.878   8.408   5.420  3.4193 -2.6244  1.9506
  970MOL0     H30925   8.859   8.361   5.586 -0.6064 -0.3016 -0.4444
  970MOL0     H30926   8.864   8.647   5.473 -0.1586  2.0810  0.4963
  970MOL0     H30927   8.808   8.615   5.645  1.4546 -1.0779  0.5660
  970MOL0     H30928   9.080   8.546   5.519 -0.0884  1.5315 -1.7132
  970MOL0     H30929   9.018   8.517   5.690 -0.3691  1.6575  1.2317
  970MOL0     H30930   9.172   8.695   5.699  0.3738 -1.4170 -1.8028
  970MOL0     H30931   9.009   8.766   5.721  1.2879 -0.3681  1.9348
  970MOL0     H30932   8.688   8.812   5.837  1.7922  0.6161 -1.3115
  970MOL0     H30933   8.893   8.955   5.933 -0.1583 -0.5325  0.2819
  970MOL0     H30934   9.144   8.995   6.388  0.5172 -2.2816  2.2168
  970MOL0     H30935   9.317   9.165   6.458 -0.2073  3.2830 -3.2791
  970MOL0     H30936   9.487  10.663   5.877  0.2184 -0.4592 -2.6014
  970MOL0     H30937   9.247  10.681   5.951 -0.7515 -0.3784 -1.9624
  970MOL0     H30938   8.800  10.748   6.035 -0.4032  0.7312  0.8545
  970MOL0     H30939   8.595  10.729   6.144 -0.4202 -0.5382 -1.2826
  970MOL0     H30940   8.475  10.695   6.299  1.8304  0.7496 -4.7752
  970MOL0     H30941   8.356  10.645   6.172 -1.1802 -1.6702 -0.4125
  970MOL0     H30942   8.225  10.692   6.372  0.5764  0.1868  0.0214
  970MOL0     H30943   8.318  10.584   6.473 -2.5103 -2.4026  0.9415
  970MOL0     H30944   8.224  10.383   6.321  1.9848  0.5524 -0.3908
  970MOL0     H30945   8.120  10.510   6.244  0.1277 -1.3474 -0.0841
  970MOL0     H30946   8.146  10.459   6.540  0.3717  2.1642 -0.5059
  970MOL0     H30947   8.019  10.380   6.433 -0.6423 -0.4090  1.4134
  970MOL0     H30948   7.833  10.759   6.470 -0.3841  0.3764  1.3721
  970MOL0     H30949   8.633  10.298   6.160  0.0867  1.1783  1.0797
  970MOL0     H30950   8.857  10.318   6.060 -2.3421 -2.1878  1.1031
  971MOL0     O30951   1.650   0.929  10.616  0.0008 -0.4493  0.3156
  971MOL0     C30952   1.696   1.032  10.669 -1.2017  0.0922  0.8335
  971MOL0     O30953   1.638   1.155  10.672  0.3508 -0.1331  0.2446
  971MOL0     C30954   1.509   1.169  10.624  1.0295 -0.0791  0.3647
  971MOL0     C30955   1.432   1.275  10.690 -0.8264 -0.7412  0.1108
  971MOL0     C30956   1.300   1.305  10.650 -0.1426 -0.8625  0.1502
  971MOL0     C30957   1.240   1.228  10.551 -0.5425 -1.3125 -0.5135
  971MOL0     O30958   1.114   1.245  10.514  0.5696  0.7028 -0.0465
  971MOL0     C30959   1.021   1.183  10.599  0.4177 -0.4694  0.1579
  971MOL0     C30960   0.886   1.256  10.575  0.5507  0.3528 -0.3054
  971MOL0     C30961   0.774   1.200  10.665 -0.6928 -0.0330 -0.2505
  971MOL0     C30962   0.634   1.262  10.632  0.4443 -0.2421 -0.6885
  971MOL0     C30963   0.522   1.214  10.715  0.6188  0.5944  0.0136
  971MOL0     C30964   0.384   1.275  10.699  0.2651 -0.3593  0.3265
  971MOL0     C30965   0.323   1.294  10.564 -0.4714  0.1364  0.1933
  971MOL0     C30966   0.366   1.422  10.484 -0.1336 -0.3009  0.1640
  971MOL0     N30967   0.318   1.410  10.347  0.2907 -0.5314 -0.5688
  971MOL0     C30968   0.198   1.427  10.303  0.2135 -1.0061  0.0084
  971MOL0     C30969   0.206   1.391  10.174 -0.2538  0.0313  0.0676
  971MOL0     C30970   0.078   1.389  10.095  1.1836 -0.1563  0.0124
  971MOL0     C30971   0.111   1.371   9.947 -0.3282 -0.0027 -0.5831
  971MOL0     C30972   0.040   1.482   9.871 -0.3396  0.4059 -0.1806
  971MOL0     C30973   0.041   1.455   9.722 -0.7582  0.5270  0.6163
  971MOL0     O30974  -0.002   1.572   9.653  0.6791  0.3961 -0.1627
  971MOL0     C30975  -0.134   1.573   9.614 -0.0443  0.0309  0.1966
  971MOL0     C30976  -0.227   1.627   9.702  0.5753 -0.2093 -1.3747
  971MOL0     C30977  -0.365   1.623   9.688 -0.1582  0.1617  0.9672
  971MOL0     C30978  -0.462   1.683   9.787  0.5713 -0.6361  0.0667
  971MOL0     C30979  -0.416   1.550   9.571 -0.1400 -0.4256 -0.1962
  971MOL0     C30980  -0.559   1.530   9.550  0.0326  0.1059  0.6681
  971MOL0     O30981  -0.589   1.409   9.505 -0.4023 -0.0802  0.1345
  971MOL0     C30982  -0.718   1.367   9.481  0.2502 -1.6503  0.2497
  971MOL0     C30983  -0.787   1.419   9.376  0.0688  0.2640  0.3529
  971MOL0     C30984  -0.923   1.377   9.363  0.3374 -0.7704  0.7651
  971MOL0     C30985  -0.982   1.282   9.449  0.8331 -0.5715 -0.5126
  971MOL0     O30986  -1.118   1.266   9.439  0.2549 -0.2526  0.1699
  971MOL0     C30987  -1.164   1.127   9.428 -0.5863  0.1832  0.1647
  971MOL0     C30988  -1.272   1.079   9.526  0.3787  0.4780 -0.0525
  971MOL0     C30989  -1.378   1.193   9.547 -0.6807 -0.8429 -0.9403
  971MOL0     C30990  -1.484   1.183   9.451  0.2528 -0.2929  0.8623
  971MOL0     C30991  -1.577   1.304   9.434  0.0900 -0.0984 -0.7025
  971MOL0     C30992  -1.663   1.322   9.561  0.3948 -0.8353  0.6614
  971MOL0     C30993  -1.792   1.395   9.522  0.2849  0.1322 -0.2952
  971MOL0     C30994  -1.865   1.454   9.637  0.4679  0.6777 -0.3893
  971MOL0    Cl30995  -1.946   1.340   9.756  0.1176 -0.1077  0.3877
  971MOL0     C30996  -0.908   1.232   9.555 -0.0950  0.1094  0.1274
  971MOL0     C30997  -0.776   1.275   9.572  0.4736 -0.3221 -0.8783
  971MOL0     O30998  -0.639   1.627   9.553  0.0810 -0.0732  0.9118
  971MOL0     C30999  -0.317   1.498   9.479  0.3558 -0.0389  0.1447
  971MOL0     C31000  -0.177   1.507   9.501 -0.3546 -1.2825  0.4385
  971MOL0     N31001   0.327   1.336  10.141  1.1185  0.1460 -0.0659
  971MOL0     N31002   0.398   1.363  10.245 -0.5612  0.2152  0.8544
  971MOL0     C31003   1.312   1.131  10.484  0.1892  1.2095 -1.1771
  971MOL0     C31004   1.449   1.099  10.510 -0.0487 -0.3017  0.1054
  971MOL0     C31005   1.820   1.014  10.749 -0.4792  0.4252 -0.5429
  971MOL0     C31006   1.873   1.127  10.811  0.0310 -0.5328 -0.4189
  971MOL0     C31007   1.987   1.107  10.891  0.2812 -0.3481  0.7116
  971MOL0     C31008   2.058   0.986  10.903 -0.4451 -0.0099 -0.7609
  971MOL0     O31009   2.161   0.979  10.997  0.2418 -0.6129  0.5734
  971MOL0     C31010   2.247   0.862  10.992  0.5709  0.6295 -0.0468
  971MOL0     C31011   2.371   0.881  11.072 -0.3213  0.0576  0.1144
  971MOL0     C31012   2.446   1.011  11.038 -0.6582 -0.4222  0.2047
  971MOL0     C31013   2.595   0.998  11.084 -0.3139 -0.9341  0.4516
  971MOL0     C31014   2.612   0.947  11.223 -0.1792 -0.3794 -0.1543
  971MOL0     C31015   2.644   0.898  11.330  0.5159  0.4198 -0.6110
  971MOL0     C31016   1.998   0.875  10.832  0.5237 -0.1297  0.3876
  971MOL0     C31017   1.877   0.894  10.770  1.0763  0.1928 -0.1225
  971MOL0     H31018   1.476   1.333  10.771  0.7625 -0.7751 -0.6885
  971MOL0     H31019   1.244   1.384  10.699  1.9872  1.6120 -1.1255
  971MOL0     H31020   1.013   1.074  10.590  0.5415 -0.3222 -2.8196
  971MOL0     H31021   1.034   1.195  10.707  0.0559 -2.9132  0.5223
  971MOL0     H31022   0.891   1.364  10.591 -1.2332  0.7936 -2.3173
  971MOL0     H31023   0.840   1.250  10.476 -3.9962  0.3994  1.5720
  971MOL0     H31024   0.755   1.093  10.649 -1.0246 -0.4753  2.6245
  971MOL0     H31025   0.805   1.220  10.768 -0.1825  0.5188 -0.5088
  971MOL0     H31026   0.640   1.368  10.655 -0.0364 -0.6651  1.7619
  971MOL0     H31027   0.614   1.231  10.529  2.6649 -3.3414 -0.3372
  971MOL0     H31028   0.514   1.108  10.690  1.4347  1.4656 -5.2239
  971MOL0     H31029   0.560   1.233  10.816 -1.0492  3.6053  0.1859
  971MOL0     H31030   0.314   1.217  10.760  0.3654  0.2950  1.0796
  971MOL0     H31031   0.389   1.375  10.744  0.6488 -0.4135  0.4044
  971MOL0     H31032   0.342   1.206  10.502 -1.7512 -1.0699  1.4160
  971MOL0     H31033   0.215   1.295  10.577 -0.6645  1.5270 -1.2119
  971MOL0     H31034   0.475   1.431  10.481  0.1972 -3.1399  1.2121
  971MOL0     H31035   0.333   1.521  10.518  1.9270  1.2317 -1.9683
  971MOL0     H31036   0.115   1.470  10.358  0.7145  0.6254 -0.4605
  971MOL0     H31037   0.022   1.302  10.129  0.1709 -0.0018 -1.1953
  971MOL0     H31038   0.032   1.487  10.110  1.1714  0.0567 -1.2795
  971MOL0     H31039   0.092   1.271   9.907 -0.6340  0.8210 -2.5994
  971MOL0     H31040   0.216   1.395   9.929 -0.4663  0.5225 -0.6905
  971MOL0     H31041   0.084   1.579   9.897 -0.8265 -0.6156  5.8305
  971MOL0     H31042  -0.067   1.477   9.890 -0.8620 -3.3283 -2.9021
  971MOL0     H31043  -0.027   1.371   9.703 -1.8400  1.5163 -0.0115
  971MOL0     H31044   0.140   1.426   9.686 -0.2911  1.4371  1.1485
  971MOL0     H31045  -0.196   1.670   9.798  0.8296  1.4166 -2.1467
  971MOL0     H31046  -0.498   1.601   9.849  2.3515 -1.3573  0.2020
  971MOL0     H31047  -0.413   1.761   9.847  0.4837 -1.0412  0.6640
  971MOL0     H31048  -0.543   1.733   9.733 -0.8774 -3.1475 -0.2416
  971MOL0     H31049  -0.732   1.492   9.315 -0.9283  0.6254 -0.1320
  971MOL0     H31050  -0.990   1.412   9.285  2.1168  2.5134  0.5029
  971MOL0     H31051  -1.219   1.121   9.334 -0.0041 -0.8667 -0.1253
  971MOL0     H31052  -1.080   1.058   9.418  1.0878  2.0356  0.8458
  971MOL0     H31053  -1.320   0.989   9.485  2.3777 -0.9373  0.5488
  971MOL0     H31054  -1.224   1.050   9.619  2.3633  1.7928 -0.6147
  971MOL0     H31055  -1.341   1.295   9.539 -1.3740 -0.6845 -2.3990
  971MOL0     H31056  -1.414   1.183   9.650  0.0331  1.4219 -0.4345
  971MOL0     H31057  -1.431   1.187   9.355 -0.0489  2.6379  0.7073
  971MOL0     H31058  -1.535   1.086   9.453 -0.4311  0.0680  1.7431
  971MOL0     H31059  -1.644   1.283   9.350  0.0007  3.8014 -1.8293
  971MOL0     H31060  -1.521   1.395   9.410 -0.6916  0.8470  0.8877
  971MOL0     H31061  -1.704   1.229   9.600 -0.9061 -0.5993 -0.0807
  971MOL0     H31062  -1.617   1.384   9.638 -0.1942  0.7928 -0.2409
  971MOL0     H31063  -1.852   1.325   9.463 -0.9765  0.0873  0.9805
  971MOL0     H31064  -1.751   1.478   9.464 -0.5298  0.0964 -0.9414
  971MOL0     H31065  -1.947   1.512   9.594  0.5154  0.3622 -0.9148
  971MOL0     H31066  -1.802   1.526   9.689  1.5520 -0.8918  0.5506
  971MOL0     H31067  -0.949   1.150   9.612  2.1324 -2.9641 -2.3037
  971MOL0     H31068  -0.714   1.230   9.648 -0.3768  1.0256  0.6968
  971MOL0     H31069  -0.352   1.455   9.385 -0.2402  3.5495 -1.4105
  971MOL0     H31070  -0.095   1.464   9.445  0.4315 -0.8161  1.1916
  971MOL0     H31071   1.254   1.059  10.427  1.8942  0.0377 -1.5077
  971MOL0     H31072   1.496   1.025  10.445 -3.7734  0.1966 -3.6151
  971MOL0     H31073   1.817   1.220  10.808  1.9973  0.7985  1.3788
  971MOL0     H31074   2.032   1.186  10.949 -1.0406 -0.4721  1.9635
  971MOL0     H31075   2.195   0.779  11.040 -2.6545  2.2777 -0.4175
  971MOL0     H31076   2.276   0.845  10.888  0.2530  3.9241 -0.7817
  971MOL0     H31077   2.432   0.791  11.069 -0.4108 -0.1208  2.1234
  971MOL0     H31078   2.346   0.898  11.178 -1.2671 -0.2432 -0.0518
  971MOL0     H31079   2.408   1.100  11.089 -1.5217 -1.0378  0.6787
  971MOL0     H31080   2.443   1.031  10.931  0.1092 -0.9513  0.0739
  971MOL0     H31081   2.642   1.097  11.083 -2.0356 -0.0861  0.0679
  971MOL0     H31082   2.649   0.930  11.018 -0.1391 -1.8175  1.4800
  971MOL0     H31083   2.653   0.835  11.416 -0.9902  1.4934  0.3800
  971MOL0     H31084   2.044   0.778  10.846 -2.3474 -1.6826 -0.3102
  971MOL0     H31085   1.822   0.810  10.728  0.7740  0.0424  0.5699
  972MOL0     O31086   7.637   7.305  11.236 -0.1961  1.0705 -0.8075
  972MOL0     C31087   7.718   7.243  11.168 -0.0962 -0.4821 -0.2748
  972MOL0     O31088   7.695   7.210  11.038  0.5529 -0.1824  0.0873
  972MOL0     C31089   7.571   7.241  10.988 -0.3202  0.5965 -0.4101
  972MOL0     C31090   7.459   7.162  11.022 -0.8164 -1.1574  1.2379
  972MOL0     C31091   7.334   7.187  10.956  0.1660 -0.7867  0.5665
  972MOL0     C31092   7.320   7.282  10.854  0.0955  0.0698 -0.1939
  972MOL0     O31093   7.204   7.278  10.787  0.7327  0.4647 -0.7357
  972MOL0     C31094   7.167   7.384  10.703  0.4134 -0.4581  0.7430
  972MOL0     C31095   7.011   7.367  10.688 -0.3881 -0.6312  0.0175
  972MOL0     C31096   6.950   7.454  10.585 -0.2439  1.1879 -0.2021
  972MOL0     C31097   6.797   7.435  10.595  0.1755  0.6064 -0.0934
  972MOL0     C31098   6.723   7.545  10.540 -1.1189  0.6364  0.1350
  972MOL0     C31099   6.574   7.525  10.530 -0.4077 -0.2081  0.4073
  972MOL0     C31100   6.512   7.668  10.527 -0.3680 -0.2916 -0.0642
  972MOL0     C31101   6.356   7.650  10.510  0.9779 -0.2519  0.2517
  972MOL0     N31102   6.292   7.600  10.631 -0.2428 -1.0030  0.0299
  972MOL0     C31103   6.240   7.478  10.658 -0.8009  0.3510  0.0649
  972MOL0     C31104   6.197   7.490  10.783  0.2357  0.3656 -0.8991
  972MOL0     C31105   6.126   7.379  10.855 -0.2806  0.1244 -0.9264
  972MOL0     C31106   6.228   7.271  10.895 -0.3053 -0.5059 -0.5875
  972MOL0     C31107   6.314   7.328  11.012 -0.2350  0.8539 -0.4589
  972MOL0     C31108   6.404   7.214  11.077  0.0058  0.7364 -0.5838
  972MOL0     O31109   6.532   7.226  11.023 -0.5488 -0.1688 -0.4347
  972MOL0     C31110   6.641   7.168  11.088  0.3231  0.3236 -0.1469
  972MOL0     C31111   6.628   7.105  11.216 -0.1858 -0.0242  0.3318
  972MOL0     C31112   6.745   7.044  11.262  0.1842  0.0580  0.2063
  972MOL0     C31113   6.729   6.964  11.396 -0.5181  0.2148  0.4440
  972MOL0     C31114   6.868   7.062  11.199  0.7314  0.1178  1.2122
  972MOL0     C31115   7.003   6.999  11.260 -0.3564 -0.4345  0.3829
  972MOL0     O31116   7.119   7.056  11.206  0.4736 -0.4608 -0.7288
  972MOL0     C31117   7.232   7.007  11.260 -0.4296  0.0350  0.0209
  972MOL0     C31118   7.291   6.884  11.230 -0.2011 -0.2391 -0.3659
  972MOL0     C31119   7.410   6.842  11.286  0.3264  0.5607 -0.3300
  972MOL0     C31120   7.483   6.926  11.374 -0.5605  0.5445 -0.5971
  972MOL0     O31121   7.601   6.894  11.437 -0.3637  0.1537  0.0584
  972MOL0     C31122   7.703   6.868  11.348 -0.5120  0.5452  0.5062
  972MOL0     C31123   7.843   6.825  11.401  0.6180  1.0004 -0.0269
  972MOL0     C31124   7.829   6.692  11.449  0.3703  0.0221  0.1254
  972MOL0     C31125   7.954   6.625  11.482 -0.4252  0.1048 -0.6104
  972MOL0     C31126   8.040   6.684  11.592  0.1410 -0.4049 -0.4477
  972MOL0     C31127   8.171   6.594  11.599  0.1332  0.3499  0.2455
  972MOL0     C31128   8.262   6.627  11.715 -0.1106 -0.4214 -0.0739
  972MOL0     C31129   8.401   6.546  11.720 -0.1922 -0.4482  1.2568
  972MOL0    Cl31130   8.382   6.374  11.759 -0.1249  0.4499  0.1148
  972MOL0     C31131   7.432   7.054  11.399 -0.0867 -0.1200 -0.2663
  972MOL0     C31132   7.305   7.096  11.344 -0.3510 -0.8685  0.9380
  972MOL0     O31133   6.998   6.901  11.334 -0.2382 -0.0612  0.2914
  972MOL0     C31134   6.871   7.126  11.076  0.5836  0.5404  0.0649
  972MOL0     C31135   6.758   7.177  11.021 -0.0620 -0.2144 -0.8049
  972MOL0     N31136   6.233   7.621  10.836  0.2721 -0.9032 -0.8662
  972MOL0     N31137   6.296   7.686  10.744  1.2226  0.1874  0.1710
  972MOL0     C31138   7.437   7.338  10.808 -0.9728 -0.2711  0.4288
  972MOL0     C31139   7.558   7.326  10.876  0.0823  1.0753 -0.3145
  972MOL0     C31140   7.835   7.206  11.239  0.8017  0.4940 -0.7102
  972MOL0     C31141   7.935   7.149  11.165 -0.3307  0.2401  0.3658
  972MOL0     C31142   8.048   7.095  11.224  1.0136 -0.2420  0.2365
  972MOL0     C31143   8.067   7.100  11.361  0.2296  0.1990  0.0614
  972MOL0     O31144   8.177   7.036  11.411  0.3844 -0.0804  0.5079
  972MOL0     C31145   8.218   7.048  11.539 -0.6707  0.0649 -0.2644
  972MOL0     C31146   8.290   7.175  11.580  0.4618 -0.3067  0.3839
  972MOL0     C31147   8.410   7.197  11.483 -0.8156 -0.4447  0.2365
  972MOL0     C31148   8.512   7.282  11.546 -0.0468  0.6225 -0.1629
  972MOL0     C31149   8.639   7.261  11.478 -0.1940  0.3759 -0.3896
  972MOL0     C31150   8.742   7.262  11.426 -0.0527 -0.0659  0.0980
  972MOL0     C31151   7.977   7.177  11.437  0.3292 -0.3920 -0.2147
  972MOL0     C31152   7.856   7.217  11.376  0.2057 -0.4900  0.7008
  972MOL0     H31153   7.470   7.085  11.099  1.3115  0.2688  2.4504
  972MOL0     H31154   7.247   7.131  10.991 -0.5141  1.1313  2.1362
  972MOL0     H31155   7.186   7.474  10.763 -2.5624 -0.4222  1.7914
  972MOL0     H31156   7.211   7.386  10.603 -0.4162 -3.5181  0.2400
  972MOL0     H31157   6.989   7.267  10.650 -0.3988  0.1441 -2.1263
  972MOL0     H31158   6.975   7.387  10.790 -0.6576 -1.0227  0.0015
  972MOL0     H31159   6.989   7.556  10.594  0.6245  1.3682 -4.1132
  972MOL0     H31160   6.973   7.419  10.484 -1.1644  0.3640 -0.1372
  972MOL0     H31161   6.787   7.345  10.534  1.4436 -1.5004  2.5810
  972MOL0     H31162   6.771   7.407  10.697 -0.8242  2.5646  0.2284
  972MOL0     H31163   6.747   7.638  10.592  0.2288  1.6402 -2.1198
  972MOL0     H31164   6.766   7.558  10.441 -0.8077  0.8504  0.2967
  972MOL0     H31165   6.552   7.476  10.435 -0.1173  0.4944 -0.0354
  972MOL0     H31166   6.540   7.462  10.613  1.3040  1.7697  2.7402
  972MOL0     H31167   6.535   7.728  10.616 -0.0555 -2.1910  1.2209
  972MOL0     H31168   6.548   7.721  10.439 -1.4885  1.7100  0.6298
  972MOL0     H31169   6.338   7.578  10.429 -1.3359 -2.1068  2.2444
  972MOL0     H31170   6.304   7.738  10.470  0.7928 -0.5660 -0.2157
  972MOL0     H31171   6.224   7.396  10.589 -1.5324 -0.7508  1.4925
  972MOL0     H31172   6.067   7.409  10.942 -2.2692  1.1697 -2.5291
  972MOL0     H31173   6.055   7.322  10.794 -0.2910 -1.9168  0.9205
  972MOL0     H31174   6.291   7.230  10.816  1.1229  0.0302  0.2373
  972MOL0     H31175   6.177   7.185  10.940  4.3261 -1.8511  2.8742
  972MOL0     H31176   6.262   7.375  11.095 -0.8278  1.2996 -1.0743
  972MOL0     H31177   6.384   7.405  10.979  1.2159 -0.6319 -1.0319
  972MOL0     H31178   6.376   7.111  11.053 -1.4640  0.7340  0.9690
  972MOL0     H31179   6.399   7.232  11.185 -3.6309 -0.3820 -0.4522
  972MOL0     H31180   6.531   7.090  11.262 -1.2670  1.8554 -1.1737
  972MOL0     H31181   6.724   6.855  11.386 -1.2636  0.2979 -0.2489
  972MOL0     H31182   6.819   6.979  11.455 -0.1444  0.3446 -0.1545
  972MOL0     H31183   6.638   6.993  11.449 -0.1076 -0.6378  1.6597
  972MOL0     H31184   7.243   6.815  11.161 -0.5353  0.8886 -1.3076
  972MOL0     H31185   7.450   6.743  11.266  0.1407  0.3007  0.5439
  972MOL0     H31186   7.672   6.787  11.282 -1.3336  1.8302 -0.7481
  972MOL0     H31187   7.717   6.957  11.285  1.5364 -1.0554 -1.4230
  972MOL0     H31188   7.920   6.829  11.324 -1.2003  2.4233 -1.9132
  972MOL0     H31189   7.866   6.894  11.482 -1.1308  0.1798  1.2326
  972MOL0     H31190   7.784   6.632  11.370  1.4181 -3.0390  1.7229
  972MOL0     H31191   7.762   6.684  11.535  0.3939 -2.7071 -0.0527
  972MOL0     H31192   7.930   6.520  11.501  1.9699 -0.1458  1.5576
  972MOL0     H31193   8.023   6.630  11.397 -0.3962 -0.3588 -0.6173
  972MOL0     H31194   7.982   6.675  11.684 -0.0254  0.9349 -0.4068
  972MOL0     H31195   8.064   6.790  11.582 -3.1222  0.6170  1.2478
  972MOL0     H31196   8.145   6.488  11.604  0.1228  0.3683  0.6243
  972MOL0     H31197   8.235   6.605  11.511 -0.7523 -2.3748 -0.8317
  972MOL0     H31198   8.200   6.592  11.797 -1.7691 -2.6014 -2.1083
  972MOL0     H31199   8.283   6.734  11.724  0.3004 -0.3349 -1.6379
  972MOL0     H31200   8.477   6.588  11.786 -0.2073  2.8888 -0.6342
  972MOL0     H31201   8.460   6.556  11.628  0.7951  1.9173  2.0683
  972MOL0     H31202   7.496   7.114  11.463  2.3008  0.3112 -2.8690
  972MOL0     H31203   7.280   7.199  11.367  1.0467 -0.3162  0.1087
  972MOL0     H31204   6.963   7.123  11.020  1.3723 -0.0717  1.3274
  972MOL0     H31205   6.768   7.244  10.936 -2.0124  2.2028  0.7259
  972MOL0     H31206   7.446   7.394  10.716 -0.4318 -1.5178 -0.3131
  972MOL0     H31207   7.644   7.372  10.830  1.8905 -1.8535 -0.1410
  972MOL0     H31208   7.918   7.140  11.059  0.8643 -0.6247  0.2312
  972MOL0     H31209   8.114   7.024  11.177  1.9811 -0.1111  1.3506
  972MOL0     H31210   8.138   7.037  11.614  1.7327  0.3683  2.5247
  972MOL0     H31211   8.281   6.963  11.567 -0.7872  0.1179  0.1669
  972MOL0     H31212   8.314   7.168  11.687  1.8497 -1.0116  0.0533
  972MOL0     H31213   8.223   7.261  11.583  1.6309  0.6641 -0.2821
  972MOL0     H31214   8.382   7.239  11.386  2.5964 -1.3377 -1.2662
  972MOL0     H31215   8.451   7.102  11.447 -1.6534 -0.7739  0.1036
  972MOL0     H31216   8.525   7.260  11.652  2.8879  1.8226 -0.1784
  972MOL0     H31217   8.482   7.388  11.545 -1.7226  0.2440  2.1210
  972MOL0     H31218   8.836   7.278  11.377 -0.0360  1.5174  0.5992
  972MOL0     H31219   7.988   7.184  11.545  1.8111  1.7280 -0.4188
  972MOL0     H31220   7.783   7.270  11.436  0.0991  0.2630 -0.0697
  973MOL0     O31221   1.260   2.733   3.012 -0.2025  0.0743  0.1013
  973MOL0     C31222   1.326   2.749   3.115 -0.2096  0.0145  0.2766
  973MOL0     O31223   1.393   2.862   3.149 -0.3423  0.0520  0.5494
  973MOL0     C31224   1.389   2.957   3.053 -0.4931  0.3163  0.1329
  973MOL0     C31225   1.500   3.002   2.991 -0.0920  0.3565  0.1659
  973MOL0     C31226   1.508   3.101   2.897 -0.3257  0.5551 -0.5283
  973MOL0     C31227   1.393   3.182   2.874  0.5614 -0.6079  1.3392
  973MOL0     O31228   1.395   3.290   2.781 -0.0523  0.0797 -0.0259
  973MOL0     C31229   1.274   3.357   2.762  0.2691 -1.1099  0.5128
  973MOL0     C31230   1.312   3.468   2.664 -0.4560  1.0065 -0.7160
  973MOL0     C31231   1.190   3.523   2.595  0.9665  0.3273 -0.4776
  973MOL0     C31232   1.102   3.605   2.698  0.8559 -0.4899 -0.4959
  973MOL0     C31233   0.978   3.667   2.634 -0.2960  0.5634 -0.1993
  973MOL0     C31234   0.885   3.727   2.736 -0.1256 -0.5339 -0.4847
  973MOL0     C31235   0.770   3.821   2.682 -0.5924 -0.6138 -0.2970
  973MOL0     C31236   0.682   3.848   2.803 -0.5756  0.1899 -0.7681
  973MOL0     N31237   0.563   3.939   2.784  0.1460  0.0420 -0.2221
  973MOL0     C31238   0.488   3.988   2.890  0.3690 -0.3595 -1.2508
  973MOL0     C31239   0.405   4.076   2.836  1.3531 -0.1857 -0.4411
  973MOL0     C31240   0.304   4.161   2.915  0.0776  0.0494 -0.2473
  973MOL0     C31241   0.218   4.255   2.825  0.1944 -1.0839 -0.4760
  973MOL0     C31242   0.139   4.359   2.892  0.1907  0.0585  0.0774
  973MOL0     C31243   0.002   4.379   2.826  1.1485  0.0613 -0.6676
  973MOL0     O31244  -0.075   4.264   2.848  0.3636  0.4752  0.4065
  973MOL0     C31245  -0.211   4.274   2.839  0.0496 -0.2730  0.0539
  973MOL0     C31246  -0.287   4.169   2.888 -1.3795 -0.8786 -0.1639
  973MOL0     C31247  -0.425   4.159   2.867  0.1044  0.3953  0.2684
  973MOL0     C31248  -0.509   4.042   2.915  0.0427 -0.1979 -0.0613
  973MOL0     C31249  -0.496   4.248   2.795 -0.2256 -0.6907 -0.4664
  973MOL0     C31250  -0.644   4.245   2.779  0.5515  0.1259 -0.2848
  973MOL0     O31251  -0.701   4.268   2.663 -0.1042  0.2313  0.5430
  973MOL0     C31252  -0.835   4.284   2.662 -0.3829 -0.9366 -1.0027
  973MOL0     C31253  -0.894   4.412   2.702  0.1955 -0.2032 -0.2701
  973MOL0     C31254  -1.023   4.440   2.679  0.1033 -0.2011  0.1002
  973MOL0     C31255  -1.113   4.332   2.647 -0.0262  0.2149  0.6769
  973MOL0     O31256  -1.240   4.368   2.629 -0.4116 -0.4948 -0.3295
  973MOL0     C31257  -1.321   4.280   2.547 -0.5861 -0.2863 -0.3704
  973MOL0     C31258  -1.415   4.215   2.638  0.7941  1.2732  0.6488
  973MOL0     C31259  -1.501   4.312   2.728  0.4198  0.0266 -0.2569
  973MOL0     C31260  -1.648   4.269   2.726 -0.6334  0.5344 -0.1957
  973MOL0     C31261  -1.737   4.319   2.838 -0.0386  0.8071  0.3455
  973MOL0     C31262  -1.879   4.258   2.822  0.0696  0.7776  0.7152
  973MOL0     C31263  -1.970   4.331   2.929  0.8136  0.5494  0.7336
  973MOL0     C31264  -2.103   4.252   2.944  0.3450  0.1771  0.3019
  973MOL0    Cl31265  -2.206   4.376   3.027  0.1117  0.2270  0.1293
  973MOL0     C31266  -1.056   4.204   2.621  0.6650  0.0234  0.2578
  973MOL0     C31267  -0.918   4.181   2.618 -0.1029 -0.3229 -0.1999
  973MOL0     O31268  -0.705   4.217   2.880  0.0428 -0.3593  0.3561
  973MOL0     C31269  -0.419   4.356   2.743  0.3409  0.2852 -0.2095
  973MOL0     C31270  -0.277   4.366   2.766  1.0319  0.7256 -0.5427
  973MOL0     N31271   0.418   4.059   2.700 -0.0218 -1.1587  0.4401
  973MOL0     N31272   0.504   3.975   2.665  0.4528  0.5982 -0.6019
  973MOL0     C31273   1.277   3.144   2.939  0.4722 -0.3697  0.4264
  973MOL0     C31274   1.279   3.039   3.026  0.3904  0.8507 -0.4254
  973MOL0     C31275   1.330   2.646   3.210  0.1506  0.2457  0.3508
  973MOL0     C31276   1.284   2.517   3.184  0.2650 -1.0410 -0.1847
  973MOL0     C31277   1.271   2.420   3.278  0.2982 -0.4974  0.1352
  973MOL0     C31278   1.301   2.441   3.413 -0.8690 -0.4802  0.3496
  973MOL0     O31279   1.285   2.347   3.513 -0.4193 -0.8821  0.1989
  973MOL0     C31280   1.209   2.401   3.618 -0.7730  0.0384 -0.1334
  973MOL0     C31281   1.288   2.396   3.755 -0.6281  0.4543  0.5476
  973MOL0     C31282   1.422   2.475   3.781 -0.4444  1.7079 -0.8691
  973MOL0     C31283   1.495   2.417   3.903 -0.3027 -0.3510  1.0145
  973MOL0     C31284   1.424   2.414   4.026  0.0130  0.2822 -0.2014
  973MOL0     C31285   1.364   2.409   4.128  0.5040 -1.1820  0.9660
  973MOL0     C31286   1.360   2.565   3.446  0.1608  0.5496  0.5953
  973MOL0     C31287   1.376   2.661   3.346  0.1082  0.4465 -0.6832
  973MOL0     H31288   1.581   2.934   3.017 -0.9747 -0.9069 -0.2510
  973MOL0     H31289   1.596   3.130   2.841  0.4246 -0.8131 -0.0863
  973MOL0     H31290   1.213   3.282   2.711  1.6261 -1.5509 -0.4941
  973MOL0     H31291   1.226   3.400   2.851  2.3601  0.2419  1.0493
  973MOL0     H31292   1.358   3.551   2.717 -1.5953  0.8279  0.6405
  973MOL0     H31293   1.372   3.419   2.588  0.5338 -2.6834  2.1429
  973MOL0     H31294   1.224   3.586   2.512  0.4817 -0.3074 -1.1651
  973MOL0     H31295   1.134   3.441   2.550  1.4147  0.0269 -0.4977
  973MOL0     H31296   1.074   3.540   2.781  1.0884  3.0802  2.6779
  973MOL0     H31297   1.166   3.679   2.747  0.1648  1.6097 -2.5604
  973MOL0     H31298   1.007   3.748   2.566  0.9473  0.1054 -0.2280
  973MOL0     H31299   0.927   3.586   2.581 -1.1984  0.0064  1.4656
  973MOL0     H31300   0.848   3.642   2.794  2.6104 -1.6490 -0.2782
  973MOL0     H31301   0.938   3.790   2.808  1.6317 -1.1082 -1.2249
  973MOL0     H31302   0.810   3.918   2.651 -0.4783 -0.9235 -1.1370
  973MOL0     H31303   0.706   3.784   2.601 -3.1892  1.5460  0.6216
  973MOL0     H31304   0.743   3.889   2.884 -0.0818 -1.6473 -0.1566
  973MOL0     H31305   0.650   3.751   2.841 -2.1628  2.5962  5.2559
  973MOL0     H31306   0.510   3.979   2.996  1.9566  1.5859 -1.3631
  973MOL0     H31307   0.230   4.105   2.973 -2.0904  0.5921 -2.3118
  973MOL0     H31308   0.353   4.223   2.991 -1.7746  2.5307 -0.9315
  973MOL0     H31309   0.153   4.191   2.765 -1.0037 -0.9378  0.6174
  973MOL0     H31310   0.289   4.302   2.757 -0.0375 -0.8187 -0.5409
  973MOL0     H31311   0.183   4.459   2.893 -4.3069  2.3021 -0.6800
  973MOL0     H31312   0.122   4.332   2.997  0.6019 -0.3157  0.0542
  973MOL0     H31313   0.009   4.416   2.723  3.1618 -0.4228 -0.7481
  973MOL0     H31314  -0.052   4.462   2.874 -0.0176 -1.2217  0.2924
  973MOL0     H31315  -0.227   4.097   2.944  2.1032  1.7172 -0.2005
  973MOL0     H31316  -0.441   3.970   2.961  0.6753 -0.1167 -0.8360
  973MOL0     H31317  -0.576   4.054   3.000 -0.3286 -1.5176 -0.1489
  973MOL0     H31318  -0.560   3.993   2.832  2.6930 -1.1362 -1.2787
  973MOL0     H31319  -0.819   4.481   2.740 -2.0543  3.8085 -2.3718
  973MOL0     H31320  -1.058   4.542   2.691  3.0983  1.1017 -1.3459
  973MOL0     H31321  -1.377   4.359   2.495  0.0367  1.6533  1.7334
  973MOL0     H31322  -1.269   4.215   2.476  0.2484 -0.1608  0.1100
  973MOL0     H31323  -1.476   4.153   2.572  1.5636  0.9310  0.2463
  973MOL0     H31324  -1.358   4.146   2.701  2.9963 -0.1200 -2.6318
  973MOL0     H31325  -1.510   4.416   2.695 -2.3492  1.0360  3.1167
  973MOL0     H31326  -1.456   4.312   2.828 -2.7857  1.0444  1.3008
  973MOL0     H31327  -1.691   4.314   2.636  0.9511  1.8435 -0.3500
  973MOL0     H31328  -1.662   4.161   2.717 -2.6538  0.7767 -0.3019
  973MOL0     H31329  -1.736   4.429   2.838 -2.1171  0.8661  1.3093
  973MOL0     H31330  -1.698   4.285   2.934 -1.7075 -1.3346  0.3431
  973MOL0     H31331  -1.915   4.273   2.720  0.6293  2.6249  0.7447
  973MOL0     H31332  -1.888   4.150   2.831 -0.3016  0.7448  0.0193
  973MOL0     H31333  -1.993   4.429   2.885 -0.0953  1.5501  3.2885
  973MOL0     H31334  -1.930   4.345   3.030 -1.0535 -0.2951  1.6276
  973MOL0     H31335  -2.093   4.163   3.007  3.2398  0.0497 -0.2041
  973MOL0     H31336  -2.144   4.240   2.844  1.1385 -1.4669  0.1456
  973MOL0     H31337  -1.117   4.120   2.590  1.1206 -0.6139  1.0326
  973MOL0     H31338  -0.874   4.088   2.584 -0.4528 -1.4955  2.3617
  973MOL0     H31339  -0.469   4.442   2.701 -1.7994  0.2259  2.0037
  973MOL0     H31340  -0.228   4.448   2.714 -1.6325  1.7214 -1.6650
  973MOL0     H31341   1.184   3.189   2.905  1.8697  1.8707 -0.7047
  973MOL0     H31342   1.188   3.009   3.078  1.5350 -2.6321 -0.1593
  973MOL0     H31343   1.253   2.494   3.083 -0.5598  0.7366 -0.3725
  973MOL0     H31344   1.241   2.321   3.244  1.1551  0.1213 -2.6946
  973MOL0     H31345   1.183   2.507   3.614 -1.0728 -0.0145  0.2903
  973MOL0     H31346   1.113   2.350   3.628 -0.6217 -0.2547 -0.1811
  973MOL0     H31347   1.295   2.289   3.771  2.2053  0.6375  0.9430
  973MOL0     H31348   1.210   2.437   3.820  0.2480  1.4822  0.9715
  973MOL0     H31349   1.400   2.580   3.805 -3.0320  1.5858 -2.3514
  973MOL0     H31350   1.493   2.470   3.698  1.5512  0.3217  0.7900
  973MOL0     H31351   1.588   2.470   3.922 -1.3769  0.5799  4.4346
  973MOL0     H31352   1.520   2.315   3.872 -0.7230 -0.3950  0.8050
  973MOL0     H31353   1.322   2.419   4.226 -0.2963 -1.3383  0.6479
  973MOL0     H31354   1.392   2.597   3.545  0.9458  0.0556  0.5149
  973MOL0     H31355   1.412   2.758   3.378 -0.6774  1.4988 -2.8500
  974MOL0     O31356   7.188   5.836  10.284  0.4702 -0.1810  0.2021
  974MOL0     C31357   7.246   5.757  10.366 -0.2378  0.1495  0.0581
  974MOL0     O31358   7.218   5.627  10.401  0.1246 -0.4533 -0.2672
  974MOL0     C31359   7.139   5.550  10.328  0.8365  0.0617  0.2923
  974MOL0     C31360   7.019   5.601  10.265  0.4161  0.1653  0.8990
  974MOL0     C31361   6.931   5.520  10.189 -0.0336  0.8581  0.3155
  974MOL0     C31362   6.977   5.396  10.151  0.3430  0.9903  0.5070
  974MOL0     O31363   6.908   5.303  10.073 -0.1951  0.2957  0.5128
  974MOL0     C31364   6.828   5.368   9.964 -0.0148  0.4457  0.1866
  974MOL0     C31365   6.785   5.260   9.863  0.4444  0.1006 -0.4596
  974MOL0     C31366   6.688   5.153   9.929 -0.5341 -0.7082 -0.3028
  974MOL0     C31367   6.665   5.038   9.844  0.3377 -1.0603  0.4890
  974MOL0     C31368   6.578   4.934   9.918  0.8031 -0.5547 -0.8015
  974MOL0     C31369   6.424   4.962   9.916 -0.4788  0.3965  0.2048
  974MOL0     C31370   6.333   4.836   9.926  0.0235 -0.6285  0.1359
  974MOL0     C31371   6.342   4.775  10.068 -0.5664 -0.0192  0.5262
  974MOL0     N31372   6.247   4.655  10.069  0.1146 -0.3127  0.4887
  974MOL0     C31373   6.286   4.522  10.082 -0.2362  0.0548  0.0022
  974MOL0     C31374   6.171   4.450  10.092 -0.4459  0.3443 -0.0340
  974MOL0     C31375   6.171   4.291  10.077 -0.1566 -0.3093 -0.2177
  974MOL0     C31376   6.179   4.208  10.200  0.7527 -0.6621  0.2147
  974MOL0     C31377   6.074   4.262  10.299 -0.4758 -0.4427 -0.6458
  974MOL0     C31378   6.045   4.146  10.394 -0.6026  0.1784 -0.0956
  974MOL0     O31379   5.951   4.192  10.495  0.2510  0.0196  0.7753
  974MOL0     C31380   5.818   4.217  10.473 -1.1433  0.0922  0.0712
  974MOL0     C31381   5.740   4.272  10.577  0.0839  0.7965  0.4617
  974MOL0     C31382   5.605   4.304  10.560 -1.1835 -0.2996 -0.1810
  974MOL0     C31383   5.538   4.359  10.682 -0.3378 -0.0446 -0.2690
  974MOL0     C31384   5.541   4.286  10.435 -0.1023 -0.4316 -0.1670
  974MOL0     C31385   5.401   4.321  10.424  0.5365 -0.1450  0.5613
  974MOL0     O31386   5.310   4.305  10.535 -0.6833 -0.4171  0.8747
  974MOL0     C31387   5.195   4.374  10.531 -0.1831  0.0467 -0.4595
  974MOL0     C31388   5.181   4.493  10.612 -0.6462 -0.1054  0.3094
  974MOL0     C31389   5.052   4.558  10.602 -0.9507  0.9387 -0.1619
  974MOL0     C31390   4.942   4.494  10.533  0.9288 -0.5479 -1.0443
  974MOL0     O31391   4.817   4.548  10.542 -0.6836 -0.0010  0.0614
  974MOL0     C31392   4.782   4.642  10.648  1.2089 -0.1602  0.0386
  974MOL0     C31393   4.634   4.661  10.654 -0.0887 -0.4416  0.6985
  974MOL0     C31394   4.549   4.549  10.726 -0.9869  0.3832 -0.7329
  974MOL0     C31395   4.550   4.561  10.880  0.4625 -0.4974  0.2122
  974MOL0     C31396   4.468   4.459  10.959  0.2512  0.0728  0.6454
  974MOL0     C31397   4.515   4.311  10.936  0.4513 -0.3817  0.3111
  974MOL0     C31398   4.641   4.283  11.007 -0.0138  0.1495 -0.4706
  974MOL0     C31399   4.629   4.276  11.157  0.0635 -0.2235 -0.2481
  974MOL0    Cl31400   4.501   4.154  11.213  0.2392  0.4027  0.2116
  974MOL0     C31401   4.954   4.372  10.461 -0.2230  0.2731 -0.1169
  974MOL0     C31402   5.077   4.314  10.462 -0.3797 -0.2148 -0.4048
  974MOL0     O31403   5.366   4.355  10.308 -0.4570  0.2863  0.3075
  974MOL0     C31404   5.613   4.236  10.326 -0.2523 -0.0353 -0.6909
  974MOL0     C31405   5.754   4.203  10.344  0.0951 -0.6087  0.6234
  974MOL0     N31406   6.060   4.540  10.087  0.1500 -0.2177  0.3493
  974MOL0     N31407   6.111   4.656  10.060 -0.0940 -0.0548  0.5278
  974MOL0     C31408   7.097   5.351  10.200  0.0221  1.0163 -0.1793
  974MOL0     C31409   7.179   5.425  10.287  0.0143 -0.7125 -0.2045
  974MOL0     C31410   7.364   5.812  10.420 -0.7810  0.1517 -0.7266
  974MOL0     C31411   7.459   5.723  10.494  0.3168 -1.0058 -0.7670
  974MOL0     C31412   7.571   5.776  10.565  0.1419  0.0923  0.0840
  974MOL0     C31413   7.589   5.914  10.573  0.4608 -0.7938 -0.2103
  974MOL0     O31414   7.687   5.983  10.641  0.0792  0.3837 -0.3856
  974MOL0     C31415   7.766   5.896  10.721 -0.0288  0.5705  0.0376
  974MOL0     C31416   7.865   5.970  10.809  0.2559 -1.1179  1.2467
  974MOL0     C31417   7.944   5.875  10.891  0.6835 -0.7374  0.9015
  974MOL0     C31418   8.054   5.951  10.967 -0.1743 -0.4325 -0.3691
  974MOL0     C31419   8.006   6.074  11.036 -0.1290  0.2455 -0.1953
  974MOL0     C31420   7.978   6.184  11.088  0.2736  0.1180 -0.2044
  974MOL0     C31421   7.506   5.999  10.496  0.9502  0.6940 -0.0436
  974MOL0     C31422   7.397   5.951  10.419 -0.1547  0.0882 -0.6651
  974MOL0     H31423   6.979   5.700  10.286 -1.5790 -1.0170  3.3138
  974MOL0     H31424   6.833   5.559  10.161 -0.4821 -0.1201  0.4897
  974MOL0     H31425   6.738   5.421   9.998  0.3198  0.8453  0.4523
  974MOL0     H31426   6.879   5.448   9.911 -1.9635  1.7952  0.2623
  974MOL0     H31427   6.716   5.310   9.795  2.1026  1.0005 -1.5670
  974MOL0     H31428   6.876   5.211   9.826 -0.9431 -5.0231  1.9006
  974MOL0     H31429   6.713   5.125  10.031 -1.8408  0.8755  0.5091
  974MOL0     H31430   6.596   5.211   9.947 -0.6837 -0.1373 -2.5615
  974MOL0     H31431   6.613   5.073   9.755  0.0019  0.4976  1.2649
  974MOL0     H31432   6.767   5.004   9.827  1.5997  2.4680  0.2192
  974MOL0     H31433   6.581   4.837   9.868 -0.6837  0.2636 -2.6347
  974MOL0     H31434   6.618   4.914  10.017  0.8140 -0.9974 -0.8940
  974MOL0     H31435   6.398   5.029   9.999  0.2261  0.4482  0.3848
  974MOL0     H31436   6.398   5.015   9.824 -0.3276 -2.9534 -1.9187
  974MOL0     H31437   6.230   4.867   9.906  0.7437  1.6148 -0.4205
  974MOL0     H31438   6.352   4.759   9.851  0.1754  1.5187 -2.1675
  974MOL0     H31439   6.305   4.851  10.137 -1.7331  0.5248 -0.6595
  974MOL0     H31440   6.443   4.738  10.091 -0.1755 -0.6223 -1.8939
  974MOL0     H31441   6.382   4.470  10.072  0.2594  0.8812  0.3603
  974MOL0     H31442   6.079   4.275  10.020 -0.7845  2.6590 -0.1799
  974MOL0     H31443   6.258   4.262  10.017  2.5303  1.6274  2.4651
  974MOL0     H31444   6.279   4.224  10.241  0.4487  0.5614  0.5199
  974MOL0     H31445   6.173   4.100  10.181  1.2944 -0.5248 -0.7904
  974MOL0     H31446   5.983   4.293  10.247 -3.5809 -1.2778  3.6760
  974MOL0     H31447   6.109   4.349  10.355  0.2193 -2.2137  1.8907
  974MOL0     H31448   6.137   4.122  10.449  0.4201 -0.2388 -1.9130
  974MOL0     H31449   6.017   4.062  10.330  0.2228  0.0731 -0.3303
  974MOL0     H31450   5.787   4.289  10.673  1.4164  1.2194 -0.2390
  974MOL0     H31451   5.474   4.445  10.662 -0.7986 -0.4178 -0.4060
  974MOL0     H31452   5.480   4.277  10.725  0.5260  0.0494  1.1591
  974MOL0     H31453   5.610   4.407  10.749  0.4960  0.2273 -1.3346
  974MOL0     H31454   5.254   4.535  10.680 -0.3499 -0.4483  0.2072
  974MOL0     H31455   5.036   4.650  10.656 -2.0649  0.1059  1.0080
  974MOL0     H31456   4.826   4.599  10.739  1.2798  1.0542  0.5931
  974MOL0     H31457   4.835   4.736  10.631  2.4257 -0.9572 -0.7283
  974MOL0     H31458   4.620   4.755  10.707 -1.6255 -0.1597 -0.1693
  974MOL0     H31459   4.601   4.670  10.550 -0.4177  2.0376  0.9743
  974MOL0     H31460   4.584   4.452  10.691  0.6402  0.1549  1.3390
  974MOL0     H31461   4.445   4.572  10.698 -0.9177  1.8797  0.1283
  974MOL0     H31462   4.651   4.566  10.923  0.7078  2.7520 -0.4769
  974MOL0     H31463   4.511   4.662  10.895  2.2218  0.1297  0.8889
  974MOL0     H31464   4.362   4.477  10.942  0.1854 -0.3653  0.5756
  974MOL0     H31465   4.475   4.484  11.066 -0.0055 -1.0135  0.9335
  974MOL0     H31466   4.443   4.243  10.982 -1.0274  1.3746  0.7142
  974MOL0     H31467   4.539   4.294  10.830  0.0144  0.8896 -0.0103
  974MOL0     H31468   4.719   4.350  10.968  1.3101 -1.9561 -1.6177
  974MOL0     H31469   4.666   4.180  10.981 -1.0701 -0.1673 -0.2672
  974MOL0     H31470   4.608   4.368  11.212  0.4219 -1.0153  1.2624
  974MOL0     H31471   4.725   4.238  11.194  0.2303 -0.6540 -1.0786
  974MOL0     H31472   4.869   4.322  10.417 -3.1661  1.4848  3.6366
  974MOL0     H31473   5.081   4.225  10.401  0.2959 -1.2240  1.0379
  974MOL0     H31474   5.560   4.235  10.231 -0.9363  0.6384 -0.3294
  974MOL0     H31475   5.808   4.158  10.262  2.3002  0.2891  1.5056
  974MOL0     H31476   7.127   5.252  10.166 -0.9413  1.1437 -1.4566
  974MOL0     H31477   7.276   5.382  10.307  0.5724  0.3700 -0.4993
  974MOL0     H31478   7.443   5.615  10.500 -0.5270 -0.9458 -1.5662
  974MOL0     H31479   7.640   5.704  10.607 -0.9302 -2.2104 -1.8558
  974MOL0     H31480   7.715   5.829  10.791  4.1919 -3.0052  0.1250
  974MOL0     H31481   7.822   5.829  10.655 -3.7240  0.8253 -3.8178
  974MOL0     H31482   7.801   6.041  10.863  0.0902  2.2148 -2.8217
  974MOL0     H31483   7.933   6.020  10.741 -0.9738  1.2365  1.6599
  974MOL0     H31484   7.994   5.807  10.821 -1.5078  0.8291 -2.4348
  974MOL0     H31485   7.882   5.820  10.963  0.8321 -2.9296 -0.5351
  974MOL0     H31486   8.130   5.983  10.895  0.3455 -0.3993  0.1863
  974MOL0     H31487   8.090   5.886  11.047  0.1742 -0.3509 -0.4591
  974MOL0     H31488   7.950   6.273  11.139  0.5985 -0.2243  0.5875
  974MOL0     H31489   7.528   6.105  10.488 -1.2293  1.4427  2.2897
  974MOL0     H31490   7.338   6.029  10.373 -0.3708 -0.2149 -0.8968
  975MOL0     O31491   6.005   1.969   7.389  0.0231  0.0642 -0.3204
  975MOL0     C31492   6.039   2.084   7.409 -0.2826  0.8690 -0.3970
  975MOL0     O31493   5.970   2.186   7.457 -1.0873  0.0388  0.0569
  975MOL0     C31494   5.836   2.157   7.481 -0.0891  0.8596  0.8474
  975MOL0     C31495   5.781   2.115   7.600  0.1819  0.6484 -0.9146
  975MOL0     C31496   5.646   2.084   7.605  0.5196 -0.3906 -0.6659
  975MOL0     C31497   5.556   2.098   7.502 -0.1062  0.2537  0.6846
  975MOL0     O31498   5.429   2.072   7.525  0.1509 -0.0230 -0.2503
  975MOL0     C31499   5.330   2.083   7.424 -0.6146 -0.1436  0.2192
  975MOL0     C31500   5.199   2.096   7.490 -0.4271 -0.5535  0.2802
  975MOL0     C31501   5.091   2.120   7.387  0.0493 -0.2853  0.4197
  975MOL0     C31502   4.951   2.091   7.455 -0.0021  0.0833 -1.1069
  975MOL0     C31503   4.822   2.133   7.381 -0.7428 -0.3479  0.0237
  975MOL0     C31504   4.698   2.077   7.453 -0.2921 -0.0396 -0.7855
  975MOL0     C31505   4.573   2.143   7.392  0.0465 -0.8330 -0.4317
  975MOL0     C31506   4.446   2.125   7.476  0.1097 -0.4322  0.4534
  975MOL0     N31507   4.369   2.000   7.460 -0.8531 -0.0513  0.5967
  975MOL0     C31508   4.249   1.987   7.520 -0.1602  0.4263  0.4182
  975MOL0     C31509   4.228   1.862   7.528 -0.6583  0.0378  0.2484
  975MOL0     C31510   4.099   1.800   7.568  0.6645  0.4960  0.3701
  975MOL0     C31511   3.975   1.856   7.491 -1.1607 -0.5122 -0.7301
  975MOL0     C31512   3.985   1.827   7.343  0.5284  0.8260 -0.1054
  975MOL0     C31513   3.859   1.866   7.263 -0.2504 -0.2450  0.3872
  975MOL0     O31514   3.828   2.007   7.276 -0.1934  0.3995 -0.1283
  975MOL0     C31515   3.712   2.054   7.219 -0.1126  0.0790  0.1736
  975MOL0     C31516   3.664   2.173   7.280  0.0470  0.4766 -0.7721
  975MOL0     C31517   3.540   2.228   7.231 -0.0265  0.3316 -0.0071
  975MOL0     C31518   3.471   2.325   7.322 -0.4500 -0.7939 -0.2628
  975MOL0     C31519   3.476   2.177   7.121 -0.8469  0.1137 -0.2840
  975MOL0     C31520   3.340   2.220   7.066 -0.1172  0.4067  0.7080
  975MOL0     O31521   3.280   2.131   6.976 -0.2546 -0.6442  0.3652
  975MOL0     C31522   3.156   2.149   6.933 -1.0332  0.5299 -0.5999
  975MOL0     C31523   3.051   2.163   7.024  0.6460 -0.0588  0.0876
  975MOL0     C31524   2.917   2.167   6.991  0.1399  0.7633  0.3404
  975MOL0     C31525   2.881   2.134   6.869 -0.0418  0.5348 -0.1884
  975MOL0     O31526   2.758   2.115   6.823  0.0204 -0.1983  0.1765
  975MOL0     C31527   2.676   2.232   6.835  0.0230 -0.3997 -0.2408
  975MOL0     C31528   2.537   2.205   6.778 -0.0305 -0.6066  0.1941
  975MOL0     C31529   2.460   2.090   6.853  0.7074 -1.4291  0.2473
  975MOL0     C31530   2.384   2.143   6.983 -1.4273  0.0339  1.3795
  975MOL0     C31531   2.355   2.030   7.077  0.2763  0.3159 -0.1648
  975MOL0     C31532   2.241   1.933   7.037 -0.9138 -0.1511  0.4808
  975MOL0     C31533   2.240   1.810   7.125 -0.4386  0.6724  0.3713
  975MOL0     C31534   2.168   1.692   7.044 -0.0232 -0.2104  0.3458
  975MOL0    Cl31535   2.120   1.558   7.157 -0.1585  0.1758  0.0182
  975MOL0     C31536   2.984   2.102   6.775 -0.3812  0.7175  0.2877
  975MOL0     C31537   3.117   2.112   6.807 -0.2873 -0.6191  0.3678
  975MOL0     O31538   3.290   2.326   7.108  0.6200  0.3352  0.0317
  975MOL0     C31539   3.536   2.069   7.063 -0.2574 -0.6611  0.4281
  975MOL0     C31540   3.644   2.000   7.115  0.7875  0.7359 -0.2494
  975MOL0     N31541   4.337   1.792   7.480 -0.3684 -0.5310  0.0861
  975MOL0     N31542   4.424   1.876   7.451 -0.6119  0.6096  0.2560
  975MOL0     C31543   5.612   2.131   7.375 -0.6037 -0.6148 -0.4965
  975MOL0     C31544   5.745   2.172   7.373 -0.3025 -0.1214 -0.5586
  975MOL0     C31545   6.183   2.115   7.375  0.2186 -0.8716  0.3222
  975MOL0     C31546   6.218   2.236   7.321  0.1393  0.7189 -0.1570
  975MOL0     C31547   6.346   2.272   7.296 -0.0190 -0.2298 -0.8216
  975MOL0     C31548   6.451   2.180   7.325  0.3860 -0.8301 -0.5922
  975MOL0     O31549   6.580   2.200   7.283  0.3956  0.3264 -0.2302
  975MOL0     C31550   6.608   2.300   7.186 -0.3860  0.4478  0.2983
  975MOL0     C31551   6.723   2.275   7.097 -0.4550  0.7140 -0.8220
  975MOL0     C31552   6.740   2.384   6.991  0.6048  0.2075 -0.8636
  975MOL0     C31553   6.772   2.526   7.055  0.2692  0.4646 -0.1627
  975MOL0     C31554   6.805   2.634   6.968  0.1697 -0.6899 -0.1329
  975MOL0     C31555   6.828   2.737   6.902 -0.0250 -0.4134  0.0978
  975MOL0     C31556   6.423   2.051   7.368  0.7490  0.2505  0.1919
  975MOL0     C31557   6.287   2.019   7.389 -0.7210 -0.2132 -0.0975
  975MOL0     H31558   5.838   2.099   7.690 -1.4107 -2.2300 -0.2797
  975MOL0     H31559   5.604   2.057   7.701  0.0039  5.6224  1.2042
  975MOL0     H31560   5.353   2.170   7.362  0.3028  0.7488  1.7416
  975MOL0     H31561   5.329   1.994   7.361 -3.1407  1.1235 -1.7067
  975MOL0     H31562   5.181   1.996   7.529 -0.9062 -1.1204 -1.3557
  975MOL0     H31563   5.204   2.173   7.568  0.1339 -2.6400  2.4160
  975MOL0     H31564   5.070   2.223   7.355 -0.4133  0.2882  2.3927
  975MOL0     H31565   5.101   2.052   7.303 -1.3273 -0.0676  0.0551
  975MOL0     H31566   4.951   1.985   7.478 -0.4670 -0.1915 -2.2852
  975MOL0     H31567   4.954   2.134   7.555  0.0819 -2.0258 -0.1590
  975MOL0     H31568   4.827   2.242   7.390  3.3980 -0.4027  0.2472
  975MOL0     H31569   4.822   2.101   7.277 -0.7239 -4.7297  1.1644
  975MOL0     H31570   4.677   1.973   7.429 -0.8033 -0.1182 -0.0453
  975MOL0     H31571   4.711   2.095   7.560  3.1450 -0.8623 -0.9349
  975MOL0     H31572   4.586   2.251   7.400  2.0690 -1.1537  1.6117
  975MOL0     H31573   4.556   2.114   7.288 -0.4840 -5.6616  0.7522
  975MOL0     H31574   4.381   2.207   7.443 -2.1113 -1.4969  1.9755
  975MOL0     H31575   4.467   2.145   7.581 -1.0326  2.0117  0.2891
  975MOL0     H31576   4.177   2.063   7.548 -2.5083 -0.5721 -2.3427
  975MOL0     H31577   4.112   1.694   7.542 -0.7417  0.3844  0.0534
  975MOL0     H31578   4.076   1.826   7.672 -2.2664  2.5603 -0.6845
  975MOL0     H31579   3.960   1.962   7.517  1.8851 -0.3912  1.1518
  975MOL0     H31580   3.897   1.790   7.529  0.4430 -3.1766 -1.7678
  975MOL0     H31581   4.009   1.721   7.327  0.8511  1.2199 -2.5809
  975MOL0     H31582   4.070   1.878   7.297  0.5476  0.0999 -0.8973
  975MOL0     H31583   3.770   1.809   7.290  0.1609 -1.9743 -1.5674
  975MOL0     H31584   3.883   1.841   7.159 -1.9599  0.1951 -0.1356
  975MOL0     H31585   3.703   2.206   7.375  0.6531 -1.4480 -0.2986
  975MOL0     H31586   3.463   2.422   7.271  1.0707 -1.2949 -1.5260
  975MOL0     H31587   3.371   2.284   7.335 -0.3662 -2.2852 -3.3782
  975MOL0     H31588   3.520   2.336   7.419 -1.0654  0.2867 -0.0573
  975MOL0     H31589   3.077   2.174   7.129 -0.7795  2.1020  0.2828
  975MOL0     H31590   2.850   2.187   7.075  1.0392 -1.2827  1.6365
  975MOL0     H31591   2.668   2.254   6.942  1.2292  0.5802 -0.3305
  975MOL0     H31592   2.723   2.314   6.779 -1.3842 -0.4185 -1.4928
  975MOL0     H31593   2.485   2.301   6.777  2.1646  0.6855 -1.6089
  975MOL0     H31594   2.553   2.189   6.670  2.0967  0.9380  0.2041
  975MOL0     H31595   2.533   2.017   6.889  0.3174 -0.5632  3.0846
  975MOL0     H31596   2.389   2.032   6.794  1.9026 -1.2192 -1.4561
  975MOL0     H31597   2.450   2.214   7.033  0.6677 -1.4366  0.8423
  975MOL0     H31598   2.297   2.197   6.945 -0.4447 -0.9289 -2.7523
  975MOL0     H31599   2.316   2.076   7.168 -1.9974 -1.4289 -0.1635
  975MOL0     H31600   2.442   1.969   7.102 -0.6908 -0.7304  0.7640
  975MOL0     H31601   2.144   1.981   7.030 -0.6733  0.1141 -1.7061
  975MOL0     H31602   2.266   1.902   6.935 -1.4121 -0.1540  0.3617
  975MOL0     H31603   2.181   1.841   7.212 -2.0136  3.3456 -1.5291
  975MOL0     H31604   2.344   1.783   7.143  0.0302  2.5436  0.5720
  975MOL0     H31605   2.233   1.661   6.962 -1.2815  0.3436 -0.9126
  975MOL0     H31606   2.075   1.729   7.000 -1.8620 -0.7410  3.4812
  975MOL0     H31607   2.949   2.076   6.675 -0.0577  1.1780  0.0503
  975MOL0     H31608   3.198   2.086   6.739  0.3238  1.9764 -0.0240
  975MOL0     H31609   3.495   2.028   6.971  2.1644 -2.1578 -0.0773
  975MOL0     H31610   3.677   1.908   7.067 -2.2608  0.2393 -1.7068
  975MOL0     H31611   5.550   2.140   7.286 -1.1911 -1.8414 -0.2346
  975MOL0     H31612   5.795   2.192   7.279  4.3623 -2.4270  1.0897
  975MOL0     H31613   6.141   2.313   7.322 -2.5683 -1.6866  3.2284
  975MOL0     H31614   6.361   2.376   7.268 -0.9965 -0.0743 -0.7919
  975MOL0     H31615   6.530   2.315   7.111 -0.6020 -1.3383  0.1354
  975MOL0     H31616   6.643   2.388   7.241  4.1326 -0.8017 -0.1801
  975MOL0     H31617   6.709   2.182   7.041  1.4685  1.3947 -2.5579
  975MOL0     H31618   6.810   2.268   7.164 -3.2439 -0.4644  3.0126
  975MOL0     H31619   6.652   2.395   6.927  1.2001 -3.4591 -2.5706
  975MOL0     H31620   6.823   2.352   6.927  0.3670  0.7189 -1.4407
  975MOL0     H31621   6.863   2.522   7.115 -0.4184  0.6389  0.9087
  975MOL0     H31622   6.694   2.563   7.122 -0.2294  2.4400 -1.7032
  975MOL0     H31623   6.850   2.821   6.839 -1.6635 -0.4891 -0.6269
  975MOL0     H31624   6.502   1.977   7.372  3.6177  3.1266  0.6338
  975MOL0     H31625   6.262   1.929   7.444 -0.7208 -0.6883 -0.8527
  976MOL0     O31626   9.944   5.492  10.934 -0.5335 -0.2885 -0.5749
  976MOL0     C31627  10.027   5.525  10.845 -0.9669 -0.0112  1.0498
  976MOL0     O31628   9.992   5.515  10.710 -0.1317  0.2569  0.2922
  976MOL0     C31629   9.859   5.484  10.682  0.9425  0.2298 -0.2283
  976MOL0     C31630   9.757   5.585  10.712 -0.4514 -1.2527  0.1192
  976MOL0     C31631   9.629   5.560  10.677  0.2371 -0.1073 -0.3696
  976MOL0     C31632   9.589   5.439  10.620  0.2699 -0.1624  0.4904
  976MOL0     O31633   9.455   5.410  10.598 -0.3298 -0.5128 -0.3764
  976MOL0     C31634   9.396   5.496  10.501 -0.3682  0.0835 -0.2373
  976MOL0     C31635   9.329   5.410  10.396  0.3147 -0.4494  0.8808
  976MOL0     C31636   9.421   5.370  10.285  0.4067 -0.0465 -0.4808
  976MOL0     C31637   9.334   5.297  10.187  0.2667  0.3628  0.5360
  976MOL0     C31638   9.391   5.296  10.051 -0.4382  0.4252 -0.5360
  976MOL0     C31639   9.303   5.206   9.959  0.0955 -0.3195 -0.8129
  976MOL0     C31640   9.381   5.206   9.826  0.2491 -0.3360  0.3544
  976MOL0     C31641   9.310   5.114   9.727 -0.2340 -0.6628  0.2380
  976MOL0     N31642   9.192   5.190   9.671 -0.0965  0.1393 -0.4532
  976MOL0     C31643   9.056   5.172   9.708 -0.4533  0.3455  0.6161
  976MOL0     C31644   8.981   5.272   9.656 -0.1243  0.0530 -0.5334
  976MOL0     C31645   8.836   5.288   9.659 -0.5545  0.2501  0.2084
  976MOL0     C31646   8.756   5.257   9.532 -0.0392  0.2033 -1.0957
  976MOL0     C31647   8.768   5.110   9.492 -0.6455 -0.0781  0.5836
  976MOL0     C31648   8.677   5.082   9.372  0.1712  0.8640  0.2719
  976MOL0     O31649   8.543   5.044   9.416 -0.5266 -0.1006 -0.1180
  976MOL0     C31650   8.486   4.935   9.348 -0.8380  1.4023 -0.4314
  976MOL0     C31651   8.504   4.801   9.387 -0.0529 -0.1658 -0.5170
  976MOL0     C31652   8.447   4.692   9.312 -0.2653 -0.4069 -0.0597
  976MOL0     C31653   8.466   4.561   9.371  0.5943  0.3927 -0.7836
  976MOL0     C31654   8.377   4.721   9.194 -0.3218 -0.4447  0.1836
  976MOL0     C31655   8.316   4.623   9.105  0.1508 -0.4830  0.5856
  976MOL0     O31656   8.265   4.672   8.992 -0.7273  0.2661  0.6985
  976MOL0     C31657   8.178   4.588   8.918 -0.4113  0.1954 -0.0650
  976MOL0     C31658   8.044   4.614   8.919 -0.0050 -0.7192  0.7211
  976MOL0     C31659   7.945   4.537   8.853  1.1337 -0.1563 -0.6343
  976MOL0     C31660   7.983   4.438   8.764 -0.1433 -0.1393 -0.2261
  976MOL0     O31661   7.904   4.350   8.686  0.2899 -0.2422 -0.0847
  976MOL0     C31662   7.768   4.357   8.736 -0.1890  0.2420 -0.3097
  976MOL0     C31663   7.696   4.236   8.682  0.8139 -0.2851  0.8823
  976MOL0     C31664   7.540   4.241   8.701  0.3838 -0.8019  0.4925
  976MOL0     C31665   7.476   4.101   8.695 -0.8652 -0.1407  0.3319
  976MOL0     C31666   7.330   4.102   8.689 -0.1873 -0.1122  0.1989
  976MOL0     C31667   7.262   3.974   8.646 -0.1363 -0.1026  0.5409
  976MOL0     C31668   7.111   3.996   8.621 -0.5122  0.2197 -0.2017
  976MOL0     C31669   7.034   3.878   8.570  0.6159 -0.5985 -0.1327
  976MOL0    Cl31670   6.862   3.901   8.609  0.0334 -0.0348 -0.1870
  976MOL0     C31671   8.125   4.418   8.751  0.0815  0.7555  0.4661
  976MOL0     C31672   8.218   4.486   8.831 -1.2506 -0.5396  0.0015
  976MOL0     O31673   8.291   4.514   9.152  1.0899  0.4310  0.0297
  976MOL0     C31674   8.347   4.857   9.172 -0.2892  0.6730 -0.1066
  976MOL0     C31675   8.409   4.962   9.240 -0.1492 -0.6104  0.2222
  976MOL0     N31676   9.080   5.361   9.613  1.4058  0.2581 -0.1091
  976MOL0     N31677   9.193   5.314   9.616  0.2462 -0.2969 -0.5384
  976MOL0     C31678   9.684   5.348  10.575 -0.6598  0.6223 -0.4954
  976MOL0     C31679   9.822   5.361  10.607  0.8575 -0.7561 -0.7282
  976MOL0     C31680  10.168   5.565  10.887 -0.0333 -0.4639 -0.7576
  976MOL0     C31681  10.203   5.559  11.022  0.0671  0.7538  0.3104
  976MOL0     C31682  10.336   5.589  11.068  0.1473 -0.2574  0.9244
  976MOL0     C31683  10.425   5.616  10.969  0.0400 -0.7019 -0.1685
  976MOL0     O31684  10.557   5.662  10.996  0.2275 -0.2144  0.0181
  976MOL0     C31685  10.613   5.650  11.123  0.3702 -0.0899  0.5371
  976MOL0     C31686  10.579   5.776  11.214  0.0379 -0.2462  0.3991
  976MOL0     C31687  10.631   5.909  11.170 -0.5464 -0.2805 -1.1320
  976MOL0     C31688  10.574   5.940  11.027 -0.0303  0.6841  0.2159
  976MOL0     C31689  10.595   6.080  10.997 -0.7022  0.0072  0.1223
  976MOL0     C31690  10.612   6.201  10.975  0.4531  0.8244  0.3276
  976MOL0     C31691  10.395   5.616  10.838 -0.3863  0.0355 -0.4181
  976MOL0     C31692  10.269   5.583  10.795 -0.1686  0.0966 -0.9156
  976MOL0     H31693   9.794   5.665  10.776  0.8172 -3.0190  1.6990
  976MOL0     H31694   9.549   5.629  10.699  1.0527 -0.0057  2.6997
  976MOL0     H31695   9.326   5.564  10.550  0.5534 -0.3260  1.7457
  976MOL0     H31696   9.484   5.549  10.463  0.5025 -1.2380 -0.1331
  976MOL0     H31697   9.279   5.331  10.453  0.5457 -0.8662  0.5044
  976MOL0     H31698   9.248   5.469  10.351  0.6493 -0.9845 -0.4720
  976MOL0     H31699   9.456   5.459  10.231  0.5183  0.3168  0.1626
  976MOL0     H31700   9.502   5.302  10.314  0.5673  0.6112  0.7273
  976MOL0     H31701   9.314   5.196  10.225  2.7422  0.0469  1.1266
  976MOL0     H31702   9.235   5.341  10.172  0.9238  1.8262  0.3122
  976MOL0     H31703   9.398   5.400  10.020 -0.6914  1.3103  2.1408
  976MOL0     H31704   9.490   5.250  10.060 -0.1567  0.7867 -1.6588
  976MOL0     H31705   9.304   5.102   9.994  2.0742 -0.0596  0.0183
  976MOL0     H31706   9.201   5.241   9.939 -0.6093 -1.3877  0.7485
  976MOL0     H31707   9.380   5.303   9.778 -0.5732 -0.7969 -0.5794
  976MOL0     H31708   9.486   5.172   9.823 -0.0452 -1.2940  0.5410
  976MOL0     H31709   9.278   5.021   9.776 -1.3710 -1.2686 -1.5723
  976MOL0     H31710   9.383   5.097   9.647  0.1530  0.7750  0.2509
  976MOL0     H31711   9.014   5.081   9.752 -0.3773 -0.8452 -1.6270
  976MOL0     H31712   8.798   5.223   9.738  0.2534 -1.1926 -0.5615
  976MOL0     H31713   8.799   5.390   9.677  1.8385  0.8458  2.1501
  976MOL0     H31714   8.779   5.321   9.446  2.2419 -1.3398 -1.7443
  976MOL0     H31715   8.650   5.276   9.551  0.2066  0.6985 -0.1790
  976MOL0     H31716   8.737   5.040   9.570 -2.5767 -1.4476 -1.2919
  976MOL0     H31717   8.870   5.079   9.467 -1.2183 -1.6020  0.0316
  976MOL0     H31718   8.715   4.996   9.316 -1.1721  0.1248  0.4426
  976MOL0     H31719   8.670   5.157   9.294 -1.1673 -0.2765 -0.7669
  976MOL0     H31720   8.566   4.800   9.476 -2.0682  0.4031  0.9680
  976MOL0     H31721   8.540   4.497   9.321 -0.1710 -1.8189  0.7694
  976MOL0     H31722   8.483   4.579   9.478 -1.2516 -3.5393  0.3540
  976MOL0     H31723   8.376   4.499   9.372  1.6020 -1.1228 -0.1621
  976MOL0     H31724   8.004   4.696   8.979 -0.7904 -0.7445  0.2529
  976MOL0     H31725   7.844   4.574   8.867  2.2524  4.6580 -3.1285
  976MOL0     H31726   7.763   4.358   8.845 -1.8946  1.9802 -0.3505
  976MOL0     H31727   7.714   4.446   8.702 -3.2419 -0.9910  0.9217
  976MOL0     H31728   7.719   4.245   8.575  0.0821  1.3167  0.8432
  976MOL0     H31729   7.729   4.137   8.717 -1.1526 -1.4867 -0.4286
  976MOL0     H31730   7.495   4.314   8.634  2.0248 -0.6734 -0.5325
  976MOL0     H31731   7.518   4.283   8.799  0.0668 -0.1694  0.1495
  976MOL0     H31732   7.524   4.046   8.613 -0.7151  0.8962 -0.2924
  976MOL0     H31733   7.507   4.048   8.785  0.0715 -0.1862 -0.0098
  976MOL0     H31734   7.305   4.174   8.609  0.9121  1.3247  1.0982
  976MOL0     H31735   7.302   4.141   8.787  1.4032  2.1000 -0.1364
  976MOL0     H31736   7.307   3.935   8.555  0.4921  3.7901 -1.0209
  976MOL0     H31737   7.275   3.899   8.725 -0.5432 -1.7171 -0.8734
  976MOL0     H31738   7.088   4.082   8.557 -0.4835  0.4843  0.1368
  976MOL0     H31739   7.070   4.020   8.720  0.4078  0.3875  0.1574
  976MOL0     H31740   7.072   3.784   8.612 -1.0927 -1.9259 -1.4210
  976MOL0     H31741   7.047   3.863   8.463 -2.6040  0.2603 -0.7400
  976MOL0     H31742   8.166   4.344   8.683 -1.2419  1.6988 -1.4488
  976MOL0     H31743   8.324   4.475   8.808 -1.6983 -1.9386 -1.6190
  976MOL0     H31744   8.272   4.882   9.097  1.9387  1.1961 -2.3137
  976MOL0     H31745   8.378   5.063   9.214 -0.5216 -0.7473  0.1298
  976MOL0     H31746   9.653   5.254  10.530  2.4015 -0.1207 -1.2883
  976MOL0     H31747   9.902   5.288  10.596  1.6936 -0.0039  0.1777
  976MOL0     H31748  10.125   5.541  11.096  0.2306 -2.1774 -0.1103
  976MOL0     H31749  10.369   5.572  11.170  1.9481  1.7648  0.7646
  976MOL0     H31750  10.594   5.555  11.175 -2.3218 -0.6355 -1.2552
  976MOL0     H31751  10.721   5.640  11.111  0.1444 -1.7579 -0.4247
  976MOL0     H31752  10.606   5.761  11.319  0.7355  0.9875  0.4142
  976MOL0     H31753  10.470   5.783  11.224  0.0145 -0.3394  0.2155
  976MOL0     H31754  10.738   5.893  11.158 -1.0552 -2.9708 -3.1875
  976MOL0     H31755  10.622   5.987  11.246  0.7532 -1.0176 -0.1893
  976MOL0     H31756  10.470   5.907  11.024 -0.0159  0.5286  1.0597
  976MOL0     H31757  10.622   5.883  10.947 -2.6043 -2.2292  0.5707
  976MOL0     H31758  10.624   6.297  10.930  0.9958 -0.7304 -3.1763
  976MOL0     H31759  10.472   5.657  10.774 -0.7538 -2.4331 -2.6083
  976MOL0     H31760  10.244   5.576  10.689  2.4822  2.0025 -1.7642
  977MOL0     O31761   8.801   0.721   0.934  0.4147 -0.3637  0.6693
  977MOL0     C31762   8.836   0.813   0.861 -0.0460 -0.5890 -0.8802
  977MOL0     O31763   8.780   0.851   0.740 -0.5910  0.3091  0.1188
  977MOL0     C31764   8.646   0.836   0.730 -0.3903 -0.7137  0.5340
  977MOL0     C31765   8.597   0.723   0.660 -0.7119 -0.1212 -0.5633
  977MOL0     C31766   8.462   0.699   0.644  0.2132 -0.5075  0.2254
  977MOL0     C31767   8.374   0.797   0.692  0.2281 -0.6827  0.8254
  977MOL0     O31768   8.236   0.764   0.668 -0.1912  0.5279 -0.1146
  977MOL0     C31769   8.137   0.859   0.692  0.1776  0.1741 -0.8056
  977MOL0     C31770   7.992   0.796   0.667 -0.1579  0.3797  0.0990
  977MOL0     C31771   7.936   0.714   0.774 -0.6832 -0.7673 -0.1480
  977MOL0     C31772   7.808   0.648   0.736 -0.7522 -0.2468  0.5837
  977MOL0     C31773   7.768   0.515   0.812  1.0364  0.5099  0.0651
  977MOL0     C31774   7.787   0.528   0.963  0.1255 -0.0360  0.6287
  977MOL0     C31775   7.739   0.409   1.036  0.2529 -0.5358 -0.2281
  977MOL0     C31776   7.811   0.273   1.024  0.3714  0.0668 -0.7754
  977MOL0     N31777   7.936   0.262   1.089 -0.3607 -0.9733 -0.2386
  977MOL0     C31778   8.049   0.337   1.063  0.0219 -0.0851  0.2074
  977MOL0     C31779   8.132   0.298   1.159 -0.3591 -0.0420  0.1302
  977MOL0     C31780   8.279   0.350   1.158  0.1067  0.4190  0.1310
  977MOL0     C31781   8.346   0.367   1.029 -0.2730 -0.5021  0.1710
  977MOL0     C31782   8.481   0.434   1.044 -1.1634 -0.3752  0.4685
  977MOL0     C31783   8.553   0.452   0.906  0.5610  0.0652  1.3009
  977MOL0     O31784   8.603   0.323   0.873 -0.4859  0.8805  0.6012
  977MOL0     C31785   8.737   0.295   0.851  0.2866 -0.5704  0.5619
  977MOL0     C31786   8.831   0.393   0.811 -0.3819 -0.8764  0.4358
  977MOL0     C31787   8.971   0.368   0.794 -0.2464 -0.0252 -0.1150
  977MOL0     C31788   9.060   0.475   0.737  0.3351  0.3133  0.8878
  977MOL0     C31789   9.015   0.236   0.825  0.8860  0.1400  0.1758
  977MOL0     C31790   9.157   0.194   0.825 -0.3035 -0.2091  0.5715
  977MOL0     O31791   9.181   0.073   0.778  0.4944  0.1624  0.1044
  977MOL0     C31792   9.303   0.040   0.720  0.5145  0.5581  0.4007
  977MOL0     C31793   9.396   0.138   0.671  0.1866  0.2076  0.1959
  977MOL0     C31794   9.518   0.091   0.618 -0.4630 -0.2370  0.9548
  977MOL0     C31795   9.548  -0.046   0.603 -0.2243 -0.5828 -0.1267
  977MOL0     O31796   9.671  -0.078   0.550  0.4353  0.1061 -0.1436
  977MOL0     C31797   9.694  -0.200   0.477  0.4908 -0.5595 -0.1011
  977MOL0     C31798   9.628  -0.195   0.341 -0.4048  0.5979  0.8428
  977MOL0     C31799   9.699  -0.106   0.239 -0.0374  0.0694  0.1422
  977MOL0     C31800   9.656  -0.128   0.096  0.5065  0.2949  0.8773
  977MOL0     C31801   9.737  -0.021   0.008  0.0411  0.7978 -0.9276
  977MOL0     C31802   9.733  -0.050  -0.136  0.5170  0.4670  0.9020
  977MOL0     C31803   9.797   0.055  -0.225  0.2299  0.1561  0.3345
  977MOL0     C31804   9.682   0.153  -0.270 -0.0689 -0.5533 -0.6827
  977MOL0    Cl31805   9.659   0.276  -0.127 -0.3103 -0.3610  0.1960
  977MOL0     C31806   9.450  -0.141   0.653  0.5305 -0.4310 -0.6302
  977MOL0     C31807   9.327  -0.095   0.698  0.2145 -0.6526  0.2960
  977MOL0     O31808   9.243   0.272   0.871  0.8798  0.5711  0.6323
  977MOL0     C31809   8.917   0.138   0.862  0.3458 -0.9342  0.0396
  977MOL0     C31810   8.783   0.173   0.862  0.0556  0.2495 -0.1606
  977MOL0     N31811   8.074   0.204   1.243 -0.3497 -0.3097  0.9108
  977MOL0     N31812   7.955   0.190   1.207 -1.0423  0.9500  0.6134
  977MOL0     C31813   8.423   0.916   0.762 -0.3140  0.2722  0.3184
  977MOL0     C31814   8.559   0.935   0.777 -0.5944 -1.1356  0.6889
  977MOL0     C31815   8.955   0.887   0.910 -0.2577  0.1110  1.0060
  977MOL0     C31816   9.039   0.946   0.828  0.4411  0.1296  0.6348
  977MOL0     C31817   9.148   1.013   0.867  0.0959  0.5175  0.5653
  977MOL0     C31818   9.184   1.021   1.001  0.1854 -0.4814 -0.8014
  977MOL0     O31819   9.301   1.082   1.036  0.3060 -0.2763 -0.9230
  977MOL0     C31820   9.340   1.107   1.173  0.4704 -0.7436  0.2086
  977MOL0     C31821   9.444   1.212   1.171 -0.1345 -0.7432 -0.1883
  977MOL0     C31822   9.445   1.290   1.300  1.3463  0.4680  0.5874
  977MOL0     C31823   9.574   1.367   1.324 -0.7015 -0.4532  0.2787
  977MOL0     C31824   9.587   1.474   1.239 -0.3328 -0.1959  0.0715
  977MOL0     C31825   9.591   1.561   1.152  0.2245 -0.1751  0.1532
  977MOL0     C31826   9.101   0.955   1.091  0.1620 -0.1296 -0.1140
  977MOL0     C31827   8.988   0.893   1.045  0.2099  0.5679  0.8559
  977MOL0     H31828   8.669   0.652   0.620 -0.8875  0.3143 -1.6973
  977MOL0     H31829   8.425   0.612   0.591 -1.4330  1.7897 -2.7668
  977MOL0     H31830   8.147   0.909   0.789 -1.6098  0.2458 -0.6100
  977MOL0     H31831   8.137   0.942   0.621  0.4728  1.0759  0.2358
  977MOL0     H31832   7.922   0.874   0.633 -0.0205  0.3988 -0.1456
  977MOL0     H31833   8.007   0.736   0.576  0.7115 -0.0846  0.5379
  977MOL0     H31834   8.016   0.645   0.801 -0.1464  0.0706  0.4299
  977MOL0     H31835   7.912   0.781   0.856 -2.6482 -1.5514 -0.0044
  977MOL0     H31836   7.729   0.719   0.760  0.8220  0.5724  4.0691
  977MOL0     H31837   7.804   0.628   0.629 -0.4931  2.3295  0.0268
  977MOL0     H31838   7.668   0.488   0.779  2.0136 -1.9825 -1.1170
  977MOL0     H31839   7.829   0.437   0.766  1.4162  0.0832  1.2425
  977MOL0     H31840   7.895   0.532   0.981  0.2846 -1.2480  0.0711
  977MOL0     H31841   7.758   0.622   1.011  4.8738  0.6029  2.8276
  977MOL0     H31842   7.728   0.430   1.143  2.4846  1.5630 -0.3227
  977MOL0     H31843   7.634   0.400   1.009  0.8728 -0.0937 -3.0724
  977MOL0     H31844   7.830   0.259   0.917 -1.2964  0.8384 -1.2099
  977MOL0     H31845   7.752   0.191   1.064  0.6831  0.1299 -0.1735
  977MOL0     H31846   8.071   0.407   0.984 -0.3361 -0.1651  0.0368
  977MOL0     H31847   8.281   0.437   1.224  2.1180 -0.3689  1.2001
  977MOL0     H31848   8.340   0.272   1.205  0.8801  0.7554 -0.2856
  977MOL0     H31849   8.277   0.419   0.962 -0.1520 -2.0702 -1.2342
  977MOL0     H31850   8.365   0.267   0.988 -1.9565 -0.5666 -0.5233
  977MOL0     H31851   8.549   0.381   1.111 -0.6056  0.0105  0.2087
  977MOL0     H31852   8.454   0.530   1.088 -6.6892 -1.5325  0.3701
  977MOL0     H31853   8.631   0.528   0.915  1.9757 -1.4785  2.7861
  977MOL0     H31854   8.479   0.473   0.828  3.3274  3.4694 -0.7201
  977MOL0     H31855   8.799   0.494   0.785 -0.8148 -1.0756  0.1905
  977MOL0     H31856   9.006   0.548   0.677  2.5888  1.8804  0.6234
  977MOL0     H31857   9.109   0.543   0.807 -3.0594  3.9435  0.0551
  977MOL0     H31858   9.135   0.440   0.665 -2.4815 -0.1694 -2.0040
  977MOL0     H31859   9.379   0.245   0.663  0.8037  0.3885  1.1584
  977MOL0     H31860   9.596   0.156   0.578  1.1727  0.0212  4.1730
  977MOL0     H31861   9.802  -0.212   0.469  0.8378  1.0282  1.4638
  977MOL0     H31862   9.655  -0.279   0.543  2.8150 -0.1550  1.8926
  977MOL0     H31863   9.623  -0.295   0.297 -2.2714  1.8475 -2.0799
  977MOL0     H31864   9.527  -0.156   0.356 -1.9454 -1.7683 -2.2195
  977MOL0     H31865   9.806  -0.119   0.255  0.3707  1.9304 -0.8626
  977MOL0     H31866   9.669  -0.003   0.263 -0.8806 -0.5800  2.1382
  977MOL0     H31867   9.694  -0.223   0.057  2.0665  0.2365  2.3875
  977MOL0     H31868   9.548  -0.120   0.084  0.1636 -3.2037  0.5529
  977MOL0     H31869   9.841  -0.021   0.040  0.1271 -2.0665 -0.9718
  977MOL0     H31870   9.708   0.083   0.025  1.5568  1.0984 -0.0756
  977MOL0     H31871   9.794  -0.140  -0.150 -0.9209 -0.6205  1.3856
  977MOL0     H31872   9.633  -0.077  -0.169  1.4084 -1.6938 -0.1938
  977MOL0     H31873   9.846   0.014  -0.314  0.6976 -0.1319  0.7172
  977MOL0     H31874   9.867   0.116  -0.166 -1.2004  0.4918  1.7563
  977MOL0     H31875   9.594   0.095  -0.298 -0.3022 -1.0300  0.9113
  977MOL0     H31876   9.718   0.217  -0.351 -0.0154  1.7100  1.0199
  977MOL0     H31877   9.484  -0.244   0.659  2.3890  0.2472  1.9454
  977MOL0     H31878   9.244  -0.165   0.706 -0.7995  0.5832  1.3000
  977MOL0     H31879   8.940   0.035   0.890 -2.2658 -1.6066 -0.0012
  977MOL0     H31880   8.714   0.105   0.911  2.6879 -0.8439  2.2927
  977MOL0     H31881   8.355   0.990   0.803 -3.0118 -0.5176 -2.4291
  977MOL0     H31882   8.603   1.021   0.828 -1.3242 -0.3532  0.0247
  977MOL0     H31883   8.996   0.950   0.729  0.9331  3.4016  0.4733
  977MOL0     H31884   9.208   1.068   0.795 -1.4546  1.1288 -0.3169
  977MOL0     H31885   9.259   1.155   1.228  1.3670 -1.2715  2.0725
  977MOL0     H31886   9.360   1.008   1.215  0.8705 -1.5620 -1.7709
  977MOL0     H31887   9.435   1.281   1.086  0.5097 -1.0355 -0.4965
  977MOL0     H31888   9.543   1.166   1.166  0.3819  0.4525 -2.1859
  977MOL0     H31889   9.427   1.210   1.373 -2.1126  2.0581  1.6823
  977MOL0     H31890   9.367   1.363   1.321  0.5361 -0.4654  0.9108
  977MOL0     H31891   9.657   1.298   1.305 -0.4480 -0.2844  0.7309
  977MOL0     H31892   9.583   1.408   1.426  0.5521  1.7263 -0.6239
  977MOL0     H31893   9.616   1.642   1.086 -0.8436  0.1994  0.1850
  977MOL0     H31894   9.124   0.967   1.197  0.1994 -0.1871 -0.1161
  977MOL0     H31895   8.919   0.842   1.111  2.1730 -0.9693  1.8446
  978MOL0     O31896  10.537   0.365   8.977  0.2768 -0.5739 -0.4864
  978MOL0     C31897  10.611   0.456   8.937  0.0884 -1.1430 -0.0198
  978MOL0     O31898  10.590   0.591   8.966 -0.1057  0.2265 -0.4667
  978MOL0     C31899  10.475   0.649   9.018 -0.1189  0.0672 -1.0098
  978MOL0     C31900  10.481   0.781   9.067  0.0104 -0.7526 -0.1415
  978MOL0     C31901  10.372   0.855   9.107 -0.7871 -0.3797  0.3485
  978MOL0     C31902  10.249   0.799   9.103  0.1950  0.1780  0.3325
  978MOL0     O31903  10.142   0.865   9.144 -1.3922  0.2830 -0.6451
  978MOL0     C31904  10.008   0.804   9.146 -0.0660 -0.6176  0.2547
  978MOL0     C31905   9.905   0.898   9.219 -0.3073  0.0398 -0.0996
  978MOL0     C31906   9.819   0.956   9.105 -0.7058  0.0438 -0.6546
  978MOL0     C31907   9.708   0.859   9.068 -0.6562 -0.1808  0.4836
  978MOL0     C31908   9.614   0.903   8.965  0.7359  1.0894  1.7604
  978MOL0     C31909   9.497   0.805   8.933  0.3360 -0.5461 -0.5073
  978MOL0     C31910   9.540   0.663   8.936  0.4425  1.3555  0.1415
  978MOL0     C31911   9.444   0.565   8.869 -0.5577 -0.3700 -0.1449
  978MOL0     N31912   9.312   0.546   8.925  0.3010 -0.3327  0.0559
  978MOL0     C31913   9.191   0.602   8.884 -0.3086 -0.1433 -0.3549
  978MOL0     C31914   9.098   0.535   8.949  0.8444 -0.6794  0.1126
  978MOL0     C31915   8.954   0.560   8.942 -0.1587 -0.1027 -0.9167
  978MOL0     C31916   8.911   0.701   8.898  0.4637  0.5959  0.1904
  978MOL0     C31917   8.768   0.742   8.929 -0.0398  0.1323  0.2209
  978MOL0     C31918   8.751   0.781   9.077  0.3112 -0.2199 -0.0221
  978MOL0     O31919   8.613   0.792   9.116 -0.4970 -0.1614 -0.9531
  978MOL0     C31920   8.569   0.810   9.245 -0.2198 -0.3713  0.4502
  978MOL0     C31921   8.651   0.841   9.356 -0.1612 -0.3382 -0.6697
  978MOL0     C31922   8.587   0.863   9.478 -0.2936 -0.2440 -0.1806
  978MOL0     C31923   8.676   0.881   9.589  0.8242 -0.4289 -0.9110
  978MOL0     C31924   8.448   0.889   9.485 -0.4908  0.2544  0.7921
  978MOL0     C31925   8.379   0.974   9.586  0.1675  0.2769 -0.3915
  978MOL0     O31926   8.245   0.967   9.591 -0.5044 -0.2111  0.1936
  978MOL0     C31927   8.162   1.055   9.651  0.5518 -0.2586  0.0941
  978MOL0     C31928   8.190   1.170   9.718 -0.2833 -0.0743 -0.2591
  978MOL0     C31929   8.086   1.232   9.787  0.5546  0.2227 -0.0244
  978MOL0     C31930   7.955   1.184   9.792 -0.0344  0.7821  0.9483
  978MOL0     O31931   7.872   1.245   9.886  0.3625 -0.1472  0.0482
  978MOL0     C31932   7.745   1.178   9.902  0.4348 -0.2289 -0.1935
  978MOL0     C31933   7.671   1.235  10.022 -0.0946  0.2491 -0.2361
  978MOL0     C31934   7.575   1.140  10.080  0.1568 -0.4249  0.0967
  978MOL0     C31935   7.439   1.129   9.992  0.2922 -0.7688 -0.6965
  978MOL0     C31936   7.341   1.023  10.056  0.7215  0.0648 -0.8893
  978MOL0     C31937   7.202   1.008   9.979 -0.5437 -0.1302  0.0610
  978MOL0     C31938   7.107   0.915  10.043  0.4894 -0.5687  0.3135
  978MOL0     C31939   6.958   0.932  10.014 -0.1680 -0.9337 -0.1785
  978MOL0    Cl31940   6.907   1.078  10.108 -0.5469  0.2033  0.3376
  978MOL0     C31941   7.923   1.071   9.706  0.0804 -0.1873  0.2916
  978MOL0     C31942   8.031   1.008   9.645 -0.1126  0.3127  0.2448
  978MOL0     O31943   8.452   1.053   9.654 -0.0797  0.1919 -0.8589
  978MOL0     C31944   8.364   0.846   9.375 -0.5144  0.2774 -0.4915
  978MOL0     C31945   8.432   0.805   9.258  0.8957 -0.8971 -0.1469
  978MOL0     N31946   9.159   0.440   9.039  0.2543 -0.1842 -0.3253
  978MOL0     N31947   9.283   0.445   9.010 -0.0630  0.1284  0.2706
  978MOL0     C31948  10.237   0.669   9.055 -1.0944 -1.1788 -0.4645
  978MOL0     C31949  10.350   0.595   9.010  0.6995 -0.2586  0.5512
  978MOL0     C31950  10.749   0.430   8.905  0.4402  0.2685 -0.6912
  978MOL0     C31951  10.816   0.505   8.811 -0.0647  0.2154  0.2091
  978MOL0     C31952  10.935   0.462   8.759 -0.3417 -0.2156  0.8510
  978MOL0     C31953  11.001   0.346   8.804 -0.2895 -0.2345 -0.6752
  978MOL0     O31954  11.128   0.314   8.760 -0.1185  0.7157  0.1614
  978MOL0     C31955  11.177   0.177   8.772 -0.8292 -0.1866 -0.4388
  978MOL0     C31956  11.318   0.158   8.709  0.1078  0.7127  0.2719
  978MOL0     C31957  11.359   0.011   8.733  0.0163 -0.1861 -0.4100
  978MOL0     C31958  11.474  -0.039   8.649 -0.3551 -0.2727  0.8223
  978MOL0     C31959  11.594   0.045   8.679  0.3849 -0.3643 -0.6130
  978MOL0     C31960  11.688   0.117   8.714 -0.5224  0.4648 -0.4692
  978MOL0     C31961  10.929   0.270   8.901 -1.2813  0.0252  0.3106
  978MOL0     C31962  10.806   0.311   8.945 -0.2793 -0.2883  0.2496
  978MOL0     H31963  10.575   0.833   9.081 -1.2035  2.4648 -2.6626
  978MOL0     H31964  10.387   0.955   9.148  2.2219 -1.8778  3.3780
  978MOL0     H31965   9.971   0.797   9.043 -3.0825  0.2449  1.1680
  978MOL0     H31966  10.010   0.703   9.186 -1.0989 -0.1156  1.6638
  978MOL0     H31967   9.838   0.863   9.298  0.2806 -0.4567  0.1868
  978MOL0     H31968   9.966   0.984   9.247  0.2597  0.3199 -2.0426
  978MOL0     H31969   9.772   1.048   9.141  0.9545  1.6503 -2.3560
  978MOL0     H31970   9.876   0.979   9.015  3.6187  3.0250  2.4726
  978MOL0     H31971   9.763   0.767   9.046  1.7889  0.9088  1.7320
  978MOL0     H31972   9.646   0.837   9.156 -1.0843 -0.7267  0.0513
  978MOL0     H31973   9.573   1.004   8.972 -1.9072  0.3308 -0.5682
  978MOL0     H31974   9.671   0.896   8.872  0.4291  1.9446  1.4906
  978MOL0     H31975   9.423   0.834   9.008  0.6030  1.2697 -0.8917
  978MOL0     H31976   9.458   0.847   8.840  0.5538 -0.4379 -0.5508
  978MOL0     H31977   9.634   0.653   8.882 -0.3286  1.6160 -1.3065
  978MOL0     H31978   9.543   0.635   9.042 -0.3478  1.1556  0.1246
  978MOL0     H31979   9.497   0.470   8.864  2.5959  1.0622  2.4320
  978MOL0     H31980   9.416   0.605   8.771  0.8023  0.3961 -0.2451
  978MOL0     H31981   9.174   0.681   8.811  6.1464  2.1953  0.0665
  978MOL0     H31982   8.906   0.479   8.884 -0.0772 -0.5033 -0.4294
  978MOL0     H31983   8.926   0.552   9.047  2.5388 -3.7057 -0.2935
  978MOL0     H31984   8.926   0.708   8.789  0.6387  3.8914  0.3283
  978MOL0     H31985   8.979   0.777   8.937  0.0211  1.8736 -1.4100
  978MOL0     H31986   8.699   0.664   8.898 -1.4005  1.1462  0.6210
  978MOL0     H31987   8.749   0.831   8.868 -0.6770  0.5004  0.9374
  978MOL0     H31988   8.803   0.875   9.098 -0.8509  0.6339 -0.8099
  978MOL0     H31989   8.787   0.699   9.140 -2.1192 -0.8853  0.5973
  978MOL0     H31990   8.758   0.846   9.342 -0.2142  0.7029 -0.8285
  978MOL0     H31991   8.620   0.870   9.683  0.7979  1.4758 -0.6530
  978MOL0     H31992   8.773   0.831   9.593  1.2209  0.3679  2.0121
  978MOL0     H31993   8.697   0.989   9.594 -2.0065  0.1935  4.3821
  978MOL0     H31994   8.282   1.226   9.732 -1.2491  2.0159 -1.7071
  978MOL0     H31995   8.110   1.321   9.845 -0.5090 -0.0565  0.8808
  978MOL0     H31996   7.685   1.185   9.811  0.2468  0.0019 -0.0514
  978MOL0     H31997   7.772   1.076   9.931 -0.8579  0.0064  1.9888
  978MOL0     H31998   7.744   1.274  10.093  3.0172 -2.5883 -1.6005
  978MOL0     H31999   7.612   1.324   9.999 -0.9292 -0.8574 -2.7644
  978MOL0     H32000   7.555   1.171  10.183  2.3992 -1.9987  1.0780
  978MOL0     H32001   7.625   1.043  10.084 -0.7126 -1.0185 -2.0007
  978MOL0     H32002   7.398   1.230   9.981 -1.1059 -1.4042 -1.5329
  978MOL0     H32003   7.466   1.103   9.889 -2.6007 -1.1583 -1.4418
  978MOL0     H32004   7.314   1.060  10.156  2.0515 -0.7972 -0.1736
  978MOL0     H32005   7.391   0.927  10.078 -2.4790 -1.1220  2.3604
  978MOL0     H32006   7.159   1.108   9.968 -1.5388 -0.7249 -1.9098
  978MOL0     H32007   7.246   0.986   9.882  0.9279 -1.1004  0.9203
  978MOL0     H32008   7.123   0.945  10.147  0.9582 -0.5380  0.2362
  978MOL0     H32009   7.139   0.812  10.028 -2.1145 -1.5434  0.9916
  978MOL0     H32010   6.907   0.850  10.065  0.3194 -1.4430 -0.5148
  978MOL0     H32011   6.932   0.937   9.908  0.7406 -0.8040 -0.3977
  978MOL0     H32012   7.834   1.010   9.703  0.1649 -0.3279 -2.9341
  978MOL0     H32013   8.006   0.914   9.595  2.0342 -0.3254  0.2714
  978MOL0     H32014   8.257   0.862   9.380 -0.4671  0.4899 -0.0980
  978MOL0     H32015   8.366   0.771   9.179  2.3999 -2.0096 -0.9792
  978MOL0     H32016  10.142   0.617   9.051 -1.6169 -0.3031  0.3390
  978MOL0     H32017  10.328   0.496   8.972  1.5435 -0.1693 -0.2117
  978MOL0     H32018  10.779   0.600   8.775 -2.2555  0.1265  1.9988
  978MOL0     H32019  10.975   0.519   8.676 -0.1524 -1.6088 -0.0529
  978MOL0     H32020  11.186   0.149   8.877 -0.9569 -6.5960 -1.6934
  978MOL0     H32021  11.106   0.098   8.744 -0.6141 -1.1871  1.6520
  978MOL0     H32022  11.397   0.223   8.748 -0.6875  0.5858  2.1854
  978MOL0     H32023  11.329   0.176   8.601  2.3514 -2.9173 -0.3121
  978MOL0     H32024  11.278  -0.057   8.706  0.4448 -2.1355  2.7009
  978MOL0     H32025  11.390  -0.002   8.837  1.5969  2.4031 -0.4523
  978MOL0     H32026  11.442  -0.027   8.545  2.6202 -1.8373 -0.3965
  978MOL0     H32027  11.506  -0.139   8.682 -0.8258  0.0849  2.4095
  978MOL0     H32028  11.786   0.158   8.728  0.0714 -0.9436 -0.2501
  978MOL0     H32029  10.965   0.172   8.933 -1.5400  0.1250  0.9337
  978MOL0     H32030  10.750   0.240   9.006  0.8395 -1.6422 -0.2510
  979MOL0     O32031   3.038   6.815  10.996  0.3317  0.1246 -0.1932
  979MOL0     C32032   3.098   6.915  10.953  0.8798 -0.9587 -0.6767
  979MOL0     O32033   3.035   7.032  10.927 -0.3321 -0.6441 -0.0204
  979MOL0     C32034   2.894   7.041  10.944 -0.6106 -0.0076  0.4620
  979MOL0     C32035   2.823   7.003  11.056  0.3237  0.1021 -0.9392
  979MOL0     C32036   2.695   7.032  11.077  0.4287 -0.6820  0.4830
  979MOL0     C32037   2.624   7.097  10.978  0.9065 -0.2713 -0.1705
  979MOL0     O32038   2.499   7.134  11.018 -0.7357 -0.2415 -0.7379
  979MOL0     C32039   2.394   7.149  10.926 -0.6887  0.3588  0.5650
  979MOL0     C32040   2.263   7.170  11.011 -0.3253  0.0036  0.3691
  979MOL0     C32041   2.147   7.136  10.925  0.2091  0.0598 -0.1095
  979MOL0     C32042   2.026   7.215  10.975 -0.5454  0.2410 -0.0371
  979MOL0     C32043   1.899   7.184  10.904  0.3370  0.7829 -0.1185
  979MOL0     C32044   1.781   7.249  10.973 -0.3533 -0.1557 -0.8814
  979MOL0     C32045   1.649   7.200  10.907 -0.3103 -0.4237 -0.7274
  979MOL0     C32046   1.596   7.275  10.780  0.6701  0.2711  0.0388
  979MOL0     N32047   1.457   7.246  10.758  1.4101  0.3336 -0.1055
  979MOL0     C32048   1.359   7.309  10.823  0.5428 -0.2785  0.3734
  979MOL0     C32049   1.241   7.287  10.761 -0.3987  0.6487  0.4171
  979MOL0     C32050   1.105   7.344  10.791 -0.1194 -0.0287 -0.7381
  979MOL0     C32051   1.022   7.250  10.884 -0.2684  0.1866 -0.2689
  979MOL0     C32052   0.873   7.285  10.888 -0.0828 -0.0106 -1.0739
  979MOL0     C32053   0.797   7.229  11.006 -0.2049  0.8567 -0.5102
  979MOL0     O32054   0.682   7.313  11.029  0.6414 -0.3128  0.7188
  979MOL0     C32055   0.553   7.274  10.999  0.1334 -0.5706  0.8538
  979MOL0     C32056   0.456   7.334  11.077  0.3240  0.0493  0.0146
  979MOL0     C32057   0.322   7.324  11.050 -1.2582  1.1727 -0.4931
  979MOL0     C32058   0.239   7.385  11.157 -0.4374 -0.0291  0.2200
  979MOL0     C32059   0.278   7.247  10.939 -0.2062  0.4324  0.0621
  979MOL0     C32060   0.135   7.238  10.893  1.3855 -0.0752 -0.3872
  979MOL0     O32061   0.108   7.167  10.774 -0.0214  0.9763 -0.2925
  979MOL0     C32062  -0.015   7.138  10.737 -0.3874  0.7440  0.0972
  979MOL0     C32063  -0.062   7.198  10.616 -0.5357 -0.4375  0.8463
  979MOL0     C32064  -0.193   7.167  10.586  0.5109  0.7530  0.5712
  979MOL0     C32065  -0.279   7.086  10.657  0.3394 -1.2829 -0.9874
  979MOL0     O32066  -0.409   7.067  10.623  1.0241 -0.0204  0.4944
  979MOL0     C32067  -0.505   7.041  10.724 -0.3762 -0.0264  0.0576
  979MOL0     C32068  -0.640   7.066  10.665 -0.6682 -1.4361 -0.2176
  979MOL0     C32069  -0.750   7.066  10.768  1.2099 -0.3120 -0.7749
  979MOL0     C32070  -0.891   7.080  10.712  0.3758 -0.5163 -0.2634
  979MOL0     C32071  -1.000   7.033  10.812 -1.1259  0.2472 -0.1957
  979MOL0     C32072  -1.142   7.061  10.775 -0.0385 -1.0926 -0.8278
  979MOL0     C32073  -1.235   7.003  10.888 -0.4777  0.4024  0.0064
  979MOL0     C32074  -1.353   7.099  10.925  0.3314 -0.3522  0.0546
  979MOL0    Cl32075  -1.460   7.118  10.785 -0.0444  0.1588 -0.3029
  979MOL0     C32076  -0.231   7.025  10.774 -0.7468 -1.2619 -1.1939
  979MOL0     C32077  -0.099   7.060  10.816 -1.0204 -0.9289  0.3214
  979MOL0     O32078   0.048   7.304  10.956 -0.5299 -0.3304  0.3745
  979MOL0     C32079   0.377   7.178  10.863 -0.4165 -0.2009  0.0482
  979MOL0     C32080   0.511   7.195  10.888 -0.1872 -0.2241 -0.9293
  979MOL0     N32081   1.274   7.201  10.656  0.1655 -0.0157 -0.1461
  979MOL0     N32082   1.403   7.170  10.660 -0.6343  0.3256 -0.0298
  979MOL0     C32083   2.683   7.131  10.862 -0.8513  0.2908 -0.1669
  979MOL0     C32084   2.818   7.100  10.842 -0.3387 -0.7097  0.3736
  979MOL0     C32085   3.244   6.902  10.959 -0.2979  0.9344 -0.5592
  979MOL0     C32086   3.318   6.792  11.009  1.2937  0.7990 -0.3165
  979MOL0     C32087   3.452   6.784  11.014 -0.2447 -0.0283  0.6078
  979MOL0     C32088   3.527   6.896  10.984  0.8050 -0.1816  0.3670
  979MOL0     O32089   3.664   6.896  10.999  0.5865 -0.2258  0.4283
  979MOL0     C32090   3.754   7.004  10.964  0.8151 -0.3233 -0.1665
  979MOL0     C32091   3.798   7.011  10.820  0.4149  0.0850 -0.1718
  979MOL0     C32092   3.874   7.144  10.787 -0.3984 -0.1355 -0.3745
  979MOL0     C32093   3.922   7.140  10.642 -0.1442  0.0562  0.8234
  979MOL0     C32094   4.016   7.247  10.619 -0.5625 -1.1047  0.4201
  979MOL0     C32095   4.085   7.342  10.613 -1.0503  0.2163 -0.4945
  979MOL0     C32096   3.462   7.011  10.930 -0.1043 -0.3518  0.2787
  979MOL0     C32097   3.324   7.008  10.915 -0.3118  0.6519 -0.8209
  979MOL0     H32098   2.877   6.943  11.128 -0.0854 -0.7092 -1.2931
  979MOL0     H32099   2.641   7.006  11.167 -3.1651 -1.0568 -1.5533
  979MOL0     H32100   2.403   7.235  10.859 -2.1974  0.0039 -0.1475
  979MOL0     H32101   2.393   7.065  10.857 -0.1590  1.3169 -0.6512
  979MOL0     H32102   2.253   7.130  11.112 -1.6084 -2.7467 -0.7556
  979MOL0     H32103   2.262   7.279  11.020 -3.0465  0.0602  0.1674
  979MOL0     H32104   2.162   7.152  10.818  4.4163  0.0401  0.3268
  979MOL0     H32105   2.124   7.030  10.938  1.4197 -0.7606 -3.4967
  979MOL0     H32106   2.015   7.205  11.084  1.0092  3.0468  0.4618
  979MOL0     H32107   2.046   7.322  10.966  3.8432 -0.4742 -0.9517
  979MOL0     H32108   1.914   7.213  10.800  2.8090  0.4615  0.0737
  979MOL0     H32109   1.884   7.076  10.899 -2.9307  1.1864 -3.0482
  979MOL0     H32110   1.783   7.229  11.081  2.7570  2.2614 -0.3628
  979MOL0     H32111   1.786   7.356  10.951  3.9697 -0.5815 -3.0079
  979MOL0     H32112   1.670   7.094  10.887  1.4167 -0.1260 -0.6272
  979MOL0     H32113   1.570   7.208  10.983  2.2734  0.1740  2.1194
  979MOL0     H32114   1.652   7.261  10.687 -0.2265 -3.8913 -0.0447
  979MOL0     H32115   1.604   7.382  10.800 -1.5935  0.8173 -1.5672
  979MOL0     H32116   1.377   7.388  10.895 -0.7423  1.1689 -0.8068
  979MOL0     H32117   1.107   7.439  10.846  0.5417  0.5488 -1.7173
  979MOL0     H32118   1.053   7.363  10.696 -2.3011 -0.1556  0.3707
  979MOL0     H32119   1.057   7.252  10.988  0.1995 -2.6589 -0.2782
  979MOL0     H32120   1.025   7.149  10.842 -0.3267  0.3905 -0.7742
  979MOL0     H32121   0.827   7.254  10.794  1.9774 -0.5357 -1.9841
  979MOL0     H32122   0.870   7.394  10.891  0.5834  0.0097 -0.8386
  979MOL0     H32123   0.863   7.232  11.093 -0.6108 -0.1410 -0.1478
  979MOL0     H32124   0.760   7.129  10.981 -1.3010  0.2127  3.0668
  979MOL0     H32125   0.485   7.395  11.162  1.6156  3.5681 -2.6787
  979MOL0     H32126   0.169   7.308  11.189 -1.0113 -0.2916 -1.5216
  979MOL0     H32127   0.294   7.419  11.245  0.3093  0.2950 -0.3547
  979MOL0     H32128   0.191   7.482  11.139 -0.5983  0.0696  1.1424
  979MOL0     H32129   0.013   7.255  10.563 -3.2598  0.4662 -2.3977
  979MOL0     H32130  -0.235   7.207  10.494 -0.0960 -0.3717  0.3451
  979MOL0     H32131  -0.504   6.946  10.779  2.8567  0.2821  0.7189
  979MOL0     H32132  -0.489   7.117  10.800  2.4767 -0.2324 -0.2286
  979MOL0     H32133  -0.642   7.169  10.628 -3.0956 -0.9312  1.0863
  979MOL0     H32134  -0.667   6.999  10.583 -2.4249 -0.3289 -0.6076
  979MOL0     H32135  -0.725   7.149  10.835 -0.1197 -1.3737  1.1424
  979MOL0     H32136  -0.763   6.972  10.822 -0.6657  1.0594  1.3336
  979MOL0     H32137  -0.890   7.185  10.678  4.1643 -0.2344  0.3668
  979MOL0     H32138  -0.890   7.011  10.627  0.5689 -0.7457 -0.0727
  979MOL0     H32139  -0.994   7.079  10.911 -1.0452 -1.9832  0.9116
  979MOL0     H32140  -0.985   6.925  10.826  0.0044  0.5904  1.5544
  979MOL0     H32141  -1.141   7.171  10.773  0.1185 -1.0909 -0.6629
  979MOL0     H32142  -1.174   7.025  10.677 -1.0023  1.8327 -1.6967
  979MOL0     H32143  -1.184   6.989  10.983 -4.3984 -1.8570  2.0257
  979MOL0     H32144  -1.276   6.905  10.861  0.1865 -0.1285  0.8894
  979MOL0     H32145  -1.310   7.200  10.934 -0.0836 -0.1898  0.2184
  979MOL0     H32146  -1.407   7.065  11.014  1.4604 -3.2942 -0.2588
  979MOL0     H32147  -0.292   6.972  10.847 -0.1223  0.6067  0.7985
  979MOL0     H32148  -0.064   7.010  10.906  1.0952  0.5312  0.3852
  979MOL0     H32149   0.355   7.111  10.781 -1.9338  0.1282  0.1577
  979MOL0     H32150   0.574   7.132  10.826  1.0846 -2.6304  2.4968
  979MOL0     H32151   2.618   7.176  10.787 -1.9312 -1.4782 -0.3536
  979MOL0     H32152   2.865   7.122  10.747  1.7378  1.3419  1.7526
  979MOL0     H32153   3.260   6.704  11.037  0.3273  1.7461  0.7810
  979MOL0     H32154   3.493   6.684  11.029 -1.0845 -0.2539  1.4368
  979MOL0     H32155   3.700   7.092  11.000  0.3356  0.2968 -2.3035
  979MOL0     H32156   3.845   6.998  11.024  0.3516 -1.2755  0.4685
  979MOL0     H32157   3.715   6.991  10.752  1.6688  0.8261 -1.9972
  979MOL0     H32158   3.871   6.931  10.803 -0.2190 -0.5006 -0.1513
  979MOL0     H32159   3.953   7.145  10.862 -1.2493  0.5817  0.5289
  979MOL0     H32160   3.801   7.224  10.804 -2.0509 -1.7257  0.3161
  979MOL0     H32161   3.843   7.132  10.567 -2.4351  1.5615  2.9063
  979MOL0     H32162   3.986   7.052  10.629  0.8376  1.0235 -1.5010
  979MOL0     H32163   4.160   7.418  10.618 -0.7861 -0.1000  0.8665
  979MOL0     H32164   3.523   7.095  10.897  1.1784 -1.3668 -0.0280
  979MOL0     H32165   3.275   7.089  10.862  0.8496  1.2703 -0.9871
  980MOL0     O32166   7.953   7.408  10.531  0.0623  0.6349  0.2178
  980MOL0     C32167   7.973   7.305  10.591 -0.5112 -0.1628 -0.3171
  980MOL0     O32168   7.880   7.209  10.603  0.5362 -0.2963 -0.2181
  980MOL0     C32169   7.762   7.201  10.528 -0.2755  0.2433  0.4984
  980MOL0     C32170   7.748   7.252  10.394  1.7304  0.2079  0.2661
  980MOL0     C32171   7.607   7.252  10.344 -0.7085  0.0711  0.6508
  980MOL0     C32172   7.499   7.200  10.420  0.6680  0.2003 -0.1799
  980MOL0     O32173   7.368   7.211  10.387 -0.2069  0.2429 -0.6333
  980MOL0     C32174   7.334   7.185  10.262  0.0904 -0.3682 -0.0072
  980MOL0     C32175   7.192   7.229  10.259  0.1078 -0.5439  0.1242
  980MOL0     C32176   7.132   7.181  10.129 -0.3189  0.1688  0.4600
  980MOL0     C32177   6.991   7.239  10.105 -0.8891 -0.0353 -0.3124
  980MOL0     C32178   6.890   7.194  10.206 -0.1370  0.4148 -0.2463
  980MOL0     C32179   6.752   7.249  10.167  0.7106  0.4232 -0.0925
  980MOL0     C32180   6.639   7.212  10.267 -0.5579 -0.0191  0.9994
  980MOL0     C32181   6.500   7.237  10.214  0.4995 -0.2855  0.8112
  980MOL0     N32182   6.399   7.194  10.315  0.2636 -0.0456 -0.7257
  980MOL0     C32183   6.424   7.103  10.422 -0.4301 -0.3473  0.7225
  980MOL0     C32184   6.302   7.085  10.480 -0.1224  0.2395 -0.0332
  980MOL0     C32185   6.287   7.004  10.604  0.7745  0.2356  0.1573
  980MOL0     C32186   6.144   7.008  10.658 -0.1579 -0.3232  0.2801
  980MOL0     C32187   6.051   6.911  10.585  0.1825  0.1346 -0.9213
  980MOL0     C32188   5.921   6.907  10.671  0.7616  0.6957 -0.2373
  980MOL0     O32189   5.830   6.826  10.604  0.5610  0.1556 -0.1229
  980MOL0     C32190   5.706   6.812  10.655 -0.0217 -0.1419  0.7773
  980MOL0     C32191   5.666   6.843  10.783 -0.2742 -0.0073 -0.2178
  980MOL0     C32192   5.540   6.823  10.843  0.4996 -0.2538  0.5702
  980MOL0     C32193   5.520   6.856  10.991 -0.1812  0.1667  0.0840
  980MOL0     C32194   5.438   6.765  10.755  0.2800  0.0215  0.2277
  980MOL0     C32195   5.306   6.729  10.797 -0.2408 -0.2321  0.1962
  980MOL0     O32196   5.214   6.703  10.698  0.5507 -0.8479 -0.0455
  980MOL0     C32197   5.103   6.641  10.721 -0.1235  0.1830 -0.2627
  980MOL0     C32198   5.101   6.499  10.718  0.8255 -0.3783 -0.2145
  980MOL0     C32199   4.971   6.434  10.723  0.2965 -0.3042  0.8062
  980MOL0     C32200   4.848   6.509  10.728 -0.5507  0.0397 -0.3142
  980MOL0     O32201   4.721   6.472  10.719  0.4135  0.1109  0.0051
  980MOL0     C32202   4.686   6.344  10.794  0.5577  0.3162  0.0054
  980MOL0     C32203   4.540   6.310  10.779  0.0952  0.3236 -0.7513
  980MOL0     C32204   4.508   6.196  10.884  1.4724  0.4771 -0.4497
  980MOL0     C32205   4.360   6.144  10.867 -0.6802 -0.3463 -0.0696
  980MOL0     C32206   4.336   6.054  10.738 -0.6978  0.0565 -0.5387
  980MOL0     C32207   4.205   5.971  10.761 -1.0688 -0.1290 -1.0611
  980MOL0     C32208   4.186   5.882  10.635  0.7639 -0.5630  0.1579
  980MOL0     C32209   4.052   5.816  10.638  0.1476  0.7216  0.1643
  980MOL0    Cl32210   3.912   5.933  10.634 -0.4872 -0.1285  0.2587
  980MOL0     C32211   4.861   6.646  10.721  0.1108 -0.4701  1.2019
  980MOL0     C32212   4.983   6.715  10.721  0.0625  0.8743 -0.3441
  980MOL0     O32213   5.283   6.709  10.919 -0.4675  0.0858 -0.9316
  980MOL0     C32214   5.482   6.722  10.626  0.7455 -0.3137  0.5836
  980MOL0     C32215   5.607   6.746  10.575 -0.3041  0.6539  0.6889
  980MOL0     N32216   6.208   7.172  10.413  0.6060  0.4280 -1.1421
  980MOL0     N32217   6.264   7.231  10.309 -0.0559  0.6097 -0.4316
  980MOL0     C32218   7.529   7.158  10.549  0.2745  0.6653 -1.1475
  980MOL0     C32219   7.659   7.141  10.595  1.1560 -0.6850  0.2805
  980MOL0     C32220   8.117   7.288  10.633 -0.1341  0.7293  0.6916
  980MOL0     C32221   8.164   7.169  10.692  0.2614  0.4026  0.1630
  980MOL0     C32222   8.303   7.145  10.714  0.3061  0.4119  0.4066
  980MOL0     C32223   8.397   7.239  10.665 -0.5929  0.1981 -0.4943
  980MOL0     O32224   8.527   7.203  10.691 -0.1767 -1.0331  0.0851
  980MOL0     C32225   8.635   7.286  10.642 -0.3974 -0.6604  0.1729
  980MOL0     C32226   8.762   7.202  10.642 -0.4440  1.1024  0.0330
  980MOL0     C32227   8.761   7.102  10.525 -0.2157  0.2450  0.9295
  980MOL0     C32228   8.894   7.025  10.548  0.4876  0.3270  0.6845
  980MOL0     C32229   8.984   7.038  10.433 -0.7151  0.1642  0.2297
  980MOL0     C32230   9.064   7.067  10.347  0.9169  0.2346 -0.6184
  980MOL0     C32231   8.352   7.362  10.609 -0.7269  0.1529  0.0587
  980MOL0     C32232   8.214   7.378  10.591 -0.0032 -0.3102  0.0577
  980MOL0     H32233   7.827   7.305  10.342  1.8192  0.1067  0.2972
  980MOL0     H32234   7.587   7.300  10.249  2.5896 -1.9569 -1.2500
  980MOL0     H32235   7.386   7.242  10.185 -0.2791  1.1776  0.8493
  980MOL0     H32236   7.349   7.078  10.243 -0.0242 -0.5246  0.7344
  980MOL0     H32237   7.147   7.188  10.349 -2.3448  1.6731  0.0233
  980MOL0     H32238   7.192   7.338  10.264  0.8911 -0.5974  3.6141
  980MOL0     H32239   7.197   7.215  10.048 -2.8144  0.1624 -1.6534
  980MOL0     H32240   7.111   7.074  10.129  0.3248 -0.0421 -2.5993
  980MOL0     H32241   6.991   7.348  10.096  0.0835 -0.1456 -2.5594
  980MOL0     H32242   6.952   7.200  10.010  0.0365  1.8039 -1.5330
  980MOL0     H32243   6.896   7.089  10.233 -0.5064 -0.0201 -1.7311
  980MOL0     H32244   6.915   7.251  10.296  1.2278 -1.6395  0.7540
  980MOL0     H32245   6.754   7.358  10.157  2.2414  0.4780  0.5921
  980MOL0     H32246   6.732   7.194  10.074 -1.0404  1.0089 -0.0976
  980MOL0     H32247   6.656   7.107  10.291 -1.4161 -0.4207 -0.0475
  980MOL0     H32248   6.656   7.263  10.362  0.8859  2.1997 -0.3278
  980MOL0     H32249   6.478   7.180  10.124 -0.4072 -0.2144  0.9867
  980MOL0     H32250   6.489   7.345  10.200  1.4059 -0.2126  0.5762
  980MOL0     H32251   6.524   7.078  10.456  0.7531  1.4886 -1.1865
  980MOL0     H32252   6.310   6.898  10.587  0.7555  0.3709 -0.7896
  980MOL0     H32253   6.356   7.048  10.677  2.8023 -0.5956 -1.1710
  980MOL0     H32254   6.114   7.112  10.644  0.5005 -0.3347 -1.4623
  980MOL0     H32255   6.155   6.983  10.764  1.3615  1.5444  0.6060
  980MOL0     H32256   6.105   6.816  10.576  2.2495  0.5816  3.7552
  980MOL0     H32257   6.027   6.941  10.483  1.0799  0.7181 -0.9710
  980MOL0     H32258   5.898   7.009  10.704  1.1488  0.2646  1.4292
  980MOL0     H32259   5.938   6.863  10.769 -2.8081  2.0999  1.1899
  980MOL0     H32260   5.738   6.888  10.851  1.0794 -2.3298 -0.0501
  980MOL0     H32261   5.524   6.772  11.060 -0.2711  0.5910  0.6160
  980MOL0     H32262   5.604   6.922  11.016 -0.2733  0.2684  0.1227
  980MOL0     H32263   5.421   6.901  11.003  0.3105  1.6913 -1.1609
  980MOL0     H32264   5.193   6.443  10.720  0.1378 -1.6057  2.9094
  980MOL0     H32265   4.970   6.327  10.703  1.1697 -0.3318  0.8872
  980MOL0     H32266   4.744   6.262  10.750  0.6547  0.7368 -0.6665
  980MOL0     H32267   4.711   6.347  10.900  0.0523  2.0235  0.1071
  980MOL0     H32268   4.474   6.396  10.793 -1.1191 -0.3831 -1.8371
  980MOL0     H32269   4.529   6.266  10.679 -0.5934  1.0509 -1.0132
  980MOL0     H32270   4.509   6.234  10.987 -0.9830 -3.7694  1.4197
  980MOL0     H32271   4.572   6.108  10.869  0.2485 -0.5561  0.1069
  980MOL0     H32272   4.346   6.075  10.951 -0.1242  0.3741  0.6320
  980MOL0     H32273   4.286   6.224  10.860  1.5056  1.8042  0.0150
  980MOL0     H32274   4.425   5.991  10.728  2.7930  4.0093  2.2012
  980MOL0     H32275   4.324   6.122  10.653 -0.1096  0.4977 -0.2765
  980MOL0     H32276   4.208   5.915  10.855  0.2784  1.3010 -0.2130
  980MOL0     H32277   4.127   6.046  10.774 -1.2212 -0.5562  0.8162
  980MOL0     H32278   4.264   5.805  10.628 -1.2156 -2.5570 -2.4775
  980MOL0     H32279   4.192   5.926  10.535  1.8679  0.8039  0.8071
  980MOL0     H32280   4.045   5.756  10.730 -1.3160  2.6413  1.3770
  980MOL0     H32281   4.043   5.751  10.550  1.0916 -1.6368  1.7047
  980MOL0     H32282   4.774   6.710  10.708 -1.7677 -3.2372 -0.9594
  980MOL0     H32283   4.984   6.823  10.724 -1.8323  0.9246 -0.4787
  980MOL0     H32284   5.399   6.673  10.574 -0.5915 -2.0052  3.9600
  980MOL0     H32285   5.641   6.724  10.474  1.5130  1.3038  1.1119
  980MOL0     H32286   7.453   7.111  10.611  0.7326 -0.3029 -1.2913
  980MOL0     H32287   7.679   7.109  10.697  2.3550 -0.4739  0.1250
  980MOL0     H32288   8.089   7.099  10.727  1.1636  0.5456  2.6322
  980MOL0     H32289   8.342   7.062  10.772  0.5441  1.9601  2.6273
  980MOL0     H32290   8.616   7.316  10.538  0.6129  0.3439  0.2511
  980MOL0     H32291   8.651   7.373  10.707  3.3214 -2.5408  2.1395
  980MOL0     H32292   8.760   7.150  10.738 -4.5309  3.1245  1.2723
  980MOL0     H32293   8.838   7.278  10.622 -0.2024  0.6992 -0.6106
  980MOL0     H32294   8.758   7.168  10.437 -1.0375 -1.5466 -0.4379
  980MOL0     H32295   8.678   7.032  10.530  1.7857 -2.2519  1.2127
  980MOL0     H32296   8.859   6.922  10.564 -0.9703  0.5671 -0.6723
  980MOL0     H32297   8.949   7.062  10.635  3.1125 -0.0383 -0.7381
  980MOL0     H32298   9.124   7.095  10.262 -0.5734 -2.4432 -2.7281
  980MOL0     H32299   8.403   7.444  10.560 -2.3874 -0.5812 -3.2406
  980MOL0     H32300   8.176   7.465  10.537  1.4485 -0.2333 -0.8999
  981MOL0     O32301   5.950   7.138   4.475 -0.3607  0.5535  0.3691
  981MOL0     C32302   5.968   7.242   4.408 -0.4282 -0.5245  0.0419
  981MOL0     O32303   5.880   7.295   4.316  0.0829  0.7435 -0.4418
  981MOL0     C32304   5.787   7.219   4.247  0.8150 -0.6032 -0.3726
  981MOL0     C32305   5.772   7.259   4.118  0.2192 -0.1227  0.1300
  981MOL0     C32306   5.708   7.174   4.029  0.3199 -0.4349 -0.3479
  981MOL0     C32307   5.621   7.077   4.083 -0.0065  0.6709  0.7445
  981MOL0     O32308   5.534   7.022   3.989 -0.6160 -0.1516  0.0827
  981MOL0     C32309   5.443   6.925   4.033  1.1435  0.3021 -0.2943
  981MOL0     C32310   5.378   6.863   3.907 -0.4042 -0.3453 -0.4799
  981MOL0     C32311   5.254   6.770   3.923  0.6464  0.1883  0.7695
  981MOL0     C32312   5.147   6.827   4.009  0.4178  0.1960 -0.1954
  981MOL0     C32313   5.011   6.741   4.002 -1.0182  0.1737  0.3051
  981MOL0     C32314   5.027   6.592   3.987 -0.3213  0.2100 -0.3754
  981MOL0     C32315   4.897   6.518   4.015  0.0506 -0.8544 -0.0525
  981MOL0     C32316   4.784   6.552   3.919 -0.7537  0.1983  0.3058
  981MOL0     N32317   4.658   6.472   3.949  0.0205 -0.7339  0.0295
  981MOL0     C32318   4.593   6.458   4.070  0.1817 -0.8552  0.4142
  981MOL0     C32319   4.471   6.401   4.041 -0.0546 -0.3541  0.4042
  981MOL0     C32320   4.374   6.354   4.133 -0.0844  0.2123 -0.6528
  981MOL0     C32321   4.419   6.217   4.196  0.1702  0.4683 -0.0324
  981MOL0     C32322   4.448   6.106   4.091  0.0327 -0.6178 -0.0185
  981MOL0     C32323   4.462   5.967   4.159  0.4094 -0.1324  1.1487
  981MOL0     O32324   4.556   5.977   4.270  0.5037  0.1428  0.0192
  981MOL0     C32325   4.685   6.017   4.254  0.1559  0.7043 -0.0072
  981MOL0     C32326   4.747   6.086   4.352 -0.4131 -1.2449 -0.8373
  981MOL0     C32327   4.870   6.151   4.331 -0.2770 -0.5193 -0.2695
  981MOL0     C32328   4.919   6.248   4.443 -0.3141 -1.1754 -0.3338
  981MOL0     C32329   4.937   6.134   4.206  1.0995 -0.0217  0.4481
  981MOL0     C32330   5.062   6.203   4.158 -0.1791  0.0058  0.4300
  981MOL0     O32331   5.145   6.125   4.093 -0.2223  0.6716 -0.4471
  981MOL0     C32332   5.267   6.168   4.043 -0.3971  0.8545  0.2836
  981MOL0     C32333   5.311   6.114   3.919 -0.7062 -0.0192 -0.7571
  981MOL0     C32334   5.425   6.165   3.852  0.3723 -1.1265  0.3588
  981MOL0     C32335   5.516   6.252   3.915  0.4560 -0.0473  0.0876
  981MOL0     O32336   5.638   6.303   3.858  0.0810  0.0550  0.1373
  981MOL0     C32337   5.654   6.259   3.725 -0.4654 -0.4935  0.4594
  981MOL0     C32338   5.773   6.344   3.660 -0.0732  1.5200  0.1709
  981MOL0     C32339   5.796   6.319   3.515  0.6175 -0.4880 -0.0945
  981MOL0     C32340   5.686   6.352   3.418 -0.3649  0.0574 -0.2837
  981MOL0     C32341   5.746   6.375   3.273 -0.2907 -0.8385 -0.8842
  981MOL0     C32342   5.802   6.244   3.212  1.1017 -0.7803 -0.2887
  981MOL0     C32343   5.872   6.261   3.075 -0.5296 -0.3740 -0.0935
  981MOL0     C32344   5.784   6.341   2.972 -0.4330 -0.2065 -0.8224
  981MOL0    Cl32345   5.859   6.358   2.814 -0.1304 -0.5481  0.2700
  981MOL0     C32346   5.465   6.308   4.033  0.2230  0.5306  0.8446
  981MOL0     C32347   5.355   6.262   4.094  0.5841 -0.3918  0.9272
  981MOL0     O32348   5.085   6.321   4.178 -0.0873 -0.0963  0.9726
  981MOL0     C32349   4.887   6.040   4.116 -0.1032 -0.4733 -0.0960
  981MOL0     C32350   4.760   5.984   4.143 -0.9878 -1.1606 -0.1145
  981MOL0     N32351   4.464   6.379   3.902 -0.4113 -0.2771 -0.4531
  981MOL0     N32352   4.571   6.431   3.850  0.4045  0.7298  0.6269
  981MOL0     C32353   5.625   7.041   4.228  0.3522  0.3657  0.0768
  981MOL0     C32354   5.708   7.118   4.310  0.7059 -0.2288 -0.1217
  981MOL0     C32355   6.103   7.307   4.416  0.3707  0.1545 -0.5079
  981MOL0     C32356   6.129   7.428   4.357 -0.5769  0.4553  1.0261
  981MOL0     C32357   6.248   7.497   4.380  1.2378 -0.8550  0.1046
  981MOL0     C32358   6.340   7.444   4.466 -0.3934 -0.4789 -0.0467
  981MOL0     O32359   6.443   7.534   4.486 -0.1717  0.3626 -0.8606
  981MOL0     C32360   6.563   7.471   4.528  1.3234 -0.3889 -0.4199
  981MOL0     C32361   6.676   7.575   4.548 -0.1491 -0.7550 -0.2000
  981MOL0     C32362   6.708   7.645   4.418 -0.3362  0.2812  0.4080
  981MOL0     C32363   6.814   7.561   4.331 -0.2237  1.3307  0.3300
  981MOL0     C32364   6.948   7.562   4.386 -0.1641 -1.1284 -0.0448
  981MOL0     C32365   7.062   7.576   4.431 -0.2590 -0.1662  0.0123
  981MOL0     C32366   6.316   7.326   4.526  0.9464  0.0262 -0.0310
  981MOL0     C32367   6.198   7.257   4.505  0.1408 -0.3374  0.4069
  981MOL0     H32368   5.836   7.333   4.070 -0.3766 -0.3399 -1.0272
  981MOL0     H32369   5.716   7.178   3.921  1.5168 -0.5632 -0.2727
  981MOL0     H32370   5.484   6.842   4.090  0.2601 -0.5000 -0.8071
  981MOL0     H32371   5.372   6.967   4.106 -1.6688 -3.9580 -0.1914
  981MOL0     H32372   5.353   6.941   3.834 -0.6099  0.0689  0.0263
  981MOL0     H32373   5.460   6.810   3.857  0.5900 -0.0311  0.7571
  981MOL0     H32374   5.214   6.755   3.822  2.1563  1.9410 -0.1443
  981MOL0     H32375   5.274   6.672   3.967 -4.1361 -1.2949  0.2304
  981MOL0     H32376   5.184   6.822   4.112 -5.2558 -0.6572  2.1309
  981MOL0     H32377   5.136   6.931   3.979  1.0838  0.7264  1.2938
  981MOL0     H32378   4.941   6.769   4.081  0.9516 -2.9133  3.3828
  981MOL0     H32379   4.961   6.771   3.909 -0.4305 -1.2917 -0.5108
  981MOL0     H32380   5.082   6.565   3.896 -0.8829 -3.5631  0.2625
  981MOL0     H32381   5.095   6.554   4.065 -4.1313  0.3644  3.3676
  981MOL0     H32382   4.908   6.409   4.007 -0.2338 -0.9870  1.2127
  981MOL0     H32383   4.858   6.533   4.116 -0.6655 -1.2751 -0.2575
  981MOL0     H32384   4.815   6.531   3.816 -0.4760  1.6923  0.0494
  981MOL0     H32385   4.766   6.658   3.939  1.5959  0.2002  2.8812
  981MOL0     H32386   4.643   6.479   4.165  0.7547  0.3243 -0.1263
  981MOL0     H32387   4.378   6.422   4.219  2.8439  2.3985 -2.3097
  981MOL0     H32388   4.271   6.357   4.097 -1.3700 -0.4895  2.6091
  981MOL0     H32389   4.333   6.180   4.253  1.0487 -1.3779  0.1698
  981MOL0     H32390   4.510   6.235   4.254  0.0516  1.6099 -0.1806
  981MOL0     H32391   4.547   6.128   4.050  0.7145  0.4956  2.0651
  981MOL0     H32392   4.372   6.102   4.012  1.0184 -2.5872 -0.9343
  981MOL0     H32393   4.495   5.891   4.087  0.2163 -1.9319  2.8488
  981MOL0     H32394   4.360   5.946   4.194 -0.6822  3.1011  0.2367
  981MOL0     H32395   4.706   6.092   4.452  2.0436 -0.8584  0.1982
  981MOL0     H32396   5.020   6.274   4.409 -0.8969 -0.3773 -1.5130
  981MOL0     H32397   4.868   6.344   4.445  1.0380 -0.4394  0.5883
  981MOL0     H32398   4.912   6.205   4.543 -0.3528 -3.1951 -1.1479
  981MOL0     H32399   5.254   6.032   3.876  0.6894 -0.7159 -1.3599
  981MOL0     H32400   5.444   6.117   3.757  2.4017 -3.0794  1.6514
  981MOL0     H32401   5.672   6.151   3.715  0.2810 -0.1570 -3.3954
  981MOL0     H32402   5.563   6.275   3.667  0.3764  4.0767  0.0601
  981MOL0     H32403   5.771   6.452   3.675  1.2302  1.8384 -1.6062
  981MOL0     H32404   5.859   6.319   3.723 -1.4441 -0.0250  1.5393
  981MOL0     H32405   5.831   6.216   3.510 -0.2587 -0.7994  0.0875
  981MOL0     H32406   5.883   6.380   3.486  0.3082 -1.1851 -2.8285
  981MOL0     H32407   5.606   6.280   3.434 -0.3557  0.1363  0.1290
  981MOL0     H32408   5.642   6.445   3.455  0.8775  0.4923  0.1662
  981MOL0     H32409   5.835   6.436   3.286  0.7177 -2.5163  0.6240
  981MOL0     H32410   5.671   6.414   3.204  1.5433 -1.8991 -3.6147
  981MOL0     H32411   5.881   6.200   3.274  0.2329 -1.1424  0.5910
  981MOL0     H32412   5.721   6.171   3.208  0.7953 -0.4067 -2.7332
  981MOL0     H32413   5.883   6.159   3.038 -1.2858 -0.2672 -0.6435
  981MOL0     H32414   5.975   6.298   3.080  0.7705 -3.7691  1.1433
  981MOL0     H32415   5.756   6.439   3.012  3.0611 -0.6790  3.7080
  981MOL0     H32416   5.689   6.288   2.959 -0.8534  0.4369 -0.4426
  981MOL0     H32417   5.503   6.406   4.062  4.4091 -0.5466 -0.2593
  981MOL0     H32418   5.335   6.315   4.187  0.0480  2.3226 -0.6201
  981MOL0     H32419   4.930   6.013   4.021 -0.8563 -0.2491 -0.5048
  981MOL0     H32420   4.720   5.920   4.064 -0.3671  0.0832 -1.4786
  981MOL0     H32421   5.552   6.969   4.266  0.7505 -0.5132 -0.8003
  981MOL0     H32422   5.719   7.114   4.418  0.1058  1.0062  0.0009
  981MOL0     H32423   6.053   7.471   4.292 -1.0266 -2.1354 -0.2965
  981MOL0     H32424   6.255   7.595   4.335 -0.0801 -0.9500 -0.3575
  981MOL0     H32425   6.557   7.437   4.632  3.3876 -1.2061 -0.5306
  981MOL0     H32426   6.587   7.384   4.467 -1.1345 -0.1460 -1.8829
  981MOL0     H32427   6.761   7.522   4.593  0.0337  0.3392  0.7736
  981MOL0     H32428   6.639   7.654   4.613  1.5429 -0.6516  0.6956
  981MOL0     H32429   6.750   7.744   4.442 -0.6646  0.7198 -0.7351
  981MOL0     H32430   6.616   7.662   4.361  1.0143 -1.2720 -2.4608
  981MOL0     H32431   6.822   7.597   4.228  0.4877 -0.3972 -0.2657
  981MOL0     H32432   6.796   7.453   4.327  0.8202  0.9877  2.9568
  981MOL0     H32433   7.159   7.570   4.477 -0.4454 -0.0594  0.4218
  981MOL0     H32434   6.397   7.293   4.590  0.4585  0.3319  0.7643
  981MOL0     H32435   6.184   7.167   4.564  0.0087 -0.8458 -0.3783
  982MOL0     O32436   3.745   5.622  10.231 -0.0493  0.1056  0.3161
  982MOL0     C32437   3.804   5.578  10.330  0.0569 -1.0166 -0.0956
  982MOL0     O32438   3.743   5.543  10.451 -0.3401  0.2318  0.3102
  982MOL0     C32439   3.611   5.570  10.474 -0.2763  0.0419  0.8255
  982MOL0     C32440   3.581   5.694  10.531 -0.5224 -0.0854  0.2063
  982MOL0     C32441   3.450   5.740  10.549 -0.6373  0.6200  0.1391
  982MOL0     C32442   3.344   5.670  10.509 -0.0801  0.9560 -0.1258
  982MOL0     O32443   3.221   5.725  10.529  0.3825 -0.0438 -0.0888
  982MOL0     C32444   3.097   5.650  10.528 -0.2865 -0.3149  0.2090
  982MOL0     C32445   2.976   5.745  10.518  0.4615 -0.6175  0.1314
  982MOL0     C32446   2.842   5.674  10.535  0.1061 -0.4055  0.1296
  982MOL0     C32447   2.727   5.774  10.504  0.2036  0.0446  0.8950
  982MOL0     C32448   2.606   5.706  10.441  0.0283 -0.6297  0.8460
  982MOL0     C32449   2.515   5.628  10.530 -0.4163 -0.4020  0.4830
  982MOL0     C32450   2.380   5.621  10.462  0.6367  1.0622 -0.4288
  982MOL0     C32451   2.276   5.512  10.524 -0.5806  0.4739 -0.0013
  982MOL0     N32452   2.140   5.529  10.481 -0.5313 -0.2580  0.4769
  982MOL0     C32453   2.086   5.480  10.360 -0.7470 -0.2375 -0.6803
  982MOL0     C32454   1.953   5.505  10.379 -1.1193  0.3436 -0.0597
  982MOL0     C32455   1.855   5.455  10.273  0.2345  0.5076  0.5091
  982MOL0     C32456   1.828   5.299  10.289 -0.1346 -0.3421 -0.3163
  982MOL0     C32457   1.739   5.249  10.175  0.0197  0.0195  0.4801
  982MOL0     C32458   1.592   5.210  10.222 -0.3438  0.5778  0.2634
  982MOL0     O32459   1.517   5.330  10.245 -1.0727 -0.0786 -0.5456
  982MOL0     C32460   1.395   5.315  10.312 -0.4671  0.2973  0.2072
  982MOL0     C32461   1.337   5.432  10.356  0.4361  0.1062  0.8143
  982MOL0     C32462   1.212   5.437  10.423 -0.9226  0.0137 -0.3235
  982MOL0     C32463   1.174   5.563  10.492 -0.0576  0.4316 -0.8503
  982MOL0     C32464   1.145   5.316  10.451 -0.4392  0.5799 -0.0787
  982MOL0     C32465   1.015   5.315  10.542  0.7328 -0.4404 -0.0178
  982MOL0     O32466   0.971   5.186  10.571 -0.5049  0.0455  0.3755
  982MOL0     C32467   0.852   5.166  10.630  1.2315  0.4579 -0.1826
  982MOL0     C32468   0.853   5.147  10.774  0.0282 -0.4651  0.5270
  982MOL0     C32469   0.745   5.121  10.850  0.4770 -0.5643 -0.2596
  982MOL0     C32470   0.616   5.130  10.787  0.5091  1.0202  0.0593
  982MOL0     O32471   0.506   5.115  10.871 -0.6749 -0.3933  0.0134
  982MOL0     C32472   0.380   5.080  10.813  0.1151  0.2512 -0.2181
  982MOL0     C32473   0.279   5.049  10.918 -0.1579  0.2805 -0.1200
  982MOL0     C32474   0.185   4.941  10.872  0.3438 -0.6065  0.1701
  982MOL0     C32475   0.103   4.978  10.747  0.2761 -0.4248  0.0059
  982MOL0     C32476   0.022   4.864  10.691 -0.6979 -0.6081  0.9235
  982MOL0     C32477  -0.125   4.874  10.737  0.3427 -0.4959 -0.6000
  982MOL0     C32478  -0.196   4.771  10.659 -0.1371 -0.1766  0.1464
  982MOL0     C32479  -0.340   4.777  10.692 -0.6574  0.6636 -0.1481
  982MOL0    Cl32480  -0.411   4.626  10.622  0.1385 -0.0367  0.5894
  982MOL0     C32481   0.613   5.136  10.640 -0.3242 -0.4571 -0.4611
  982MOL0     C32482   0.730   5.165  10.563 -0.4982  1.1968 -0.5196
  982MOL0     O32483   0.949   5.420  10.567 -0.8005 -0.8753 -0.2148
  982MOL0     C32484   1.196   5.203  10.385  0.3982  0.1052 -0.1272
  982MOL0     C32485   1.318   5.200  10.317 -0.1708 -0.1748 -0.1250
  982MOL0     N32486   1.930   5.563  10.506  0.6413  0.0143  0.5488
  982MOL0     N32487   2.044   5.574  10.562  0.0594 -0.4833 -0.8889
  982MOL0     C32488   3.366   5.543  10.451  0.0031 -0.1685  0.5746
  982MOL0     C32489   3.494   5.488  10.444 -0.7768 -0.0396 -0.2537
  982MOL0     C32490   3.956   5.558  10.323  0.7769 -0.9615 -0.6148
  982MOL0     C32491   4.032   5.580  10.206 -0.7177 -0.1148 -0.1850
  982MOL0     C32492   4.174   5.553  10.209  0.3748  0.8002  0.0169
  982MOL0     C32493   4.232   5.491  10.323 -0.4171  0.4262 -0.9158
  982MOL0     O32494   4.357   5.439  10.305  0.0523 -0.4514  0.2041
  982MOL0     C32495   4.444   5.455  10.421 -0.7753  0.4574  0.2428
  982MOL0     C32496   4.577   5.412  10.366 -0.3804 -0.0537 -0.6329
  982MOL0     C32497   4.679   5.397  10.474 -0.6661 -0.5718 -0.0514
  982MOL0     C32498   4.820   5.365  10.432  0.1542 -0.4851 -0.5666
  982MOL0     C32499   4.870   5.483  10.365 -1.1810 -1.2601 -0.2452
  982MOL0     C32500   4.907   5.599  10.338 -0.6083 -0.4400  0.5918
  982MOL0     C32501   4.150   5.466  10.440 -0.1752 -1.0377  0.3384
  982MOL0     C32502   4.010   5.498  10.439 -0.1092  0.0790  0.2474
  982MOL0     H32503   3.665   5.760  10.555 -1.9476  2.3772 -1.1724
  982MOL0     H32504   3.437   5.834  10.601 -1.0028 -1.0162  3.2537
  982MOL0     H32505   3.093   5.587  10.439 -3.8011  0.8054 -0.6118
  982MOL0     H32506   3.096   5.592  10.620  1.4963  2.0394  1.8449
  982MOL0     H32507   2.986   5.829  10.588  2.5741  1.4302 -2.4059
  982MOL0     H32508   2.974   5.795  10.421 -3.0579  2.2718  1.4340
  982MOL0     H32509   2.840   5.589  10.466  0.9472  1.5069 -2.4155
  982MOL0     H32510   2.838   5.630  10.635 -1.6217 -0.5856  0.0075
  982MOL0     H32511   2.703   5.841  10.587 -0.5410 -0.1021  0.8017
  982MOL0     H32512   2.771   5.841  10.429  1.8802 -3.9245 -1.9626
  982MOL0     H32513   2.540   5.788  10.412 -1.5047 -2.2355 -0.4402
  982MOL0     H32514   2.637   5.647  10.354 -1.6557  0.3309 -0.4678
  982MOL0     H32515   2.567   5.532  10.536 -1.5507 -1.1911 -1.4642
  982MOL0     H32516   2.516   5.682  10.625  2.0682  1.6480 -0.5644
  982MOL0     H32517   2.332   5.718  10.478 -0.7882  0.4488 -0.7836
  982MOL0     H32518   2.385   5.606  10.353 -2.7326  0.6840 -0.6238
  982MOL0     H32519   2.277   5.527  10.632  0.5071 -1.1464  0.2504
  982MOL0     H32520   2.315   5.410  10.507 -0.1820  0.4788  0.8397
  982MOL0     H32521   2.145   5.434  10.280  3.3613  0.5367  1.5944
  982MOL0     H32522   1.764   5.517  10.270 -1.3533 -1.7316  0.4504
  982MOL0     H32523   1.899   5.459  10.173  0.4372  1.2924  0.6184
  982MOL0     H32524   1.770   5.269  10.377 -2.8715  0.3429 -1.7726
  982MOL0     H32525   1.925   5.248  10.299 -0.2103 -0.2547  1.0970
  982MOL0     H32526   1.787   5.161  10.132  0.4376  0.0418  0.8964
  982MOL0     H32527   1.737   5.321  10.093 -0.8679 -1.9877 -1.3535
  982MOL0     H32528   1.589   5.150  10.313 -1.2920 -0.3064 -0.3292
  982MOL0     H32529   1.538   5.148  10.150  0.9050  2.6503 -2.6504
  982MOL0     H32530   1.388   5.527  10.341 -2.4653  1.3816 -2.5261
  982MOL0     H32531   1.078   5.594  10.451 -0.8881 -0.3476  0.4305
  982MOL0     H32532   1.155   5.547  10.599 -4.2465 -1.3656 -1.6760
  982MOL0     H32533   1.253   5.638  10.484  0.6227 -0.4390 -2.8723
  982MOL0     H32534   0.944   5.154  10.834  1.1354 -0.3142 -1.1043
  982MOL0     H32535   0.755   5.119  10.958 -0.5562 -3.2369 -0.1525
  982MOL0     H32536   0.350   5.168  10.756  0.4853  0.3654 -0.2405
  982MOL0     H32537   0.393   4.992  10.750  0.6679 -1.5801  2.3083
  982MOL0     H32538   0.334   5.004  11.002 -0.9410  0.8940  0.7508
  982MOL0     H32539   0.218   5.133  10.952 -1.2531 -0.1593 -0.9383
  982MOL0     H32540   0.106   4.919  10.946  0.1447  1.2027  0.5331
  982MOL0     H32541   0.241   4.851  10.844  0.4130 -0.2029 -1.0045
  982MOL0     H32542   0.044   5.064  10.781  1.2589  0.1607  0.2665
  982MOL0     H32543   0.164   5.006  10.662  2.9561 -0.7598  1.6978
  982MOL0     H32544   0.073   4.772  10.719 -1.1423 -0.6521  1.6320
  982MOL0     H32545   0.026   4.869  10.582  1.9228  0.8173  1.0201
  982MOL0     H32546  -0.126   4.857  10.845 -1.5729  0.0968 -0.4834
  982MOL0     H32547  -0.171   4.973  10.736  0.2264 -0.4308  2.4700
  982MOL0     H32548  -0.157   4.674  10.692  0.6364  0.0194 -0.1916
  982MOL0     H32549  -0.179   4.788  10.553  0.8715 -1.5097  0.0652
  982MOL0     H32550  -0.374   4.877  10.663  2.5793  2.3779  1.3817
  982MOL0     H32551  -0.349   4.772  10.801  1.4553 -1.9777  0.0047
  982MOL0     H32552   0.519   5.124  10.586 -1.2194 -2.5358  1.4209
  982MOL0     H32553   0.732   5.183  10.456  0.2349  2.6818 -0.2866
  982MOL0     H32554   1.134   5.115  10.399  2.7086 -1.0980  4.2066
  982MOL0     H32555   1.361   5.111  10.272 -0.3781 -0.5104  0.3447
  982MOL0     H32556   3.284   5.484  10.411 -0.5201 -0.3477  1.8516
  982MOL0     H32557   3.512   5.389  10.402 -2.7923 -0.7210  0.3519
  982MOL0     H32558   3.977   5.610  10.117 -1.9728 -2.1959 -0.1845
  982MOL0     H32559   4.226   5.565  10.115  0.0362  0.1680 -0.2628
  982MOL0     H32560   4.449   5.559  10.453  1.9505  1.3753 -2.6055
  982MOL0     H32561   4.404   5.382  10.492 -0.4958  0.6883  0.6397
  982MOL0     H32562   4.624   5.478  10.292 -2.3934 -2.2030 -4.1363
  982MOL0     H32563   4.556   5.322  10.306 -0.3951 -1.5342  1.4793
  982MOL0     H32564   4.632   5.308  10.516  0.8143 -1.8296 -0.9266
  982MOL0     H32565   4.679   5.480  10.545 -0.5645  0.4916 -1.2534
  982MOL0     H32566   4.811   5.286  10.357  0.1190  2.8621 -4.4104
  982MOL0     H32567   4.873   5.328  10.520 -1.7472  2.2782  1.9302
  982MOL0     H32568   4.951   5.693  10.314 -0.7982 -0.9147 -1.9253
  982MOL0     H32569   4.191   5.424  10.531  0.8496 -0.6380  0.0693
  982MOL0     H32570   3.954   5.485  10.531 -3.8043  2.2589 -1.4726
  983MOL0     O32571   4.184   7.009   3.697  0.3787  0.8936  0.3801
  983MOL0     C32572   4.169   7.086   3.603  0.1678  0.3340 -1.0521
  983MOL0     O32573   4.071   7.091   3.519  0.5159 -0.0617  0.7881
  983MOL0     C32574   3.979   6.993   3.512 -0.7587  0.2387  0.0285
  983MOL0     C32575   3.905   6.973   3.626  0.0545  0.6839 -0.2319
  983MOL0     C32576   3.818   6.862   3.633  0.5903 -0.6722 -0.1932
  983MOL0     C32577   3.796   6.787   3.507  0.6004 -0.7595 -0.8866
  983MOL0     O32578   3.696   6.704   3.498  0.1161  0.8541 -0.5103
  983MOL0     C32579   3.580   6.738   3.569  1.1889 -0.2506 -0.0382
  983MOL0     C32580   3.467   6.661   3.499  0.7030 -0.1571 -0.1441
  983MOL0     C32581   3.327   6.723   3.546 -0.2382  0.7640 -0.1383
  983MOL0     C32582   3.212   6.641   3.492  0.4497 -0.9107 -0.6588
  983MOL0     C32583   3.087   6.724   3.499  0.6181 -0.9742 -0.9448
  983MOL0     C32584   2.959   6.642   3.464 -1.1268 -0.3869 -1.0757
  983MOL0     C32585   2.847   6.702   3.550  0.2088  0.3108  0.1152
  983MOL0     C32586   2.766   6.815   3.487  0.1559  0.3013  0.5780
  983MOL0     N32587   2.672   6.752   3.397  0.0044  0.4910  0.1701
  983MOL0     C32588   2.696   6.730   3.266 -0.0910  0.1851 -0.3788
  983MOL0     C32589   2.579   6.680   3.221 -0.5427 -0.5753  0.9743
  983MOL0     C32590   2.568   6.633   3.080  0.2917 -0.8271 -0.5901
  983MOL0     C32591   2.425   6.653   3.026  0.1023  0.2107 -0.5775
  983MOL0     C32592   2.398   6.803   2.987  0.4969 -0.2036 -0.0723
  983MOL0     C32593   2.255   6.833   2.971  0.0350  0.4184  0.6433
  983MOL0     O32594   2.226   6.973   2.937  0.8197  0.1359 -0.1140
  983MOL0     C32595   2.105   7.002   2.877  0.1735 -0.4819 -0.2680
  983MOL0     C32596   1.989   6.920   2.891 -0.3686 -0.1463 -0.5959
  983MOL0     C32597   1.863   6.968   2.865 -0.1030 -0.5798 -0.5623
  983MOL0     C32598   1.746   6.869   2.866 -0.2786 -0.0604 -0.6956
  983MOL0     C32599   1.846   7.097   2.810 -0.0112 -0.2712 -1.2266
  983MOL0     C32600   1.716   7.168   2.794  0.3302  0.0771  0.0894
  983MOL0     O32601   1.701   7.262   2.688 -0.4046 -0.5114 -0.0848
  983MOL0     C32602   1.584   7.331   2.675 -0.1994  0.2474 -0.6258
  983MOL0     C32603   1.490   7.271   2.597  0.1706 -0.2051 -0.2143
  983MOL0     C32604   1.372   7.339   2.576  0.3329 -0.2552  0.3129
  983MOL0     C32605   1.345   7.464   2.633  0.4795 -0.5920  0.2051
  983MOL0     O32606   1.226   7.522   2.602 -0.0149 -0.0052 -0.1301
  983MOL0     C32607   1.162   7.604   2.704  0.6000  0.1204  1.0457
  983MOL0     C32608   1.010   7.559   2.697 -0.6844 -0.8126 -0.4585
  983MOL0     C32609   0.942   7.632   2.813  0.1970 -0.2067  0.2046
  983MOL0     C32610   0.788   7.598   2.817  0.6584 -0.2275  0.1544
  983MOL0     C32611   0.710   7.714   2.897 -0.1135 -0.4524 -1.1326
  983MOL0     C32612   0.739   7.717   3.050  0.8309  0.5616 -0.2136
  983MOL0     C32613   0.651   7.817   3.135  0.0464  0.0851  1.2133
  983MOL0     C32614   0.583   7.752   3.253 -0.1988 -0.1195 -0.1661
  983MOL0    Cl32615   0.477   7.626   3.195  0.3036 -0.0397 -0.0360
  983MOL0     C32616   1.444   7.526   2.715 -0.6210 -0.2217  0.2108
  983MOL0     C32617   1.568   7.457   2.734  0.4436  0.4217  0.1932
  983MOL0     O32618   1.633   7.158   2.886 -0.2716  0.4126  0.1437
  983MOL0     C32619   1.958   7.173   2.783 -0.5081 -0.0100 -0.3805
  983MOL0     C32620   2.086   7.131   2.810  0.7443  0.1039  0.6003
  983MOL0     N32621   2.492   6.660   3.335  0.1901 -0.3377 -0.2682
  983MOL0     N32622   2.556   6.699   3.438 -0.1008  0.6261 -0.2340
  983MOL0     C32623   3.870   6.819   3.395 -0.1464 -0.1395  0.7350
  983MOL0     C32624   3.969   6.918   3.392  0.9180 -0.0769 -0.0063
  983MOL0     C32625   4.281   7.175   3.580  0.2484 -0.4925 -0.4724
  983MOL0     C32626   4.271   7.274   3.484  0.4636 -0.1920 -0.2858
  983MOL0     C32627   4.370   7.368   3.453 -0.0700  0.3076  0.6156
  983MOL0     C32628   4.490   7.359   3.523  0.7610 -0.2429  0.3061
  983MOL0     O32629   4.587   7.451   3.486 -0.1255  0.3135 -0.1800
  983MOL0     C32630   4.723   7.442   3.539  0.5094 -0.0114  0.5199
  983MOL0     C32631   4.822   7.537   3.466  0.5301  0.1575  0.1105
  983MOL0     C32632   4.974   7.503   3.516  0.5526  0.4794  0.7482
  983MOL0     C32633   5.032   7.628   3.566 -0.2810  0.2702  0.3750
  983MOL0     C32634   5.002   7.670   3.696 -0.5340 -0.1623  0.4447
  983MOL0     C32635   4.975   7.705   3.807 -0.7383 -0.4320 -0.2139
  983MOL0     C32636   4.492   7.266   3.631 -0.6480  0.9972  0.8830
  983MOL0     C32637   4.392   7.180   3.661 -0.0473 -0.3627  0.0393
  983MOL0     H32638   3.914   7.024   3.722 -0.9474 -2.4872  1.7237
  983MOL0     H32639   3.759   6.846   3.723 -0.1988 -0.3039 -0.6331
  983MOL0     H32640   3.585   6.700   3.671 -2.9931 -1.5107 -0.1143
  983MOL0     H32641   3.557   6.845   3.571  0.5338 -0.3802 -0.2993
  983MOL0     H32642   3.478   6.672   3.391  1.1024  1.6662  0.0409
  983MOL0     H32643   3.468   6.556   3.531  0.1780 -0.4423 -1.0258
  983MOL0     H32644   3.332   6.711   3.655  1.6621  3.0838  0.1319
  983MOL0     H32645   3.318   6.829   3.522  1.8729  1.7949  2.9423
  983MOL0     H32646   3.225   6.618   3.386 -1.6982  1.5771 -1.5790
  983MOL0     H32647   3.196   6.545   3.541 -3.0767 -1.1864 -2.0467
  983MOL0     H32648   3.093   6.766   3.599  2.3561  0.0481 -1.4476
  983MOL0     H32649   3.088   6.808   3.429 -2.4435 -0.3433 -0.3816
  983MOL0     H32650   2.935   6.639   3.357 -0.4225  0.2721 -1.2638
  983MOL0     H32651   2.975   6.539   3.497  1.3060 -0.8511 -3.3042
  983MOL0     H32652   2.787   6.616   3.580  0.0863  0.2728 -0.2410
  983MOL0     H32653   2.881   6.750   3.642 -0.8140 -0.4983  0.9439
  983MOL0     H32654   2.832   6.884   3.435 -2.7845  1.4137 -1.9873
  983MOL0     H32655   2.697   6.866   3.555  0.3338  2.1561 -0.5810
  983MOL0     H32656   2.786   6.735   3.204  0.6789  0.4695  0.7291
  983MOL0     H32657   2.632   6.694   3.016 -0.1696  0.3027 -0.0063
  983MOL0     H32658   2.605   6.531   3.073  0.9855 -0.7925  1.7592
  983MOL0     H32659   2.345   6.618   3.093  2.0620 -1.2853  1.1581
  983MOL0     H32660   2.419   6.599   2.931  1.6055 -0.3089 -0.4185
  983MOL0     H32661   2.447   6.819   2.890 -1.5656  1.4597 -0.9318
  983MOL0     H32662   2.433   6.879   3.058 -2.8669  1.9187 -0.4643
  983MOL0     H32663   2.202   6.817   3.065  0.2870 -0.0194  0.7115
  983MOL0     H32664   2.232   6.766   2.887  1.9819 -1.7535  1.7289
  983MOL0     H32665   1.995   6.819   2.929  1.7319 -0.7161 -2.2039
  983MOL0     H32666   1.657   6.916   2.824 -0.3133  2.3433  1.7542
  983MOL0     H32667   1.781   6.792   2.797  4.7304  1.0586  0.1334
  983MOL0     H32668   1.729   6.833   2.968  1.5138 -1.7679 -0.9529
  983MOL0     H32669   1.495   7.177   2.542  1.7618 -1.1455  1.4188
  983MOL0     H32670   1.301   7.287   2.513 -0.0542 -0.6529  1.0694
  983MOL0     H32671   1.193   7.579   2.806 -0.9343 -1.3471  1.1942
  983MOL0     H32672   1.181   7.710   2.687 -2.6441  0.7894  1.0910
  983MOL0     H32673   0.978   7.587   2.596  0.8137 -0.5727 -0.8951
  983MOL0     H32674   0.996   7.450   2.698 -0.0289 -0.9093 -1.0085
  983MOL0     H32675   0.959   7.739   2.803  0.1174 -0.4104 -2.8434
  983MOL0     H32676   0.990   7.604   2.908  0.9711 -2.4841 -0.7926
  983MOL0     H32677   0.744   7.599   2.717  0.1994  2.1176  0.3076
  983MOL0     H32678   0.767   7.499   2.857 -3.1292  0.0130 -0.8485
  983MOL0     H32679   0.603   7.690   2.896  0.2431 -3.3476  3.3286
  983MOL0     H32680   0.730   7.814   2.858  0.5799  0.6040  1.6447
  983MOL0     H32681   0.723   7.614   3.080  2.0099  0.3633 -0.2058
  983MOL0     H32682   0.844   7.726   3.081  0.6505 -1.2043  1.0408
  983MOL0     H32683   0.570   7.860   3.076  0.1351 -3.0081 -1.3882
  983MOL0     H32684   0.716   7.892   3.180  3.1670 -0.6728 -1.7051
  983MOL0     H32685   0.531   7.823   3.318 -2.4377 -2.5702  0.9282
  983MOL0     H32686   0.660   7.704   3.315 -0.7136  1.3150  1.6657
  983MOL0     H32687   1.424   7.625   2.754 -2.1082  1.0145 -3.2867
  983MOL0     H32688   1.646   7.484   2.803  0.8557 -4.5794  2.1522
  983MOL0     H32689   1.943   7.274   2.747 -1.4571  0.5233  1.4387
  983MOL0     H32690   2.162   7.208   2.804  0.5093  0.9122  4.8222
  983MOL0     H32691   3.859   6.760   3.304  1.3304 -0.3483  0.6672
  983MOL0     H32692   4.028   6.958   3.309 -1.1867  1.8616 -0.6898
  983MOL0     H32693   4.175   7.287   3.434  0.5031 -0.7173 -0.5021
  983MOL0     H32694   4.343   7.445   3.381 -1.4753 -2.3284 -1.8700
  983MOL0     H32695   4.709   7.473   3.643 -0.0499  0.7642  0.2160
  983MOL0     H32696   4.759   7.338   3.538 -1.2283 -0.6585  1.4988
  983MOL0     H32697   4.786   7.640   3.474  0.6794  0.1052  1.8547
  983MOL0     H32698   4.808   7.518   3.359  0.8118 -2.1065  0.4224
  983MOL0     H32699   5.026   7.458   3.431 -0.0469  2.1944 -0.5727
  983MOL0     H32700   4.970   7.438   3.605  0.4718 -0.2522  0.2199
  983MOL0     H32701   4.987   7.704   3.502 -2.5171 -1.4862 -0.2542
  983MOL0     H32702   5.140   7.623   3.550 -0.3886 -3.1125 -0.0764
  983MOL0     H32703   4.937   7.732   3.904 -2.4566  0.1639 -1.0134
  983MOL0     H32704   4.578   7.247   3.694  1.0127  0.3037 -1.4355
  983MOL0     H32705   4.397   7.100   3.735 -2.3570 -1.4127 -0.8530
  984MOL0     O32706  10.624   5.935   4.184  0.1429  0.1015 -0.2840
  984MOL0     C32707  10.626   6.037   4.120  0.2977 -0.6971 -0.3049
  984MOL0     O32708  10.519   6.119   4.106  0.1742 -0.4438 -0.1295
  984MOL0     C32709  10.412   6.102   4.192 -0.2900  0.4590  1.0873
  984MOL0     C32710  10.407   6.157   4.320 -0.3433  0.9113 -0.1871
  984MOL0     C32711  10.276   6.163   4.378 -1.0738 -0.4028  0.1317
  984MOL0     C32712  10.158   6.102   4.332 -0.0252  0.1821  0.1910
  984MOL0     O32713  10.034   6.109   4.392  1.2699 -0.3056 -0.1116
  984MOL0     C32714  10.027   6.149   4.529 -0.1746 -0.2424  0.2379
  984MOL0     C32715   9.895   6.102   4.576 -0.5676  0.6857 -0.0862
  984MOL0     C32716   9.878   6.082   4.728 -0.3861  1.0318  0.7565
  984MOL0     C32717   9.734   6.077   4.775 -1.0337 -0.4117 -0.3942
  984MOL0     C32718   9.658   5.964   4.705  0.4992 -0.6305 -0.1711
  984MOL0     C32719   9.514   5.951   4.748 -0.3969  0.1974 -0.0955
  984MOL0     C32720   9.444   5.832   4.679 -0.5126  0.6303  0.3305
  984MOL0     C32721   9.292   5.822   4.705 -1.2225 -0.4271 -0.3803
  984MOL0     N32722   9.192   5.910   4.641 -0.8118  0.3929 -1.4082
  984MOL0     C32723   9.061   5.930   4.677 -0.3513 -0.5411 -0.0063
  984MOL0     C32724   9.019   6.041   4.599 -0.4590 -0.0196  0.3618
  984MOL0     C32725   8.888   6.115   4.607  0.2173  0.1678  1.3230
  984MOL0     C32726   8.844   6.173   4.746  0.8253 -0.0245 -0.0465
  984MOL0     C32727   8.766   6.063   4.829 -0.3039 -0.0542  0.1791
  984MOL0     C32728   8.627   6.034   4.777  0.2606  1.1615  0.4968
  984MOL0     O32729   8.544   6.119   4.853 -0.3932 -0.4328 -0.4757
  984MOL0     C32730   8.447   6.051   4.919 -0.1057  0.3026 -0.3311
  984MOL0     C32731   8.324   6.102   4.884  1.3813  0.5732 -0.3003
  984MOL0     C32732   8.209   6.042   4.939  0.3248  0.3941 -1.1398
  984MOL0     C32733   8.086   6.086   4.869 -0.8481 -0.7951  0.2662
  984MOL0     C32734   8.221   5.927   5.031  0.2424 -0.0768 -0.0784
  984MOL0     C32735   8.110   5.868   5.109 -0.7142 -0.0947  0.8269
  984MOL0     O32736   8.141   5.753   5.179  0.5292  0.8577 -0.2142
  984MOL0     C32737   8.040   5.710   5.267  0.4078 -0.5414 -0.4447
  984MOL0     C32738   7.935   5.628   5.227  0.5573 -0.1455  0.9505
  984MOL0     C32739   7.844   5.579   5.315  0.3497 -0.2891 -0.3516
  984MOL0     C32740   7.864   5.592   5.456  0.0717 -0.5974  1.2070
  984MOL0     O32741   7.799   5.522   5.553  0.2128 -0.6103 -1.1022
  984MOL0     C32742   7.655   5.513   5.541 -0.0402 -0.4043  0.6879
  984MOL0     C32743   7.581   5.469   5.666  0.1883 -0.0539  1.1984
  984MOL0     C32744   7.427   5.460   5.633 -0.1830 -0.0791  0.8387
  984MOL0     C32745   7.385   5.331   5.578 -0.8565  0.6930  0.6402
  984MOL0     C32746   7.279   5.326   5.466 -1.1936 -0.4446 -0.2804
  984MOL0     C32747   7.263   5.184   5.412  0.3254  0.1993 -0.5929
  984MOL0     C32748   7.174   5.193   5.282  0.2637 -0.3365 -0.5324
  984MOL0     C32749   7.122   5.052   5.238  0.2353 -0.2751 -0.0190
  984MOL0    Cl32750   7.132   5.035   5.058 -0.0739  0.4832 -0.0752
  984MOL0     C32751   7.972   5.675   5.494  0.4811  0.4756  0.5560
  984MOL0     C32752   8.053   5.742   5.404 -0.1734  0.2255  0.3242
  984MOL0     O32753   8.004   5.927   5.123  0.0398 -0.4890 -0.1943
  984MOL0     C32754   8.351   5.888   5.061 -0.2302 -0.2815  0.3496
  984MOL0     C32755   8.460   5.960   5.017 -0.1961 -0.1252 -0.0116
  984MOL0     N32756   9.123   6.083   4.519  0.0101 -0.3009  0.5088
  984MOL0     N32757   9.227   6.006   4.549  0.9037  0.3915 -0.3580
  984MOL0     C32758  10.170   6.053   4.204  0.0873 -0.2369  0.0743
  984MOL0     C32759  10.296   6.051   4.133  0.9138  0.0717  0.9621
  984MOL0     C32760  10.758   6.062   4.055  1.0269 -0.6275  0.5898
  984MOL0     C32761  10.860   5.976   4.056 -0.3048  0.2379  0.1370
  984MOL0     C32762  10.979   5.999   3.978  0.3720 -0.1074  0.2467
  984MOL0     C32763  10.998   6.117   3.915 -0.5329  0.4632 -0.4609
  984MOL0     O32764  11.111   6.142   3.852 -0.5996  0.5130  0.3433
  984MOL0     C32765  11.105   6.232   3.736  0.0734 -0.1224  0.1968
  984MOL0     C32766  11.242   6.253   3.681 -0.0901 -0.6304 -0.0556
  984MOL0     C32767  11.307   6.123   3.622 -0.2442 -0.0863  0.3375
  984MOL0     C32768  11.274   6.073   3.481  0.5821 -0.2705  0.8698
  984MOL0     C32769  11.167   5.975   3.487  0.6883  1.4009 -0.5728
  984MOL0     C32770  11.071   5.903   3.488  0.5603 -0.8056 -0.6370
  984MOL0     C32771  10.896   6.207   3.921  0.0173 -0.4203  0.0909
  984MOL0     C32772  10.769   6.175   3.975 -0.8681 -0.3307  0.2461
  984MOL0     H32773  10.488   6.200   4.378  1.2881 -0.0935 -1.6354
  984MOL0     H32774  10.281   6.206   4.477  3.2278  1.2059 -0.5915
  984MOL0     H32775  10.103   6.096   4.587 -0.5656 -1.1179 -0.0328
  984MOL0     H32776  10.027   6.257   4.546 -0.6591 -0.2330  0.1919
  984MOL0     H32777   9.813   6.165   4.539 -0.4124  0.8827 -0.0962
  984MOL0     H32778   9.886   6.000   4.536  0.9123  0.3229  0.4627
  984MOL0     H32779   9.927   5.987   4.751  3.2408  2.6710  0.5460
  984MOL0     H32780   9.941   6.158   4.776  0.2762  0.5416  0.6702
  984MOL0     H32781   9.720   6.070   4.884 -1.2586 -2.1103 -0.5117
  984MOL0     H32782   9.695   6.174   4.744 -2.9365 -0.3806  1.8279
  984MOL0     H32783   9.648   5.977   4.596  0.1335  2.1343  0.1272
  984MOL0     H32784   9.710   5.869   4.719 -0.0036 -1.0171 -0.8503
  984MOL0     H32785   9.506   5.945   4.856 -0.9747 -1.0791 -0.1951
  984MOL0     H32786   9.464   6.044   4.718  1.4239  2.5075  3.3600
  984MOL0     H32787   9.458   5.836   4.571  0.3130  2.5544  0.4684
  984MOL0     H32788   9.492   5.744   4.721  2.7872  0.5036 -3.1498
  984MOL0     H32789   9.263   5.844   4.808 -2.1470 -0.1524 -0.6872
  984MOL0     H32790   9.258   5.719   4.686  1.8389 -2.1053  2.2879
  984MOL0     H32791   9.015   5.885   4.764  2.0436  1.4057  2.4145
  984MOL0     H32792   8.915   6.201   4.544 -1.3815  0.0152  0.3626
  984MOL0     H32793   8.805   6.059   4.562  1.1401  0.4177 -0.8085
  984MOL0     H32794   8.792   6.269   4.739  0.9859  0.0339 -0.4531
  984MOL0     H32795   8.943   6.203   4.783  0.9381  1.1381 -1.2131
  984MOL0     H32796   8.763   6.099   4.933  0.0600  3.5275 -0.9220
  984MOL0     H32797   8.820   5.968   4.830 -0.0859  0.0636 -0.5174
  984MOL0     H32798   8.598   5.930   4.796 -0.0992  0.6679 -2.3702
  984MOL0     H32799   8.613   6.051   4.670 -1.8675 -0.0841  0.5218
  984MOL0     H32800   8.315   6.181   4.810 -0.9599  1.2051  0.5748
  984MOL0     H32801   8.100   6.193   4.848  3.5601 -1.5090 -1.6322
  984MOL0     H32802   8.072   6.028   4.777 -1.0592 -1.1301  0.5068
  984MOL0     H32803   8.002   6.073   4.938 -1.6121  2.1840  0.0589
  984MOL0     H32804   7.927   5.610   5.120 -1.5301  1.0406  0.8569
  984MOL0     H32805   7.776   5.505   5.275  2.2396 -1.7363 -1.0344
  984MOL0     H32806   7.613   5.609   5.508  0.2205  0.1876  2.0239
  984MOL0     H32807   7.632   5.435   5.468 -2.1682 -0.2417  1.1278
  984MOL0     H32808   7.622   5.372   5.696  1.7127  0.6986  1.6800
  984MOL0     H32809   7.589   5.533   5.755  1.5622 -1.2624  1.9821
  984MOL0     H32810   7.404   5.542   5.564  1.0740 -1.7465 -1.7278
  984MOL0     H32811   7.367   5.477   5.722 -2.4547  0.9017 -0.7834
  984MOL0     H32812   7.471   5.286   5.529 -1.8557  0.9905 -1.5198
  984MOL0     H32813   7.369   5.260   5.660 -3.0405 -2.2461 -2.0891
  984MOL0     H32814   7.315   5.398   5.392  1.1811 -0.6065  0.6586
  984MOL0     H32815   7.183   5.369   5.496 -1.5836  0.4815 -2.6469
  984MOL0     H32816   7.364   5.150   5.387 -0.6834 -3.9944  0.2885
  984MOL0     H32817   7.217   5.121   5.488 -0.0056  2.7638  1.4463
  984MOL0     H32818   7.229   5.246   5.204  3.1246 -2.8353 -0.3852
  984MOL0     H32819   7.088   5.260   5.295  2.1709  2.2654 -0.6525
  984MOL0     H32820   7.019   5.029   5.265  0.6028  0.3315  2.0588
  984MOL0     H32821   7.181   4.974   5.287  1.9422 -0.4068 -2.1092
  984MOL0     H32822   7.999   5.681   5.599  0.7886 -0.1587  0.5167
  984MOL0     H32823   8.136   5.806   5.431 -1.3424  1.1320  1.9646
  984MOL0     H32824   8.358   5.821   5.146 -2.8190 -0.7013  0.3178
  984MOL0     H32825   8.555   5.937   5.065 -0.2954 -2.7292 -0.9114
  984MOL0     H32826  10.074   6.027   4.162 -0.0382 -1.4638  1.0474
  984MOL0     H32827  10.302   6.004   4.035  2.0868 -2.5794  2.1898
  984MOL0     H32828  10.850   5.882   4.109  1.3207 -0.1827 -0.2673
  984MOL0     H32829  11.060   5.926   3.978  0.5185  0.0257  1.5423
  984MOL0     H32830  11.053   6.188   3.650  0.8878 -0.7617  0.0102
  984MOL0     H32831  11.054   6.326   3.756  1.4199  0.3263  1.8323
  984MOL0     H32832  11.315   6.273   3.760  2.4309 -4.0546 -1.2331
  984MOL0     H32833  11.248   6.336   3.610  0.5277 -0.0325  0.6866
  984MOL0     H32834  11.293   6.043   3.695  1.9905  0.7490  1.7716
  984MOL0     H32835  11.414   6.145   3.615 -0.4914  0.7911 -1.3910
  984MOL0     H32836  11.359   6.014   3.445  0.6545  0.9136 -1.0462
  984MOL0     H32837  11.251   6.153   3.410  1.7115 -1.3537 -0.8011
  984MOL0     H32838  10.986   5.838   3.492  2.2509 -3.4323 -3.5586
  984MOL0     H32839  10.912   6.306   3.881 -0.8209 -0.9374 -1.6482
  984MOL0     H32840  10.691   6.250   3.960 -1.0616 -0.4041  0.8315
  985MOL0     O32841   3.440   1.917   6.022  0.1456 -0.5845 -0.4233
  985MOL0     C32842   3.477   1.810   6.060 -0.4943  1.2518  0.0204
  985MOL0     O32843   3.399   1.726   6.134 -0.1201  0.2269 -0.0867
  985MOL0     C32844   3.265   1.754   6.113 -0.1023  0.8723  0.8346
  985MOL0     C32845   3.209   1.685   5.994 -0.0230 -0.7304  0.2644
  985MOL0     C32846   3.086   1.724   5.955  0.3490  0.6283 -0.1062
  985MOL0     C32847   3.001   1.805   6.035 -0.7179  0.0237 -0.0802
  985MOL0     O32848   2.876   1.842   5.991  0.1843 -0.0403 -0.1983
  985MOL0     C32849   2.782   1.727   5.976 -0.0111 -1.6913 -0.4763
  985MOL0     C32850   2.637   1.784   5.994  0.0153  0.1855 -0.1036
  985MOL0     C32851   2.577   1.823   5.863  0.5723  0.4314  0.2686
  985MOL0     C32852   2.434   1.879   5.896 -0.0716 -0.7160  0.3590
  985MOL0     C32853   2.380   1.935   5.764  0.0270  0.1202  0.6372
  985MOL0     C32854   2.230   1.978   5.767 -0.8608 -0.8341  0.3304
  985MOL0     C32855   2.198   2.036   5.633  0.7555  0.6495  0.1575
  985MOL0     C32856   2.072   2.135   5.662 -0.7237  0.2034  0.7333
  985MOL0     N32857   1.945   2.063   5.662 -0.5144  1.4422  0.2807
  985MOL0     C32858   1.905   1.960   5.577 -0.3023  0.1439 -0.5016
  985MOL0     C32859   1.788   1.918   5.629  0.5270  0.0637  0.3035
  985MOL0     C32860   1.705   1.810   5.560  0.0748 -0.4280  0.4573
  985MOL0     C32861   1.579   1.750   5.629 -0.4741 -0.5089  0.2687
  985MOL0     C32862   1.522   1.629   5.555  0.4101 -0.1485  0.2767
  985MOL0     C32863   1.374   1.598   5.594 -0.1445  0.0940  0.4746
  985MOL0     O32864   1.335   1.477   5.523 -0.4870 -1.1290  0.0699
  985MOL0     C32865   1.201   1.475   5.493 -0.8440 -0.1160  0.0199
  985MOL0     C32866   1.163   1.399   5.385 -0.5858 -0.1643 -0.5116
  985MOL0     C32867   1.036   1.376   5.341  0.4003 -0.0634 -0.4707
  985MOL0     C32868   1.008   1.305   5.211 -0.0057 -0.0036  0.0533
  985MOL0     C32869   0.929   1.427   5.423 -0.4426  0.0050 -0.2218
  985MOL0     C32870   0.790   1.411   5.393 -0.2095  0.1717 -0.2679
  985MOL0     O32871   0.711   1.521   5.367  0.0052  0.0042  0.1915
  985MOL0     C32872   0.611   1.509   5.275 -0.8959  0.3419 -0.5798
  985MOL0     C32873   0.638   1.447   5.158  0.5403 -0.5116  0.5857
  985MOL0     C32874   0.535   1.425   5.071 -0.0689 -0.2730  0.0445
  985MOL0     C32875   0.406   1.475   5.097  0.2465 -1.0378  0.2387
  985MOL0     O32876   0.310   1.427   5.012  0.0520 -0.5639 -0.4680
  985MOL0     C32877   0.182   1.493   5.016  0.6823  0.5974  0.1185
  985MOL0     C32878   0.183   1.641   4.956  0.8110  0.3029  1.0440
  985MOL0     C32879   0.182   1.645   4.806 -0.2287 -0.4453 -0.4819
  985MOL0     C32880   0.307   1.700   4.734  0.3120  0.4061 -0.6812
  985MOL0     C32881   0.426   1.613   4.728 -0.3728 -0.7057  0.5080
  985MOL0     C32882   0.404   1.488   4.645 -0.0560  0.2079 -0.2635
  985MOL0     C32883   0.520   1.393   4.655 -0.5580  0.0931 -0.8107
  985MOL0     C32884   0.519   1.268   4.561 -0.2392  0.0136  0.2202
  985MOL0    Cl32885   0.404   1.278   4.429 -0.0248  0.6854 -0.5043
  985MOL0     C32886   0.383   1.553   5.211 -0.4773 -0.5779 -0.5560
  985MOL0     C32887   0.487   1.558   5.302 -0.0239  0.3937  0.0576
  985MOL0     O32888   0.753   1.291   5.397  0.3648  0.2101  0.1814
  985MOL0     C32889   0.965   1.508   5.541 -0.0937 -0.4785  0.1506
  985MOL0     C32890   1.102   1.530   5.567 -0.1123 -0.4182 -0.2466
  985MOL0     N32891   1.752   1.983   5.744 -0.4405 -0.6196  0.6773
  985MOL0     N32892   1.852   2.069   5.753 -0.3350 -0.3978  0.1142
  985MOL0     C32893   3.059   1.868   6.143  0.5013 -0.2242 -0.8699
  985MOL0     C32894   3.192   1.846   6.179  0.5988 -0.1194  0.0548
  985MOL0     C32895   3.606   1.760   6.015  0.7699  0.3621 -0.1362
  985MOL0     C32896   3.687   1.832   5.921  0.0080 -0.4798 -0.3800
  985MOL0     C32897   3.814   1.780   5.893  0.3031 -0.3739 -0.1827
  985MOL0     C32898   3.877   1.673   5.960 -0.7400  0.0590  0.5448
  985MOL0     O32899   4.012   1.650   5.913  0.2438 -0.3440  0.1874
  985MOL0     C32900   4.086   1.533   5.964  0.3216 -0.2942  0.8925
  985MOL0     C32901   4.187   1.488   5.865 -1.3369 -0.7559 -0.4696
  985MOL0     C32902   4.122   1.428   5.742  0.8191  0.3229 -0.3472
  985MOL0     C32903   4.228   1.349   5.655  0.6920 -0.9335  0.4708
  985MOL0     C32904   4.169   1.295   5.533 -0.0766  0.6712 -0.4448
  985MOL0     C32905   4.103   1.254   5.437  0.7134 -0.0065 -0.5531
  985MOL0     C32906   3.804   1.605   6.051  0.7013 -0.1411 -1.5576
  985MOL0     C32907   3.670   1.652   6.084 -0.4019 -0.2467 -0.3930
  985MOL0     H32908   3.268   1.616   5.935  2.9206 -0.1078  2.2309
  985MOL0     H32909   3.036   1.687   5.866 -0.0462  1.2493 -0.1455
  985MOL0     H32910   2.807   1.686   5.877 -0.4255  1.1955 -1.8715
  985MOL0     H32911   2.799   1.651   6.052 -1.7160  0.2768  2.0357
  985MOL0     H32912   2.573   1.701   6.025  0.0542 -0.5804 -1.9938
  985MOL0     H32913   2.642   1.866   6.067  2.5780 -0.4595  0.5707
  985MOL0     H32914   2.634   1.901   5.812  0.5087 -2.0269 -4.0375
  985MOL0     H32915   2.575   1.741   5.791 -0.8964  0.1331  0.6059
  985MOL0     H32916   2.371   1.801   5.940 -2.5736  1.4562  0.8682
  985MOL0     H32917   2.434   1.962   5.967 -1.0309  0.7833 -1.3241
  985MOL0     H32918   2.441   2.022   5.739  1.7585 -0.7762  1.5746
  985MOL0     H32919   2.397   1.861   5.685  1.5500  0.0163  1.0381
  985MOL0     H32920   2.151   1.905   5.788 -1.3801 -0.5162 -0.4591
  985MOL0     H32921   2.235   2.063   5.836  0.5257 -1.8299  1.5132
  985MOL0     H32922   2.274   2.106   5.597  1.2021 -0.2042 -0.5912
  985MOL0     H32923   2.189   1.968   5.548  0.6889 -0.4090  0.9900
  985MOL0     H32924   2.069   2.219   5.593 -0.7118 -1.4819 -1.4194
  985MOL0     H32925   2.084   2.183   5.760  0.9686  4.1490 -1.2016
  985MOL0     H32926   1.956   1.934   5.485 -0.0768 -1.1561 -0.0282
  985MOL0     H32927   1.680   1.840   5.458  1.5527  0.4612  0.3345
  985MOL0     H32928   1.769   1.725   5.532 -0.5935 -0.7428 -0.1368
  985MOL0     H32929   1.503   1.829   5.631 -0.3071 -0.3445  2.0408
  985MOL0     H32930   1.602   1.724   5.733  0.2954  0.4292  0.3477
  985MOL0     H32931   1.586   1.544   5.579  1.1923  0.5731  0.8444
  985MOL0     H32932   1.524   1.644   5.447  0.0370  2.9998  0.5988
  985MOL0     H32933   1.323   1.691   5.566 -0.8968 -0.1296  1.0592
  985MOL0     H32934   1.355   1.596   5.702 -1.2286  2.5252  0.4062
  985MOL0     H32935   1.243   1.356   5.326 -1.5116  0.7860 -2.5638
  985MOL0     H32936   0.940   1.224   5.238  1.1340 -1.3442 -0.9756
  985MOL0     H32937   0.970   1.370   5.132 -0.7159 -1.0578 -0.4975
  985MOL0     H32938   1.106   1.271   5.176  1.0941  0.3613  2.5651
  985MOL0     H32939   0.732   1.399   5.135  0.5663 -0.2412  0.1113
  985MOL0     H32940   0.541   1.375   4.975  1.8421  2.2813 -1.3122
  985MOL0     H32941   0.105   1.433   4.967 -0.4128  0.9324  1.3696
  985MOL0     H32942   0.141   1.498   5.117  1.7741 -0.8626  0.6562
  985MOL0     H32943   0.089   1.686   4.989 -0.2073 -2.2604  1.8548
  985MOL0     H32944   0.273   1.699   4.982  1.0083  0.8642 -0.7268
  985MOL0     H32945   0.106   1.714   4.772  2.6933  1.2881 -4.1987
  985MOL0     H32946   0.153   1.546   4.769 -3.0530  0.4030 -0.7368
  985MOL0     H32947   0.263   1.712   4.635  1.4722 -1.2592 -1.4555
  985MOL0     H32948   0.325   1.785   4.799  1.1032 -1.2306  1.3605
  985MOL0     H32949   0.442   1.583   4.832 -0.0962  0.4254  0.7984
  985MOL0     H32950   0.510   1.674   4.693  0.3616 -0.0767  3.1601
  985MOL0     H32951   0.316   1.429   4.670 -1.8699  1.7231 -2.6681
  985MOL0     H32952   0.381   1.518   4.543  0.0050  1.2777  0.0295
  985MOL0     H32953   0.538   1.363   4.758 -0.6917 -0.1797 -0.8657
  985MOL0     H32954   0.606   1.447   4.616  0.9774 -1.1339  0.7555
  985MOL0     H32955   0.495   1.185   4.628  0.7879  0.6345  1.3982
  985MOL0     H32956   0.615   1.252   4.510  0.7466 -2.5117  2.6348
  985MOL0     H32957   0.294   1.604   5.247  0.0335 -0.9853  1.4142
  985MOL0     H32958   0.473   1.624   5.387 -0.8221  0.8298 -0.4009
  985MOL0     H32959   0.889   1.542   5.610  0.6187  2.0159 -0.1673
  985MOL0     H32960   1.130   1.596   5.649 -0.8194 -1.1673  0.6140
  985MOL0     H32961   2.995   1.924   6.210  2.4366  0.0725  0.8319
  985MOL0     H32962   3.241   1.890   6.266  1.0237 -0.1104 -0.1854
  985MOL0     H32963   3.646   1.919   5.871 -1.6542 -1.0459 -0.0625
  985MOL0     H32964   3.879   1.832   5.823  2.0026  0.2030  1.7203
  985MOL0     H32965   4.123   1.569   6.060 -0.7777  1.5704  0.6704
  985MOL0     H32966   4.017   1.450   5.983 -0.9826  0.0510 -1.8887
  985MOL0     H32967   4.243   1.414   5.922  1.2059  0.1931 -1.5975
  985MOL0     H32968   4.244   1.579   5.845 -0.5641 -0.6675  1.8645
  985MOL0     H32969   4.083   1.511   5.682  2.2725  3.3866  2.5974
  985MOL0     H32970   4.046   1.359   5.779  0.7883  0.0467 -0.9316
  985MOL0     H32971   4.282   1.271   5.711 -0.8692 -2.2638  0.2037
  985MOL0     H32972   4.300   1.427   5.630  0.2576  0.3914  3.0216
  985MOL0     H32973   4.043   1.223   5.353  0.4249 -0.4526 -0.1867
  985MOL0     H32974   3.844   1.525   6.113 -0.9706  0.5321  0.5234
  985MOL0     H32975   3.628   1.588   6.161 -0.2607 -0.9994 -0.9304
  986MOL0     O32976   6.187   6.790   6.904 -0.2723 -0.4423 -0.3639
  986MOL0     C32977   6.192   6.666   6.900 -0.0293  0.0760 -0.5926
  986MOL0     O32978   6.088   6.577   6.881  0.1044 -0.1691  0.8960
  986MOL0     C32979   5.958   6.623   6.877 -0.4128 -0.0166  0.0349
  986MOL0     C32980   5.898   6.727   6.948  0.2116  0.5024  0.9627
  986MOL0     C32981   5.761   6.754   6.944 -0.3040  0.3270  0.2618
  986MOL0     C32982   5.672   6.666   6.890  0.4390  0.9611  0.6602
  986MOL0     O32983   5.531   6.683   6.891  0.1423  0.7807 -0.0744
  986MOL0     C32984   5.465   6.792   6.954  0.1352  1.0044 -0.3229
  986MOL0     C32985   5.319   6.750   6.936 -0.2450 -0.5435  0.2456
  986MOL0     C32986   5.231   6.876   6.919  1.3747 -0.4375 -0.0686
  986MOL0     C32987   5.229   6.971   7.046  0.8334 -0.3894  0.1991
  986MOL0     C32988   5.154   6.914   7.171 -0.4354  0.7006  1.2830
  986MOL0     C32989   4.997   6.925   7.160  0.9306 -0.0261  0.5877
  986MOL0     C32990   4.926   6.881   7.290 -0.7532  0.3828  0.3337
  986MOL0     C32991   4.776   6.903   7.288  0.1223  0.3414  0.4398
  986MOL0     N32992   4.716   6.891   7.417  0.0666 -0.1406 -0.5272
  986MOL0     C32993   4.720   7.000   7.499  0.4401 -0.2390 -0.2876
  986MOL0     C32994   4.658   6.948   7.609 -0.2680  0.1998 -0.1477
  986MOL0     C32995   4.625   7.013   7.734  0.0701  0.3444  0.4657
  986MOL0     C32996   4.508   7.106   7.728  0.0611 -0.3924 -0.2331
  986MOL0     C32997   4.379   7.037   7.680  0.7791 -0.1308 -0.0586
  986MOL0     C32998   4.250   7.114   7.728  0.4142  0.5469  0.1469
  986MOL0     O32999   4.259   7.259   7.690 -0.2622 -0.0148 -0.5009
  986MOL0     C33000   4.146   7.325   7.660  0.5512 -0.8935  0.5666
  986MOL0     C33001   4.161   7.462   7.653 -0.0727 -0.1581  0.1598
  986MOL0     C33002   4.048   7.551   7.653 -0.4882 -1.2958  0.3339
  986MOL0     C33003   4.072   7.702   7.630  0.3580  0.6038 -0.5232
  986MOL0     C33004   3.914   7.496   7.664  0.2559 -0.4392 -0.4163
  986MOL0     C33005   3.783   7.558   7.681 -0.4274  0.1184 -0.2466
  986MOL0     O33006   3.679   7.478   7.692  0.0268 -1.0988  0.2400
  986MOL0     C33007   3.543   7.505   7.703 -0.7605 -0.0505 -0.3838
  986MOL0     C33008   3.456   7.393   7.712 -0.8546  0.1183 -0.4242
  986MOL0     C33009   3.314   7.427   7.709 -0.0566  0.2203 -0.1228
  986MOL0     C33010   3.270   7.557   7.722  0.6419  0.3866  0.4301
  986MOL0     O33011   3.131   7.575   7.728  0.1226  0.4542  0.6253
  986MOL0     C33012   3.079   7.705   7.734 -0.3437  0.3951 -1.0320
  986MOL0     C33013   2.923   7.710   7.735 -0.5070 -0.5790  0.0039
  986MOL0     C33014   2.875   7.610   7.631 -0.4832 -0.6085  0.0348
  986MOL0     C33015   2.726   7.629   7.608 -0.6670  0.1218  0.1270
  986MOL0     C33016   2.675   7.540   7.493  0.0566  0.6711 -0.2580
  986MOL0     C33017   2.525   7.523   7.479  0.2524  0.0908 -0.9727
  986MOL0     C33018   2.479   7.428   7.376  1.0847 -0.2969  0.1381
  986MOL0     C33019   2.332   7.445   7.327 -0.6142 -0.4671 -0.8428
  986MOL0    Cl33020   2.299   7.322   7.202  0.1999 -0.1529 -0.2236
  986MOL0     C33021   3.356   7.663   7.748  0.2860  0.3186  1.2273
  986MOL0     C33022   3.494   7.635   7.730 -0.2413  0.6518  0.6083
  986MOL0     O33023   3.776   7.674   7.719 -0.6900  0.6098  1.1850
  986MOL0     C33024   3.913   7.352   7.663  0.2935 -0.4247 -0.3247
  986MOL0     C33025   4.016   7.265   7.652 -0.2240 -0.5961 -0.5028
  986MOL0     N33026   4.635   6.819   7.589 -0.2854  0.5524 -0.0004
  986MOL0     N33027   4.664   6.781   7.475 -0.5269 -0.0058  0.0716
  986MOL0     C33028   5.724   6.556   6.818 -0.0548  0.0661 -0.0763
  986MOL0     C33029   5.869   6.540   6.808 -0.0011 -0.1236  0.2596
  986MOL0     C33030   6.325   6.600   6.931 -0.0435  0.5835 -0.2904
  986MOL0     C33031   6.438   6.678   6.953 -0.1441 -0.2723  0.0839
  986MOL0     C33032   6.557   6.619   7.000 -0.1802  0.5882 -0.2962
  986MOL0     C33033   6.555   6.481   7.029 -0.4195 -0.5804  0.0366
  986MOL0     O33034   6.661   6.408   7.092 -0.5591 -0.1465 -0.5496
  986MOL0     C33035   6.794   6.452   7.056  0.7100 -0.5895 -0.0811
  986MOL0     C33036   6.850   6.576   7.134  0.1241  0.1112  0.5136
  986MOL0     C33037   6.957   6.538   7.234 -0.0595  0.4747  0.4626
  986MOL0     C33038   6.903   6.450   7.361 -0.5240  1.2613  0.6350
  986MOL0     C33039   7.021   6.417   7.455  0.0251 -0.8986 -0.6580
  986MOL0     C33040   7.105   6.384   7.534 -0.2905  0.2577  0.1255
  986MOL0     C33041   6.448   6.399   6.991 -0.3835 -0.4132  0.5737
  986MOL0     C33042   6.335   6.453   6.932  0.2814 -0.9264  0.0057
  986MOL0     H33043   5.957   6.799   7.004 -0.0488  0.6244  1.0836
  986MOL0     H33044   5.730   6.843   6.998  1.6310  0.5580  1.0590
  986MOL0     H33045   5.493   6.794   7.060  1.7106 -0.4728 -0.6691
  986MOL0     H33046   5.485   6.891   6.911 -1.0567  1.0537 -0.7992
  986MOL0     H33047   5.316   6.703   6.837  1.6065  3.3435 -1.9435
  986MOL0     H33048   5.280   6.688   7.017 -2.0639  2.9672  2.3052
  986MOL0     H33049   5.248   6.936   6.829 -1.1972  3.3537  1.6712
  986MOL0     H33050   5.129   6.839   6.904  1.8654 -2.3629  1.1163
  986MOL0     H33051   5.334   6.987   7.072  1.2988 -0.9822 -1.2382
  986MOL0     H33052   5.178   7.060   7.010  2.2140 -0.4806 -2.1874
  986MOL0     H33053   5.191   6.812   7.186  1.8161  1.1930 -0.4018
  986MOL0     H33054   5.189   6.973   7.257  1.9591  0.8876  0.2615
  986MOL0     H33055   4.972   7.025   7.124 -0.8747 -0.9298 -0.8029
  986MOL0     H33056   4.965   6.850   7.087 -0.3176 -0.1686  1.2465
  986MOL0     H33057   4.947   6.775   7.307 -0.2092  0.2033 -1.2586
  986MOL0     H33058   4.971   6.943   7.367  1.4604  0.1207 -0.6746
  986MOL0     H33059   4.723   6.832   7.224 -0.2701 -0.0611  1.1974
  986MOL0     H33060   4.745   7.001   7.252 -0.8551  0.2692  1.0449
  986MOL0     H33061   4.746   7.104   7.488  1.8455 -0.3785  1.2025
  986MOL0     H33062   4.606   6.930   7.802  1.6177 -1.7801 -1.5698
  986MOL0     H33063   4.716   7.067   7.762  0.6046 -0.4355  0.2385
  986MOL0     H33064   4.548   7.182   7.660  1.7853  0.4417  1.6275
  986MOL0     H33065   4.499   7.140   7.832 -0.1821 -2.3737  0.4316
  986MOL0     H33066   4.365   6.940   7.727 -2.1861  0.4645  0.4420
  986MOL0     H33067   4.360   7.031   7.572  0.8183  0.6795 -0.1206
  986MOL0     H33068   4.242   7.100   7.837  1.0515 -0.2566  0.1012
  986MOL0     H33069   4.165   7.066   7.678  0.4025  0.1332  0.5471
  986MOL0     H33070   4.263   7.498   7.656  0.0870 -0.6304  0.5069
  986MOL0     H33071   4.009   7.735   7.547 -0.3316 -1.0271 -0.7065
  986MOL0     H33072   4.048   7.768   7.714 -1.7884 -0.8185  0.0698
  986MOL0     H33073   4.177   7.723   7.610  1.7226 -2.2164  2.5721
  986MOL0     H33074   3.498   7.294   7.698  1.0540  0.7606  0.4413
  986MOL0     H33075   3.235   7.355   7.688 -0.4488  0.4775  0.4542
  986MOL0     H33076   3.109   7.753   7.828 -0.7672  0.9627 -1.1740
  986MOL0     H33077   3.122   7.760   7.650  1.3885 -0.1404 -0.5222
  986MOL0     H33078   2.890   7.684   7.836  2.0580 -1.9418  0.5975
  986MOL0     H33079   2.889   7.811   7.711  2.9629  0.4218 -1.3727
  986MOL0     H33080   2.896   7.507   7.661  2.5366 -0.2757 -0.6104
  986MOL0     H33081   2.929   7.624   7.536  1.4345 -1.1625  1.0066
  986MOL0     H33082   2.683   7.605   7.706  0.2924  0.2644  0.5917
  986MOL0     H33083   2.710   7.732   7.577 -1.4195 -0.1014 -0.2403
  986MOL0     H33084   2.717   7.442   7.513 -1.3652  0.0096 -0.3716
  986MOL0     H33085   2.709   7.566   7.392  0.2417  0.7909 -0.1653
  986MOL0     H33086   2.485   7.493   7.576 -0.4041  0.9376 -0.9726
  986MOL0     H33087   2.490   7.622   7.452  0.4768 -0.1928 -2.4134
  986MOL0     H33088   2.487   7.328   7.419  0.0028 -0.0196  1.0154
  986MOL0     H33089   2.539   7.432   7.284 -1.3222  2.0118 -1.4909
  986MOL0     H33090   2.323   7.549   7.293 -2.4951  0.5876  2.4065
  986MOL0     H33091   2.259   7.442   7.408  1.5788 -0.0319  1.2904
  986MOL0     H33092   3.341   7.768   7.772 -2.2983  0.1956  0.4636
  986MOL0     H33093   3.558   7.723   7.735  0.2220  0.2324  2.7028
  986MOL0     H33094   3.815   7.305   7.663  0.8074 -1.5329 -1.0679
  986MOL0     H33095   3.995   7.159   7.663  1.0138 -0.7343  1.0364
  986MOL0     H33096   5.660   6.479   6.776 -0.3816  0.7337 -0.8282
  986MOL0     H33097   5.909   6.456   6.752  1.9198 -1.0924  2.9210
  986MOL0     H33098   6.435   6.784   6.931 -3.0262 -0.5944 -1.5997
  986MOL0     H33099   6.640   6.688   7.008 -1.0376  1.5760  0.3010
  986MOL0     H33100   6.860   6.369   7.083  0.3560 -0.5706  0.9073
  986MOL0     H33101   6.793   6.473   6.949 -0.5925 -3.7584 -0.8041
  986MOL0     H33102   6.775   6.640   7.182 -2.9872 -1.8839 -1.3496
  986MOL0     H33103   6.890   6.647   7.060 -1.4302  1.6483  1.0769
  986MOL0     H33104   7.012   6.625   7.272  2.8087 -0.0172 -2.0833
  986MOL0     H33105   7.034   6.481   7.180 -1.4251  0.8490 -2.0474
  986MOL0     H33106   6.862   6.354   7.328  1.7929  0.2919  0.4068
  986MOL0     H33107   6.833   6.509   7.422  1.0351  0.2069  3.6978
  986MOL0     H33108   7.183   6.352   7.599  1.4591 -0.1345 -2.0477
  986MOL0     H33109   6.456   6.290   6.991 -3.4429 -0.7110  0.5076
  986MOL0     H33110   6.245   6.400   6.902  0.9302 -0.6367 -2.6713
  987MOL0     O33111   7.839  10.295   1.500 -0.3639 -0.1512 -0.1627
  987MOL0     C33112   7.864  10.191   1.446 -0.9073 -0.3747  0.1042
  987MOL0     O33113   7.781  10.119   1.369  0.1652  0.0957 -1.0438
  987MOL0     C33114   7.651  10.161   1.362  0.3285  0.9360 -0.9057
  987MOL0     C33115   7.539  10.069   1.378 -0.0940  0.1095  0.2563
  987MOL0     C33116   7.412  10.118   1.381  1.0966 -0.4150  0.4880
  987MOL0     C33117   7.383  10.240   1.321  0.2444 -0.1646 -0.1929
  987MOL0     O33118   7.248  10.275   1.311 -0.3164  0.0971  1.0394
  987MOL0     C33119   7.202  10.400   1.261  0.4547  0.1266  0.2883
  987MOL0     C33120   7.049  10.421   1.291 -0.7650  0.0395 -0.7433
  987MOL0     C33121   6.999  10.567   1.260  0.5879  1.1685 -0.2139
  987MOL0     C33122   6.842  10.560   1.293  0.3257  0.5866  0.5075
  987MOL0     C33123   6.777  10.681   1.226  1.5017 -0.4420 -0.0120
  987MOL0     C33124   6.642  10.718   1.280  0.3900 -0.2719 -0.7523
  987MOL0     C33125   6.587  10.847   1.222  0.2035 -0.0359  0.0680
  987MOL0     C33126   6.453  10.876   1.286 -0.4961 -0.5255  0.7583
  987MOL0     N33127   6.406  11.014   1.264 -0.0695 -0.1063 -0.4605
  987MOL0     C33128   6.465  11.125   1.318  0.9978 -0.7252 -0.0722
  987MOL0     C33129   6.388  11.229   1.264  0.5949  1.2355 -0.5997
  987MOL0     C33130   6.408  11.371   1.295  0.0605 -0.8970  0.8938
  987MOL0     C33131   6.315  11.421   1.405 -0.4821 -0.1354 -1.3813
  987MOL0     C33132   6.172  11.396   1.398 -0.3251  0.2596 -0.3231
  987MOL0     C33133   6.101  11.416   1.253  0.7464  0.1783 -0.1456
  987MOL0     O33134   5.957  11.427   1.264  0.5694  0.1914  0.2176
  987MOL0     C33135   5.862  11.405   1.170  0.5058  0.2575  0.7485
  987MOL0     C33136   5.725  11.385   1.208 -0.6254 -0.0918  0.1884
  987MOL0     C33137   5.631  11.334   1.117  0.3253 -0.2155  0.3591
  987MOL0     C33138   5.488  11.319   1.168  0.2673  0.2790  0.5760
  987MOL0     C33139   5.668  11.309   0.977 -0.0635  1.2469 -0.2535
  987MOL0     C33140   5.571  11.274   0.864  0.1435 -0.3745  0.0147
  987MOL0     O33141   5.442  11.258   0.894 -0.5176 -1.0145  0.3605
  987MOL0     C33142   5.350  11.241   0.795 -0.0984 -0.8115 -0.3062
  987MOL0     C33143   5.348  11.124   0.721  0.3028  0.3394  0.1349
  987MOL0     C33144   5.247  11.098   0.631  0.1017 -0.2988  0.2181
  987MOL0     C33145   5.143  11.199   0.607  0.7954  0.0451  0.4771
  987MOL0     O33146   5.037  11.179   0.521  0.0237  0.0500  0.1431
  987MOL0     C33147   5.037  11.061   0.425  0.2532 -0.3443 -0.1745
  987MOL0     C33148   4.918  11.091   0.333 -0.1308  0.0205 -0.5300
  987MOL0     C33149   4.781  11.080   0.402 -0.1068 -1.0867  0.2407
  987MOL0     C33150   4.683  11.021   0.309  0.2203  0.0581 -0.0792
  987MOL0     C33151   4.541  11.023   0.377 -0.7130 -0.2656  0.1784
  987MOL0     C33152   4.433  10.979   0.289  0.5589  0.4139  0.1427
  987MOL0     C33153   4.430  10.832   0.246 -0.1548 -0.2909  0.1916
  987MOL0     C33154   4.291  10.792   0.194 -0.6870 -0.3263 -0.0236
  987MOL0    Cl33155   4.208  10.911   0.085  0.7053  0.2515 -0.7218
  987MOL0     C33156   5.139  11.305   0.695  0.3143 -0.1001  0.4472
  987MOL0     C33157   5.239  11.329   0.787 -0.5709 -0.0632 -0.3135
  987MOL0     O33158   5.613  11.270   0.752  0.0683  0.1159  0.4946
  987MOL0     C33159   5.804  11.326   0.951  0.4196  0.3683  0.5096
  987MOL0     C33160   5.901  11.370   1.041 -0.0257 -0.4107  0.1207
  987MOL0     N33161   6.298  11.177   1.170 -0.5292  0.5153 -0.2891
  987MOL0     N33162   6.320  11.045   1.175  1.1880 -0.3208 -0.0290
  987MOL0     C33163   7.487  10.326   1.284  0.3461 -0.1724  0.5090
  987MOL0     C33164   7.622  10.286   1.308  0.1035 -0.1495  0.2332
  987MOL0     C33165   8.000  10.135   1.474  0.5097  0.2767 -0.2701
  987MOL0     C33166   8.033  10.018   1.412  0.1753 -0.3476 -0.5915
  987MOL0     C33167   8.152   9.950   1.442  0.9949 -0.6658  0.7223
  987MOL0     C33168   8.249  10.007   1.524 -0.1457 -0.0564 -0.8184
  987MOL0     O33169   8.365   9.935   1.553 -0.5008 -0.5527 -0.7685
  987MOL0     C33170   8.475  10.008   1.618  0.3849  0.2598  0.2248
  987MOL0     C33171   8.594   9.911   1.628  0.3830 -0.3195 -0.2220
  987MOL0     C33172   8.661   9.899   1.491  0.1206  0.2015  0.1403
  987MOL0     C33173   8.758   9.778   1.497 -0.3267 -0.5976  0.6822
  987MOL0     C33174   8.832   9.770   1.372  0.0254  0.0867  0.5767
  987MOL0     C33175   8.909   9.770   1.283 -0.5258 -0.1457  0.0919
  987MOL0     C33176   8.221  10.129   1.582  0.2918 -1.1368  0.0938
  987MOL0     C33177   8.099  10.188   1.558  1.2442 -0.0893  0.2019
  987MOL0     H33178   7.559   9.973   1.424  1.8062  1.3550  2.2260
  987MOL0     H33179   7.327  10.064   1.421  0.4017 -1.6749 -2.4348
  987MOL0     H33180   7.259  10.482   1.306  1.7324 -0.4473 -0.2201
  987MOL0     H33181   7.212  10.401   1.152 -0.1954  0.2892  0.2292
  987MOL0     H33182   6.987  10.354   1.230 -1.6053  0.4240 -0.3278
  987MOL0     H33183   7.023  10.403   1.395  0.1641  0.2057 -0.4717
  987MOL0     H33184   7.050  10.637   1.326  0.5161 -1.2994  2.6837
  987MOL0     H33185   7.016  10.593   1.155  0.5447  3.5863  0.3165
  987MOL0     H33186   6.792  10.470   1.256  0.2218  0.7823  0.1676
  987MOL0     H33187   6.821  10.552   1.400  1.4700  2.6760  0.9501
  987MOL0     H33188   6.843  10.768   1.233  1.3984 -0.4821  2.0085
  987MOL0     H33189   6.764  10.658   1.120  1.1452 -1.2253  0.1913
  987MOL0     H33190   6.582  10.631   1.253 -1.0728  0.2663  0.6561
  987MOL0     H33191   6.648  10.722   1.389  0.0277  1.8208 -0.7655
  987MOL0     H33192   6.649  10.933   1.251  0.5507  0.2009 -1.3058
  987MOL0     H33193   6.584  10.843   1.113 -0.4334 -0.9766  0.1133
  987MOL0     H33194   6.458  10.854   1.393 -2.5239 -0.9862  0.7909
  987MOL0     H33195   6.386  10.798   1.249 -1.6992  0.9239 -0.1758
  987MOL0     H33196   6.534  11.129   1.402 -0.6307 -0.8826  1.3359
  987MOL0     H33197   6.514  11.382   1.318  0.3259  2.6739 -1.4192
  987MOL0     H33198   6.394  11.425   1.201  1.0082 -1.6448  0.3034
  987MOL0     H33199   6.348  11.524   1.416  1.1157 -0.9156  3.8116
  987MOL0     H33200   6.338  11.371   1.500 -1.6632  1.6308 -0.1291
  987MOL0     H33201   6.123  11.458   1.474  2.6390  2.1765  0.2008
  987MOL0     H33202   6.147  11.292   1.423 -3.3081  0.5913 -1.5276
  987MOL0     H33203   6.125  11.329   1.190 -2.5901 -0.8664 -0.1493
  987MOL0     H33204   6.146  11.502   1.202  0.2165  0.4067 -0.2355
  987MOL0     H33205   5.708  11.389   1.315  2.5450  0.9016  0.7653
  987MOL0     H33206   5.437  11.396   1.109  0.1209 -1.4770 -1.7267
  987MOL0     H33207   5.443  11.223   1.142  1.6959 -0.1025 -0.6373
  987MOL0     H33208   5.471  11.344   1.273  1.0031 -2.9616  1.5770
  987MOL0     H33209   5.427  11.052   0.741  2.1717  1.0547 -3.6794
  987MOL0     H33210   5.249  11.001   0.582 -1.4245 -0.6775  0.8462
  987MOL0     H33211   5.126  11.065   0.361 -1.1599 -2.1819 -2.4398
  987MOL0     H33212   5.026  10.958   0.458 -4.8270 -0.9030 -2.7121
  987MOL0     H33213   4.928  11.194   0.297 -1.0475  1.0286  1.8430
  987MOL0     H33214   4.917  11.024   0.247 -3.3911  1.9889 -2.2405
  987MOL0     H33215   4.748  11.182   0.427  1.7121 -0.8964  2.1309
  987MOL0     H33216   4.787  11.017   0.490  3.8731  0.9467  1.6982
  987MOL0     H33217   4.680  11.081   0.217  0.1665  0.6324  0.2877
  987MOL0     H33218   4.714  10.918   0.291  2.0042  0.7563 -1.3070
  987MOL0     H33219   4.523  11.122   0.421  0.9097  0.2914 -0.3409
  987MOL0     H33220   4.535  10.949   0.457  0.8538  0.2062  0.7699
  987MOL0     H33221   4.337  10.994   0.341 -1.2435 -1.5385 -2.3979
  987MOL0     H33222   4.429  11.025   0.190 -0.3761 -1.3817 -0.6999
  987MOL0     H33223   4.450  10.773   0.336  0.7196 -1.3771 -0.6811
  987MOL0     H33224   4.512  10.810   0.176  1.1358  2.9196  0.5484
  987MOL0     H33225   4.237  10.796   0.289 -1.2640  1.8817 -0.3892
  987MOL0     H33226   4.288  10.690   0.155  1.0550 -1.6452  2.9164
  987MOL0     H33227   5.055  11.373   0.698 -1.1498 -1.8370  1.3868
  987MOL0     H33228   5.226  11.413   0.854 -3.3783 -2.8492  3.0176
  987MOL0     H33229   5.842  11.290   0.856  1.0605  1.8700  0.1598
  987MOL0     H33230   6.004  11.366   1.007 -0.0792  1.3061 -0.3096
  987MOL0     H33231   7.458  10.424   1.247  1.5152 -0.6129 -1.7784
  987MOL0     H33232   7.703  10.352   1.281 -1.9825  1.1748 -3.4497
  987MOL0     H33233   7.949   9.972   1.360  0.5739 -3.5860  1.4156
  987MOL0     H33234   8.159   9.846   1.410  3.4596 -0.4234  0.2548
  987MOL0     H33235   8.494  10.086   1.543 -2.5123 -1.9867 -3.1744
  987MOL0     H33236   8.456  10.051   1.717  1.1458 -2.7497  1.8050
  987MOL0     H33237   8.551   9.814   1.655  0.3094 -0.8707 -2.1720
  987MOL0     H33238   8.672   9.953   1.691  3.2035 -2.5982 -1.9402
  987MOL0     H33239   8.721   9.987   1.468  1.3057 -0.4603  0.6503
  987MOL0     H33240   8.582   9.878   1.417 -0.2940  0.1892  0.5839
  987MOL0     H33241   8.707   9.682   1.500 -2.5657  0.5060  0.4585
  987MOL0     H33242   8.826   9.775   1.582  1.8078  1.4582 -0.8427
  987MOL0     H33243   8.971   9.775   1.196 -2.0445 -1.1194 -1.1123
  987MOL0     H33244   8.286  10.165   1.661  0.0342 -1.4423  0.4480
  987MOL0     H33245   8.082  10.277   1.617  2.6152  0.8592 -0.7774
  988MOL0     O33246   8.442   4.959   5.489 -0.5494  0.2420 -0.6195
  988MOL0     C33247   8.485   4.925   5.604 -1.1217  0.1158  0.6481
  988MOL0     O33248   8.447   4.812   5.671 -0.0729 -0.0176 -0.3805
  988MOL0     C33249   8.361   4.719   5.611 -0.5780 -0.3179 -0.3894
  988MOL0     C33250   8.225   4.743   5.619  0.2557  0.6835  0.0464
  988MOL0     C33251   8.138   4.648   5.558  0.4739 -0.6179 -0.4554
  988MOL0     C33252   8.187   4.534   5.481 -0.9781 -0.2251  0.4342
  988MOL0     O33253   8.110   4.449   5.404 -0.1208  0.1939  0.4733
  988MOL0     C33254   7.971   4.443   5.424  0.7725 -0.1693  0.2218
  988MOL0     C33255   7.918   4.346   5.322 -0.0742  0.7898  0.0617
  988MOL0     C33256   7.954   4.387   5.177  0.5238  0.1248  0.0195
  988MOL0     C33257   7.941   4.535   5.142 -0.8436  0.4127  0.1878
  988MOL0     C33258   8.000   4.579   5.015  0.8168 -0.3025  0.4211
  988MOL0     C33259   7.926   4.710   4.973  0.0733  0.6261  0.4707
  988MOL0     C33260   7.953   4.753   4.832 -0.8103  0.5038  0.4616
  988MOL0     C33261   7.904   4.890   4.802 -0.4906 -0.1801  0.4867
  988MOL0     N33262   7.755   4.904   4.801 -0.4134  0.2789  0.4838
  988MOL0     C33263   7.676   4.859   4.701 -0.8585 -0.8729  0.6130
  988MOL0     C33264   7.550   4.896   4.736 -0.1830  0.3413  0.1685
  988MOL0     C33265   7.425   4.858   4.672 -0.2762 -0.4460 -0.4823
  988MOL0     C33266   7.437   4.892   4.520  0.2860  0.2142 -0.1013
  988MOL0     C33267   7.300   4.939   4.473 -0.3552  0.1052  0.1173
  988MOL0     C33268   7.252   5.076   4.528 -0.5177 -0.0039  0.2220
  988MOL0     O33269   7.172   5.145   4.427  0.1901  0.0435 -0.5369
  988MOL0     C33270   7.051   5.098   4.379  0.3089  0.1492 -0.1254
  988MOL0     C33271   6.978   4.997   4.433  0.1968 -0.3730  1.1698
  988MOL0     C33272   6.854   4.955   4.379 -0.4081 -0.5330 -0.0633
  988MOL0     C33273   6.775   4.846   4.457  0.3738  0.4532  1.1252
  988MOL0     C33274   6.799   5.024   4.268  0.1282 -0.1060 -0.5691
  988MOL0     C33275   6.674   4.992   4.196  0.2881 -0.7798  0.5931
  988MOL0     O33276   6.572   4.925   4.262  0.1212  0.5996  0.0555
  988MOL0     C33277   6.468   4.885   4.183  0.0140 -0.0613 -0.1653
  988MOL0     C33278   6.477   4.799   4.070 -0.5107  0.1812  0.8300
  988MOL0     C33279   6.371   4.760   3.995  0.6393 -0.5199  0.6862
  988MOL0     C33280   6.241   4.787   4.036  1.2601 -0.3557  0.8725
  988MOL0     O33281   6.139   4.734   3.955 -0.0026  0.2044  0.4722
  988MOL0     C33282   5.999   4.746   3.984  0.0785  0.0540  0.7591
  988MOL0     C33283   5.948   4.620   4.057 -0.0857  0.1016  0.6552
  988MOL0     C33284   5.793   4.606   4.027 -0.5790 -0.6171  0.2108
  988MOL0     C33285   5.700   4.715   4.080  0.1084  0.5232 -1.1185
  988MOL0     C33286   5.569   4.718   4.007 -0.1740 -0.1881 -1.1340
  988MOL0     C33287   5.492   4.834   4.063  0.5185  0.0510 -0.8453
  988MOL0     C33288   5.356   4.832   3.995  0.2781  0.4396  0.4694
  988MOL0     C33289   5.263   4.933   4.063 -0.2275 -0.2677  0.0832
  988MOL0    Cl33290   5.220   4.873   4.218 -0.1273 -0.0327 -0.3997
  988MOL0     C33291   6.221   4.861   4.152  0.4878 -1.0518  0.2564
  988MOL0     C33292   6.336   4.914   4.230 -0.0946  0.0446  0.6767
  988MOL0     O33293   6.650   5.052   4.095 -0.5586 -0.7678  0.3030
  988MOL0     C33294   6.885   5.125   4.213  0.1751  0.8814  0.3359
  988MOL0     C33295   7.016   5.148   4.258  0.2919 -1.0297  0.0527
  988MOL0     N33296   7.559   4.958   4.856  0.4247  0.4402  0.0293
  988MOL0     N33297   7.684   4.975   4.888 -0.6839  0.2559  0.3027
  988MOL0     C33298   8.328   4.512   5.491 -0.1462  1.0210 -0.2662
  988MOL0     C33299   8.408   4.604   5.560 -1.0378 -0.8133 -0.6521
  988MOL0     C33300   8.575   5.011   5.670 -0.0791 -0.4970 -0.0818
  988MOL0     C33301   8.629   5.121   5.605 -0.6364  1.0877  0.1268
  988MOL0     C33302   8.729   5.209   5.669  0.6697  0.2829 -0.1750
  988MOL0     C33303   8.763   5.185   5.805 -0.2080  0.4095 -0.2710
  988MOL0     O33304   8.845   5.269   5.870  0.0583  0.2167 -0.4133
  988MOL0     C33305   8.784   5.325   5.990 -1.2645 -0.1972 -0.4250
  988MOL0     C33306   8.892   5.368   6.096 -0.2285  0.0004 -0.1547
  988MOL0     C33307   9.005   5.273   6.123 -0.8123  0.2641 -0.7018
  988MOL0     C33308   8.963   5.134   6.144  0.2137  0.4419  0.4033
  988MOL0     C33309   9.085   5.053   6.160  0.8756 -0.5074  0.2099
  988MOL0     C33310   9.179   4.979   6.173 -0.7999  0.2843  0.3380
  988MOL0     C33311   8.706   5.075   5.867  0.3059 -0.6486 -0.0470
  988MOL0     C33312   8.619   4.988   5.804 -0.0566  0.6857 -0.7019
  988MOL0     H33313   8.194   4.828   5.678  1.1927  0.8027  0.3809
  988MOL0     H33314   8.032   4.663   5.546  0.2040 -2.2705 -0.4352
  988MOL0     H33315   7.968   4.400   5.525  0.5769 -0.5628  0.0500
  988MOL0     H33316   7.913   4.535   5.422  0.3496 -0.4423 -1.1850
  988MOL0     H33317   7.959   4.246   5.339  0.1827  0.8103 -0.4225
  988MOL0     H33318   7.810   4.350   5.333 -0.0027  1.4499  0.6483
  988MOL0     H33319   8.058   4.373   5.149  0.3203 -0.3708 -0.4930
  988MOL0     H33320   7.891   4.332   5.107  0.2174  1.4272 -0.7644
  988MOL0     H33321   7.833   4.551   5.131 -1.4031 -2.3446  0.8463
  988MOL0     H33322   7.968   4.609   5.218 -0.2728  2.5668 -1.9989
  988MOL0     H33323   8.108   4.591   5.024  0.9796 -0.7493 -0.8554
  988MOL0     H33324   7.980   4.507   4.936  0.5365  1.3078 -1.0430
  988MOL0     H33325   7.818   4.691   4.973  0.0964  0.3695  1.8424
  988MOL0     H33326   7.953   4.791   5.041 -1.2915  1.2762  0.2684
  988MOL0     H33327   8.060   4.757   4.810 -0.7956  0.8338  0.5950
  988MOL0     H33328   7.920   4.676   4.761  1.6230 -1.0172  0.8272
  988MOL0     H33329   7.940   4.916   4.702 -2.0085 -2.0891 -0.6189
  988MOL0     H33330   7.938   4.964   4.875 -1.7965  1.1359 -0.1834
  988MOL0     H33331   7.712   4.805   4.615  0.5492  1.2495 -0.2130
  988MOL0     H33332   7.420   4.750   4.687  6.4473 -0.8554  2.0070
  988MOL0     H33333   7.338   4.901   4.722 -0.0914  0.1336 -0.6506
  988MOL0     H33334   7.468   4.802   4.467  3.0508  0.4727  0.9199
  988MOL0     H33335   7.500   4.980   4.507  0.0580  0.9558  2.9307
  988MOL0     H33336   7.225   4.864   4.500 -1.3012  0.8601 -0.3736
  988MOL0     H33337   7.308   4.932   4.364  1.8944 -0.3538  0.2524
  988MOL0     H33338   7.334   5.144   4.550 -0.3601 -0.0260 -0.2878
  988MOL0     H33339   7.193   5.063   4.620  0.7808  0.8680  1.2086
  988MOL0     H33340   7.002   4.944   4.524 -0.6826 -1.3956  0.8206
  988MOL0     H33341   6.686   4.899   4.493  2.0316  0.7356  5.3883
  988MOL0     H33342   6.739   4.766   4.391 -1.6040  0.5544  2.0132
  988MOL0     H33343   6.824   4.808   4.547  1.2515  0.4091  0.6453
  988MOL0     H33344   6.571   4.759   4.034 -0.1069  0.2253  1.8207
  988MOL0     H33345   6.383   4.707   3.901 -0.3395  2.3064 -1.1471
  988MOL0     H33346   5.969   4.834   4.040 -1.7378 -0.2278  0.2976
  988MOL0     H33347   5.946   4.755   3.889 -0.0731  0.9417  0.9208
  988MOL0     H33348   6.001   4.534   4.017 -5.7351 -2.2671 -3.0107
  988MOL0     H33349   5.957   4.622   4.166  2.2676 -1.4666  0.5600
  988MOL0     H33350   5.768   4.511   4.076  1.3565 -0.8254  0.8981
  988MOL0     H33351   5.785   4.594   3.919  0.6009 -1.9676  0.2483
  988MOL0     H33352   5.682   4.693   4.186 -1.0078 -1.5369 -1.6739
  988MOL0     H33353   5.737   4.818   4.086 -2.2917  1.4476 -1.1926
  988MOL0     H33354   5.510   4.631   4.038  0.9061 -0.4946  0.1516
  988MOL0     H33355   5.570   4.723   3.898  0.4283  1.2079 -1.0728
  988MOL0     H33356   5.477   4.829   4.171 -0.2022  0.9746 -0.8863
  988MOL0     H33357   5.543   4.926   4.036  0.5634  0.9269  1.9408
  988MOL0     H33358   5.304   4.737   3.979 -1.0291  1.4282 -1.7343
  988MOL0     H33359   5.356   4.871   3.892 -0.4094 -0.5271  0.0931
  988MOL0     H33360   5.178   4.924   3.994  0.9418 -1.3763 -1.2856
  988MOL0     H33361   5.297   5.036   4.049 -1.4077 -0.3061 -4.9418
  988MOL0     H33362   6.119   4.888   4.178  0.7931 -0.2837  0.6765
  988MOL0     H33363   6.331   4.969   4.324  3.6687 -0.4981  1.3857
  988MOL0     H33364   6.852   5.156   4.114  1.1240 -0.8226 -0.5509
  988MOL0     H33365   7.070   5.225   4.204  0.5920 -2.8735 -2.4290
  988MOL0     H33366   8.380   4.430   5.443  0.3835  0.5744  1.0427
  988MOL0     H33367   8.516   4.597   5.573 -1.1146  1.3392  2.1961
  988MOL0     H33368   8.602   5.138   5.501 -1.0617  0.4737  0.1291
  988MOL0     H33369   8.770   5.283   5.601 -2.4067  3.6147  1.2910
  988MOL0     H33370   8.722   5.412   5.967 -2.9733 -0.9283  1.1875
  988MOL0     H33371   8.715   5.252   6.033 -0.1517 -0.2915  1.2750
  988MOL0     H33372   8.827   5.395   6.180 -2.8372  0.2514 -2.1070
  988MOL0     H33373   8.943   5.457   6.059 -0.0551 -0.6781 -1.6246
  988MOL0     H33374   9.051   5.302   6.218 -1.2581  4.3849 -1.5311
  988MOL0     H33375   9.074   5.279   6.038 -3.7334  0.0642 -3.2683
  988MOL0     H33376   8.912   5.109   6.051  0.2103 -0.5267  0.6544
  988MOL0     H33377   8.897   5.124   6.231 -1.1284  1.7463 -0.4158
  988MOL0     H33378   9.271   4.928   6.192  0.4957  2.0270 -0.9442
  988MOL0     H33379   8.730   5.049   5.970  0.3659  4.9899  1.7146
  988MOL0     H33380   8.588   4.904   5.866  0.4306  0.6280 -0.5321
  989MOL0     O33381   1.942   6.786   9.102 -0.3318  0.1662  0.3361
  989MOL0     C33382   2.019   6.711   9.169 -0.3677 -1.2044  0.1693
  989MOL0     O33383   1.994   6.651   9.285 -0.3682  0.3149 -0.3862
  989MOL0     C33384   1.877   6.668   9.353  0.2623 -0.0003 -0.8789
  989MOL0     C33385   1.752   6.694   9.301 -0.4520  0.7046 -0.2455
  989MOL0     C33386   1.646   6.725   9.387  0.1398  1.4277  0.2418
  989MOL0     C33387   1.656   6.734   9.526  1.3961 -0.4024  0.0959
  989MOL0     O33388   1.546   6.766   9.599  0.3074 -0.2851 -0.7271
  989MOL0     C33389   1.547   6.787   9.746 -0.1106  0.6175  0.1327
  989MOL0     C33390   1.424   6.863   9.795  0.6575  1.6285 -0.8214
  989MOL0     C33391   1.422   6.876   9.944 -0.1320 -0.0398  0.4412
  989MOL0     C33392   1.291   6.934   9.982 -0.6635 -0.0562  1.0704
  989MOL0     C33393   1.269   6.899  10.124 -0.0358  0.5078  0.1901
  989MOL0     C33394   1.144   6.970  10.186 -0.4213  0.0063  0.7611
  989MOL0     C33395   1.013   6.902  10.135  0.5043  0.0411 -0.4335
  989MOL0     C33396   0.894   6.938  10.221  0.7416  0.6284 -0.7357
  989MOL0     N33397   0.915   6.934  10.370  0.1691  0.5881 -0.1818
  989MOL0     C33398   0.907   6.813  10.439 -0.1278 -0.3623 -0.1927
  989MOL0     C33399   0.906   6.859  10.564 -0.5223 -0.1227 -0.2979
  989MOL0     C33400   0.862   6.773  10.683  0.1103 -0.0674  0.2389
  989MOL0     C33401   0.714   6.714  10.671 -0.4662  0.0787  0.9492
  989MOL0     C33402   0.600   6.813  10.709  0.1682  0.2905 -0.9406
  989MOL0     C33403   0.581   6.909  10.587 -0.1638  0.1173  0.1875
  989MOL0     O33404   0.448   6.949  10.584  0.6415  0.7492  0.1420
  989MOL0     C33405   0.351   6.879  10.520 -0.4236  0.0963  0.4505
  989MOL0     C33406   0.371   6.750  10.461 -0.2658 -0.2502 -0.7191
  989MOL0     C33407   0.264   6.682  10.392  0.2870 -0.1514  1.1785
  989MOL0     C33408   0.290   6.548  10.323 -0.8353  0.1892 -0.2215
  989MOL0     C33409   0.137   6.750  10.376  0.3259 -0.1787 -0.1154
  989MOL0     C33410   0.017   6.694  10.313 -0.5909  0.3155  0.7136
  989MOL0     O33411  -0.087   6.782  10.293  0.2590 -0.2580 -0.0252
  989MOL0     C33412  -0.218   6.749  10.275 -0.1035  0.3454 -0.3676
  989MOL0     C33413  -0.277   6.624  10.268 -0.4709  0.1987  0.4333
  989MOL0     C33414  -0.416   6.614  10.252 -0.6715  0.6109 -0.4480
  989MOL0     C33415  -0.498   6.723  10.245  1.1744 -0.4971 -0.6695
  989MOL0     O33416  -0.635   6.731  10.249 -0.3143 -0.5178  0.3020
  989MOL0     C33417  -0.702   6.631  10.327  0.4629  0.6410 -0.1605
  989MOL0     C33418  -0.759   6.702  10.453 -0.5274  0.8383 -0.1072
  989MOL0     C33419  -0.771   6.601  10.577  0.1943  0.7778 -0.4427
  989MOL0     C33420  -0.761   6.682  10.710  0.0777 -0.1499  0.1820
  989MOL0     C33421  -0.801   6.598  10.835  0.2955  1.7912 -0.0971
  989MOL0     C33422  -0.761   6.671  10.966  0.4608 -0.2084  0.2722
  989MOL0     C33423  -0.852   6.623  11.081 -0.8293 -0.2903 -0.8056
  989MOL0     C33424  -0.813   6.684  11.209  0.3044 -0.4074  0.5090
  989MOL0    Cl33425  -0.889   6.608  11.357 -0.0851 -0.1953  0.1559
  989MOL0     C33426  -0.442   6.849  10.246 -0.3763 -0.2071 -0.0378
  989MOL0     C33427  -0.299   6.865  10.263 -0.2848 -0.1923  0.5602
  989MOL0     O33428   0.009   6.568  10.295 -0.3963  0.7117 -0.5441
  989MOL0     C33429   0.125   6.879  10.434 -0.2649 -0.2523 -0.8567
  989MOL0     C33430   0.231   6.940  10.507 -0.0138 -0.2645  0.1587
  989MOL0     N33431   0.923   7.000  10.568  0.7471 -0.1167  0.2189
  989MOL0     N33432   0.927   7.044  10.447  0.1251  0.3872  0.2720
  989MOL0     C33433   1.781   6.700   9.579  0.0779  0.5733  0.1825
  989MOL0     C33434   1.890   6.657   9.496  0.4110 -0.0773 -0.3088
  989MOL0     C33435   2.157   6.702   9.130  0.6542 -0.4316 -0.2617
  989MOL0     C33436   2.209   6.755   9.019 -0.1779  0.3773  0.6302
  989MOL0     C33437   2.337   6.748   8.971  0.7434  0.1569  0.2331
  989MOL0     C33438   2.434   6.680   9.041 -0.2390 -0.0943 -0.3884
  989MOL0     O33439   2.562   6.688   8.995  0.4247  0.1592  0.3798
  989MOL0     C33440   2.680   6.637   9.070  0.0237  0.4077  1.2373
  989MOL0     C33441   2.717   6.491   9.023 -0.5925 -0.2558 -0.1944
  989MOL0     C33442   2.849   6.450   9.099  0.5521 -0.8877 -0.1481
  989MOL0     C33443   2.943   6.383   8.997 -0.1952 -0.3723  0.3507
  989MOL0     C33444   2.993   6.475   8.892  0.1265 -0.4013 -0.8006
  989MOL0     C33445   3.041   6.553   8.808  0.2743 -0.8169 -0.5960
  989MOL0     C33446   2.386   6.612   9.160  0.2437 -0.1101 -0.7166
  989MOL0     C33447   2.255   6.625   9.207  0.0099 -0.0060  0.8041
  989MOL0     H33448   1.738   6.684   9.194 -1.9812  1.8878 -0.2072
  989MOL0     H33449   1.544   6.747   9.357  1.1011  2.9933 -2.0983
  989MOL0     H33450   1.566   6.692   9.797  1.2402  0.7708 -0.0422
  989MOL0     H33451   1.631   6.850   9.778  1.2481 -0.6097 -0.8825
  989MOL0     H33452   1.414   6.964   9.755  0.0720  1.9516  0.1004
  989MOL0     H33453   1.338   6.803   9.765  1.0843  0.6481 -0.1423
  989MOL0     H33454   1.422   6.771   9.974 -1.3557 -1.2037 -3.0760
  989MOL0     H33455   1.508   6.927   9.989  0.2160 -1.2429  1.1855
  989MOL0     H33456   1.292   7.041   9.959 -1.0508 -0.6113 -1.8846
  989MOL0     H33457   1.207   6.892   9.926  0.5808 -0.6262 -0.4741
  989MOL0     H33458   1.254   6.793  10.150  1.4556  0.8524  2.8840
  989MOL0     H33459   1.359   6.933  10.175  0.9732  0.8625 -1.7576
  989MOL0     H33460   1.147   6.972  10.295 -2.6589  2.5086  0.8789
  989MOL0     H33461   1.148   7.068  10.137 -2.0521 -0.8715 -1.2774
  989MOL0     H33462   0.993   6.940  10.035  2.0161  4.3308  0.6361
  989MOL0     H33463   1.026   6.794  10.134 -0.7576 -0.2370  2.5855
  989MOL0     H33464   0.821   6.859  10.201  1.6749 -0.7951  1.2938
  989MOL0     H33465   0.852   7.036  10.195 -0.8921  0.5327  1.2346
  989MOL0     H33466   0.888   6.711  10.409  1.8237 -0.6797 -0.4964
  989MOL0     H33467   0.939   6.695  10.684 -0.6092 -0.8997  3.3823
  989MOL0     H33468   0.861   6.824  10.779 -3.1210  1.1954 -0.3541
  989MOL0     H33469   0.715   6.637  10.749 -3.5757 -0.1736  0.8503
  989MOL0     H33470   0.698   6.671  10.572 -1.3802 -0.6108  1.3771
  989MOL0     H33471   0.609   6.863  10.806 -0.5429 -2.8770  0.9105
  989MOL0     H33472   0.509   6.753  10.718 -1.0399  1.8080 -2.6742
  989MOL0     H33473   0.605   6.860  10.492 -1.8882 -2.5602  0.9846
  989MOL0     H33474   0.647   6.995  10.597 -0.3404  0.0474  2.2328
  989MOL0     H33475   0.459   6.688  10.457 -0.2686 -0.1753 -2.8716
  989MOL0     H33476   0.225   6.475  10.372 -0.5619 -0.3292 -0.6132
  989MOL0     H33477   0.276   6.549  10.214 -0.1923 -0.5764 -0.3226
  989MOL0     H33478   0.397   6.529  10.336 -1.1969 -1.5922  0.4011
  989MOL0     H33479  -0.215   6.536  10.250 -1.2842 -0.3408  0.2513
  989MOL0     H33480  -0.447   6.510  10.248  3.3455 -0.7898  0.7243
  989MOL0     H33481  -0.786   6.600  10.264 -0.8505  4.5512 -0.6052
  989MOL0     H33482  -0.639   6.546  10.351 -0.8212  0.1826  1.7761
  989MOL0     H33483  -0.693   6.786  10.475  1.5635 -0.6776 -0.3336
  989MOL0     H33484  -0.851   6.758  10.434  1.1249  2.4275 -5.4178
  989MOL0     H33485  -0.697   6.521  10.567  0.3171  0.8181  0.0920
  989MOL0     H33486  -0.873   6.562  10.567  1.0541 -0.9611 -3.3923
  989MOL0     H33487  -0.658   6.719  10.720  0.3429 -1.4872  5.0367
  989MOL0     H33488  -0.825   6.770  10.710  2.3063  1.6786 -3.4406
  989MOL0     H33489  -0.754   6.499  10.824  1.3741  2.2613  0.1203
  989MOL0     H33490  -0.908   6.577  10.824  0.1559  3.4394 -2.4738
  989MOL0     H33491  -0.657   6.652  10.993  1.6267  4.3601 -0.1940
  989MOL0     H33492  -0.777   6.777  10.949 -0.6319 -0.4992 -0.6813
  989MOL0     H33493  -0.849   6.515  11.096 -2.0018 -0.1748  0.4834
  989MOL0     H33494  -0.958   6.646  11.065 -1.6298 -0.3897  3.3382
  989MOL0     H33495  -0.829   6.792  11.214 -1.8747 -0.4683 -2.4055
  989MOL0     H33496  -0.706   6.663  11.219  0.2448 -1.5818 -0.9231
  989MOL0     H33497  -0.510   6.931  10.266  0.7214  1.2436 -1.9905
  989MOL0     H33498  -0.252   6.962  10.278  0.1109 -0.5611  1.8493
  989MOL0     H33499   0.030   6.931  10.429 -0.9402 -1.3268  0.3766
  989MOL0     H33500   0.204   7.037  10.548 -2.8706 -0.8933 -0.0036
  989MOL0     H33501   1.796   6.714   9.686 -1.5602  2.0286  0.2824
  989MOL0     H33502   1.989   6.635   9.533  0.1839  0.4711  0.6388
  989MOL0     H33503   2.143   6.816   8.958 -0.0598  1.1031  1.2212
  989MOL0     H33504   2.360   6.795   8.876 -0.7692  1.4963  0.4836
  989MOL0     H33505   2.773   6.693   9.057  0.5658 -0.8035 -0.3766
  989MOL0     H33506   2.672   6.637   9.179 -0.0349  1.9930  1.2564
  989MOL0     H33507   2.729   6.495   8.915 -1.2151  0.5274 -0.2447
  989MOL0     H33508   2.638   6.418   9.046 -0.1107 -1.1998 -1.4411
  989MOL0     H33509   2.828   6.375   9.175  0.0211 -0.8610 -0.2673
  989MOL0     H33510   2.898   6.541   9.137  1.3475 -1.0663 -0.7129
  989MOL0     H33511   2.892   6.299   8.948  0.8358 -0.6485 -0.2725
  989MOL0     H33512   3.029   6.343   9.051 -0.3526 -0.2622  0.6897
  989MOL0     H33513   3.092   6.605   8.730 -2.4235  2.1668 -0.5429
  989MOL0     H33514   2.456   6.554   9.219 -3.4006 -2.7841  1.4137
  989MOL0     H33515   2.218   6.571   9.293 -0.7561  1.4768  1.4585
  990MOL0     O33516  10.411   3.486   1.427 -0.8714  0.9420  0.0036
  990MOL0     C33517  10.423   3.599   1.375  0.5935 -0.2068 -0.1259
  990MOL0     O33518  10.312   3.680   1.357 -0.6335  0.3869  0.5981
  990MOL0     C33519  10.188   3.633   1.386 -0.6893  1.1254 -0.2692
  990MOL0     C33520  10.105   3.589   1.282  0.2002  0.9429 -0.2736
  990MOL0     C33521   9.978   3.539   1.304  0.1278  0.7865  0.5396
  990MOL0     C33522   9.919   3.552   1.428  0.2811  0.5528  0.3943
  990MOL0     O33523   9.783   3.541   1.433  0.6334  0.3385  0.6497
  990MOL0     C33524   9.736   3.438   1.521  0.7477 -0.3669  0.1801
  990MOL0     C33525   9.622   3.505   1.605  0.1105 -0.3757 -0.0284
  990MOL0     C33526   9.487   3.489   1.531 -0.5206  0.0560 -0.2784
  990MOL0     C33527   9.382   3.571   1.606  1.1740  0.4365  0.0581
  990MOL0     C33528   9.249   3.562   1.532 -0.4697 -0.2147  0.3887
  990MOL0     C33529   9.180   3.426   1.559 -0.2620 -0.1947 -0.4156
  990MOL0     C33530   9.067   3.401   1.457 -0.2976  0.3378  0.2169
  990MOL0     C33531   9.001   3.262   1.482  0.1807 -0.0115  0.9691
  990MOL0     N33532   8.905   3.243   1.374  0.1601 -0.0978  0.5160
  990MOL0     C33533   8.922   3.152   1.275  0.0212  0.2700  0.3630
  990MOL0     C33534   8.797   3.119   1.229  0.3616  0.1985 -0.9669
  990MOL0     C33535   8.749   3.041   1.114  0.2370  0.6155  0.7349
  990MOL0     C33536   8.610   2.985   1.142 -0.3607  0.2929 -0.3339
  990MOL0     C33537   8.568   2.873   1.046 -0.0005  1.0311 -0.3272
  990MOL0     C33538   8.418   2.823   1.073 -0.2339  0.3721 -0.8193
  990MOL0     O33539   8.384   2.708   0.986  0.1085  0.3687 -0.1802
  990MOL0     C33540   8.266   2.645   1.004  0.6435  1.0797  0.1110
  990MOL0     C33541   8.172   2.674   1.101  0.9638  0.8225 -0.7893
  990MOL0     C33542   8.058   2.585   1.130 -0.0936 -0.4429  0.2321
  990MOL0     C33543   7.969   2.618   1.251 -0.9511  0.0191 -0.3322
  990MOL0     C33544   8.032   2.486   1.032 -0.9398  0.8134  0.0338
  990MOL0     C33545   7.914   2.392   1.035  0.0134  0.2663  0.5027
  990MOL0     O33546   7.917   2.289   0.946 -0.2083  0.2378  1.1712
  990MOL0     C33547   7.828   2.185   0.949 -0.5050 -0.2944 -0.4726
  990MOL0     C33548   7.769   2.154   0.826 -0.2552 -0.2569 -0.7502
  990MOL0     C33549   7.671   2.052   0.829  0.5192  0.4455 -0.4023
  990MOL0     C33550   7.635   1.981   0.949 -0.2039 -0.5959 -0.7549
  990MOL0     O33551   7.532   1.888   0.950  0.2708 -0.3826  0.5426
  990MOL0     C33552   7.510   1.822   1.074 -0.3471 -0.3068 -0.0107
  990MOL0     C33553   7.376   1.744   1.061  0.5593  0.2410 -0.1202
  990MOL0     C33554   7.258   1.843   1.062  0.8308 -0.4695 -0.4549
  990MOL0     C33555   7.127   1.765   1.019  0.5983 -0.4179 -0.4255
  990MOL0     C33556   7.002   1.839   1.047 -0.4038 -0.0006 -1.1181
  990MOL0     C33557   6.876   1.762   0.991 -0.3369  0.1534 -0.1299
  990MOL0     C33558   6.754   1.842   1.039  0.3706  0.5932 -0.6548
  990MOL0     C33559   6.630   1.759   1.007 -0.8695  0.5704 -0.1387
  990MOL0    Cl33560   6.468   1.833   1.040 -0.0883  0.3611  0.1321
  990MOL0     C33561   7.688   2.027   1.070 -0.5695  0.2971 -0.4841
  990MOL0     C33562   7.790   2.125   1.071  0.2495  0.3725  0.6511
  990MOL0     O33563   7.827   2.414   1.117 -0.1688 -0.0444 -0.0503
  990MOL0     C33564   8.123   2.471   0.923  0.0718 -0.4857 -0.0396
  990MOL0     C33565   8.233   2.553   0.906  0.8634  0.5616  0.0613
  990MOL0     N33566   8.706   3.195   1.306  0.1254  0.0116  0.4312
  990MOL0     N33567   8.773   3.270   1.394 -0.3010  0.5300  0.2377
  990MOL0     C33568   9.994   3.597   1.534 -0.9578  0.0429  0.1300
  990MOL0     C33569  10.127   3.641   1.514  0.3546  0.0836  0.2435
  990MOL0     C33570  10.554   3.654   1.330 -0.0779 -0.7420  0.1240
  990MOL0     C33571  10.556   3.747   1.227 -0.3270  0.0619 -0.3491
  990MOL0     C33572  10.669   3.800   1.176  1.3329  0.2792  0.5376
  990MOL0     C33573  10.795   3.761   1.220  0.3311 -0.0587  0.4059
  990MOL0     O33574  10.903   3.822   1.165 -0.8465 -0.1771  0.3564
  990MOL0     C33575  10.899   3.954   1.106 -0.0544 -0.1084 -0.4543
  990MOL0     C33576  11.028   4.027   1.138  0.0587 -0.1160 -0.2576
  990MOL0     C33577  11.137   3.993   1.024  0.1756  0.5335  0.4078
  990MOL0     C33578  11.260   4.079   1.045  0.6783 -0.1940 -0.6918
  990MOL0     C33579  11.259   4.223   1.076 -0.1676 -1.2664 -0.2363
  990MOL0     C33580  11.286   4.341   1.104  0.1054 -0.5485  0.1713
  990MOL0     C33581  10.799   3.658   1.323 -0.2990  0.2556  0.3329
  990MOL0     C33582  10.675   3.600   1.375  0.2621 -0.3643 -0.5255
  990MOL0     H33583  10.138   3.594   1.179  2.2051  1.8976  0.3484
  990MOL0     H33584   9.905   3.514   1.227  1.6610  1.1759 -1.1228
  990MOL0     H33585   9.704   3.346   1.471  0.8972 -0.3745  0.0973
  990MOL0     H33586   9.818   3.403   1.585  0.8620 -1.2357 -0.4283
  990MOL0     H33587   9.611   3.450   1.699 -0.3067 -2.3619 -1.1931
  990MOL0     H33588   9.636   3.612   1.625  1.4359 -0.6026  0.3758
  990MOL0     H33589   9.499   3.515   1.425 -2.6768  1.0194 -0.3373
  990MOL0     H33590   9.456   3.384   1.540 -1.4708  0.2937 -0.7443
  990MOL0     H33591   9.372   3.527   1.706 -2.7401 -0.1061 -0.4226
  990MOL0     H33592   9.417   3.674   1.613  0.0974  0.8217  0.0339
  990MOL0     H33593   9.180   3.639   1.568 -0.7519 -0.5603  0.5942
  990MOL0     H33594   9.270   3.567   1.425 -2.8309 -3.2660 -0.3932
  990MOL0     H33595   9.253   3.345   1.549 -0.5602 -0.4295 -0.6960
  990MOL0     H33596   9.133   3.422   1.658 -0.1560 -1.2980 -0.3968
  990MOL0     H33597   8.993   3.482   1.457  0.2349  0.8409 -0.9467
  990MOL0     H33598   9.122   3.406   1.362  1.6946  0.5296  1.3319
  990MOL0     H33599   8.956   3.255   1.582 -0.3490 -2.4371  0.6242
  990MOL0     H33600   9.079   3.187   1.469 -0.9835 -0.9531 -1.0338
  990MOL0     H33601   9.018   3.115   1.240  0.0206  1.5494 -1.0860
  990MOL0     H33602   8.743   3.121   1.039  2.5197  2.7386  2.6745
  990MOL0     H33603   8.824   2.971   1.077  0.5238  1.7273 -0.9345
  990MOL0     H33604   8.549   3.076   1.147  2.7288  2.5888 -0.9500
  990MOL0     H33605   8.610   2.960   1.249  2.9892  3.0829  0.5078
  990MOL0     H33606   8.642   2.793   1.051 -0.4964  0.5855  0.0897
  990MOL0     H33607   8.565   2.913   0.944 -0.6999  2.3750  0.2013
  990MOL0     H33608   8.340   2.901   1.070 -0.9688 -0.2927  0.2334
  990MOL0     H33609   8.421   2.794   1.179 -0.4216  0.2055 -0.8594
  990MOL0     H33610   8.186   2.755   1.172 -0.6248 -0.6542  1.3290
  990MOL0     H33611   8.014   2.702   1.305  2.0026  0.5754 -3.3054
  990MOL0     H33612   7.877   2.666   1.213 -0.2687  1.6917  0.0163
  990MOL0     H33613   7.947   2.530   1.312 -1.6033 -1.7964 -2.9953
  990MOL0     H33614   7.800   2.217   0.744 -1.2115  0.9687 -0.2248
  990MOL0     H33615   7.612   2.026   0.742 -0.4445  3.9315 -0.9315
  990MOL0     H33616   7.588   1.753   1.105 -1.1566  0.4101  4.4036
  990MOL0     H33617   7.500   1.888   1.162  0.3856 -0.3627  0.1160
  990MOL0     H33618   7.381   1.693   0.964  1.2575 -2.3781  1.2120
  990MOL0     H33619   7.370   1.665   1.136 -0.9835  0.6385  0.2133
  990MOL0     H33620   7.273   1.925   0.991 -1.7736  1.5056  1.0744
  990MOL0     H33621   7.250   1.886   1.162  0.5992 -0.4600 -0.4775
  990MOL0     H33622   7.139   1.743   0.912 -2.5741  1.5808 -1.3237
  990MOL0     H33623   7.115   1.673   1.076 -1.5470 -0.4365 -0.8141
  990MOL0     H33624   7.013   1.939   1.002  0.4884  1.6499  2.4218
  990MOL0     H33625   6.993   1.856   1.154 -1.6830  0.1085 -1.2262
  990MOL0     H33626   6.890   1.756   0.883  1.6387  1.9095 -0.0412
  990MOL0     H33627   6.872   1.659   1.027 -0.3501 -0.0946 -0.8391
  990MOL0     H33628   6.735   1.929   0.976  1.0300  0.1984 -1.4237
  990MOL0     H33629   6.762   1.859   1.147 -0.1526  1.2037 -0.7044
  990MOL0     H33630   6.641   1.660   1.053  0.7954  0.0402 -1.5636
  990MOL0     H33631   6.641   1.729   0.903  1.6623 -0.8705  0.4608
  990MOL0     H33632   7.667   1.976   1.163 -1.0393 -1.1774 -1.3646
  990MOL0     H33633   7.837   2.157   1.163 -1.2616  1.8081  0.9832
  990MOL0     H33634   8.100   2.410   0.836 -1.5123 -0.1067  0.0798
  990MOL0     H33635   8.292   2.542   0.816 -1.5819  0.7396 -1.6565
  990MOL0     H33636   9.942   3.588   1.629  2.2486  0.4718  2.0522
  990MOL0     H33637  10.197   3.664   1.593 -0.9192 -2.3240  2.1925
  990MOL0     H33638  10.460   3.783   1.190 -0.5617  0.6635  0.7919
  990MOL0     H33639  10.659   3.880   1.103  0.3711 -1.1008 -0.8796
  990MOL0     H33640  10.884   3.948   0.998 -1.2805  1.4266 -0.4071
  990MOL0     H33641  10.819   4.007   1.158 -1.7862 -0.5308 -2.5724
  990MOL0     H33642  11.072   3.998   1.234 -1.4813 -1.5102  0.0740
  990MOL0     H33643  11.003   4.133   1.136  0.0137 -0.0441  1.7116
  990MOL0     H33644  11.097   4.016   0.925  0.2502  0.1189  0.2813
  990MOL0     H33645  11.167   3.888   1.023 -2.5291 -0.4079  3.1251
  990MOL0     H33646  11.318   4.058   0.955 -1.6885 -0.7193 -2.1791
  990MOL0     H33647  11.313   4.030   1.127 -2.5275 -2.1113  0.4205
  990MOL0     H33648  11.317   4.443   1.111  0.1170 -0.5482  0.1182
  990MOL0     H33649  10.898   3.621   1.347 -0.5159  0.2644  1.2713
  990MOL0     H33650  10.666   3.515   1.441 -3.1571 -0.2466 -0.6733
  991MOL0     O33651   6.114   3.206   4.574 -0.7743 -0.1425 -0.2300
  991MOL0     C33652   6.190   3.185   4.666 -0.1278 -0.6890  1.0995
  991MOL0     O33653   6.147   3.153   4.794  0.2959 -0.4125 -0.2688
  991MOL0     C33654   6.017   3.175   4.821 -0.3215  0.1105  0.3968
  991MOL0     C33655   5.926   3.078   4.819  0.3300  0.3121  0.2241
  991MOL0     C33656   5.788   3.106   4.838  0.5995  0.3389 -0.1332
  991MOL0     C33657   5.740   3.235   4.860  0.3450 -0.6902  0.0982
  991MOL0     O33658   5.607   3.272   4.876 -0.7680 -0.3046 -0.3448
  991MOL0     C33659   5.522   3.185   4.954 -0.7218 -0.1597 -0.2745
  991MOL0     C33660   5.383   3.254   4.959 -0.3465  0.6918 -0.4880
  991MOL0     C33661   5.396   3.383   5.033  0.4165 -0.0571 -0.4390
  991MOL0     C33662   5.254   3.450   5.041  0.8085  0.8349  0.3792
  991MOL0     C33663   5.237   3.553   5.160 -0.5127  0.6439  0.0038
  991MOL0     C33664   5.094   3.611   5.169 -0.8623  0.4703 -0.0557
  991MOL0     C33665   5.041   3.681   5.049 -0.8819  0.7688  0.4741
  991MOL0     C33666   4.908   3.721   5.080 -0.0537  0.0433  0.3261
  991MOL0     N33667   4.847   3.785   4.959  0.1838  0.6640 -0.1575
  991MOL0     C33668   4.818   3.724   4.839  0.0124 -0.9051  0.0817
  991MOL0     C33669   4.773   3.828   4.765 -0.1713  0.1089  1.0061
  991MOL0     C33670   4.732   3.815   4.620 -0.0925 -0.8350  0.6935
  991MOL0     C33671   4.581   3.797   4.611  0.3565  0.2395  0.4378
  991MOL0     C33672   4.494   3.898   4.686 -0.2534  0.0801 -0.5109
  991MOL0     C33673   4.509   4.048   4.633  0.9988 -0.0720 -0.1704
  991MOL0     O33674   4.456   4.054   4.496  0.2110 -0.6658 -0.5618
  991MOL0     C33675   4.325   4.061   4.457  0.1900 -0.5303 -0.3825
  991MOL0     C33676   4.307   4.086   4.321 -0.2057  0.1733 -0.8389
  991MOL0     C33677   4.174   4.097   4.263  0.1306 -0.3970  0.5548
  991MOL0     C33678   4.176   4.135   4.112 -0.0752  0.2769 -0.3560
  991MOL0     C33679   4.062   4.066   4.340  0.5390 -0.4204  0.9316
  991MOL0     C33680   3.916   4.075   4.294 -0.3267 -0.1741 -0.0893
  991MOL0     O33681   3.821   4.055   4.380  1.3996  0.2571  0.2502
  991MOL0     C33682   3.688   4.062   4.334  0.5717  0.5457  0.7758
  991MOL0     C33683   3.618   4.184   4.349  0.5520 -0.1112  0.2967
  991MOL0     C33684   3.485   4.186   4.299  0.0963 -0.9034  0.7368
  991MOL0     C33685   3.431   4.074   4.228 -0.0890  0.6958 -0.0898
  991MOL0     O33686   3.311   4.078   4.164  0.0855  0.4312  0.1837
  991MOL0     C33687   3.232   4.203   4.164 -0.6009 -0.2952 -0.0159
  991MOL0     C33688   3.100   4.162   4.110 -0.0265  0.7526 -0.0971
  991MOL0     C33689   3.004   4.281   4.088 -0.1629 -0.3947  0.3218
  991MOL0     C33690   2.903   4.292   4.204  0.5742 -0.5160 -0.4627
  991MOL0     C33691   2.823   4.418   4.227 -0.1787  0.3741  0.4538
  991MOL0     C33692   2.718   4.423   4.340  1.2070  0.4719  0.3765
  991MOL0     C33693   2.585   4.343   4.302 -0.4601  0.1043 -0.1216
  991MOL0     C33694   2.487   4.429   4.237  0.2161  0.3924  0.0579
  991MOL0    Cl33695   2.338   4.329   4.209  0.2170  0.3308 -0.0011
  991MOL0     C33696   3.508   3.957   4.212  1.0435  0.1573  0.3219
  991MOL0     C33697   3.634   3.950   4.265 -1.0092  0.1099 -0.5898
  991MOL0     O33698   3.902   4.116   4.177 -0.1911 -0.2037 -0.5818
  991MOL0     C33699   4.089   4.039   4.478  0.1714 -0.0152  0.2553
  991MOL0     C33700   4.211   4.048   4.537  0.4441 -0.1407  0.9786
  991MOL0     N33701   4.772   3.945   4.845  0.2105 -0.6841  0.2850
  991MOL0     N33702   4.805   3.915   4.965  0.2119 -0.3938  0.0577
  991MOL0     C33703   5.839   3.333   4.871 -0.4105 -0.3191 -0.1452
  991MOL0     C33704   5.976   3.307   4.844  0.4240  0.0476 -0.5377
  991MOL0     C33705   6.338   3.178   4.642 -0.6472  0.3936  0.1024
  991MOL0     C33706   6.397   3.172   4.519  0.2677 -0.2439  0.2922
  991MOL0     C33707   6.535   3.173   4.499  0.5340  0.0401 -0.2991
  991MOL0     C33708   6.618   3.186   4.612 -0.3332  0.0041  0.1147
  991MOL0     O33709   6.757   3.181   4.588 -0.2835  0.0506  0.1859
  991MOL0     C33710   6.863   3.232   4.687  0.1207 -0.2096  0.2072
  991MOL0     C33711   6.891   3.110   4.772  0.9546  0.3789  1.1727
  991MOL0     C33712   6.951   3.154   4.903 -0.5718 -0.3785 -0.6130
  991MOL0     C33713   7.088   3.221   4.875  0.5339 -0.3233 -0.3373
  991MOL0     C33714   7.173   3.132   4.793  0.4538 -0.3344 -0.0617
  991MOL0     C33715   7.242   3.055   4.730 -0.0536 -0.1936  0.1103
  991MOL0     C33716   6.564   3.203   4.738  0.6482  0.8829 -0.6833
  991MOL0     C33717   6.425   3.191   4.753  0.6493 -0.0894  0.2434
  991MOL0     H33718   5.964   2.979   4.797  5.4211  1.8065  0.8809
  991MOL0     H33719   5.718   3.024   4.828 -0.0477  0.8640  0.0528
  991MOL0     H33720   5.510   3.089   4.905 -4.9147 -0.1949  0.4583
  991MOL0     H33721   5.566   3.166   5.053 -2.6525  2.2535  1.1697
  991MOL0     H33722   5.353   3.266   4.855  2.3568  1.1904 -1.2672
  991MOL0     H33723   5.308   3.190   5.007 -1.2369  1.7072 -0.4975
  991MOL0     H33724   5.438   3.357   5.131 -3.5214 -0.3268  1.3777
  991MOL0     H33725   5.457   3.464   4.992  1.0352 -0.5964 -0.5911
  991MOL0     H33726   5.239   3.502   4.945 -1.8582 -1.1321 -0.3994
  991MOL0     H33727   5.184   3.366   5.045 -0.5264  1.8430 -0.7729
  991MOL0     H33728   5.263   3.494   5.248  0.3269  0.2431 -0.5032
  991MOL0     H33729   5.311   3.633   5.155  2.2554 -1.6776  0.7769
  991MOL0     H33730   5.023   3.532   5.195 -1.9472  0.3314 -3.0723
  991MOL0     H33731   5.093   3.681   5.254 -4.7903  1.2448 -0.5671
  991MOL0     H33732   5.090   3.777   5.028  0.6516 -0.1649 -0.3985
  991MOL0     H33733   5.039   3.623   4.956  2.7571 -0.4737  1.0008
  991MOL0     H33734   4.910   3.802   5.154 -1.8836  1.2076 -0.8045
  991MOL0     H33735   4.864   3.627   5.115  1.2649 -0.0785  1.7624
  991MOL0     H33736   4.835   3.624   4.800  1.9898 -1.1257  1.3678
  991MOL0     H33737   4.759   3.907   4.567 -1.0468  0.5631  2.5104
  991MOL0     H33738   4.782   3.727   4.577 -0.3916 -1.2167  1.1191
  991MOL0     H33739   4.556   3.701   4.657  0.1924  0.0463 -0.0466
  991MOL0     H33740   4.551   3.798   4.506  2.5383  0.2999 -0.2390
  991MOL0     H33741   4.520   3.895   4.792 -0.4882 -3.2249 -0.4443
  991MOL0     H33742   4.385   3.887   4.680 -0.5131  0.9490  1.6927
  991MOL0     H33743   4.616   4.072   4.632  1.0404 -0.2522 -0.0729
  991MOL0     H33744   4.454   4.124   4.689 -1.3142 -0.0362 -2.3180
  991MOL0     H33745   4.395   4.107   4.261  1.3625  2.8312  2.0987
  991MOL0     H33746   4.096   4.091   4.052 -0.5248  0.1125  0.3552
  991MOL0     H33747   4.180   4.244   4.104 -1.3925  0.3507 -0.2480
  991MOL0     H33748   4.264   4.103   4.055  1.2730  1.2010  1.1241
  991MOL0     H33749   3.653   4.265   4.411 -0.4844 -1.2405  2.4646
  991MOL0     H33750   3.442   4.286   4.305  2.8047  0.2837  3.7132
  991MOL0     H33751   3.231   4.241   4.267  3.5707  3.2824 -1.0086
  991MOL0     H33752   3.284   4.280   4.106 -0.2974 -0.1490  0.4406
  991MOL0     H33753   3.101   4.102   4.018 -1.8596  0.2872  0.1474
  991MOL0     H33754   3.062   4.092   4.185  1.4169  0.5459  0.4750
  991MOL0     H33755   2.949   4.260   3.996 -1.1827  2.7809  0.0662
  991MOL0     H33756   3.061   4.375   4.090  1.2326 -1.2029 -0.4187
  991MOL0     H33757   2.830   4.211   4.195  1.2398 -1.4858  2.0621
  991MOL0     H33758   2.955   4.266   4.297  1.1163  1.1280 -0.2734
  991MOL0     H33759   2.761   4.444   4.141 -2.6884 -2.3461  1.2791
  991MOL0     H33760   2.901   4.490   4.255  0.4978  0.2588 -1.0494
  991MOL0     H33761   2.765   4.382   4.429 -0.2214 -1.0743  0.4714
  991MOL0     H33762   2.704   4.529   4.363  1.5132  0.4808  0.5248
  991MOL0     H33763   2.545   4.321   4.402  2.2239 -3.1339  0.4487
  991MOL0     H33764   2.606   4.255   4.241 -0.6946  1.1529 -1.7618
  991MOL0     H33765   2.524   4.462   4.139 -3.1873 -0.4469 -1.6582
  991MOL0     H33766   2.474   4.509   4.311  3.7303 -0.9103  2.3446
  991MOL0     H33767   3.457   3.874   4.163 -0.2759 -0.6800  2.9192
  991MOL0     H33768   3.700   3.865   4.253 -0.8794  0.0303  0.5797
  991MOL0     H33769   4.009   4.022   4.549 -0.1827  0.8064  0.0657
  991MOL0     H33770   4.205   4.017   4.641 -0.0575 -0.5225  0.8423
  991MOL0     H33771   5.802   3.433   4.893 -0.8566 -0.2278 -1.2026
  991MOL0     H33772   6.055   3.382   4.840  0.0570  0.5614  1.2268
  991MOL0     H33773   6.331   3.161   4.433 -1.4017  2.1388  1.1494
  991MOL0     H33774   6.579   3.137   4.406 -1.0775 -0.1657 -1.0170
  991MOL0     H33775   6.951   3.275   4.640 -0.7271  1.3275 -0.0678
  991MOL0     H33776   6.809   3.309   4.744 -2.7449 -2.6108  1.0423
  991MOL0     H33777   6.951   3.043   4.710 -0.5558 -0.1456  0.2281
  991MOL0     H33778   6.797   3.059   4.793 -0.0790  2.0154  0.7147
  991MOL0     H33779   6.975   3.061   4.956  0.8865  0.0728 -0.4256
  991MOL0     H33780   6.890   3.208   4.976  0.0843  1.8549 -1.6250
  991MOL0     H33781   7.140   3.246   4.968  1.8300 -1.1099 -0.8130
  991MOL0     H33782   7.061   3.316   4.827 -0.7105 -0.2288  0.5381
  991MOL0     H33783   7.302   2.975   4.690 -0.7185  0.1639 -1.6699
  991MOL0     H33784   6.625   3.203   4.828 -1.3093  0.7803  0.7067
  991MOL0     H33785   6.371   3.206   4.846 -1.7540  1.8300 -1.3352
  992MOL0     O33786  11.239   4.816   4.905 -0.3948  0.1280 -0.3214
  992MOL0     C33787  11.292   4.766   5.007 -0.1958 -0.0671  0.2049
  992MOL0     O33788  11.231   4.746   5.129  0.6287 -0.1316  0.4505
  992MOL0     C33789  11.095   4.768   5.135  0.1233  0.7147  0.2122
  992MOL0     C33790  11.042   4.867   5.220  0.1712  0.9177  0.3532
  992MOL0     C33791  10.904   4.869   5.252 -0.2664  0.5824  0.2327
  992MOL0     C33792  10.810   4.793   5.183  0.1954 -0.8623 -1.0318
  992MOL0     O33793  10.674   4.794   5.208 -0.3108 -0.4013 -0.6039
  992MOL0     C33794  10.616   4.893   5.287 -0.3436  0.5680  0.0497
  992MOL0     C33795  10.468   4.857   5.309  1.0324  0.5238  0.1292
  992MOL0     C33796  10.385   4.979   5.346  0.0371  0.4689  0.4175
  992MOL0     C33797  10.252   4.952   5.405  1.3696 -0.1021  0.5101
  992MOL0     C33798  10.200   5.083   5.462  0.3999  0.5736  0.5103
  992MOL0     C33799  10.061   5.047   5.525  0.3271 -0.4319 -0.1807
  992MOL0     C33800  10.004   5.162   5.614  0.8312  0.0943  0.2119
  992MOL0     C33801   9.877   5.111   5.675 -0.2199  0.0101  0.0666
  992MOL0     N33802   9.781   5.212   5.712  0.9200 -0.2189  0.0488
  992MOL0     C33803   9.709   5.287   5.627 -0.3291  0.2357  0.1265
  992MOL0     C33804   9.604   5.338   5.700  0.2282  0.2759  0.2097
  992MOL0     C33805   9.496   5.429   5.653  0.6401 -0.7619 -0.3175
  992MOL0     C33806   9.539   5.567   5.708  0.6390  0.1270  0.1338
  992MOL0     C33807   9.438   5.670   5.665 -0.3808  0.9908 -0.0791
  992MOL0     C33808   9.393   5.667   5.517  0.4182 -0.0432  0.2779
  992MOL0     O33809   9.302   5.777   5.501  0.0024  0.3426 -0.7418
  992MOL0     C33810   9.172   5.758   5.541 -0.2587  0.1373  0.9108
  992MOL0     C33811   9.114   5.657   5.611  0.9325  0.2667  0.4099
  992MOL0     C33812   8.986   5.665   5.667  0.2272  0.5688 -0.9192
  992MOL0     C33813   8.929   5.535   5.714  0.0077 -0.5737 -0.2751
  992MOL0     C33814   8.923   5.788   5.667 -0.2275  0.1214  0.2460
  992MOL0     C33815   8.788   5.818   5.713  0.8636  0.4189 -0.6579
  992MOL0     O33816   8.697   5.714   5.734 -0.4019  0.0461 -0.1746
  992MOL0     C33817   8.571   5.743   5.786  0.1175 -0.0145  0.4787
  992MOL0     C33818   8.476   5.837   5.734  0.1852 -0.3903  0.6706
  992MOL0     C33819   8.340   5.841   5.784 -0.8284  0.8013  0.0486
  992MOL0     C33820   8.302   5.737   5.869 -0.3866 -0.1451 -0.2743
  992MOL0     O33821   8.163   5.726   5.899 -0.3726 -0.4585  0.6887
  992MOL0     C33822   8.100   5.592   5.883 -0.6039  1.1861 -0.8314
  992MOL0     C33823   7.944   5.600   5.879  0.3262 -0.3200 -0.2022
  992MOL0     C33824   7.883   5.638   6.011  0.1800  0.5850 -0.9009
  992MOL0     C33825   7.730   5.643   6.013 -0.5756 -0.9122 -0.6187
  992MOL0     C33826   7.681   5.784   5.981  0.8735 -0.1113  0.3139
  992MOL0     C33827   7.527   5.782   5.980  0.7207 -0.0037  0.1962
  992MOL0     C33828   7.476   5.926   5.977  0.0969  0.7693  0.8440
  992MOL0     C33829   7.318   5.919   5.967  0.1181 -0.4340 -0.8324
  992MOL0    Cl33830   7.235   6.061   6.043 -0.0495  0.0423 -0.1356
  992MOL0     C33831   8.390   5.638   5.913  0.3968  0.3146 -0.0912
  992MOL0     C33832   8.524   5.638   5.871 -0.7272  0.3241  0.1929
  992MOL0     O33833   8.762   5.932   5.746  0.8979 -0.2795 -0.8928
  992MOL0     C33834   8.987   5.897   5.604 -0.2137 -0.0147  0.3743
  992MOL0     C33835   9.106   5.874   5.542  0.2863  0.1265 -0.1870
  992MOL0     N33836   9.628   5.304   5.836 -0.1095  0.1540 -0.0454
  992MOL0     N33837   9.738   5.229   5.842  0.0543 -0.6035  0.0369
  992MOL0     C33838  10.864   4.692   5.106  0.4625 -0.1707  0.3083
  992MOL0     C33839  10.994   4.678   5.084 -0.9602 -0.0048  0.5962
  992MOL0     C33840  11.433   4.734   5.009 -0.6638  0.1774 -0.3364
  992MOL0     C33841  11.521   4.777   4.910 -0.6486  0.2209 -0.4775
  992MOL0     C33842  11.658   4.754   4.920 -0.1820  0.2819  0.4736
  992MOL0     C33843  11.711   4.683   5.030  0.1138  0.7781  0.4781
  992MOL0     O33844  11.844   4.678   5.046  0.2490 -0.0979  0.5000
  992MOL0     C33845  11.922   4.618   4.940  0.2148 -0.9445  0.5715
  992MOL0     C33846  11.881   4.479   4.900 -0.2641  0.7393 -0.2237
  992MOL0     C33847  12.000   4.400   4.847 -0.5406  0.2139  0.0728
  992MOL0     C33848  12.060   4.470   4.728 -0.5470  0.1088  0.0282
  992MOL0     C33849  12.184   4.397   4.683  0.6667 -0.7995  0.5422
  992MOL0     C33850  12.278   4.332   4.652 -0.0385  0.1190 -0.5164
  992MOL0     C33851  11.623   4.620   5.121  0.0186  0.1360  0.4992
  992MOL0     C33852  11.487   4.649   5.112  0.5161 -0.2935 -0.3921
  992MOL0     H33853  11.111   4.933   5.272  0.6619  0.6620  0.0294
  992MOL0     H33854  10.879   4.949   5.321  0.5426  2.1696 -1.2374
  992MOL0     H33855  10.659   4.895   5.387 -1.3165  1.4576  0.4683
  992MOL0     H33856  10.626   4.986   5.229  0.2671  0.2576 -0.3456
  992MOL0     H33857  10.410   4.810   5.228  0.8869 -1.4843  1.3361
  992MOL0     H33858  10.469   4.776   5.382  0.5150 -1.0552 -1.5227
  992MOL0     H33859  10.436   5.034   5.425 -1.8838 -1.0533  2.8764
  992MOL0     H33860  10.378   5.046   5.259 -0.7059 -0.1054  0.0216
  992MOL0     H33861  10.187   4.906   5.330 -2.4538 -0.8301  3.8882
  992MOL0     H33862  10.260   4.874   5.481 -2.0303 -1.7178 -0.5813
  992MOL0     H33863  10.268   5.116   5.541  1.4106  2.7428 -1.1701
  992MOL0     H33864  10.188   5.159   5.385 -3.4290  0.8612  1.1944
  992MOL0     H33865   9.991   5.028   5.443 -1.8193  2.5951  0.7770
  992MOL0     H33866  10.071   4.953   5.579  1.4238 -2.0762 -2.9868
  992MOL0     H33867  10.074   5.184   5.694  1.7895 -0.4086 -0.4652
  992MOL0     H33868   9.985   5.252   5.554  1.0628  1.1083  1.6222
  992MOL0     H33869   9.903   5.045   5.758 -0.8903 -1.2071 -0.6652
  992MOL0     H33870   9.830   5.044   5.603  0.2790 -0.0786 -0.1822
  992MOL0     H33871   9.736   5.290   5.521 -0.0115 -1.5863  0.1188
  992MOL0     H33872   9.494   5.418   5.545 -1.1582 -2.7692 -0.1663
  992MOL0     H33873   9.399   5.405   5.699 -0.0650 -2.2666 -2.4538
  992MOL0     H33874   9.638   5.590   5.668  0.1064  2.2468 -0.0888
  992MOL0     H33875   9.532   5.575   5.817 -0.1421  2.5018 -0.0287
  992MOL0     H33876   9.468   5.769   5.699  3.7756 -0.1981  0.2761
  992MOL0     H33877   9.340   5.655   5.712 -1.0036  2.6764 -0.7444
  992MOL0     H33878   9.342   5.573   5.491 -1.0455  0.7890  0.0498
  992MOL0     H33879   9.476   5.693   5.451 -0.5040 -0.8236 -1.2416
  992MOL0     H33880   9.169   5.567   5.636  0.0081 -0.2319  0.6805
  992MOL0     H33881   8.864   5.561   5.797  0.0175  1.8343 -0.9343
  992MOL0     H33882   8.875   5.494   5.628 -3.4784 -0.2264  1.5722
  992MOL0     H33883   9.013   5.487   5.766  1.3322  2.1135  0.2575
  992MOL0     H33884   8.516   5.895   5.652  2.3585  1.0313  2.6394
  992MOL0     H33885   8.262   5.910   5.752 -1.7443  1.0635  2.6056
  992MOL0     H33886   8.147   5.540   5.800  0.3306  2.1663 -0.9310
  992MOL0     H33887   8.127   5.539   5.975  4.0390  2.0895 -1.4413
  992MOL0     H33888   7.911   5.667   5.799 -2.6693 -1.5562 -0.1376
  992MOL0     H33889   7.895   5.506   5.849 -1.8687  1.0125 -1.0577
  992MOL0     H33890   7.926   5.732   6.047 -0.6925 -0.5911  3.9345
  992MOL0     H33891   7.917   5.560   6.081 -1.0148  0.5317 -0.3626
  992MOL0     H33892   7.693   5.561   5.950 -1.6030 -2.6689  2.0590
  992MOL0     H33893   7.699   5.627   6.117  0.1949  2.9133  0.3449
  992MOL0     H33894   7.719   5.816   5.884  0.8843 -2.4757 -0.5117
  992MOL0     H33895   7.714   5.852   6.061 -1.1640 -0.8443  1.8772
  992MOL0     H33896   7.481   5.725   5.899  2.0452 -1.2630  0.2889
  992MOL0     H33897   7.486   5.745   6.074 -1.2280  0.9232 -0.2430
  992MOL0     H33898   7.500   5.997   5.898  0.0853 -0.1027  0.0333
  992MOL0     H33899   7.504   5.969   6.074 -1.8697  0.1826  1.7326
  992MOL0     H33900   7.283   5.826   6.011  1.9775 -1.4489 -1.3704
  992MOL0     H33901   7.290   5.919   5.861 -0.0449 -0.1647 -0.7901
  992MOL0     H33902   8.359   5.566   5.989  1.5181 -2.7321 -2.3245
  992MOL0     H33903   8.605   5.572   5.900 -0.9333 -0.7284 -1.4747
  992MOL0     H33904   8.939   5.992   5.582  0.6009 -0.0439 -1.7166
  992MOL0     H33905   9.144   5.962   5.492  2.3503 -2.0395 -2.7730
  992MOL0     H33906  10.790   4.619   5.074 -1.9482  2.8967 -1.7054
  992MOL0     H33907  11.036   4.593   5.030  0.1393  0.9744 -0.1269
  992MOL0     H33908  11.488   4.850   4.836 -2.7140 -1.3254 -1.1937
  992MOL0     H33909  11.719   4.799   4.843  1.4471  0.5074  1.8439
  992MOL0     H33910  11.923   4.674   4.846  0.3933  1.2529  1.8135
  992MOL0     H33911  12.023   4.608   4.981  0.3562 -1.4637  0.1058
  992MOL0     H33912  11.807   4.492   4.820  1.0863  1.3760 -1.4070
  992MOL0     H33913  11.827   4.430   4.982  0.5191  0.5541  0.1849
  992MOL0     H33914  11.975   4.297   4.821  3.0021 -0.5003 -1.0862
  992MOL0     H33915  12.074   4.389   4.927  0.5249  0.0599 -0.9105
  992MOL0     H33916  12.084   4.574   4.752 -0.7850 -0.2083  1.7793
  992MOL0     H33917  11.990   4.471   4.644 -0.0815 -0.8696 -0.3821
  992MOL0     H33918  12.353   4.260   4.627 -0.9000 -0.6942 -0.7995
  992MOL0     H33919  11.662   4.551   5.196 -1.6600 -0.7881  0.5763
  992MOL0     H33920  11.425   4.596   5.184  0.7152 -0.8852 -0.6502
  993MOL0     O33921   5.208   6.897   1.072 -0.2418 -0.1504  0.4673
  993MOL0     C33922   5.260   6.942   1.181 -0.3433  1.0467  0.6316
  993MOL0     O33923   5.206   7.043   1.259 -0.1837  0.6350  0.0969
  993MOL0     C33924   5.082   7.087   1.221  0.4216  0.9601 -0.0381
  993MOL0     C33925   4.960   7.020   1.246 -0.1682 -0.0449  0.1004
  993MOL0     C33926   4.828   7.069   1.207 -0.4116 -0.2501 -0.1580
  993MOL0     C33927   4.818   7.194   1.141 -0.2182  0.8006 -0.5245
  993MOL0     O33928   4.700   7.254   1.099  0.2837 -0.2771  0.0349
  993MOL0     C33929   4.582   7.169   1.079 -0.4242 -0.1229 -0.0137
  993MOL0     C33930   4.451   7.198   1.154  0.2641 -0.1486 -0.6856
  993MOL0     C33931   4.464   7.201   1.309 -0.2131 -0.1822 -0.2744
  993MOL0     C33932   4.336   7.248   1.370 -0.4243 -0.0089  0.3400
  993MOL0     C33933   4.338   7.262   1.525  0.5830 -0.8736  0.2363
  993MOL0     C33934   4.190   7.290   1.569 -0.9350 -0.7829  0.3176
  993MOL0     C33935   4.159   7.253   1.718  0.2846 -0.1986 -0.1568
  993MOL0     C33936   4.256   7.340   1.814 -0.8040  0.3733 -0.8137
  993MOL0     N33937   4.192   7.339   1.945 -0.3123 -0.2684  0.2412
  993MOL0     C33938   4.206   7.239   2.043  0.3489 -0.0402 -0.4236
  993MOL0     C33939   4.128   7.271   2.137  1.2408  0.2068 -0.4930
  993MOL0     C33940   4.100   7.199   2.267  0.9694 -0.1179 -0.6458
  993MOL0     C33941   4.068   7.053   2.229  0.0249 -0.2453 -0.3474
  993MOL0     C33942   4.016   6.965   2.348  0.7301 -0.7706 -0.3276
  993MOL0     C33943   3.860   6.969   2.340  0.2012 -0.2679 -0.1309
  993MOL0     O33944   3.813   6.895   2.462 -0.7852 -0.4562  0.3631
  993MOL0     C33945   3.720   6.796   2.450  0.3511  0.8247 -0.7621
  993MOL0     C33946   3.745   6.678   2.523  0.4011 -0.0089  1.0466
  993MOL0     C33947   3.644   6.582   2.533  0.4605  0.1597 -1.0161
  993MOL0     C33948   3.683   6.466   2.621 -0.4190 -0.4173 -0.9041
  993MOL0     C33949   3.521   6.597   2.466  0.3728 -0.5991  0.4155
  993MOL0     C33950   3.399   6.519   2.484 -0.7485  0.0242 -0.3831
  993MOL0     O33951   3.283   6.557   2.413  0.8311 -0.0893 -0.2013
  993MOL0     C33952   3.161   6.527   2.470  0.0859 -1.2230 -0.2315
  993MOL0     C33953   3.048   6.495   2.388  0.2668 -0.7460 -0.6175
  993MOL0     C33954   2.916   6.469   2.436  0.1949  0.4643  0.3942
  993MOL0     C33955   2.891   6.481   2.572  0.2673  0.7132 -0.0640
  993MOL0     O33956   2.774   6.456   2.647 -0.3150  0.3339 -0.3751
  993MOL0     C33957   2.664   6.409   2.579 -0.2850  0.0809  1.5348
  993MOL0     C33958   2.565   6.360   2.686  0.3038 -0.3643 -0.0814
  993MOL0     C33959   2.432   6.312   2.617  0.1186  0.0865 -0.6348
  993MOL0     C33960   2.335   6.284   2.733  0.4459  0.9374  0.1282
  993MOL0     C33961   2.182   6.269   2.686 -0.2923  0.6862 -0.3401
  993MOL0     C33962   2.093   6.240   2.812  0.0758 -0.7041  0.3735
  993MOL0     C33963   2.059   6.372   2.883 -0.7888 -0.8208  0.4891
  993MOL0     C33964   1.959   6.358   3.001 -0.1515  0.2390  0.2096
  993MOL0    Cl33965   1.958   6.492   3.113  0.1526 -0.2596  0.4051
  993MOL0     C33966   3.002   6.512   2.658 -0.5007  0.5868  0.0594
  993MOL0     C33967   3.136   6.523   2.604  0.0217 -0.0909 -0.4798
  993MOL0     O33968   3.408   6.426   2.562 -0.4354 -0.1698 -0.1632
  993MOL0     C33969   3.511   6.709   2.374  1.6696  0.3197 -0.1775
  993MOL0     C33970   3.603   6.807   2.378  0.8689  0.5678 -0.0412
  993MOL0     N33971   4.054   7.382   2.103  0.2239  0.0497  0.1354
  993MOL0     N33972   4.100   7.434   1.993 -0.1469 -0.0029 -0.0121
  993MOL0     C33973   4.943   7.262   1.119 -0.1457 -0.2765  0.2349
  993MOL0     C33974   5.072   7.204   1.147 -0.0332 -0.6105 -0.4459
  993MOL0     C33975   5.392   6.899   1.225  0.1487 -0.4217 -0.4828
  993MOL0     C33976   5.464   6.946   1.341  0.9677 -0.1811  1.0449
  993MOL0     C33977   5.596   6.908   1.362 -0.1173 -0.6540  0.2834
  993MOL0     C33978   5.663   6.804   1.276 -0.1366 -0.8110  0.0508
  993MOL0     O33979   5.796   6.767   1.294  0.2973  0.4467  0.7582
  993MOL0     C33980   5.883   6.813   1.194  0.4112  0.4460 -0.3087
  993MOL0     C33981   5.995   6.905   1.246  0.2415 -0.6154 -0.5341
  993MOL0     C33982   6.126   6.922   1.163 -0.0045  0.9164 -0.4033
  993MOL0     C33983   6.208   6.789   1.180 -0.2353 -0.2567 -0.1050
  993MOL0     C33984   6.327   6.797   1.101 -0.3302  0.2104  0.0711
  993MOL0     C33985   6.434   6.799   1.047 -0.5738 -0.0142  0.8153
  993MOL0     C33986   5.585   6.756   1.173 -0.1022 -0.1469  0.1492
  993MOL0     C33987   5.449   6.799   1.148  0.2653  0.6361 -0.2443
  993MOL0     H33988   4.970   6.924   1.294  1.5102 -0.4415 -0.9781
  993MOL0     H33989   4.742   7.010   1.237 -2.9012  2.8090 -0.7918
  993MOL0     H33990   4.572   7.180   0.971  0.1552 -0.3455 -0.0978
  993MOL0     H33991   4.597   7.061   1.091 -0.6474 -0.0427  1.1283
  993MOL0     H33992   4.413   7.299   1.131 -1.8957 -0.6460  0.4093
  993MOL0     H33993   4.381   7.117   1.132  0.8820 -1.3119  1.4030
  993MOL0     H33994   4.509   7.110   1.352  2.6344  1.7328  1.0888
  993MOL0     H33995   4.537   7.280   1.326 -0.7169 -0.0248  1.3864
  993MOL0     H33996   4.314   7.346   1.326 -1.9669 -1.6962 -3.0377
  993MOL0     H33997   4.256   7.179   1.341 -1.8606  1.1641  1.4062
  993MOL0     H33998   4.357   7.161   1.564 -0.4779 -0.8895  0.7612
  993MOL0     H33999   4.400   7.348   1.548 -1.5982  0.5300  1.2539
  993MOL0     H34000   4.160   7.394   1.553  2.8363  0.4163  0.1054
  993MOL0     H34001   4.131   7.211   1.521  1.3150 -1.8537 -0.8641
  993MOL0     H34002   4.054   7.275   1.741  0.1426 -0.6984 -0.3080
  993MOL0     H34003   4.166   7.147   1.742  1.0267  0.0115  0.6006
  993MOL0     H34004   4.278   7.443   1.785  1.2021  0.9448  2.2599
  993MOL0     H34005   4.356   7.298   1.811 -0.6281  0.5582  1.1122
  993MOL0     H34006   4.275   7.155   2.038  1.2789  0.7428 -1.0131
  993MOL0     H34007   4.190   7.195   2.329  0.4641 -1.9795  0.0573
  993MOL0     H34008   4.019   7.243   2.327  2.6989 -1.7636  3.2425
  993MOL0     H34009   4.169   7.016   2.211  0.1635 -2.5887  3.8774
  993MOL0     H34010   3.995   7.045   2.148  0.5142 -1.2526 -0.6929
  993MOL0     H34011   4.050   7.006   2.443  0.0277 -0.3544 -0.2497
  993MOL0     H34012   4.053   6.863   2.339 -2.8843 -2.1626 -1.2103
  993MOL0     H34013   3.818   6.933   2.245  1.8480 -0.6272 -0.7638
  993MOL0     H34014   3.835   7.075   2.333  0.9456 -0.0871 -0.0987
  993MOL0     H34015   3.844   6.672   2.568  0.6021  2.2476  0.9718
  993MOL0     H34016   3.611   6.456   2.702 -0.5492 -1.2275 -1.1145
  993MOL0     H34017   3.686   6.370   2.570  0.2675 -1.3613  0.8209
  993MOL0     H34018   3.778   6.480   2.674 -1.7627 -0.5932  1.7448
  993MOL0     H34019   3.051   6.498   2.279 -3.2812  0.9576 -0.8033
  993MOL0     H34020   2.837   6.450   2.365 -1.0746  3.1700  0.9601
  993MOL0     H34021   2.621   6.479   2.507  1.6063 -0.8859 -0.6710
  993MOL0     H34022   2.685   6.316   2.525 -1.6125  1.5322 -1.7058
  993MOL0     H34023   2.619   6.281   2.739  4.6517  1.4735 -1.3354
  993MOL0     H34024   2.532   6.437   2.756 -0.7240 -1.8917  1.2039
  993MOL0     H34025   2.448   6.227   2.549 -0.1626 -0.6473  0.1936
  993MOL0     H34026   2.376   6.392   2.569 -2.2201 -0.4329  1.0142
  993MOL0     H34027   2.381   6.204   2.793  2.0863 -0.9343 -3.3116
  993MOL0     H34028   2.338   6.359   2.812 -0.3965 -0.6425  1.7254
  993MOL0     H34029   2.167   6.179   2.625 -0.6470  0.0479  0.6677
  993MOL0     H34030   2.145   6.355   2.629  1.6431  0.3399 -2.2460
  993MOL0     H34031   2.000   6.186   2.791  0.1864 -0.2377 -1.4448
  993MOL0     H34032   2.146   6.173   2.881 -0.5582 -0.8823  0.7009
  993MOL0     H34033   2.015   6.443   2.813  0.2518 -0.8605 -0.2372
  993MOL0     H34034   2.150   6.421   2.919 -0.0885  0.3216 -2.5109
  993MOL0     H34035   1.979   6.267   3.059  2.2209  0.8341  0.4328
  993MOL0     H34036   1.855   6.342   2.970  0.3964 -2.7462 -0.4027
  993MOL0     H34037   2.976   6.518   2.763  0.3863 -0.2142  0.3295
  993MOL0     H34038   3.219   6.545   2.671  0.6638  0.1880 -1.3418
  993MOL0     H34039   3.424   6.723   2.311  1.9056  0.8818 -0.3790
  993MOL0     H34040   3.588   6.900   2.323  0.6678 -0.0211 -1.0003
  993MOL0     H34041   4.933   7.364   1.083 -2.0744  1.2963  4.4863
  993MOL0     H34042   5.166   7.255   1.132  1.0850 -1.6327  2.3705
  993MOL0     H34043   5.420   7.025   1.400  1.4864 -0.2256  1.5019
  993MOL0     H34044   5.649   6.955   1.443 -1.2743  0.3728  0.4778
  993MOL0     H34045   5.930   6.725   1.148 -1.6548 -0.2757 -1.1449
  993MOL0     H34046   5.827   6.862   1.114 -1.1206 -0.7234 -0.0006
  993MOL0     H34047   6.019   6.877   1.349  0.2818  1.2338 -0.0059
  993MOL0     H34048   5.940   6.999   1.252 -1.5270 -1.6589  0.5129
  993MOL0     H34049   6.186   7.001   1.210  1.5328 -1.0487  1.0965
  993MOL0     H34050   6.109   6.953   1.060 -0.3820 -0.6271 -0.8265
  993MOL0     H34051   6.153   6.698   1.155 -0.0005 -0.9598  1.7374
  993MOL0     H34052   6.239   6.791   1.285  0.1138  0.2883 -0.2158
  993MOL0     H34053   6.536   6.808   1.014 -0.8597 -1.7904 -0.7166
  993MOL0     H34054   5.630   6.678   1.113  1.0857  0.0658  0.7391
  993MOL0     H34055   5.403   6.763   1.056  0.8691  2.4068 -1.2924
  994MOL0     O34056  10.915   5.997   2.236  0.4064  0.0435  1.0017
  994MOL0     C34057  10.896   5.894   2.169 -0.3024 -0.6398 -0.3231
  994MOL0     O34058  10.786   5.858   2.097  0.1623 -0.0411  0.2052
  994MOL0     C34059  10.677   5.944   2.087 -0.5788 -0.0690  1.0846
  994MOL0     C34060  10.554   5.879   2.062 -0.2762 -0.1203  0.9649
  994MOL0     C34061  10.440   5.956   2.038  0.0913 -0.3596 -0.5083
  994MOL0     C34062  10.440   6.100   2.060  0.6320 -0.2280 -0.2870
  994MOL0     O34063  10.342   6.190   2.049  0.6438 -0.2921  0.1778
  994MOL0     C34064  10.211   6.142   2.006 -0.1184 -0.0801 -0.5984
  994MOL0     C34065  10.117   6.072   2.108  0.3231 -0.9973 -0.0006
  994MOL0     C34066  10.086   6.168   2.228 -0.2684 -0.0065  0.4051
  994MOL0     C34067  10.208   6.164   2.322  1.2426  1.2462 -0.0974
  994MOL0     C34068  10.181   6.178   2.476 -0.9791 -0.0757  0.2743
  994MOL0     C34069  10.126   6.322   2.494 -0.2404 -0.5101 -0.4486
  994MOL0     C34070  10.071   6.347   2.630 -0.1632  0.6572 -0.2853
  994MOL0     C34071   9.942   6.275   2.653  1.0750 -0.0642  0.1176
  994MOL0     N34072   9.829   6.366   2.655  0.8547  0.2286  0.1495
  994MOL0     C34073   9.792   6.452   2.749 -0.2140 -0.4345 -0.7912
  994MOL0     C34074   9.677   6.509   2.710  0.2012 -0.1139  0.3410
  994MOL0     C34075   9.610   6.618   2.790 -0.1883  0.4178 -0.4075
  994MOL0     C34076   9.534   6.558   2.912 -0.6435 -0.2775  0.5708
  994MOL0     C34077   9.489   6.665   3.014  0.4935 -0.6636 -0.2150
  994MOL0     C34078   9.422   6.594   3.134 -0.2161  0.1316 -0.6816
  994MOL0     O34079   9.347   6.690   3.207 -0.1555  0.2325 -0.2790
  994MOL0     C34080   9.210   6.690   3.199 -0.1079 -0.3515 -0.0334
  994MOL0     C34081   9.142   6.726   3.319  0.3263  0.4116 -0.7756
  994MOL0     C34082   8.996   6.728   3.318 -0.1748  0.3970 -0.6747
  994MOL0     C34083   8.925   6.771   3.445 -0.7232 -1.3042 -0.3475
  994MOL0     C34084   8.926   6.685   3.201  0.5436 -0.2105 -0.8503
  994MOL0     C34085   8.777   6.679   3.182 -0.7616 -0.3828 -1.0517
  994MOL0     O34086   8.732   6.581   3.092 -0.7729 -0.1042 -0.3886
  994MOL0     C34087   8.599   6.558   3.070  0.3328  0.3760 -0.0537
  994MOL0     C34088   8.502   6.545   3.172 -0.5175  0.3208  0.1214
  994MOL0     C34089   8.365   6.523   3.137  0.2974 -0.3294 -0.2496
  994MOL0     C34090   8.322   6.501   3.005 -0.5030  0.1487  0.0558
  994MOL0     O34091   8.188   6.473   2.967  0.2774  0.2292 -0.2282
  994MOL0     C34092   8.119   6.391   3.066  0.7273 -0.0535 -0.0979
  994MOL0     C34093   7.983   6.356   3.004 -0.4092 -0.2835 -0.8449
  994MOL0     C34094   7.894   6.482   3.000  0.0129  0.3820 -0.4488
  994MOL0     C34095   7.740   6.440   2.967  0.0593 -0.6566  0.4520
  994MOL0     C34096   7.655   6.564   2.968 -0.1591  0.3645  0.4082
  994MOL0     C34097   7.513   6.544   2.925  0.2799  1.0525  0.4639
  994MOL0     C34098   7.440   6.679   2.911  1.1656  0.2697 -0.1225
  994MOL0     C34099   7.455   6.739   2.773  0.1878 -0.4333 -0.1948
  994MOL0    Cl34100   7.314   6.836   2.714 -0.5639  0.5253  0.0960
  994MOL0     C34101   8.417   6.524   2.902  0.1672  0.1254 -0.3656
  994MOL0     C34102   8.554   6.538   2.939  0.0838 -0.4498  1.1194
  994MOL0     O34103   8.708   6.768   3.233 -0.4382 -0.0871 -0.2913
  994MOL0     C34104   9.004   6.644   3.088  0.6223  0.9987  0.5789
  994MOL0     C34105   9.138   6.642   3.090 -0.2609 -0.0168 -0.0084
  994MOL0     N34106   9.639   6.452   2.590 -0.0435 -0.4633  0.4042
  994MOL0     N34107   9.728   6.367   2.558  0.1498 -0.1982 -0.3650
  994MOL0     C34108  10.560   6.159   2.086 -0.1108  0.1201 -0.3019
  994MOL0     C34109  10.677   6.082   2.103  0.2808 -0.1558 -0.1384
  994MOL0     C34110  11.006   5.795   2.177 -0.2231  0.6412  0.3633
  994MOL0     C34111  11.115   5.798   2.263  0.3078  0.2272  0.4954
  994MOL0     C34112  11.211   5.694   2.252 -0.2256  0.6058 -0.2645
  994MOL0     C34113  11.203   5.593   2.152 -0.2258  0.5715  0.3840
  994MOL0     O34114  11.298   5.485   2.145 -0.1883 -0.0967  0.0045
  994MOL0     C34115  11.346   5.435   2.269  0.1634  0.5182  0.1329
  994MOL0     C34116  11.236   5.376   2.357  0.7329 -0.0067 -0.2125
  994MOL0     C34117  11.189   5.241   2.321 -0.5979 -0.0960 -0.4963
  994MOL0     C34118  11.166   5.236   2.175  0.3523  0.5048  0.5678
  994MOL0     C34119  11.107   5.100   2.138  0.2293 -0.0075 -0.0840
  994MOL0     C34120  11.090   4.989   2.094  0.2425 -0.1170 -0.8641
  994MOL0     C34121  11.102   5.601   2.059  0.3836 -0.4269 -0.2550
  994MOL0     C34122  11.008   5.708   2.066 -0.0188 -0.5498  1.0177
  994MOL0     H34123  10.555   5.772   2.040 -2.4106 -0.0538  0.3923
  994MOL0     H34124  10.347   5.913   2.002 -0.5384  0.5988 -0.0612
  994MOL0     H34125  10.170   6.241   1.985  1.6905  0.9042  0.2312
  994MOL0     H34126  10.228   6.082   1.916 -1.6341 -3.6543  1.2773
  994MOL0     H34127  10.027   6.050   2.049 -0.9233  4.4663 -0.6847
  994MOL0     H34128  10.161   5.978   2.143 -1.5844 -1.9529 -0.0463
  994MOL0     H34129  10.069   6.261   2.173  0.8951 -0.2354 -0.3868
  994MOL0     H34130   9.993   6.153   2.283 -0.2609  1.3345  0.8100
  994MOL0     H34131  10.267   6.072   2.322 -1.8056 -0.9075  1.4424
  994MOL0     H34132  10.272   6.245   2.286  2.0659  1.2215  1.2236
  994MOL0     H34133  10.100   6.107   2.492 -0.6097 -0.8476 -1.0701
  994MOL0     H34134  10.269   6.157   2.537  0.1612  1.7895 -0.6281
  994MOL0     H34135  10.206   6.393   2.468  1.9804 -2.3740  0.8770
  994MOL0     H34136  10.051   6.337   2.417 -0.0776 -0.2765 -0.5638
  994MOL0     H34137  10.131   6.311   2.714 -2.7003 -0.2792  1.2322
  994MOL0     H34138  10.065   6.453   2.653  0.9124  0.9378 -1.1994
  994MOL0     H34139   9.938   6.222   2.749 -2.1354 -1.1133 -0.4814
  994MOL0     H34140   9.918   6.209   2.570 -0.1065  0.5784 -0.0807
  994MOL0     H34141   9.836   6.470   2.847 -0.8079  2.3617 -0.9434
  994MOL0     H34142   9.680   6.697   2.819  0.0726 -0.3793  1.2688
  994MOL0     H34143   9.536   6.666   2.726 -1.3116  0.1225  0.6307
  994MOL0     H34144   9.592   6.482   2.964  2.4059 -0.2384 -2.4590
  994MOL0     H34145   9.449   6.507   2.864 -0.9185  1.6515 -1.1202
  994MOL0     H34146   9.426   6.731   2.954  2.3124  2.1055  0.7371
  994MOL0     H34147   9.566   6.733   3.052  1.0130 -0.8360 -0.9355
  994MOL0     H34148   9.494   6.555   3.206 -0.2852  1.5646  0.2063
  994MOL0     H34149   9.355   6.512   3.107 -1.5679  1.7139 -2.4067
  994MOL0     H34150   9.204   6.781   3.390  0.5659  1.9684 -2.1295
  994MOL0     H34151   8.894   6.875   3.436  2.4140  0.1152  2.9796
  994MOL0     H34152   8.824   6.730   3.453 -1.9215  1.6867  1.1127
  994MOL0     H34153   8.983   6.749   3.535 -1.4501 -2.0453 -0.0505
  994MOL0     H34154   8.536   6.545   3.275  3.2475 -0.8131 -0.9440
  994MOL0     H34155   8.299   6.511   3.222 -0.3048  0.5529 -0.5819
  994MOL0     H34156   8.168   6.294   3.081 -1.0124 -0.5529  3.0229
  994MOL0     H34157   8.101   6.444   3.159  2.7181  1.3020 -0.4172
  994MOL0     H34158   8.006   6.314   2.906  0.1083  1.5097 -1.5287
  994MOL0     H34159   7.929   6.275   3.054 -2.5218  0.9186 -1.0512
  994MOL0     H34160   7.928   6.553   2.924  2.8452  1.2089  1.4438
  994MOL0     H34161   7.902   6.526   3.100 -0.6827  0.3002 -0.3540
  994MOL0     H34162   7.720   6.381   2.876  0.3418  0.9835 -0.7205
  994MOL0     H34163   7.706   6.375   3.048 -0.5188  0.4874  1.1478
  994MOL0     H34164   7.705   6.638   2.905 -2.4263  0.8755 -0.9227
  994MOL0     H34165   7.654   6.604   3.070  4.8150  2.4550 -0.0913
  994MOL0     H34166   7.489   6.489   2.833  0.4837 -1.2651  1.7143
  994MOL0     H34167   7.465   6.486   3.004 -0.4495  1.4614  0.3259
  994MOL0     H34168   7.478   6.747   2.988 -1.0413  0.5138  0.8178
  994MOL0     H34169   7.334   6.666   2.930  1.1252  1.9106  1.0731
  994MOL0     H34170   7.491   6.659   2.707  0.3229 -3.0017  2.7922
  994MOL0     H34171   7.535   6.814   2.771 -0.0611 -0.1584 -1.8747
  994MOL0     H34172   8.391   6.513   2.797 -1.0520  2.2648 -0.3603
  994MOL0     H34173   8.635   6.538   2.867  1.2722 -2.8043  2.3324
  994MOL0     H34174   8.956   6.624   2.993  2.2993  0.6826 -0.2386
  994MOL0     H34175   9.194   6.625   2.999 -0.4802  1.9154 -0.5490
  994MOL0     H34176  10.557   6.267   2.088 -3.8758  0.2771  4.4500
  994MOL0     H34177  10.774   6.130   2.110  0.1889 -0.0267  0.2508
  994MOL0     H34178  11.110   5.873   2.341  1.4273  0.6855  0.1502
  994MOL0     H34179  11.298   5.687   2.316  0.6423 -0.1363 -1.4924
  994MOL0     H34180  11.420   5.357   2.248 -1.4816 -0.5005 -2.3041
  994MOL0     H34181  11.391   5.513   2.331  1.5670  0.1142 -0.3416
  994MOL0     H34182  11.158   5.452   2.368  1.1459  0.9377 -3.0359
  994MOL0     H34183  11.267   5.366   2.461 -0.4579  0.7281  0.2259
  994MOL0     H34184  11.106   5.216   2.388 -0.2772 -1.6204 -0.6547
  994MOL0     H34185  11.260   5.163   2.350 -0.1121  0.1044 -1.1489
  994MOL0     H34186  11.265   5.252   2.130  0.3857  0.6854  0.7057
  994MOL0     H34187  11.092   5.313   2.150  0.7466  0.8367  0.3980
  994MOL0     H34188  11.090   4.887   2.062 -0.0748 -1.3580  2.7493
  994MOL0     H34189  11.096   5.522   1.985 -0.0968 -0.8127  0.1833
  994MOL0     H34190  10.950   5.713   1.975  0.4174 -0.2900  0.7491
  995MOL0     O34191   8.833   3.412   2.912  0.1689 -0.1670 -0.5589
  995MOL0     C34192   8.835   3.291   2.878  0.0376 -0.1332 -0.9724
  995MOL0     O34193   8.734   3.226   2.830 -0.6844  0.6990 -0.1744
  995MOL0     C34194   8.613   3.277   2.814 -0.3619 -0.0216  0.0024
  995MOL0     C34195   8.496   3.220   2.873 -1.0219 -0.6111  0.8803
  995MOL0     C34196   8.373   3.270   2.841  0.0509 -0.5171  0.3970
  995MOL0     C34197   8.360   3.368   2.741 -0.0302  0.0859  0.2260
  995MOL0     O34198   8.237   3.423   2.712 -0.1520  0.3029  1.1805
  995MOL0     C34199   8.197   3.516   2.806 -0.3303 -0.1136 -0.3064
  995MOL0     C34200   8.088   3.466   2.904  0.1032 -0.1344  0.4010
  995MOL0     C34201   7.985   3.365   2.850  0.3693  0.3013 -0.6969
  995MOL0     C34202   7.902   3.304   2.968 -0.1523 -0.3726  0.0241
  995MOL0     C34203   7.785   3.212   2.921 -0.1615 -0.9703 -0.1575
  995MOL0     C34204   7.667   3.232   3.020  0.2530  0.7328  0.7693
  995MOL0     C34205   7.545   3.139   2.987  0.8872  0.7680  0.0862
  995MOL0     C34206   7.429   3.151   3.093 -0.2847  0.2154 -0.3437
  995MOL0     N34207   7.318   3.051   3.098  0.8561 -0.0025 -0.2205
  995MOL0     C34208   7.271   2.971   2.999  0.4974 -0.8051 -0.1838
  995MOL0     C34209   7.160   2.916   3.041  0.2311 -0.3005  0.0450
  995MOL0     C34210   7.064   2.812   2.982 -0.0434 -0.0592  1.4421
  995MOL0     C34211   7.085   2.667   3.031  0.0814 -0.4887  0.2543
  995MOL0     C34212   6.957   2.582   3.047  0.2822  0.0077 -0.2090
  995MOL0     C34213   6.849   2.632   3.152  0.2268  0.2568  0.0174
  995MOL0     O34214   6.740   2.531   3.151  0.9704 -0.0387  0.2572
  995MOL0     C34215   6.645   2.556   3.052 -0.8737  0.4921  0.2145
  995MOL0     C34216   6.637   2.644   2.944 -0.7733 -0.4025  0.1437
  995MOL0     C34217   6.525   2.647   2.863 -0.0505  0.3693  0.8041
  995MOL0     C34218   6.561   2.722   2.739 -0.2483  0.0229 -0.6615
  995MOL0     C34219   6.405   2.568   2.892 -0.8521  0.1527 -0.1674
  995MOL0     C34220   6.278   2.573   2.818 -0.4437  0.4215 -0.8826
  995MOL0     O34221   6.182   2.489   2.878 -0.4736 -0.0065  0.5232
  995MOL0     C34222   6.049   2.505   2.856  0.1456 -1.1101 -0.2441
  995MOL0     C34223   5.966   2.401   2.892 -0.3344  0.4623 -0.0474
  995MOL0     C34224   5.830   2.400   2.853 -0.1455 -0.8526  0.0737
  995MOL0     C34225   5.778   2.520   2.795  1.2356  0.2811 -0.8166
  995MOL0     O34226   5.644   2.544   2.761 -0.5156  0.0285 -0.2935
  995MOL0     C34227   5.540   2.446   2.784 -0.2526  0.6375  0.0438
  995MOL0     C34228   5.520   2.367   2.652  0.5280  0.5354 -0.1685
  995MOL0     C34229   5.421   2.254   2.673  0.2009 -0.0671 -1.0492
  995MOL0     C34230   5.435   2.161   2.555 -0.4606  0.2492  0.3733
  995MOL0     C34231   5.310   2.078   2.525  0.8149  0.2811 -0.0898
  995MOL0     C34232   5.277   1.977   2.640 -0.2081  0.3620  0.5739
  995MOL0     C34233   5.135   1.902   2.609 -0.3848  0.0943  0.2482
  995MOL0     C34234   5.105   1.802   2.730  0.2837 -0.0822  0.0350
  995MOL0    Cl34235   4.973   1.699   2.685 -0.3121 -0.0238 -0.1543
  995MOL0     C34236   5.854   2.633   2.785  0.5382  0.7113  0.0972
  995MOL0     C34237   5.991   2.624   2.811  0.1126 -0.2529 -0.8363
  995MOL0     O34238   6.266   2.644   2.723  0.0156  0.2116 -0.1318
  995MOL0     C34239   6.427   2.486   3.003  0.2780 -0.1167 -0.0088
  995MOL0     C34240   6.540   2.477   3.077 -0.0627  0.7141  0.9978
  995MOL0     N34241   7.141   2.975   3.168 -0.0586  0.2861 -0.5175
  995MOL0     N34242   7.223   3.063   3.198  0.5837  0.2604  0.8054
  995MOL0     C34243   8.468   3.417   2.674 -0.2457 -0.2166  0.4009
  995MOL0     C34244   8.591   3.368   2.707 -0.6104  0.3223 -0.4085
  995MOL0     C34245   8.970   3.226   2.868  0.2478  0.1068  0.5079
  995MOL0     C34246   8.983   3.099   2.819  0.1000  0.4759  0.7311
  995MOL0     C34247   9.114   3.049   2.796 -0.2931 -0.8561  0.0477
  995MOL0     C34248   9.230   3.123   2.823 -0.1738 -0.7373  0.1677
  995MOL0     O34249   9.350   3.068   2.796  0.0643  0.7289  0.4921
  995MOL0     C34250   9.477   3.124   2.842  0.3486  0.0919  0.1043
  995MOL0     C34251   9.596   3.033   2.840  0.0334 -0.0550 -0.2246
  995MOL0     C34252   9.620   2.969   2.705 -0.2767 -0.4309 -0.9182
  995MOL0     C34253   9.646   3.060   2.593  0.3056  0.2126 -0.3199
  995MOL0     C34254   9.751   3.001   2.506 -0.2422  0.1956 -0.7665
  995MOL0     C34255   9.835   2.970   2.429  0.0921 -0.4575  0.6657
  995MOL0     C34256   9.213   3.247   2.883  0.1014  0.7501  0.5511
  995MOL0     C34257   9.085   3.300   2.904  0.3999 -1.0242 -0.3411
  995MOL0     H34258   8.510   3.147   2.952 -1.1545  0.4182  1.8796
  995MOL0     H34259   8.285   3.229   2.890  0.3147 -2.2158 -0.4541
  995MOL0     H34260   8.272   3.569   2.866 -1.7136  2.5691 -0.7874
  995MOL0     H34261   8.146   3.599   2.758 -2.9541 -1.0597  0.6796
  995MOL0     H34262   8.144   3.413   2.981  3.5220  0.0197 -1.7624
  995MOL0     H34263   8.051   3.558   2.950  1.4302 -0.1789  1.6278
  995MOL0     H34264   7.915   3.420   2.786  2.1352  2.9644 -0.4586
  995MOL0     H34265   8.034   3.282   2.798 -0.1200 -1.3841  1.3491
  995MOL0     H34266   7.977   3.251   3.027  1.7401 -0.4960 -2.3490
  995MOL0     H34267   7.864   3.393   3.019 -0.6491 -0.2399 -0.5725
  995MOL0     H34268   7.754   3.234   2.819 -0.7862 -1.9925 -0.1972
  995MOL0     H34269   7.819   3.109   2.934 -1.7506 -1.2631  2.4932
  995MOL0     H34270   7.703   3.195   3.116  0.8082 -1.4139 -0.2245
  995MOL0     H34271   7.652   3.341   3.019  2.9886  1.1711 -0.0161
  995MOL0     H34272   7.502   3.176   2.893  2.5090  1.7080 -0.3411
  995MOL0     H34273   7.578   3.035   2.982 -1.9473 -0.3868  2.5662
  995MOL0     H34274   7.380   3.247   3.070 -1.2337  0.0148  0.7369
  995MOL0     H34275   7.480   3.163   3.189  2.5411  0.7268 -1.8193
  995MOL0     H34276   7.311   2.930   2.907  2.3051 -0.1768  0.2921
  995MOL0     H34277   6.962   2.841   3.009 -0.3796  1.1512 -0.9513
  995MOL0     H34278   7.077   2.823   2.874  0.6825  0.8366  1.6072
  995MOL0     H34279   7.132   2.681   3.129 -0.8225  1.2122  0.4822
  995MOL0     H34280   7.156   2.609   2.971  4.0243  1.1536  2.9038
  995MOL0     H34281   6.993   2.490   3.093  1.7288  2.2808  3.6960
  995MOL0     H34282   6.906   2.569   2.951 -0.2306 -0.6293  0.1364
  995MOL0     H34283   6.813   2.731   3.121  0.8748  0.5242  0.1121
  995MOL0     H34284   6.884   2.647   3.254 -0.9636 -0.4429  0.5585
  995MOL0     H34285   6.723   2.705   2.917 -0.1429 -1.4582 -0.2719
  995MOL0     H34286   6.614   2.814   2.765 -0.9339  0.1023  0.5617
  995MOL0     H34287   6.625   2.659   2.677  0.1683 -0.2434  0.0257
  995MOL0     H34288   6.474   2.749   2.679  0.1831  0.5335 -1.0661
  995MOL0     H34289   6.010   2.314   2.939  0.6848  0.8506 -0.2636
  995MOL0     H34290   5.758   2.323   2.878 -0.3279 -1.4134 -1.9399
  995MOL0     H34291   5.576   2.378   2.861  0.5447  0.3481 -0.5729
  995MOL0     H34292   5.442   2.488   2.810 -1.9502 -2.7754 -0.2890
  995MOL0     H34293   5.493   2.425   2.563 -0.8586  0.5211  0.2112
  995MOL0     H34294   5.617   2.319   2.637  0.1256  0.0387 -1.3011
  995MOL0     H34295   5.318   2.292   2.674  0.2338  0.1077 -2.3775
  995MOL0     H34296   5.432   2.194   2.764 -1.9207 -0.3101 -0.9064
  995MOL0     H34297   5.456   2.215   2.462 -3.9890 -0.2464 -0.8766
  995MOL0     H34298   5.517   2.091   2.573 -0.2398  0.2963 -0.4042
  995MOL0     H34299   5.328   2.017   2.436 -0.0150 -0.9488  0.5598
  995MOL0     H34300   5.225   2.147   2.520  1.0038  0.5814  0.5816
  995MOL0     H34301   5.360   1.906   2.640  0.9430  1.6672  0.2973
  995MOL0     H34302   5.276   2.016   2.742 -2.6113  1.0994  0.3349
  995MOL0     H34303   5.143   1.855   2.511  0.6957  2.1354 -0.7184
  995MOL0     H34304   5.051   1.971   2.599 -0.1602  0.5207  1.2115
  995MOL0     H34305   5.078   1.859   2.820  0.0474  0.4182 -0.3506
  995MOL0     H34306   5.191   1.737   2.747  0.5274 -0.5641 -2.6218
  995MOL0     H34307   5.816   2.733   2.770  1.0617  1.1617  1.6095
  995MOL0     H34308   6.052   2.712   2.792 -0.7875  0.9670  1.5284
  995MOL0     H34309   6.351   2.421   3.045  0.0915  2.0681  3.3405
  995MOL0     H34310   6.558   2.408   3.158  0.4690 -0.1974  0.1206
  995MOL0     H34311   8.462   3.488   2.592  1.6393 -1.0452 -0.5185
  995MOL0     H34312   8.671   3.411   2.648 -0.3191 -0.9204 -0.9528
  995MOL0     H34313   8.903   3.038   2.777  0.9324 -0.0159 -0.1779
  995MOL0     H34314   9.136   2.950   2.759  0.5468  0.1047 -2.1878
  995MOL0     H34315   9.512   3.204   2.777  3.1570 -2.5342 -1.9433
  995MOL0     H34316   9.453   3.167   2.940 -0.7669 -1.7060  0.6793
  995MOL0     H34317   9.586   2.943   2.902 -0.4838 -1.0938 -1.7599
  995MOL0     H34318   9.688   3.086   2.867 -1.8756  2.2717  2.3042
  995MOL0     H34319   9.548   2.889   2.685 -0.2101 -0.5250 -0.7814
  995MOL0     H34320   9.720   2.929   2.725 -0.2669  0.7632  1.7967
  995MOL0     H34321   9.676   3.161   2.621 -4.9541  1.6342  1.3249
  995MOL0     H34322   9.561   3.078   2.528  0.2394  2.7316  0.3535
  995MOL0     H34323   9.918   2.937   2.369  0.5378  0.7274  0.6016
  995MOL0     H34324   9.295   3.307   2.923 -0.5581  1.6936  0.5286
  995MOL0     H34325   9.076   3.405   2.933 -0.0572 -0.6685 -1.7268
  996MOL0     O34326   5.928  10.032   5.567  0.6795  0.5197  0.1008
  996MOL0     C34327   6.011   9.975   5.634 -0.0887  0.0164  0.1416
  996MOL0     O34328   5.991   9.932   5.760 -0.0887  0.1032 -0.2629
  996MOL0     C34329   5.880   9.961   5.840 -1.2649 -0.2740  0.0403
  996MOL0     C34330   5.746  10.000   5.800  0.4299 -0.1978  0.8164
  996MOL0     C34331   5.649  10.014   5.896 -1.0405 -0.0861  0.4362
  996MOL0     C34332   5.676   9.982   6.030  0.7864  0.0174 -0.3795
  996MOL0     O34333   5.584  10.026   6.123 -1.1129 -0.2726 -0.4721
  996MOL0     C34334   5.610  10.034   6.262 -0.1581 -0.1145 -0.0439
  996MOL0     C34335   5.487  10.086   6.332 -0.3382  0.2114  0.2912
  996MOL0     C34336   5.388   9.967   6.384 -0.1948  0.0365 -0.0054
  996MOL0     C34337   5.359   9.850   6.296  0.7128 -0.0326  0.2773
  996MOL0     C34338   5.268   9.736   6.359 -0.0479  0.4257  0.0878
  996MOL0     C34339   5.127   9.782   6.386  0.2502  0.5154 -0.0522
  996MOL0     C34340   5.055   9.833   6.270 -0.5549 -0.6714  0.3970
  996MOL0     C34341   4.908   9.838   6.309  0.6178 -0.1702  0.3846
  996MOL0     N34342   4.831   9.851   6.181 -0.5354  0.2264 -0.1137
  996MOL0     C34343   4.712   9.919   6.180 -0.1144 -0.8491 -0.1327
  996MOL0     C34344   4.653   9.880   6.077  0.6525  0.6724  0.3341
  996MOL0     C34345   4.510   9.915   6.049 -0.1867  0.0672  0.3448
  996MOL0     C34346   4.498  10.057   5.988 -0.7347  0.4389  0.0512
  996MOL0     C34347   4.353  10.054   5.932  0.4283  1.0688  0.3003
  996MOL0     C34348   4.319  10.187   5.872  0.0878 -0.2724 -0.8351
  996MOL0     O34349   4.193  10.177   5.821  0.2823  0.8184  0.0239
  996MOL0     C34350   4.145  10.276   5.746 -0.8459  0.3128  1.2362
  996MOL0     C34351   4.017  10.260   5.695 -0.2487 -0.4409 -0.5655
  996MOL0     C34352   3.955  10.359   5.613  0.6554  0.0205 -0.1725
  996MOL0     C34353   3.816  10.314   5.558  0.0897 -0.5493  0.1979
  996MOL0     C34354   4.033  10.465   5.566  0.2139  1.1917  0.2847
  996MOL0     C34355   3.984  10.573   5.478  0.2804 -0.5759  0.4192
  996MOL0     O34356   4.073  10.649   5.411 -0.1653  0.0209  0.2821
  996MOL0     C34357   4.063  10.666   5.271  0.6044 -0.4392  0.1641
  996MOL0     C34358   4.083  10.782   5.210  0.5999 -0.3111  0.7447
  996MOL0     C34359   4.066  10.812   5.073  0.1731  0.8842  0.0272
  996MOL0     C34360   4.041  10.708   4.986 -0.7718  0.4982  0.3168
  996MOL0     O34361   4.026  10.719   4.852 -0.3889  0.5746  0.3660
  996MOL0     C34362   4.068  10.838   4.785  1.0425 -0.5566 -0.0884
  996MOL0     C34363   4.056  10.827   4.633 -0.4596 -0.0600 -0.0438
  996MOL0     C34364   4.109  10.949   4.554 -0.7032 -0.2669 -0.7060
  996MOL0     C34365   4.039  10.945   4.417 -0.3381 -0.0017  0.1514
  996MOL0     C34366   4.078  11.062   4.328 -0.4427 -0.2958 -0.0321
  996MOL0     C34367   4.032  11.046   4.184 -0.4183  0.6310  0.5414
  996MOL0     C34368   3.873  11.046   4.165 -0.7786 -0.2625 -0.9127
  996MOL0     C34369   3.804  11.177   4.209  0.1028 -0.0878 -0.5006
  996MOL0    Cl34370   3.867  11.308   4.101 -0.0932  0.1377 -0.3392
  996MOL0     C34371   4.017  10.582   5.039 -0.2691  0.0526  0.2514
  996MOL0     C34372   4.025  10.563   5.184  0.7234 -0.4915 -0.7163
  996MOL0     O34373   3.861  10.591   5.470  0.1225 -0.5708 -0.8616
  996MOL0     C34374   4.159  10.483   5.627  0.1283 -0.6793  1.2403
  996MOL0     C34375   4.212  10.396   5.715 -0.7577 -0.8451  0.1629
  996MOL0     N34376   4.736   9.796   6.000  0.2396 -0.2025  0.3106
  996MOL0     N34377   4.843   9.764   6.073 -0.0990 -0.2211 -0.5024
  996MOL0     C34378   5.800   9.938   6.070 -0.7750 -0.1373  0.2116
  996MOL0     C34379   5.903   9.927   5.976 -0.1236  0.3674  0.7683
  996MOL0     C34380   6.135   9.929   5.574  0.1714  0.5010  0.1423
  996MOL0     C34381   6.236   9.875   5.649  0.0922 -0.5049 -0.7384
  996MOL0     C34382   6.364   9.844   5.594  0.0293  0.5937 -1.1821
  996MOL0     C34383   6.394   9.859   5.462 -0.4842 -0.7404  0.6675
  996MOL0     O34384   6.512   9.825   5.410 -0.0724 -0.2488  0.0788
  996MOL0     C34385   6.530   9.798   5.265 -0.5004  0.3096 -0.1412
  996MOL0     C34386   6.679   9.803   5.221  0.6477 -0.5128 -0.0979
  996MOL0     C34387   6.771   9.906   5.277 -0.2858 -0.0905 -0.3051
  996MOL0     C34388   6.911   9.864   5.240 -0.4639  0.4908 -0.0223
  996MOL0     C34389   7.017   9.899   5.334  0.2817  0.3827 -0.2917
  996MOL0     C34390   7.084   9.943   5.425 -0.0885  0.2556  0.7589
  996MOL0     C34391   6.286   9.909   5.383 -0.1677 -0.6150 -0.1812
  996MOL0     C34392   6.159   9.945   5.439 -0.3684 -1.1135 -0.0348
  996MOL0     H34393   5.727   9.999   5.694  2.7523 -0.5213  0.3458
  996MOL0     H34394   5.546  10.047   5.882 -0.5280  1.0705 -0.8251
  996MOL0     H34395   5.637   9.935   6.300  2.2002  0.1786 -0.8215
  996MOL0     H34396   5.697  10.100   6.261  1.4214 -2.0859 -0.6195
  996MOL0     H34397   5.502  10.140   6.426  0.2856 -0.3729  0.5394
  996MOL0     H34398   5.425  10.140   6.261  0.9309  1.0355 -0.2316
  996MOL0     H34399   5.441   9.927   6.471  1.7430  0.1445 -1.0851
  996MOL0     H34400   5.294  10.016   6.412 -0.5223 -0.4505 -0.2336
  996MOL0     H34401   5.306   9.886   6.208  0.7003 -0.3499  0.1536
  996MOL0     H34402   5.456   9.804   6.271  1.5630  1.8008  0.0808
  996MOL0     H34403   5.254   9.650   6.292 -0.8762 -0.9244  1.9247
  996MOL0     H34404   5.308   9.692   6.450 -0.4300 -2.3942 -1.0176
  996MOL0     H34405   5.074   9.706   6.444 -0.2671  2.0277  1.5450
  996MOL0     H34406   5.125   9.872   6.448  0.2549  0.9417 -0.6672
  996MOL0     H34407   5.108   9.926   6.245  2.9898 -2.4101  0.7827
  996MOL0     H34408   5.070   9.758   6.193  1.6034 -2.3807  2.3210
  996MOL0     H34409   4.878   9.930   6.360  1.0957  0.4673 -0.4598
  996MOL0     H34410   4.865   9.751   6.360 -1.2617 -0.1435 -1.0210
  996MOL0     H34411   4.666   9.987   6.252  1.8362  0.8135 -0.3647
  996MOL0     H34412   4.466   9.842   5.980  0.2445 -0.6535  0.8081
  996MOL0     H34413   4.446   9.912   6.138  2.3447 -3.5090  2.3082
  996MOL0     H34414   4.566  10.067   5.903 -1.6015  0.1543 -0.6990
  996MOL0     H34415   4.517  10.132   6.065  3.4459 -1.8123  1.5467
  996MOL0     H34416   4.280  10.024   6.008  0.1415  0.3035 -0.2670
  996MOL0     H34417   4.346   9.975   5.858 -2.4369  0.1905  1.3704
  996MOL0     H34418   4.403  10.216   5.807  3.2872 -1.0276  2.6112
  996MOL0     H34419   4.305  10.261   5.951 -1.0574 -0.3781 -0.9239
  996MOL0     H34420   3.974  10.164   5.721  3.0888 -2.7781 -2.8693
  996MOL0     H34421   3.815  10.317   5.448 -1.7459  1.1947  0.1862
  996MOL0     H34422   3.801  10.209   5.582  0.0607 -0.4452  0.6366
  996MOL0     H34423   3.731  10.373   5.596  0.7601  1.1129 -0.7360
  996MOL0     H34424   4.125  10.857   5.277  1.1593 -0.7408  0.8796
  996MOL0     H34425   4.065  10.916   5.044 -2.9834  0.6797 -1.0164
  996MOL0     H34426   4.007  10.922   4.817  1.4788 -0.6077  0.9241
  996MOL0     H34427   4.171  10.860   4.818  0.1519 -0.4995  2.9783
  996MOL0     H34428   4.110  10.739   4.595  1.1866  0.1859  1.5589
  996MOL0     H34429   3.950  10.808   4.611 -0.7771  1.7366 -0.1779
  996MOL0     H34430   4.217  10.956   4.540 -0.3977  0.3050  1.5620
  996MOL0     H34431   4.079  11.042   4.602  0.9353  1.0574 -2.0959
  996MOL0     H34432   4.083  10.857   4.368  2.2750  1.6905 -0.7371
  996MOL0     H34433   3.930  10.941   4.426 -0.4347 -1.3028 -1.1783
  996MOL0     H34434   4.187  11.068   4.321 -0.5262  0.6254 -0.8281
  996MOL0     H34435   4.049  11.148   4.389  0.4176  2.0628 -2.7199
  996MOL0     H34436   4.074  11.120   4.116 -1.7781 -1.1999 -2.5096
  996MOL0     H34437   4.071  10.949   4.154  0.1261  1.3767 -1.2981
  996MOL0     H34438   3.831  10.961   4.219 -1.8529 -0.1098 -1.4639
  996MOL0     H34439   3.855  11.036   4.058 -0.9574 -1.8713 -0.7488
  996MOL0     H34440   3.815  11.201   4.315 -1.0251  1.2954 -0.6622
  996MOL0     H34441   3.696  11.174   4.190  0.0104  2.7218 -0.8006
  996MOL0     H34442   4.005  10.493   4.978 -0.2079 -0.2077  0.6148
  996MOL0     H34443   4.009  10.469   5.236  1.2151 -1.2599 -1.8982
  996MOL0     H34444   4.218  10.569   5.595  0.2614 -0.5662  1.7752
  996MOL0     H34445   4.311  10.424   5.749 -1.0324  1.7825 -0.9223
  996MOL0     H34446   5.818   9.907   6.173 -0.3230 -2.5587 -0.5308
  996MOL0     H34447   5.999   9.884   6.003  1.4577  1.9984 -1.8199
  996MOL0     H34448   6.234   9.869   5.757 -1.3935 -3.2736 -0.8267
  996MOL0     H34449   6.437   9.823   5.672 -0.8660 -1.6934 -0.8613
  996MOL0     H34450   6.484   9.705   5.231 -3.6736  1.1272  1.4624
  996MOL0     H34451   6.486   9.881   5.208  1.9438  1.1330 -0.9678
  996MOL0     H34452   6.686   9.810   5.112  1.7671 -2.5360 -0.2171
  996MOL0     H34453   6.704   9.707   5.267 -0.9229 -0.3579  1.1620
  996MOL0     H34454   6.755   9.919   5.384  1.5389 -0.8526  0.0847
  996MOL0     H34455   6.758  10.005   5.233  3.3862  1.4918  1.7658
  996MOL0     H34456   6.925   9.908   5.141  0.6581 -0.1574 -0.1718
  996MOL0     H34457   6.925   9.757   5.222 -0.2940  0.3147  1.0954
  996MOL0     H34458   7.135   9.969   5.516  0.2324 -3.8525  1.9364
  996MOL0     H34459   6.303   9.915   5.276 -2.1552 -2.1482 -0.6482
  996MOL0     H34460   6.077   9.983   5.379 -1.1777 -1.0274  1.0899
  997MOL0     O34461   7.141  10.120   5.735 -0.7623 -0.6428  0.8728
  997MOL0     C34462   7.125  10.241   5.710  0.1823  0.5098 -0.1120
  997MOL0     O34463   7.014  10.295   5.659  0.8371  0.7168  0.1253
  997MOL0     C34464   6.894  10.229   5.695 -0.7591 -0.1539 -0.0956
  997MOL0     C34465   6.848  10.125   5.616 -0.0872 -0.1192  0.1924
  997MOL0     C34466   6.733  10.053   5.649  0.1923  0.1104  0.1377
  997MOL0     C34467   6.673  10.075   5.770  0.7662  0.1725  0.1951
  997MOL0     O34468   6.577   9.991   5.816  0.3979  0.6335  0.2205
  997MOL0     C34469   6.468  10.042   5.891 -0.5737 -0.6329  0.5269
  997MOL0     C34470   6.376  10.145   5.824 -0.0495  0.6043 -0.8796
  997MOL0     C34471   6.243  10.174   5.914 -0.2981  0.0928 -0.2133
  997MOL0     C34472   6.167  10.284   5.858 -0.4424  0.1114 -0.2283
  997MOL0     C34473   6.043  10.329   5.936 -0.3154  0.0774 -0.6947
  997MOL0     C34474   5.939  10.392   5.852 -0.4569 -0.1313  0.9475
  997MOL0     C34475   5.804  10.422   5.923  0.4482  0.4250  0.3919
  997MOL0     C34476   5.689  10.469   5.827  0.1753 -0.5437  0.7708
  997MOL0     N34477   5.582  10.531   5.907  0.2180 -0.2084  0.7454
  997MOL0     C34478   5.475  10.467   5.958 -0.4840  0.4697 -0.4394
  997MOL0     C34479   5.397  10.574   5.990  0.8941 -0.4229  0.3024
  997MOL0     C34480   5.265  10.566   6.056  0.0967 -0.2987 -0.0608
  997MOL0     C34481   5.155  10.618   5.972 -0.4581  0.1023 -0.7539
  997MOL0     C34482   5.023  10.587   6.034  1.3671 -0.7483  0.3796
  997MOL0     C34483   4.912  10.636   5.937  0.0009 -2.1154  0.1174
  997MOL0     O34484   4.791  10.570   5.966  0.4706  0.3624  0.7423
  997MOL0     C34485   4.703  10.620   6.062  0.2525  0.6176 -0.2397
  997MOL0     C34486   4.732  10.737   6.125 -0.7108 -0.2656 -0.3403
  997MOL0     C34487   4.629  10.796   6.206  0.3673  0.1935  0.1518
  997MOL0     C34488   4.650  10.930   6.270 -0.3960  0.4394 -0.2917
  997MOL0     C34489   4.507  10.723   6.235 -0.1000 -0.0617  0.1428
  997MOL0     C34490   4.395  10.763   6.327 -0.3809 -0.6252  0.1498
  997MOL0     O34491   4.392  10.893   6.369  0.4320  0.6266 -0.5050
  997MOL0     C34492   4.285  10.923   6.453 -0.4440 -0.5062 -0.2411
  997MOL0     C34493   4.150  10.925   6.409 -0.0529 -0.5985 -0.4652
  997MOL0     C34494   4.044  10.970   6.490  0.6705  0.2182 -0.0787
  997MOL0     C34495   4.076  11.010   6.616  0.1031 -0.4245  0.2154
  997MOL0     O34496   3.992  11.056   6.713 -0.1592  0.8142  0.4712
  997MOL0     C34497   3.873  11.115   6.659 -1.0105 -0.7376  0.4615
  997MOL0     C34498   3.748  11.025   6.665 -0.5389  0.9650  1.0878
  997MOL0     C34499   3.625  11.111   6.625 -0.0351  0.5946  0.4698
  997MOL0     C34500   3.482  11.054   6.668 -0.4146 -0.0832 -0.8993
  997MOL0     C34501   3.376  11.151   6.619 -0.2053 -0.2187  0.1556
  997MOL0     C34502   3.383  11.204   6.490 -0.0867  0.3928  0.0037
  997MOL0     C34503   3.258  11.271   6.435 -0.2191  0.0397 -0.5572
  997MOL0     C34504   3.289  11.319   6.293  0.7745  0.3571 -0.1806
  997MOL0    Cl34505   3.283  11.192   6.170  0.3082 -0.0309 -0.2784
  997MOL0     C34506   4.211  11.013   6.655  0.1466  0.0255  0.1886
  997MOL0     C34507   4.317  10.979   6.575 -0.4107  0.0122  0.4989
  997MOL0     O34508   4.314  10.677   6.362 -0.2333 -0.5559 -0.4165
  997MOL0     C34509   4.492  10.603   6.169 -0.2353  0.4004 -0.1414
  997MOL0     C34510   4.592  10.547   6.084 -0.3320  0.0389 -0.6034
  997MOL0     N34511   5.445  10.698   5.945 -0.8870 -0.1095 -0.2043
  997MOL0     N34512   5.551  10.668   5.887 -0.6938 -0.4106 -1.0347
  997MOL0     C34513   6.714  10.183   5.857 -0.7720  0.1168 -0.0984
  997MOL0     C34514   6.813  10.268   5.804  0.9481  0.1940 -0.7170
  997MOL0     C34515   7.232  10.336   5.725  0.3061 -0.6714  0.8020
  997MOL0     C34516   7.358  10.295   5.683 -0.3898  0.2276 -0.0391
  997MOL0     C34517   7.463  10.377   5.708 -0.2967 -0.7608 -0.1387
  997MOL0     C34518   7.447  10.509   5.759  1.0639  0.6994  0.3386
  997MOL0     O34519   7.560  10.583   5.764 -0.1330 -0.3844 -0.6456
  997MOL0     C34520   7.551  10.728   5.795  0.1928  0.2099 -0.9276
  997MOL0     C34521   7.554  10.803   5.663 -0.5285  0.5056 -0.1358
  997MOL0     C34522   7.562  10.958   5.697  0.3813 -0.7661 -0.3270
  997MOL0     C34523   7.589  11.049   5.577 -0.1622  0.0095 -0.8207
  997MOL0     C34524   7.466  11.040   5.493 -0.2746  0.0364 -0.3840
  997MOL0     C34525   7.367  11.044   5.426 -0.8881  0.2269  0.2777
  997MOL0     C34526   7.315  10.557   5.774  0.0659  0.4490  0.4617
  997MOL0     C34527   7.207  10.470   5.759 -0.6451 -0.0771 -1.1520
  997MOL0     H34528   6.899  10.100   5.524  0.7010  0.2046  0.5372
  997MOL0     H34529   6.698   9.969   5.589  3.0390 -2.5820  1.8989
  997MOL0     H34530   6.399   9.961   5.916  0.3360 -0.7026  3.2338
  997MOL0     H34531   6.503  10.066   5.992 -2.8286  2.1798  0.7375
  997MOL0     H34532   6.430  10.238   5.804 -1.0589  1.9508  1.9601
  997MOL0     H34533   6.340  10.120   5.724  0.9659 -0.5906 -0.9661
  997MOL0     H34534   6.182  10.083   5.914  0.6012 -0.6367 -3.6479
  997MOL0     H34535   6.274  10.214   6.011  2.0390  1.2091 -1.3369
  997MOL0     H34536   6.225  10.374   5.835  0.2169  0.6275  2.8989
  997MOL0     H34537   6.143  10.255   5.756 -1.4041  1.3636 -0.3896
  997MOL0     H34538   6.004  10.243   5.991  0.7481  0.2899  0.4366
  997MOL0     H34539   6.065  10.393   6.022 -4.4418 -0.4533  1.0073
  997MOL0     H34540   5.981  10.487   5.816  1.7777 -0.4132  2.6179
  997MOL0     H34541   5.937  10.318   5.772  3.9824 -1.4797  1.8063
  997MOL0     H34542   5.771  10.331   5.975  2.1008  0.6726  2.0034
  997MOL0     H34543   5.826  10.502   5.995 -1.8405  3.4935 -2.0796
  997MOL0     H34544   5.655  10.378   5.775 -0.7762 -0.1857  0.7374
  997MOL0     H34545   5.725  10.538   5.751 -1.1695  0.5798  1.1149
  997MOL0     H34546   5.455  10.361   5.967  2.3249 -0.1985 -1.3818
  997MOL0     H34547   5.247  10.462   6.083 -0.7381 -0.4879 -1.2384
  997MOL0     H34548   5.263  10.618   6.152  1.2953 -1.2817  0.5346
  997MOL0     H34549   5.151  10.564   5.877  0.7637  1.2011 -1.4598
  997MOL0     H34550   5.171  10.726   5.960 -0.9179  0.2187 -0.3736
  997MOL0     H34551   5.006  10.656   6.118 -1.7262 -1.1549  0.1820
  997MOL0     H34552   5.013  10.479   6.047 -3.3560 -0.5308  0.0275
  997MOL0     H34553   4.937  10.608   5.834 -0.2563 -2.2914  0.1010
  997MOL0     H34554   4.891  10.743   5.928  0.6698 -1.8604  1.3539
  997MOL0     H34555   4.825  10.789   6.105  1.1898 -3.5870 -0.9070
  997MOL0     H34556   4.569  10.992   6.233 -0.5251  0.3015 -0.2403
  997MOL0     H34557   4.636  10.914   6.377  1.3518  4.4245  0.7063
  997MOL0     H34558   4.754  10.963   6.257 -0.5611  2.0620  1.9337
  997MOL0     H34559   4.135  10.884   6.309  3.6758 -3.5151 -0.0418
  997MOL0     H34560   3.942  10.951   6.458  1.1496 -1.8406 -0.5284
  997MOL0     H34561   3.848  11.195   6.729 -0.1474  0.1783 -0.2550
  997MOL0     H34562   3.886  11.147   6.556  1.5412 -2.2587  0.2252
  997MOL0     H34563   3.767  10.933   6.610  0.1868  2.2357 -0.8725
  997MOL0     H34564   3.742  10.992   6.769 -0.3918  0.3225  0.8950
  997MOL0     H34565   3.640  11.115   6.517 -1.3479 -3.4218 -0.0235
  997MOL0     H34566   3.636  11.207   6.676  1.1550  0.7731 -0.0747
  997MOL0     H34567   3.468  10.963   6.610  3.1865 -0.0191 -2.0924
  997MOL0     H34568   3.487  11.043   6.777  0.0205  2.0587 -0.6504
  997MOL0     H34569   3.376  11.237   6.686  1.4944 -1.4729  1.8812
  997MOL0     H34570   3.284  11.092   6.628 -1.4633  1.3227 -1.7759
  997MOL0     H34571   3.473  11.267   6.488  1.0583 -1.1844 -2.2639
  997MOL0     H34572   3.410  11.126   6.418 -2.6756  0.1867 -0.8135
  997MOL0     H34573   3.237  11.354   6.503 -1.0359  0.8929 -1.8064
  997MOL0     H34574   3.172  11.204   6.435  0.1612 -0.5429  1.6382
  997MOL0     H34575   3.389  11.364   6.290 -0.1511  2.7997  1.9025
  997MOL0     H34576   3.217  11.397   6.267  2.0660  1.9837  0.8421
  997MOL0     H34577   4.244  11.045   6.754  1.1360  0.2192 -0.1896
  997MOL0     H34578   4.419  10.979   6.613 -0.1434  0.0413 -0.1878
  997MOL0     H34579   4.406  10.539   6.180 -0.4933  0.5405 -1.2229
  997MOL0     H34580   4.587  10.443   6.053 -0.0814 -1.4769  3.6650
  997MOL0     H34581   6.673  10.207   5.954  0.9420 -1.5720  1.1327
  997MOL0     H34582   6.842  10.361   5.852  0.1652 -0.5082  1.2122
  997MOL0     H34583   7.364  10.197   5.637 -0.6040 -2.3195  4.7646
  997MOL0     H34584   7.563  10.339   5.692 -0.5163 -0.7256 -1.7176
  997MOL0     H34585   7.463  10.750   5.857  1.3640 -2.8113  2.1564
  997MOL0     H34586   7.638  10.761   5.853 -1.2048  1.3726  0.6296
  997MOL0     H34587   7.467  10.778   5.602  0.3115 -3.4211  0.0367
  997MOL0     H34588   7.648  10.776   5.614  0.1906  0.6416  1.1157
  997MOL0     H34589   7.647  10.965   5.766  2.8194 -2.7763 -2.8814
  997MOL0     H34590   7.477  10.992   5.756  1.8885  1.4862  0.6659
  997MOL0     H34591   7.679  11.012   5.529  0.0154  0.9654 -1.2635
  997MOL0     H34592   7.600  11.158   5.589 -5.4652  0.8493 -1.0375
  997MOL0     H34593   7.279  11.061   5.368 -0.5086  1.8110  0.1059
  997MOL0     H34594   7.286  10.651   5.819 -1.4202  0.8113 -1.1760
  997MOL0     H34595   7.108  10.507   5.782  0.4680  1.9345  0.8747
  998MOL0     O34596   6.433   3.423   2.648 -0.3984  0.4065 -0.4020
  998MOL0     C34597   6.398   3.532   2.616  0.5734 -0.2917  0.1776
  998MOL0     O34598   6.263   3.569   2.581 -0.3681 -0.4378  0.2253
  998MOL0     C34599   6.164   3.483   2.564  0.2033  0.2315  0.9981
  998MOL0     C34600   6.067   3.513   2.465  0.0352  0.0895 -0.1829
  998MOL0     C34601   5.937   3.450   2.461  0.7128 -0.4550  0.0368
  998MOL0     C34602   5.910   3.352   2.548  0.3498 -0.6509 -0.3362
  998MOL0     O34603   5.783   3.298   2.562  0.5309 -0.0213 -0.2586
  998MOL0     C34604   5.698   3.264   2.454  0.1294 -0.3633  0.0720
  998MOL0     C34605   5.582   3.379   2.457  0.6467  0.7560 -0.1003
  998MOL0     C34606   5.461   3.356   2.360 -0.3138 -0.3303  0.0650
  998MOL0     C34607   5.338   3.425   2.416 -0.0553 -0.3345 -0.3898
  998MOL0     C34608   5.213   3.430   2.340  0.2951 -0.6800 -0.1391
  998MOL0     C34609   5.164   3.289   2.296  0.3876 -0.3053  0.4381
  998MOL0     C34610   5.060   3.302   2.190  0.2945 -1.0019 -0.2625
  998MOL0     C34611   4.930   3.364   2.252  0.8825  0.4441  0.2225
  998MOL0     N34612   4.817   3.348   2.152 -0.1930 -0.8333  0.2024
  998MOL0     C34613   4.822   3.367   2.020 -0.2109  0.2052 -0.5325
  998MOL0     C34614   4.691   3.337   1.983 -0.8044  0.0702 -0.3869
  998MOL0     C34615   4.648   3.349   1.839  0.6166  0.2252  0.0034
  998MOL0     C34616   4.501   3.362   1.822  1.1792 -0.0195 -0.7029
  998MOL0     C34617   4.448   3.506   1.855 -0.1638  0.0341 -1.0109
  998MOL0     C34618   4.294   3.516   1.824  0.5092 -0.3133  0.4596
  998MOL0     O34619   4.272   3.501   1.680  0.1824  0.7763 -0.6431
  998MOL0     C34620   4.139   3.493   1.645  0.1143  0.3101 -0.4775
  998MOL0     C34621   4.116   3.457   1.514 -0.1151  0.4908 -0.2619
  998MOL0     C34622   3.991   3.450   1.455  0.5275  0.6761 -0.7190
  998MOL0     C34623   3.982   3.410   1.307  0.2817 -0.2990 -0.5658
  998MOL0     C34624   3.875   3.492   1.529 -0.7609  0.4433  0.8281
  998MOL0     C34625   3.728   3.488   1.479 -0.3967  0.1482 -0.2827
  998MOL0     O34626   3.637   3.571   1.533  0.4194  0.7864 -0.5629
  998MOL0     C34627   3.504   3.531   1.535 -1.4984  0.1689 -0.3341
  998MOL0     C34628   3.462   3.412   1.594 -0.1111  0.2149 -0.0319
  998MOL0     C34629   3.332   3.378   1.582  0.2800 -0.9190 -0.9419
  998MOL0     C34630   3.223   3.462   1.536 -0.5282 -0.5265 -0.3500
  998MOL0     O34631   3.099   3.418   1.555 -0.4509  1.0161  1.1334
  998MOL0     C34632   2.990   3.469   1.482 -0.3106  0.9510  0.1674
  998MOL0     C34633   2.920   3.341   1.450 -0.3270 -0.2262  1.0075
  998MOL0     C34634   2.795   3.359   1.367 -0.1403 -0.4096  0.3039
  998MOL0     C34635   2.833   3.399   1.222 -0.4946  0.3829  0.0667
  998MOL0     C34636   2.714   3.437   1.135 -0.2777 -0.2912  0.3388
  998MOL0     C34637   2.746   3.512   1.006  0.1290  0.5852 -0.2307
  998MOL0     C34638   2.810   3.416   0.905 -0.5735  0.2619 -0.3897
  998MOL0     C34639   2.858   3.489   0.771 -0.0625  0.4889 -0.4406
  998MOL0    Cl34640   2.720   3.548   0.661  0.2018 -0.6002  0.0459
  998MOL0     C34641   3.264   3.588   1.480 -0.3495  0.6750 -0.7108
  998MOL0     C34642   3.403   3.612   1.477  0.7563 -0.6470  0.2142
  998MOL0     O34643   3.706   3.406   1.392  0.0362 -0.2023  0.3034
  998MOL0     C34644   3.896   3.532   1.664 -0.3212 -0.0707  0.1473
  998MOL0     C34645   4.034   3.545   1.716  0.0777 -0.1122 -0.9584
  998MOL0     N34646   4.606   3.300   2.089 -0.4865  0.7851 -0.3681
  998MOL0     N34647   4.694   3.304   2.189  0.5927  1.1598  0.0514
  998MOL0     C34648   6.005   3.310   2.643  0.1105 -1.0371  0.3756
  998MOL0     C34649   6.134   3.376   2.648  0.3214  0.7276  0.0319
  998MOL0     C34650   6.506   3.638   2.598  0.6395 -0.0430 -0.3918
  998MOL0     C34651   6.483   3.753   2.522  0.0296 -0.7771 -0.4215
  998MOL0     C34652   6.594   3.838   2.482 -0.8129 -0.5589 -0.0024
  998MOL0     C34653   6.723   3.803   2.523 -0.7195 -0.4078  0.4586
  998MOL0     O34654   6.826   3.885   2.479 -0.0427 -0.0169  0.6144
  998MOL0     C34655   6.944   3.898   2.556  0.5618 -0.0862 -0.4197
  998MOL0     C34656   6.924   3.955   2.702 -0.4215  0.6475 -1.4741
  998MOL0     C34657   7.058   3.969   2.784 -0.2708 -0.1520 -0.0397
  998MOL0     C34658   7.061   4.092   2.879 -0.6815 -1.2430 -0.1347
  998MOL0     C34659   6.955   4.101   2.980  0.3339 -0.5605 -0.3164
  998MOL0     C34660   6.860   4.103   3.059  0.3586 -0.3342 -0.4346
  998MOL0     C34661   6.736   3.688   2.607 -1.2530  0.3889 -0.2045
  998MOL0     C34662   6.631   3.603   2.644  0.1760  0.4897  0.6309
  998MOL0     H34663   6.086   3.598   2.400 -2.5502 -0.7999 -2.2870
  998MOL0     H34664   5.864   3.461   2.383  0.5307 -3.0133 -0.2330
  998MOL0     H34665   5.745   3.276   2.356 -2.2319  2.6970 -0.8377
  998MOL0     H34666   5.649   3.169   2.477 -0.8937  0.4927  1.6482
  998MOL0     H34667   5.541   3.380   2.559 -2.6774 -1.4215 -1.2517
  998MOL0     H34668   5.630   3.476   2.443 -1.8610  2.0573 -0.2292
  998MOL0     H34669   5.478   3.379   2.255  1.7944 -3.2528 -0.3658
  998MOL0     H34670   5.433   3.251   2.372 -2.6596  0.1277 -0.7735
  998MOL0     H34671   5.317   3.385   2.515  0.5820  1.4286  0.4929
  998MOL0     H34672   5.373   3.525   2.443  0.1534 -0.7093  0.8051
  998MOL0     H34673   5.137   3.478   2.402  0.2604 -0.7879 -0.0965
  998MOL0     H34674   5.225   3.501   2.258 -0.5356 -1.8266 -1.2870
  998MOL0     H34675   5.255   3.234   2.268  1.8215  1.2837  1.7233
  998MOL0     H34676   5.111   3.243   2.379 -0.3827 -1.4839 -0.6681
  998MOL0     H34677   5.083   3.380   2.116 -3.6846 -1.9468 -2.7943
  998MOL0     H34678   5.045   3.210   2.132  0.3699  0.2716 -2.4386
  998MOL0     H34679   4.942   3.470   2.274  3.2907  0.7546 -2.0441
  998MOL0     H34680   4.896   3.318   2.346 -0.4009  2.0653  0.5852
  998MOL0     H34681   4.902   3.401   1.955  0.4660 -2.3448 -1.1219
  998MOL0     H34682   4.693   3.442   1.803  1.8162 -0.1342  0.5182
  998MOL0     H34683   4.692   3.271   1.775  1.8453  2.1468 -1.6192
  998MOL0     H34684   4.447   3.290   1.885 -2.0614  2.0448 -0.8734
  998MOL0     H34685   4.475   3.344   1.718  2.5917 -3.3260 -0.6041
  998MOL0     H34686   4.502   3.578   1.793 -1.9392  1.0454 -1.4776
  998MOL0     H34687   4.463   3.530   1.960  1.9649 -2.2612 -0.7047
  998MOL0     H34688   4.252   3.616   1.839 -0.1135 -0.7315  1.5844
  998MOL0     H34689   4.238   3.448   1.888  1.8880 -1.2899  0.6704
  998MOL0     H34690   4.212   3.433   1.468  1.7836  4.2550  1.2971
  998MOL0     H34691   3.955   3.305   1.297 -1.8601  0.2009 -0.5767
  998MOL0     H34692   3.902   3.470   1.262 -2.5140  1.0835  5.2918
  998MOL0     H34693   4.076   3.417   1.252 -1.4182 -0.3489 -3.7561
  998MOL0     H34694   3.527   3.341   1.643  0.9640  0.1928 -1.4308
  998MOL0     H34695   3.291   3.293   1.635 -1.5594  0.3819 -0.1644
  998MOL0     H34696   2.925   3.534   1.541  2.3940  1.1531  3.2098
  998MOL0     H34697   3.014   3.533   1.396 -0.5092  2.6765  1.3543
  998MOL0     H34698   2.985   3.265   1.404  1.1641  2.8506 -2.5905
  998MOL0     H34699   2.889   3.305   1.548 -1.7112  1.6048  1.2977
  998MOL0     H34700   2.732   3.431   1.419 -3.1098 -2.2852 -0.4708
  998MOL0     H34701   2.746   3.262   1.357  0.4884 -0.4970 -3.8547
  998MOL0     H34702   2.908   3.478   1.210 -0.2123 -0.0838 -1.5595
  998MOL0     H34703   2.884   3.315   1.174 -0.5052  0.6535 -0.4243
  998MOL0     H34704   2.651   3.501   1.197  1.8410 -0.7848  3.2598
  998MOL0     H34705   2.660   3.346   1.108  0.2443 -1.7290  3.5699
  998MOL0     H34706   2.652   3.555   0.969 -0.8592 -0.3261  1.1279
  998MOL0     H34707   2.820   3.591   1.024  2.9246 -1.9635  0.2481
  998MOL0     H34708   2.724   3.355   0.876 -1.4764  0.1703  2.2350
  998MOL0     H34709   2.896   3.364   0.949 -2.1211 -0.8601  1.4637
  998MOL0     H34710   2.908   3.418   0.706 -2.2770 -0.5445 -1.1090
  998MOL0     H34711   2.930   3.570   0.786  0.1723  0.4583 -1.3673
  998MOL0     H34712   3.189   3.649   1.431 -2.6242 -0.9509  0.5492
  998MOL0     H34713   3.441   3.699   1.424  1.1855 -0.9156  0.0727
  998MOL0     H34714   3.815   3.572   1.724  1.7132  1.6390  1.9442
  998MOL0     H34715   4.050   3.583   1.816 -1.9151  4.2584 -2.0530
  998MOL0     H34716   5.970   3.231   2.709  1.6005 -1.2495  0.9465
  998MOL0     H34717   6.207   3.352   2.725 -0.1048 -0.4355  0.1014
  998MOL0     H34718   6.387   3.784   2.483  1.3011  1.2293 -2.1909
  998MOL0     H34719   6.574   3.921   2.416 -1.7445  0.2473  1.2439
  998MOL0     H34720   6.988   3.801   2.578 -1.6120 -0.9518  0.3307
  998MOL0     H34721   7.019   3.957   2.502  0.4326 -1.0490 -1.6756
  998MOL0     H34722   6.853   3.895   2.759  0.5567  1.0146  0.1946
  998MOL0     H34723   6.880   4.055   2.690 -0.4991  0.7228 -0.6168
  998MOL0     H34724   7.136   3.987   2.709  0.2962  1.2634  0.8485
  998MOL0     H34725   7.084   3.874   2.831  0.6430 -0.4874 -1.1871
  998MOL0     H34726   7.078   4.179   2.815  0.7884 -1.3986  0.0033
  998MOL0     H34727   7.148   4.070   2.942 -0.3225  0.7291  0.1283
  998MOL0     H34728   6.788   4.106   3.139 -0.1344 -2.1538 -0.7696
  998MOL0     H34729   6.824   3.646   2.655 -1.6082  0.6464  0.6994
  998MOL0     H34730   6.658   3.520   2.709 -0.4824  1.6643  2.5111
  999MOL0     O34731   2.635   3.417   5.320  0.3561 -0.0501 -0.7098
  999MOL0     C34732   2.717   3.466   5.398 -0.0647 -0.1760  0.3921
  999MOL0     O34733   2.680   3.520   5.511 -1.0017  0.3458 -0.6353
  999MOL0     C34734   2.553   3.562   5.553 -0.3086  1.2454  0.2506
  999MOL0     C34735   2.538   3.640   5.670 -0.2256 -0.4029  0.4875
  999MOL0     C34736   2.417   3.685   5.721  0.0723  0.6015 -0.6172
  999MOL0     C34737   2.293   3.658   5.655 -0.2729  0.5221 -0.7820
  999MOL0     O34738   2.166   3.683   5.700  0.1998 -0.5756  0.1204
  999MOL0     C34739   2.152   3.704   5.844 -0.6127 -0.2429  0.2385
  999MOL0     C34740   2.006   3.709   5.875  0.2530 -1.0754 -0.0048
  999MOL0     C34741   1.969   3.727   6.025  0.4475 -0.1481  0.5578
  999MOL0     C34742   2.031   3.850   6.096  0.6350 -0.1810  0.3372
  999MOL0     C34743   1.942   3.901   6.213 -0.1581 -0.7233 -0.6197
  999MOL0     C34744   1.960   4.053   6.246  0.9272  0.6034  1.3009
  999MOL0     C34745   1.876   4.112   6.360 -0.2840  0.4231  0.3455
  999MOL0     C34746   1.723   4.121   6.326 -0.5858 -0.4281  0.0166
  999MOL0     N34747   1.649   4.210   6.425 -0.4043  0.3993  0.6506
  999MOL0     C34748   1.558   4.178   6.521 -0.6795  0.3649  0.4440
  999MOL0     C34749   1.487   4.294   6.545  0.2620 -0.2903 -0.0423
  999MOL0     C34750   1.375   4.329   6.636 -0.1515 -0.3207  0.7152
  999MOL0     C34751   1.421   4.440   6.737 -0.4738 -0.2164 -0.3610
  999MOL0     C34752   1.319   4.463   6.854  0.2653  0.2455  0.0188
  999MOL0     C34753   1.183   4.478   6.800 -0.5035  0.2655 -0.1024
  999MOL0     O34754   1.095   4.501   6.911 -0.1857  0.0420 -0.6282
  999MOL0     C34755   0.963   4.494   6.900  0.1758 -0.2609  0.5330
  999MOL0     C34756   0.892   4.417   6.814  0.3707  0.1582  0.5389
  999MOL0     C34757   0.756   4.402   6.814  0.4657 -0.2873  0.6695
  999MOL0     C34758   0.692   4.305   6.715  0.1865 -0.2613 -0.2487
  999MOL0     C34759   0.681   4.476   6.907 -0.3604  0.0348 -0.2578
  999MOL0     C34760   0.532   4.492   6.918  0.4407 -0.6149  0.2399
  999MOL0     O34761   0.472   4.525   6.804 -0.4467  0.0900  0.3365
  999MOL0     C34762   0.339   4.547   6.817  0.4610  0.3908 -0.0032
  999MOL0     C34763   0.251   4.439   6.788  0.0417  0.9560 -0.4310
  999MOL0     C34764   0.115   4.453   6.787  0.3799 -0.3428 -0.0497
  999MOL0     C34765   0.051   4.576   6.826  0.4659  0.2218  0.3744
  999MOL0     O34766  -0.086   4.575   6.821 -0.3712 -0.1513 -0.0844
  999MOL0     C34767  -0.161   4.629   6.933 -1.0522  0.3246  0.6786
  999MOL0     C34768  -0.305   4.661   6.896 -0.3316 -0.2111 -0.3966
  999MOL0     C34769  -0.315   4.771   6.787  0.2479  0.5739 -0.3257
  999MOL0     C34770  -0.469   4.781   6.753 -0.1092  0.6575  0.0666
  999MOL0     C34771  -0.505   4.877   6.638  0.3454  0.1572  0.0139
  999MOL0     C34772  -0.648   4.846   6.592 -0.6141  0.1635 -0.5036
  999MOL0     C34773  -0.754   4.945   6.651 -0.3322 -0.3944  0.7311
  999MOL0     C34774  -0.897   4.901   6.646  0.1694 -0.5527 -0.5259
  999MOL0    Cl34775  -0.992   5.025   6.736 -0.5379  0.2963  0.0440
  999MOL0     C34776   0.132   4.683   6.869 -0.7089 -0.4391 -0.2244
  999MOL0     C34777   0.278   4.666   6.861  0.2243 -0.1432  0.4039
  999MOL0     O34778   0.477   4.462   7.024  0.0148 -0.1113 -0.7271
  999MOL0     C34779   0.751   4.548   7.009  0.3814 -0.5912 -0.1488
  999MOL0     C34780   0.891   4.552   7.005  0.2760 -0.2731 -0.5272
  999MOL0     N34781   1.546   4.387   6.463 -0.0823 -0.4804  0.1373
  999MOL0     N34782   1.643   4.338   6.398 -0.2014  0.3951  0.4868
  999MOL0     C34783   2.311   3.571   5.545  0.8276  0.3281 -0.0434
  999MOL0     C34784   2.432   3.536   5.488 -0.3858 -0.0893 -0.1090
  999MOL0     C34785   2.851   3.440   5.376 -0.0547 -0.2059  0.1153
  999MOL0     C34786   2.954   3.452   5.472  0.6576 -0.0369 -0.0380
  999MOL0     C34787   3.091   3.427   5.441 -0.2271  0.6913 -0.2883
  999MOL0     C34788   3.131   3.408   5.311 -0.8678  0.5686  0.2391
  999MOL0     O34789   3.267   3.388   5.278 -0.5345  0.2428  0.3313
  999MOL0     C34790   3.320   3.432   5.148 -0.1421  0.2484 -0.9335
  999MOL0     C34791   3.309   3.589   5.126 -0.0483  0.8594  0.5418
  999MOL0     C34792   3.420   3.664   5.203  0.6570  0.0621  0.2136
  999MOL0     C34793   3.532   3.720   5.120 -0.5982 -0.7182  0.3798
  999MOL0     C34794   3.630   3.612   5.084 -0.2927 -0.7202 -0.0702
  999MOL0     C34795   3.704   3.525   5.036 -0.4941 -0.1965  0.2021
  999MOL0     C34796   3.027   3.418   5.212  0.8932  0.1073 -0.2517
  999MOL0     C34797   2.897   3.419   5.246  0.4944  0.6125  0.7194
  999MOL0     H34798   2.636   3.653   5.714  2.2962 -2.9573 -3.6435
  999MOL0     H34799   2.412   3.746   5.811  2.8326 -2.0340  1.5432
  999MOL0     H34800   2.197   3.625   5.903  1.6356 -0.2023 -1.3096
  999MOL0     H34801   2.187   3.804   5.873  0.4894 -0.8415  0.9988
  999MOL0     H34802   1.961   3.788   5.814  0.1250 -1.0992  0.0592
  999MOL0     H34803   1.963   3.613   5.845  0.2977 -2.0048  2.6241
  999MOL0     H34804   1.860   3.730   6.034 -0.2864  3.7430 -4.5563
  999MOL0     H34805   1.993   3.639   6.085 -1.3227 -0.8192  0.3380
  999MOL0     H34806   2.134   3.832   6.128  1.0156  1.2104 -0.0292
  999MOL0     H34807   2.043   3.931   6.023 -1.7843 -1.7687 -2.0494
  999MOL0     H34808   1.835   3.876   6.210 -0.0236 -2.0120  1.9730
  999MOL0     H34809   1.973   3.844   6.301  1.0802 -0.8988 -1.1580
  999MOL0     H34810   2.067   4.059   6.267  1.5760 -1.4782 -0.9579
  999MOL0     H34811   1.931   4.110   6.157  0.7212 -0.1244  0.8990
  999MOL0     H34812   1.888   4.070   6.460  0.4010  2.1355  1.0182
  999MOL0     H34813   1.920   4.211   6.370  0.6485  0.2583 -1.5796
  999MOL0     H34814   1.671   4.026   6.341  3.7903 -2.8229  2.0323
  999MOL0     H34815   1.718   4.154   6.222  3.2437 -1.9185 -0.8183
  999MOL0     H34816   1.532   4.080   6.561  0.0007 -0.6066 -1.3613
  999MOL0     H34817   1.296   4.378   6.579 -3.4936 -3.8030  1.9877
  999MOL0     H34818   1.346   4.236   6.686 -1.6809 -0.8683 -1.1035
  999MOL0     H34819   1.427   4.541   6.696 -1.9023  0.2812  0.5360
  999MOL0     H34820   1.522   4.427   6.776 -1.3970 -0.4439  2.1592
  999MOL0     H34821   1.350   4.558   6.900  0.9302  1.1457 -2.1540
  999MOL0     H34822   1.329   4.373   6.916  0.7113  0.9530  0.9992
  999MOL0     H34823   1.149   4.393   6.740  0.5865  0.3377 -0.8523
  999MOL0     H34824   1.184   4.564   6.733 -1.8091 -2.4417 -3.9721
  999MOL0     H34825   0.945   4.356   6.741  1.4615  1.1719  0.4723
  999MOL0     H34826   0.607   4.359   6.673  0.5365  1.0809  0.7053
  999MOL0     H34827   0.767   4.281   6.639  1.7256 -0.1253  1.1795
  999MOL0     H34828   0.664   4.211   6.764 -0.8887  1.9219  3.7426
  999MOL0     H34829   0.297   4.341   6.780  0.6334  0.6968  3.6663
  999MOL0     H34830   0.045   4.372   6.767 -0.4893  0.4349 -0.2569
  999MOL0     H34831  -0.151   4.560   7.017 -0.6155 -0.7787 -0.2564
  999MOL0     H34832  -0.110   4.721   6.963 -0.1547 -0.2796  1.0462
  999MOL0     H34833  -0.362   4.573   6.866 -4.1414  1.0892  2.2979
  999MOL0     H34834  -0.349   4.702   6.987  0.2455 -2.2582  0.8892
  999MOL0     H34835  -0.247   4.759   6.703  0.1563 -0.1792 -0.2948
  999MOL0     H34836  -0.283   4.859   6.843  0.3912  0.9229 -0.9552
  999MOL0     H34837  -0.506   4.680   6.736  1.8155 -0.5976  2.5876
  999MOL0     H34838  -0.530   4.812   6.838 -2.0361  1.2172 -1.4478
  999MOL0     H34839  -0.441   4.860   6.551 -0.7008 -3.0164 -0.2797
  999MOL0     H34840  -0.507   4.984   6.661 -0.9301  0.4513 -1.2436
  999MOL0     H34841  -0.654   4.848   6.482  3.1094  0.8351 -0.8275
  999MOL0     H34842  -0.679   4.745   6.621  0.4498  0.1153  0.5191
  999MOL0     H34843  -0.752   5.028   6.580 -1.3004 -3.0196 -2.5754
  999MOL0     H34844  -0.734   4.962   6.758 -1.4404  0.8107  0.7668
  999MOL0     H34845  -0.911   4.804   6.695 -0.0890  0.3072  1.2091
  999MOL0     H34846  -0.932   4.904   6.543  3.8954  1.1300 -1.9385
  999MOL0     H34847   0.090   4.778   6.903  1.9189  0.3558  1.0456
  999MOL0     H34848   0.328   4.754   6.901 -1.4970  0.0795  2.2027
  999MOL0     H34849   0.701   4.615   7.079  0.9799  0.0639 -0.3314
  999MOL0     H34850   0.942   4.610   7.082  0.1778 -0.6099 -0.2048
  999MOL0     H34851   2.229   3.521   5.494  0.3488 -0.3707  1.3735
  999MOL0     H34852   2.434   3.469   5.403  1.5323  0.3405 -0.4450
  999MOL0     H34853   2.927   3.462   5.577  1.4451 -1.7926  0.3611
  999MOL0     H34854   3.165   3.417   5.520  0.5746  1.0055 -0.9887
  999MOL0     H34855   3.427   3.409   5.140 -0.7394 -2.1635 -3.7759
  999MOL0     H34856   3.271   3.375   5.068  2.6704 -1.1371 -1.8120
  999MOL0     H34857   3.212   3.625   5.160  0.0598  0.9644  0.7388
  999MOL0     H34858   3.313   3.601   5.017 -0.2592  0.5947  0.5047
  999MOL0     H34859   3.461   3.612   5.291  2.0402  0.3685 -0.2146
  999MOL0     H34860   3.373   3.752   5.246 -0.1864  1.6748 -3.6971
  999MOL0     H34861   3.582   3.789   5.188 -1.1280 -0.5642  0.6146
  999MOL0     H34862   3.489   3.772   5.034  0.5042 -1.2352 -0.5206
  999MOL0     H34863   3.781   3.466   4.990  0.9529  1.7588 -0.0318
  999MOL0     H34864   3.058   3.417   5.108  2.9042  1.7918  0.2586
  999MOL0     H34865   2.828   3.408   5.163  1.3418  2.1214 -0.2296
 1000MOL0     O34866   5.019  10.714   1.922 -0.6249  0.0099  0.4048
 1000MOL0     C34867   5.034  10.662   1.807 -0.4624  0.1354 -0.0839
 1000MOL0     O34868   4.949  10.576   1.746  0.0580  0.3279  0.0184
 1000MOL0     C34869   4.833  10.560   1.811  0.3752  0.0650 -0.1034
 1000MOL0     C34870   4.709  10.601   1.762  0.7854  0.5540 -0.1675
 1000MOL0     C34871   4.588  10.567   1.834  0.0073  0.4685  0.1713
 1000MOL0     C34872   4.598  10.497   1.959 -0.0845 -0.6417  0.6026
 1000MOL0     O34873   4.485  10.481   2.034  0.6525  0.2387  0.4095
 1000MOL0     C34874   4.351  10.475   1.984 -0.3350  0.5139 -0.4659
 1000MOL0     C34875   4.273  10.596   2.031  0.1531 -0.1395 -0.1635
 1000MOL0     C34876   4.120  10.576   2.028  0.2064  0.7704  0.3740
 1000MOL0     C34877   4.039  10.704   2.015  0.0467 -0.9289  0.0333
 1000MOL0     C34878   3.903  10.683   2.081 -0.2431 -0.0565  0.0805
 1000MOL0     C34879   3.805  10.797   2.048  0.5161 -0.7679 -0.3283
 1000MOL0     C34880   3.679  10.763   2.118  0.7685 -0.4685 -0.3630
 1000MOL0     C34881   3.569  10.863   2.077  1.0534  0.4310  0.8328
 1000MOL0     N34882   3.429  10.827   2.117 -0.2761  0.1954 -0.0196
 1000MOL0     C34883   3.380  10.836   2.249 -0.3544  0.3978 -0.1213
 1000MOL0     C34884   3.247  10.838   2.237  0.2930  0.2744  0.0077
 1000MOL0     C34885   3.146  10.880   2.336  0.2945  0.5737  0.6054
 1000MOL0     C34886   3.002  10.847   2.316  1.3674  0.5091 -0.6193
 1000MOL0     C34887   2.914  10.959   2.260  0.2373  0.6798  0.5397
 1000MOL0     C34888   2.771  10.924   2.242  0.0492 -0.3258 -0.4314
 1000MOL0     O34889   2.684  11.027   2.179 -0.1546 -0.1325 -0.0124
 1000MOL0     C34890   2.559  10.984   2.135 -1.1366  0.2485 -0.1322
 1000MOL0     C34891   2.515  11.036   2.020 -1.1001 -0.5413 -0.5941
 1000MOL0     C34892   2.386  11.023   1.971  0.8226 -1.2172 -0.3266
 1000MOL0     C34893   2.346  11.088   1.841 -1.0454 -0.5284 -0.0287
 1000MOL0     C34894   2.295  10.943   2.047 -0.6701 -0.8177 -0.5286
 1000MOL0     C34895   2.144  10.924   2.019  0.1852 -0.0669  0.0794
 1000MOL0     O34896   2.089  10.992   1.918  0.4141  0.3615  0.5735
 1000MOL0     C34897   1.950  10.972   1.900  0.9464  0.1020  0.6580
 1000MOL0     C34898   1.862  11.086   1.885 -0.1448  0.5158 -0.7168
 1000MOL0     C34899   1.727  11.075   1.858  0.1048  0.2773 -0.2192
 1000MOL0     C34900   1.663  10.950   1.832 -0.5791 -0.2811 -0.3433
 1000MOL0     O34901   1.526  10.938   1.801  0.2875 -0.3795  0.7637
 1000MOL0     C34902   1.439  10.847   1.872 -0.7001  0.2520  0.3646
 1000MOL0     C34903   1.317  10.821   1.792 -0.2466  0.9162  0.1636
 1000MOL0     C34904   1.223  10.949   1.794  0.0438 -0.4210 -0.4070
 1000MOL0     C34905   1.091  10.912   1.720  0.4972 -1.5124 -0.1887
 1000MOL0     C34906   0.965  10.979   1.787  0.1118  0.4159  0.0274
 1000MOL0     C34907   0.816  10.956   1.725  0.4954 -0.1081  0.5129
 1000MOL0     C34908   0.737  11.072   1.789 -0.9729  0.2678 -0.0011
 1000MOL0     C34909   0.584  11.066   1.761  0.2244 -0.1282 -0.2131
 1000MOL0    Cl34910   0.564  11.042   1.588 -0.2610 -0.1689  0.2094
 1000MOL0     C34911   1.741  10.840   1.859  0.4200 -0.5692  1.5133
 1000MOL0     C34912   1.885  10.851   1.884  0.6745  0.3681  0.6497
 1000MOL0     O34913   2.083  10.845   2.090 -0.1642  0.2847  0.0479
 1000MOL0     C34914   2.342  10.881   2.161 -0.6511 -0.0385  0.1297
 1000MOL0     C34915   2.472  10.916   2.210  0.3469 -0.2437  0.4241
 1000MOL0     N34916   3.217  10.824   2.102 -0.9658 -0.6573  0.3052
 1000MOL0     N34917   3.327  10.817   2.035 -0.4567 -0.9280 -0.1376
 1000MOL0     C34918   4.719  10.450   1.998  0.0170  1.2222  0.2904
 1000MOL0     C34919   4.842  10.480   1.933 -0.5975 -0.3717 -0.1852
 1000MOL0     C34920   5.151  10.692   1.725 -0.0036 -0.8805 -0.5802
 1000MOL0     C34921   5.160  10.654   1.591  0.2045  1.3481  0.0590
 1000MOL0     C34922   5.269  10.698   1.521 -0.8883 -0.0548 -0.5012
 1000MOL0     C34923   5.374  10.779   1.569 -0.0498 -0.4296  0.3091
 1000MOL0     O34924   5.480  10.827   1.496 -0.3033 -0.3335  0.0455
 1000MOL0     C34925   5.486  10.820   1.356  0.2786 -0.3909 -0.4187
 1000MOL0     C34926   5.571  10.936   1.316  0.1847  0.0740 -0.0348
 1000MOL0     C34927   5.711  10.879   1.306  0.7146 -0.0294 -0.2776
 1000MOL0     C34928   5.811  10.984   1.261  0.1370  0.2926 -0.4395
 1000MOL0     C34929   5.941  10.918   1.252 -0.0243  0.0993 -0.3229
 1000MOL0     C34930   6.055  10.867   1.240 -0.0857 -1.0995 -0.4066
 1000MOL0     C34931   5.363  10.827   1.704 -0.5183 -1.1729 -0.9640
 1000MOL0     C34932   5.251  10.779   1.777  0.0530 -0.1277 -0.0096
 1000MOL0     H34933   4.718  10.657   1.669 -0.4879  2.5659  0.8340
 1000MOL0     H34934   4.493  10.606   1.800  0.3412  0.4029 -0.8770
 1000MOL0     H34935   4.348  10.464   1.875  2.2189  1.2284 -0.6767
 1000MOL0     H34936   4.308  10.388   2.033  0.3609  0.3539 -0.1240
 1000MOL0     H34937   4.308  10.625   2.130  0.2412 -0.4626 -0.0981
 1000MOL0     H34938   4.288  10.678   1.960  1.1231  0.5077  0.7756
 1000MOL0     H34939   4.095  10.518   1.939  3.3607  0.9047 -0.7506
 1000MOL0     H34940   4.088  10.522   2.118 -1.4935 -0.3960 -0.8872
 1000MOL0     H34941   4.081  10.785   2.075 -1.0075  0.6296 -1.2375
 1000MOL0     H34942   4.026  10.743   1.913  0.3202  1.1346  0.7526
 1000MOL0     H34943   3.859  10.590   2.045 -1.2079  0.3405  0.2058
 1000MOL0     H34944   3.931  10.682   2.187  3.3444  3.7821 -0.5466
 1000MOL0     H34945   3.841  10.889   2.094  0.1194 -1.4793  1.4887
 1000MOL0     H34946   3.797  10.809   1.940  1.1132  0.0737 -0.2891
 1000MOL0     H34947   3.648  10.660   2.100 -2.9492  0.4583  0.0096
 1000MOL0     H34948   3.685  10.770   2.227 -2.1283  2.1690 -0.2315
 1000MOL0     H34949   3.564  10.886   1.970  0.7351 -2.8022  0.0749
 1000MOL0     H34950   3.598  10.961   2.117  0.8815  1.7893 -2.0450
 1000MOL0     H34951   3.448  10.861   2.330 -0.3020 -0.6886  0.1797
 1000MOL0     H34952   3.177  10.842   2.434  1.5244  0.5079  0.1956
 1000MOL0     H34953   3.153  10.989   2.346  2.0770  0.9737 -3.3008
 1000MOL0     H34954   2.961  10.826   2.416  2.4367  0.0983 -0.2489
 1000MOL0     H34955   2.994  10.758   2.254 -0.1093 -1.0512  1.6652
 1000MOL0     H34956   2.961  11.001   2.170  0.7665  0.5682  0.7564
 1000MOL0     H34957   2.902  11.042   2.331 -0.9162  0.4046  0.6805
 1000MOL0     H34958   2.723  10.905   2.338  0.7680 -0.6896 -0.1376
 1000MOL0     H34959   2.762  10.828   2.190  1.3379 -0.0868 -1.1523
 1000MOL0     H34960   2.589  11.101   1.975 -0.8220 -1.0570 -0.8784
 1000MOL0     H34961   2.294  11.182   1.859  3.9922  2.2783  2.0790
 1000MOL0     H34962   2.431  11.106   1.775 -4.2060  1.2523 -4.0394
 1000MOL0     H34963   2.287  11.018   1.781 -0.5517  0.0123 -1.1823
 1000MOL0     H34964   1.905  11.185   1.876 -2.1621  1.6743  1.3641
 1000MOL0     H34965   1.670  11.163   1.828  1.5922  1.3676  0.0031
 1000MOL0     H34966   1.492  10.753   1.892  1.0184  0.7845 -1.4102
 1000MOL0     H34967   1.419  10.891   1.971  1.0289 -0.5470  1.1168
 1000MOL0     H34968   1.357  10.783   1.698 -0.0607 -0.1967  0.6753
 1000MOL0     H34969   1.269  10.736   1.839 -4.3896  2.5867 -0.5831
 1000MOL0     H34970   1.278  11.030   1.745 -0.8624  1.2333  1.1775
 1000MOL0     H34971   1.201  10.982   1.896  1.4696 -0.7549  0.0322
 1000MOL0     H34972   1.083  10.946   1.616 -4.1368 -2.0859 -0.2302
 1000MOL0     H34973   1.073  10.804   1.728 -0.5803 -1.2208  1.9876
 1000MOL0     H34974   0.988  11.084   1.768  1.7740  0.2445  0.8833
 1000MOL0     H34975   0.966  10.972   1.896 -1.8856 -0.9233  0.0351
 1000MOL0     H34976   0.828  10.963   1.616  0.0411 -1.2112  0.3817
 1000MOL0     H34977   0.764  10.861   1.743 -1.7379  1.2334  1.5873
 1000MOL0     H34978   0.774  11.167   1.748 -0.3231 -0.1876 -0.4994
 1000MOL0     H34979   0.745  11.067   1.898 -1.0530 -1.8215 -0.0579
 1000MOL0     H34980   0.551  11.164   1.797  2.8398  1.1001 -0.8699
 1000MOL0     H34981   0.530  10.995   1.825 -1.8154  1.7072  0.2284
 1000MOL0     H34982   1.690  10.749   1.830 -0.7688  0.8061 -1.1384
 1000MOL0     H34983   1.946  10.762   1.892  1.9162  1.2373  1.1986
 1000MOL0     H34984   2.288  10.817   2.231 -0.2613  0.3618  0.8082
 1000MOL0     H34985   2.490  10.885   2.312 -1.3516  1.0907  1.1907
 1000MOL0     H34986   4.716  10.386   2.086  1.2489 -0.7450 -1.0130
 1000MOL0     H34987   4.933  10.442   1.979  0.8988  0.3826 -2.3548
 1000MOL0     H34988   5.072  10.606   1.548  0.5106  1.7327 -1.0422
 1000MOL0     H34989   5.277  10.665   1.418 -1.6498  1.1617 -0.9768
 1000MOL0     H34990   5.533  10.726   1.324 -0.4910 -1.2763  0.9634
 1000MOL0     H34991   5.393  10.839   1.302  0.5771 -0.0105 -0.8085
 1000MOL0     H34992   5.568  11.015   1.391 -2.0293 -0.0435  0.0674
 1000MOL0     H34993   5.532  10.978   1.223  0.1584 -0.4194 -0.2498
 1000MOL0     H34994   5.706  10.796   1.234 -2.4958 -1.7127  1.6222
 1000MOL0     H34995   5.759  10.831   1.392  2.6280  1.8979 -0.1875
 1000MOL0     H34996   5.823  11.053   1.346  0.9527 -1.9594  1.3799
 1000MOL0     H34997   5.790  11.038   1.168 -0.1087 -0.0550 -0.5882
 1000MOL0     H34998   6.160  10.852   1.228  0.7852  1.8397  2.1771
 1000MOL0     H34999   5.443  10.885   1.749 -0.3332 -1.5566 -0.7891
 1000MOL0     H35000   5.248  10.807   1.882 -1.2979 -1.1462  0.2514
 1001MOL0     O35001   4.144   9.728   0.355  0.8126  0.0236  0.1533
 1001MOL0     C35002   4.090   9.727   0.243  0.2811 -0.1465  0.2473
 1001MOL0     O35003   3.958   9.704   0.223 -0.5174 -0.0566  0.5547
 1001MOL0     C35004   3.875   9.685   0.329  0.1053  0.3074 -0.5595
 1001MOL0     C35005   3.891   9.599   0.438 -0.1837  0.2187 -0.1475
 1001MOL0     C35006   3.795   9.584   0.537  0.1922 -0.0563  0.1818
 1001MOL0     C35007   3.667   9.641   0.518  0.6635  1.3848  0.0075
 1001MOL0     O35008   3.563   9.619   0.603  0.1469  0.8800  0.0273
 1001MOL0     C35009   3.582   9.541   0.720 -0.4296  0.1336 -0.1296
 1001MOL0     C35010   3.440   9.540   0.792  0.4586 -0.6486  0.8090
 1001MOL0     C35011   3.437   9.447   0.915 -0.5247 -1.1641 -0.0190
 1001MOL0     C35012   3.316   9.494   0.996  0.3948  0.1385 -1.0375
 1001MOL0     C35013   3.290   9.402   1.115  0.8188 -0.2961 -0.3063
 1001MOL0     C35014   3.200   9.282   1.085 -0.2444  0.5420  0.0278
 1001MOL0     C35015   3.053   9.329   1.089  0.2361  0.1070 -0.3169
 1001MOL0     C35016   2.962   9.240   1.008 -0.3893  0.0321 -0.4619
 1001MOL0     N35017   2.819   9.271   1.023 -0.3915 -0.8907  0.2252
 1001MOL0     C35018   2.715   9.185   1.051  0.1158  0.2419 -0.1883
 1001MOL0     C35019   2.605   9.269   1.064  0.0133  0.8900 -0.3599
 1001MOL0     C35020   2.468   9.226   1.099 -0.6385  0.3652  0.3251
 1001MOL0     C35021   2.405   9.275   1.233  0.8842 -0.0358  0.7388
 1001MOL0     C35022   2.332   9.408   1.221 -0.4494  0.2906 -0.2890
 1001MOL0     C35023   2.198   9.395   1.148  0.4495  0.3002 -0.1686
 1001MOL0     O35024   2.092   9.334   1.226  0.4638 -0.3139  0.7411
 1001MOL0     C35025   1.994   9.404   1.290 -0.8068  0.4510  0.1015
 1001MOL0     C35026   2.003   9.545   1.320 -0.1382  0.6501 -0.3519
 1001MOL0     C35027   1.903   9.612   1.388  0.8660 -0.7713  0.2160
 1001MOL0     C35028   1.919   9.757   1.413  0.7149  0.4179  0.2820
 1001MOL0     C35029   1.781   9.535   1.435 -0.0876  1.2721  1.0472
 1001MOL0     C35030   1.669   9.597   1.502 -0.1579 -1.2165  0.5986
 1001MOL0     O35031   1.669   9.737   1.521 -0.2796 -0.6805  0.6215
 1001MOL0     C35032   1.555   9.811   1.524  0.3477  0.7755  0.2360
 1001MOL0     C35033   1.434   9.762   1.467  0.1063  0.6217  0.0874
 1001MOL0     C35034   1.313   9.838   1.469 -0.5231  0.4983 -0.2674
 1001MOL0     C35035   1.328   9.972   1.511 -0.2791  0.3091  0.9299
 1001MOL0     O35036   1.222  10.060   1.493 -0.5746 -0.0459  0.2697
 1001MOL0     C35037   1.097  10.011   1.432  0.1629 -0.2776  0.1880
 1001MOL0     C35038   0.996  10.129   1.387 -0.9722 -0.4982 -0.3534
 1001MOL0     C35039   0.956  10.210   1.506 -1.0796  0.5313  0.4594
 1001MOL0     C35040   0.864  10.142   1.607  0.4850  0.0774  0.7985
 1001MOL0     C35041   0.729  10.087   1.545  0.3170 -0.0073 -0.2846
 1001MOL0     C35042   0.630  10.200   1.508 -0.7742  1.0408 -0.0558
 1001MOL0     C35043   0.511  10.143   1.430 -0.5785 -0.9834  0.0530
 1001MOL0     C35044   0.543  10.109   1.283 -0.9495 -0.3025 -0.4102
 1001MOL0    Cl35045   0.380  10.091   1.202  0.4811 -0.3055 -0.0502
 1001MOL0     C35046   1.441  10.013   1.568 -0.6231  0.3456 -0.5824
 1001MOL0     C35047   1.557   9.935   1.575  0.7934 -0.0324  0.5515
 1001MOL0     O35048   1.577   9.524   1.540  0.1331  0.5050 -0.0538
 1001MOL0     C35049   1.778   9.398   1.404 -0.6006  1.5412  0.2077
 1001MOL0     C35050   1.879   9.335   1.334  0.1507  0.5122  0.1880
 1001MOL0     N35051   2.635   9.398   1.035  0.0187 -0.0075 -0.3744
 1001MOL0     N35052   2.764   9.396   1.026  0.3179  0.0782 -0.3623
 1001MOL0     C35053   3.646   9.714   0.405 -0.3264 -0.5643  0.1040
 1001MOL0     C35054   3.753   9.738   0.314  0.2843 -0.0830 -0.2620
 1001MOL0     C35055   4.189   9.761   0.129  0.5543  0.3105 -1.4106
 1001MOL0     C35056   4.331   9.747   0.142  0.3825 -0.9895 -0.4473
 1001MOL0     C35057   4.410   9.771   0.031 -0.0628 -0.4756  0.0225
 1001MOL0     C35058   4.356   9.815  -0.091  0.1487  0.0967  1.0071
 1001MOL0     O35059   4.432   9.831  -0.210 -0.0758  0.2896 -0.1067
 1001MOL0     C35060   4.534   9.732  -0.225  0.0321  0.0699  0.9833
 1001MOL0     C35061   4.584   9.727  -0.373  0.6596 -0.0546  0.6052
 1001MOL0     C35062   4.605   9.860  -0.443  0.6246  0.6276  0.2932
 1001MOL0     C35063   4.691   9.849  -0.567 -0.2486  0.1246  0.2388
 1001MOL0     C35064   4.830   9.875  -0.537 -0.1487  1.3037  0.4902
 1001MOL0     C35065   4.949   9.883  -0.520  0.4041  0.4380  0.9543
 1001MOL0     C35066   4.214   9.818  -0.104  0.1621  0.3634  0.6791
 1001MOL0     C35067   4.129   9.790   0.000 -0.1207  0.0268 -0.1399
 1001MOL0     H35068   3.985   9.545   0.447  0.2075  1.1722  2.3302
 1001MOL0     H35069   3.814   9.514   0.618  1.2851  1.0739  0.9248
 1001MOL0     H35070   3.616   9.442   0.691 -0.5926  0.1708 -0.4505
 1001MOL0     H35071   3.660   9.571   0.791 -0.4407  0.7911 -0.3825
 1001MOL0     H35072   3.426   9.647   0.808 -3.7166 -1.1114  1.4765
 1001MOL0     H35073   3.364   9.505   0.721 -0.3709  2.0406  0.2567
 1001MOL0     H35074   3.427   9.341   0.890  0.8538 -1.4824  0.6695
 1001MOL0     H35075   3.533   9.466   0.963 -0.5960  1.1424 -0.6543
 1001MOL0     H35076   3.347   9.592   1.034 -0.3877  0.3132 -0.8322
 1001MOL0     H35077   3.230   9.510   0.931  0.0311  0.2411 -0.5360
 1001MOL0     H35078   3.382   9.362   1.157  0.9171  1.6627  1.5390
 1001MOL0     H35079   3.250   9.469   1.193  0.9911  1.2532 -1.4888
 1001MOL0     H35080   3.240   9.242   0.991  1.8605  0.5666  0.8460
 1001MOL0     H35081   3.215   9.208   1.164  1.5009  0.2366 -0.5223
 1001MOL0     H35082   3.019   9.340   1.192 -1.4424  0.1042 -0.8467
 1001MOL0     H35083   3.045   9.427   1.041  0.3572  1.0938  1.5789
 1001MOL0     H35084   2.982   9.140   1.049  1.2107  1.0268  1.2927
 1001MOL0     H35085   2.993   9.252   0.903  1.7434 -1.3929 -0.0628
 1001MOL0     H35086   2.714   9.076   1.046  1.1477  0.1733  0.6663
 1001MOL0     H35087   2.401   9.255   1.018 -0.2691 -0.2791 -0.2170
 1001MOL0     H35088   2.455   9.118   1.094 -2.8693  0.6572 -2.2251
 1001MOL0     H35089   2.479   9.266   1.313  1.2357 -0.9123  0.3390
 1001MOL0     H35090   2.332   9.199   1.262  2.0486 -1.1815  0.8014
 1001MOL0     H35091   2.396   9.480   1.171 -1.2949  1.6064  0.4636
 1001MOL0     H35092   2.309   9.437   1.324 -1.0250 -0.3603 -0.2292
 1001MOL0     H35093   2.205   9.336   1.056  0.5054  0.9463 -0.5899
 1001MOL0     H35094   2.173   9.496   1.114 -0.9554 -0.5793 -1.9365
 1001MOL0     H35095   2.091   9.603   1.294 -0.9346  2.6771  1.1918
 1001MOL0     H35096   1.847   9.816   1.356  0.5444  0.5416  0.6241
 1001MOL0     H35097   1.913   9.798   1.515  0.1098 -0.0417  0.4332
 1001MOL0     H35098   2.013   9.798   1.374  0.4712  2.1824  1.4346
 1001MOL0     H35099   1.425   9.668   1.414 -2.6556  1.9866 -2.1387
 1001MOL0     H35100   1.220   9.795   1.435 -1.5783  1.9309  0.7163
 1001MOL0     H35101   1.118   9.965   1.336  1.2978  1.3941 -0.4136
 1001MOL0     H35102   1.047   9.947   1.506  1.0096 -1.0329  0.1113
 1001MOL0     H35103   1.035  10.187   1.303 -0.6896 -1.1540 -0.6804
 1001MOL0     H35104   0.903  10.084   1.351 -2.1388  1.0151  0.6349
 1001MOL0     H35105   0.898  10.292   1.463 -0.8769  0.7586  0.6117
 1001MOL0     H35106   1.050  10.244   1.551  1.2397 -1.7942 -2.1838
 1001MOL0     H35107   0.916  10.050   1.638  2.8735  1.6498  1.7954
 1001MOL0     H35108   0.853  10.197   1.701 -0.2841  2.0259 -0.3723
 1001MOL0     H35109   0.687  10.022   1.622  0.2481 -1.0995 -1.2203
 1001MOL0     H35110   0.749  10.021   1.459 -1.3790  1.0826 -1.5813
 1001MOL0     H35111   0.597  10.246   1.602  2.7962 -1.6881  2.8358
 1001MOL0     H35112   0.689  10.270   1.448 -0.3307  1.5683  0.9576
 1001MOL0     H35113   0.433  10.220   1.427  0.8627  0.5182 -0.3221
 1001MOL0     H35114   0.474  10.054   1.481 -2.9214  0.4417  0.9992
 1001MOL0     H35115   0.603  10.018   1.277 -0.3525  0.0463  0.1301
 1001MOL0     H35116   0.599  10.193   1.241 -0.4892 -1.8235 -3.0899
 1001MOL0     H35117   1.447  10.115   1.604  1.9008  1.7440 -4.3392
 1001MOL0     H35118   1.651   9.969   1.617  1.1636 -0.6082  0.2024
 1001MOL0     H35119   1.696   9.339   1.444 -1.0460  3.5119  2.4024
 1001MOL0     H35120   1.869   9.227   1.324 -0.4940  0.3076  2.3860
 1001MOL0     H35121   3.545   9.748   0.384  0.6419  3.3976  0.9561
 1001MOL0     H35122   3.725   9.791   0.223 -0.6149 -1.0989 -0.6087
 1001MOL0     H35123   4.382   9.717   0.233 -3.3713  0.9031  2.5998
 1001MOL0     H35124   4.517   9.759   0.049  0.2700  2.2840  0.4106
 1001MOL0     H35125   4.615   9.756  -0.155  1.5867 -0.8316 -0.4485
 1001MOL0     H35126   4.489   9.636  -0.196 -1.7508 -0.2576 -2.3644
 1001MOL0     H35127   4.518   9.666  -0.434  0.3560  0.0171  0.8596
 1001MOL0     H35128   4.684   9.682  -0.365  0.2043 -0.7615  2.9530
 1001MOL0     H35129   4.652   9.918  -0.364 -0.3712 -0.5712  1.8352
 1001MOL0     H35130   4.509   9.907  -0.466  0.4875 -0.0209 -0.5555
 1001MOL0     H35131   4.655   9.916  -0.646 -0.4221 -1.6201 -1.2332
 1001MOL0     H35132   4.682   9.747  -0.605 -2.1147  0.0521  0.7933
 1001MOL0     H35133   5.053   9.888  -0.498  0.5788 -1.7942  0.8339
 1001MOL0     H35134   4.165   9.834  -0.199 -2.2292 -1.5017  1.4798
 1001MOL0     H35135   4.022   9.805  -0.012 -0.0126  0.8446 -0.1585
 1002MOL0     O35136   4.467   8.165   1.783  0.2127  0.1670  0.6019
 1002MOL0     C35137   4.499   8.282   1.800  0.1898  0.7005 -0.9029
 1002MOL0     O35138   4.420   8.372   1.869 -0.4027  0.4868 -0.0883
 1002MOL0     C35139   4.289   8.337   1.900 -0.0532  0.3894 -0.6271
 1002MOL0     C35140   4.272   8.259   2.015 -1.0042 -0.6380  0.2284
 1002MOL0     C35141   4.148   8.237   2.072  0.3730 -0.0533 -0.4724
 1002MOL0     C35142   4.031   8.283   2.008 -0.7039 -0.4541 -0.6685
 1002MOL0     O35143   3.905   8.250   2.044  1.0258  0.0430  0.1235
 1002MOL0     C35144   3.860   8.297   2.172 -0.4536 -0.0742 -0.1487
 1002MOL0     C35145   3.708   8.316   2.155  0.0747 -0.2135  0.3968
 1002MOL0     C35146   3.623   8.315   2.287 -0.5915 -0.0468 -0.0179
 1002MOL0     C35147   3.471   8.337   2.269 -1.1712  0.9129  0.2986
 1002MOL0     C35148   3.439   8.486   2.238  0.0419 -0.0280 -0.8077
 1002MOL0     C35149   3.282   8.503   2.214 -0.0885  0.2588 -0.0648
 1002MOL0     C35150   3.245   8.619   2.115  0.2550 -0.2870 -0.1404
 1002MOL0     C35151   3.101   8.634   2.075  0.2958  0.1970 -0.3911
 1002MOL0     N35152   3.017   8.661   2.207 -0.0354 -0.3361  0.0277
 1002MOL0     C35153   2.898   8.611   2.233 -0.1045  0.5218 -0.3403
 1002MOL0     C35154   2.848   8.677   2.341 -0.1836  0.2058 -0.2459
 1002MOL0     C35155   2.715   8.667   2.418 -0.0530 -0.5742  0.3451
 1002MOL0     C35156   2.669   8.796   2.491  0.5631 -0.2979 -0.0348
 1002MOL0     C35157   2.536   8.768   2.562 -0.9325  0.8315 -0.4653
 1002MOL0     C35158   2.466   8.886   2.623  0.0819  0.9551 -0.2734
 1002MOL0     O35159   2.561   8.934   2.716  0.3700  0.3295  0.0039
 1002MOL0     C35160   2.512   9.023   2.807  0.8071  0.6420  0.0890
 1002MOL0     C35161   2.378   9.064   2.838 -0.1883  0.3318  0.0728
 1002MOL0     C35162   2.364   9.159   2.938  0.4321  0.8928  1.0008
 1002MOL0     C35163   2.218   9.192   2.962  0.2438  0.2067 -0.1048
 1002MOL0     C35164   2.478   9.232   2.994 -0.5667 -0.7527 -0.2359
 1002MOL0     C35165   2.465   9.336   3.102 -0.9510 -0.0284 -0.2655
 1002MOL0     O35166   2.351   9.362   3.160 -0.2246  0.2367 -0.7212
 1002MOL0     C35167   2.350   9.430   3.281 -0.3309  0.7489  0.7826
 1002MOL0     C35168   2.389   9.379   3.406  0.4111 -1.3015 -0.1573
 1002MOL0     C35169   2.402   9.463   3.516  0.5445  0.1218 -0.0792
 1002MOL0     C35170   2.356   9.604   3.506 -0.3362  0.7093 -0.2772
 1002MOL0     O35171   2.358   9.697   3.611  0.0140 -0.4017  0.9256
 1002MOL0     C35172   2.402   9.667   3.737  0.5251 -0.1685 -0.0671
 1002MOL0     C35173   2.391   9.790   3.823  0.3115  0.4312 -0.3571
 1002MOL0     C35174   2.252   9.850   3.817 -0.4725 -0.7239 -0.5070
 1002MOL0     C35175   2.243   9.977   3.898 -0.6595 -0.4339  0.8541
 1002MOL0     C35176   2.108  10.042   3.854  0.2573  0.1951 -0.3628
 1002MOL0     C35177   2.066  10.160   3.942  0.4358 -0.9827  0.3942
 1002MOL0     C35178   1.926  10.201   3.915  0.2371 -0.5811  0.8330
 1002MOL0     C35179   1.825  10.115   3.987 -0.5466  0.2002 -0.1131
 1002MOL0    Cl35180   1.820  10.150   4.164  0.9186 -0.3141  0.8979
 1002MOL0     C35181   2.298   9.643   3.389 -0.0372 -0.3755  0.3055
 1002MOL0     C35182   2.295   9.563   3.280 -0.4045 -0.4625 -0.0285
 1002MOL0     O35183   2.573   9.385   3.133  0.0846 -1.1395  0.6249
 1002MOL0     C35184   2.599   9.189   2.949 -0.9517  0.2882  0.1322
 1002MOL0     C35185   2.621   9.084   2.863  0.3708  0.3530  0.5620
 1002MOL0     N35186   2.942   8.763   2.391 -0.3087  0.5924  1.1754
 1002MOL0     N35187   3.043   8.745   2.309 -0.0318  0.5560 -0.1896
 1002MOL0     C35188   4.044   8.356   1.889 -0.5840 -0.1959 -0.6523
 1002MOL0     C35189   4.172   8.390   1.840  0.0628  0.3539 -0.5430
 1002MOL0     C35190   4.631   8.317   1.753 -0.6969  0.0146 -0.6512
 1002MOL0     C35191   4.706   8.235   1.664 -0.1329  0.1138 -0.2481
 1002MOL0     C35192   4.827   8.268   1.615 -0.7586 -0.3902 -0.1195
 1002MOL0     C35193   4.891   8.392   1.649 -0.1333  0.5641 -0.3394
 1002MOL0     O35194   5.008   8.423   1.594 -0.4166  0.3267  0.6374
 1002MOL0     C35195   5.115   8.461   1.683 -0.6860 -0.0203 -0.1624
 1002MOL0     C35196   5.251   8.459   1.604  0.1589 -0.0485 -0.1821
 1002MOL0     C35197   5.299   8.596   1.546  0.6856 -0.3322 -0.0207
 1002MOL0     C35198   5.380   8.570   1.419  0.4865 -0.1488  1.1852
 1002MOL0     C35199   5.510   8.511   1.448 -0.2112 -0.1062  0.4755
 1002MOL0     C35200   5.626   8.485   1.462  0.0769  1.4931  0.0589
 1002MOL0     C35201   4.809   8.484   1.725 -0.2242  0.7495  0.9194
 1002MOL0     C35202   4.691   8.444   1.783  0.5792  0.9212  0.1141
 1002MOL0     H35203   4.362   8.214   2.053 -1.6724 -1.1337  1.2752
 1002MOL0     H35204   4.130   8.171   2.156 -1.0965  1.7530  0.7054
 1002MOL0     H35205   3.890   8.229   2.253  0.3949  0.5147  0.0428
 1002MOL0     H35206   3.902   8.393   2.203 -0.9921 -0.9253  3.7385
 1002MOL0     H35207   3.702   8.414   2.106  0.6167 -0.2594  0.2350
 1002MOL0     H35208   3.658   8.234   2.103 -3.5804  1.5229  0.8243
 1002MOL0     H35209   3.635   8.214   2.327  1.7297 -0.0297 -0.5304
 1002MOL0     H35210   3.658   8.387   2.362 -4.8581  3.8750 -1.3090
 1002MOL0     H35211   3.437   8.280   2.182  0.7286 -0.7719  0.5722
 1002MOL0     H35212   3.408   8.297   2.348 -1.4734 -1.5396 -1.0703
 1002MOL0     H35213   3.474   8.553   2.317  2.9522 -0.2356 -1.7982
 1002MOL0     H35214   3.487   8.509   2.143  2.1738  2.6917  0.7837
 1002MOL0     H35215   3.248   8.410   2.168 -0.0127  1.0052 -1.6749
 1002MOL0     H35216   3.226   8.529   2.305 -2.7065  2.4775 -2.1550
 1002MOL0     H35217   3.291   8.713   2.148  1.0462 -0.1195 -1.6311
 1002MOL0     H35218   3.305   8.600   2.026 -1.1810  2.1314 -1.7648
 1002MOL0     H35219   3.063   8.545   2.025 -0.8110  2.0196 -3.0072
 1002MOL0     H35220   3.107   8.711   1.998 -0.4331  1.4307  0.7461
 1002MOL0     H35221   2.838   8.531   2.190 -0.0490 -1.3768  2.8291
 1002MOL0     H35222   2.649   8.642   2.335  0.0123 -0.9320  0.3991
 1002MOL0     H35223   2.712   8.582   2.487  1.8847  0.6189  2.0396
 1002MOL0     H35224   2.653   8.873   2.414 -0.5074 -0.2573  0.2213
 1002MOL0     H35225   2.737   8.840   2.565  0.7316  1.1561 -0.9991
 1002MOL0     H35226   2.555   8.692   2.638 -0.2679  0.0781 -1.3699
 1002MOL0     H35227   2.471   8.718   2.489 -1.5664 -0.6928  1.0699
 1002MOL0     H35228   2.373   8.857   2.672 -0.6936  2.2838 -0.8986
 1002MOL0     H35229   2.451   8.970   2.554  2.6814  2.7158  1.1163
 1002MOL0     H35230   2.295   9.021   2.785 -1.8820  1.7913  1.4031
 1002MOL0     H35231   2.185   9.178   3.065 -2.7364 -1.6348 -1.1744
 1002MOL0     H35232   2.216   9.299   2.937 -2.5569  0.5188  1.0229
 1002MOL0     H35233   2.151   9.138   2.895 -1.3888  1.1434  0.7111
 1002MOL0     H35234   2.411   9.273   3.408  3.8841 -0.7313 -1.3655
 1002MOL0     H35235   2.434   9.430   3.614 -1.1151  1.3753  0.9663
 1002MOL0     H35236   2.348   9.581   3.777 -2.1941  0.9679 -1.1188
 1002MOL0     H35237   2.509   9.642   3.734  0.2236 -1.4287 -2.7333
 1002MOL0     H35238   2.421   9.765   3.926  1.8113 -4.8138 -1.7531
 1002MOL0     H35239   2.463   9.862   3.784  1.8632 -1.1185 -0.5098
 1002MOL0     H35240   2.179   9.776   3.852  2.5953 -2.7980  2.0008
 1002MOL0     H35241   2.227   9.872   3.713 -2.1205  1.4517  0.2807
 1002MOL0     H35242   2.233   9.952   4.004  4.0099 -1.0545  1.3277
 1002MOL0     H35243   2.322  10.051   3.884  0.2199 -1.4883  0.0924
 1002MOL0     H35244   2.035   9.960   3.855 -0.6404  0.9492 -1.8009
 1002MOL0     H35245   2.119  10.058   3.747  4.0364 -4.3339 -0.9843
 1002MOL0     H35246   2.077  10.140   4.049  0.3419 -0.6581  0.4637
 1002MOL0     H35247   2.130  10.244   3.913 -1.1651  0.9067  2.0332
 1002MOL0     H35248   1.901  10.199   3.808 -0.9683  1.4966  1.0187
 1002MOL0     H35249   1.913  10.306   3.941 -0.7804 -0.7320  0.9881
 1002MOL0     H35250   1.841  10.009   3.968 -2.0145 -0.5364  2.2998
 1002MOL0     H35251   1.724  10.144   3.957  0.1245  1.0385 -1.6488
 1002MOL0     H35252   2.266   9.747   3.389  0.5269 -0.1457  2.7487
 1002MOL0     H35253   2.256   9.604   3.187 -2.3007 -2.0519  0.0032
 1002MOL0     H35254   2.686   9.242   2.984 -0.9359  1.2153 -1.2499
 1002MOL0     H35255   2.721   9.048   2.840 -0.0897 -1.3916  1.1334
 1002MOL0     H35256   3.950   8.394   1.852 -1.7381 -1.8427  0.4461
 1002MOL0     H35257   4.185   8.462   1.760  1.1616  0.4902 -0.2466
 1002MOL0     H35258   4.665   8.141   1.628  1.5295 -1.7974  2.3738
 1002MOL0     H35259   4.863   8.192   1.546  0.8035  0.1926  0.0122
 1002MOL0     H35260   5.090   8.559   1.724 -3.4685 -1.5471  2.0870
 1002MOL0     H35261   5.125   8.387   1.763  1.0559 -0.6763 -0.9244
 1002MOL0     H35262   5.241   8.387   1.522  2.9742  0.2160 -0.8541
 1002MOL0     H35263   5.329   8.418   1.668  0.0550 -1.1185 -0.7279
 1002MOL0     H35264   5.361   8.652   1.616  2.9113 -1.3663 -1.0558
 1002MOL0     H35265   5.207   8.648   1.516  1.3302  0.5880 -0.4269
 1002MOL0     H35266   5.398   8.661   1.361  2.0102  0.9222  3.1912
 1002MOL0     H35267   5.319   8.500   1.361  0.8560  0.6595 -0.2180
 1002MOL0     H35268   5.730   8.458   1.466 -0.1899  0.3405 -0.4517
 1002MOL0     H35269   4.842   8.583   1.754 -1.2895  0.9835  1.3842
 1002MOL0     H35270   4.631   8.510   1.844 -0.0969  1.4893 -1.1360
 1003MOL0     O35271   5.762   9.432   9.342 -0.0489  0.0664  0.1333
 1003MOL0     C35272   5.722   9.545   9.312 -1.1772 -0.7429  0.6403
 1003MOL0     O35273   5.803   9.659   9.301 -0.4163  0.9631 -0.0620
 1003MOL0     C35274   5.935   9.660   9.329 -0.7178  0.2443 -0.1532
 1003MOL0     C35275   6.018   9.730   9.235 -0.2280  0.3777  0.1852
 1003MOL0     C35276   6.154   9.736   9.243 -0.4392  0.5174 -0.0575
 1003MOL0     C35277   6.209   9.670   9.361 -0.9984 -0.3936  0.3858
 1003MOL0     O35278   6.345   9.681   9.384 -0.4170 -0.4688  0.0525
 1003MOL0     C35279   6.393   9.814   9.388 -0.3779  0.0621 -0.1790
 1003MOL0     C35280   6.538   9.804   9.340 -0.1721 -0.5663  0.3224
 1003MOL0     C35281   6.614   9.933   9.371  0.4228  1.1864 -0.3306
 1003MOL0     C35282   6.760   9.915   9.369  0.5500 -0.3200 -0.5220
 1003MOL0     C35283   6.834  10.050   9.402 -0.2126 -0.7051  0.0979
 1003MOL0     C35284   6.987  10.029   9.373  0.4755 -0.3702 -0.1846
 1003MOL0     C35285   7.040  10.168   9.342 -0.5682  0.2987 -0.1197
 1003MOL0     C35286   7.188  10.173   9.346  0.3499  0.3752  0.3347
 1003MOL0     N35287   7.257  10.082   9.254  0.1863  0.5280  0.4270
 1003MOL0     C35288   7.288   9.950   9.285  1.0723 -1.2835  0.1264
 1003MOL0     C35289   7.343   9.904   9.177 -0.2935 -1.0555 -0.2810
 1003MOL0     C35290   7.363   9.764   9.160 -0.3030 -0.2777 -0.5052
 1003MOL0     C35291   7.232   9.704   9.117  0.7486  0.5832 -0.2581
 1003MOL0     C35292   7.192   9.711   8.970 -0.7272  0.2810  0.1967
 1003MOL0     C35293   7.040   9.708   8.967  0.2145  0.8115 -0.4057
 1003MOL0     O35294   7.002   9.836   9.008 -0.3132  0.3555  0.0230
 1003MOL0     C35295   6.872   9.871   9.005 -0.3732  0.4182 -0.1905
 1003MOL0     C35296   6.840  10.003   9.011 -0.1957 -0.9653 -0.5678
 1003MOL0     C35297   6.702  10.050   9.012 -0.3646  0.5440 -0.1414
 1003MOL0     C35298   6.659  10.194   9.022 -0.2000  0.0298 -0.0540
 1003MOL0     C35299   6.604   9.950   8.991 -0.2649  0.2293 -0.1584
 1003MOL0     C35300   6.452   9.976   8.985 -0.7591 -0.1997 -0.0313
 1003MOL0     O35301   6.391  10.090   8.935 -0.1489  0.1673 -0.4871
 1003MOL0     C35302   6.253  10.110   8.952 -0.6208 -0.0682 -0.6316
 1003MOL0     C35303   6.194  10.093   9.073 -0.4074  0.3904  0.3195
 1003MOL0     C35304   6.057  10.111   9.089 -0.8890 -0.6579 -0.6564
 1003MOL0     C35305   5.975  10.149   8.988  0.3293  0.3200  0.7814
 1003MOL0     O35306   5.841  10.160   8.999  0.1518 -0.0173  0.0687
 1003MOL0     C35307   5.774  10.121   9.124  0.0353  0.7822 -0.1338
 1003MOL0     C35308   5.620  10.148   9.094 -0.1175  0.7321 -0.6063
 1003MOL0     C35309   5.538  10.053   9.169 -0.3965 -0.2582  0.2708
 1003MOL0     C35310   5.391  10.084   9.159 -0.5473  0.3770 -0.0066
 1003MOL0     C35311   5.344  10.097   9.014  0.6477  0.3474 -0.1247
 1003MOL0     C35312   5.190  10.106   8.997  0.3090 -0.4207  1.2756
 1003MOL0     C35313   5.144  10.248   9.039  0.7844  0.5319 -0.2696
 1003MOL0     C35314   5.011  10.265   8.948  1.0131  0.4822 -0.1020
 1003MOL0    Cl35315   4.884  10.127   8.970  0.1129  0.2252 -0.0609
 1003MOL0     C35316   6.039  10.175   8.866  0.6090  0.9202  0.0387
 1003MOL0     C35317   6.176  10.150   8.845  0.2046  0.5618  0.2652
 1003MOL0     O35318   6.386   9.886   9.036 -0.6085  0.1705 -0.1204
 1003MOL0     C35319   6.635   9.810   8.976 -0.1615  0.6749  0.2578
 1003MOL0     C35320   6.773   9.777   8.981  0.2541  0.4511 -0.3669
 1003MOL0     N35321   7.351  10.007   9.084  0.7329  0.0875  1.1453
 1003MOL0     N35322   7.302  10.118   9.133 -0.6263  0.3745 -0.0083
 1003MOL0     C35323   6.132   9.590   9.454  0.5259  0.8611 -0.7888
 1003MOL0     C35324   5.995   9.592   9.440 -0.4254 -1.0974 -0.1168
 1003MOL0     C35325   5.576   9.564   9.306  0.2748  0.0545  0.3715
 1003MOL0     C35326   5.496   9.465   9.248 -0.3692 -0.6641 -0.3381
 1003MOL0     C35327   5.363   9.487   9.229 -0.4877  0.0742  1.2682
 1003MOL0     C35328   5.307   9.603   9.270  0.7389  0.5567  0.0436
 1003MOL0     O35329   5.171   9.598   9.262 -0.4087  0.2340  1.3076
 1003MOL0     C35330   5.095   9.719   9.243  0.3749  0.4286 -0.3508
 1003MOL0     C35331   4.956   9.693   9.307  0.3857 -1.1170  0.4850
 1003MOL0     C35332   4.958   9.664   9.459 -0.3177 -0.3053  0.4566
 1003MOL0     C35333   4.818   9.659   9.524 -0.2658  0.5197 -0.1775
 1003MOL0     C35334   4.762   9.791   9.548  0.6386 -0.2719 -0.1161
 1003MOL0     C35335   4.713   9.898   9.551 -0.2999 -0.2726  0.1391
 1003MOL0     C35336   5.380   9.707   9.322  1.0245  0.1029 -0.9174
 1003MOL0     C35337   5.517   9.690   9.350  0.4832 -0.2232  0.0099
 1003MOL0     H35338   5.966   9.792   9.164 -1.2582 -1.0210 -0.3396
 1003MOL0     H35339   6.215   9.794   9.175  1.0288 -2.6253 -1.6632
 1003MOL0     H35340   6.346   9.890   9.325 -1.8949  0.4507  1.3554
 1003MOL0     H35341   6.381   9.848   9.491 -0.4026  1.0296 -0.4906
 1003MOL0     H35342   6.581   9.714   9.384  1.8535  1.1211  2.0728
 1003MOL0     H35343   6.534   9.784   9.232  0.1506 -3.3495  0.7630
 1003MOL0     H35344   6.592  10.013   9.300 -1.6024  1.6118  0.6991
 1003MOL0     H35345   6.584   9.954   9.474  2.6736 -2.6061  1.3289
 1003MOL0     H35346   6.793   9.849   9.449  1.6682 -0.9589 -1.4881
 1003MOL0     H35347   6.793   9.879   9.271 -1.8768 -0.7206 -1.2739
 1003MOL0     H35348   6.802  10.132   9.338 -1.2430 -1.3486 -0.2355
 1003MOL0     H35349   6.820  10.094   9.502  0.0496  1.6269 -0.8339
 1003MOL0     H35350   7.042  10.006   9.465  0.0426  1.8184  0.6945
 1003MOL0     H35351   7.005   9.954   9.296  1.5288 -0.1924 -0.1224
 1003MOL0     H35352   6.994  10.213   9.254 -1.9551 -2.4148 -0.9028
 1003MOL0     H35353   7.009  10.230   9.426 -2.0620  1.6031 -1.5838
 1003MOL0     H35354   7.223  10.145   9.446 -0.0005 -2.1413 -0.1610
 1003MOL0     H35355   7.219  10.275   9.322 -0.8271  0.8718  0.8763
 1003MOL0     H35356   7.278   9.907   9.384  1.3629 -2.4987 -0.3576
 1003MOL0     H35357   7.437   9.731   9.087  4.4303 -2.6546  4.5748
 1003MOL0     H35358   7.398   9.732   9.259 -0.1369 -3.2884 -1.4408
 1003MOL0     H35359   7.157   9.741   9.188  3.2505  1.9497  1.8603
 1003MOL0     H35360   7.227   9.597   9.137 -1.0439  0.5228 -0.8162
 1003MOL0     H35361   7.244   9.637   8.908 -1.3539 -0.7442  0.8697
 1003MOL0     H35362   7.211   9.809   8.927 -0.9549 -1.1297 -3.4823
 1003MOL0     H35363   6.997   9.628   9.028 -0.2047  1.4866  0.1891
 1003MOL0     H35364   7.006   9.684   8.866  2.4979 -1.1158 -0.8232
 1003MOL0     H35365   6.914  10.080   9.032 -0.0781 -0.9570 -1.0044
 1003MOL0     H35366   6.740  10.264   9.047 -2.1582  1.5074  2.7071
 1003MOL0     H35367   6.624  10.215   8.921  1.3067 -0.8098 -0.7880
 1003MOL0     H35368   6.577  10.205   9.094  1.0238 -0.1847  1.4308
 1003MOL0     H35369   6.245  10.065   9.164 -1.9947  2.4317  1.9271
 1003MOL0     H35370   6.019  10.109   9.190 -0.0782  0.9379 -0.2962
 1003MOL0     H35371   5.800  10.018   9.149 -2.8172 -0.0027 -0.0777
 1003MOL0     H35372   5.812  10.188   9.202 -0.7070  0.1054  0.8355
 1003MOL0     H35373   5.593  10.250   9.125 -0.4358  0.3062  0.5759
 1003MOL0     H35374   5.605  10.130   8.988 -0.7361 -2.2484 -0.0906
 1003MOL0     H35375   5.565  10.055   9.275 -1.4266 -1.6811  0.5810
 1003MOL0     H35376   5.560   9.955   9.125  1.3895  1.5922 -3.4280
 1003MOL0     H35377   5.339  10.006   9.215  2.1385  0.1374  2.3691
 1003MOL0     H35378   5.373  10.177   9.215 -2.8080 -0.3568  0.6030
 1003MOL0     H35379   5.375  10.008   8.959  0.3165  1.0540 -1.4778
 1003MOL0     H35380   5.386  10.185   8.965  1.5556 -0.2803 -0.4879
 1003MOL0     H35381   5.176  10.077   8.893 -0.9635  1.9101  0.7329
 1003MOL0     H35382   5.140  10.034   9.062  0.7368 -1.6131  0.3106
 1003MOL0     H35383   5.220  10.326   9.026  2.1668 -0.5013  1.2257
 1003MOL0     H35384   5.114  10.262   9.144  1.1646 -1.0502  0.0751
 1003MOL0     H35385   5.043  10.279   8.844  0.9266  1.5076 -0.0020
 1003MOL0     H35386   4.965  10.357   8.983  2.2599  1.7064 -1.5181
 1003MOL0     H35387   5.979  10.211   8.783 -0.2354  2.2243  1.1650
 1003MOL0     H35388   6.231  10.163   8.752  2.5648 -2.7553  1.0031
 1003MOL0     H35389   6.558   9.739   8.948  0.3953  0.0704  0.2424
 1003MOL0     H35390   6.803   9.677   8.950  5.7258  1.3857  0.9940
 1003MOL0     H35391   6.186   9.540   9.534 -0.7770  0.6290 -0.0126
 1003MOL0     H35392   5.926   9.543   9.508  0.4741  3.8772  5.0858
 1003MOL0     H35393   5.548   9.374   9.217  1.4616  0.9253 -2.2217
 1003MOL0     H35394   5.295   9.414   9.187 -0.3559  1.9539 -2.7244
 1003MOL0     H35395   5.138   9.805   9.295 -2.6689  1.0505  1.4032
 1003MOL0     H35396   5.087   9.741   9.136 -2.5444 -1.4506 -0.6218
 1003MOL0     H35397   4.908   9.612   9.252 -0.7662  1.1287 -2.0426
 1003MOL0     H35398   4.893   9.778   9.278 -1.6924 -2.6439  0.3667
 1003MOL0     H35399   5.019   9.745   9.499  1.1944 -0.6823 -0.9396
 1003MOL0     H35400   5.014   9.571   9.472  1.1144  0.1172 -1.9627
 1003MOL0     H35401   4.843   9.614   9.620 -0.7459 -0.3095 -0.4284
 1003MOL0     H35402   4.751   9.596   9.464 -0.0411 -1.7816  1.8136
 1003MOL0     H35403   4.684  10.001   9.548  1.7735  0.3457 -0.1936
 1003MOL0     H35404   5.330   9.797   9.355 -0.0769 -1.2869  1.5294
 1003MOL0     H35405   5.586   9.762   9.393  0.5287  1.2824 -2.4290
 1004MOL0     O35406   3.755   9.048   4.757 -0.4403  0.1259  0.1047
 1004MOL0     C35407   3.803   9.140   4.833  0.0419  0.3241  0.0018
 1004MOL0     O35408   3.724   9.237   4.896 -0.3635 -0.7570  0.0268
 1004MOL0     C35409   3.589   9.251   4.873 -0.9706 -0.2406  0.6612
 1004MOL0     C35410   3.497   9.146   4.857  0.0140 -0.3839  0.0994
 1004MOL0     C35411   3.357   9.170   4.847  0.0149 -0.7502  0.2245
 1004MOL0     C35412   3.301   9.298   4.849  0.8013 -0.4294 -0.1651
 1004MOL0     O35413   3.168   9.315   4.843  1.1717  0.0335  0.3713
 1004MOL0     C35414   3.129   9.448   4.812  0.5257  0.6134  0.9823
 1004MOL0     C35415   2.982   9.463   4.762  0.3311  0.0614 -0.1624
 1004MOL0     C35416   2.890   9.443   4.883  0.2847  0.2993 -0.3425
 1004MOL0     C35417   2.810   9.313   4.870  0.7299  0.0652 -0.7856
 1004MOL0     C35418   2.900   9.189   4.892  0.8860 -0.5926  0.4212
 1004MOL0     C35419   2.830   9.060   4.915 -0.1391 -0.4365  0.7037
 1004MOL0     C35420   2.751   9.017   4.791 -0.1274 -0.1217  0.4506
 1004MOL0     C35421   2.839   9.006   4.661  0.1105 -0.7350 -0.6348
 1004MOL0     N35422   2.947   8.911   4.686 -0.9283 -0.1287  0.9613
 1004MOL0     C35423   3.086   8.949   4.677  0.0964  0.0652 -0.7616
 1004MOL0     C35424   3.153   8.835   4.708 -0.3741  0.5667  0.0874
 1004MOL0     C35425   3.303   8.813   4.735  0.0058  0.3010  1.4634
 1004MOL0     C35426   3.372   8.825   4.596  0.4600  0.4558 -0.4161
 1004MOL0     C35427   3.524   8.848   4.610  1.0325 -0.0382  0.0030
 1004MOL0     C35428   3.587   8.827   4.476  0.6803  0.0907  0.2082
 1004MOL0     O35429   3.583   8.691   4.440 -0.3063  0.3253  0.7011
 1004MOL0     C35430   3.651   8.651   4.328  0.7611  0.0225 -0.4098
 1004MOL0     C35431   3.631   8.523   4.282  0.4324 -0.5035 -0.4725
 1004MOL0     C35432   3.692   8.472   4.169  0.0091  0.3892  1.2786
 1004MOL0     C35433   3.653   8.327   4.130  0.2713  0.2478  0.6687
 1004MOL0     C35434   3.797   8.554   4.107  0.3425 -0.1302  0.3161
 1004MOL0     C35435   3.880   8.512   3.994 -0.3135 -0.1510 -0.5666
 1004MOL0     O35436   3.971   8.608   3.951  0.4456 -0.0113 -0.1958
 1004MOL0     C35437   4.006   8.620   3.818 -0.4140 -0.2255  0.5217
 1004MOL0     C35438   3.964   8.547   3.703  0.1930  0.7798 -0.2745
 1004MOL0     C35439   4.013   8.576   3.576  0.3060  0.3817 -0.2077
 1004MOL0     C35440   4.113   8.674   3.563 -0.9229 -0.4333 -0.2394
 1004MOL0     O35441   4.139   8.703   3.432 -0.8495 -0.5133  0.8966
 1004MOL0     C35442   4.220   8.819   3.393  0.1659  0.0661  0.1697
 1004MOL0     C35443   4.223   8.826   3.238  0.8280 -0.7597 -0.0881
 1004MOL0     C35444   4.275   8.957   3.180 -0.9428  0.8251 -0.0071
 1004MOL0     C35445   4.336   8.930   3.040  0.0807  1.0862 -0.4507
 1004MOL0     C35446   4.382   9.064   2.979  0.5418  0.1709  0.2714
 1004MOL0     C35447   4.514   9.120   3.041  0.1432  0.5076 -0.2330
 1004MOL0     C35448   4.500   9.200   3.168  0.2094  0.1863  0.0980
 1004MOL0     C35449   4.579   9.332   3.161  0.1059 -0.6235 -0.4495
 1004MOL0    Cl35450   4.754   9.304   3.173 -0.2045 -0.1833  0.1603
 1004MOL0     C35451   4.150   8.748   3.677  0.2603  0.1920  0.0968
 1004MOL0     C35452   4.097   8.726   3.795  0.3859 -0.4152  0.2648
 1004MOL0     O35453   3.855   8.398   3.945  0.4782  0.3962  0.8314
 1004MOL0     C35454   3.818   8.676   4.165 -0.7072 -0.8613  0.9457
 1004MOL0     C35455   3.743   8.729   4.261 -0.0156  0.8120  0.3074
 1004MOL0     N35456   3.060   8.737   4.730  0.1174 -0.9915 -0.1451
 1004MOL0     N35457   2.944   8.778   4.725 -0.3912 -0.0121  0.0422
 1004MOL0     C35458   3.399   9.403   4.862  0.2962 -0.4060  0.5772
 1004MOL0     C35459   3.537   9.379   4.877  0.2557  0.1891  0.5268
 1004MOL0     C35460   3.947   9.146   4.843 -0.3758  0.5940  0.3176
 1004MOL0     C35461   4.033   9.057   4.777 -0.4414 -0.6788 -0.6858
 1004MOL0     C35462   4.163   9.049   4.806 -1.0673 -0.4898  0.1250
 1004MOL0     C35463   4.233   9.137   4.887  0.1735 -0.8207  0.2604
 1004MOL0     O35464   4.368   9.135   4.905 -0.3389 -0.8604  0.0847
 1004MOL0     C35465   4.450   9.020   4.891 -0.0624  1.3293 -0.6286
 1004MOL0     C35466   4.549   9.024   4.774 -0.6370 -0.2349  0.2206
 1004MOL0     C35467   4.664   8.928   4.788  0.1769  0.4551  0.6295
 1004MOL0     C35468   4.736   8.897   4.656 -0.0344 -0.2025  0.2703
 1004MOL0     C35469   4.664   8.819   4.558 -0.2467 -0.0010  0.2925
 1004MOL0     C35470   4.618   8.756   4.472  0.1433 -0.1993  0.5929
 1004MOL0     C35471   4.155   9.231   4.949  0.6621 -0.8290  0.2780
 1004MOL0     C35472   4.010   9.230   4.930  0.8028 -0.7886 -0.2662
 1004MOL0     H35473   3.527   9.042   4.866  1.3868  0.1525  2.2944
 1004MOL0     H35474   3.291   9.084   4.841  2.4197 -2.5959 -1.9362
 1004MOL0     H35475   3.146   9.517   4.895  0.7393  0.1594  1.3205
 1004MOL0     H35476   3.189   9.483   4.728  0.1910 -0.5606  0.2255
 1004MOL0     H35477   2.970   9.568   4.732 -0.8936 -0.3840 -1.3330
 1004MOL0     H35478   2.955   9.415   4.667  0.4127 -0.7157  0.1989
 1004MOL0     H35479   2.947   9.435   4.976  4.3986 -1.3396 -2.7063
 1004MOL0     H35480   2.822   9.526   4.902 -0.0296 -0.0204 -0.0635
 1004MOL0     H35481   2.738   9.314   4.953  0.4103  1.3610 -1.0645
 1004MOL0     H35482   2.764   9.308   4.771  0.6802 -4.3970 -0.7533
 1004MOL0     H35483   2.971   9.192   4.809  0.4497  0.6316  0.0636
 1004MOL0     H35484   2.948   9.203   4.990  1.6658  1.0591 -0.1595
 1004MOL0     H35485   2.910   8.988   4.936 -0.3690 -1.2816 -1.1868
 1004MOL0     H35486   2.764   9.058   5.002 -2.9416 -2.0067 -1.3101
 1004MOL0     H35487   2.719   8.918   4.824 -0.1242 -0.4266 -0.4227
 1004MOL0     H35488   2.659   9.075   4.784 -0.4487 -0.2747  2.8291
 1004MOL0     H35489   2.877   9.101   4.622  1.5780 -1.1805 -0.3696
 1004MOL0     H35490   2.772   8.949   4.597  2.2184 -3.5800 -0.5224
 1004MOL0     H35491   3.130   9.046   4.654 -1.0004  0.6049 -0.6598
 1004MOL0     H35492   3.343   8.883   4.808 -2.8221  0.0818  3.3827
 1004MOL0     H35493   3.314   8.710   4.771  0.1748 -0.2551 -0.1058
 1004MOL0     H35494   3.340   8.915   4.542  1.0295  2.4925  2.3932
 1004MOL0     H35495   3.351   8.741   4.530  3.0237  0.3626 -1.2177
 1004MOL0     H35496   3.552   8.774   4.686 -1.7143 -1.1832 -0.0144
 1004MOL0     H35497   3.545   8.948   4.649 -0.5008  0.0244  0.7053
 1004MOL0     H35498   3.690   8.864   4.478  0.7745 -0.1734  0.1876
 1004MOL0     H35499   3.533   8.893   4.406 -0.8084  0.6935  1.8414
 1004MOL0     H35500   3.568   8.459   4.344 -0.7473 -1.6679 -2.7402
 1004MOL0     H35501   3.746   8.271   4.142  1.6850  2.4951  0.7792
 1004MOL0     H35502   3.575   8.288   4.195  0.1046 -1.6234 -0.5947
 1004MOL0     H35503   3.618   8.308   4.028  0.9971 -0.6053  0.5710
 1004MOL0     H35504   3.902   8.458   3.702  0.2905  0.6647  1.5432
 1004MOL0     H35505   3.962   8.535   3.489 -1.0305  1.4814  0.0132
 1004MOL0     H35506   4.161   8.901   3.435 -1.1958  0.1661 -1.7848
 1004MOL0     H35507   4.324   8.829   3.425 -0.4483 -1.0352  2.7145
 1004MOL0     H35508   4.280   8.738   3.206 -0.6406 -0.3050 -4.5403
 1004MOL0     H35509   4.122   8.818   3.198  1.0427  1.3167 -1.1764
 1004MOL0     H35510   4.360   8.997   3.236 -0.7359 -0.0367  0.3010
 1004MOL0     H35511   4.196   9.033   3.175 -0.3332  1.4055 -2.8342
 1004MOL0     H35512   4.413   8.853   3.043  0.4361  1.4691  0.4599
 1004MOL0     H35513   4.251   8.887   2.987  0.0774 -0.7497  0.9653
 1004MOL0     H35514   4.301   9.137   2.989 -0.4138 -0.2288 -3.3786
 1004MOL0     H35515   4.407   9.051   2.873  0.6006 -1.3307  0.4468
 1004MOL0     H35516   4.580   9.035   3.063 -2.8426 -1.4798  1.8820
 1004MOL0     H35517   4.560   9.191   2.972 -1.3323  1.9472  0.2151
 1004MOL0     H35518   4.515   9.145   3.261  2.8289  0.8945  0.1562
 1004MOL0     H35519   4.393   9.227   3.167 -0.3578 -1.8728  1.1482
 1004MOL0     H35520   4.558   9.391   3.251  3.2297 -0.4796  0.2754
 1004MOL0     H35521   4.562   9.388   3.069 -4.5637  1.5826  1.4078
 1004MOL0     H35522   4.208   8.838   3.657 -0.5342  0.5777 -0.5535
 1004MOL0     H35523   4.128   8.792   3.876  3.6682  1.0173 -1.9409
 1004MOL0     H35524   3.885   8.747   4.116 -2.4604 -0.2200 -0.6542
 1004MOL0     H35525   3.773   8.828   4.294  0.7108 -0.0627  2.4929
 1004MOL0     H35526   3.374   9.509   4.873  1.1540 -0.4988  5.6155
 1004MOL0     H35527   3.615   9.454   4.872 -0.8227  1.2450 -1.4671
 1004MOL0     H35528   3.997   8.979   4.711 -1.2553 -0.4451 -0.5215
 1004MOL0     H35529   4.217   8.976   4.747 -0.2892 -1.2830  1.7630
 1004MOL0     H35530   4.506   9.007   4.984  3.0147 -2.7001 -2.7526
 1004MOL0     H35531   4.387   8.931   4.879  0.4712  0.7567  0.6338
 1004MOL0     H35532   4.585   9.127   4.763  2.7821 -1.3584 -0.2893
 1004MOL0     H35533   4.495   9.000   4.682 -0.3536  0.9645 -0.2778
 1004MOL0     H35534   4.636   8.834   4.837 -0.9740 -1.4818 -3.2974
 1004MOL0     H35535   4.738   8.971   4.856 -0.3217 -1.7151  2.7068
 1004MOL0     H35536   4.833   8.851   4.678  1.2360  2.0771 -0.2131
 1004MOL0     H35537   4.755   8.989   4.600  1.9785 -1.8786 -2.0561
 1004MOL0     H35538   4.583   8.693   4.393  1.6815 -1.5574  0.9331
 1004MOL0     H35539   4.205   9.303   5.014 -2.6975 -0.1896  2.4445
 1004MOL0     H35540   3.946   9.300   4.983  0.6062 -2.2709  1.5437
 1005MOL0     O35541   5.379   1.771   6.040 -0.4134 -0.1377 -0.6209
 1005MOL0     C35542   5.465   1.860   6.025  0.2652 -0.1901  0.0624
 1005MOL0     O35543   5.443   1.978   5.964  0.0231  1.0102 -0.2663
 1005MOL0     C35544   5.307   1.998   5.928  0.5788 -0.0436 -0.1373
 1005MOL0     C35545   5.240   1.934   5.819  0.0071 -0.1880 -0.4048
 1005MOL0     C35546   5.114   1.977   5.777  0.4766 -0.3435 -0.2032
 1005MOL0     C35547   5.052   2.075   5.849  0.1475 -0.0503  0.1660
 1005MOL0     O35548   4.921   2.099   5.816 -0.1024  0.3917 -0.1486
 1005MOL0     C35549   4.905   2.187   5.713  0.2586  0.1880  0.6029
 1005MOL0     C35550   4.757   2.184   5.668  0.2084 -0.0672 -0.1898
 1005MOL0     C35551   4.660   2.242   5.779  0.2992 -0.5782 -0.7792
 1005MOL0     C35552   4.514   2.258   5.736 -0.4396 -0.0834  0.2276
 1005MOL0     C35553   4.430   2.322   5.845  0.1257 -0.1186  0.6948
 1005MOL0     C35554   4.307   2.404   5.804 -0.2554  0.3122  0.4693
 1005MOL0     C35555   4.203   2.336   5.720  0.2865  0.4904  0.3122
 1005MOL0     C35556   4.081   2.423   5.729 -0.4355  0.2589  0.1691
 1005MOL0     N35557   3.964   2.357   5.667  0.0859 -0.4173 -0.0181
 1005MOL0     C35558   3.864   2.299   5.741 -0.0083 -0.2313  0.1151
 1005MOL0     C35559   3.764   2.272   5.649 -0.7467  0.2669  0.1751
 1005MOL0     C35560   3.635   2.204   5.676 -0.4127  0.5467  0.5606
 1005MOL0     C35561   3.521   2.292   5.681 -0.3130  0.0455 -0.4626
 1005MOL0     C35562   3.393   2.201   5.718  0.3017  0.0415  0.4949
 1005MOL0     C35563   3.290   2.291   5.783 -0.4908 -0.1995 -0.0395
 1005MOL0     O35564   3.181   2.201   5.814  0.7643  0.2989 -0.1094
 1005MOL0     C35565   3.051   2.251   5.838  0.3669  0.1783 -0.1968
 1005MOL0     C35566   2.999   2.377   5.787 -0.1840  0.2878 -0.0065
 1005MOL0     C35567   2.864   2.405   5.805 -0.4760  0.5358  0.8735
 1005MOL0     C35568   2.822   2.538   5.743 -0.4272  0.4143 -0.1544
 1005MOL0     C35569   2.781   2.317   5.881 -0.4533 -0.2710  0.1642
 1005MOL0     C35570   2.641   2.342   5.900 -1.1911  0.8650  0.2414
 1005MOL0     O35571   2.604   2.346   6.033 -0.3263  0.0459 -0.4660
 1005MOL0     C35572   2.474   2.367   6.049  0.8805 -0.2630  0.0087
 1005MOL0     C35573   2.425   2.492   6.083  0.1351 -0.1310  0.2424
 1005MOL0     C35574   2.297   2.512   6.117 -0.2132  0.4593 -0.4479
 1005MOL0     C35575   2.203   2.406   6.125  0.5472  0.6467 -0.1513
 1005MOL0     O35576   2.070   2.416   6.146 -0.7820  0.4203 -0.5351
 1005MOL0     C35577   2.035   2.361   6.269  0.2873  0.0053  0.1400
 1005MOL0     C35578   1.895   2.413   6.301  0.4452  0.2920 -0.3214
 1005MOL0     C35579   1.779   2.344   6.225 -0.7392  0.1329 -0.8244
 1005MOL0     C35580   1.647   2.406   6.272  0.3406 -0.0059  0.4660
 1005MOL0     C35581   1.523   2.318   6.256 -0.0424 -0.0116  0.1322
 1005MOL0     C35582   1.395   2.395   6.244 -0.6268 -0.5121 -1.0262
 1005MOL0     C35583   1.266   2.318   6.237 -0.8104 -0.1407 -0.2748
 1005MOL0     C35584   1.242   2.245   6.111  0.0553 -0.5384  0.9045
 1005MOL0    Cl35585   1.095   2.142   6.107  0.3128 -0.5231 -0.0321
 1005MOL0     C35586   2.254   2.280   6.110 -0.3502 -0.7701 -0.0984
 1005MOL0     C35587   2.387   2.259   6.078 -0.1616  0.5062  0.4966
 1005MOL0     O35588   2.569   2.364   5.807 -0.6185 -0.3129  0.2000
 1005MOL0     C35589   2.830   2.192   5.923  0.0884  0.0391  0.4990
 1005MOL0     C35590   2.967   2.168   5.912 -0.2728 -0.0372  0.4599
 1005MOL0     N35591   3.815   2.301   5.525  0.2264  0.0783  0.0583
 1005MOL0     N35592   3.941   2.348   5.535 -0.0184  0.2022  0.0081
 1005MOL0     C35593   5.106   2.133   5.964  0.0785  0.3626  0.0762
 1005MOL0     C35594   5.231   2.091   6.004 -0.5867 -0.0283 -0.2480
 1005MOL0     C35595   5.595   1.828   6.080  0.4134 -0.3606  0.3695
 1005MOL0     C35596   5.680   1.936   6.114 -0.3672 -0.2966  0.7879
 1005MOL0     C35597   5.813   1.921   6.160  1.0122  0.1540 -0.2171
 1005MOL0     C35598   5.858   1.790   6.179 -0.7136  0.0609 -0.3415
 1005MOL0     O35599   5.995   1.778   6.198  0.0599 -0.5705  0.0514
 1005MOL0     C35600   6.049   1.646   6.246  0.5668 -0.0253  0.1095
 1005MOL0     C35601   6.202   1.658   6.256  0.3757 -0.1690 -0.8458
 1005MOL0     C35602   6.261   1.518   6.280 -0.1835  0.0414  0.2427
 1005MOL0     C35603   6.416   1.528   6.244 -0.2447  0.6306  0.8045
 1005MOL0     C35604   6.496   1.433   6.313 -0.1358  0.2127 -0.5897
 1005MOL0     C35605   6.563   1.353   6.375 -0.2590  0.0013 -0.8831
 1005MOL0     C35606   5.772   1.675   6.156  0.5567 -0.6342 -0.6166
 1005MOL0     C35607   5.636   1.692   6.100 -0.2463 -0.1850  0.2781
 1005MOL0     H35608   5.288   1.858   5.757  0.3508  1.0986 -1.7633
 1005MOL0     H35609   5.061   1.920   5.702 -1.6754  0.0799  0.9107
 1005MOL0     H35610   4.918   2.291   5.745 -1.1241  0.7256 -0.5001
 1005MOL0     H35611   4.963   2.175   5.621 -0.0301  2.1660  0.1305
 1005MOL0     H35612   4.756   2.230   5.569  0.6128 -1.1248 -0.6865
 1005MOL0     H35613   4.727   2.085   5.633 -2.2365  1.0041 -1.3776
 1005MOL0     H35614   4.662   2.175   5.866 -1.0260 -0.6981 -0.8114
 1005MOL0     H35615   4.709   2.333   5.814  1.2751 -0.6335 -1.9289
 1005MOL0     H35616   4.512   2.323   5.649  4.0950 -3.0942 -2.5312
 1005MOL0     H35617   4.471   2.163   5.703  1.8629 -0.8984 -0.6299
 1005MOL0     H35618   4.391   2.242   5.909 -0.9431 -0.0084  0.1941
 1005MOL0     H35619   4.486   2.391   5.909  2.4430 -1.0495 -0.1921
 1005MOL0     H35620   4.263   2.449   5.894 -1.3546 -0.2128  0.2175
 1005MOL0     H35621   4.352   2.489   5.752 -0.6843  1.2848  1.6293
 1005MOL0     H35622   4.232   2.342   5.614  2.3902  2.1274  0.9088
 1005MOL0     H35623   4.193   2.234   5.756  1.4623  1.3003  3.2359
 1005MOL0     H35624   4.109   2.516   5.679  1.4272  0.2936  1.1804
 1005MOL0     H35625   4.055   2.445   5.833 -2.5266 -0.8819 -0.0562
 1005MOL0     H35626   3.878   2.306   5.848  1.0601  1.5585 -0.1067
 1005MOL0     H35627   3.621   2.138   5.590  0.6107  1.2437 -0.1710
 1005MOL0     H35628   3.654   2.153   5.771  3.3352  1.4805  0.4810
 1005MOL0     H35629   3.495   2.347   5.591 -1.0480  3.4813  1.6450
 1005MOL0     H35630   3.535   2.363   5.763  2.1893 -0.8375 -0.0276
 1005MOL0     H35631   3.415   2.123   5.791  0.7555  0.0419  0.3666
 1005MOL0     H35632   3.343   2.153   5.633  3.2293 -2.2220 -0.1378
 1005MOL0     H35633   3.265   2.377   5.720 -2.7704 -1.6414 -1.2583
 1005MOL0     H35634   3.331   2.327   5.877  1.0753  1.1564 -1.1804
 1005MOL0     H35635   3.056   2.435   5.715 -0.6519 -2.1336 -2.5139
 1005MOL0     H35636   2.736   2.586   5.792  0.6573  0.2839  1.9658
 1005MOL0     H35637   2.901   2.609   5.769 -0.3079 -0.1268  1.0123
 1005MOL0     H35638   2.805   2.546   5.635  0.9059  0.4843 -0.3694
 1005MOL0     H35639   2.501   2.570   6.080  0.0951 -0.1185 -1.8966
 1005MOL0     H35640   2.265   2.610   6.152  2.2165  0.3737  2.4248
 1005MOL0     H35641   2.038   2.252   6.257  3.1273 -0.1576  1.5044
 1005MOL0     H35642   2.112   2.377   6.345  2.8145  0.6868 -2.3848
 1005MOL0     H35643   1.873   2.395   6.407 -0.7021 -2.2921 -0.9183
 1005MOL0     H35644   1.894   2.521   6.285  0.4696  0.6536  1.7723
 1005MOL0     H35645   1.771   2.238   6.248 -0.4508  0.8208  3.2504
 1005MOL0     H35646   1.803   2.364   6.120 -3.9563  2.8412 -1.2222
 1005MOL0     H35647   1.654   2.444   6.375 -0.2527  5.7493 -1.2591
 1005MOL0     H35648   1.626   2.493   6.208 -1.7664 -1.9144 -1.6203
 1005MOL0     H35649   1.506   2.250   6.341  0.2650 -1.8687 -1.2202
 1005MOL0     H35650   1.539   2.258   6.165  1.4452  2.1318 -1.1062
 1005MOL0     H35651   1.382   2.458   6.332  0.2357  1.2679 -2.1271
 1005MOL0     H35652   1.405   2.463   6.158  2.4050  1.5794  0.7871
 1005MOL0     H35653   1.188   2.393   6.250 -0.9802 -0.5317  1.2222
 1005MOL0     H35654   1.251   2.253   6.324 -0.3969 -1.5304 -1.2006
 1005MOL0     H35655   1.328   2.182   6.085 -2.4141 -4.9616  2.4336
 1005MOL0     H35656   1.226   2.310   6.024 -0.8338 -2.8867 -0.7784
 1005MOL0     H35657   2.185   2.197   6.104 -3.0715  1.2312  1.3086
 1005MOL0     H35658   2.424   2.157   6.091  2.3371  1.4251  1.0921
 1005MOL0     H35659   2.760   2.139   5.986  1.2304  0.9821  2.6648
 1005MOL0     H35660   3.012   2.075   5.944 -1.1610 -0.3169  0.9404
 1005MOL0     H35661   5.036   2.197   6.016 -2.4648 -3.6365  2.1021
 1005MOL0     H35662   5.273   2.127   6.098 -1.8962  1.9007 -0.3294
 1005MOL0     H35663   5.644   2.037   6.101  0.1725 -0.0857  0.8968
 1005MOL0     H35664   5.871   2.011   6.181 -0.0250  0.5825  0.9430
 1005MOL0     H35665   5.997   1.596   6.328  1.2898 -2.2961 -0.7232
 1005MOL0     H35666   6.031   1.563   6.177  1.2675 -2.0448  2.2183
 1005MOL0     H35667   6.216   1.716   6.348 -1.9417 -3.1538  1.6359
 1005MOL0     H35668   6.244   1.709   6.169 -2.0823  0.0516 -1.9927
 1005MOL0     H35669   6.222   1.450   6.204 -2.1020  0.3810  0.8654
 1005MOL0     H35670   6.241   1.475   6.379  1.6679  1.6207  1.3833
 1005MOL0     H35671   6.437   1.634   6.261 -0.0407  0.6188  0.6296
 1005MOL0     H35672   6.423   1.491   6.141 -0.6405 -3.4224  2.0572
 1005MOL0     H35673   6.614   1.279   6.434 -1.8657  0.1890  0.8303
 1005MOL0     H35674   5.812   1.576   6.175  0.6342 -0.4282  0.3955
 1005MOL0     H35675   5.576   1.602   6.087  2.8568 -1.9903 -3.4179
 1006MOL0     O35676   3.800   6.866   5.006  0.7802  0.1356  0.7788
 1006MOL0     C35677   3.874   6.841   4.915 -0.1123 -0.9626 -0.5667
 1006MOL0     O35678   3.849   6.868   4.785 -0.0462 -0.6199 -0.9386
 1006MOL0     C35679   3.748   6.952   4.749 -0.0185  0.8379 -0.0505
 1006MOL0     C35680   3.766   7.068   4.674  0.3356 -0.3528  0.5428
 1006MOL0     C35681   3.657   7.146   4.637 -0.2294  1.1301 -0.0741
 1006MOL0     C35682   3.529   7.126   4.686 -0.0043  0.5926 -0.5210
 1006MOL0     O35683   3.422   7.204   4.647 -0.4314  0.1017 -0.4065
 1006MOL0     C35684   3.298   7.149   4.599 -0.0814  0.1802  0.1236
 1006MOL0     C35685   3.188   7.256   4.598  1.1410 -0.4707  0.4042
 1006MOL0     C35686   3.054   7.197   4.552 -0.4645  0.5484  0.0490
 1006MOL0     C35687   2.946   7.298   4.535 -0.0622  0.1056 -0.1503
 1006MOL0     C35688   2.810   7.238   4.493  0.0739  0.0585 -0.0703
 1006MOL0     C35689   2.688   7.326   4.526 -0.4040 -0.0062 -0.1754
 1006MOL0     C35690   2.547   7.269   4.488 -0.0207 -1.1250  1.1098
 1006MOL0     C35691   2.534   7.246   4.334 -0.4870  0.2411  0.6401
 1006MOL0     N35692   2.539   7.372   4.272 -0.4532 -0.4756  0.0588
 1006MOL0     C35693   2.625   7.417   4.175 -0.0518  0.4346 -0.1487
 1006MOL0     C35694   2.577   7.547   4.146  0.5531  0.4305  0.5744
 1006MOL0     C35695   2.651   7.633   4.037  0.5497  0.0632 -0.2248
 1006MOL0     C35696   2.803   7.633   4.060  0.0934 -0.6063  0.6137
 1006MOL0     C35697   2.892   7.734   3.977 -0.6711  0.4036 -0.7349
 1006MOL0     C35698   2.862   7.716   3.831 -0.4964 -0.5422 -0.5602
 1006MOL0     O35699   2.904   7.581   3.797  0.2977  0.4198  0.7303
 1006MOL0     C35700   2.801   7.494   3.767 -0.5136 -0.8495 -0.5606
 1006MOL0     C35701   2.802   7.375   3.832  0.8150 -0.1712  0.2422
 1006MOL0     C35702   2.709   7.269   3.803  1.3729  0.2177  0.2864
 1006MOL0     C35703   2.712   7.151   3.897  0.4359 -0.2685 -1.1269
 1006MOL0     C35704   2.599   7.297   3.716 -0.9263  0.3418 -0.2560
 1006MOL0     C35705   2.480   7.204   3.700 -0.1572  0.4393  0.3640
 1006MOL0     O35706   2.484   7.147   3.573  0.4149  0.0194  0.3417
 1006MOL0     C35707   2.370   7.078   3.529  0.0638  0.5646  0.1413
 1006MOL0     C35708   2.372   6.979   3.433 -0.2839  0.6603 -0.2283
 1006MOL0     C35709   2.255   6.928   3.373  0.2276  0.4158 -0.3903
 1006MOL0     C35710   2.129   6.988   3.398 -0.1320 -0.9672 -0.1048
 1006MOL0     O35711   2.025   6.958   3.314  0.1640 -0.1076  0.3691
 1006MOL0     C35712   1.889   6.962   3.361 -0.3746 -0.5426 -0.1228
 1006MOL0     C35713   1.784   6.917   3.261  0.4514 -0.4591 -0.4775
 1006MOL0     C35714   1.645   6.926   3.322  0.2328  0.0320  0.6001
 1006MOL0     C35715   1.551   6.907   3.210  0.4046 -0.6821  0.3654
 1006MOL0     C35716   1.420   6.875   3.272 -0.2017  0.1145 -0.6337
 1006MOL0     C35717   1.309   6.900   3.168 -0.5134  0.8939  0.5637
 1006MOL0     C35718   1.298   6.788   3.061  1.0733 -0.4981  0.2641
 1006MOL0     C35719   1.157   6.785   2.999  0.6013  0.9878  0.5166
 1006MOL0    Cl35720   1.053   6.700   3.104  0.2433  0.2549 -0.0998
 1006MOL0     C35721   2.116   7.081   3.504 -0.7961  0.0077 -0.2733
 1006MOL0     C35722   2.239   7.128   3.561  0.2375 -0.6343 -0.0639
 1006MOL0     O35723   2.396   7.185   3.786  2.0185 -0.0744 -0.0989
 1006MOL0     C35724   2.611   7.408   3.639  0.0556 -0.2551 -0.7955
 1006MOL0     C35725   2.710   7.508   3.663 -0.9763 -0.4377  0.2569
 1006MOL0     N35726   2.462   7.572   4.216  0.2181  0.5888 -0.0005
 1006MOL0     N35727   2.442   7.463   4.290 -0.2323  0.0390  0.4744
 1006MOL0     C35728   3.510   7.006   4.759  0.2505 -0.3528 -0.3789
 1006MOL0     C35729   3.617   6.919   4.787  0.5216  0.2897  0.1852
 1006MOL0     C35730   4.004   6.788   4.957 -0.0593 -0.0328  0.9848
 1006MOL0     C35731   4.042   6.776   5.090 -0.3388 -0.3733 -0.8931
 1006MOL0     C35732   4.170   6.725   5.125 -0.2874 -0.0282  0.5113
 1006MOL0     C35733   4.260   6.693   5.024  0.1396 -0.3799  0.2385
 1006MOL0     O35734   4.381   6.628   5.046  0.1954 -0.0615  0.3695
 1006MOL0     C35735   4.380   6.533   5.153  0.0225 -0.2116  0.4880
 1006MOL0     C35736   4.500   6.430   5.140  0.1860 -0.4131  0.7271
 1006MOL0     C35737   4.632   6.456   5.202 -0.0058 -0.8652 -0.5137
 1006MOL0     C35738   4.630   6.449   5.352  0.4301 -0.5348  0.5820
 1006MOL0     C35739   4.765   6.405   5.394 -0.3672  0.1136  0.4541
 1006MOL0     C35740   4.879   6.375   5.420 -0.2858  0.0101 -0.0138
 1006MOL0     C35741   4.233   6.722   4.888  0.8077 -0.8375  0.4030
 1006MOL0     C35742   4.097   6.758   4.856 -0.2214 -0.0056  1.2385
 1006MOL0     H35743   3.866   7.094   4.639  0.4138  0.9739  1.6624
 1006MOL0     H35744   3.673   7.224   4.562  0.2895  0.0410 -1.1292
 1006MOL0     H35745   3.312   7.120   4.495 -1.6108  0.6855 -0.2328
 1006MOL0     H35746   3.273   7.062   4.660  4.3361  1.1537  3.9388
 1006MOL0     H35747   3.178   7.304   4.696  2.7708  1.0424 -0.1106
 1006MOL0     H35748   3.213   7.348   4.544 -3.4313 -1.0811 -3.3772
 1006MOL0     H35749   3.071   7.136   4.463 -1.7750  2.3034 -1.4917
 1006MOL0     H35750   3.013   7.122   4.621 -0.2229  0.7895  0.4570
 1006MOL0     H35751   2.933   7.363   4.622 -3.0917 -0.7368  0.1342
 1006MOL0     H35752   2.977   7.369   4.457 -0.8972 -0.7305 -1.2856
 1006MOL0     H35753   2.809   7.223   4.384 -0.4568  0.7403 -0.1642
 1006MOL0     H35754   2.799   7.141   4.544 -0.2358  0.0020 -0.2419
 1006MOL0     H35755   2.680   7.337   4.635 -1.5229  1.4274 -0.3646
 1006MOL0     H35756   2.716   7.425   4.489  0.6909  0.3213  1.4094
 1006MOL0     H35757   2.545   7.169   4.532  4.9050 -2.6598 -1.3153
 1006MOL0     H35758   2.470   7.339   4.520  1.0244  2.5601 -3.2560
 1006MOL0     H35759   2.441   7.192   4.311 -0.6575  1.4541 -1.7691
 1006MOL0     H35760   2.610   7.177   4.297 -2.1934 -1.0007 -0.6874
 1006MOL0     H35761   2.705   7.366   4.121  1.4917  1.2214  1.2759
 1006MOL0     H35762   2.628   7.590   3.939  2.4640 -1.5661 -0.0368
 1006MOL0     H35763   2.623   7.738   4.045  0.1553 -0.1019  0.6601
 1006MOL0     H35764   2.841   7.531   4.055  2.8507  0.3218  0.9098
 1006MOL0     H35765   2.822   7.671   4.161  0.0419 -0.5537  0.6039
 1006MOL0     H35766   3.000   7.718   3.984 -0.5091  2.0068  1.4173
 1006MOL0     H35767   2.881   7.836   4.014  1.2287  0.5927 -0.5605
 1006MOL0     H35768   2.921   7.791   3.779 -1.0133 -0.2513 -0.7347
 1006MOL0     H35769   2.755   7.730   3.814 -0.3124 -0.2263 -1.4889
 1006MOL0     H35770   2.876   7.360   3.910  1.0765 -1.0789 -0.1703
 1006MOL0     H35771   2.691   7.058   3.844  2.7161 -2.5003  1.5754
 1006MOL0     H35772   2.805   7.148   3.954 -0.5728  0.2856  0.6391
 1006MOL0     H35773   2.629   7.147   3.968 -0.4243  2.1728 -1.8903
 1006MOL0     H35774   2.468   6.946   3.394 -1.5216 -3.3634 -0.2999
 1006MOL0     H35775   2.265   6.846   3.303 -2.2653 -0.8979  0.6635
 1006MOL0     H35776   1.883   6.914   3.458  1.6765  2.7423  1.8501
 1006MOL0     H35777   1.851   7.060   3.393 -0.5454  0.0835 -2.1030
 1006MOL0     H35778   1.793   6.966   3.164 -0.2659 -2.3614 -1.5415
 1006MOL0     H35779   1.811   6.812   3.246 -0.2769 -0.4867 -1.6931
 1006MOL0     H35780   1.628   7.025   3.367  0.6506 -0.1541  1.1790
 1006MOL0     H35781   1.636   6.849   3.398 -0.5157  0.7684  1.2790
 1006MOL0     H35782   1.544   6.998   3.150 -0.7458 -0.2355  1.1534
 1006MOL0     H35783   1.598   6.828   3.149 -0.0437 -0.2247 -0.5991
 1006MOL0     H35784   1.400   6.942   3.355  0.8035 -0.2980 -0.0457
 1006MOL0     H35785   1.431   6.769   3.298 -1.9239  0.0899  0.1139
 1006MOL0     H35786   1.218   6.897   3.229  0.1919 -2.8570  1.6835
 1006MOL0     H35787   1.320   6.996   3.117 -1.3293 -0.7582 -3.0625
 1006MOL0     H35788   1.320   6.693   3.111 -1.1398 -0.2714  1.7850
 1006MOL0     H35789   1.370   6.803   2.980 -0.2570 -1.2298 -1.0923
 1006MOL0     H35790   1.162   6.736   2.901 -1.8023  0.4278  0.6024
 1006MOL0     H35791   1.116   6.886   2.988 -1.0642  0.2782 -0.1090
 1006MOL0     H35792   2.031   7.148   3.502  1.4682  3.2975 -4.5624
 1006MOL0     H35793   2.236   7.224   3.612 -2.8725 -0.4441 -0.4370
 1006MOL0     H35794   2.543   7.429   3.557  1.2141  1.5174 -1.3573
 1006MOL0     H35795   2.710   7.604   3.612  0.3522 -1.2543 -1.3627
 1006MOL0     H35796   3.416   6.970   4.800  0.0820  1.0721  0.5408
 1006MOL0     H35797   3.600   6.824   4.836  0.7635  0.3212  0.3292
 1006MOL0     H35798   3.978   6.813   5.170  1.2822 -1.1537  0.8475
 1006MOL0     H35799   4.204   6.735   5.228  0.9820  4.1824 -0.1173
 1006MOL0     H35800   4.401   6.573   5.253  0.2965 -1.5982  1.0169
 1006MOL0     H35801   4.285   6.478   5.159  0.4280 -1.0999 -0.8647
 1006MOL0     H35802   4.518   6.423   5.033  0.3770 -1.4983  0.8143
 1006MOL0     H35803   4.459   6.333   5.171 -1.9276  0.4391  0.7701
 1006MOL0     H35804   4.663   6.558   5.175 -2.4894 -0.6643 -2.9845
 1006MOL0     H35805   4.703   6.388   5.154 -0.3741 -0.0750 -2.2413
 1006MOL0     H35806   4.564   6.375   5.398  0.0639 -1.2890 -1.0882
 1006MOL0     H35807   4.613   6.544   5.404 -1.1896 -1.0639  1.0797
 1006MOL0     H35808   4.980   6.346   5.439  0.4538  0.7745 -2.3876
 1006MOL0     H35809   4.308   6.709   4.811  0.0612  2.9198 -1.1799
 1006MOL0     H35810   4.069   6.770   4.751  0.9552 -1.4024  0.7235
 1007MOL0     O35811  11.335   3.771   3.458  0.4423  0.8030  0.2333
 1007MOL0     C35812  11.417   3.845   3.404  0.6333  0.2659 -0.5327
 1007MOL0     O35813  11.404   3.975   3.375  0.9094  0.0248  0.2582
 1007MOL0     C35814  11.282   4.032   3.384 -0.3937  0.3460 -0.0644
 1007MOL0     C35815  11.230   4.070   3.262  0.3878  0.0089  0.1764
 1007MOL0     C35816  11.105   4.138   3.259 -0.5291  0.7692 -0.8041
 1007MOL0     C35817  11.051   4.173   3.374  0.4452 -0.1945 -1.0867
 1007MOL0     O35818  10.941   4.251   3.364  0.1935  0.1148 -0.4881
 1007MOL0     C35819  10.846   4.248   3.470 -0.1944 -0.0929  0.4687
 1007MOL0     C35820  10.722   4.316   3.411 -0.4029 -0.5377  0.1094
 1007MOL0     C35821  10.631   4.344   3.522  0.2177 -0.8877 -0.2369
 1007MOL0     C35822  10.489   4.322   3.470  0.1228  0.3779  0.4960
 1007MOL0     C35823  10.368   4.357   3.554 -0.0181 -0.1242  0.1096
 1007MOL0     C35824  10.235   4.351   3.476 -0.0880  0.1643  0.3602
 1007MOL0     C35825  10.123   4.401   3.558  1.0583 -0.2751  0.9795
 1007MOL0     C35826   9.996   4.426   3.474 -1.1863 -0.1120 -0.4062
 1007MOL0     N35827   9.882   4.457   3.552 -0.5227  0.8267  0.2518
 1007MOL0     C35828   9.766   4.388   3.548  0.6663  0.2910  0.2472
 1007MOL0     C35829   9.684   4.450   3.632 -0.1377  0.4918  0.0099
 1007MOL0     C35830   9.548   4.392   3.672 -0.3516 -0.5771 -0.3815
 1007MOL0     C35831   9.430   4.475   3.613  0.0330  0.6996  0.1744
 1007MOL0     C35832   9.305   4.383   3.624 -0.0244 -0.0751 -0.6682
 1007MOL0     C35833   9.185   4.468   3.561 -0.6449  0.3110  0.0346
 1007MOL0     O35834   9.069   4.391   3.585  0.0598 -0.1506 -0.0580
 1007MOL0     C35835   8.947   4.445   3.555  0.2096  1.0220 -0.3394
 1007MOL0     C35836   8.917   4.575   3.501  0.0201  0.1695 -0.0851
 1007MOL0     C35837   8.783   4.623   3.481  0.1236  0.1899 -0.1236
 1007MOL0     C35838   8.766   4.754   3.411  0.9560 -0.6166 -0.6012
 1007MOL0     C35839   8.676   4.546   3.535  0.4765  0.1156  0.2608
 1007MOL0     C35840   8.534   4.584   3.520  1.0729 -0.2167  0.6012
 1007MOL0     O35841   8.459   4.483   3.459  0.6756  0.8773  0.5309
 1007MOL0     C35842   8.334   4.520   3.409 -1.2816  0.6899 -0.0733
 1007MOL0     C35843   8.220   4.459   3.458 -0.4921 -0.4274  0.1817
 1007MOL0     C35844   8.099   4.476   3.389  0.4942  0.5353  0.0321
 1007MOL0     C35845   8.084   4.564   3.282  0.2991  0.1403  0.1747
 1007MOL0     O35846   7.969   4.596   3.221 -0.4096 -0.2811  1.1623
 1007MOL0     C35847   7.858   4.587   3.302 -0.4775  1.3047 -0.3322
 1007MOL0     C35848   7.732   4.639   3.230 -0.6444  0.8424  0.2744
 1007MOL0     C35849   7.602   4.614   3.300 -0.8080 -0.3031 -0.3380
 1007MOL0     C35850   7.488   4.681   3.230  0.3583  0.3876 -0.2316
 1007MOL0     C35851   7.474   4.649   3.082 -0.1722 -0.1748 -0.1095
 1007MOL0     C35852   7.336   4.702   3.025 -0.0719  0.6901  0.3138
 1007MOL0     C35853   7.291   4.632   2.897 -0.1262  0.5109 -0.3555
 1007MOL0     C35854   7.144   4.632   2.887  0.0190 -0.1154  0.0141
 1007MOL0    Cl35855   7.099   4.791   2.813  0.3357 -0.2047  0.5873
 1007MOL0     C35856   8.199   4.629   3.240  0.4489  0.4145 -0.0001
 1007MOL0     C35857   8.329   4.605   3.299  0.3771  0.2075 -0.5352
 1007MOL0     O35858   8.486   4.694   3.549 -0.5479  0.3068 -0.0424
 1007MOL0     C35859   8.706   4.416   3.588 -0.4339 -0.2271 -0.4040
 1007MOL0     C35860   8.837   4.367   3.600  0.5530 -1.0885 -0.3843
 1007MOL0     N35861   9.732   4.573   3.655  0.2584  0.1236 -0.5257
 1007MOL0     N35862   9.861   4.572   3.614  0.5026  0.1874 -0.1116
 1007MOL0     C35863  11.103   4.129   3.501  0.1286 -0.0805 -0.5606
 1007MOL0     C35864  11.219   4.051   3.502  0.7359  0.2270  0.1033
 1007MOL0     C35865  11.544   3.784   3.349 -0.9745  0.7376 -1.5750
 1007MOL0     C35866  11.609   3.670   3.410 -0.8214  0.3269  0.0896
 1007MOL0     C35867  11.730   3.610   3.368  1.0742  0.0027  0.0139
 1007MOL0     C35868  11.781   3.660   3.245 -0.5626 -0.0531  0.4556
 1007MOL0     O35869  11.905   3.620   3.193  0.0573  0.0270 -0.2269
 1007MOL0     C35870  11.965   3.508   3.247  0.2544 -0.2057 -0.6116
 1007MOL0     C35871  12.090   3.473   3.164  0.4727 -0.3549  0.2006
 1007MOL0     C35872  12.175   3.592   3.110 -0.5643  0.0675 -0.4202
 1007MOL0     C35873  12.318   3.558   3.055 -0.1344 -0.1432 -0.0076
 1007MOL0     C35874  12.390   3.478   3.157  0.7498  0.0048 -0.3886
 1007MOL0     C35875  12.455   3.404   3.224  0.0689 -0.4532 -1.2054
 1007MOL0     C35876  11.713   3.760   3.174  0.8525 -0.4236 -0.3437
 1007MOL0     C35877  11.600   3.820   3.226 -0.4855 -0.0093 -0.2498
 1007MOL0     H35878  11.284   4.054   3.169  0.8876 -0.0664  0.4763
 1007MOL0     H35879  11.065   4.177   3.165 -0.0154  1.5165 -0.7190
 1007MOL0     H35880  10.818   4.148   3.504  0.6887 -0.8828 -1.0155
 1007MOL0     H35881  10.888   4.311   3.549 -0.1877 -0.4321  0.7365
 1007MOL0     H35882  10.754   4.407   3.360  2.2107 -0.8073  1.1291
 1007MOL0     H35883  10.691   4.240   3.339 -0.3262  1.5387 -2.2459
 1007MOL0     H35884  10.649   4.285   3.612 -1.5505 -0.4848  0.4157
 1007MOL0     H35885  10.647   4.451   3.540 -0.5571 -0.0062 -3.8626
 1007MOL0     H35886  10.474   4.378   3.377 -1.0319 -0.0114  0.4348
 1007MOL0     H35887  10.476   4.221   3.430 -2.7572  0.3163  1.3851
 1007MOL0     H35888  10.376   4.284   3.635  1.5060 -0.2463 -0.1261
 1007MOL0     H35889  10.382   4.455   3.601 -4.1855  1.4131 -1.3933
 1007MOL0     H35890  10.257   4.412   3.389  0.5225  0.4900  0.7355
 1007MOL0     H35891  10.222   4.247   3.443 -3.2784  0.4614  0.3219
 1007MOL0     H35892  10.107   4.320   3.630  1.8760 -0.3672  1.0651
 1007MOL0     H35893  10.161   4.493   3.604 -0.0379  0.6688  0.0672
 1007MOL0     H35894   9.981   4.336   3.414 -1.1906  0.3414 -1.0947
 1007MOL0     H35895  10.019   4.514   3.413 -0.7497  0.3623  0.4242
 1007MOL0     H35896   9.760   4.292   3.496 -0.0326  0.6176 -0.2955
 1007MOL0     H35897   9.538   4.294   3.625 -2.3366 -0.9511  0.7022
 1007MOL0     H35898   9.547   4.381   3.781  1.5177  2.2087  0.0083
 1007MOL0     H35899   9.465   4.487   3.510  1.9181  2.2792  0.9392
 1007MOL0     H35900   9.400   4.570   3.658 -3.1871 -1.0168  2.0024
 1007MOL0     H35901   9.282   4.373   3.731 -0.8570 -1.9682 -0.9938
 1007MOL0     H35902   9.311   4.283   3.582 -0.4621 -1.0990  1.5641
 1007MOL0     H35903   9.212   4.484   3.456  1.8056 -0.4758  0.4929
 1007MOL0     H35904   9.172   4.566   3.609 -3.9080  0.1613 -0.3484
 1007MOL0     H35905   8.992   4.646   3.467 -0.4896  0.2917 -0.9920
 1007MOL0     H35906   8.856   4.816   3.404  0.8772 -0.6861 -2.7779
 1007MOL0     H35907   8.739   4.724   3.309  0.0206 -1.8239 -0.0307
 1007MOL0     H35908   8.692   4.822   3.453  2.7457 -0.6596  3.0567
 1007MOL0     H35909   8.221   4.405   3.552  2.5978  2.4214  1.9858
 1007MOL0     H35910   8.021   4.416   3.435  0.4921  0.2607 -0.3287
 1007MOL0     H35911   7.847   4.479   3.315  2.1152  0.8766 -1.2217
 1007MOL0     H35912   7.873   4.629   3.402 -1.5152 -1.2657  0.9916
 1007MOL0     H35913   7.751   4.746   3.215 -0.4093  0.5307 -1.9496
 1007MOL0     H35914   7.738   4.580   3.138 -3.3503 -2.6387  2.0916
 1007MOL0     H35915   7.607   4.673   3.392 -3.7042 -0.4552 -0.0001
 1007MOL0     H35916   7.587   4.507   3.313 -0.2142 -0.1925  1.5384
 1007MOL0     H35917   7.402   4.635   3.278  1.0181  0.5353  1.1309
 1007MOL0     H35918   7.495   4.790   3.235  0.2252  0.3420  1.6024
 1007MOL0     H35919   7.468   4.541   3.070 -0.0314 -0.0912 -0.9772
 1007MOL0     H35920   7.557   4.689   3.023 -0.0465 -2.3178 -1.5005
 1007MOL0     H35921   7.258   4.700   3.102 -0.6122  4.0820  0.0093
 1007MOL0     H35922   7.341   4.811   3.014 -0.7064  0.7514  0.6206
 1007MOL0     H35923   7.340   4.534   2.899 -0.7661  0.1994  1.0182
 1007MOL0     H35924   7.345   4.674   2.811  0.6567  2.0659  0.8607
 1007MOL0     H35925   7.093   4.616   2.983 -0.1269  0.0125 -0.0401
 1007MOL0     H35926   7.105   4.554   2.822  0.1354  0.3522 -0.6242
 1007MOL0     H35927   8.198   4.689   3.150 -0.4218 -0.8092 -0.8439
 1007MOL0     H35928   8.418   4.659   3.266  0.3139 -0.0613 -1.1628
 1007MOL0     H35929   8.618   4.357   3.610 -1.3839 -0.6517 -4.5497
 1007MOL0     H35930   8.852   4.264   3.630  0.3384 -0.3900  2.4083
 1007MOL0     H35931  11.056   4.153   3.596  1.1115 -1.4892  0.3199
 1007MOL0     H35932  11.261   4.024   3.598 -1.3363  0.0785  1.0172
 1007MOL0     H35933  11.558   3.628   3.496  2.2930  0.6352  2.2713
 1007MOL0     H35934  11.782   3.527   3.414  0.9574 -0.3941 -0.5648
 1007MOL0     H35935  11.990   3.528   3.352  0.9871 -0.8138 -0.6544
 1007MOL0     H35936  11.902   3.418   3.250 -0.8597  0.5523  2.0181
 1007MOL0     H35937  12.046   3.424   3.076  0.2681 -1.3500  0.8389
 1007MOL0     H35938  12.158   3.392   3.193 -0.9574 -1.8468 -0.4669
 1007MOL0     H35939  12.189   3.665   3.190 -0.2209 -3.5417  3.1547
 1007MOL0     H35940  12.118   3.650   3.036  1.5418  3.3651  0.3246
 1007MOL0     H35941  12.374   3.644   3.016 -0.0329 -0.8048 -1.3433
 1007MOL0     H35942  12.310   3.504   2.961 -3.4912 -0.2268  0.1860
 1007MOL0     H35943  12.505   3.330   3.282 -1.6959  0.0749  1.1586
 1007MOL0     H35944  11.751   3.789   3.077 -0.4252 -2.1021 -1.4140
 1007MOL0     H35945  11.556   3.898   3.164  0.5535  1.8106  1.2063
 1008MOL0     O35946   6.902   3.485   2.011 -0.5374 -0.2174  0.4709
 1008MOL0     C35947   6.989   3.443   1.937 -0.1534  0.9366  0.0521
 1008MOL0     O35948   6.990   3.316   1.880 -0.3640 -0.0662 -0.0961
 1008MOL0     C35949   6.881   3.239   1.906 -0.1473  0.3624  0.1634
 1008MOL0     C35950   6.830   3.208   2.034 -0.3028  0.4500  0.0560
 1008MOL0     C35951   6.722   3.126   2.042 -1.4224  0.6426 -1.1067
 1008MOL0     C35952   6.649   3.083   1.930  0.3943 -0.0404  0.5933
 1008MOL0     O35953   6.549   3.001   1.923 -0.2954  0.4152 -0.2125
 1008MOL0     C35954   6.468   2.989   2.054  0.0043 -0.3450  0.7549
 1008MOL0     C35955   6.372   2.867   2.034 -0.3369 -1.4096 -0.5217
 1008MOL0     C35956   6.259   2.902   1.933  0.0166  0.1679 -0.7249
 1008MOL0     C35957   6.145   2.804   1.929 -0.3019  0.1739  0.5909
 1008MOL0     C35958   6.010   2.851   1.868 -0.0623 -0.0364  0.3825
 1008MOL0     C35959   5.906   2.733   1.856 -0.9494 -0.3328  1.0394
 1008MOL0     C35960   5.779   2.763   1.784 -0.4751 -0.3283  0.0200
 1008MOL0     C35961   5.689   2.637   1.753  0.9022  0.1478 -0.2078
 1008MOL0     N35962   5.548   2.674   1.728 -0.0860  0.4518 -0.1806
 1008MOL0     C35963   5.448   2.588   1.767  0.6804  0.3265  0.1174
 1008MOL0     C35964   5.338   2.665   1.737 -0.6966  0.2131  0.0065
 1008MOL0     C35965   5.196   2.634   1.750  0.4018  0.3716 -0.1789
 1008MOL0     C35966   5.166   2.486   1.748  0.3024  0.8305  0.4557
 1008MOL0     C35967   5.013   2.470   1.742  0.5150 -0.2093  0.0057
 1008MOL0     C35968   4.957   2.334   1.685  0.2165 -0.2164 -0.2752
 1008MOL0     O35969   4.823   2.332   1.718 -0.1432 -0.6211  0.0725
 1008MOL0     C35970   4.733   2.401   1.640 -0.2795 -0.2499  0.9852
 1008MOL0     C35971   4.770   2.490   1.533 -0.8645  0.4423  0.4616
 1008MOL0     C35972   4.683   2.548   1.445  0.7743  0.3794  0.0913
 1008MOL0     C35973   4.743   2.621   1.323  0.7641  0.1896 -0.7016
 1008MOL0     C35974   4.543   2.547   1.476  0.5529 -0.0568 -0.1904
 1008MOL0     C35975   4.431   2.617   1.398  0.0774 -0.1531 -0.1565
 1008MOL0     O35976   4.303   2.601   1.449  0.4541 -0.7866  0.5112
 1008MOL0     C35977   4.201   2.683   1.389  0.8187  0.9056  0.2199
 1008MOL0     C35978   4.119   2.773   1.458  0.0570 -0.5522  0.4295
 1008MOL0     C35979   4.010   2.838   1.403 -0.9923  0.5455  0.9943
 1008MOL0     C35980   3.982   2.820   1.262  0.5961 -0.1401 -0.5185
 1008MOL0     O35981   3.887   2.896   1.205 -0.3568 -0.0121 -0.4800
 1008MOL0     C35982   3.837   2.863   1.075  0.6279  0.4027 -0.1680
 1008MOL0     C35983   3.723   2.960   1.049 -0.0089  0.0213  0.4626
 1008MOL0     C35984   3.761   3.104   1.032  0.1300  0.2295 -0.2445
 1008MOL0     C35985   3.635   3.186   0.993  0.4504 -0.5586 -0.5142
 1008MOL0     C35986   3.649   3.338   1.032 -0.2233 -0.5036 -0.4596
 1008MOL0     C35987   3.770   3.414   0.985 -0.3841  0.5022 -0.6999
 1008MOL0     C35988   3.754   3.564   0.975  0.3039  0.8766  0.8642
 1008MOL0     C35989   3.867   3.635   0.907  0.8970  0.1708  0.2616
 1008MOL0    Cl35990   3.892   3.584   0.736  0.8281 -0.2059 -0.0210
 1008MOL0     C35991   4.068   2.734   1.188  0.3326 -0.5348  0.2994
 1008MOL0     C35992   4.167   2.662   1.258 -0.7335  0.1620 -0.2893
 1008MOL0     O35993   4.459   2.687   1.306  0.2301 -0.2496  0.5306
 1008MOL0     C35994   4.502   2.475   1.596  0.3450  0.2463 -0.7899
 1008MOL0     C35995   4.599   2.407   1.667  0.6694  0.5901  0.1109
 1008MOL0     N35996   5.381   2.786   1.678 -0.1438  0.0267 -0.5196
 1008MOL0     N35997   5.507   2.784   1.681 -0.7700 -0.7127 -0.2609
 1008MOL0     C35998   6.695   3.119   1.801  0.3205 -0.2908 -0.3092
 1008MOL0     C35999   6.802   3.206   1.797  0.2489  0.5541  0.3342
 1008MOL0     C36000   7.107   3.518   1.890  0.8518 -0.4706 -0.3741
 1008MOL0     C36001   7.196   3.471   1.786  1.3742 -0.4161 -0.6685
 1008MOL0     C36002   7.298   3.549   1.733  0.2856  1.1377 -0.4640
 1008MOL0     C36003   7.306   3.682   1.774  0.6607  0.7370  0.3571
 1008MOL0     O36004   7.411   3.764   1.737 -0.0651 -0.1518 -0.0749
 1008MOL0     C36005   7.427   3.784   1.598 -0.5703  0.2472  0.9703
 1008MOL0     C36006   7.538   3.891   1.563  0.9505  0.2819  0.0429
 1008MOL0     C36007   7.667   3.882   1.646  1.1269 -0.2245 -0.5727
 1008MOL0     C36008   7.747   4.018   1.623 -0.3062 -0.3928  0.0280
 1008MOL0     C36009   7.690   4.129   1.687 -0.4266 -0.7336  0.1218
 1008MOL0     C36010   7.617   4.213   1.736 -0.3302  0.3777  0.0292
 1008MOL0     C36011   7.228   3.728   1.885 -0.0007 -0.0512  0.1850
 1008MOL0     C36012   7.121   3.646   1.943  0.2235  0.0437 -0.2816
 1008MOL0     H36013   6.883   3.228   2.127 -0.0940 -1.4387  0.3750
 1008MOL0     H36014   6.682   3.098   2.139  1.3689  0.4387  0.0767
 1008MOL0     H36015   6.533   2.964   2.138  3.8180 -0.0717 -1.8737
 1008MOL0     H36016   6.412   3.079   2.083  0.7884 -0.6567  3.4185
 1008MOL0     H36017   6.433   2.782   2.002 -0.5697 -1.3934 -1.0060
 1008MOL0     H36018   6.332   2.844   2.134  1.9228 -0.4482  0.6760
 1008MOL0     H36019   6.210   2.987   1.982 -0.2864 -0.1520 -0.4603
 1008MOL0     H36020   6.304   2.932   1.838  1.9325 -1.2151 -0.3147
 1008MOL0     H36021   6.182   2.717   1.874 -1.4993 -0.2737  0.4607
 1008MOL0     H36022   6.110   2.785   2.031 -1.6814 -0.0545  0.0976
 1008MOL0     H36023   5.968   2.937   1.920  0.3337 -0.3513  1.2531
 1008MOL0     H36024   6.034   2.886   1.767  0.1952  0.8766  0.7523
 1008MOL0     H36025   5.949   2.652   1.796  0.1382  0.8910  0.1081
 1008MOL0     H36026   5.888   2.700   1.959 -2.5793 -3.5277 -0.1178
 1008MOL0     H36027   5.718   2.830   1.845  1.0495 -0.3669  1.6726
 1008MOL0     H36028   5.804   2.812   1.689 -0.3357 -1.8409 -0.7475
 1008MOL0     H36029   5.688   2.576   1.844  0.1911 -0.6573 -0.7436
 1008MOL0     H36030   5.730   2.582   1.668  1.1976  2.1003 -1.3842
 1008MOL0     H36031   5.457   2.485   1.802  1.3614  0.4704  0.3862
 1008MOL0     H36032   5.163   2.673   1.847 -1.1209  3.0850 -1.6632
 1008MOL0     H36033   5.140   2.690   1.674 -0.6428 -0.8777 -0.3566
 1008MOL0     H36034   5.200   2.433   1.837 -0.8599  1.2370  1.1615
 1008MOL0     H36035   5.220   2.441   1.664 -0.4714 -0.1263  0.4488
 1008MOL0     H36036   4.981   2.548   1.672  2.9168  0.9956  0.1468
 1008MOL0     H36037   4.962   2.502   1.833 -1.7932  1.1260 -1.6696
 1008MOL0     H36038   5.009   2.250   1.730 -0.5081 -0.6759 -0.2764
 1008MOL0     H36039   4.981   2.323   1.578 -4.1820 -1.6198 -1.3527
 1008MOL0     H36040   4.876   2.496   1.510 -0.8087 -0.4128  0.4516
 1008MOL0     H36041   4.689   2.588   1.234 -2.4336 -0.1397  1.2074
 1008MOL0     H36042   4.742   2.730   1.332 -0.0671  0.0119  2.4235
 1008MOL0     H36043   4.848   2.593   1.314  0.6578 -0.9147  1.0236
 1008MOL0     H36044   4.141   2.809   1.558 -0.0039  0.2893  0.1542
 1008MOL0     H36045   3.948   2.916   1.447 -1.7234  1.0689 -0.8330
 1008MOL0     H36046   3.911   2.875   0.996  0.2652  1.7889 -0.3220
 1008MOL0     H36047   3.805   2.759   1.071 -2.3309  1.1813  0.6323
 1008MOL0     H36048   3.660   2.930   0.966 -3.2623  2.6306  1.7628
 1008MOL0     H36049   3.664   2.946   1.140  1.5635 -4.6067  1.0232
 1008MOL0     H36050   3.837   3.120   0.955 -1.7496  0.4260 -2.1481
 1008MOL0     H36051   3.803   3.132   1.129  1.1222 -1.6532 -0.0722
 1008MOL0     H36052   3.620   3.195   0.885 -2.5693  2.3417 -0.0219
 1008MOL0     H36053   3.545   3.144   1.038 -0.0745  0.2050 -0.8280
 1008MOL0     H36054   3.652   3.335   1.141 -1.8510 -0.8863 -0.3942
 1008MOL0     H36055   3.561   3.397   1.004  0.7134  0.2934 -1.7757
 1008MOL0     H36056   3.857   3.391   1.047  2.0416  5.0067 -2.0102
 1008MOL0     H36057   3.775   3.373   0.883 -2.1532 -3.4786  0.5789
 1008MOL0     H36058   3.733   3.612   1.071 -3.5496 -0.1471  0.6818
 1008MOL0     H36059   3.668   3.570   0.908  2.9401 -0.0505 -2.8674
 1008MOL0     H36060   3.967   3.626   0.951  1.2302 -1.9202 -0.8090
 1008MOL0     H36061   3.821   3.734   0.899 -0.0872 -0.2179  0.9636
 1008MOL0     H36062   4.065   2.728   1.079  0.1537  3.1968 -0.0477
 1008MOL0     H36063   4.242   2.599   1.210  1.2663  1.8505  0.4427
 1008MOL0     H36064   4.398   2.463   1.626  0.2673  1.5228 -0.4706
 1008MOL0     H36065   4.561   2.351   1.752  0.8099  2.2651  1.3249
 1008MOL0     H36066   6.644   3.101   1.707 -1.6813  3.4072 -0.1285
 1008MOL0     H36067   6.821   3.236   1.694 -2.8319  4.3346  0.6457
 1008MOL0     H36068   7.180   3.368   1.755  0.3328 -0.9041  1.3276
 1008MOL0     H36069   7.370   3.504   1.665 -0.2246  0.4828 -0.5855
 1008MOL0     H36070   7.463   3.694   1.548 -0.6641 -0.6284  2.4046
 1008MOL0     H36071   7.334   3.819   1.553  0.1922 -0.7263 -1.5003
 1008MOL0     H36072   7.493   3.990   1.570 -0.7373 -0.4361 -0.2170
 1008MOL0     H36073   7.571   3.872   1.460 -0.4594 -5.2246  0.3318
 1008MOL0     H36074   7.727   3.794   1.617  0.7864 -0.8597  0.6043
 1008MOL0     H36075   7.633   3.876   1.749 -0.2906  1.7482 -0.8817
 1008MOL0     H36076   7.766   4.040   1.517  1.1784 -1.5328  0.0257
 1008MOL0     H36077   7.843   3.992   1.669 -0.1589 -0.5105 -0.3395
 1008MOL0     H36078   7.555   4.298   1.757 -2.5554 -0.8284 -1.2811
 1008MOL0     H36079   7.243   3.827   1.928 -1.8205  0.9191 -1.2556
 1008MOL0     H36080   7.059   3.684   2.024  1.1662 -1.6428  1.3125
 1009MOL0     O36081   0.325   0.604  11.302 -0.0773 -0.0084  0.1988
 1009MOL0     C36082   0.443   0.585  11.275 -0.2496  0.6308 -0.1803
 1009MOL0     O36083   0.492   0.529  11.154 -0.2402 -0.0344  0.1475
 1009MOL0     C36084   0.394   0.519  11.060  0.3002  0.6774  0.5989
 1009MOL0     C36085   0.288   0.432  11.076  0.2769  0.3693  0.3433
 1009MOL0     C36086   0.197   0.401  10.974  0.7805 -0.7786  0.2888
 1009MOL0     C36087   0.210   0.458  10.847 -0.2161 -0.6930  0.9080
 1009MOL0     O36088   0.118   0.436  10.747  0.7884  0.7279 -0.7610
 1009MOL0     C36089  -0.011   0.401  10.783 -0.9890  0.2229 -0.1276
 1009MOL0     C36090  -0.096   0.443  10.660 -0.2070  0.1485 -0.1882
 1009MOL0     C36091  -0.239   0.391  10.670  0.1202  0.0235 -1.4202
 1009MOL0     C36092  -0.309   0.416  10.540  0.0650  0.5881 -0.4533
 1009MOL0     C36093  -0.456   0.370  10.528  0.3257  0.1029 -0.5035
 1009MOL0     C36094  -0.547   0.441  10.627 -0.7553 -0.0907  1.0566
 1009MOL0     C36095  -0.694   0.435  10.578  0.1898  0.5260  0.2308
 1009MOL0     C36096  -0.746   0.294  10.585  0.3425 -0.4338 -0.3047
 1009MOL0     N36097  -0.893   0.288  10.580 -0.1059  0.6407 -0.0315
 1009MOL0     C36098  -0.967   0.312  10.465 -0.3097 -0.1287  0.3037
 1009MOL0     C36099  -1.096   0.308  10.510 -0.2823  0.8064  0.1887
 1009MOL0     C36100  -1.222   0.326  10.429  0.4496  0.2266 -0.2001
 1009MOL0     C36101  -1.339   0.247  10.485 -0.5185  0.4104 -0.0417
 1009MOL0     C36102  -1.435   0.331  10.559  0.4293  0.2627 -0.3776
 1009MOL0     C36103  -1.573   0.255  10.583  0.1932  0.1914 -0.2824
 1009MOL0     O36104  -1.548   0.121  10.622  0.5628  0.4103 -0.3947
 1009MOL0     C36105  -1.649   0.059  10.689  0.7941  0.2431  0.2740
 1009MOL0     C36106  -1.605  -0.062  10.734 -0.5277  0.0235 -0.1308
 1009MOL0     C36107  -1.680  -0.152  10.813 -0.6526 -0.4571 -0.8207
 1009MOL0     C36108  -1.607  -0.273  10.867  0.0915 -0.0359 -0.0939
 1009MOL0     C36109  -1.811  -0.113  10.849  0.1573  0.2200  0.3435
 1009MOL0     C36110  -1.912  -0.188  10.943 -0.5755 -0.4564  0.1700
 1009MOL0     O36111  -2.041  -0.147  10.924 -0.0593  0.3006 -0.7460
 1009MOL0     C36112  -2.144  -0.214  10.991 -0.7288  0.5948  0.2779
 1009MOL0     C36113  -2.143  -0.248  11.131  0.2493 -0.2189  0.7935
 1009MOL0     C36114  -2.264  -0.300  11.184 -0.5005 -0.6769  0.4551
 1009MOL0     C36115  -2.374  -0.337  11.106 -0.0225 -0.4856  0.1601
 1009MOL0     O36116  -2.487  -0.396  11.171 -0.0496  0.2663  0.8532
 1009MOL0     C36117  -2.568  -0.486  11.090 -0.5917 -0.1826 -0.1284
 1009MOL0     C36118  -2.673  -0.569  11.170  0.3069  0.3554 -0.7891
 1009MOL0     C36119  -2.763  -0.666  11.086  0.1076  0.5981 -0.1531
 1009MOL0     C36120  -2.891  -0.701  11.158 -0.4385  0.3022  0.6275
 1009MOL0     C36121  -2.996  -0.596  11.181  0.5801 -0.7715  0.0800
 1009MOL0     C36122  -3.038  -0.537  11.043 -0.8695  0.5107  0.7139
 1009MOL0     C36123  -3.187  -0.482  11.037 -0.6629 -0.3770  0.2301
 1009MOL0     C36124  -3.189  -0.374  11.146 -0.6845 -0.0865  0.7198
 1009MOL0    Cl36125  -3.349  -0.314  11.170  0.5295  0.0812 -0.3918
 1009MOL0     C36126  -2.359  -0.319  10.969  0.9595 -0.1921  0.3818
 1009MOL0     C36127  -2.252  -0.251  10.913 -0.2360 -0.9413 -0.6450
 1009MOL0     O36128  -1.871  -0.268  11.025  0.2199 -0.1967 -0.0835
 1009MOL0     C36129  -1.859   0.008  10.782 -0.4412 -0.5288 -0.2155
 1009MOL0     C36130  -1.775   0.093  10.708  0.4063  0.0904  0.1426
 1009MOL0     N36131  -1.092   0.261  10.641 -0.1936  0.2815 -0.4076
 1009MOL0     N36132  -0.973   0.236  10.678  0.6077 -0.2134  0.1351
 1009MOL0     C36133   0.331   0.536  10.826  0.7080 -0.3347  0.0707
 1009MOL0     C36134   0.414   0.562  10.927 -0.2574 -0.5208 -0.2059
 1009MOL0     C36135   0.540   0.627  11.383  0.3587  0.1126  0.0603
 1009MOL0     C36136   0.673   0.652  11.342  0.0095 -0.4024  0.5717
 1009MOL0     C36137   0.770   0.657  11.446 -0.1006  0.9009 -0.5643
 1009MOL0     C36138   0.742   0.661  11.576 -0.0597 -0.8553 -0.7613
 1009MOL0     O36139   0.843   0.693  11.662 -1.0232 -0.7450 -0.7555
 1009MOL0     C36140   0.825   0.690  11.803 -0.7861 -0.6904 -0.4315
 1009MOL0     C36141   0.962   0.686  11.875 -0.3333  0.4575  0.4325
 1009MOL0     C36142   1.046   0.808  11.834  0.4175 -0.1677  0.1099
 1009MOL0     C36143   1.182   0.819  11.909  0.6701  0.4876  1.0381
 1009MOL0     C36144   1.174   0.856  12.049  0.0052  0.1220 -0.6281
 1009MOL0     C36145   1.188   0.903  12.159  0.3612 -1.0405 -0.3088
 1009MOL0     C36146   0.609   0.641  11.612 -0.1806 -0.0054 -0.3403
 1009MOL0     C36147   0.507   0.623  11.520 -0.6459  0.5828 -0.0008
 1009MOL0     H36148   0.260   0.387  11.171 -1.7274 -0.6714 -0.6646
 1009MOL0     H36149   0.110   0.338  10.990 -0.3915  0.2900 -1.5543
 1009MOL0     H36150  -0.023   0.294  10.802 -0.0963  0.3325  1.1382
 1009MOL0     H36151  -0.043   0.453  10.874 -0.1995 -3.0186  2.1837
 1009MOL0     H36152  -0.111   0.551  10.653  1.2343  0.2935 -4.7229
 1009MOL0     H36153  -0.034   0.412  10.575 -2.3908 -0.5337 -1.6271
 1009MOL0     H36154  -0.242   0.286  10.701 -1.5778  0.5547  0.4299
 1009MOL0     H36155  -0.292   0.441  10.751  0.2599 -2.4357  0.2687
 1009MOL0     H36156  -0.286   0.521  10.520  1.3932 -0.0461 -2.5795
 1009MOL0     H36157  -0.252   0.372  10.458 -2.5593  0.5955 -2.3750
 1009MOL0     H36158  -0.483   0.388  10.423  0.5740 -1.6899 -0.9076
 1009MOL0     H36159  -0.453   0.261  10.541  0.8039  0.1824  0.0976
 1009MOL0     H36160  -0.531   0.399  10.727 -0.3322  0.7322  1.3471
 1009MOL0     H36161  -0.521   0.547  10.631 -1.0786 -0.0211  1.3524
 1009MOL0     H36162  -0.751   0.500  10.644  2.4523  2.7508  0.1645
 1009MOL0     H36163  -0.707   0.476  10.478 -0.4415 -0.2783 -0.0224
 1009MOL0     H36164  -0.718   0.248  10.681 -0.4508  0.4845  0.3706
 1009MOL0     H36165  -0.698   0.246  10.498 -0.9178 -0.5624 -0.9423
 1009MOL0     H36166  -0.935   0.342  10.365  0.5095  0.4730  0.7340
 1009MOL0     H36167  -1.255   0.429  10.415 -1.5866 -0.0183  2.0608
 1009MOL0     H36168  -1.196   0.280  10.333  0.3563  3.0054 -1.6601
 1009MOL0     H36169  -1.311   0.166  10.554  3.3052  0.5578 -1.1822
 1009MOL0     H36170  -1.397   0.213  10.399 -2.9542 -0.5046  1.8247
 1009MOL0     H36171  -1.453   0.424  10.505 -0.4334  0.2918 -0.0453
 1009MOL0     H36172  -1.392   0.335  10.660  0.6198 -1.2968 -0.3708
 1009MOL0     H36173  -1.633   0.258  10.492  0.2886 -0.1386 -0.3575
 1009MOL0     H36174  -1.632   0.304  10.662 -0.5200 -0.7531 -0.2101
 1009MOL0     H36175  -1.508  -0.103  10.710  0.1370  0.7255  1.2381
 1009MOL0     H36176  -1.576  -0.258  10.971  3.7846 -0.2471 -1.0555
 1009MOL0     H36177  -1.670  -0.360  10.843 -0.0783  0.2336 -0.6337
 1009MOL0     H36178  -1.516  -0.281  10.808 -0.1446  2.4796 -0.8896
 1009MOL0     H36179  -2.073  -0.214  11.208  0.6728 -0.7773  0.6636
 1009MOL0     H36180  -2.276  -0.328  11.288  0.3404  4.8908  2.3563
 1009MOL0     H36181  -2.611  -0.440  11.000  0.1984 -0.2321 -0.5407
 1009MOL0     H36182  -2.505  -0.562  11.043 -1.0004 -0.7044  0.1505
 1009MOL0     H36183  -2.633  -0.629  11.252 -0.0912 -1.6615 -2.0214
 1009MOL0     H36184  -2.735  -0.499  11.227  0.7391 -0.9378  1.3766
 1009MOL0     H36185  -2.711  -0.762  11.074 -2.1152 -0.5707 -0.9284
 1009MOL0     H36186  -2.769  -0.620  10.987  1.7495  1.0482 -0.0721
 1009MOL0     H36187  -2.938  -0.777  11.095 -2.3574  2.6672 -0.9917
 1009MOL0     H36188  -2.865  -0.743  11.256 -0.6828 -2.0544 -0.2443
 1009MOL0     H36189  -2.961  -0.520  11.251  1.3151 -3.6769  3.1316
 1009MOL0     H36190  -3.077  -0.649  11.233 -1.5222  1.2913 -0.8982
 1009MOL0     H36191  -2.963  -0.461  11.019 -0.3495  0.7442  2.9169
 1009MOL0     H36192  -3.031  -0.607  10.959 -1.1055  1.8837 -0.5001
 1009MOL0     H36193  -3.256  -0.562  11.065  0.7622 -1.1245  1.8570
 1009MOL0     H36194  -3.215  -0.439  10.941 -2.6702 -1.4691  0.2824
 1009MOL0     H36195  -3.131  -0.289  11.108 -0.8364 -0.9640 -1.6364
 1009MOL0     H36196  -3.144  -0.407  11.241  0.3845  0.0563  0.2834
 1009MOL0     H36197  -2.447  -0.343  10.911  0.4013 -2.1325  1.9457
 1009MOL0     H36198  -2.264  -0.231  10.807  0.2174 -1.9587 -0.9010
 1009MOL0     H36199  -1.966   0.026  10.785 -0.0541  2.0694  0.7656
 1009MOL0     H36200  -1.827   0.182  10.674  0.5262  0.3530  0.6434
 1009MOL0     H36201   0.360   0.573  10.728  0.3213 -0.5404 -0.1232
 1009MOL0     H36202   0.506   0.619  10.911 -0.9641  0.4440 -0.9606
 1009MOL0     H36203   0.686   0.656  11.235  0.2217 -1.5832  0.5425
 1009MOL0     H36204   0.875   0.662  11.419  0.2092 -1.5229 -0.0492
 1009MOL0     H36205   0.759   0.772  11.832  2.4931  2.4386 -1.0833
 1009MOL0     H36206   0.780   0.592  11.820  0.7248 -1.3117  0.1870
 1009MOL0     H36207   1.019   0.599  11.842  0.8618  1.4247 -0.1538
 1009MOL0     H36208   0.949   0.680  11.984  1.3019  0.2428  0.6380
 1009MOL0     H36209   0.991   0.899  11.859  0.6846 -0.3451  1.3823
 1009MOL0     H36210   1.068   0.803  11.727  2.2058  1.2337  0.3675
 1009MOL0     H36211   1.236   0.901  11.861  3.0526 -1.1087  0.8105
 1009MOL0     H36212   1.245   0.731  11.893  1.4517  1.4430 -1.7216
 1009MOL0     H36213   1.194   0.938  12.260  0.0396  0.3353 -0.7406
 1009MOL0     H36214   0.595   0.639  11.720 -1.3470 -0.3239 -0.4922
 1009MOL0     H36215   0.401   0.606  11.540 -0.2956 -1.3039  0.4450
 1010MOL0     O36216   8.086   1.378  11.313  0.1705 -0.1410 -0.4273
 1010MOL0     C36217   8.114   1.466  11.231 -0.2595  1.6988 -0.5256
 1010MOL0     O36218   8.057   1.583  11.223 -0.3702 -0.0777 -0.3953
 1010MOL0     C36219   7.937   1.606  11.284 -1.1341  0.4917 -0.3132
 1010MOL0     C36220   7.839   1.508  11.302  0.5605 -0.1160  0.1653
 1010MOL0     C36221   7.718   1.542  11.365  0.2501 -0.2306 -0.1934
 1010MOL0     C36222   7.688   1.679  11.397 -0.1652  0.1876  0.5238
 1010MOL0     O36223   7.567   1.703  11.452  0.4761  0.1784  0.0686
 1010MOL0     C36224   7.507   1.829  11.433  0.9201  0.4819  0.5096
 1010MOL0     C36225   7.378   1.829  11.504 -0.3478  1.1355  0.0039
 1010MOL0     C36226   7.260   1.772  11.413 -0.1193  0.0740  0.8808
 1010MOL0     C36227   7.123   1.799  11.487 -0.3970 -0.2353 -0.1067
 1010MOL0     C36228   7.007   1.769  11.395  0.3911  0.0266 -0.7423
 1010MOL0     C36229   6.863   1.795  11.451  0.4562  0.1154  0.0718
 1010MOL0     C36230   6.845   1.744  11.596  0.0996  0.1063 -0.1014
 1010MOL0     C36231   6.695   1.737  11.638  1.4524  0.1461  0.5285
 1010MOL0     N36232   6.621   1.620  11.582 -0.5262 -0.1863  0.4128
 1010MOL0     C36233   6.550   1.615  11.465  0.0672  0.0296  0.0382
 1010MOL0     C36234   6.527   1.486  11.445 -0.4535  1.1304 -0.0676
 1010MOL0     C36235   6.449   1.436  11.321 -0.0431 -0.3469  0.0008
 1010MOL0     C36236   6.327   1.534  11.281  0.1908  0.2724  0.4039
 1010MOL0     C36237   6.215   1.532  11.393 -0.0601 -0.1666  0.2890
 1010MOL0     C36238   6.131   1.661  11.392 -0.5767  0.1947 -0.8678
 1010MOL0     O36239   6.044   1.680  11.277  0.0539 -0.2131 -0.2800
 1010MOL0     C36240   5.920   1.730  11.312  0.0256 -0.2942  0.0196
 1010MOL0     C36241   5.818   1.641  11.327  0.4808 -0.4926 -0.5892
 1010MOL0     C36242   5.687   1.679  11.378 -0.6099 -1.2183  0.0809
 1010MOL0     C36243   5.590   1.564  11.391 -0.6183  0.3852 -0.7248
 1010MOL0     C36244   5.659   1.817  11.396  0.0543  0.0545  0.3013
 1010MOL0     C36245   5.530   1.868  11.451 -0.4244 -0.1705 -0.6103
 1010MOL0     O36246   5.425   1.787  11.447 -0.4069  0.4746 -0.1989
 1010MOL0     C36247   5.300   1.823  11.478 -0.2894 -0.8986 -0.3164
 1010MOL0     C36248   5.262   1.941  11.546 -0.7658  0.0173  0.0606
 1010MOL0     C36249   5.132   1.963  11.596  0.3255  0.0058 -0.2465
 1010MOL0     C36250   5.038   1.868  11.576 -0.0163  0.5937 -0.4160
 1010MOL0     O36251   4.906   1.884  11.595  0.4263 -0.6678 -0.4649
 1010MOL0     C36252   4.858   1.956  11.713 -0.1463 -0.1892 -0.6355
 1010MOL0     C36253   4.748   1.879  11.784 -0.7020  0.5403  0.2946
 1010MOL0     C36254   4.621   1.872  11.689  0.1052 -0.2680  0.6940
 1010MOL0     C36255   4.485   1.822  11.752 -0.1467 -0.4587  0.0009
 1010MOL0     C36256   4.377   1.838  11.643 -0.6823 -0.2759  0.2061
 1010MOL0     C36257   4.237   1.811  11.711  0.1377 -0.1379 -0.2065
 1010MOL0     C36258   4.109   1.844  11.620 -0.5342 -0.4935  0.0864
 1010MOL0     C36259   4.118   1.777  11.484  0.2378 -0.0634 -0.6327
 1010MOL0    Cl36260   3.946   1.756  11.429 -0.0018  0.0360 -0.2240
 1010MOL0     C36261   5.070   1.747  11.511  0.6758 -0.2787 -0.4447
 1010MOL0     C36262   5.199   1.725  11.462 -0.2946 -0.3388 -0.9376
 1010MOL0     O36263   5.528   1.989  11.468 -0.2467  0.0530  0.4387
 1010MOL0     C36264   5.761   1.905  11.369 -0.0205  0.1518  0.0305
 1010MOL0     C36265   5.889   1.867  11.333 -0.1893  0.6916  0.2601
 1010MOL0     N36266   6.586   1.409  11.544 -0.2936  0.1597 -0.4130
 1010MOL0     N36267   6.634   1.498  11.631  0.3190  0.1190 -0.3137
 1010MOL0     C36268   7.779   1.773  11.367 -0.0925 -0.0017 -0.1380
 1010MOL0     C36269   7.909   1.743  11.321 -0.2049 -0.1063  0.2299
 1010MOL0     C36270   8.233   1.443  11.150 -0.2766  0.1598  0.3194
 1010MOL0     C36271   8.294   1.314  11.144 -0.1264  0.2392  0.4244
 1010MOL0     C36272   8.416   1.308  11.066 -0.1896 -0.4862 -0.0520
 1010MOL0     C36273   8.475   1.410  11.002  0.3769 -0.1251  0.5022
 1010MOL0     O36274   8.588   1.395  10.927  0.3005  0.3175  0.1323
 1010MOL0     C36275   8.563   1.400  10.783  0.4807 -0.0783  0.5896
 1010MOL0     C36276   8.693   1.427  10.701 -0.1059  0.7284  0.8080
 1010MOL0     C36277   8.793   1.310  10.711  0.6258 -0.2451  0.9260
 1010MOL0     C36278   8.763   1.198  10.606 -0.3360 -0.8062 -0.5157
 1010MOL0     C36279   8.885   1.112  10.589  0.3568 -0.2286 -0.0426
 1010MOL0     C36280   8.987   1.048  10.582 -0.3399 -0.2746  0.1317
 1010MOL0     C36281   8.410   1.536  11.005  0.1790 -0.7261 -0.3844
 1010MOL0     C36282   8.300   1.552  11.077 -0.0407  0.3776 -0.0157
 1010MOL0     H36283   7.851   1.404  11.271  2.0762  0.1506 -0.1912
 1010MOL0     H36284   7.633   1.474  11.368  1.2708 -1.5074  0.9707
 1010MOL0     H36285   7.567   1.915  11.464  2.1544  0.0515 -0.5838
 1010MOL0     H36286   7.492   1.846  11.326  1.1144 -2.7414 -0.1334
 1010MOL0     H36287   7.389   1.771  11.596 -1.5571  0.8956  0.0094
 1010MOL0     H36288   7.355   1.930  11.540 -1.9306  0.6370  0.4844
 1010MOL0     H36289   7.247   1.838  11.326 -2.3520 -0.2601  0.9045
 1010MOL0     H36290   7.273   1.667  11.385 -2.5155 -0.0015 -0.2128
 1010MOL0     H36291   7.123   1.735  11.576 -0.5134  2.6705  2.1589
 1010MOL0     H36292   7.112   1.903  11.519  2.9681  0.2558 -0.1378
 1010MOL0     H36293   7.013   1.829  11.304 -0.3714  1.2301 -0.0225
 1010MOL0     H36294   7.014   1.661  11.375  1.1412  0.1155 -0.9894
 1010MOL0     H36295   6.845   1.903  11.462 -0.2327 -0.0410  0.5513
 1010MOL0     H36296   6.792   1.751  11.381  3.0897 -2.4230 -1.1715
 1010MOL0     H36297   6.898   1.649  11.590  2.6587  1.4823 -1.0337
 1010MOL0     H36298   6.912   1.788  11.671  1.7892  1.4037 -2.2337
 1010MOL0     H36299   6.640   1.827  11.609  0.6931 -0.1834  0.9050
 1010MOL0     H36300   6.704   1.721  11.746  2.0898 -1.5679  0.2528
 1010MOL0     H36301   6.514   1.695  11.401  1.0490  1.3586  1.0776
 1010MOL0     H36302   6.516   1.413  11.237  0.2913 -4.5258  1.2266
 1010MOL0     H36303   6.422   1.333  11.343 -2.7820  0.7894  2.5105
 1010MOL0     H36304   6.283   1.500  11.187  1.0974  0.7022 -0.1916
 1010MOL0     H36305   6.367   1.636  11.274  2.4236 -0.2045  3.6902
 1010MOL0     H36306   6.259   1.531  11.493 -1.2327 -0.5301  0.8182
 1010MOL0     H36307   6.169   1.432  11.393  0.4846 -0.4199  0.1724
 1010MOL0     H36308   6.193   1.750  11.386 -0.3560  0.0165 -1.2514
 1010MOL0     H36309   6.078   1.678  11.486 -3.2450  0.9295 -2.3918
 1010MOL0     H36310   5.859   1.540  11.322  2.4231  0.1349  1.3790
 1010MOL0     H36311   5.640   1.467  11.391 -2.6078 -0.7241  0.8719
 1010MOL0     H36312   5.533   1.562  11.484 -2.0902  1.4842 -1.5667
 1010MOL0     H36313   5.521   1.570  11.307 -0.9197 -0.3036 -0.5324
 1010MOL0     H36314   5.333   2.018  11.574 -0.1746  0.1256 -1.6281
 1010MOL0     H36315   5.118   2.059  11.645  0.6171  0.0493 -0.2455
 1010MOL0     H36316   4.947   1.968  11.775  2.9212 -1.2199 -4.4315
 1010MOL0     H36317   4.831   2.054  11.672  0.2909 -0.8418 -2.5494
 1010MOL0     H36318   4.769   1.772  11.796 -0.4225  0.5696  0.0707
 1010MOL0     H36319   4.726   1.921  11.883  1.8063  0.3011  1.0061
 1010MOL0     H36320   4.645   1.823  11.595  1.2882  2.7689 -0.7238
 1010MOL0     H36321   4.611   1.978  11.661  0.5093 -0.2527  0.6018
 1010MOL0     H36322   4.488   1.716  11.779 -3.6390 -0.7273 -0.1925
 1010MOL0     H36323   4.463   1.880  11.842 -1.7346  0.5076 -0.9675
 1010MOL0     H36324   4.402   1.775  11.557 -2.0729 -1.7496  0.8171
 1010MOL0     H36325   4.393   1.943  11.617  1.9000  0.0809  2.7164
 1010MOL0     H36326   4.244   1.707  11.742  2.5026  0.7059  2.4961
 1010MOL0     H36327   4.224   1.879  11.796  0.6102  1.9509 -1.7198
 1010MOL0     H36328   4.117   1.952  11.608 -0.4755 -0.2155  2.2664
 1010MOL0     H36329   4.021   1.806  11.673 -0.2173  0.0265  1.0136
 1010MOL0     H36330   4.152   1.673  11.493 -1.4125 -0.9440 -3.2645
 1010MOL0     H36331   4.177   1.832  11.410  0.8937 -1.2547 -1.0364
 1010MOL0     H36332   4.996   1.671  11.488  1.5107 -0.4907 -2.7338
 1010MOL0     H36333   5.228   1.633  11.411 -2.2952 -0.3328 -2.1951
 1010MOL0     H36334   5.735   2.008  11.392 -2.4606 -0.3347 -0.2399
 1010MOL0     H36335   5.954   1.949  11.306  0.3157  1.2422  2.8284
 1010MOL0     H36336   7.748   1.877  11.371  0.0587  0.1290 -1.6908
 1010MOL0     H36337   7.984   1.818  11.299 -0.6266  1.0442  2.5045
 1010MOL0     H36338   8.262   1.234  11.210 -0.0315 -0.8600 -0.8036
 1010MOL0     H36339   8.470   1.214  11.057  2.7977  1.0622  0.2788
 1010MOL0     H36340   8.512   1.307  10.754 -1.4123  0.4767  1.9432
 1010MOL0     H36341   8.492   1.481  10.762  0.6398  0.2373  1.2584
 1010MOL0     H36342   8.742   1.511  10.752  2.8011  0.2200 -0.9044
 1010MOL0     H36343   8.679   1.444  10.594  0.9052 -1.0009  0.3604
 1010MOL0     H36344   8.817   1.271  10.810  0.5508 -0.3603  0.8984
 1010MOL0     H36345   8.891   1.339  10.671  0.3757 -0.6887 -0.0357
 1010MOL0     H36346   8.732   1.239  10.510 -2.6443 -2.1724 -0.4317
 1010MOL0     H36347   8.678   1.137  10.637 -1.2461 -0.4594 -2.2326
 1010MOL0     H36348   9.080   1.000  10.557 -0.4671 -2.3871  3.2741
 1010MOL0     H36349   8.446   1.614  10.938 -0.1470 -0.5570 -0.3613
 1010MOL0     H36350   8.265   1.655  11.088  2.5478  1.4480 -1.1902
 1011MOL0     O36351   7.111   7.284   7.714  0.5632 -0.3548  0.2883
 1011MOL0     C36352   7.174   7.345   7.807 -0.0501  0.9738 -0.6551
 1011MOL0     O36353   7.118   7.442   7.888 -0.8004  1.3775 -0.2562
 1011MOL0     C36354   6.990   7.487   7.884 -0.0537  0.9239 -0.4556
 1011MOL0     C36355   6.897   7.440   7.978  0.3520 -0.1799 -0.3810
 1011MOL0     C36356   6.757   7.466   7.970 -0.9975  0.5187  0.5501
 1011MOL0     C36357   6.708   7.525   7.852 -0.8920 -0.0072  0.4566
 1011MOL0     O36358   6.571   7.545   7.827  0.2670 -0.0687 -0.4635
 1011MOL0     C36359   6.523   7.617   7.713  0.5957 -1.2691  0.0871
 1011MOL0     C36360   6.487   7.767   7.733  0.3936 -0.5606 -0.9454
 1011MOL0     C36361   6.356   7.793   7.821  0.0757 -0.3335  0.6486
 1011MOL0     C36362   6.342   7.691   7.944 -0.2482 -0.3213  0.5986
 1011MOL0     C36363   6.244   7.732   8.053 -0.5014  0.6482  0.1345
 1011MOL0     C36364   6.264   7.638   8.177  0.9272  0.3002  0.4484
 1011MOL0     C36365   6.153   7.650   8.280 -0.2954 -1.2153  0.2120
 1011MOL0     C36366   6.175   7.775   8.370  0.3632 -0.0474 -0.2319
 1011MOL0     N36367   6.041   7.804   8.420  0.7165 -0.9185  0.3469
 1011MOL0     C36368   5.947   7.864   8.339 -0.2873 -0.5572 -0.1817
 1011MOL0     C36369   5.830   7.840   8.399 -0.2770 -1.2573  0.0066
 1011MOL0     C36370   5.694   7.888   8.355  0.2280  0.2835 -0.6514
 1011MOL0     C36371   5.602   7.771   8.313 -0.1283  0.0482 -0.9480
 1011MOL0     C36372   5.499   7.723   8.428 -0.3435 -0.0618  1.0197
 1011MOL0     C36373   5.433   7.590   8.372 -0.9232  1.0403 -0.2146
 1011MOL0     O36374   5.345   7.630   8.262 -1.1733  0.0273  0.0121
 1011MOL0     C36375   5.333   7.546   8.157  0.0482  0.0966 -0.3494
 1011MOL0     C36376   5.387   7.571   8.035  0.3241  0.1911 -0.6948
 1011MOL0     C36377   5.372   7.483   7.929  0.1533  0.3785 -0.4197
 1011MOL0     C36378   5.421   7.534   7.788  0.0436  0.3665 -0.4803
 1011MOL0     C36379   5.310   7.353   7.954 -0.4266  0.1171 -0.1673
 1011MOL0     C36380   5.293   7.240   7.863 -0.0338  0.1116 -0.1459
 1011MOL0     O36381   5.232   7.126   7.918  0.1429  0.5832  0.5819
 1011MOL0     C36382   5.191   7.025   7.831 -0.1579 -0.2222  0.3513
 1011MOL0     C36383   5.057   6.994   7.831 -0.4271  1.1345  0.2822
 1011MOL0     C36384   5.005   6.904   7.731 -0.1580 -0.9223 -1.3043
 1011MOL0     C36385   5.092   6.845   7.640  0.4195  0.2377 -0.2706
 1011MOL0     O36386   5.049   6.753   7.548  0.4558 -0.2801  0.1690
 1011MOL0     C36387   5.012   6.626   7.588  0.8649  0.9061 -0.0015
 1011MOL0     C36388   4.995   6.516   7.482  0.4526  0.0315  0.5120
 1011MOL0     C36389   5.108   6.531   7.376 -0.5410 -0.0479  0.0259
 1011MOL0     C36390   5.224   6.428   7.389  0.8012  0.6220  1.0658
 1011MOL0     C36391   5.318   6.431   7.266  0.5806 -0.0095  0.0592
 1011MOL0     C36392   5.415   6.329   7.279  0.4782 -0.2422 -0.2279
 1011MOL0     C36393   5.501   6.335   7.152  0.0284 -0.4152  0.3008
 1011MOL0     C36394   5.608   6.452   7.155 -0.0105 -0.2978  0.5128
 1011MOL0    Cl36395   5.724   6.430   7.299 -0.1694 -0.0091  0.1721
 1011MOL0     C36396   5.231   6.868   7.649  0.3303  0.6397 -0.1628
 1011MOL0     C36397   5.274   6.960   7.745 -0.4743  0.3877  0.4541
 1011MOL0     O36398   5.331   7.261   7.745 -0.3546  0.4045  0.0621
 1011MOL0     C36399   5.245   7.347   8.076 -0.5933  0.5517 -0.0395
 1011MOL0     C36400   5.249   7.439   8.172 -0.5674  0.2317 -0.1492
 1011MOL0     N36401   5.845   7.765   8.509  0.1722  0.4352  0.4598
 1011MOL0     N36402   5.970   7.740   8.518 -0.5785  0.4601 -0.1438
 1011MOL0     C36403   6.808   7.573   7.758  1.1675  0.0388 -0.3450
 1011MOL0     C36404   6.940   7.546   7.774  0.0792  0.4139  0.4252
 1011MOL0     C36405   7.317   7.309   7.820  0.7582  0.2604  0.3803
 1011MOL0     C36406   7.404   7.409   7.864  0.9262  0.0975  0.5222
 1011MOL0     C36407   7.540   7.388   7.894  0.2579  0.0774  0.0791
 1011MOL0     C36408   7.597   7.265   7.854  0.3436 -0.5655 -0.9089
 1011MOL0     O36409   7.727   7.225   7.865 -0.7145 -0.3568  0.9384
 1011MOL0     C36410   7.830   7.328   7.886 -0.2181 -0.2419 -0.2686
 1011MOL0     C36411   7.853   7.352   8.040  0.0794 -0.7383  0.2969
 1011MOL0     C36412   7.910   7.226   8.112 -0.4837 -0.0277 -0.4408
 1011MOL0     C36413   7.897   7.233   8.266  0.3257  0.3635  0.0968
 1011MOL0     C36414   7.942   7.106   8.319  0.2639 -0.2680 -0.0081
 1011MOL0     C36415   7.999   7.003   8.356  0.4101 -0.7042  0.7434
 1011MOL0     C36416   7.513   7.171   7.793  0.3301  0.1316  0.2683
 1011MOL0     C36417   7.374   7.188   7.781  0.0095  0.7543 -0.0104
 1011MOL0     H36418   6.937   7.388   8.064  1.7559  2.0998  0.4479
 1011MOL0     H36419   6.685   7.413   8.032 -0.2215 -0.2458  0.8297
 1011MOL0     H36420   6.587   7.600   7.626 -0.0064  1.6221 -1.0262
 1011MOL0     H36421   6.431   7.568   7.680  0.1515 -1.9849  2.2088
 1011MOL0     H36422   6.568   7.826   7.778 -0.5591 -0.1757  0.3433
 1011MOL0     H36423   6.465   7.816   7.638  3.6511 -2.4489 -2.8574
 1011MOL0     H36424   6.373   7.894   7.860  0.7141  0.5402 -1.7314
 1011MOL0     H36425   6.264   7.790   7.762  1.4948  2.3929 -1.9128
 1011MOL0     H36426   6.309   7.590   7.918  0.5335 -0.9705  2.0076
 1011MOL0     H36427   6.442   7.667   7.982 -1.3202 -1.7597  2.7220
 1011MOL0     H36428   6.265   7.833   8.087  1.3572  0.1382  0.5738
 1011MOL0     H36429   6.141   7.731   8.016 -0.2651  0.8148 -0.5539
 1011MOL0     H36430   6.265   7.536   8.137  2.0909  1.1144 -1.7405
 1011MOL0     H36431   6.362   7.652   8.223  2.1572  1.0958 -2.1874
 1011MOL0     H36432   6.051   7.655   8.239 -1.3237  0.2681  2.7381
 1011MOL0     H36433   6.146   7.559   8.340 -1.4239 -0.2570  1.6023
 1011MOL0     H36434   6.202   7.854   8.299  2.1167 -1.5019 -1.2628
 1011MOL0     H36435   6.263   7.762   8.433  0.0326  2.1879  0.7742
 1011MOL0     H36436   5.949   7.907   8.239 -2.6952 -0.8057 -0.4056
 1011MOL0     H36437   5.636   7.936   8.434 -1.2958 -0.8838 -1.0160
 1011MOL0     H36438   5.711   7.950   8.266  2.2536 -1.0432 -1.2636
 1011MOL0     H36439   5.670   7.687   8.297 -2.3316 -2.1104  0.1491
 1011MOL0     H36440   5.549   7.796   8.220 -1.7988  1.4027  0.3090
 1011MOL0     H36441   5.434   7.810   8.442 -0.8933  0.6100 -3.8200
 1011MOL0     H36442   5.555   7.705   8.520  2.9693 -0.5140 -0.9327
 1011MOL0     H36443   5.371   7.545   8.450 -0.4773 -0.1851 -0.5503
 1011MOL0     H36444   5.511   7.518   8.347 -2.6433 -0.8911 -0.2784
 1011MOL0     H36445   5.429   7.670   8.017 -0.4465  0.7104  0.2528
 1011MOL0     H36446   5.512   7.478   7.763 -0.5004 -1.0502  0.5517
 1011MOL0     H36447   5.342   7.518   7.714  0.8559 -1.9272 -0.9157
 1011MOL0     H36448   5.451   7.639   7.793 -0.6509  0.6171 -1.3471
 1011MOL0     H36449   4.987   7.038   7.901  2.1973 -0.8029  4.4843
 1011MOL0     H36450   4.897   6.889   7.731 -0.5511  1.3605 -2.5848
 1011MOL0     H36451   5.092   6.583   7.649 -0.4550  1.0311  1.9084
 1011MOL0     H36452   4.914   6.619   7.636  2.2569 -1.1389  2.8488
 1011MOL0     H36453   4.991   6.416   7.525  0.3872 -0.4403 -0.5501
 1011MOL0     H36454   4.898   6.530   7.433  0.5199  0.2364  0.4353
 1011MOL0     H36455   5.153   6.631   7.374 -1.1453  0.2422  0.6570
 1011MOL0     H36456   5.065   6.519   7.277  0.1813  3.2470 -0.7933
 1011MOL0     H36457   5.264   6.438   7.490 -0.1272 -0.3985  1.5508
 1011MOL0     H36458   5.182   6.328   7.389  3.4448 -0.6113  3.0325
 1011MOL0     H36459   5.362   6.531   7.255  1.5895 -0.3997  0.4656
 1011MOL0     H36460   5.258   6.408   7.177  0.8287 -2.5715  0.4874
 1011MOL0     H36461   5.475   6.357   7.365  0.0295  0.7688 -0.2325
 1011MOL0     H36462   5.370   6.229   7.283  0.5213 -0.3553 -1.8826
 1011MOL0     H36463   5.436   6.340   7.064  0.9494  0.2774 -0.3562
 1011MOL0     H36464   5.554   6.239   7.148 -0.5529 -0.7100 -1.8054
 1011MOL0     H36465   5.561   6.551   7.156 -0.2082 -0.3817 -0.2947
 1011MOL0     H36466   5.660   6.446   7.059 -2.8535  0.1728 -1.1574
 1011MOL0     H36467   5.298   6.814   7.582 -2.1806 -1.2858 -1.2679
 1011MOL0     H36468   5.381   6.977   7.748 -0.4397  2.1085 -3.6758
 1011MOL0     H36469   5.171   7.270   8.093 -0.6422  0.3425 -1.1288
 1011MOL0     H36470   5.202   7.409   8.265 -0.3439 -0.2676 -0.1946
 1011MOL0     H36471   6.782   7.623   7.665  2.4610 -0.9523 -1.2539
 1011MOL0     H36472   7.015   7.577   7.701 -0.3285  4.3430  1.4212
 1011MOL0     H36473   7.373   7.511   7.885 -0.1252  0.3202 -1.8216
 1011MOL0     H36474   7.600   7.470   7.932  1.1217 -0.9435  1.0061
 1011MOL0     H36475   7.924   7.294   7.842 -0.2521  0.3525 -0.8312
 1011MOL0     H36476   7.814   7.427   7.842  2.1403  0.3256  0.0528
 1011MOL0     H36477   7.758   7.377   8.088 -0.0070 -1.2633  0.4052
 1011MOL0     H36478   7.932   7.426   8.061  1.3020 -1.5315 -1.2906
 1011MOL0     H36479   8.016   7.232   8.086 -0.6773  2.0640 -0.9161
 1011MOL0     H36480   7.876   7.130   8.073  0.8019 -0.7298  0.1162
 1011MOL0     H36481   7.790   7.232   8.289 -0.0464  1.0701 -1.5072
 1011MOL0     H36482   7.951   7.312   8.319 -3.0569  1.1870  2.6751
 1011MOL0     H36483   8.052   6.925   8.407 -0.6635 -0.5725  2.1261
 1011MOL0     H36484   7.554   7.085   7.742 -0.5224  0.3594 -0.8369
 1011MOL0     H36485   7.311   7.112   7.736 -3.8404  4.4501 -1.4967
 1012MOL0     O36486   4.843   9.936  11.216  0.1175  0.1443  0.0374
 1012MOL0     C36487   4.910  10.026  11.160  0.2962  0.0584  0.1752
 1012MOL0     O36488   4.856  10.151  11.126 -0.0611  0.0384 -0.0152
 1012MOL0     C36489   4.729  10.189  11.143  0.0921  0.2863 -0.2502
 1012MOL0     C36490   4.614  10.112  11.187  0.2611  0.6933  0.6502
 1012MOL0     C36491   4.487  10.177  11.188  0.7803  1.1979  0.0684
 1012MOL0     C36492   4.464  10.303  11.146  0.2240 -0.2436 -0.0950
 1012MOL0     O36493   4.342  10.353  11.153  0.2837 -0.0166 -0.0462
 1012MOL0     C36494   4.261  10.378  11.041  0.5164 -0.5100 -1.1508
 1012MOL0     C36495   4.138  10.463  11.071  0.4527 -0.6917  0.0434
 1012MOL0     C36496   4.131  10.523  11.211  0.3188  0.0561 -0.6276
 1012MOL0     C36497   4.003  10.580  11.246 -0.8203  0.2301 -0.2511
 1012MOL0     C36498   3.996  10.612  11.393  0.3191 -0.5154  0.2585
 1012MOL0     C36499   3.857  10.656  11.420  0.2376  0.4478 -0.5363
 1012MOL0     C36500   3.831  10.711  11.562 -0.5222  0.4262 -0.1293
 1012MOL0     C36501   3.828  10.595  11.660  0.5189  0.2960 -0.0130
 1012MOL0     N36502   3.684  10.549  11.662 -0.3885 -0.0896 -0.0178
 1012MOL0     C36503   3.602  10.562  11.766  0.0577 -0.6804 -0.1408
 1012MOL0     C36504   3.493  10.487  11.743 -0.1285 -0.9007  0.2159
 1012MOL0     C36505   3.376  10.469  11.829 -0.0957  0.5145  0.1955
 1012MOL0     C36506   3.244  10.526  11.763  0.1189  0.5583 -0.1572
 1012MOL0     C36507   3.176  10.437  11.654 -0.0630  0.7442 -0.5404
 1012MOL0     C36508   3.041  10.495  11.615  0.0138 -0.3197  0.0256
 1012MOL0     O36509   2.989  10.414  11.512 -0.0090  0.4673 -0.4087
 1012MOL0     C36510   2.878  10.452  11.435  0.1415 -0.3307  0.4891
 1012MOL0     C36511   2.836  10.379  11.318 -0.2285  0.5804  0.1684
 1012MOL0     C36512   2.723  10.408  11.248 -0.2544 -1.4511 -0.3490
 1012MOL0     C36513   2.697  10.316  11.132 -0.4221  1.0058 -0.1867
 1012MOL0     C36514   2.641  10.525  11.281  0.0905 -0.0345 -0.5312
 1012MOL0     C36515   2.516  10.565  11.225  0.2311  0.1644  0.9618
 1012MOL0     O36516   2.461  10.669  11.286  0.9096 -0.1217 -0.0363
 1012MOL0     C36517   2.324  10.700  11.267  0.5416 -0.1831  0.2957
 1012MOL0     C36518   2.220  10.607  11.259 -0.3364  0.0886 -0.2748
 1012MOL0     C36519   2.092  10.656  11.229  0.3722  0.6665 -0.0494
 1012MOL0     C36520   2.062  10.783  11.194 -1.3046 -0.5408 -0.8910
 1012MOL0     O36521   1.939  10.818  11.147 -0.0788  0.1967  0.0204
 1012MOL0     C36522   1.840  10.818  11.251  0.0566 -0.4501  1.1189
 1012MOL0     C36523   1.702  10.770  11.198  0.8546 -0.8574  0.9518
 1012MOL0     C36524   1.653  10.824  11.060 -0.5827  0.5987 -0.0888
 1012MOL0     C36525   1.516  10.767  11.034  0.2888 -0.7287 -0.3398
 1012MOL0     C36526   1.411  10.881  11.060 -0.2852  0.2360 -0.2810
 1012MOL0     C36527   1.264  10.839  11.060  0.9690  0.2693 -0.6226
 1012MOL0     C36528   1.188  10.952  11.132  0.2283  0.2108  0.2304
 1012MOL0     C36529   1.039  10.931  11.141 -1.0762 -0.5482  0.6034
 1012MOL0    Cl36530   1.006  10.780  11.241  0.1228  0.3274 -0.3294
 1012MOL0     C36531   2.169  10.877  11.206 -0.5011  0.1409  0.0033
 1012MOL0     C36532   2.293  10.832  11.246 -0.4597  0.1740 -0.3086
 1012MOL0     O36533   2.475  10.513  11.119 -0.1384 -0.5403 -0.0436
 1012MOL0     C36534   2.684  10.590  11.392 -0.2448  0.1562  0.3552
 1012MOL0     C36535   2.796  10.558  11.469  0.7731 -0.0680 -0.2782
 1012MOL0     N36536   3.505  10.431  11.618 -0.1898  0.0877 -0.0430
 1012MOL0     N36537   3.627  10.467  11.569  0.2921  0.2009  1.1771
 1012MOL0     C36538   4.576  10.378  11.108 -0.5944  0.9468  0.7115
 1012MOL0     C36539   4.710  10.321  11.110 -0.2176  0.0989 -0.5302
 1012MOL0     C36540   5.056  10.002  11.125 -0.4698 -0.0849  0.5595
 1012MOL0     C36541   5.128  10.068  11.020  0.9884  1.2140  0.0907
 1012MOL0     C36542   5.269  10.042  11.000 -0.7080 -0.1992  0.0665
 1012MOL0     C36543   5.337   9.972  11.105 -0.5368 -0.4007  1.3527
 1012MOL0     O36544   5.464   9.947  11.084 -0.6281 -0.1576  0.3113
 1012MOL0     C36545   5.559   9.926  11.198  0.5706  0.6310  0.0159
 1012MOL0     C36546   5.618   9.784  11.220 -0.5712  0.7143  0.6249
 1012MOL0     C36547   5.526   9.666  11.232  0.2483 -0.2535 -0.0475
 1012MOL0     C36548   5.598   9.537  11.257  0.0783 -0.4494  0.0564
 1012MOL0     C36549   5.664   9.490  11.133  0.2588 -0.1767  0.2135
 1012MOL0     C36550   5.738   9.457  11.047  0.6582 -0.6574 -0.3356
 1012MOL0     C36551   5.267   9.935  11.222 -0.2951  0.0605 -0.6595
 1012MOL0     C36552   5.130   9.951  11.231  0.7346 -0.0743 -0.5598
 1012MOL0     H36553   4.616  10.006  11.210 -1.8343  0.0769 -1.5610
 1012MOL0     H36554   4.405  10.109  11.212  1.7931  1.0210  3.6319
 1012MOL0     H36555   4.324  10.431  10.969  2.9009  2.2352  2.5942
 1012MOL0     H36556   4.225  10.283  10.999 -1.2237  0.8452 -2.8619
 1012MOL0     H36557   4.131  10.539  10.992 -0.1508 -1.5293 -0.7244
 1012MOL0     H36558   4.047  10.404  11.058  0.9474 -1.3978 -0.2714
 1012MOL0     H36559   4.143  10.447  11.288 -2.2175  1.2579  1.1238
 1012MOL0     H36560   4.205  10.600  11.232  1.4457 -1.7504  2.6616
 1012MOL0     H36561   3.984  10.666  11.182  1.9901  3.0961  2.4204
 1012MOL0     H36562   3.934  10.502  11.214 -0.4132  0.9556 -3.2554
 1012MOL0     H36563   4.019  10.526  11.456 -1.8194 -1.6057 -0.3610
 1012MOL0     H36564   4.058  10.697  11.422 -0.0259  0.0464 -0.6058
 1012MOL0     H36565   3.835  10.734  11.346  0.4038 -0.0011 -1.0582
 1012MOL0     H36566   3.798  10.565  11.408  1.1030 -0.3010  0.6817
 1012MOL0     H36567   3.910  10.780  11.593 -0.0923  0.5926 -1.5288
 1012MOL0     H36568   3.733  10.757  11.579 -1.2314 -1.4375  1.0754
 1012MOL0     H36569   3.860  10.629  11.759  0.5296 -2.7047  1.1225
 1012MOL0     H36570   3.878  10.500  11.638 -1.8022 -0.4575 -2.4758
 1012MOL0     H36571   3.629  10.616  11.856  0.9687  1.1700 -1.4595
 1012MOL0     H36572   3.364  10.360  11.835  0.2330  0.5179  1.1796
 1012MOL0     H36573   3.397  10.504  11.931  0.2875  1.4021 -0.1803
 1012MOL0     H36574   3.259  10.628  11.727  1.4723  1.3554  2.4645
 1012MOL0     H36575   3.181  10.535  11.852 -0.4763 -1.1277 -0.3677
 1012MOL0     H36576   3.145  10.341  11.696  1.4530  0.3207 -0.3459
 1012MOL0     H36577   3.237  10.431  11.564 -1.2042  2.7134 -1.5117
 1012MOL0     H36578   3.051  10.601  11.589  2.7767  0.1866  2.5324
 1012MOL0     H36579   2.972  10.514  11.698 -2.2325  1.6897 -2.1344
 1012MOL0     H36580   2.898  10.293  11.297 -0.7930  0.6792 -2.1367
 1012MOL0     H36581   2.604  10.259  11.142 -0.1595  0.9098  2.8887
 1012MOL0     H36582   2.703  10.378  11.043  2.0467  0.2905 -0.5916
 1012MOL0     H36583   2.774  10.238  11.130  0.8900  2.1471  1.7388
 1012MOL0     H36584   2.260  10.507  11.276  1.0933  0.6416 -0.1998
 1012MOL0     H36585   2.015  10.579  11.235 -0.7983  1.9081  2.0246
 1012MOL0     H36586   1.869  10.753  11.334 -0.6621  1.6033  3.0789
 1012MOL0     H36587   1.836  10.916  11.300 -0.1888 -0.6914  1.5948
 1012MOL0     H36588   1.713  10.662  11.191 -0.0809 -0.9957  1.5324
 1012MOL0     H36589   1.633  10.802  11.277 -1.8078 -1.4676 -0.9863
 1012MOL0     H36590   1.718  10.784  10.982 -0.6519 -0.7276  0.5181
 1012MOL0     H36591   1.659  10.934  11.066 -2.2313  0.6626  0.7822
 1012MOL0     H36592   1.495  10.740  10.930 -0.2994 -3.8661  0.5038
 1012MOL0     H36593   1.499  10.681  11.099 -1.2523  0.1214  0.4315
 1012MOL0     H36594   1.408  10.953  10.977 -0.7871 -0.9863 -1.3557
 1012MOL0     H36595   1.452  10.929  11.150  1.7631 -0.6288 -0.7019
 1012MOL0     H36596   1.226  10.832  10.958 -0.3156 -2.1775 -0.0757
 1012MOL0     H36597   1.252  10.742  11.111  0.2716  0.3791 -0.5653
 1012MOL0     H36598   1.213  11.048  11.086  0.0577 -0.4810 -1.3804
 1012MOL0     H36599   1.233  10.963  11.231  1.9486 -0.9785 -0.3851
 1012MOL0     H36600   0.983  10.908  11.050 -1.7663  0.5094  0.7386
 1012MOL0     H36601   0.990  11.016  11.189 -0.9683 -0.2120  0.1215
 1012MOL0     H36602   2.165  10.979  11.168  0.7596  0.4710  0.6892
 1012MOL0     H36603   2.378  10.898  11.236 -1.8124  1.8542 -1.2092
 1012MOL0     H36604   2.639  10.684  11.420 -2.0508 -0.2187 -1.0851
 1012MOL0     H36605   2.806  10.613  11.562 -2.1912 -3.8920  2.6496
 1012MOL0     H36606   4.562  10.480  11.073 -1.0800  0.7551  0.3315
 1012MOL0     H36607   4.805  10.371  11.092 -0.2420  1.1071  1.8109
 1012MOL0     H36608   5.062  10.126  10.956  0.1427  2.7154  2.2036
 1012MOL0     H36609   5.315  10.091  10.915 -2.2257  2.9137  0.8612
 1012MOL0     H36610   5.650   9.982  11.173  0.0688  1.2201 -0.5027
 1012MOL0     H36611   5.514   9.965  11.290 -5.0542  0.0266 -2.1080
 1012MOL0     H36612   5.676   9.776  11.312 -1.3677 -2.8406  0.9503
 1012MOL0     H36613   5.676   9.774  11.128 -2.1814  1.2643 -0.4876
 1012MOL0     H36614   5.458   9.660  11.147 -0.4121  0.8203  0.3854
 1012MOL0     H36615   5.465   9.675  11.322  1.6227  3.0115  0.6979
 1012MOL0     H36616   5.528   9.458  11.286 -0.1565 -1.1607 -2.2131
 1012MOL0     H36617   5.660   9.542  11.347 -0.6025  1.9261  0.4553
 1012MOL0     H36618   5.809   9.432  10.971 -0.0227 -1.5849 -0.6849
 1012MOL0     H36619   5.310   9.871  11.299 -1.2211  1.0512  0.7395
 1012MOL0     H36620   5.082   9.936  11.327  0.5818  1.7082 -0.3372
 1013MOL0     O36621   0.526   5.001   3.351  0.4779  0.1209  0.6879
 1013MOL0     C36622   0.526   4.884   3.312  0.3835  1.0846 -0.9712
 1013MOL0     O36623   0.419   4.819   3.254 -0.6030  0.3305  0.2595
 1013MOL0     C36624   0.286   4.862   3.272  0.4228 -0.0352  0.3978
 1013MOL0     C36625   0.189   4.850   3.172  0.9453 -1.2434  0.0927
 1013MOL0     C36626   0.060   4.908   3.181  0.1668 -0.0241 -0.2753
 1013MOL0     C36627   0.024   4.970   3.300 -0.1847  1.1925  0.0193
 1013MOL0     O36628  -0.109   5.008   3.333  0.2592 -0.1105  0.4075
 1013MOL0     C36629  -0.199   4.999   3.222  0.2630 -0.3759 -0.0674
 1013MOL0     C36630  -0.319   5.084   3.267  0.4379  0.5458  0.7508
 1013MOL0     C36631  -0.432   5.045   3.181  0.0051  0.0633 -0.1389
 1013MOL0     C36632  -0.555   5.122   3.218  0.3066  0.0517 -0.0232
 1013MOL0     C36633  -0.684   5.042   3.192  0.0799  0.5634 -0.0992
 1013MOL0     C36634  -0.808   5.138   3.192 -0.4171  0.0807  0.5475
 1013MOL0     C36635  -0.823   5.195   3.049  0.8611  0.1628 -0.3023
 1013MOL0     C36636  -0.937   5.307   3.036 -0.1424  0.9256 -0.5344
 1013MOL0     N36637  -0.978   5.383   3.153 -0.2624 -0.5998  0.0454
 1013MOL0     C36638  -1.043   5.344   3.272  0.8240  0.2143  0.1938
 1013MOL0     C36639  -1.029   5.444   3.363 -0.2821  0.3050  0.1152
 1013MOL0     C36640  -1.065   5.435   3.506  0.0784 -0.1202  0.4986
 1013MOL0     C36641  -1.209   5.460   3.534 -0.4735  0.1394  0.0334
 1013MOL0     C36642  -1.305   5.346   3.525 -0.6380  0.1168  0.0583
 1013MOL0     C36643  -1.440   5.378   3.588  0.6907  0.9383  0.3479
 1013MOL0     O36644  -1.496   5.480   3.504 -0.5601 -0.4744 -0.6171
 1013MOL0     C36645  -1.628   5.516   3.516  0.3069 -0.3970 -0.7149
 1013MOL0     C36646  -1.699   5.602   3.420  0.3449  0.6883 -0.0824
 1013MOL0     C36647  -1.835   5.650   3.429  0.4276 -0.3419  0.1044
 1013MOL0     C36648  -1.872   5.767   3.330  0.0915  0.1603 -0.1381
 1013MOL0     C36649  -1.905   5.594   3.542  0.1807  0.7957  0.0359
 1013MOL0     C36650  -2.054   5.614   3.555 -0.6485 -0.0387  0.5349
 1013MOL0     O36651  -2.102   5.629   3.680  0.1870  0.0719  0.0474
 1013MOL0     C36652  -2.238   5.611   3.704 -0.3902  0.2136 -0.9516
 1013MOL0     C36653  -2.326   5.711   3.754 -0.2066  0.4639 -0.4314
 1013MOL0     C36654  -2.461   5.688   3.785 -0.0565  0.7634 -0.8841
 1013MOL0     C36655  -2.519   5.564   3.753 -0.8314  0.1150 -0.0987
 1013MOL0     O36656  -2.655   5.540   3.759  0.1316 -0.1671 -0.0117
 1013MOL0     C36657  -2.738   5.623   3.841 -0.7504  0.1889 -0.0412
 1013MOL0     C36658  -2.871   5.557   3.853  0.3229 -0.6862  0.1989
 1013MOL0     C36659  -2.848   5.439   3.946  0.7498  0.1327  0.2260
 1013MOL0     C36660  -2.972   5.342   3.930 -0.8298 -0.1207  0.0216
 1013MOL0     C36661  -3.109   5.411   3.968  0.1587 -0.6258  0.3210
 1013MOL0     C36662  -3.217   5.309   3.946  0.4253 -0.5337 -0.3083
 1013MOL0     C36663  -3.355   5.379   3.950  0.3364  0.1292 -0.4353
 1013MOL0     C36664  -3.462   5.272   3.942 -0.0720  0.2627  1.1350
 1013MOL0    Cl36665  -3.621   5.356   3.909 -0.1501  0.2715 -0.1821
 1013MOL0     C36666  -2.433   5.460   3.711 -0.0342 -0.1720 -0.4813
 1013MOL0     C36667  -2.293   5.477   3.683 -0.1956 -0.7227 -0.0952
 1013MOL0     O36668  -2.121   5.624   3.452 -0.6524  0.3741  0.3824
 1013MOL0     C36669  -1.838   5.512   3.640  0.2291 -0.6433  0.5126
 1013MOL0     C36670  -1.705   5.478   3.628  0.1342 -0.4255  0.0477
 1013MOL0     N36671  -0.985   5.553   3.286 -0.1472 -0.5683 -0.2079
 1013MOL0     N36672  -0.932   5.511   3.175 -0.3074 -0.4490 -0.1490
 1013MOL0     C36673   0.120   4.983   3.405  0.2565 -0.0672  0.3502
 1013MOL0     C36674   0.251   4.940   3.383  0.2664 -0.4378  0.3789
 1013MOL0     C36675   0.650   4.805   3.320 -0.7019 -0.8737 -0.7647
 1013MOL0     C36676   0.756   4.854   3.394  0.2795 -0.4652 -1.0036
 1013MOL0     C36677   0.882   4.793   3.405 -0.0437  0.1241  0.1670
 1013MOL0     C36678   0.901   4.672   3.341 -0.6243  0.2635 -0.3451
 1013MOL0     O36679   1.029   4.617   3.359 -0.8036  0.2779  0.4080
 1013MOL0     C36680   1.047   4.474   3.321  0.4726  0.3117 -0.2982
 1013MOL0     C36681   1.079   4.445   3.173  0.1634 -0.2360  0.2864
 1013MOL0     C36682   1.191   4.542   3.121 -0.8067  0.0597  0.2059
 1013MOL0     C36683   1.207   4.510   2.973  0.2373  0.3166 -0.9972
 1013MOL0     C36684   1.326   4.580   2.926  0.0367  0.1870  0.4940
 1013MOL0     C36685   1.420   4.637   2.874  0.0528 -0.0293  0.3623
 1013MOL0     C36686   0.794   4.615   3.276  0.2951  0.2273 -0.1752
 1013MOL0     C36687   0.670   4.681   3.258 -0.5457  0.1685 -0.6829
 1013MOL0     H36688   0.217   4.794   3.083  0.3717 -3.9226  1.4782
 1013MOL0     H36689  -0.014   4.881   3.107 -1.4234  1.4299  0.6946
 1013MOL0     H36690  -0.151   5.044   3.135 -0.4467 -1.0007 -0.8059
 1013MOL0     H36691  -0.218   4.892   3.209  0.2474 -0.6792  2.0426
 1013MOL0     H36692  -0.339   5.062   3.372 -1.7490  2.6147  0.8607
 1013MOL0     H36693  -0.295   5.189   3.249 -2.1720  0.6190 -3.9864
 1013MOL0     H36694  -0.414   5.055   3.074 -3.2865  1.6131 -0.6797
 1013MOL0     H36695  -0.449   4.938   3.197 -1.4276  0.3849  0.6896
 1013MOL0     H36696  -0.548   5.148   3.324  0.3182  0.7106 -0.1756
 1013MOL0     H36697  -0.551   5.216   3.162  1.3500 -0.3777 -0.6974
 1013MOL0     H36698  -0.684   4.975   3.105 -2.6052 -0.5967  0.6874
 1013MOL0     H36699  -0.696   4.979   3.280  1.8511  0.4843  0.1179
 1013MOL0     H36700  -0.899   5.082   3.213 -1.3641  1.1909 -0.4532
 1013MOL0     H36701  -0.798   5.223   3.260 -0.7180  2.2727 -2.0050
 1013MOL0     H36702  -0.731   5.242   3.013  0.4113 -0.1034 -1.8795
 1013MOL0     H36703  -0.855   5.129   2.968 -1.6594  1.4241 -0.4322
 1013MOL0     H36704  -1.024   5.255   2.994  0.6730 -0.5560 -0.4283
 1013MOL0     H36705  -0.909   5.381   2.961  0.9829  1.8090  0.7067
 1013MOL0     H36706  -1.071   5.242   3.295 -2.9141  1.0547  0.1117
 1013MOL0     H36707  -1.046   5.338   3.552 -0.2433 -1.5990 -2.2829
 1013MOL0     H36708  -1.001   5.512   3.550  0.3012 -0.0900  0.1308
 1013MOL0     H36709  -1.254   5.535   3.468  0.9036  0.0512 -1.0480
 1013MOL0     H36710  -1.219   5.509   3.631 -0.4763  0.6628 -0.2269
 1013MOL0     H36711  -1.247   5.275   3.585  1.9386  2.4495  0.5304
 1013MOL0     H36712  -1.304   5.312   3.421  0.1162 -0.3536  0.2062
 1013MOL0     H36713  -1.417   5.408   3.691  2.3243 -2.2722  1.0628
 1013MOL0     H36714  -1.507   5.292   3.591 -0.4522  1.8023  0.2144
 1013MOL0     H36715  -1.638   5.636   3.337 -1.6360  3.6621 -0.4603
 1013MOL0     H36716  -1.871   5.747   3.223  0.6224  2.4618 -0.6190
 1013MOL0     H36717  -1.972   5.809   3.341  0.5706  1.1176  0.8231
 1013MOL0     H36718  -1.797   5.846   3.339 -0.9627  1.4093 -1.6701
 1013MOL0     H36719  -2.280   5.809   3.769 -0.2274  0.1405  2.2006
 1013MOL0     H36720  -2.530   5.767   3.812 -4.0393 -2.7995  0.5544
 1013MOL0     H36721  -2.690   5.637   3.938  0.4656 -2.0206 -0.2327
 1013MOL0     H36722  -2.747   5.717   3.786 -0.0753  0.0220 -0.4555
 1013MOL0     H36723  -2.936   5.635   3.895  0.4522 -0.7784  0.5720
 1013MOL0     H36724  -2.910   5.525   3.756  0.5602 -3.5981  0.9900
 1013MOL0     H36725  -2.838   5.468   4.051 -3.7424 -1.2785  1.2631
 1013MOL0     H36726  -2.756   5.384   3.926  1.0654  1.3053 -1.7657
 1013MOL0     H36727  -2.975   5.302   3.829 -3.0055 -0.6912  0.2477
 1013MOL0     H36728  -2.952   5.255   3.993  1.7950 -0.5118 -1.2337
 1013MOL0     H36729  -3.133   5.501   3.911  0.0364 -0.0004  1.3315
 1013MOL0     H36730  -3.112   5.439   4.074 -2.8577 -2.0988  0.7141
 1013MOL0     H36731  -3.193   5.275   3.845 -3.6064 -0.3343 -1.4822
 1013MOL0     H36732  -3.213   5.220   4.010 -0.3237 -1.4988 -1.5424
 1013MOL0     H36733  -3.361   5.440   3.860  2.8990  2.3584  0.7551
 1013MOL0     H36734  -3.384   5.440   4.036  0.0312  0.0472 -0.4793
 1013MOL0     H36735  -3.461   5.219   4.037 -0.8351 -1.9124  0.0032
 1013MOL0     H36736  -3.441   5.198   3.863  1.8922  1.8008  0.1303
 1013MOL0     H36737  -2.479   5.364   3.689 -0.3835 -0.2327  0.4714
 1013MOL0     H36738  -2.233   5.393   3.648 -0.0396  0.3328 -2.5639
 1013MOL0     H36739  -1.904   5.465   3.712 -1.4281  0.9196  0.0968
 1013MOL0     H36740  -1.665   5.412   3.705  3.0095  2.8474  1.6374
 1013MOL0     H36741   0.081   5.025   3.497 -2.2968  2.0085 -1.5302
 1013MOL0     H36742   0.326   4.965   3.458 -1.3004  0.7603  1.5878
 1013MOL0     H36743   0.767   4.951   3.441  2.0558 -1.3402  0.4818
 1013MOL0     H36744   0.954   4.851   3.462 -1.4330  1.3550  0.7289
 1013MOL0     H36745   1.134   4.442   3.380  0.3452  1.8148  0.7660
 1013MOL0     H36746   0.965   4.410   3.356 -0.5079  3.0345  2.8547
 1013MOL0     H36747   0.989   4.459   3.112 -0.1776  1.0717  1.0487
 1013MOL0     H36748   1.111   4.341   3.169  1.0920 -0.0533  2.0500
 1013MOL0     H36749   1.287   4.526   3.172 -0.1255  1.0970 -0.6901
 1013MOL0     H36750   1.163   4.647   3.137  0.3802  0.9103 -2.6747
 1013MOL0     H36751   1.119   4.540   2.916  0.5222 -2.0995 -2.9046
 1013MOL0     H36752   1.215   4.402   2.959  2.4415  0.3593 -0.5384
 1013MOL0     H36753   1.491   4.695   2.819 -0.9090 -0.0778 -0.9662
 1013MOL0     H36754   0.799   4.517   3.230  0.6886  0.9426 -1.7421
 1013MOL0     H36755   0.603   4.625   3.193 -0.1909 -2.0676  0.7665
 1014MOL0     O36756   9.601   0.262   0.326 -0.2411  1.4048  0.4326
 1014MOL0     C36757   9.642   0.340   0.238  0.3731 -0.8834 -0.6190
 1014MOL0     O36758   9.561   0.435   0.174  0.4762 -0.8866  0.2188
 1014MOL0     C36759   9.418   0.439   0.196 -0.1146 -0.3295 -0.2576
 1014MOL0     C36760   9.355   0.461   0.319  0.5122 -0.4146 -0.7056
 1014MOL0     C36761   9.212   0.460   0.327  0.5269  0.9420  0.1662
 1014MOL0     C36762   9.124   0.440   0.214 -0.3216  0.3776  0.1306
 1014MOL0     O36763   8.987   0.440   0.211  0.0237  0.5701 -0.0408
 1014MOL0     C36764   8.913   0.444   0.330 -0.1846  0.0258 -0.1386
 1014MOL0     C36765   8.888   0.587   0.383 -0.0858  0.7253  0.2332
 1014MOL0     C36766   8.784   0.655   0.292  1.2815 -0.8834  0.7050
 1014MOL0     C36767   8.762   0.797   0.342 -0.0022  0.0085  0.2799
 1014MOL0     C36768   8.655   0.868   0.258  0.9144  0.0806 -0.6744
 1014MOL0     C36769   8.664   1.024   0.294 -0.4216  0.5316  0.2857
 1014MOL0     C36770   8.582   1.104   0.193 -0.1295  0.6677 -0.0190
 1014MOL0     C36771   8.503   1.210   0.258 -0.2001 -0.1164  0.0823
 1014MOL0     N36772   8.376   1.160   0.306  0.0613  0.2487  0.2772
 1014MOL0     C36773   8.255   1.193   0.239 -0.5582 -0.2819  0.5870
 1014MOL0     C36774   8.160   1.154   0.321 -0.3476  0.6116  0.4984
 1014MOL0     C36775   8.013   1.147   0.306 -0.5122  0.2375  0.2423
 1014MOL0     C36776   7.944   1.273   0.369 -0.5779 -0.2695  0.5546
 1014MOL0     C36777   7.796   1.254   0.364 -0.0360  0.2386  0.0453
 1014MOL0     C36778   7.719   1.375   0.420  0.9910 -0.7361  0.3733
 1014MOL0     O36779   7.607   1.409   0.323  0.5070  0.3604 -0.0163
 1014MOL0     C36780   7.481   1.397   0.389 -0.6431 -0.9158 -0.7238
 1014MOL0     C36781   7.448   1.296   0.476  0.0275  0.2462  0.0047
 1014MOL0     C36782   7.316   1.273   0.539 -0.6654 -0.3041  0.5457
 1014MOL0     C36783   7.308   1.166   0.640  0.1153  0.0046 -0.4590
 1014MOL0     C36784   7.215   1.365   0.507  0.0003 -0.1806 -1.0016
 1014MOL0     C36785   7.072   1.353   0.563 -1.0100 -0.4025  0.8096
 1014MOL0     O36786   7.024   1.475   0.586  0.5171 -0.1008 -0.4647
 1014MOL0     C36787   6.902   1.481   0.656 -0.4291  0.0080 -0.5766
 1014MOL0     C36788   6.789   1.503   0.586 -0.5742  0.4648  0.6608
 1014MOL0     C36789   6.667   1.507   0.644 -0.2897  0.3209 -0.2579
 1014MOL0     C36790   6.649   1.474   0.780 -0.8220 -0.6912  0.1726
 1014MOL0     O36791   6.538   1.473   0.851  0.1319 -0.2559 -0.3150
 1014MOL0     C36792   6.418   1.499   0.779  0.2736  0.3643 -0.1066
 1014MOL0     C36793   6.296   1.488   0.866 -0.2727  0.0136  0.2108
 1014MOL0     C36794   6.211   1.608   0.850  0.9498  0.1111  0.3642
 1014MOL0     C36795   6.067   1.593   0.899 -0.5597  0.4634 -0.4952
 1014MOL0     C36796   5.985   1.714   0.888  0.7800 -0.2183 -0.0968
 1014MOL0     C36797   5.842   1.689   0.941 -0.0790 -0.0122 -0.3518
 1014MOL0     C36798   5.758   1.808   0.907  0.4521  0.0818  0.0521
 1014MOL0     C36799   5.634   1.801   1.002  0.1180 -0.1398 -0.3273
 1014MOL0    Cl36800   5.553   1.964   0.974  0.2516 -0.0339  0.1921
 1014MOL0     C36801   6.767   1.443   0.850  0.9498  0.0248  0.5270
 1014MOL0     C36802   6.892   1.446   0.790 -0.3606  0.8245  0.8598
 1014MOL0     O36803   7.010   1.248   0.561  0.0185 -0.2143  0.4744
 1014MOL0     C36804   7.246   1.478   0.428 -0.2277  0.1231 -0.8750
 1014MOL0     C36805   7.380   1.491   0.373  0.0227 -0.9276  0.6321
 1014MOL0     N36806   8.222   1.100   0.431  0.4451  0.3064 -0.0779
 1014MOL0     N36807   8.347   1.096   0.423 -0.4054 -0.2712 -0.0279
 1014MOL0     C36808   9.190   0.415   0.092 -0.7064 -0.8954 -1.3570
 1014MOL0     C36809   9.332   0.416   0.085 -0.5723  0.0892  0.3234
 1014MOL0     C36810   9.787   0.335   0.198  0.1499 -0.3620 -0.6174
 1014MOL0     C36811   9.840   0.424   0.110 -0.0623  0.3134 -0.2894
 1014MOL0     C36812   9.965   0.410   0.064 -0.7563 -1.2383  0.7497
 1014MOL0     C36813  10.053   0.310   0.104  0.6016 -0.0770  0.8596
 1014MOL0     O36814  10.179   0.299   0.052  0.0476  0.2760  0.3748
 1014MOL0     C36815  10.192   0.334  -0.092 -0.5106 -1.0326 -1.2466
 1014MOL0     C36816  10.254   0.475  -0.127  0.6721 -0.6267 -0.3591
 1014MOL0     C36817  10.402   0.487  -0.096 -1.2445 -0.1668  0.6019
 1014MOL0     C36818  10.473   0.580  -0.192  0.3087 -1.1749  0.1188
 1014MOL0     C36819  10.506   0.523  -0.318 -1.5512 -0.0149  0.0858
 1014MOL0     C36820  10.539   0.480  -0.426 -0.2980 -0.0268 -0.5663
 1014MOL0     C36821  10.004   0.223   0.196  0.0777  0.9241  0.1527
 1014MOL0     C36822   9.869   0.234   0.239  0.2160  1.2190 -0.4445
 1014MOL0     H36823   9.415   0.471   0.409 -2.2554  1.4793  1.0683
 1014MOL0     H36824   9.190   0.471   0.432  1.3092 -0.7969  0.5419
 1014MOL0     H36825   8.814   0.399   0.323  1.0019 -2.9929  1.1041
 1014MOL0     H36826   8.967   0.384   0.403  1.6004  1.2428 -0.3882
 1014MOL0     H36827   8.857   0.595   0.488 -3.3595  2.1645 -0.7079
 1014MOL0     H36828   8.981   0.644   0.376  0.6755 -0.3509  1.0894
 1014MOL0     H36829   8.830   0.664   0.193 -2.0456 -2.4390 -1.1298
 1014MOL0     H36830   8.698   0.588   0.292  1.9976 -1.8155  0.5866
 1014MOL0     H36831   8.736   0.795   0.448 -2.7030  3.5440 -0.1608
 1014MOL0     H36832   8.852   0.858   0.331 -0.1978  0.3381  0.4989
 1014MOL0     H36833   8.672   0.866   0.150  1.5894  0.9937 -0.6025
 1014MOL0     H36834   8.551   0.836   0.269  1.1552 -0.5353 -0.1454
 1014MOL0     H36835   8.621   1.031   0.395  1.1650 -1.0136  1.1265
 1014MOL0     H36836   8.767   1.061   0.301  0.1968 -0.8965 -0.6796
 1014MOL0     H36837   8.657   1.155   0.132  1.2561 -2.5212 -1.2021
 1014MOL0     H36838   8.513   1.047   0.130 -0.1979 -1.5565  1.9168
 1014MOL0     H36839   8.490   1.289   0.184 -3.0943  0.0165  0.6378
 1014MOL0     H36840   8.559   1.261   0.337  1.0771  0.9498 -1.4438
 1014MOL0     H36841   8.243   1.247   0.146 -0.9138  1.4632  1.6003
 1014MOL0     H36842   7.990   1.142   0.199 -0.9141  1.9036  0.2199
 1014MOL0     H36843   7.975   1.058   0.357  1.9669 -0.6312  0.6823
 1014MOL0     H36844   7.979   1.358   0.310  1.7266 -0.3438  1.7037
 1014MOL0     H36845   7.964   1.292   0.475  0.2188  0.6049  0.2634
 1014MOL0     H36846   7.771   1.169   0.427  0.4910  1.5051  2.0728
 1014MOL0     H36847   7.771   1.249   0.258  1.7925  1.1415 -0.4890
 1014MOL0     H36848   7.782   1.464   0.411 -1.4891  1.0352 -0.4506
 1014MOL0     H36849   7.702   1.376   0.528 -0.3170 -0.0272  0.1785
 1014MOL0     H36850   7.522   1.219   0.497 -1.0946  0.0437  3.8484
 1014MOL0     H36851   7.223   1.174   0.708  0.9912 -4.1590  1.3982
 1014MOL0     H36852   7.308   1.074   0.581  3.1929 -1.3797  1.4369
 1014MOL0     H36853   7.407   1.160   0.687 -0.1627 -0.7580  0.0310
 1014MOL0     H36854   6.789   1.514   0.478 -1.4861 -0.8758  0.5032
 1014MOL0     H36855   6.590   1.533   0.571 -0.8339 -0.5728 -0.0230
 1014MOL0     H36856   6.441   1.599   0.741  2.5516  0.6374  1.6953
 1014MOL0     H36857   6.409   1.426   0.698 -1.8004  0.8994 -0.3985
 1014MOL0     H36858   6.235   1.400   0.843  0.1874  0.1301 -1.6536
 1014MOL0     H36859   6.335   1.483   0.968 -0.6311 -2.6218  0.2905
 1014MOL0     H36860   6.201   1.619   0.741  1.7592  2.1275  0.4457
 1014MOL0     H36861   6.253   1.699   0.893 -0.8758  2.0553 -1.6773
 1014MOL0     H36862   6.020   1.521   0.831  0.0754  0.3059 -0.7690
 1014MOL0     H36863   6.056   1.564   1.004  1.0353  1.0537 -0.1415
 1014MOL0     H36864   5.981   1.734   0.781 -0.9361  2.9855  0.4099
 1014MOL0     H36865   6.043   1.796   0.933 -0.0684 -0.1666  0.9340
 1014MOL0     H36866   5.787   1.610   0.890 -4.7703  2.2464  0.6352
 1014MOL0     H36867   5.849   1.680   1.050  1.1390  0.5507 -0.3658
 1014MOL0     H36868   5.727   1.786   0.805  0.3101 -0.9275  0.3006
 1014MOL0     H36869   5.812   1.902   0.918 -1.9477  1.5224 -0.0021
 1014MOL0     H36870   5.651   1.794   1.110 -1.1691  1.5028  0.0347
 1014MOL0     H36871   5.570   1.714   0.985 -1.9556  1.1998  0.2323
 1014MOL0     H36872   6.752   1.409   0.952 -0.1120  2.3155  1.2051
 1014MOL0     H36873   6.988   1.426   0.836  1.5429 -2.4772 -3.7444
 1014MOL0     H36874   7.168   1.551   0.409  0.0039  0.8143  0.6355
 1014MOL0     H36875   7.398   1.575   0.306 -1.1925  0.4665  1.9419
 1014MOL0     H36876   9.133   0.391   0.003 -1.4327 -2.2877 -0.5481
 1014MOL0     H36877   9.391   0.390  -0.002  0.8007  2.0336  0.5986
 1014MOL0     H36878   9.784   0.503   0.061  0.7049  0.1777 -1.4282
 1014MOL0     H36879  10.003   0.485  -0.005  1.5820 -0.7957  2.3967
 1014MOL0     H36880  10.259   0.263  -0.141  2.3511  0.0734  0.7967
 1014MOL0     H36881  10.098   0.325  -0.147 -0.8205 -1.7374 -0.6282
 1014MOL0     H36882  10.208   0.557  -0.071  0.3359 -1.9538  1.3736
 1014MOL0     H36883  10.240   0.484  -0.235  3.1969  1.8386 -0.6229
 1014MOL0     H36884  10.453   0.390  -0.101 -1.8118 -0.4406  0.0508
 1014MOL0     H36885  10.418   0.543  -0.003 -1.0286  1.3285 -0.2991
 1014MOL0     H36886  10.569   0.611  -0.150  0.5037 -2.2405  0.4847
 1014MOL0     H36887  10.422   0.675  -0.213 -0.2467 -1.1661  1.4407
 1014MOL0     H36888  10.573   0.434  -0.516 -0.4485  1.9017 -1.6559
 1014MOL0     H36889  10.072   0.150   0.239  1.7852  1.7727 -0.9938
 1014MOL0     H36890   9.845   0.153   0.307  0.8987  0.3346 -1.2172
 1015MOL0     O36891   0.803  11.280   7.740 -0.2748  0.5663 -0.6319
 1015MOL0     C36892   0.878  11.209   7.810 -1.0210  0.4110 -0.5500
 1015MOL0     O36893   0.841  11.118   7.905  0.2346  0.2707  0.1568
 1015MOL0     C36894   0.711  11.104   7.940  0.3727 -0.1891 -0.3147
 1015MOL0     C36895   0.649  11.200   8.029 -0.5928  0.6180 -0.4594
 1015MOL0     C36896   0.518  11.173   8.078 -0.1354 -1.0833 -0.5756
 1015MOL0     C36897   0.445  11.063   8.030  0.2353 -0.4065  0.7504
 1015MOL0     O36898   0.313  11.042   8.071  0.4201 -0.4068 -1.0734
 1015MOL0     C36899   0.299  11.060   8.216  0.2336 -0.0667 -0.3832
 1015MOL0     C36900   0.171  10.993   8.265  0.1107  0.5284 -0.4833
 1015MOL0     C36901   0.142  11.023   8.418 -0.7860  0.2023 -0.6767
 1015MOL0     C36902   0.020  10.940   8.471  0.0077  0.6358 -0.5348
 1015MOL0     C36903  -0.022  10.972   8.618  0.0169  0.2547 -0.1730
 1015MOL0     C36904  -0.152  10.888   8.650 -0.4088 -0.0636  0.5648
 1015MOL0     C36905  -0.218  10.942   8.776  0.3756 -0.2643 -0.6747
 1015MOL0     C36906  -0.358  10.860   8.801 -0.1526 -0.5013  0.2884
 1015MOL0     N36907  -0.337  10.710   8.796 -0.8443  0.1674  0.0476
 1015MOL0     C36908  -0.395  10.622   8.713 -0.0407  0.2053 -0.0904
 1015MOL0     C36909  -0.360  10.495   8.758 -0.0726 -0.3787 -0.3306
 1015MOL0     C36910  -0.398  10.357   8.704 -0.6036 -0.6954 -0.8615
 1015MOL0     C36911  -0.412  10.361   8.557 -1.3346  0.1030 -0.0274
 1015MOL0     C36912  -0.425  10.219   8.503  0.7191  1.0643 -0.3536
 1015MOL0     C36913  -0.553  10.146   8.542 -1.2020 -0.3438  0.4476
 1015MOL0     O36914  -0.657  10.231   8.498 -0.2132 -0.3101  0.1344
 1015MOL0     C36915  -0.775  10.158   8.482  0.5592  0.2386 -0.4941
 1015MOL0     C36916  -0.804  10.089   8.361  0.0360 -1.1873  0.1549
 1015MOL0     C36917  -0.924  10.024   8.348  0.3245 -0.7736  0.0317
 1015MOL0     C36918  -0.947   9.970   8.206 -0.2245  0.1604 -0.1427
 1015MOL0     C36919  -1.018  10.021   8.446 -0.3084 -0.4244  0.5820
 1015MOL0     C36920  -1.137   9.937   8.450  0.0183 -0.1650  0.4085
 1015MOL0     O36921  -1.222   9.958   8.559 -0.0044 -0.2929  0.5255
 1015MOL0     C36922  -1.331   9.879   8.592 -0.2994  0.0867  0.3885
 1015MOL0     C36923  -1.357   9.741   8.566 -0.0284  0.0202 -0.5531
 1015MOL0     C36924  -1.462   9.673   8.626  0.4564 -0.5270  0.1628
 1015MOL0     C36925  -1.550   9.745   8.708  0.0893 -0.4552  0.5225
 1015MOL0     O36926  -1.663   9.668   8.753 -0.2915 -0.5977 -0.1191
 1015MOL0     C36927  -1.767   9.737   8.827 -0.5037  0.2965  0.0161
 1015MOL0     C36928  -1.875   9.640   8.804  0.2138  0.4172 -0.1705
 1015MOL0     C36929  -2.016   9.686   8.838  0.2020  0.0202 -0.7562
 1015MOL0     C36930  -2.036   9.754   8.982  0.8943 -0.4020  0.4445
 1015MOL0     C36931  -2.181   9.796   8.997 -0.0781 -0.3964 -0.3731
 1015MOL0     C36932  -2.205   9.909   9.103 -0.3440  0.4973 -0.2603
 1015MOL0     C36933  -2.345   9.904   9.175  0.4193 -0.3852 -0.6225
 1015MOL0     C36934  -2.473   9.932   9.087 -0.7308 -0.3608 -0.1160
 1015MOL0    Cl36935  -2.585  10.049   9.151 -0.3252  0.3944  0.0275
 1015MOL0     C36936  -1.525   9.882   8.741  0.2015  0.1114  0.3911
 1015MOL0     C36937  -1.419   9.943   8.685  0.6201 -0.1013  0.0451
 1015MOL0     O36938  -1.156   9.850   8.360  0.3572  0.1035  0.0339
 1015MOL0     C36939  -0.983  10.087   8.560  0.5394  0.6044  0.5667
 1015MOL0     C36940  -0.870  10.156   8.584 -1.0336 -0.5555  0.1866
 1015MOL0     N36941  -0.281  10.511   8.871  0.1704 -0.2647 -0.3546
 1015MOL0     N36942  -0.261  10.639   8.888 -0.6407 -0.7091  1.0133
 1015MOL0     C36943   0.506  10.975   7.936 -0.3566 -0.2680  0.1069
 1015MOL0     C36944   0.642  10.996   7.893  0.1155  0.2694 -0.5425
 1015MOL0     C36945   1.033  11.217   7.797 -0.1828 -1.5568 -0.4087
 1015MOL0     C36946   1.099  11.321   7.725  0.4801  0.1329  0.5955
 1015MOL0     C36947   1.235  11.318   7.696  0.8746 -0.2324 -0.6160
 1015MOL0     C36948   1.319  11.216   7.746 -0.1091  0.0751 -0.8934
 1015MOL0     O36949   1.456  11.223   7.720  0.0799 -0.7651  0.3544
 1015MOL0     C36950   1.533  11.119   7.776 -1.4525 -0.0590  0.3630
 1015MOL0     C36951   1.675  11.131   7.722  0.9359  0.2960  0.2867
 1015MOL0     C36952   1.772  11.040   7.795 -0.3979 -0.0673  0.2584
 1015MOL0     C36953   1.910  11.036   7.725  0.2569 -0.6161 -0.8458
 1015MOL0     C36954   2.008  10.972   7.814 -0.3911  0.5931  0.1696
 1015MOL0     C36955   2.085  10.918   7.892 -0.4420 -1.1311 -0.8817
 1015MOL0     C36956   1.255  11.120   7.826  0.1081  0.0421  0.5550
 1015MOL0     C36957   1.119  11.119   7.848  0.0295 -0.0334 -0.4443
 1015MOL0     H36958   0.695  11.297   8.047  0.3421 -0.0109  0.6744
 1015MOL0     H36959   0.475  11.240   8.151 -2.0829 -1.0911 -1.6550
 1015MOL0     H36960   0.377  11.012   8.275  0.2193  2.9664  2.3910
 1015MOL0     H36961   0.294  11.169   8.226  1.9947 -0.1614  2.8670
 1015MOL0     H36962   0.088  11.036   8.207 -1.9913  1.6434  3.0310
 1015MOL0     H36963   0.178  10.888   8.238 -0.0343  0.4380 -0.1811
 1015MOL0     H36964   0.235  11.005   8.472 -0.1211  2.3019 -1.0441
 1015MOL0     H36965   0.112  11.127   8.430  1.4591  1.4509 -4.3897
 1015MOL0     H36966  -0.062  10.972   8.407 -0.9286  4.1988  2.1405
 1015MOL0     H36967   0.033  10.832   8.468  0.8822  0.6192  1.8464
 1015MOL0     H36968   0.061  10.967   8.688  1.0449  1.4943 -1.2391
 1015MOL0     H36969  -0.054  11.077   8.626  2.6644  0.9388  3.6361
 1015MOL0     H36970  -0.225  10.891   8.569  0.3576 -0.2111 -0.1452
 1015MOL0     H36971  -0.123  10.784   8.663  0.6999 -0.1534 -1.9773
 1015MOL0     H36972  -0.148  10.930   8.860 -0.2171  0.6622 -0.0264
 1015MOL0     H36973  -0.234  11.050   8.772  0.8624 -0.1719 -0.2950
 1015MOL0     H36974  -0.438  10.889   8.733 -0.4125  0.6021  1.0258
 1015MOL0     H36975  -0.390  10.879   8.904  0.2986 -1.8485  0.6953
 1015MOL0     H36976  -0.457  10.653   8.629 -0.9506 -0.9158  0.1273
 1015MOL0     H36977  -0.326  10.280   8.735 -1.8665 -1.0546  1.3539
 1015MOL0     H36978  -0.492  10.336   8.755 -0.4147 -1.4089 -0.7980
 1015MOL0     H36979  -0.326  10.412   8.513  2.0617 -2.7908  2.7203
 1015MOL0     H36980  -0.499  10.423   8.532 -0.0329  1.7827 -0.5744
 1015MOL0     H36981  -0.338  10.157   8.527 -1.1244 -1.1076  1.1693
 1015MOL0     H36982  -0.429  10.223   8.394  0.0060  0.0098 -0.3744
 1015MOL0     H36983  -0.554  10.131   8.650  2.8002  2.4539  1.0736
 1015MOL0     H36984  -0.555  10.044   8.501  0.7467 -0.7430  1.2245
 1015MOL0     H36985  -0.735  10.094   8.278  2.0739  1.6629  1.8337
 1015MOL0     H36986  -1.054   9.986   8.191 -0.4460 -1.1927 -0.0713
 1015MOL0     H36987  -0.884  10.015   8.128 -1.4847 -1.7979 -2.4331
 1015MOL0     H36988  -0.926   9.863   8.207 -0.9781  0.0004  1.1884
 1015MOL0     H36989  -1.296   9.679   8.500 -1.3924 -0.9766 -0.9073
 1015MOL0     H36990  -1.479   9.569   8.602 -0.6616 -0.0020 -1.5014
 1015MOL0     H36991  -1.739   9.742   8.933  1.3438  0.7414 -0.4646
 1015MOL0     H36992  -1.786   9.841   8.799 -0.6328  0.7509  1.6416
 1015MOL0     H36993  -1.871   9.619   8.697  2.6937  0.2385 -0.0950
 1015MOL0     H36994  -1.851   9.548   8.858 -1.3570  0.0934  0.0349
 1015MOL0     H36995  -2.091   9.606   8.841  1.0198 -0.7421  0.8467
 1015MOL0     H36996  -2.037   9.764   8.765 -0.1253  0.0748 -0.6080
 1015MOL0     H36997  -2.021   9.677   9.058 -0.1974 -0.8798  0.2003
 1015MOL0     H36998  -1.972   9.842   8.993  1.8694 -1.1763  1.1118
 1015MOL0     H36999  -2.241   9.707   9.022 -0.6960 -0.2319 -1.2286
 1015MOL0     H37000  -2.214   9.835   8.901  0.6181  0.1462 -0.3988
 1015MOL0     H37001  -2.140   9.895   9.189 -0.0315 -2.3822 -0.8614
 1015MOL0     H37002  -2.184  10.012   9.071 -0.6362  0.2564 -1.2805
 1015MOL0     H37003  -2.341   9.994   9.238  2.0513  0.5694 -2.0014
 1015MOL0     H37004  -2.359   9.811   9.231 -2.6918  0.0330 -0.5029
 1015MOL0     H37005  -2.514   9.839   9.044  0.8965 -0.6316 -1.1598
 1015MOL0     H37006  -2.436   9.991   9.003  1.3379 -0.7189  0.4826
 1015MOL0     H37007  -1.589   9.940   8.806  1.2125 -0.8944  2.3820
 1015MOL0     H37008  -1.404  10.049   8.702 -2.5559  1.1583 -3.5479
 1015MOL0     H37009  -1.048  10.087   8.647  2.7822 -0.7428  2.3656
 1015MOL0     H37010  -0.833  10.209   8.671  2.6716 -1.1195 -0.8589
 1015MOL0     H37011   0.441  10.901   7.891 -1.4151  1.3079 -1.0847
 1015MOL0     H37012   0.687  10.926   7.823  3.3669  0.3434  1.2784
 1015MOL0     H37013   1.043  11.408   7.691 -1.4172 -0.8951  0.9942
 1015MOL0     H37014   1.280  11.397   7.637  0.8189  1.0713  1.0204
 1015MOL0     H37015   1.543  11.126   7.885 -3.0530  0.4682  0.4995
 1015MOL0     H37016   1.505  11.019   7.741  2.6202 -0.8785 -1.2055
 1015MOL0     H37017   1.703  11.237   7.723  1.8550  0.0642 -0.2021
 1015MOL0     H37018   1.666  11.107   7.615  0.2037  0.5638  0.2813
 1015MOL0     H37019   1.731  10.940   7.808 -0.2023 -0.3685 -1.3114
 1015MOL0     H37020   1.783  11.076   7.898 -0.2959 -1.0632  0.6062
 1015MOL0     H37021   1.935  11.143   7.721 -1.3446 -0.0752  1.5838
 1015MOL0     H37022   1.901  10.994   7.625  0.8659 -0.8537 -0.8088
 1015MOL0     H37023   2.161  10.864   7.945 -0.3584  1.1953  1.5726
 1015MOL0     H37024   1.315  11.048   7.881  1.7658  1.9786  1.4531
 1015MOL0     H37025   1.085  11.042   7.915  2.1446  1.2824  2.3544
 1016MOL0     O37026   6.682   0.812   8.306 -0.7056  0.0492 -0.3206
 1016MOL0     C37027   6.664   0.906   8.234  0.5628 -0.3593 -0.5152
 1016MOL0     O37028   6.537   0.957   8.210  0.4506 -0.8086  0.4914
 1016MOL0     C37029   6.417   0.903   8.251  0.5748 -0.0604 -0.8525
 1016MOL0     C37030   6.305   0.987   8.245  0.2774  0.0835 -0.2208
 1016MOL0     C37031   6.174   0.944   8.288  0.3200 -0.7738  0.4719
 1016MOL0     C37032   6.154   0.824   8.350 -0.5911  0.1358 -0.0026
 1016MOL0     O37033   6.034   0.784   8.407 -0.3438  0.8682 -0.6866
 1016MOL0     C37034   5.909   0.846   8.368  0.1522  0.4434  0.7376
 1016MOL0     C37035   5.788   0.777   8.432 -1.0597  0.3073 -1.1121
 1016MOL0     C37036   5.662   0.820   8.371  0.4906  0.4863  0.5431
 1016MOL0     C37037   5.548   0.747   8.454 -0.4056 -0.7249 -0.0648
 1016MOL0     C37038   5.416   0.747   8.379 -1.2472 -0.5198  0.3851
 1016MOL0     C37039   5.295   0.694   8.463  0.0565  0.2313 -1.0822
 1016MOL0     C37040   5.157   0.738   8.407  0.5241  0.1682  0.3868
 1016MOL0     C37041   5.100   0.659   8.296  0.3261  0.2165 -0.0801
 1016MOL0     N37042   5.023   0.542   8.336 -0.2422  0.3212 -0.0270
 1016MOL0     C37043   4.890   0.538   8.382  0.1682  0.3810  0.2710
 1016MOL0     C37044   4.871   0.418   8.435  0.5036 -0.1726  0.0511
 1016MOL0     C37045   4.745   0.367   8.493 -0.1955 -0.2995  0.4799
 1016MOL0     C37046   4.658   0.321   8.381 -0.3519 -0.4278  0.1817
 1016MOL0     C37047   4.520   0.277   8.429 -0.4160  0.3646 -0.9040
 1016MOL0     C37048   4.424   0.239   8.323 -0.2526  0.4042  0.1815
 1016MOL0     O37049   4.386   0.352   8.253  0.4095 -0.2777  1.2379
 1016MOL0     C37050   4.307   0.316   8.143 -0.3344 -0.5275 -0.7017
 1016MOL0     C37051   4.370   0.291   8.016  0.6585 -0.8738 -0.6355
 1016MOL0     C37052   4.307   0.240   7.913 -0.4808  0.0127  0.2491
 1016MOL0     C37053   4.401   0.203   7.796  0.7203  0.4283 -0.3393
 1016MOL0     C37054   4.169   0.211   7.926  0.1333 -0.5857  0.9087
 1016MOL0     C37055   4.081   0.161   7.805 -0.1492  0.5096  0.0657
 1016MOL0     O37056   3.948   0.124   7.830  0.0300 -0.2327 -0.0984
 1016MOL0     C37057   3.850   0.119   7.735 -1.3782  0.8048 -0.2080
 1016MOL0     C37058   3.842   0.196   7.617 -0.2928 -1.2492  0.4425
 1016MOL0     C37059   3.730   0.187   7.528  1.0889  1.1593  0.7008
 1016MOL0     C37060   3.616   0.106   7.568  0.4329  0.7067  0.2124
 1016MOL0     O37061   3.497   0.092   7.491  0.1827 -0.4458 -0.0699
 1016MOL0     C37062   3.497   0.165   7.360 -0.0872 -0.0240 -0.1908
 1016MOL0     C37063   3.380   0.120   7.274 -0.1144 -0.1168  0.3917
 1016MOL0     C37064   3.252   0.108   7.352  0.0261 -1.0005 -0.0833
 1016MOL0     C37065   3.135   0.095   7.255  0.5225  0.4102 -1.0921
 1016MOL0     C37066   3.008   0.083   7.349 -0.4109  0.6328  0.6212
 1016MOL0     C37067   2.886   0.047   7.264 -0.0344  0.0266 -0.2215
 1016MOL0     C37068   2.767   0.011   7.359  0.2225  0.2907 -0.2621
 1016MOL0     C37069   2.742   0.105   7.470 -0.2010 -0.2925  0.2628
 1016MOL0    Cl37070   2.584   0.059   7.534 -0.3473 -0.0173 -0.1707
 1016MOL0     C37071   3.630   0.033   7.687  0.4975  0.3884 -1.0447
 1016MOL0     C37072   3.743   0.037   7.771  0.1351  0.1066  0.8764
 1016MOL0     O37073   4.130   0.165   7.695  0.0945  0.2090 -0.4657
 1016MOL0     C37074   4.101   0.247   8.043  0.4149  0.4204 -1.1003
 1016MOL0     C37075   4.166   0.294   8.148 -0.4664  0.1414 -0.5303
 1016MOL0     N37076   4.995   0.348   8.417  0.4308 -0.3373 -0.7517
 1016MOL0     N37077   5.078   0.421   8.359  0.6417  0.5332 -0.3118
 1016MOL0     C37078   6.274   0.749   8.378 -0.0445 -0.2691 -0.1270
 1016MOL0     C37079   6.400   0.784   8.316  0.7886 -0.6654 -0.6820
 1016MOL0     C37080   6.782   0.964   8.156  1.0118  1.2499  0.0107
 1016MOL0     C37081   6.916   0.920   8.181  0.3767  0.1505 -0.1050
 1016MOL0     C37082   7.015   0.964   8.110 -0.6273 -1.0317 -0.2437
 1016MOL0     C37083   6.995   1.058   8.015 -0.8724 -0.0991 -0.7928
 1016MOL0     O37084   7.106   1.099   7.948 -0.0528 -0.1178 -0.5254
 1016MOL0     C37085   7.096   1.196   7.845 -0.1860 -0.2176 -0.5485
 1016MOL0     C37086   7.231   1.230   7.775  1.2685  0.1363  0.4348
 1016MOL0     C37087   7.337   1.298   7.864  0.1916 -0.2074  0.5315
 1016MOL0     C37088   7.464   1.334   7.788 -0.3164  0.6498  0.3014
 1016MOL0     C37089   7.431   1.449   7.700 -0.5146  0.7951  0.4038
 1016MOL0     C37090   7.420   1.541   7.617  0.6154  0.4377 -0.5812
 1016MOL0     C37091   6.868   1.104   7.984  0.0351  0.2896  0.5974
 1016MOL0     C37092   6.761   1.058   8.056 -0.2827  0.0965  0.0838
 1016MOL0     H37093   6.309   1.078   8.187  0.2193  0.2468  0.0336
 1016MOL0     H37094   6.091   1.012   8.268 -1.8621 -3.9577 -2.4970
 1016MOL0     H37095   5.896   0.950   8.399 -0.9859  0.2284  1.0324
 1016MOL0     H37096   5.910   0.844   8.259 -1.2607 -1.9857  0.7064
 1016MOL0     H37097   5.800   0.668   8.431 -0.0924  0.4049 -1.8092
 1016MOL0     H37098   5.787   0.805   8.538 -0.1700 -2.9844 -0.1107
 1016MOL0     H37099   5.652   0.929   8.377  1.6644  0.7991 -1.9027
 1016MOL0     H37100   5.663   0.790   8.265 -1.2611  1.5215  0.1973
 1016MOL0     H37101   5.564   0.642   8.477 -3.2380 -0.6494  3.0905
 1016MOL0     H37102   5.526   0.798   8.548 -2.1292  0.6849 -1.1491
 1016MOL0     H37103   5.402   0.849   8.341  3.8602  0.8532  1.5050
 1016MOL0     H37104   5.437   0.680   8.295  2.6452 -0.7361  1.3622
 1016MOL0     H37105   5.306   0.591   8.496 -0.9555  1.3503  3.4266
 1016MOL0     H37106   5.296   0.751   8.557 -0.9182  0.8787 -1.4437
 1016MOL0     H37107   5.085   0.733   8.489  0.2243  0.5058  0.1485
 1016MOL0     H37108   5.166   0.841   8.372 -0.7347 -0.3785 -1.7148
 1016MOL0     H37109   5.178   0.617   8.231  0.3100 -1.8409  1.1256
 1016MOL0     H37110   5.041   0.725   8.232  1.3680  0.1394 -1.1786
 1016MOL0     H37111   4.822   0.621   8.367  0.8023  1.3587  2.3603
 1016MOL0     H37112   4.767   0.286   8.564 -0.7616 -0.2818  0.6805
 1016MOL0     H37113   4.703   0.459   8.535  0.6435  0.2800  0.0737
 1016MOL0     H37114   4.704   0.236   8.330  1.4234  1.4978 -1.6797
 1016MOL0     H37115   4.646   0.396   8.302 -3.6172 -0.3616  0.6012
 1016MOL0     H37116   4.480   0.361   8.487 -1.8586 -1.4539  0.8826
 1016MOL0     H37117   4.539   0.184   8.484  1.2115 -0.1055 -2.1768
 1016MOL0     H37118   4.345   0.182   8.371  1.5934 -0.7993  1.9405
 1016MOL0     H37119   4.473   0.171   8.253  0.2639 -0.6686  1.5502
 1016MOL0     H37120   4.476   0.316   8.005  0.9171 -0.3166  2.1697
 1016MOL0     H37121   4.489   0.268   7.784  1.2758 -0.5322 -1.7439
 1016MOL0     H37122   4.440   0.101   7.795  3.7508  1.4013  2.1088
 1016MOL0     H37123   4.349   0.228   7.703  0.7084 -1.4292 -0.8533
 1016MOL0     H37124   3.916   0.268   7.587 -0.5772 -2.0611 -2.5406
 1016MOL0     H37125   3.722   0.247   7.438 -0.9527  0.0214  0.0471
 1016MOL0     H37126   3.486   0.269   7.393 -1.7448 -0.1994 -0.0936
 1016MOL0     H37127   3.592   0.158   7.307 -0.3199 -2.7873 -0.3945
 1016MOL0     H37128   3.375   0.198   7.197 -1.6463 -0.4121  0.1447
 1016MOL0     H37129   3.384   0.029   7.214 -2.0816  0.9487 -1.5627
 1016MOL0     H37130   3.231   0.196   7.415  2.4819  0.1152 -0.6888
 1016MOL0     H37131   3.249   0.021   7.418  2.5776 -1.1376 -0.0583
 1016MOL0     H37132   3.135   0.180   7.186 -1.8580  2.2649  0.9841
 1016MOL0     H37133   3.127   0.005   7.193 -0.5278  0.0397 -0.4565
 1016MOL0     H37134   2.995   0.178   7.402  0.1725  1.0207  0.0873
 1016MOL0     H37135   3.025   0.008   7.427  3.8225  0.3273 -0.3955
 1016MOL0     H37136   2.862   0.131   7.198 -1.1013 -0.5634 -0.6181
 1016MOL0     H37137   2.909  -0.033   7.193 -2.3478  1.7064 -3.0930
 1016MOL0     H37138   2.789  -0.085   7.407  1.6103  2.2467  3.4470
 1016MOL0     H37139   2.669   0.011   7.310  1.1177 -0.1162 -2.1365
 1016MOL0     H37140   2.732   0.204   7.422  1.4675 -0.7774 -1.1958
 1016MOL0     H37141   2.821   0.122   7.543  1.0798 -0.0401 -1.1413
 1016MOL0     H37142   3.549  -0.033   7.716  1.3681 -1.1037 -1.8879
 1016MOL0     H37143   3.758  -0.029   7.855  2.5511 -1.1482 -0.4240
 1016MOL0     H37144   3.994   0.229   8.046  0.5313 -0.2548  1.3517
 1016MOL0     H37145   4.134   0.327   8.246 -4.2719 -3.5479 -0.2174
 1016MOL0     H37146   6.266   0.655   8.431  2.2462  0.8482  2.4174
 1016MOL0     H37147   6.485   0.719   8.337  1.0920  0.2742  1.2504
 1016MOL0     H37148   6.924   0.841   8.256  2.0303  0.4562  0.0634
 1016MOL0     H37149   7.114   0.925   8.131 -1.1730 -2.0172  0.5555
 1016MOL0     H37150   7.023   1.150   7.777 -2.7240 -0.2321  2.0017
 1016MOL0     H37151   7.049   1.284   7.890 -1.5990 -1.3659  0.2857
 1016MOL0     H37152   7.206   1.308   7.702 -1.8830 -2.2553 -1.3324
 1016MOL0     H37153   7.275   1.145   7.721 -0.2665  1.5235 -3.3164
 1016MOL0     H37154   7.362   1.224   7.940  1.2950 -0.9615 -0.5398
 1016MOL0     H37155   7.313   1.394   7.911  1.4905 -0.0830  0.9832
 1016MOL0     H37156   7.514   1.250   7.738 -0.7929  0.2262  0.5351
 1016MOL0     H37157   7.543   1.373   7.853  2.1648  0.3747 -2.3156
 1016MOL0     H37158   7.429   1.626   7.553 -1.2478  1.6743  0.6953
 1016MOL0     H37159   6.843   1.172   7.903  0.3643 -0.7562 -0.4041
 1016MOL0     H37160   6.660   1.096   8.050 -0.3567 -0.2372 -0.8498
 1017MOL0     O37161   0.841  10.113   7.967  0.3562 -0.4642 -0.0930
 1017MOL0     C37162   0.866  10.072   7.856 -0.2062 -0.3927 -0.0312
 1017MOL0     O37163   0.987  10.026   7.813  0.1985  0.2655  0.2130
 1017MOL0     C37164   1.074   9.991   7.909  0.5762 -0.0198 -0.8079
 1017MOL0     C37165   1.043   9.940   8.037 -0.0981  0.4396 -0.6266
 1017MOL0     C37166   1.144   9.897   8.121  0.1799 -0.3487  0.1414
 1017MOL0     C37167   1.276   9.918   8.092 -0.7952  0.1809 -0.4718
 1017MOL0     O37168   1.374   9.885   8.184 -0.1444 -0.5071 -0.1236
 1017MOL0     C37169   1.353   9.854   8.320 -0.5246 -0.0830 -0.4982
 1017MOL0     C37170   1.492   9.826   8.378  0.1758  0.1796 -0.5564
 1017MOL0     C37171   1.486   9.846   8.534  0.8896 -0.9627 -0.8748
 1017MOL0     C37172   1.596   9.769   8.593  0.1896 -0.1204 -0.5497
 1017MOL0     C37173   1.574   9.753   8.739 -0.3362 -0.4179 -0.4201
 1017MOL0     C37174   1.686   9.680   8.811  0.4759 -0.4191 -0.1248
 1017MOL0     C37175   1.665   9.689   8.970 -1.2257 -0.1218 -0.4148
 1017MOL0     C37176   1.568   9.577   9.013  0.4584  0.1280  0.2714
 1017MOL0     N37177   1.544   9.589   9.161  0.2652 -0.2069 -0.0362
 1017MOL0     C37178   1.424   9.629   9.212 -0.0561 -0.1624 -0.1915
 1017MOL0     C37179   1.447   9.607   9.343 -0.1039 -0.9748  0.3875
 1017MOL0     C37180   1.373   9.656   9.462 -0.3009  1.0716 -0.2694
 1017MOL0     C37181   1.303   9.549   9.550 -0.1026 -0.1255  0.2909
 1017MOL0     C37182   1.193   9.599   9.646 -0.4819 -0.2214  0.4951
 1017MOL0     C37183   1.056   9.640   9.590 -0.4977  0.3659  0.3959
 1017MOL0     O37184   1.075   9.772   9.536 -0.5753  0.5652  0.1620
 1017MOL0     C37185   0.954   9.833   9.532 -0.0793 -0.1980  0.1670
 1017MOL0     C37186   0.879   9.830   9.415 -0.7449 -0.1855 -0.0647
 1017MOL0     C37187   0.758   9.902   9.394 -0.4722 -0.9554 -0.4665
 1017MOL0     C37188   0.672   9.888   9.265  1.0969  0.2412 -0.0679
 1017MOL0     C37189   0.703   9.982   9.501  0.1803 -0.0974  0.1149
 1017MOL0     C37190   0.571  10.053   9.499  0.2740  0.2456 -0.4422
 1017MOL0     O37191   0.487  10.045   9.389 -0.1925 -0.5054 -0.4274
 1017MOL0     C37192   0.379  10.128   9.392 -0.5746 -0.3045 -0.1366
 1017MOL0     C37193   0.398  10.270   9.375  0.0901  0.4396 -0.0135
 1017MOL0     C37194   0.279  10.349   9.380 -0.5264 -0.4421  0.0280
 1017MOL0     C37195   0.156  10.294   9.418 -1.2016 -0.7019 -0.0334
 1017MOL0     O37196   0.051  10.383   9.431  0.2939  0.5704  0.3003
 1017MOL0     C37197   0.008  10.402   9.563 -0.0409  0.1293 -0.2549
 1017MOL0     C37198  -0.081  10.524   9.582  0.7908 -0.0826  0.2851
 1017MOL0     C37199  -0.201  10.508   9.494 -0.0052 -0.9025 -0.1396
 1017MOL0     C37200  -0.315  10.600   9.524 -0.1021 -0.0571  0.4300
 1017MOL0     C37201  -0.450  10.548   9.496 -0.5244 -0.3774 -0.9528
 1017MOL0     C37202  -0.482  10.538   9.345 -0.5865 -0.1986 -0.0006
 1017MOL0     C37203  -0.549  10.668   9.295  0.3987 -0.3320  0.3355
 1017MOL0     C37204  -0.589  10.673   9.150 -1.2018  0.6990 -0.7832
 1017MOL0    Cl37205  -0.659  10.826   9.113 -0.2210  0.0092 -0.3041
 1017MOL0     C37206   0.140  10.159   9.433 -1.0337  0.5703  0.8379
 1017MOL0     C37207   0.249  10.075   9.417  0.2385  0.2863  0.3841
 1017MOL0     O37208   0.556  10.113   9.598  0.3420 -0.1352 -0.5235
 1017MOL0     C37209   0.784   9.990   9.617  0.1564  0.3338  0.1735
 1017MOL0     C37210   0.906   9.917   9.628  0.0857 -0.6726  0.2623
 1017MOL0     N37211   1.564   9.536   9.361 -0.4817 -1.2579  0.3377
 1017MOL0     N37212   1.617   9.520   9.243  0.4997  0.5399 -0.8493
 1017MOL0     C37213   1.312   9.974   7.969 -1.2892  0.0274 -0.1144
 1017MOL0     C37214   1.209  10.008   7.876 -0.0008  0.4200 -0.0128
 1017MOL0     C37215   0.754  10.078   7.760  0.3370  0.3144  0.2955
 1017MOL0     C37216   0.616  10.103   7.796 -0.0606 -0.2868 -0.4627
 1017MOL0     C37217   0.513  10.099   7.704  0.5418 -0.0848  0.8357
 1017MOL0     C37218   0.541  10.058   7.572  0.3139 -0.0545  0.2518
 1017MOL0     O37219   0.438  10.041   7.480  0.0254 -0.2430 -0.7316
 1017MOL0     C37220   0.458   9.951   7.375  0.6782  0.2544  0.7015
 1017MOL0     C37221   0.329   9.919   7.304  0.5026 -0.3078  0.4897
 1017MOL0     C37222   0.334   9.805   7.197 -0.4075 -0.8969 -0.5778
 1017MOL0     C37223   0.345   9.873   7.062  0.6799 -0.2422 -0.1357
 1017MOL0     C37224   0.484   9.901   7.031  1.0036 -0.3677 -0.4707
 1017MOL0     C37225   0.595   9.929   6.998 -1.1576 -0.1308 -0.2931
 1017MOL0     C37226   0.672  10.037   7.537 -0.8276  0.5689  0.1219
 1017MOL0     C37227   0.782  10.042   7.628  0.5487  0.0624  0.6459
 1017MOL0     H37228   0.942   9.912   8.062 -0.0380  0.7669 -0.0023
 1017MOL0     H37229   1.121   9.840   8.210  3.1569  0.3145  1.4626
 1017MOL0     H37230   1.307   9.944   8.362 -0.5769 -0.8031  1.0547
 1017MOL0     H37231   1.276   9.778   8.333 -0.7360  0.0997 -0.6906
 1017MOL0     H37232   1.531   9.727   8.352 -0.9839  0.5028 -4.0830
 1017MOL0     H37233   1.568   9.898   8.346 -0.5302  1.1477 -0.1323
 1017MOL0     H37234   1.489   9.950   8.568  0.4881 -1.2097 -0.0605
 1017MOL0     H37235   1.386   9.812   8.562 -0.8908  2.3094 -2.6230
 1017MOL0     H37236   1.599   9.666   8.554  0.8141 -0.5294  0.5446
 1017MOL0     H37237   1.696   9.810   8.574  0.0445  1.7543  2.1671
 1017MOL0     H37238   1.556   9.849   8.789 -1.8511 -0.2273 -1.2814
 1017MOL0     H37239   1.485   9.691   8.747 -1.5740  1.1822 -1.2507
 1017MOL0     H37240   1.693   9.579   8.769 -1.4690 -0.7778  0.3286
 1017MOL0     H37241   1.774   9.740   8.783  1.5820 -0.8962  2.1327
 1017MOL0     H37242   1.764   9.680   9.016  0.3545  2.4287 -2.9585
 1017MOL0     H37243   1.623   9.788   8.992  0.4651  1.1985 -2.6615
 1017MOL0     H37244   1.616   9.480   9.007 -1.4013 -0.9041  1.1899
 1017MOL0     H37245   1.476   9.578   8.952  0.6812 -5.2770 -0.5824
 1017MOL0     H37246   1.337   9.678   9.168  0.9386 -0.4163 -2.6200
 1017MOL0     H37247   1.450   9.712   9.516  0.7009  0.5740 -1.1359
 1017MOL0     H37248   1.293   9.717   9.420 -0.1378  1.2736 -0.2882
 1017MOL0     H37249   1.379   9.489   9.601 -0.1063 -2.4696 -2.2491
 1017MOL0     H37250   1.261   9.480   9.477 -0.3893  1.4508 -1.0901
 1017MOL0     H37251   1.231   9.672   9.717  0.4431 -2.5596  2.5766
 1017MOL0     H37252   1.171   9.508   9.703 -3.2976 -0.4119 -0.7312
 1017MOL0     H37253   0.975   9.640   9.664  0.9355 -0.5522  2.0433
 1017MOL0     H37254   1.023   9.576   9.508  0.7094 -1.3007  1.1395
 1017MOL0     H37255   0.916   9.778   9.327 -0.3346  2.7006 -1.7152
 1017MOL0     H37256   0.573   9.843   9.277  0.5032  1.7931  1.1184
 1017MOL0     H37257   0.656   9.987   9.221 -0.4449  0.6519  1.3141
 1017MOL0     H37258   0.712   9.819   9.190 -0.4283  1.8964 -2.5591
 1017MOL0     H37259   0.500  10.307   9.365  1.3300 -2.8065 -0.7482
 1017MOL0     H37260   0.303  10.452   9.355 -1.5472  0.3084  1.9247
 1017MOL0     H37261  -0.046  10.312   9.593  0.0445 -0.7186 -2.4684
 1017MOL0     H37262   0.096  10.415   9.628  1.0210  2.0907 -1.9733
 1017MOL0     H37263  -0.101  10.535   9.689  0.1450  0.6943  0.0979
 1017MOL0     H37264  -0.032  10.619   9.560  0.1070  0.5175  1.2535
 1017MOL0     H37265  -0.238  10.405   9.492 -1.0282 -0.5669  0.5697
 1017MOL0     H37266  -0.172  10.536   9.393  2.4098  2.2337  1.2538
 1017MOL0     H37267  -0.307  10.612   9.633  1.2269  0.0401  0.3464
 1017MOL0     H37268  -0.301  10.701   9.486  0.6465  0.1995  1.3416
 1017MOL0     H37269  -0.530  10.602   9.547 -0.2700 -1.1437  0.3118
 1017MOL0     H37270  -0.460  10.449   9.542  0.2528  0.3196  0.8249
 1017MOL0     H37271  -0.393  10.529   9.282  0.6608 -1.0279  1.8032
 1017MOL0     H37272  -0.548  10.451   9.333 -1.3061  0.4030 -0.5019
 1017MOL0     H37273  -0.486  10.752   9.328 -0.4614 -0.0256  1.2490
 1017MOL0     H37274  -0.643  10.671   9.350 -0.3716 -0.0416 -0.9565
 1017MOL0     H37275  -0.661  10.591   9.140  0.1844 -0.4870 -1.2127
 1017MOL0     H37276  -0.504  10.655   9.083 -2.2823  3.4700 -3.1478
 1017MOL0     H37277   0.044  10.116   9.462 -0.3403 -1.8145 -0.1509
 1017MOL0     H37278   0.240   9.971   9.448 -2.1588  0.3414  0.0538
 1017MOL0     H37279   0.762  10.062   9.695  1.1295 -0.0345  0.7989
 1017MOL0     H37280   0.974   9.936   9.710  0.8902  1.5452 -0.8526
 1017MOL0     H37281   1.417   9.997   7.950 -2.0465  2.6347 -1.7084
 1017MOL0     H37282   1.228  10.050   7.778  0.4377 -0.6895 -0.4203
 1017MOL0     H37283   0.588  10.120   7.899  2.0303  1.6793 -0.1376
 1017MOL0     H37284   0.409  10.124   7.722  0.4145 -1.1726  1.7215
 1017MOL0     H37285   0.520   9.993   7.296  0.2350 -0.4674 -0.0521
 1017MOL0     H37286   0.497   9.856   7.414  0.3639  0.2599  1.0446
 1017MOL0     H37287   0.301  10.014   7.258 -0.9559  0.1585  2.1993
 1017MOL0     H37288   0.254   9.898   7.382  1.8840  1.9714  2.5993
 1017MOL0     H37289   0.240   9.750   7.197 -1.5751  1.0128 -0.6859
 1017MOL0     H37290   0.419   9.737   7.212 -1.1968 -1.7321  0.2246
 1017MOL0     H37291   0.280   9.960   7.053 -0.7993 -1.3739 -0.8184
 1017MOL0     H37292   0.306   9.818   6.976 -2.0987  0.0704  0.8194
 1017MOL0     H37293   0.690   9.947   6.952 -1.5375  1.1654 -0.6052
 1017MOL0     H37294   0.687  10.014   7.433 -1.8860  2.4468 -0.5023
 1017MOL0     H37295   0.884  10.025   7.598  0.9233  3.5799 -0.5200
 1018MOL0     O37296   8.911   1.163   4.584 -0.3264 -0.0904  0.0670
 1018MOL0     C37297   8.931   1.135   4.699  0.2630  0.4820 -0.4824
 1018MOL0     O37298   8.826   1.094   4.797  0.2559  0.4837 -0.1398
 1018MOL0     C37299   8.700   1.123   4.746 -0.7947  0.9054 -0.9636
 1018MOL0     C37300   8.640   1.246   4.771 -0.4771  0.2123  0.1342
 1018MOL0     C37301   8.506   1.267   4.752  0.4248  0.2472  0.0410
 1018MOL0     C37302   8.423   1.166   4.705 -0.3874  0.7861 -0.1349
 1018MOL0     O37303   8.289   1.173   4.675  0.4871 -0.4583 -0.5392
 1018MOL0     C37304   8.215   1.295   4.691 -0.5256 -0.2831  0.5290
 1018MOL0     C37305   8.074   1.268   4.639 -0.5024 -0.0855 -0.3651
 1018MOL0     C37306   8.024   1.407   4.589  0.3674 -0.0860  0.3798
 1018MOL0     C37307   7.873   1.413   4.598  1.1503  0.4864 -0.4939
 1018MOL0     C37308   7.792   1.287   4.550  0.2977  0.9025 -0.3170
 1018MOL0     C37309   7.638   1.310   4.563 -0.4731 -0.3280  0.1214
 1018MOL0     C37310   7.561   1.182   4.599 -0.0047 -0.2164  0.4193
 1018MOL0     C37311   7.407   1.204   4.596 -0.4343 -0.0888 -0.6190
 1018MOL0     N37312   7.323   1.094   4.633  0.6457 -0.5512 -0.0520
 1018MOL0     C37313   7.186   1.099   4.643  0.6592  0.3555  0.3890
 1018MOL0     C37314   7.160   0.979   4.703  0.1120  0.5458  1.0981
 1018MOL0     C37315   7.014   0.946   4.728 -0.7225  0.9177  0.0074
 1018MOL0     C37316   6.986   0.807   4.674 -0.2022  0.6109  0.1708
 1018MOL0     C37317   7.049   0.689   4.757  0.9452 -0.1655  0.4050
 1018MOL0     C37318   6.991   0.550   4.733  0.1384 -0.2309 -0.2854
 1018MOL0     O37319   6.844   0.561   4.734  0.1224 -0.5689  0.0729
 1018MOL0     C37320   6.771   0.448   4.699  0.1203 -0.5016 -0.4339
 1018MOL0     C37321   6.626   0.460   4.701 -0.4914 -0.3096 -0.6010
 1018MOL0     C37322   6.545   0.358   4.665  0.7863 -0.5001  0.0596
 1018MOL0     C37323   6.393   0.385   4.665 -0.2281  0.0350 -0.1918
 1018MOL0     C37324   6.594   0.245   4.614  0.0730  0.6629  0.6120
 1018MOL0     C37325   6.520   0.127   4.568  0.0689  0.1870  0.1861
 1018MOL0     O37326   6.524   0.105   4.433 -0.2587 -0.2001  0.4953
 1018MOL0     C37327   6.442   0.008   4.372  0.3925 -0.2281  0.0936
 1018MOL0     C37328   6.318  -0.034   4.421  0.5040  0.0721 -0.1153
 1018MOL0     C37329   6.249  -0.133   4.355  0.5800  0.0508  0.7294
 1018MOL0     C37330   6.303  -0.188   4.238 -0.3692  0.9631 -0.5648
 1018MOL0     O37331   6.244  -0.289   4.164  0.6034  0.1142 -0.2829
 1018MOL0     C37332   6.103  -0.320   4.201  0.3198 -0.4191  0.9224
 1018MOL0     C37333   6.047  -0.423   4.104 -0.1099 -0.4867 -0.1537
 1018MOL0     C37334   5.901  -0.440   4.117 -0.0083  0.5193 -0.3752
 1018MOL0     C37335   5.832  -0.339   4.025  0.1149  0.2122  0.4379
 1018MOL0     C37336   5.684  -0.358   4.043 -0.6732  0.0084 -0.3515
 1018MOL0     C37337   5.612  -0.239   3.993 -0.1156  0.0963  0.3673
 1018MOL0     C37338   5.459  -0.250   4.020 -0.4304 -0.0895 -0.4490
 1018MOL0     C37339   5.370  -0.153   3.940  0.9805 -0.5454  0.0450
 1018MOL0    Cl37340   5.372  -0.175   3.775 -0.8729  0.0568  0.1311
 1018MOL0     C37341   6.427  -0.146   4.194  1.3293  0.1395  0.0067
 1018MOL0     C37342   6.503  -0.051   4.259  0.3637  0.5356  0.0213
 1018MOL0     O37343   6.465   0.056   4.651  0.3768 -0.6566 -0.6826
 1018MOL0     C37344   6.734   0.225   4.607  0.0575 -0.0980 -0.5430
 1018MOL0     C37345   6.822   0.329   4.647 -0.3025  0.0270  0.6596
 1018MOL0     N37346   7.273   0.903   4.722 -0.3670 -0.6785 -0.1673
 1018MOL0     N37347   7.368   0.974   4.681 -0.2252  0.3296  0.0088
 1018MOL0     C37348   8.482   1.042   4.677  0.8961  0.0457  0.3939
 1018MOL0     C37349   8.622   1.019   4.694  0.0988 -0.9658 -0.6139
 1018MOL0     C37350   9.068   1.137   4.756 -0.0239  1.2504 -0.2836
 1018MOL0     C37351   9.173   1.166   4.671 -0.8223 -0.0471  0.6582
 1018MOL0     C37352   9.300   1.188   4.724  0.3411  0.3885  0.2272
 1018MOL0     C37353   9.329   1.171   4.854  0.6119  0.4161  0.1311
 1018MOL0     O37354   9.455   1.212   4.896 -0.5714  0.0911 -0.2116
 1018MOL0     C37355   9.543   1.119   4.972 -0.0856 -0.8446 -0.6803
 1018MOL0     C37356   9.584   0.989   4.899 -0.5203  0.6521  0.4721
 1018MOL0     C37357   9.696   1.000   4.794 -0.5824 -0.9574 -0.3222
 1018MOL0     C37358   9.677   1.117   4.692  0.8993  0.3614  0.2660
 1018MOL0     C37359   9.788   1.139   4.607  0.0969 -0.1715  0.3305
 1018MOL0     C37360   9.889   1.134   4.537  0.0702 -0.6116 -0.5029
 1018MOL0     C37361   9.229   1.133   4.944 -0.0022 -0.4533 -0.5063
 1018MOL0     C37362   9.100   1.110   4.892  0.3121  0.3627  0.8241
 1018MOL0     H37363   8.695   1.326   4.820  0.1256 -0.4006  0.4713
 1018MOL0     H37364   8.456   1.357   4.787 -0.2317  1.0495 -2.7437
 1018MOL0     H37365   8.202   1.346   4.786 -2.2340  4.5849 -1.9703
 1018MOL0     H37366   8.273   1.369   4.635 -0.0104 -0.8224  0.3376
 1018MOL0     H37367   8.061   1.193   4.561 -0.2344 -0.3566 -0.1540
 1018MOL0     H37368   8.017   1.232   4.725 -0.1298 -0.7993 -0.4060
 1018MOL0     H37369   8.058   1.494   4.646  1.4185  1.1848 -2.0370
 1018MOL0     H37370   8.057   1.418   4.486 -2.0433 -1.5594 -0.6424
 1018MOL0     H37371   7.842   1.438   4.700 -0.4163  0.7559 -1.0017
 1018MOL0     H37372   7.841   1.503   4.546  0.9558  1.0839  0.6283
 1018MOL0     H37373   7.817   1.277   4.445 -0.4176  2.6489 -0.6756
 1018MOL0     H37374   7.824   1.192   4.595  1.5328  0.5386 -1.9041
 1018MOL0     H37375   7.613   1.384   4.640  0.8780 -1.2411  1.5154
 1018MOL0     H37376   7.611   1.345   4.463 -2.9222  0.3865  0.9748
 1018MOL0     H37377   7.601   1.102   4.536 -1.0800  0.7438 -1.5874
 1018MOL0     H37378   7.590   1.152   4.700 -2.4923  0.1265  1.3224
 1018MOL0     H37379   7.374   1.243   4.499 -1.7706  0.6348  0.1015
 1018MOL0     H37380   7.393   1.281   4.672  2.1414  0.2491 -0.3984
 1018MOL0     H37381   7.116   1.177   4.614  1.0978  1.3742  1.9710
 1018MOL0     H37382   6.987   0.938   4.834 -2.4783 -2.8798 -0.5722
 1018MOL0     H37383   6.953   1.017   4.672 -0.6504  0.5022 -0.6008
 1018MOL0     H37384   7.007   0.787   4.568  3.5455 -2.5482  1.2967
 1018MOL0     H37385   6.878   0.807   4.688 -0.3787  2.9279 -0.6434
 1018MOL0     H37386   7.043   0.711   4.864 -0.2124 -0.9998  0.5299
 1018MOL0     H37387   7.152   0.679   4.723  0.6521  1.2098 -1.0132
 1018MOL0     H37388   7.027   0.486   4.815  0.4456  1.6969  1.1551
 1018MOL0     H37389   7.021   0.510   4.636 -1.2897 -0.4004 -0.6761
 1018MOL0     H37390   6.587   0.550   4.747  0.7952  0.7328 -1.4743
 1018MOL0     H37391   6.378   0.486   4.703  2.4755  0.6387 -0.5341
 1018MOL0     H37392   6.353   0.370   4.564 -0.0093 -0.4251 -0.2113
 1018MOL0     H37393   6.341   0.308   4.724  2.7862 -1.1448  1.1313
 1018MOL0     H37394   6.278   0.004   4.515  2.7656  2.9385 -0.1743
 1018MOL0     H37395   6.149  -0.159   4.389 -0.6506  1.4759 -1.5564
 1018MOL0     H37396   6.089  -0.361   4.301  1.1704 -1.8060  0.5151
 1018MOL0     H37397   6.042  -0.231   4.184  0.1282 -0.9464 -1.7476
 1018MOL0     H37398   6.077  -0.394   4.002  1.0312 -3.9941 -0.9509
 1018MOL0     H37399   6.106  -0.515   4.114 -0.1727 -0.4517  0.5911
 1018MOL0     H37400   5.873  -0.424   4.222 -1.0011  0.7532 -0.6759
 1018MOL0     H37401   5.869  -0.538   4.080 -1.6485  1.3758 -1.2834
 1018MOL0     H37402   5.861  -0.238   4.055  2.3831 -0.1140 -0.5155
 1018MOL0     H37403   5.860  -0.349   3.920  0.0591 -3.5661  0.6481
 1018MOL0     H37404   5.673  -0.388   4.148  2.3200 -0.7987 -0.1880
 1018MOL0     H37405   5.644  -0.448   3.995 -3.6269  1.3726 -0.6509
 1018MOL0     H37406   5.644  -0.148   4.044 -0.8691 -0.7061  2.3873
 1018MOL0     H37407   5.626  -0.227   3.885  2.6287 -1.1829  0.5202
 1018MOL0     H37408   5.432  -0.241   4.125  1.4943  1.0276 -0.0165
 1018MOL0     H37409   5.432  -0.342   3.967  0.4547 -1.9183  2.0841
 1018MOL0     H37410   5.417  -0.055   3.950  2.4924 -0.9801 -2.1395
 1018MOL0     H37411   5.269  -0.165   3.981  0.1132  0.8234 -1.5827
 1018MOL0     H37412   6.464  -0.200   4.106  0.4874 -1.8618  0.8099
 1018MOL0     H37413   6.607  -0.032   4.235  0.7217 -0.3357  0.8280
 1018MOL0     H37414   6.782   0.135   4.569  1.2679 -0.3246  1.4080
 1018MOL0     H37415   6.925   0.305   4.624 -0.9618 -1.1497 -1.2820
 1018MOL0     H37416   8.426   0.964   4.625  2.7262 -3.0394  2.6871
 1018MOL0     H37417   8.665   0.921   4.679 -1.2878 -1.3737 -2.2101
 1018MOL0     H37418   9.164   1.183   4.564 -1.5277  0.4209  0.7884
 1018MOL0     H37419   9.369   1.217   4.646 -0.7228  0.8943 -0.5456
 1018MOL0     H37420   9.623   1.185   5.006 -1.7887  2.4635 -2.5919
 1018MOL0     H37421   9.496   1.090   5.066  0.3777 -3.4468 -1.1916
 1018MOL0     H37422   9.496   0.948   4.850  0.2013  0.0190 -0.3098
 1018MOL0     H37423   9.604   0.908   4.970 -1.8472  0.6989  0.9228
 1018MOL0     H37424   9.699   0.907   4.735  0.0029  1.6954 -4.9036
 1018MOL0     H37425   9.800   1.000   4.828 -0.6452 -1.2583 -0.1143
 1018MOL0     H37426   9.655   1.213   4.738  1.1813  0.3080  0.5109
 1018MOL0     H37427   9.591   1.102   4.627  2.8403  1.1084 -2.6967
 1018MOL0     H37428   9.987   1.127   4.494  0.5533  0.5643  0.3428
 1018MOL0     H37429   9.250   1.115   5.049  0.5011  0.3838 -0.4578
 1018MOL0     H37430   9.030   1.077   4.968  1.4642 -2.1976  0.8925
 1019MOL0     O37431   3.147   2.011   7.307  0.6786  0.0977 -0.8388
 1019MOL0     C37432   3.125   1.970   7.419  0.6626  0.5534  0.7797
 1019MOL0     O37433   3.001   1.955   7.478  0.2396 -0.1026  0.3485
 1019MOL0     C37434   2.887   2.022   7.436  0.1044 -0.5468  0.1234
 1019MOL0     C37435   2.900   2.159   7.415 -0.4268 -0.1017  0.0019
 1019MOL0     C37436   2.782   2.221   7.372  0.2327 -0.5628 -1.0396
 1019MOL0     C37437   2.663   2.157   7.360 -0.1256  0.5700 -0.1016
 1019MOL0     O37438   2.551   2.223   7.318  0.6651 -0.3536 -0.2803
 1019MOL0     C37439   2.538   2.359   7.368  0.8745 -0.5807  0.5168
 1019MOL0     C37440   2.400   2.413   7.358 -0.4552  0.5182  0.9431
 1019MOL0     C37441   2.334   2.392   7.219 -0.1323 -0.4313 -0.8042
 1019MOL0     C37442   2.197   2.470   7.199  0.0771 -0.3613  0.0043
 1019MOL0     C37443   2.100   2.410   7.095 -0.8368  0.1370 -0.7371
 1019MOL0     C37444   1.948   2.448   7.108 -0.3844 -0.5939  0.4387
 1019MOL0     C37445   1.928   2.602   7.097 -0.3184 -0.7144 -0.5111
 1019MOL0     C37446   1.777   2.646   7.102  0.6705  0.2917 -0.2445
 1019MOL0     N37447   1.700   2.605   7.220 -0.8548 -0.2311 -0.5484
 1019MOL0     C37448   1.676   2.692   7.330  0.6997  0.0522 -0.4511
 1019MOL0     C37449   1.620   2.611   7.420  0.5572 -0.4901  0.1317
 1019MOL0     C37450   1.573   2.645   7.561 -0.0263  0.0216 -0.5418
 1019MOL0     C37451   1.421   2.660   7.573  0.3471  0.0354 -0.0802
 1019MOL0     C37452   1.393   2.738   7.701  0.4260  0.0729 -0.9387
 1019MOL0     C37453   1.245   2.746   7.729 -0.2709  0.3711 -0.9906
 1019MOL0     O37454   1.212   2.854   7.820 -0.2254  0.0735 -0.8453
 1019MOL0     C37455   1.086   2.904   7.826  0.0699  0.1422 -0.6892
 1019MOL0     C37456   0.969   2.839   7.779  0.0430 -0.5327  0.7592
 1019MOL0     C37457   0.843   2.891   7.792  0.9248  1.1641  0.0130
 1019MOL0     C37458   0.734   2.809   7.735  0.5742  0.2020 -0.1346
 1019MOL0     C37459   0.823   3.014   7.856 -0.0561 -0.2955  0.2830
 1019MOL0     C37460   0.692   3.087   7.876 -0.5268 -0.1756  0.4648
 1019MOL0     O37461   0.698   3.211   7.936  0.3221 -0.2506  0.4114
 1019MOL0     C37462   0.584   3.289   7.965 -0.2356  0.1085 -0.3021
 1019MOL0     C37463   0.463   3.281   7.893 -0.2333  0.4212 -0.4337
 1019MOL0     C37464   0.361   3.373   7.913  0.8034  0.5405  0.2834
 1019MOL0     C37465   0.361   3.469   8.019 -0.0524 -0.1014  0.6626
 1019MOL0     O37466   0.260   3.560   8.024  0.4638 -0.2350 -0.3970
 1019MOL0     C37467   0.261   3.679   8.102 -0.3548 -0.1708  0.4643
 1019MOL0     C37468   0.156   3.680   8.211  0.1894  0.1004 -0.0394
 1019MOL0     C37469   0.028   3.615   8.161  1.2831 -0.1903  0.7766
 1019MOL0     C37470  -0.077   3.614   8.274  0.5337 -0.1318  0.3064
 1019MOL0     C37471  -0.222   3.623   8.201  0.2036 -0.3621 -0.3144
 1019MOL0     C37472  -0.331   3.627   8.305 -1.0221 -0.2890 -0.8183
 1019MOL0     C37473  -0.472   3.634   8.244 -0.6999  0.6156 -0.1279
 1019MOL0     C37474  -0.572   3.607   8.350  0.8524  0.6439  0.0880
 1019MOL0    Cl37475  -0.737   3.629   8.280 -0.3018 -0.1069 -0.2592
 1019MOL0     C37476   0.471   3.460   8.110  0.2648 -0.3797  0.2816
 1019MOL0     C37477   0.580   3.373   8.079 -0.1299  0.6236 -0.5757
 1019MOL0     O37478   0.592   3.015   7.871 -0.1541  0.1427 -0.0592
 1019MOL0     C37479   0.935   3.084   7.907  0.9075 -0.3632  0.4960
 1019MOL0     C37480   1.064   3.026   7.892  0.4548  0.5700 -0.3426
 1019MOL0     N37481   1.596   2.489   7.362  0.0527 -0.2152  0.1740
 1019MOL0     N37482   1.642   2.487   7.240 -0.2051 -0.0237 -0.1251
 1019MOL0     C37483   2.650   2.022   7.388 -0.2825  0.6993  0.4873
 1019MOL0     C37484   2.769   1.957   7.422  0.0149  0.9579  0.2612
 1019MOL0     C37485   3.250   1.941   7.500  0.1401  0.1990 -0.4429
 1019MOL0     C37486   3.240   1.917   7.640  0.0211 -0.4405 -0.2794
 1019MOL0     C37487   3.354   1.907   7.726  0.4831  0.5078 -0.7509
 1019MOL0     C37488   3.482   1.908   7.660  0.1783  0.6523 -0.7696
 1019MOL0     O37489   3.605   1.892   7.716 -0.0241  0.0715  0.1240
 1019MOL0     C37490   3.617   1.812   7.834  0.1708 -0.0763  0.1124
 1019MOL0     C37491   3.762   1.812   7.892  1.6790  0.2985 -0.5541
 1019MOL0     C37492   3.781   1.910   8.006  0.0275 -0.7327  0.3501
 1019MOL0     C37493   3.826   2.058   7.956 -0.1605  0.4476 -0.2624
 1019MOL0     C37494   3.818   2.154   8.072  0.4433  0.2028 -0.4851
 1019MOL0     C37495   3.810   2.220   8.178 -0.2455  0.9475 -0.2454
 1019MOL0     C37496   3.488   1.920   7.524 -0.4799  0.2070  0.3781
 1019MOL0     C37497   3.377   1.934   7.439  0.2546 -0.0347  0.2965
 1019MOL0     H37498   2.997   2.206   7.428 -0.8456  0.2097  2.8842
 1019MOL0     H37499   2.802   2.325   7.350  2.4537 -0.8693 -0.6600
 1019MOL0     H37500   2.568   2.360   7.473 -1.3463 -2.9614  1.3094
 1019MOL0     H37501   2.598   2.432   7.314 -3.4989  0.9592 -2.8469
 1019MOL0     H37502   2.336   2.358   7.429 -1.9173 -2.8345 -2.5483
 1019MOL0     H37503   2.400   2.521   7.373 -0.2327  0.2770  2.9096
 1019MOL0     H37504   2.404   2.415   7.138  2.1329 -0.8248  0.9394
 1019MOL0     H37505   2.328   2.283   7.214  3.6717 -0.7697 -0.5835
 1019MOL0     H37506   2.148   2.477   7.296  0.7308 -0.0794  0.3170
 1019MOL0     H37507   2.225   2.571   7.168 -1.1589  0.2130  0.6788
 1019MOL0     H37508   2.131   2.439   6.994 -3.0625 -0.3203 -1.6243
 1019MOL0     H37509   2.106   2.301   7.094  1.6449  0.2335 -0.6056
 1019MOL0     H37510   1.906   2.400   7.019 -1.3780  1.5368 -0.3042
 1019MOL0     H37511   1.900   2.414   7.199 -0.0405  2.4266  1.8849
 1019MOL0     H37512   1.982   2.650   7.179 -1.5806  0.8708 -0.5558
 1019MOL0     H37513   1.973   2.646   7.008  1.7796  1.9582  1.6852
 1019MOL0     H37514   1.727   2.607   7.012  1.9374 -0.4001 -0.6843
 1019MOL0     H37515   1.765   2.754   7.087 -1.2612 -0.1513 -2.5618
 1019MOL0     H37516   1.713   2.794   7.336  1.2329 -0.0539 -1.7750
 1019MOL0     H37517   1.606   2.564   7.626  0.3188 -1.1580 -2.1224
 1019MOL0     H37518   1.618   2.744   7.579  1.4583 -0.1545 -2.8442
 1019MOL0     H37519   1.384   2.558   7.586 -0.6116  0.2071 -1.2579
 1019MOL0     H37520   1.380   2.698   7.479  1.9937  1.6002 -0.2128
 1019MOL0     H37521   1.422   2.843   7.692 -0.3194  0.3296 -0.4391
 1019MOL0     H37522   1.449   2.697   7.786 -0.4569  1.3475  0.3088
 1019MOL0     H37523   1.214   2.651   7.774 -1.9386  0.7360 -1.3201
 1019MOL0     H37524   1.185   2.764   7.640 -1.8311  0.5237  0.0559
 1019MOL0     H37525   0.981   2.750   7.718  0.4459  0.0221 -0.0017
 1019MOL0     H37526   0.713   2.724   7.802  3.2540 -0.0319  0.4988
 1019MOL0     H37527   0.642   2.862   7.708  1.2656  0.5154 -1.9804
 1019MOL0     H37528   0.751   2.763   7.637 -2.4394 -0.6573 -0.3509
 1019MOL0     H37529   0.443   3.198   7.826 -0.2538 -1.0692  1.3560
 1019MOL0     H37530   0.275   3.380   7.848  0.3431  1.9714  1.0032
 1019MOL0     H37531   0.359   3.695   8.146 -1.0582 -0.2079  2.1284
 1019MOL0     H37532   0.238   3.768   8.044  0.5190  1.6368  2.7240
 1019MOL0     H37533   0.195   3.633   8.302 -3.2643  0.4661  1.8068
 1019MOL0     H37534   0.134   3.786   8.225 -1.4181  0.4359 -3.9198
 1019MOL0     H37535   0.042   3.518   8.112  0.7163  0.0891  0.0505
 1019MOL0     H37536  -0.020   3.676   8.085  0.8441 -0.4769  0.8187
 1019MOL0     H37537  -0.069   3.525   8.337  1.3122 -0.1677  0.1614
 1019MOL0     H37538  -0.071   3.709   8.328  3.2171 -0.1006  0.0618
 1019MOL0     H37539  -0.224   3.536   8.135  1.4436  0.5919 -1.6706
 1019MOL0     H37540  -0.236   3.715   8.143  0.5936  1.3081  2.0863
 1019MOL0     H37541  -0.335   3.533   8.362 -1.2530  1.7131  2.7994
 1019MOL0     H37542  -0.312   3.705   8.379 -1.4149 -1.0810  0.1476
 1019MOL0     H37543  -0.483   3.564   8.160 -1.6037 -0.2918  0.7132
 1019MOL0     H37544  -0.483   3.733   8.199 -2.1794  0.0225 -1.1698
 1019MOL0     H37545  -0.547   3.667   8.438  1.1580  1.4825 -0.5565
 1019MOL0     H37546  -0.563   3.503   8.384 -0.2614  0.4374 -0.2329
 1019MOL0     H37547   0.475   3.520   8.200 -0.6371 -1.3489  0.9902
 1019MOL0     H37548   0.676   3.383   8.129  1.3999 -1.1555 -2.9684
 1019MOL0     H37549   0.924   3.183   7.949  2.9082 -0.2715  0.8972
 1019MOL0     H37550   1.148   3.074   7.940 -2.1374  2.3800  2.8239
 1019MOL0     H37551   2.555   1.970   7.390 -0.2241  0.5772  0.1542
 1019MOL0     H37552   2.768   1.853   7.450  0.3231  1.1136  0.8582
 1019MOL0     H37553   3.146   1.910   7.694  1.7366  0.7807  3.1686
 1019MOL0     H37554   3.339   1.891   7.832 -1.6376 -1.6792 -1.2800
 1019MOL0     H37555   3.540   1.846   7.904  1.1808  0.8775  0.8047
 1019MOL0     H37556   3.591   1.707   7.822  0.4226 -0.5391  2.8203
 1019MOL0     H37557   3.836   1.829   7.813  0.6139 -1.4071 -2.0243
 1019MOL0     H37558   3.777   1.712   7.932  1.9908  0.7861  0.5824
 1019MOL0     H37559   3.860   1.886   8.078 -0.1897 -0.5686  0.6424
 1019MOL0     H37560   3.696   1.914   8.074 -0.2053 -0.8370  0.0665
 1019MOL0     H37561   3.763   2.093   7.873 -4.1416  2.0935  3.0486
 1019MOL0     H37562   3.931   2.052   7.928  0.6211 -0.4046  2.6118
 1019MOL0     H37563   3.801   2.271   8.272  3.6221  3.6324 -1.0975
 1019MOL0     H37564   3.588   1.931   7.483 -0.6219 -1.8498 -0.6685
 1019MOL0     H37565   3.395   1.960   7.335 -0.0725  1.4286  0.5827
 1020MOL0     O37566   9.874  10.349   1.672 -0.4144 -0.1756  0.2577
 1020MOL0     C37567   9.834  10.417   1.765 -0.1018 -0.2822  0.1170
 1020MOL0     O37568   9.698  10.440   1.802  0.1163 -0.1688  0.0687
 1020MOL0     C37569   9.582  10.414   1.727  0.4004 -0.1697 -0.3186
 1020MOL0     C37570   9.472  10.381   1.802 -0.3146  0.0432  0.6196
 1020MOL0     C37571   9.358  10.350   1.740  0.5982  0.3242  1.1041
 1020MOL0     C37572   9.346  10.356   1.598 -0.8277  0.4585  0.2538
 1020MOL0     O37573   9.227  10.326   1.536 -0.2917  0.2298  0.1747
 1020MOL0     C37574   9.210  10.196   1.479 -0.0581 -0.2803 -0.7565
 1020MOL0     C37575   9.071  10.163   1.488 -0.2313  0.0595  0.1533
 1020MOL0     C37576   9.007  10.145   1.627 -0.1254 -1.6147  0.6707
 1020MOL0     C37577   8.942  10.275   1.676 -0.2166 -0.0574  0.3168
 1020MOL0     C37578   8.788  10.278   1.652  0.4592  0.0425  0.2864
 1020MOL0     C37579   8.715  10.401   1.714  0.1853 -0.3342  0.5129
 1020MOL0     C37580   8.582  10.421   1.655 -0.0673 -0.2652  0.4634
 1020MOL0     C37581   8.515  10.553   1.710  0.8694  0.9386 -0.1794
 1020MOL0     N37582   8.374  10.558   1.685 -0.7007  0.8835  0.7555
 1020MOL0     C37583   8.295  10.669   1.703 -0.2022 -0.5575  0.4294
 1020MOL0     C37584   8.170  10.637   1.650  0.3104  0.0775  0.0555
 1020MOL0     C37585   8.042  10.718   1.656 -0.0237  0.9198 -0.6751
 1020MOL0     C37586   7.935  10.687   1.549 -0.6920 -1.0509 -0.2987
 1020MOL0     C37587   7.984  10.749   1.410 -0.2372  0.6463  0.1130
 1020MOL0     C37588   7.896  10.709   1.294  0.2658 -0.3193  1.0248
 1020MOL0     O37589   7.760  10.721   1.327 -0.4980  0.8893 -0.5994
 1020MOL0     C37590   7.662  10.689   1.239  0.0650 -0.1673  1.9375
 1020MOL0     C37591   7.536  10.745   1.257  1.0991 -0.4347  0.2482
 1020MOL0     C37592   7.434  10.712   1.173  0.5093  0.0566 -0.3025
 1020MOL0     C37593   7.308  10.793   1.199 -0.6903 -0.5836 -0.6037
 1020MOL0     C37594   7.458  10.628   1.059 -0.5034 -0.8689  0.1726
 1020MOL0     C37595   7.347  10.591   0.964  0.6275 -0.3580 -0.5917
 1020MOL0     O37596   7.374  10.521   0.851 -0.1584 -0.1726  0.5574
 1020MOL0     C37597   7.288  10.523   0.741 -0.1174 -0.3091 -0.4725
 1020MOL0     C37598   7.181  10.437   0.737 -0.3070 -0.3303 -0.3963
 1020MOL0     C37599   7.112  10.432   0.610  0.0668 -0.3842  0.0267
 1020MOL0     C37600   7.150  10.506   0.498  0.1846  0.2925  0.5335
 1020MOL0     O37601   7.093  10.489   0.375  0.5180  0.2438 -0.8464
 1020MOL0     C37602   7.021  10.607   0.331 -0.1435 -0.8867 -0.2129
 1020MOL0     C37603   6.866  10.610   0.355  0.2283 -0.7789 -0.3528
 1020MOL0     C37604   6.795  10.505   0.267 -0.2120 -0.0524  0.8883
 1020MOL0     C37605   6.644  10.527   0.240  0.0844  0.4534  0.3461
 1020MOL0     C37606   6.582  10.421   0.147  0.0642 -0.0443 -0.4727
 1020MOL0     C37607   6.427  10.432   0.137  0.8442 -0.4708  0.1406
 1020MOL0     C37608   6.374  10.350   0.018 -0.5053  0.1258  0.1343
 1020MOL0     C37609   6.228  10.332  -0.003  0.3149  0.3162  0.1311
 1020MOL0    Cl37610   6.165  10.165  -0.013 -0.0594  0.4677 -0.0362
 1020MOL0     C37611   7.249  10.596   0.518 -0.3481 -0.1249 -0.4118
 1020MOL0     C37612   7.311  10.614   0.646 -0.8738  0.1953  0.7832
 1020MOL0     O37613   7.235  10.627   0.990 -0.2982  0.0930  0.0752
 1020MOL0     C37614   7.587  10.586   1.035  0.0845 -0.3437  0.1660
 1020MOL0     C37615   7.694  10.618   1.121 -0.3627 -0.5292 -0.3964
 1020MOL0     N37616   8.176  10.505   1.601 -0.2713  0.3262  0.2883
 1020MOL0     N37617   8.296  10.458   1.636  0.4934  0.1835 -0.4572
 1020MOL0     C37618   9.457  10.381   1.521 -0.5164  0.3656 -0.0414
 1020MOL0     C37619   9.571  10.406   1.589 -0.4607  0.3350 -0.1014
 1020MOL0     C37620   9.939  10.469   1.855  0.0389 -0.1893 -0.1887
 1020MOL0     C37621   9.912  10.559   1.965  0.5027 -0.7278  0.4815
 1020MOL0     C37622  10.007  10.575   2.062 -0.9384 -0.8469  0.0282
 1020MOL0     C37623  10.137  10.531   2.051  0.4608  0.2011  0.4844
 1020MOL0     O37624  10.220  10.561   2.156 -0.6454  0.5382  0.7596
 1020MOL0     C37625  10.344  10.490   2.163 -0.7999 -0.0069 -0.2504
 1020MOL0     C37626  10.440  10.529   2.283  0.1333 -0.8716 -0.3517
 1020MOL0     C37627  10.484  10.674   2.271  1.2031 -1.2746  0.0898
 1020MOL0     C37628  10.583  10.696   2.153  0.3463 -0.3381  0.0406
 1020MOL0     C37629  10.634  10.836   2.151 -0.9593  0.1954  0.2412
 1020MOL0     C37630  10.690  10.949   2.161  0.5301  0.3734 -0.3344
 1020MOL0     C37631  10.171  10.440   1.952 -0.0540  0.1381 -0.7224
 1020MOL0     C37632  10.072  10.414   1.855  0.5746  0.0341 -0.4280
 1020MOL0     H37633   9.481  10.383   1.910 -1.0582 -1.1907  0.7177
 1020MOL0     H37634   9.275  10.326   1.806  1.3226 -1.9497  1.2912
 1020MOL0     H37635   9.256  10.204   1.380  4.7075 -1.8156  1.0596
 1020MOL0     H37636   9.274  10.125   1.530  1.2400  2.0831  1.1246
 1020MOL0     H37637   9.009  10.227   1.425 -0.4412  0.3445  0.6496
 1020MOL0     H37638   9.069  10.069   1.431 -0.2892  0.0520  0.1672
 1020MOL0     H37639   8.934  10.065   1.641 -0.2052 -1.0499  5.3138
 1020MOL0     H37640   9.088  10.139   1.700 -0.4062  0.9343  1.2872
 1020MOL0     H37641   8.945  10.270   1.785 -0.9344  0.2648  0.3562
 1020MOL0     H37642   8.974  10.376   1.647  1.8974 -0.3095  1.5510
 1020MOL0     H37643   8.764  10.281   1.546 -1.1009  0.9624  0.6389
 1020MOL0     H37644   8.750  10.189   1.703 -0.4589 -0.1745 -0.7347
 1020MOL0     H37645   8.714  10.383   1.822  0.9221  2.1733  0.9983
 1020MOL0     H37646   8.775  10.491   1.698 -0.3088  0.0881  1.0033
 1020MOL0     H37647   8.575  10.423   1.546  2.0782  1.0086  0.2890
 1020MOL0     H37648   8.519  10.338   1.689 -0.4273 -0.8012 -1.3701
 1020MOL0     H37649   8.546  10.636   1.645  0.2859  0.1322 -1.5391
 1020MOL0     H37650   8.531  10.578   1.815 -0.6807 -1.4722  0.7184
 1020MOL0     H37651   8.323  10.758   1.758  1.4104 -2.0837  2.2154
 1020MOL0     H37652   7.998  10.700   1.755 -0.2290 -0.1295 -0.9474
 1020MOL0     H37653   8.087  10.816   1.639  1.5252  0.2619 -0.5821
 1020MOL0     H37654   7.838  10.731   1.574 -1.4918 -1.7959 -1.9409
 1020MOL0     H37655   7.925  10.580   1.528 -0.3353 -0.8926 -1.3471
 1020MOL0     H37656   8.089  10.727   1.388 -0.6785  0.3460 -1.9633
 1020MOL0     H37657   7.975  10.858   1.418 -0.9865  0.5213  1.2532
 1020MOL0     H37658   7.923  10.607   1.265  3.3211  0.4761  0.7101
 1020MOL0     H37659   7.919  10.764   1.202 -1.2836  1.5614  1.7024
 1020MOL0     H37660   7.526  10.820   1.335 -0.6115 -1.9204  1.5415
 1020MOL0     H37661   7.317  10.841   1.297 -0.2973  2.1415 -1.8690
 1020MOL0     H37662   7.304  10.869   1.120 -0.0944  2.3485  1.9538
 1020MOL0     H37663   7.223  10.724   1.195 -0.1825 -1.3594  0.9007
 1020MOL0     H37664   7.142  10.380   0.821  0.9633 -0.5265  0.0866
 1020MOL0     H37665   7.017  10.381   0.597  0.2563 -1.0996  1.2891
 1020MOL0     H37666   7.061  10.693   0.386 -0.4540 -0.7447 -0.2095
 1020MOL0     H37667   7.047  10.626   0.226  0.8924  2.2335  0.4993
 1020MOL0     H37668   6.841  10.588   0.459 -0.6715  1.9675  0.1012
 1020MOL0     H37669   6.830  10.708   0.321 -1.2881 -1.5522 -1.0745
 1020MOL0     H37670   6.807  10.405   0.310 -1.1326 -0.3173  0.5596
 1020MOL0     H37671   6.856  10.503   0.177  0.0263 -4.9008  0.8900
 1020MOL0     H37672   6.588  10.519   0.334 -0.1801  0.3782  0.1817
 1020MOL0     H37673   6.631  10.632   0.211 -1.5159  0.4682  1.0381
 1020MOL0     H37674   6.608  10.329   0.202  0.6404 -0.6484 -1.7060
 1020MOL0     H37675   6.636  10.414   0.052  0.2815 -1.2083 -0.2881
 1020MOL0     H37676   6.391  10.396   0.234  3.9855 -1.4250  1.0734
 1020MOL0     H37677   6.400  10.538   0.130  1.4368 -0.3592 -0.5881
 1020MOL0     H37678   6.408  10.245   0.018 -1.8972 -0.3635 -1.6483
 1020MOL0     H37679   6.417  10.401  -0.068 -1.7953  0.6167 -0.2415
 1020MOL0     H37680   6.208  10.383  -0.098 -0.5219  3.2150  1.7418
 1020MOL0     H37681   6.181  10.399   0.069 -2.3471 -3.3322  2.1329
 1020MOL0     H37682   7.285  10.667   0.444  1.7899  0.6897  1.3007
 1020MOL0     H37683   7.398  10.679   0.652 -0.6694 -0.0827  0.8481
 1020MOL0     H37684   7.614  10.522   0.951  1.4226 -1.2689  1.2352
 1020MOL0     H37685   7.794  10.580   1.103  0.2025  1.0934 -0.8767
 1020MOL0     H37686   9.438  10.390   1.415 -2.3603 -0.3288  0.1870
 1020MOL0     H37687   9.658  10.430   1.528 -0.4950 -1.4110 -0.9069
 1020MOL0     H37688   9.814  10.603   1.981  0.3859 -1.2298  1.1828
 1020MOL0     H37689   9.987  10.633   2.151  1.7596  1.0292 -0.4753
 1020MOL0     H37690  10.324  10.383   2.163  2.0464 -0.6507  1.4404
 1020MOL0     H37691  10.408  10.512   2.077  1.3436 -0.2646  1.1860
 1020MOL0     H37692  10.523  10.458   2.284  0.6206 -0.3329 -0.9618
 1020MOL0     H37693  10.378  10.524   2.373 -1.7733  4.3285 -1.0091
 1020MOL0     H37694  10.529  10.714   2.362 -1.1296  0.4895  0.5552
 1020MOL0     H37695  10.393  10.734   2.256  0.6364 -2.0256  0.4446
 1020MOL0     H37696  10.530  10.692   2.057 -0.0369 -0.2548  0.2457
 1020MOL0     H37697  10.651  10.610   2.154 -1.1327 -1.5630  0.2142
 1020MOL0     H37698  10.747  11.040   2.158 -0.1200  0.7448 -2.3729
 1020MOL0     H37699  10.276  10.414   1.944  0.0933 -0.5076  2.1933
 1020MOL0     H37700  10.106  10.347   1.777  2.9835 -0.9602  1.3640
 1021MOL0     O37701   8.039   9.964   8.146 -0.1035  0.1659 -0.1674
 1021MOL0     C37702   8.032   9.898   8.042  0.3698 -0.4480  0.6683
 1021MOL0     O37703   7.926   9.909   7.960 -0.1514  0.3135 -0.9355
 1021MOL0     C37704   7.833  10.010   7.990  0.6076 -0.6225  0.5117
 1021MOL0     C37705   7.698   9.981   7.979 -0.3558 -0.5609  0.2413
 1021MOL0     C37706   7.596  10.075   7.991 -0.2318 -0.7295 -0.5254
 1021MOL0     C37707   7.629  10.208   8.023  1.0019 -0.5225  0.8255
 1021MOL0     O37708   7.531  10.308   8.035  0.4106 -0.6504 -0.1955
 1021MOL0     C37709   7.428  10.265   8.119  0.1190  0.6384 -0.1379
 1021MOL0     C37710   7.363  10.374   8.187  1.0547  0.5265  0.5631
 1021MOL0     C37711   7.315  10.491   8.093 -0.2611 -0.4237  0.2956
 1021MOL0     C37712   7.219  10.447   7.984  0.0821  0.0019  0.3658
 1021MOL0     C37713   7.174  10.565   7.910  0.5149  0.5288 -0.3581
 1021MOL0     C37714   7.060  10.537   7.816 -0.6215 -0.9596 -0.1337
 1021MOL0     C37715   7.020  10.667   7.733 -0.0955 -0.6196 -0.1316
 1021MOL0     C37716   7.095  10.674   7.593  0.7562 -0.3618 -0.1958
 1021MOL0     N37717   7.035  10.581   7.496 -0.2606  0.6272 -0.3300
 1021MOL0     C37718   6.928  10.604   7.416  0.7232 -0.3523 -1.0128
 1021MOL0     C37719   6.920  10.505   7.327  0.8299 -0.3632 -0.7307
 1021MOL0     C37720   6.815  10.498   7.223 -0.6740 -0.0496 -1.1321
 1021MOL0     C37721   6.674  10.502   7.288 -0.4811  0.1698  0.2260
 1021MOL0     C37722   6.573  10.476   7.189 -0.1779 -0.2277  0.2695
 1021MOL0     C37723   6.434  10.499   7.251  0.3935 -0.5152 -0.2469
 1021MOL0     O37724   6.339  10.503   7.142 -0.6438 -0.2758  0.5400
 1021MOL0     C37725   6.210  10.511   7.175  1.1519 -0.1949 -0.0358
 1021MOL0     C37726   6.166  10.531   7.310  0.0109 -1.2364 -0.2625
 1021MOL0     C37727   6.026  10.548   7.352 -0.1669 -0.3107  0.0571
 1021MOL0     C37728   5.987  10.564   7.495  0.2895  0.2129 -0.5821
 1021MOL0     C37729   5.934  10.530   7.244 -0.6095 -0.1887  0.2137
 1021MOL0     C37730   5.786  10.517   7.275 -0.5968 -0.0895 -0.9035
 1021MOL0     O37731   5.711  10.432   7.213  0.4304 -0.0957 -0.0516
 1021MOL0     C37732   5.570  10.432   7.232 -0.7637  0.6635 -0.0066
 1021MOL0     C37733   5.490  10.386   7.122 -0.7152  0.6664  0.1547
 1021MOL0     C37734   5.357  10.342   7.136 -0.8946  0.1147  0.5311
 1021MOL0     C37735   5.295  10.366   7.258  0.2309  0.3919  0.1004
 1021MOL0     O37736   5.168  10.324   7.284  0.4671 -0.4380 -0.0209
 1021MOL0     C37737   5.067  10.334   7.184  0.6485 -0.2611  0.6175
 1021MOL0     C37738   4.935  10.378   7.242  0.1140 -0.4977 -0.1625
 1021MOL0     C37739   4.883  10.286   7.342  0.1450  0.4262  0.4816
 1021MOL0     C37740   4.757  10.348   7.422  0.0544  0.6915  1.1661
 1021MOL0     C37741   4.817  10.422   7.542 -0.4125  0.5101  0.4331
 1021MOL0     C37742   4.716  10.511   7.597  0.3355 -0.0636 -0.2294
 1021MOL0     C37743   4.761  10.586   7.726 -0.5520 -0.1883 -0.0347
 1021MOL0     C37744   4.663  10.681   7.781 -0.4959 -0.0460 -0.5253
 1021MOL0    Cl37745   4.539  10.573   7.841  0.7277 -0.2338  0.1953
 1021MOL0     C37746   5.371  10.415   7.366 -0.1147 -0.9186 -0.5147
 1021MOL0     C37747   5.508  10.434   7.355  0.4177 -0.2850 -0.2384
 1021MOL0     O37748   5.742  10.603   7.352  0.1246 -0.3620  0.9808
 1021MOL0     C37749   5.973  10.516   7.107  0.1258  0.9622 -0.1567
 1021MOL0     C37750   6.110  10.500   7.075 -0.7145  0.4863 -0.3323
 1021MOL0     N37751   7.021  10.416   7.358  0.2102 -0.0080 -0.5441
 1021MOL0     N37752   7.097  10.467   7.453 -0.2532  0.5329  1.3727
 1021MOL0     C37753   7.760  10.247   8.027 -0.5187  0.6889 -0.1666
 1021MOL0     C37754   7.869  10.151   8.007  0.2200 -0.2471 -0.0617
 1021MOL0     C37755   8.144   9.814   7.998 -0.0900 -0.1183 -0.3311
 1021MOL0     C37756   8.254   9.793   8.084  0.2129  0.4138  0.0851
 1021MOL0     C37757   8.352   9.701   8.034  0.4145 -0.4870 -0.4332
 1021MOL0     C37758   8.343   9.625   7.916 -0.0436 -0.3717 -0.9299
 1021MOL0     O37759   8.433   9.526   7.883  0.4096 -0.3346  0.3909
 1021MOL0     C37760   8.526   9.487   7.979  1.3416 -0.3045 -0.7215
 1021MOL0     C37761   8.602   9.356   7.934  0.6124 -1.3821  0.3635
 1021MOL0     C37762   8.681   9.387   7.798  0.2589 -0.0179 -0.2135
 1021MOL0     C37763   8.827   9.330   7.793  0.6747  0.3845 -0.7679
 1021MOL0     C37764   8.899   9.370   7.911 -0.1305 -0.0890  0.9864
 1021MOL0     C37765   8.961   9.394   8.013  0.1902 -0.7764  0.7428
 1021MOL0     C37766   8.235   9.651   7.834 -0.3803 -0.1487  0.7420
 1021MOL0     C37767   8.132   9.738   7.879 -0.4253 -0.8161  0.2812
 1021MOL0     H37768   7.665   9.882   7.948 -3.8662  0.8180 -0.9143
 1021MOL0     H37769   7.494  10.041   7.980 -0.8394  1.3804 -1.9291
 1021MOL0     H37770   7.348  10.212   8.066 -0.7791 -0.8919  2.5816
 1021MOL0     H37771   7.469  10.199   8.195  1.1642  1.1482 -0.2354
 1021MOL0     H37772   7.269  10.338   8.229 -0.2985  1.3148 -1.5880
 1021MOL0     H37773   7.433  10.412   8.262  1.9151 -0.8700  0.5046
 1021MOL0     H37774   7.269  10.574   8.147 -1.6945 -0.2241 -1.1770
 1021MOL0     H37775   7.408  10.523   8.045 -1.7346 -0.1208 -2.5428
 1021MOL0     H37776   7.262  10.375   7.915 -0.4024  0.7947 -0.7899
 1021MOL0     H37777   7.131  10.404   8.033  0.8196 -0.3467  1.4047
 1021MOL0     H37778   7.148  10.642   7.982 -1.6674 -0.1158 -0.3610
 1021MOL0     H37779   7.257  10.608   7.853  2.3612 -0.1108  1.7365
 1021MOL0     H37780   7.095  10.464   7.742 -0.1504 -0.5213 -0.3518
 1021MOL0     H37781   6.972  10.508   7.873 -2.0673  2.7872 -0.1774
 1021MOL0     H37782   6.913  10.689   7.729  0.2688  1.3561 -0.0475
 1021MOL0     H37783   7.059  10.751   7.792 -2.7225 -0.3016  1.3272
 1021MOL0     H37784   7.202  10.655   7.604  1.8119  2.9120 -2.8893
 1021MOL0     H37785   7.087  10.777   7.557  0.8036 -0.1942  0.2748
 1021MOL0     H37786   6.861  10.688   7.423  0.4103 -0.7011  0.5057
 1021MOL0     H37787   6.819  10.590   7.164 -0.0518  2.2828  2.2686
 1021MOL0     H37788   6.839  10.406   7.170  2.0644 -0.7776  1.1072
 1021MOL0     H37789   6.658  10.605   7.323  1.1634  0.6465 -0.3447
 1021MOL0     H37790   6.663  10.434   7.373  1.1605 -3.4293 -2.2060
 1021MOL0     H37791   6.581  10.373   7.153  1.9854  0.3425 -1.1570
 1021MOL0     H37792   6.580  10.530   7.094 -1.4507  1.7570  1.2445
 1021MOL0     H37793   6.420  10.604   7.276 -2.5037  0.1846 -3.9720
 1021MOL0     H37794   6.414  10.433   7.335 -0.0306 -0.9029 -0.6425
 1021MOL0     H37795   6.235  10.533   7.394 -0.7305  0.0723  0.3485
 1021MOL0     H37796   6.055  10.511   7.562  0.1940  2.1788  1.1621
 1021MOL0     H37797   5.980  10.671   7.515 -0.8476  0.5224 -2.3528
 1021MOL0     H37798   5.886  10.525   7.515  1.1413 -1.9584 -0.2094
 1021MOL0     H37799   5.530  10.377   7.021  0.6945  0.3237  0.7321
 1021MOL0     H37800   5.301  10.311   7.048  0.6607  3.4852 -1.8437
 1021MOL0     H37801   5.094  10.418   7.119  3.3782 -0.8166  0.9394
 1021MOL0     H37802   5.056  10.248   7.117  0.2114  3.5288 -4.8447
 1021MOL0     H37803   4.937  10.472   7.297  0.5107 -0.9364  0.5944
 1021MOL0     H37804   4.863  10.396   7.162  0.0199  1.5601  0.3417
 1021MOL0     H37805   4.961  10.248   7.409 -2.4617 -4.9482  1.0023
 1021MOL0     H37806   4.846  10.200   7.285 -1.2083  0.1931  1.6570
 1021MOL0     H37807   4.705  10.420   7.358  2.5177  1.0704 -0.4937
 1021MOL0     H37808   4.690  10.265   7.449  0.8264 -0.9582 -1.5713
 1021MOL0     H37809   4.897  10.479   7.495 -0.3756 -1.4159 -2.0534
 1021MOL0     H37810   4.872  10.353   7.607  2.5629  1.0937 -1.2842
 1021MOL0     H37811   4.682  10.581   7.521 -0.9287  0.6597  0.9481
 1021MOL0     H37812   4.632  10.444   7.615 -1.1823  0.7026 -3.7510
 1021MOL0     H37813   4.855  10.642   7.719  0.1937 -1.4788 -0.7518
 1021MOL0     H37814   4.769  10.513   7.807 -1.2902  0.0089  0.2336
 1021MOL0     H37815   4.622  10.752   7.709  1.0924 -0.1414 -1.5804
 1021MOL0     H37816   4.707  10.751   7.853  1.7987 -1.4576 -0.4467
 1021MOL0     H37817   5.327  10.412   7.466  0.8319  0.8474 -0.0040
 1021MOL0     H37818   5.553  10.456   7.452 -4.6805  0.0995  2.3696
 1021MOL0     H37819   5.883  10.500   7.048 -0.2005  2.0617  0.0190
 1021MOL0     H37820   6.127  10.482   6.970 -3.4356  1.1003 -0.9643
 1021MOL0     H37821   7.797  10.346   8.052 -0.4287  1.5785 -3.3890
 1021MOL0     H37822   7.975  10.175   8.003  0.2142  0.0138  1.0749
 1021MOL0     H37823   8.269   9.857   8.170 -1.5006  2.2490 -0.9069
 1021MOL0     H37824   8.442   9.695   8.095 -0.9543 -0.2049  1.7417
 1021MOL0     H37825   8.604   9.564   7.979  3.6341 -2.4469  1.0789
 1021MOL0     H37826   8.483   9.481   8.079  0.0942 -0.3905 -1.2445
 1021MOL0     H37827   8.526   9.279   7.917 -0.1976  0.0216 -3.2920
 1021MOL0     H37828   8.669   9.317   8.010  3.0896  1.8920  0.1144
 1021MOL0     H37829   8.685   9.494   7.776 -1.2213 -0.0175 -0.5574
 1021MOL0     H37830   8.624   9.346   7.714 -1.0130 -1.1820  1.1641
 1021MOL0     H37831   8.882   9.358   7.703  2.6066 -1.6418 -0.3165
 1021MOL0     H37832   8.828   9.220   7.794  1.6288  0.3870 -0.6860
 1021MOL0     H37833   9.008   9.408   8.108 -1.3206  2.5728  1.1391
 1021MOL0     H37834   8.217   9.588   7.748 -0.5717 -0.6918  1.1772
 1021MOL0     H37835   8.039   9.735   7.822 -0.6550  0.8166  0.5023
 1022MOL0     O37836   4.844   2.967  11.078 -0.9643  0.2450 -0.3561
 1022MOL0     C37837   4.832   2.903  11.181 -0.2147 -0.2700 -0.6471
 1022MOL0     O37838   4.716   2.848  11.226  0.9181  0.2429 -0.4890
 1022MOL0     C37839   4.603   2.890  11.157  0.6200  0.4750 -0.4990
 1022MOL0     C37840   4.581   2.870  11.024 -0.2824  0.1027  0.3596
 1022MOL0     C37841   4.462   2.916  10.966  0.4373 -0.4858 -0.3072
 1022MOL0     C37842   4.379   2.989  11.052  0.1862 -0.0066  0.0145
 1022MOL0     O37843   4.252   3.035  11.017  0.7131 -0.4802 -0.1825
 1022MOL0     C37844   4.229   3.040  10.871  0.1099  0.0257  0.5031
 1022MOL0     C37845   4.092   3.121  10.873  0.5316  0.5266  0.7391
 1022MOL0     C37846   4.045   3.145  10.725 -0.2715 -0.4968 -0.5241
 1022MOL0     C37847   3.912   3.225  10.719 -0.3321  0.8089  1.1605
 1022MOL0     C37848   3.861   3.243  10.575 -0.1333  0.2079  0.4615
 1022MOL0     C37849   3.721   3.305  10.570 -0.1693 -0.0311 -0.0698
 1022MOL0     C37850   3.649   3.335  10.438 -1.5051 -0.8309  0.8390
 1022MOL0     C37851   3.509   3.402  10.435  0.4708  0.1723 -0.2935
 1022MOL0     N37852   3.405   3.300  10.471 -0.2309 -0.0942  0.2414
 1022MOL0     C37853   3.317   3.245  10.383 -0.4041 -1.0981 -0.4388
 1022MOL0     C37854   3.249   3.164  10.456  0.3271 -0.2048  0.6151
 1022MOL0     C37855   3.130   3.087  10.414 -0.9789  0.1158 -0.2631
 1022MOL0     C37856   3.038   3.060  10.540  0.4223 -0.5005 -0.5568
 1022MOL0     C37857   2.924   2.957  10.504 -0.0596  0.1169  0.3405
 1022MOL0     C37858   2.829   3.000  10.393 -0.2052 -0.0848  0.4416
 1022MOL0     O37859   2.776   3.131  10.424 -0.9784 -0.2900 -0.2243
 1022MOL0     C37860   2.669   3.138  10.515 -0.0882 -0.9875  0.5950
 1022MOL0     C37861   2.612   3.267  10.498  0.5659  0.7820 -0.4636
 1022MOL0     C37862   2.501   3.296  10.580 -0.3517  0.0095  0.1296
 1022MOL0     C37863   2.445   3.437  10.564 -0.6508 -0.1326 -0.8218
 1022MOL0     C37864   2.450   3.199  10.669  0.2966 -0.5135 -0.0671
 1022MOL0     C37865   2.335   3.225  10.765  0.7901 -0.1778 -0.1675
 1022MOL0     O37866   2.310   3.113  10.850  0.1053 -0.1530 -0.3142
 1022MOL0     C37867   2.199   3.105  10.935  0.1504 -0.1943  0.0773
 1022MOL0     C37868   2.170   2.979  10.982  0.6312  0.4167  1.4262
 1022MOL0     C37869   2.070   2.943  11.068  0.1059  0.2827 -0.1602
 1022MOL0     C37870   1.981   3.043  11.098  0.5409 -0.7353 -0.1419
 1022MOL0     O37871   1.871   3.008  11.178 -0.5609 -0.6223 -0.0549
 1022MOL0     C37872   1.753   3.086  11.166  0.3730  0.3417 -0.0422
 1022MOL0     C37873   1.651   3.024  11.258 -0.2089  0.3090  0.6365
 1022MOL0     C37874   1.646   2.869  11.235  0.4182  0.0195 -0.5511
 1022MOL0     C37875   1.537   2.786  11.303  0.7988  0.4419  0.3725
 1022MOL0     C37876   1.521   2.651  11.236  0.7635 -0.0494  0.2203
 1022MOL0     C37877   1.416   2.562  11.295  0.2908 -1.0146 -0.4974
 1022MOL0     C37878   1.455   2.415  11.277 -0.1528 -0.1271  0.6300
 1022MOL0     C37879   1.446   2.379  11.135 -0.1361  0.5883  0.6924
 1022MOL0    Cl37880   1.282   2.399  11.080  0.5143  0.8327  0.5048
 1022MOL0     C37881   2.010   3.179  11.057 -0.7888  0.0915  0.5244
 1022MOL0     C37882   2.125   3.204  10.983 -0.2306 -0.7060  0.1909
 1022MOL0     O37883   2.279   3.338  10.768 -0.6818 -0.4555 -0.0257
 1022MOL0     C37884   2.512   3.070  10.668 -0.0037 -0.1943  0.3479
 1022MOL0     C37885   2.622   3.039  10.589  0.8874 -0.4688 -0.9812
 1022MOL0     N37886   3.293   3.162  10.584  0.4282  0.7052  0.3474
 1022MOL0     N37887   3.385   3.244  10.594  0.5163 -0.2660 -0.1526
 1022MOL0     C37888   4.396   3.007  11.187 -0.1361 -0.3899 -0.1560
 1022MOL0     C37889   4.517   2.957  11.240  0.8150 -1.2487  0.1960
 1022MOL0     C37890   4.961   2.858  11.256 -0.0114  0.5196 -0.3628
 1022MOL0     C37891   4.960   2.742  11.333  0.3930  0.3350  0.0797
 1022MOL0     C37892   5.070   2.690  11.400 -0.0403 -0.1464  0.5157
 1022MOL0     C37893   5.185   2.770  11.400  0.3736  1.1362  1.0399
 1022MOL0     O37894   5.291   2.719  11.474  0.2451  1.1577  0.0715
 1022MOL0     C37895   5.422   2.741  11.435 -0.4993 -0.0674  0.3879
 1022MOL0     C37896   5.462   2.687  11.298 -0.0816  0.1472 -0.4055
 1022MOL0     C37897   5.460   2.536  11.319  0.4234  0.8702  0.2402
 1022MOL0     C37898   5.407   2.470  11.189  0.4445 -0.4309 -0.2332
 1022MOL0     C37899   5.444   2.330  11.179 -0.6931 -0.4441 -0.0879
 1022MOL0     C37900   5.478   2.213  11.175  0.3172  0.0795 -0.5058
 1022MOL0     C37901   5.196   2.877  11.312  0.1589 -0.1129 -0.6085
 1022MOL0     C37902   5.083   2.920  11.244 -0.0960  0.0673  0.0845
 1022MOL0     H37903   4.659   2.809  10.980  0.0925  0.9561 -0.1715
 1022MOL0     H37904   4.451   2.895  10.860 -0.7810 -0.5905 -0.1715
 1022MOL0     H37905   4.314   3.090  10.823  0.2079 -0.3967  0.2269
 1022MOL0     H37906   4.219   2.944  10.818  2.1547  0.0322  0.0258
 1022MOL0     H37907   4.017   3.058  10.922 -4.3156  0.8597 -4.9925
 1022MOL0     H37908   4.099   3.215  10.928 -0.8279 -0.0061  1.8867
 1022MOL0     H37909   4.128   3.199  10.680 -1.8631 -0.0305 -3.1267
 1022MOL0     H37910   4.047   3.049  10.672 -0.6832 -1.5921  1.3504
 1022MOL0     H37911   3.839   3.175  10.783 -0.6572  2.0377  1.7689
 1022MOL0     H37912   3.929   3.325  10.759  0.8142  1.7596 -1.5143
 1022MOL0     H37913   3.932   3.296  10.511  0.8838  1.2022  2.3302
 1022MOL0     H37914   3.856   3.145  10.526 -0.2609  0.7439 -0.6239
 1022MOL0     H37915   3.660   3.227  10.617 -0.2511  1.8097  3.1928
 1022MOL0     H37916   3.705   3.393  10.633 -1.6416 -1.7603  2.1142
 1022MOL0     H37917   3.704   3.408  10.378 -2.4701 -2.4130 -2.1481
 1022MOL0     H37918   3.636   3.246  10.376 -1.4365  0.8652 -1.7754
 1022MOL0     H37919   3.499   3.434  10.331 -0.2816  2.3447  0.3962
 1022MOL0     H37920   3.500   3.492  10.497 -0.2528 -0.1173  0.0420
 1022MOL0     H37921   3.313   3.272  10.278 -4.0783  3.8772  0.5961
 1022MOL0     H37922   3.075   3.142  10.337 -0.6170 -0.4697 -0.9473
 1022MOL0     H37923   3.171   2.991  10.380 -0.0765  0.2066  0.5345
 1022MOL0     H37924   2.991   3.153  10.573  0.8883 -0.7845  1.0145
 1022MOL0     H37925   3.097   3.016  10.620 -1.7746 -1.3164  0.7155
 1022MOL0     H37926   2.863   2.939  10.593  0.2094 -0.2282  0.4603
 1022MOL0     H37927   2.967   2.862  10.469  1.0599  1.4460 -2.1057
 1022MOL0     H37928   2.748   2.927  10.380 -2.0188  1.6214  1.4994
 1022MOL0     H37929   2.867   3.008  10.291 -0.4505  2.4544  0.4916
 1022MOL0     H37930   2.649   3.339  10.426  0.6023  1.0788 -0.1511
 1022MOL0     H37931   2.466   3.489  10.658 -1.3009 -3.3575  1.2336
 1022MOL0     H37932   2.496   3.498  10.488 -0.5584  2.1369  0.9651
 1022MOL0     H37933   2.336   3.442  10.559 -1.1223 -2.5227  3.1916
 1022MOL0     H37934   2.233   2.894  10.956 -0.9022 -0.8495  1.7017
 1022MOL0     H37935   2.047   2.840  11.089 -0.7584  0.5227  0.0892
 1022MOL0     H37936   1.769   3.193  11.180  2.1648  0.3707 -1.8143
 1022MOL0     H37937   1.719   3.070  11.063  1.3829 -2.4161 -0.0289
 1022MOL0     H37938   1.692   3.037  11.359  0.1117 -1.4669  0.7782
 1022MOL0     H37939   1.550   3.063  11.242  0.3441  1.4681 -0.0916
 1022MOL0     H37940   1.737   2.811  11.249 -1.9281 -3.5241  1.7095
 1022MOL0     H37941   1.628   2.856  11.128  2.5818  1.6677 -1.1679
 1022MOL0     H37942   1.552   2.773  11.411  0.9932 -0.8461  0.2112
 1022MOL0     H37943   1.442   2.839  11.289 -0.5144 -1.5757  0.9520
 1022MOL0     H37944   1.624   2.613  11.243  0.7211 -0.2241 -0.0542
 1022MOL0     H37945   1.520   2.654  11.126  1.0274 -1.9012  0.1311
 1022MOL0     H37946   1.413   2.580  11.402  3.0259  0.6557 -0.6044
 1022MOL0     H37947   1.318   2.587  11.252  0.1611 -0.9808 -0.1867
 1022MOL0     H37948   1.378   2.362  11.333  0.2259 -2.2413 -0.7295
 1022MOL0     H37949   1.554   2.396  11.320 -0.3434 -0.5067  0.9067
 1022MOL0     H37950   1.475   2.275  11.115 -1.0466  0.4697 -0.0295
 1022MOL0     H37951   1.497   2.449  11.068 -0.8184 -1.2884 -1.9277
 1022MOL0     H37952   1.944   3.258  11.091 -0.7659 -0.1672  1.1761
 1022MOL0     H37953   2.155   3.305  10.955  4.0757 -1.8776 -0.2229
 1022MOL0     H37954   2.462   2.989  10.720  1.9875 -0.4869  1.8857
 1022MOL0     H37955   2.654   2.937  10.606 -1.0697 -0.8108  1.1986
 1022MOL0     H37956   4.323   3.062  11.244  1.8294  1.3235  0.8275
 1022MOL0     H37957   4.539   2.974  11.345  0.6910  2.2055 -0.2336
 1022MOL0     H37958   4.873   2.682  11.358  1.8604 -0.9786  2.4241
 1022MOL0     H37959   5.064   2.603  11.465 -1.1914 -0.4698 -0.0023
 1022MOL0     H37960   5.441   2.849  11.430  0.9200 -0.3159  0.0280
 1022MOL0     H37961   5.485   2.690  11.508 -0.3544  0.5126  0.6699
 1022MOL0     H37962   5.564   2.716  11.272  0.2988 -0.8619 -0.0811
 1022MOL0     H37963   5.398   2.712  11.214  1.5453 -2.7859 -2.7017
 1022MOL0     H37964   5.387   2.514  11.397 -0.1847  0.9519 -0.2983
 1022MOL0     H37965   5.562   2.507  11.346  0.4638  1.2320  0.4835
 1022MOL0     H37966   5.447   2.527  11.105  1.3428 -1.2919 -0.4110
 1022MOL0     H37967   5.297   2.469  11.193  0.4503 -1.5975  0.1670
 1022MOL0     H37968   5.497   2.107  11.176  3.0152  0.5119  0.2714
 1022MOL0     H37969   5.289   2.933  11.309  0.1872 -0.0869  0.3358
 1022MOL0     H37970   5.091   3.006  11.179 -0.2246 -0.3869 -0.5335
 1023MOL0     O37971   4.986   5.260   5.742 -0.3169 -0.4162 -0.6374
 1023MOL0     C37972   5.041   5.166   5.686  0.3762  1.7636  0.1107
 1023MOL0     O37973   5.012   5.113   5.556  0.0555 -0.0962 -0.4646
 1023MOL0     C37974   4.911   5.184   5.492 -0.6440 -0.2161 -0.7238
 1023MOL0     C37975   4.776   5.155   5.521  0.9392  0.4168  0.8762
 1023MOL0     C37976   4.674   5.226   5.452  0.3274 -0.2357 -1.2182
 1023MOL0     C37977   4.703   5.332   5.363  0.9167  0.4982  0.4339
 1023MOL0     O37978   4.615   5.415   5.293  0.5230  0.3529 -0.0846
 1023MOL0     C37979   4.482   5.424   5.357  0.0851  0.3516 -0.0141
 1023MOL0     C37980   4.411   5.528   5.269  1.0714  0.4543 -0.2197
 1023MOL0     C37981   4.269   5.548   5.321  0.2743  0.1819  0.1786
 1023MOL0     C37982   4.187   5.629   5.220  0.5840  0.1060  0.4879
 1023MOL0     C37983   4.038   5.572   5.209 -0.5298 -0.9077 -0.2196
 1023MOL0     C37984   3.958   5.633   5.097  0.2668 -0.9796  0.8492
 1023MOL0     C37985   3.820   5.581   5.071  0.2802 -0.2093  0.0067
 1023MOL0     C37986   3.735   5.665   4.980  0.6728 -0.2031  0.3114
 1023MOL0     N37987   3.691   5.788   5.046 -0.2865 -0.3311 -0.4184
 1023MOL0     C37988   3.593   5.782   5.141 -0.3807  0.2841  0.4031
 1023MOL0     C37989   3.588   5.913   5.188  0.4112  0.4507 -0.3365
 1023MOL0     C37990   3.496   5.962   5.290  0.2314  0.3866  0.2402
 1023MOL0     C37991   3.344   5.970   5.253  0.4343  0.0224  0.0082
 1023MOL0     C37992   3.267   6.005   5.381 -0.0699  0.4768 -0.2252
 1023MOL0     C37993   3.118   6.020   5.368 -0.5078 -0.6552  0.7351
 1023MOL0     O37994   3.053   6.015   5.491  0.1242  0.6233  0.3828
 1023MOL0     C37995   2.922   6.049   5.501  1.5886 -0.6872 -0.0644
 1023MOL0     C37996   2.865   6.032   5.635  0.1034 -0.8713 -0.4315
 1023MOL0     C37997   2.736   6.077   5.670  0.1005 -0.2075  0.0072
 1023MOL0     C37998   2.692   6.063   5.817 -0.8067 -0.0589 -0.4122
 1023MOL0     C37999   2.644   6.132   5.567  0.0238  0.7784 -0.5447
 1023MOL0     C38000   2.509   6.185   5.587  0.3572 -0.0816 -0.3356
 1023MOL0     O38001   2.428   6.187   5.482  0.0683 -0.0101 -0.0266
 1023MOL0     C38002   2.291   6.225   5.490  0.5310 -0.2160  0.0803
 1023MOL0     C38003   2.200   6.163   5.576 -0.0320  0.5948  0.0806
 1023MOL0     C38004   2.070   6.187   5.576  0.0102 -0.1772 -0.0054
 1023MOL0     C38005   2.016   6.274   5.471 -0.2297  0.1992  0.7226
 1023MOL0     O38006   1.887   6.306   5.490 -0.0500 -0.7107 -0.1198
 1023MOL0     C38007   1.818   6.376   5.393  0.4158 -0.2664  0.1529
 1023MOL0     C38008   1.675   6.355   5.428  0.6139 -0.2229  0.2782
 1023MOL0     C38009   1.581   6.395   5.311 -0.6761 -0.2824  0.2131
 1023MOL0     C38010   1.530   6.273   5.232 -0.7265 -0.5415 -0.2373
 1023MOL0     C38011   1.455   6.305   5.106 -0.0202  0.1065  0.1344
 1023MOL0     C38012   1.404   6.191   5.027  0.4286 -0.2737 -0.0181
 1023MOL0     C38013   1.324   6.225   4.897 -0.2012  0.1589 -0.0856
 1023MOL0     C38014   1.248   6.103   4.850 -0.9786 -0.6252  0.0709
 1023MOL0    Cl38015   1.158   6.149   4.707  0.3283 -0.1657 -0.2899
 1023MOL0     C38016   2.105   6.334   5.376  0.3283  0.2670 -0.3479
 1023MOL0     C38017   2.239   6.286   5.373 -0.4600 -0.5380 -0.7989
 1023MOL0     O38018   2.485   6.236   5.693 -0.2948 -0.4175 -0.3968
 1023MOL0     C38019   2.697   6.138   5.431  0.0908 -0.9848 -0.4391
 1023MOL0     C38020   2.830   6.102   5.402 -0.1378  0.3631  0.0758
 1023MOL0     N38021   3.667   5.989   5.107  0.8542 -0.3114  0.7428
 1023MOL0     N38022   3.734   5.917   5.025 -0.1557  0.2972 -0.4866
 1023MOL0     C38023   4.838   5.370   5.345 -0.1883 -0.2961  0.4329
 1023MOL0     C38024   4.942   5.296   5.411  0.0417  0.2735 -0.5203
 1023MOL0     C38025   5.135   5.091   5.761 -0.4541 -0.5630 -0.5187
 1023MOL0     C38026   5.193   5.147   5.880 -0.3256  0.4727  0.5219
 1023MOL0     C38027   5.288   5.077   5.951  0.1902  0.4364  1.2422
 1023MOL0     C38028   5.319   4.947   5.904 -0.3659  0.4951  0.2412
 1023MOL0     O38029   5.422   4.866   5.956 -0.2207 -0.5337  0.2212
 1023MOL0     C38030   5.513   4.924   6.052  0.2917  0.1159  0.1587
 1023MOL0     C38031   5.607   4.838   6.142  0.7061  0.3345  0.5652
 1023MOL0     C38032   5.717   4.778   6.070 -0.7335  0.6068  0.4880
 1023MOL0     C38033   5.828   4.896   6.063 -0.3585  0.0904 -0.7515
 1023MOL0     C38034   5.952   4.854   6.008  1.2510  0.1829 -0.8254
 1023MOL0     C38035   6.056   4.839   5.948  0.6371 -0.1149  0.9011
 1023MOL0     C38036   5.249   4.892   5.801  1.2746  0.5582  0.1552
 1023MOL0     C38037   5.155   4.964   5.726 -0.3569 -0.2231  0.8712
 1023MOL0     H38038   4.759   5.072   5.588 -1.2036  1.0945  1.2524
 1023MOL0     H38039   4.570   5.197   5.462  0.9575 -2.1503  0.3704
 1023MOL0     H38040   4.430   5.329   5.339  0.8264  0.3372 -2.4467
 1023MOL0     H38041   4.488   5.449   5.463 -3.0006 -0.3175  0.4027
 1023MOL0     H38042   4.468   5.621   5.263 -0.1598  1.2164 -0.4472
 1023MOL0     H38043   4.416   5.490   5.167  0.1742 -1.6137  0.4441
 1023MOL0     H38044   4.215   5.453   5.329  0.6961  0.1040  3.5393
 1023MOL0     H38045   4.270   5.610   5.411 -1.6923  1.5769 -0.6936
 1023MOL0     H38046   4.185   5.727   5.269 -0.6022 -0.4255  1.5767
 1023MOL0     H38047   4.226   5.625   5.118  0.8510 -2.5427  0.6046
 1023MOL0     H38048   4.048   5.469   5.173 -0.0807 -0.8420 -0.2962
 1023MOL0     H38049   3.987   5.572   5.305 -0.5588 -0.9492 -0.2349
 1023MOL0     H38050   3.950   5.738   5.124  1.2991 -0.6702  0.0019
 1023MOL0     H38051   4.014   5.641   5.004 -0.6115  0.4114  0.4171
 1023MOL0     H38052   3.813   5.477   5.040  1.2432 -0.0334 -0.8674
 1023MOL0     H38053   3.771   5.597   5.168 -3.0520  2.9396 -1.9118
 1023MOL0     H38054   3.650   5.603   4.950 -2.1429  3.0223  1.0498
 1023MOL0     H38055   3.792   5.684   4.889  0.6307 -1.2360  0.0609
 1023MOL0     H38056   3.528   5.701   5.174 -0.7020 -0.9910 -2.9475
 1023MOL0     H38057   3.515   5.897   5.376  2.4606 -0.8286 -1.0582
 1023MOL0     H38058   3.518   6.063   5.325 -3.0938  1.5643 -0.6746
 1023MOL0     H38059   3.318   5.872   5.213  3.0048 -1.3854  1.5358
 1023MOL0     H38060   3.326   6.048   5.179  1.5784 -0.0459 -0.3585
 1023MOL0     H38061   3.313   6.092   5.430  1.3818 -2.1686  3.5770
 1023MOL0     H38062   3.283   5.921   5.448 -3.6560  1.3503  2.0270
 1023MOL0     H38063   3.076   5.940   5.306 -0.1860 -0.8144  0.7212
 1023MOL0     H38064   3.090   6.117   5.326  0.5709  0.4149  2.3675
 1023MOL0     H38065   2.932   6.005   5.716  3.1785  2.3713 -1.6135
 1023MOL0     H38066   2.726   6.152   5.872 -0.8210  0.2494 -0.8886
 1023MOL0     H38067   2.585   6.048   5.828 -0.6681 -2.0364 -1.2456
 1023MOL0     H38068   2.743   5.975   5.856 -2.4526 -1.3604 -1.0901
 1023MOL0     H38069   2.248   6.101   5.651  0.8796  1.6599  0.4092
 1023MOL0     H38070   2.004   6.140   5.649 -0.7403  0.5525 -0.1930
 1023MOL0     H38071   1.844   6.482   5.397 -0.8847  0.1705 -1.8211
 1023MOL0     H38072   1.849   6.340   5.294  2.9394 -1.0490  1.1294
 1023MOL0     H38073   1.669   6.246   5.440  0.2053 -0.4236 -1.4675
 1023MOL0     H38074   1.645   6.406   5.519 -1.0583  1.0075 -0.9026
 1023MOL0     H38075   1.624   6.477   5.253  1.3251 -0.5119  1.2643
 1023MOL0     H38076   1.491   6.439   5.355  0.1188 -0.3539  1.9908
 1023MOL0     H38077   1.621   6.217   5.206  1.3115  1.4717  2.0108
 1023MOL0     H38078   1.460   6.213   5.291 -2.2543 -1.6252 -2.9330
 1023MOL0     H38079   1.532   6.355   5.046  0.1579  0.6279  0.7837
 1023MOL0     H38080   1.374   6.377   5.119 -1.0248 -0.8606 -0.5691
 1023MOL0     H38081   1.485   6.129   4.987 -1.4283 -0.5730 -3.7357
 1023MOL0     H38082   1.331   6.135   5.086 -0.1802  0.4232 -0.0982
 1023MOL0     H38083   1.388   6.269   4.819  0.7529 -1.5158 -0.2861
 1023MOL0     H38084   1.246   6.299   4.918 -0.9474 -0.0931 -1.8145
 1023MOL0     H38085   1.184   6.068   4.932  0.2266 -0.6928  1.0000
 1023MOL0     H38086   1.317   6.021   4.828 -1.0117 -0.6516  0.0644
 1023MOL0     H38087   2.062   6.405   5.306 -1.1294  0.7787  1.0112
 1023MOL0     H38088   2.309   6.333   5.304 -1.5465  0.7383 -1.0622
 1023MOL0     H38089   2.644   6.175   5.344  0.4382 -0.9388 -0.6302
 1023MOL0     H38090   2.863   6.101   5.299 -0.0401 -2.3532  0.0690
 1023MOL0     H38091   4.853   5.455   5.279  1.1585 -0.0156  1.0779
 1023MOL0     H38092   5.042   5.313   5.373  0.3910 -1.8047 -0.6164
 1023MOL0     H38093   5.162   5.246   5.914 -0.5593  1.2823 -1.8342
 1023MOL0     H38094   5.351   5.127   6.023  5.3645 -0.9969 -1.7859
 1023MOL0     H38095   5.574   5.002   6.006  1.3843  0.4568  2.0804
 1023MOL0     H38096   5.450   4.975   6.126  0.8683  2.0327 -0.6307
 1023MOL0     H38097   5.538   4.762   6.181  0.4676 -0.4594 -1.2859
 1023MOL0     H38098   5.648   4.886   6.232  2.0011 -0.0532  0.1995
 1023MOL0     H38099   5.686   4.742   5.972  0.2430  1.4709 -0.1560
 1023MOL0     H38100   5.756   4.695   6.130  2.3092  2.4848  1.3015
 1023MOL0     H38101   5.841   4.943   6.162 -1.3357  1.0231 -1.0499
 1023MOL0     H38102   5.795   4.973   5.993 -2.0092  0.5755  0.4862
 1023MOL0     H38103   6.145   4.823   5.890  2.1009  1.5037  2.5528
 1023MOL0     H38104   5.265   4.790   5.769  0.1468  0.1588  0.8033
 1023MOL0     H38105   5.112   4.921   5.636  1.0580  1.8618 -0.9054
 1024MOL0     O38106   9.651   5.962   2.536 -0.3167  0.5158 -0.6345
 1024MOL0     C38107   9.750   5.951   2.607 -0.0403 -0.4117  0.2424
 1024MOL0     O38108   9.762   5.977   2.736 -0.0439 -0.5129  0.4581
 1024MOL0     C38109   9.665   6.037   2.811  0.9944 -0.2137  0.0180
 1024MOL0     C38110   9.660   6.016   2.948 -0.4837  0.3888  0.2646
 1024MOL0     C38111   9.591   6.092   3.040  1.1705  0.3319  0.2482
 1024MOL0     C38112   9.499   6.192   2.987 -0.2730 -0.6378 -0.7365
 1024MOL0     O38113   9.427   6.271   3.080  0.6178  0.1069 -0.0552
 1024MOL0     C38114   9.384   6.218   3.209  0.2928  0.0147  0.2829
 1024MOL0     C38115   9.242   6.257   3.244  0.3288  0.0957  0.3720
 1024MOL0     C38116   9.136   6.216   3.145 -0.2185  0.8408  0.2830
 1024MOL0     C38117   8.998   6.267   3.187  0.8519 -0.3101 -0.2427
 1024MOL0     C38118   8.888   6.215   3.097  0.0450  0.6983  0.4287
 1024MOL0     C38119   8.831   6.090   3.146 -0.2960 -0.7964  0.5453
 1024MOL0     C38120   8.728   6.024   3.052 -0.0501 -0.0458 -0.0877
 1024MOL0     C38121   8.616   6.124   3.001  0.1071 -0.7766 -0.4819
 1024MOL0     N38122   8.518   6.057   2.914 -0.1576 -0.4589  0.1659
 1024MOL0     C38123   8.384   6.049   2.925  0.8286  0.8571  0.4323
 1024MOL0     C38124   8.338   5.967   2.832  0.5592 -0.4393 -0.3533
 1024MOL0     C38125   8.192   5.931   2.816  0.0595 -0.1563  0.3201
 1024MOL0     C38126   8.104   6.051   2.834  0.4038  0.0506 -0.2621
 1024MOL0     C38127   7.957   6.021   2.777  0.4587  0.0664 -0.1565
 1024MOL0     C38128   7.859   5.936   2.865  0.3200 -0.8677 -0.7622
 1024MOL0     O38129   7.851   6.004   2.991  0.6049  0.4294  0.0788
 1024MOL0     C38130   7.731   6.054   3.026 -0.2173 -0.2811 -0.6753
 1024MOL0     C38131   7.630   6.091   2.943  0.7979 -0.3532  0.6862
 1024MOL0     C38132   7.504   6.147   2.994 -0.2661  0.7840  0.6615
 1024MOL0     C38133   7.408   6.213   2.892  0.2228 -0.2509 -0.0754
 1024MOL0     C38134   7.487   6.161   3.134  0.5064 -0.0107 -0.3454
 1024MOL0     C38135   7.369   6.214   3.204  0.4137  0.5613  0.2651
 1024MOL0     O38136   7.261   6.214   3.124 -0.0252  0.2715  0.3516
 1024MOL0     C38137   7.141   6.252   3.171  0.0458 -0.2070 -0.2660
 1024MOL0     C38138   7.055   6.323   3.082 -0.3786 -0.1974 -0.7853
 1024MOL0     C38139   6.923   6.352   3.116  0.3075  0.7131 -0.8999
 1024MOL0     C38140   6.875   6.304   3.240 -0.4023  0.4401  0.2606
 1024MOL0     O38141   6.744   6.332   3.268 -0.0147 -0.3610  0.5029
 1024MOL0     C38142   6.714   6.399   3.386  0.6761 -0.4391  0.1891
 1024MOL0     C38143   6.581   6.468   3.356 -0.6385 -0.4320 -0.0458
 1024MOL0     C38144   6.585   6.584   3.251  0.6805 -0.0642 -0.8077
 1024MOL0     C38145   6.441   6.609   3.203 -1.0346 -0.2538 -0.0716
 1024MOL0     C38146   6.345   6.678   3.306 -0.3777 -0.4514  0.5063
 1024MOL0     C38147   6.209   6.697   3.238  0.2897  0.3177  0.8135
 1024MOL0     C38148   6.105   6.795   3.297  0.3351  0.1429  0.5201
 1024MOL0     C38149   5.964   6.752   3.261 -0.4649  0.2557  0.1972
 1024MOL0    Cl38150   5.947   6.753   3.074 -0.2062  0.1611 -0.4806
 1024MOL0     C38151   6.958   6.244   3.334  0.1514  0.3677  0.6421
 1024MOL0     C38152   7.089   6.218   3.295  0.6265 -0.7049 -0.5896
 1024MOL0     O38153   7.374   6.240   3.323  0.8711  0.3784  0.0631
 1024MOL0     C38154   7.593   6.103   3.217  0.3701 -0.0595  0.3893
 1024MOL0     C38155   7.710   6.054   3.163 -0.4444  0.9703 -0.3599
 1024MOL0     N38156   8.451   5.928   2.764 -0.0999  0.6704  0.9257
 1024MOL0     N38157   8.556   5.983   2.811 -0.2914 -0.2510  0.8214
 1024MOL0     C38158   9.496   6.213   2.851  0.4597 -0.1351  0.4575
 1024MOL0     C38159   9.584   6.150   2.767 -0.5419 -0.1799  0.4025
 1024MOL0     C38160   9.867   5.904   2.530  0.1653  0.7898 -1.1784
 1024MOL0     C38161   9.869   5.896   2.392 -0.0024  0.8790 -0.2460
 1024MOL0     C38162   9.967   5.835   2.320  0.1379 -0.1012 -0.3419
 1024MOL0     C38163  10.081   5.790   2.397 -0.0262  0.5945 -0.8639
 1024MOL0     O38164  10.178   5.736   2.321 -0.3573  0.0295  0.1956
 1024MOL0     C38165  10.290   5.677   2.386 -0.2580 -0.1638 -0.5621
 1024MOL0     C38166  10.386   5.789   2.423  0.5319  0.3882 -0.5190
 1024MOL0     C38167  10.498   5.733   2.498  0.3141 -0.2564  0.1950
 1024MOL0     C38168  10.622   5.828   2.502  0.7115 -0.2321  0.0204
 1024MOL0     C38169  10.601   5.961   2.565  0.5723  0.5323 -1.6512
 1024MOL0     C38170  10.581   6.080   2.590 -0.7578 -0.1132 -0.3810
 1024MOL0     C38171  10.073   5.790   2.535 -0.2092 -0.1982  0.1106
 1024MOL0     C38172   9.972   5.838   2.601 -0.2997 -0.1212 -0.4200
 1024MOL0     H38173   9.732   5.941   2.980  1.8178  1.7205 -1.4844
 1024MOL0     H38174   9.610   6.079   3.146  1.3334  1.4726  0.3710
 1024MOL0     H38175   9.406   6.112   3.221  3.3806  0.2971 -1.6349
 1024MOL0     H38176   9.443   6.278   3.279 -0.1864  3.0248 -1.6712
 1024MOL0     H38177   9.219   6.234   3.348  0.0054 -2.6931 -0.2324
 1024MOL0     H38178   9.238   6.366   3.238  1.6824  0.1469 -4.6693
 1024MOL0     H38179   9.158   6.263   3.049  1.0280 -2.9428 -1.4851
 1024MOL0     H38180   9.139   6.107   3.150 -1.3735  0.7170 -1.1347
 1024MOL0     H38181   8.978   6.237   3.290  0.8522  0.5878  0.0222
 1024MOL0     H38182   9.000   6.376   3.187  1.1405 -0.3132  0.1468
 1024MOL0     H38183   8.806   6.287   3.100  0.3774  1.0761  0.4436
 1024MOL0     H38184   8.915   6.208   2.991  0.4058 -3.2814  0.6337
 1024MOL0     H38185   8.910   6.020   3.174 -1.1404 -1.6528  0.8044
 1024MOL0     H38186   8.781   6.109   3.241 -0.2468 -0.9891  0.6101
 1024MOL0     H38187   8.788   5.982   2.970  1.1464  2.0304 -0.3389
 1024MOL0     H38188   8.691   5.939   3.109 -1.3298  1.6854  1.7966
 1024MOL0     H38189   8.672   6.199   2.945  1.2152  0.0050  1.5809
 1024MOL0     H38190   8.569   6.179   3.083  1.1597  0.7596 -0.8568
 1024MOL0     H38191   8.326   6.080   3.012  0.3615  1.7344 -0.1813
 1024MOL0     H38192   8.177   5.883   2.719 -1.0901 -3.2334  1.8525
 1024MOL0     H38193   8.156   5.864   2.896 -3.2289  0.0716 -0.8391
 1024MOL0     H38194   8.139   6.126   2.762  1.9480 -0.5705 -0.1977
 1024MOL0     H38195   8.095   6.078   2.939  0.1845  0.8370 -0.4765
 1024MOL0     H38196   7.964   5.970   2.681 -1.9177  0.2747 -0.4966
 1024MOL0     H38197   7.907   6.116   2.757 -0.2466  0.0229  1.2669
 1024MOL0     H38198   7.901   5.837   2.885  0.5327 -0.9425 -1.5576
 1024MOL0     H38199   7.764   5.932   2.811 -0.4195 -1.1061  0.5077
 1024MOL0     H38200   7.638   6.086   2.835  2.0053  1.9008  0.6168
 1024MOL0     H38201   7.307   6.173   2.879 -0.0838  0.8169 -1.1858
 1024MOL0     H38202   7.403   6.318   2.922  3.7646  0.0789 -0.2589
 1024MOL0     H38203   7.456   6.194   2.795 -0.0127 -2.9458  0.2416
 1024MOL0     H38204   7.097   6.350   2.986 -0.0130  1.7306 -0.1359
 1024MOL0     H38205   6.855   6.405   3.049 -1.0816 -0.4855 -0.5159
 1024MOL0     H38206   6.713   6.331   3.471 -0.7023 -2.4796 -1.3412
 1024MOL0     H38207   6.790   6.477   3.390  2.8468 -2.3936 -0.5342
 1024MOL0     H38208   6.514   6.388   3.323  0.8467 -2.2379  1.0744
 1024MOL0     H38209   6.538   6.503   3.450  0.7324 -2.3216  1.3722
 1024MOL0     H38210   6.654   6.560   3.169  1.2350  2.2872 -1.0997
 1024MOL0     H38211   6.632   6.672   3.296  1.7044 -0.7271 -0.5260
 1024MOL0     H38212   6.439   6.681   3.120 -1.7078  2.0477  1.8179
 1024MOL0     H38213   6.404   6.513   3.167  0.5334 -0.7499 -0.4755
 1024MOL0     H38214   6.400   6.769   3.330  1.7197 -1.7027  0.6504
 1024MOL0     H38215   6.320   6.627   3.400 -2.9513 -0.2450  0.0244
 1024MOL0     H38216   6.232   6.745   3.142 -2.2778 -0.8865 -0.4825
 1024MOL0     H38217   6.169   6.598   3.217  0.9672  0.2320 -0.1732
 1024MOL0     H38218   6.125   6.898   3.266 -1.6263 -0.3464 -2.8779
 1024MOL0     H38219   6.121   6.803   3.405  3.1910  0.2818  0.1644
 1024MOL0     H38220   5.888   6.826   3.289  1.2598  2.8912 -1.6251
 1024MOL0     H38221   5.942   6.652   3.300  2.4925 -0.3338  0.6205
 1024MOL0     H38222   6.934   6.221   3.438 -2.9798 -0.3788 -0.1396
 1024MOL0     H38223   7.147   6.158   3.365 -0.4759 -0.4757  0.5609
 1024MOL0     H38224   7.583   6.099   3.325 -0.8880  0.8511  0.3232
 1024MOL0     H38225   7.784   6.010   3.228 -2.1819 -1.2226  0.2702
 1024MOL0     H38226   9.411   6.274   2.821  0.3696 -0.4425  0.0782
 1024MOL0     H38227   9.578   6.196   2.669  0.1026  3.2674  1.8035
 1024MOL0     H38228   9.791   5.952   2.340 -0.6111 -0.5320 -0.9032
 1024MOL0     H38229   9.961   5.832   2.212 -0.1844 -2.2213 -0.3076
 1024MOL0     H38230  10.257   5.621   2.474  1.5272  1.4852  1.2439
 1024MOL0     H38231  10.342   5.622   2.307  1.9808  0.4046  0.4549
 1024MOL0     H38232  10.331   5.854   2.491  0.8827 -1.3758  1.5708
 1024MOL0     H38233  10.416   5.854   2.340 -0.8906  1.6186 -0.1129
 1024MOL0     H38234  10.527   5.639   2.449 -1.9159  0.2452 -2.3257
 1024MOL0     H38235  10.467   5.706   2.599 -3.1219  0.3113 -0.5725
 1024MOL0     H38236  10.663   5.848   2.403  0.5122 -0.2307 -0.0634
 1024MOL0     H38237  10.693   5.773   2.565 -0.6348 -0.4061  1.4722
 1024MOL0     H38238  10.565   6.183   2.612 -2.1161 -0.6008  1.1600
 1024MOL0     H38239  10.149   5.747   2.600  1.1690  0.7308 -0.8448
 1024MOL0     H38240   9.980   5.838   2.709  3.6266 -1.9155 -0.5298
  11.34512  11.34512  11.34512
